FOO
138240
    1MOL0     O    1   1.540   1.281   7.591 -0.7338  0.1879  0.8028
    1MOL0     C    2   1.431   1.257   7.536 -0.4582  0.4556  0.1480
    1MOL0     O    3   1.311   1.272   7.599  0.0254 -0.4041 -0.0393
    1MOL0     C    4   1.327   1.302   7.733 -0.6250  0.5646  0.3524
    1MOL0     C    5   1.308   1.435   7.766 -0.6733 -0.6761  1.4690
    1MOL0     C    6   1.330   1.479   7.900 -0.1186  0.3589  0.0921
    1MOL0     C    7   1.356   1.380   7.997  0.3548  0.6156  0.3605
    1MOL0     O    8   1.370   1.415   8.132 -0.0566 -0.3570  0.5770
    1MOL0     C    9   1.431   1.547   8.161 -0.3460  0.8428  0.3621
    1MOL0     C   10   1.444   1.569   8.308 -0.4361  0.3815 -0.9631
    1MOL0     C   11   1.536   1.475   8.386 -0.7251 -0.0158  0.3531
    1MOL0     C   12   1.589   1.534   8.517  0.3525  0.6427 -0.0109
    1MOL0     C   13   1.643   1.423   8.603 -0.0025 -0.7562 -0.3741
    1MOL0     C   14   1.705   1.463   8.744  0.4944 -0.2576  1.0145
    1MOL0     C   15   1.597   1.539   8.821 -0.5771  0.7505 -0.2196
    1MOL0     C   16   1.646   1.579   8.962  0.1720 -0.0343  0.0384
    1MOL0     N   17   1.535   1.621   9.046 -0.0914 -0.7358 -0.1271
    1MOL0     C   18   1.546   1.642   9.185 -0.5549  0.8667 -0.6463
    1MOL0     C   19   1.419   1.660   9.210  0.6422  0.9023 -0.6436
    1MOL0     C   20   1.355   1.674   9.339  0.7410 -0.6545  0.2492
    1MOL0     C   21   1.410   1.800   9.401 -0.4705  0.0285 -0.4756
    1MOL0     C   22   1.326   1.852   9.527 -0.4741 -0.4542  0.4595
    1MOL0     C   23   1.179   1.886   9.500 -0.4228 -0.7263  0.2860
    1MOL0     O   24   1.115   1.935   9.620 -0.6081  0.0818 -0.7639
    1MOL0     C   25   1.094   1.850   9.723 -0.1937  0.0591  0.2859
    1MOL0     C   26   1.084   1.706   9.708 -0.2508 -0.2257  0.8309
    1MOL0     C   27   1.045   1.629   9.817  0.7668 -0.1130 -0.7412
    1MOL0     C   28   1.013   1.692   9.945  0.4385  1.1692  0.1969
    1MOL0     C   29   0.967   1.623  10.065  0.5563  0.1722  0.1000
    1MOL0     O   30   0.959   1.702  10.181 -0.5076  0.2238  0.9152
    1MOL0     C   31   0.922   1.645  10.300 -0.2059  0.2676 -0.7783
    1MOL0     C   32   0.805   1.570  10.313 -0.3139 -0.2174 -0.3875
    1MOL0     C   33   0.772   1.534  10.442 -0.4623 -0.1585 -0.4227
    1MOL0     C   34   0.847   1.557  10.559 -1.1018 -0.9588  0.0066
    1MOL0     O   35   0.793   1.538  10.691 -0.2874 -0.1983  0.6358
    1MOL0     C   36   0.872   1.460  10.773 -0.6861  0.1400  0.2781
    1MOL0     C   37   0.787   1.351  10.825 -0.3402  0.5059 -0.2771
    1MOL0     C   38   0.857   1.276  10.934  0.0072  0.4130 -0.4382
    1MOL0     C   39   0.849   1.354  11.067 -0.0621 -0.5379  0.7130
    1MOL0     C   40   0.902   1.269  11.180 -0.5718  0.4908 -0.1242
    1MOL0     C   41   0.890   1.338  11.318 -0.7436 -1.0523 -0.5642
    1MOL0     C   42   0.931   1.246  11.435 -0.2216 -0.6539 -0.0189
    1MOL0     C   43   0.960   1.320  11.562  0.7774 -1.0920 -0.0256
    1MOL0    Cl   44   1.027   1.224  11.706  0.3419 -0.4502 -0.1825
    1MOL0     C   45   0.969   1.625  10.546 -1.3707 -0.2958  0.4273
    1MOL0     C   46   1.008   1.660  10.417  0.3471 -0.1630 -0.1736
    1MOL0     O   47   0.933   1.506  10.057  0.3520 -0.2520  0.1187
    1MOL0     C   48   1.027   1.834   9.953 -1.0496  0.6571  0.5531
    1MOL0     C   49   1.078   1.910   9.845  0.0696  0.2931  0.1852
    1MOL0     N   50   1.342   1.667   9.107 -1.1293 -0.2468 -0.0627
    1MOL0     N   51   1.405   1.635   8.997 -0.3577  0.2349 -0.9799
    1MOL0     C   52   1.366   1.245   7.964 -0.5898 -0.5831 -0.6542
    1MOL0     C   53   1.366   1.209   7.835  0.5836 -0.6817  0.3668
    1MOL0     C   54   1.448   1.206   7.406 -0.7737 -0.7555 -0.1050
    1MOL0     C   55   1.537   1.273   7.312 -0.1891 -0.4395  0.5963
    1MOL0     C   56   1.561   1.222   7.186  0.2909 -0.7268  0.5504
    1MOL0     C   57   1.491   1.115   7.139  0.6564  0.4449  0.2632
    1MOL0     O   58   1.514   1.064   7.011 -0.1929  0.3122 -0.2940
    1MOL0     C   59   1.430   0.964   6.954 -0.4339  0.3231 -0.5494
    1MOL0     C   60   1.452   0.934   6.805  0.1791 -0.6463  0.7873
    1MOL0     C   61   1.596   0.920   6.772  0.1341  0.2799 -0.6562
    1MOL0     C   62   1.613   0.918   6.622 -0.5605 -0.1521  0.5847
    1MOL0     C   63   1.577   0.793   6.565 -1.2028  0.5165 -0.3496
    1MOL0     C   64   1.530   0.697   6.511  0.2085 -0.4398 -0.1308
    1MOL0     C   65   1.406   1.049   7.224  0.5004  0.2855 -0.1456
    1MOL0     C   66   1.384   1.097   7.356  0.6779 -0.4367  0.0175
    1MOL0     C   67   1.292   1.017   7.446 -0.8963  0.5771  0.0237
    1MOL0     H   68   1.290   1.504   7.684  1.7121 -1.3832  0.2647
    1MOL0     H   69   1.313   1.584   7.920 -2.3983  0.1317 -0.3032
    1MOL0     H   70   1.533   1.566   8.126 -0.9818  2.2820 -0.8406
    1MOL0     H   71   1.374   1.626   8.112 -0.1802 -0.1812 -1.5851
    1MOL0     H   72   1.346   1.584   8.355  0.2553  3.4901 -0.2370
    1MOL0     H   73   1.491   1.668   8.320  1.9133 -0.6591 -1.0251
    1MOL0     H   74   1.612   1.437   8.317 -2.5786 -2.3428 -0.5274
    1MOL0     H   75   1.476   1.390   8.420  0.1878 -1.7443 -2.0897
    1MOL0     H   76   1.677   1.592   8.488  1.0718 -1.5235 -2.6215
    1MOL0     H   77   1.509   1.590   8.566  0.7280  1.7532 -0.6078
    1MOL0     H   78   1.574   1.340   8.620 -2.5097  1.1814 -0.5022
    1MOL0     H   79   1.730   1.375   8.558  0.1655  0.2297 -1.1495
    1MOL0     H   80   1.724   1.367   8.793 -0.1687 -1.0781 -0.2550
    1MOL0     H   81   1.790   1.530   8.732 -0.4860  0.5739 -2.4983
    1MOL0     H   82   1.504   1.482   8.832 -0.8987  1.4373  0.7006
    1MOL0     H   83   1.572   1.632   8.769  0.3466  0.1353 -1.8410
    1MOL0     H   84   1.693   1.496   9.016 -1.6604  1.2538  3.9927
    1MOL0     H   85   1.713   1.665   8.977 -0.4700 -0.0801  4.2720
    1MOL0     H   86   1.623   1.621   9.258  0.5070 -2.3417 -2.4553
    1MOL0     H   87   1.246   1.672   9.323  0.4363  0.3531  1.9685
    1MOL0     H   88   1.375   1.593   9.410 -4.5071 -0.8865  1.8846
    1MOL0     H   89   1.506   1.766   9.443 -0.0184  3.0068  1.2742
    1MOL0     H   90   1.414   1.884   9.331 -2.7298  2.6274  2.2446
    1MOL0     H   91   1.375   1.938   9.574  1.5782 -0.6699 -1.1745
    1MOL0     H   92   1.329   1.780   9.610 -1.3147  0.1554  1.0331
    1MOL0     H   93   1.140   1.794   9.456 -4.0823  1.0197 -0.4982
    1MOL0     H   94   1.171   1.953   9.414 -1.3872 -1.3148 -0.0963
    1MOL0     H   95   1.094   1.660   9.610  0.7532  1.2846  0.1904
    1MOL0     H   96   1.026   1.523   9.804 -0.4233  0.2568 -2.3276
    1MOL0     H   97   0.735   1.564  10.230 -2.4271  0.0236  1.3090
    1MOL0     H   98   0.670   1.504  10.463 -0.5405  0.5659  0.2445
    1MOL0     H   99   0.953   1.412  10.717 -0.1545 -0.4838  1.5577
    1MOL0     H  100   0.912   1.522  10.854  2.4661 -0.7953 -0.4325
    1MOL0     H  101   0.697   1.394  10.870 -0.2817  0.7301 -0.3747
    1MOL0     H  102   0.763   1.282  10.744  0.9388  0.2782 -0.4803
    1MOL0     H  103   0.792   1.189  10.949 -0.5968  1.2469  2.5683
    1MOL0     H  104   0.961   1.251  10.913  0.7268  0.1364  2.9710
    1MOL0     H  105   0.745   1.384  11.086 -0.1803 -0.0235 -0.6704
    1MOL0     H  106   0.901   1.450  11.059 -1.9699  0.8280  3.1174
    1MOL0     H  107   1.006   1.244  11.159 -1.0857 -3.5935  1.3427
    1MOL0     H  108   0.847   1.177  11.199  0.0465  0.6102  2.6957
    1MOL0     H  109   0.955   1.426  11.321 -1.2453 -0.6621 -0.9661
    1MOL0     H  110   0.793   1.383  11.340 -0.9272 -0.5254 -2.2740
    1MOL0     H  111   1.024   1.195  11.408  0.5289  0.1956  0.9182
    1MOL0     H  112   0.850   1.175  11.457 -1.0419  0.3376  0.2036
    1MOL0     H  113   1.042   1.387  11.534 -0.7468 -0.1102 -2.4012
    1MOL0     H  114   0.880   1.375  11.611  2.0278 -0.4009  1.3260
    1MOL0     H  115   1.017   1.653  10.639 -1.3339  0.2133  0.2566
    1MOL0     H  116   1.104   1.708  10.405  0.2445 -0.6173 -3.7712
    1MOL0     H  117   1.016   1.892  10.044 -2.2685  1.0162  0.1963
    1MOL0     H  118   1.113   2.011   9.858  1.1437 -0.1751  1.0803
    1MOL0     H  119   1.390   1.177   8.044 -0.1071  0.0059 -0.2874
    1MOL0     H  120   1.389   1.106   7.812  0.5788 -1.0923  2.0309
    1MOL0     H  121   1.584   1.365   7.346 -0.2192 -0.2061  0.0240
    1MOL0     H  122   1.633   1.271   7.122  0.0813  0.3403  1.1000
    1MOL0     H  123   1.328   1.002   6.970 -1.0743 -1.8465  0.9560
    1MOL0     H  124   1.428   0.867   7.005 -1.0842  0.4705 -0.2835
    1MOL0     H  125   1.408   1.017   6.749 -1.7049 -1.3062  1.1985
    1MOL0     H  126   1.399   0.839   6.789  0.9231 -1.4154  2.6800
    1MOL0     H  127   1.622   0.821   6.811  1.0983  0.1169 -1.6479
    1MOL0     H  128   1.655   0.996   6.824 -1.5570  0.5851  0.9170
    1MOL0     H  129   1.572   1.008   6.575  1.1095 -0.1615 -0.9980
    1MOL0     H  130   1.719   0.931   6.603 -0.9385  3.3683  0.3098
    1MOL0     H  131   1.458   0.634   6.463 -1.9460 -0.0910  2.4155
    1MOL0     H  132   1.358   0.954   7.205  1.3551 -0.8066  2.5887
    1MOL0     H  133   1.340   0.994   7.541 -0.6375  1.2003  0.0499
    1MOL0     H  134   1.198   1.072   7.456  0.8225  3.2807  3.0777
    1MOL0     H  135   1.274   0.920   7.398  1.2815 -0.6544  1.5255
    2MOL0     O  136   6.378   8.800  11.396 -0.5020 -0.1974 -0.4284
    2MOL0     C  137   6.466   8.881  11.359  0.1623 -0.0938  0.1613
    2MOL0     O  138   6.587   8.840  11.309 -0.3998 -0.8041  0.1022
    2MOL0     C  139   6.604   8.710  11.287 -0.4696  1.2124  0.2184
    2MOL0     C  140   6.711   8.632  11.347 -0.4543  0.5861 -0.1805
    2MOL0     C  141   6.736   8.494  11.308  0.3646  0.0672 -0.0825
    2MOL0     C  142   6.651   8.434  11.212 -0.4270  0.0180  0.4469
    2MOL0     O  143   6.665   8.301  11.176 -0.6615 -0.8077  0.3154
    2MOL0     C  144   6.632   8.268  11.035 -0.8126  0.2731  0.0455
    2MOL0     C  145   6.705   8.137  11.002 -0.5459 -0.9730  0.2104
    2MOL0     C  146   6.648   8.014  11.067 -0.4358  0.0588 -0.7689
    2MOL0     C  147   6.519   7.962  10.987  0.9262 -0.4565  0.4742
    2MOL0     C  148   6.411   7.905  11.081 -0.8431 -0.2968  0.9390
    2MOL0     C  149   6.471   7.802  11.178 -0.2989 -0.3061  1.0633
    2MOL0     C  150   6.516   7.667  11.131  0.3146  0.1382 -0.4342
    2MOL0     C  151   6.445   7.618  11.006 -1.3027  0.1489  0.2639
    2MOL0     N  152   6.508   7.491  10.974 -0.3381 -0.0064  0.3668
    2MOL0     C  153   6.488   7.375  11.043  0.5611  0.1688 -0.4977
    2MOL0     C  154   6.549   7.274  10.964 -0.3820 -0.0076 -0.8359
    2MOL0     C  155   6.581   7.126  11.000 -0.5107 -0.4264 -0.1931
    2MOL0     C  156   6.444   7.064  11.051  1.0479 -0.0847 -0.0132
    2MOL0     C  157   6.453   6.913  11.047  0.7423 -0.0289  0.8206
    2MOL0     C  158   6.311   6.858  11.096 -0.3203 -0.1715 -0.7115
    2MOL0     O  159   6.283   6.910  11.227 -0.1552 -0.1427 -0.1781
    2MOL0     C  160   6.324   6.849  11.338  0.9782 -0.2725  0.6528
    2MOL0     C  161   6.415   6.741  11.336 -0.7509 -0.2763  0.4898
    2MOL0     C  162   6.457   6.694  11.457 -0.0536  0.7477 -0.7037
    2MOL0     C  163   6.421   6.751  11.582  0.5629  0.3615  1.3665
    2MOL0     C  164   6.483   6.709  11.707 -0.1881 -0.7989  0.8424
    2MOL0     O  165   6.469   6.797  11.815  0.5557 -1.1202  0.1988
    2MOL0     C  166   6.534   6.758  11.931  0.3760  0.4487  0.7543
    2MOL0     C  167   6.666   6.801  11.955 -0.0190  1.2247  0.0592
    2MOL0     C  168   6.728   6.742  12.068 -0.1044 -0.7680 -0.5295
    2MOL0     C  169   6.662   6.655  12.152  0.3113 -0.2109 -0.0951
    2MOL0     O  170   6.721   6.593  12.253 -0.2567  0.3030  0.1898
    2MOL0     C  171   6.647   6.532  12.359  0.6980  0.5357  0.5785
    2MOL0     C  172   6.746   6.486  12.456 -1.2673 -0.3724 -0.3554
    2MOL0     C  173   6.689   6.437  12.588  0.4330 -0.3329  0.3384
    2MOL0     C  174   6.561   6.360  12.568  0.1332  1.0627  0.0711
    2MOL0     C  175   6.506   6.313  12.709 -0.2726  0.2079  0.3479
    2MOL0     C  176   6.356   6.275  12.701 -0.2990 -0.5397  1.0946
    2MOL0     C  177   6.322   6.156  12.597  0.1072 -0.9449  0.3363
    2MOL0     C  178   6.340   6.016  12.658  0.8452  0.3501  1.6696
    2MOL0    Cl  179   6.233   6.006  12.808 -0.0815 -0.2627  0.2773
    2MOL0     C  180   6.525   6.620  12.124  0.4995 -0.6466  0.7123
    2MOL0     C  181   6.472   6.668  12.014 -0.7568 -0.6801  0.7634
    2MOL0     O  182   6.541   6.605  11.706  0.3507  0.5319  0.7072
    2MOL0     C  183   6.329   6.861  11.581 -0.4655  0.2509  0.1218
    2MOL0     C  184   6.276   6.903  11.463 -0.3161 -0.4217 -0.1198
    2MOL0     N  185   6.602   7.335  10.850 -0.6557  0.3742 -0.4298
    2MOL0     N  186   6.570   7.461  10.853  0.2189 -0.4586 -0.5666
    2MOL0     C  187   6.544   8.511  11.157  0.4723  0.3404  0.0067
    2MOL0     C  188   6.523   8.648  11.196 -0.3941  0.2611 -0.0426
    2MOL0     C  189   6.450   9.026  11.364  0.6862  0.1773 -0.0777
    2MOL0     C  190   6.550   9.110  11.310  0.5529  0.0678  0.3503
    2MOL0     C  191   6.534   9.249  11.303  0.0456 -0.0121 -0.0422
    2MOL0     C  192   6.424   9.305  11.361  0.7744  0.1069  0.5536
    2MOL0     O  193   6.416   9.442  11.378 -0.3738 -0.0696  0.6122
    2MOL0     C  194   6.292   9.500  11.405 -0.5530 -0.2635 -0.6005
    2MOL0     C  195   6.322   9.658  11.401 -0.3582 -0.2925 -0.1450
    2MOL0     C  196   6.322   9.700  11.544  0.2419  0.7648 -0.2222
    2MOL0     C  197   6.447   9.689  11.630 -0.0450  0.5569 -0.0180
    2MOL0     C  198   6.431   9.761  11.760 -0.1871 -0.0554  0.7092
    2MOL0     C  199   6.422   9.800  11.871 -0.7444 -0.1863 -0.9212
    2MOL0     C  200   6.316   9.216  11.399  0.1364 -0.0778 -0.4165
    2MOL0     C  201   6.334   9.085  11.413  0.2660 -0.3603  0.5560
    2MOL0     C  202   6.210   9.018  11.471 -0.5735 -0.3043 -0.6337
    2MOL0     H  203   6.781   8.688  11.407  2.8944  1.0978 -4.0977
    2MOL0     H  204   6.820   8.437  11.346  1.3431  2.0128  0.8470
    2MOL0     H  205   6.528   8.237  11.024 -0.0866 -2.9078  0.9273
    2MOL0     H  206   6.655   8.345  10.961 -0.3268  0.6915  0.6247
    2MOL0     H  207   6.808   8.156  11.033  0.1894 -1.2768 -1.8840
    2MOL0     H  208   6.705   8.123  10.894 -0.7692 -3.4809  0.4670
    2MOL0     H  209   6.611   8.046  11.165  2.3066 -1.0489  0.7255
    2MOL0     H  210   6.711   7.932  11.103 -2.5595 -0.5949  1.7775
    2MOL0     H  211   6.475   8.050  10.939  2.7806 -0.9530 -2.3943
    2MOL0     H  212   6.535   7.885  10.911  0.9944 -1.2820  1.3003
    2MOL0     H  213   6.343   7.977  11.126 -1.9863 -0.3740 -0.5772
    2MOL0     H  214   6.344   7.852  11.012 -1.1859  0.8942  0.3438
    2MOL0     H  215   6.549   7.846  11.240  1.9104  0.0630 -1.8052
    2MOL0     H  216   6.397   7.774  11.254 -1.9691  0.9159 -0.0237
    2MOL0     H  217   6.496   7.604  11.218 -2.2398  1.5606  0.1412
    2MOL0     H  218   6.623   7.665  11.109  0.9945 -1.6722  2.5682
    2MOL0     H  219   6.336   7.611  11.008 -1.4033  0.5278 -1.7419
    2MOL0     H  220   6.477   7.689  10.929  1.5051  2.2809  3.1213
    2MOL0     H  221   6.448   7.339  11.137  4.1843 -2.5378  0.2396
    2MOL0     H  222   6.617   7.066  10.916  0.8412 -0.4386  0.3632
    2MOL0     H  223   6.664   7.126  11.072 -0.6864  0.8033  0.0330
    2MOL0     H  224   6.428   7.090  11.156 -1.6235 -1.4868 -0.0025
    2MOL0     H  225   6.358   7.099  10.993  2.4592  0.7039 -1.7450
    2MOL0     H  226   6.520   6.879  11.127  1.8135  1.3245  0.5374
    2MOL0     H  227   6.468   6.860  10.952 -1.8567 -0.3510  0.5341
    2MOL0     H  228   6.301   6.750  11.092  1.3125 -0.4194  0.7618
    2MOL0     H  229   6.220   6.892  11.046 -1.7931  0.4470  2.1626
    2MOL0     H  230   6.464   6.701  11.248  1.7417  1.7378  0.8460
    2MOL0     H  231   6.516   6.603  11.461 -5.5937 -3.3138  1.2774
    2MOL0     H  232   6.716   6.860  11.879 -1.4459  2.0030 -0.3187
    2MOL0     H  233   6.834   6.763  12.077 -0.0459 -1.2947  0.0040
    2MOL0     H  234   6.585   6.605  12.412  1.8345  0.2294  2.4055
    2MOL0     H  235   6.580   6.452  12.327  0.6841  0.0749  1.7265
    2MOL0     H  236   6.808   6.402  12.422 -0.0649  0.6313 -0.7385
    2MOL0     H  237   6.821   6.564  12.473  0.2642 -2.0351  0.9779
    2MOL0     H  238   6.761   6.380  12.647  2.6171  2.1241  0.2159
    2MOL0     H  239   6.677   6.522  12.656  1.3962 -0.0646  0.1932
    2MOL0     H  240   6.585   6.268  12.514 -0.7916  0.3631  0.8125
    2MOL0     H  241   6.491   6.430  12.521 -0.2738  1.9305  1.8875
    2MOL0     H  242   6.512   6.402  12.772 -0.3947  0.0427  0.5950
    2MOL0     H  243   6.569   6.232  12.746 -1.2770 -0.1868  1.2613
    2MOL0     H  244   6.330   6.258  12.806  2.4574 -0.0779  1.9173
    2MOL0     H  245   6.297   6.354  12.653  0.5657  1.1212  2.6383
    2MOL0     H  246   6.377   6.166  12.503  4.2291 -2.7127  2.3260
    2MOL0     H  247   6.217   6.172  12.569 -0.2742  0.0718  2.1889
    2MOL0     H  248   6.286   5.940  12.602 -2.0817  2.6011  1.1942
    2MOL0     H  249   6.447   5.996  12.669  1.1536 -2.5978 -3.4664
    2MOL0     H  250   6.463   6.557  12.186  1.3298 -1.0093  1.1830
    2MOL0     H  251   6.382   6.628  11.969 -0.3778 -0.2733 -0.4137
    2MOL0     H  252   6.295   6.915  11.668 -1.0706  1.1187 -0.6454
    2MOL0     H  253   6.201   6.981  11.458 -2.1761 -2.0443  1.1528
    2MOL0     H  254   6.466   8.478  11.089  1.6839  0.3494 -1.4417
    2MOL0     H  255   6.433   8.695  11.156 -0.9306 -1.7709 -1.3570
    2MOL0     H  256   6.647   9.075  11.276  0.8212  0.4245  0.7339
    2MOL0     H  257   6.613   9.318  11.274 -1.0462  1.0647 -0.5415
    2MOL0     H  258   6.258   9.465  11.503  3.4705  0.6747  1.3700
    2MOL0     H  259   6.217   9.477  11.330 -2.0062  1.4113  0.2667
    2MOL0     H  260   6.253   9.716  11.339  1.3821  2.1057  0.0126
    2MOL0     H  261   6.420   9.676  11.355  0.3283  0.0558  1.4118
    2MOL0     H  262   6.234   9.647  11.582  0.1309 -1.4328 -3.1688
    2MOL0     H  263   6.294   9.805  11.547 -3.5620 -0.0855  0.6571
    2MOL0     H  264   6.459   9.582  11.649  0.4109  0.6601  0.2918
    2MOL0     H  265   6.534   9.723  11.573  0.8425  0.7062  1.3986
    2MOL0     H  266   6.408   9.847  11.967 -0.6204 -1.2031 -0.3843
    2MOL0     H  267   6.218   9.260  11.410  1.1728  1.9767  1.6179
    2MOL0     H  268   6.171   9.085  11.547  2.5611  0.7497  0.1778
    2MOL0     H  269   6.131   8.988  11.401 -2.3032  0.7246  0.8148
    2MOL0     H  270   6.241   8.926  11.522  0.4278 -0.7331 -1.9421
    3MOL0     O  271   3.246   6.004   8.576  0.1233 -0.5890  0.4588
    3MOL0     C  272   3.154   5.959   8.503  0.5113 -0.2423 -0.8908
    3MOL0     O  273   3.035   5.917   8.550 -0.1345  0.3360  0.3166
    3MOL0     C  274   3.015   5.905   8.689  1.4373  0.4677  0.2659
    3MOL0     C  275   2.956   5.781   8.728  0.6672 -0.5462 -0.0589
    3MOL0     C  276   2.935   5.747   8.860 -0.5321  0.1636 -1.6413
    3MOL0     C  277   2.966   5.845   8.963 -0.0159  0.3426  1.0179
    3MOL0     O  278   2.946   5.821   9.096  0.1686  0.5839  0.2803
    3MOL0     C  279   2.874   5.710   9.142  0.1489  0.2131 -0.7863
    3MOL0     C  280   2.816   5.717   9.287 -0.4587 -1.0771  0.6188
    3MOL0     C  281   2.727   5.605   9.315  0.1720 -0.5055  0.4317
    3MOL0     C  282   2.800   5.480   9.361 -0.7592 -0.4729 -0.1939
    3MOL0     C  283   2.698   5.397   9.442  0.5257  0.6159  0.1591
    3MOL0     C  284   2.761   5.271   9.503  0.7721  0.5224 -0.9628
    3MOL0     C  285   2.656   5.214   9.593 -0.1009  0.4668  0.4663
    3MOL0     C  286   2.703   5.081   9.655 -0.2820 -0.3096 -0.0041
    3MOL0     N  287   2.807   5.093   9.753  0.9471  0.5967 -0.0026
    3MOL0     C  288   2.798   5.169   9.876 -0.4135  0.3838  0.0062
    3MOL0     C  289   2.911   5.134   9.946  0.2489 -0.3686  0.2600
    3MOL0     C  290   2.957   5.175  10.073  0.3347 -0.0979  0.4787
    3MOL0     C  291   3.066   5.290  10.093  0.5153 -0.5289 -0.7610
    3MOL0     C  292   3.116   5.318  10.242  0.2282 -0.0372 -0.1750
    3MOL0     C  293   3.099   5.458  10.272 -0.2361  0.4010 -0.1889
    3MOL0     O  294   3.179   5.550  10.187 -0.5586  0.7944 -0.3296
    3MOL0     C  295   3.149   5.685  10.198 -0.3429 -0.3047 -1.8806
    3MOL0     C  296   3.213   5.769  10.111 -0.3093 -0.2115 -0.4861
    3MOL0     C  297   3.221   5.914  10.134  0.2206 -0.4698  0.7103
    3MOL0     C  298   3.170   5.970  10.256 -0.8422 -0.2876  0.3920
    3MOL0     C  299   3.179   6.113  10.288 -0.0675 -0.1901  0.3449
    3MOL0     O  300   3.256   6.188  10.198  0.5017 -0.1711 -0.5573
    3MOL0     C  301   3.275   6.321  10.231  0.7510 -1.3038 -0.4737
    3MOL0     C  302   3.407   6.380  10.223 -0.6301 -0.9964 -0.0614
    3MOL0     C  303   3.418   6.519  10.229 -0.1712  0.1551  0.1408
    3MOL0     C  304   3.314   6.607  10.253 -0.0349 -0.0294  1.0854
    3MOL0     O  305   3.337   6.744  10.256  0.8939  0.1404 -0.2021
    3MOL0     C  306   3.270   6.818  10.159 -0.2937 -0.5894 -0.0407
    3MOL0     C  307   3.328   6.962  10.172 -0.0470  0.7746  0.3083
    3MOL0     C  308   3.251   7.064  10.092  0.3142 -0.1235 -0.6630
    3MOL0     C  309   3.302   7.215  10.097  0.0511 -0.2796 -0.5282
    3MOL0     C  310   3.213   7.293   9.999 -0.5960 -1.5349 -0.8115
    3MOL0     C  311   3.062   7.308  10.020 -0.1388  0.2985 -1.1175
    3MOL0     C  312   2.972   7.217   9.939  0.1139  0.5014  1.0128
    3MOL0     C  313   2.823   7.259   9.943 -0.6086  0.2820  0.8104
    3MOL0    Cl  314   2.761   7.246  10.116  0.0920  0.2058 -0.0586
    3MOL0     C  315   3.184   6.552  10.282  0.1254 -0.5292 -0.3380
    3MOL0     C  316   3.168   6.412  10.260 -0.6550  0.0974  0.2819
    3MOL0     O  317   3.118   6.155  10.382  0.0041 -0.5648  0.6054
    3MOL0     C  318   3.082   5.888  10.326 -0.4538  0.0668 -1.5903
    3MOL0     C  319   3.071   5.749  10.300  0.4358 -0.0629  0.1285
    3MOL0     N  320   2.995   5.062   9.867  0.7624  0.6200  0.0965
    3MOL0     N  321   2.925   5.022   9.763  0.2810  0.2487  0.1649
    3MOL0     C  322   3.011   5.966   8.925  0.1721  0.3839 -0.2619
    3MOL0     C  323   3.035   5.996   8.795 -0.1149  0.4835  0.1629
    3MOL0     C  324   3.175   5.957   8.352 -0.3886 -0.3815 -0.0572
    3MOL0     C  325   3.291   6.033   8.303 -0.2292  0.0908  0.4258
    3MOL0     C  326   3.301   6.059   8.166 -0.2519 -0.8328  0.0794
    3MOL0     C  327   3.218   5.996   8.084 -0.3102  0.8116 -0.6461
    3MOL0     O  328   3.234   6.011   7.950  0.3533 -0.4408  0.0334
    3MOL0     C  329   3.147   6.114   7.894 -0.1941  0.0264 -0.1218
    3MOL0     C  330   3.178   6.147   7.757 -0.9301 -0.4950 -0.7623
    3MOL0     C  331   3.309   6.241   7.753  0.0030 -0.0207  0.4629
    3MOL0     C  332   3.440   6.158   7.715  1.5634 -0.3203  0.0290
    3MOL0     C  333   3.550   6.243   7.679 -0.1804 -0.0121 -0.5498
    3MOL0     C  334   3.627   6.326   7.634  0.5684  1.5871  0.3439
    3MOL0     C  335   3.124   5.904   8.131  0.0452 -0.2021  0.3885
    3MOL0     C  336   3.097   5.885   8.267  0.2772 -0.6551  0.5042
    3MOL0     C  337   2.993   5.781   8.302 -0.1425 -0.5009  0.1712
    3MOL0     H  338   2.949   5.700   8.655 -1.5632  0.8322 -1.5008
    3MOL0     H  339   2.898   5.647   8.882  2.6292 -1.1814 -1.8712
    3MOL0     H  340   2.789   5.683   9.078 -1.7497  0.3989  1.5467
    3MOL0     H  341   2.938   5.621   9.138 -0.2716 -0.4711  3.5523
    3MOL0     H  342   2.760   5.810   9.293 -1.6462 -1.7845  0.7794
    3MOL0     H  343   2.895   5.722   9.363  0.0265  0.1596  0.0611
    3MOL0     H  344   2.692   5.570   9.218 -2.0463  0.7016  0.7513
    3MOL0     H  345   2.637   5.630   9.371 -1.0128 -2.6879 -0.3919
    3MOL0     H  346   2.840   5.429   9.274 -0.9559 -1.4921  0.2972
    3MOL0     H  347   2.879   5.516   9.428  0.5564  0.1343 -1.9802
    3MOL0     H  348   2.657   5.453   9.526  2.5927 -2.4559  3.5189
    3MOL0     H  349   2.623   5.357   9.373 -1.2228 -1.1107  2.8951
    3MOL0     H  350   2.782   5.197   9.425  0.9970  1.4649 -1.8181
    3MOL0     H  351   2.854   5.297   9.555  0.4671 -0.9473  0.3904
    3MOL0     H  352   2.561   5.203   9.541  1.2803  0.7161 -2.3191
    3MOL0     H  353   2.643   5.286   9.674  3.7072 -0.5328  2.2412
    3MOL0     H  354   2.622   5.045   9.719  0.9916  0.4644  2.1739
    3MOL0     H  355   2.740   5.011   9.580  5.4992  1.9540  0.1907
    3MOL0     H  356   2.724   5.233   9.923  2.7308  2.6298  2.4106
    3MOL0     H  357   2.862   5.208  10.117  0.7933  3.4208 -0.8439
    3MOL0     H  358   3.003   5.082  10.107  2.0760 -0.5319 -2.6736
    3MOL0     H  359   3.145   5.249  10.030 -1.5867 -3.1302 -1.9023
    3MOL0     H  360   3.036   5.383  10.043  1.2408  1.0433  1.5610
    3MOL0     H  361   3.222   5.292  10.253  0.7900  2.1515 -0.0638
    3MOL0     H  362   3.056   5.264  10.316  2.9253 -1.3993  1.1571
    3MOL0     H  363   3.136   5.476  10.373  2.2332 -2.7531 -0.3851
    3MOL0     H  364   2.992   5.480  10.257 -0.2282 -1.3903 -4.0256
    3MOL0     H  365   3.261   5.731  10.022 -0.8950 -5.4536  1.1017
    3MOL0     H  366   3.278   5.969  10.060 -0.8139  2.2318  1.7694
    3MOL0     H  367   3.493   6.315  10.211 -0.9090 -1.1151 -1.8114
    3MOL0     H  368   3.516   6.566  10.229  1.0019 -2.1784 -0.0803
    3MOL0     H  369   3.306   6.782  10.063 -2.8315  1.7473 -2.0480
    3MOL0     H  370   3.164   6.812  10.184 -0.4486 -1.6094 -0.8975
    3MOL0     H  371   3.322   7.001  10.274 -0.0381  1.8632 -0.0955
    3MOL0     H  372   3.431   6.952  10.137  0.0908 -0.6733  1.0097
    3MOL0     H  373   3.250   7.041   9.985  3.0652 -2.4725 -0.2977
    3MOL0     H  374   3.150   7.046  10.129  1.4205 -2.5158  1.4893
    3MOL0     H  375   3.404   7.219  10.060 -0.2170  0.0320 -1.2501
    3MOL0     H  376   3.306   7.261  10.197  1.6983  2.8317 -1.8733
    3MOL0     H  377   3.232   7.261   9.896 -2.2683  0.2620 -1.7474
    3MOL0     H  378   3.259   7.392   9.998  2.9710 -3.0263  0.7089
    3MOL0     H  379   3.046   7.280  10.125  1.0410 -2.4605 -1.5841
    3MOL0     H  380   3.027   7.409   9.999  0.5848  1.1308  1.3165
    3MOL0     H  381   2.987   7.116   9.978 -0.6723  0.0735  0.2406
    3MOL0     H  382   3.006   7.226   9.836  0.9794  2.2240  1.3983
    3MOL0     H  383   2.816   7.363   9.910  0.5834  0.0693 -0.1596
    3MOL0     H  384   2.761   7.192   9.882  2.7545 -1.3884 -1.0608
    3MOL0     H  385   3.104   6.620  10.310  2.0424  2.6680 -2.0447
    3MOL0     H  386   3.065   6.380  10.250 -0.3785 -0.1643 -3.3342
    3MOL0     H  387   3.028   5.928  10.412  0.7524  0.4993 -1.0067
    3MOL0     H  388   3.017   5.694  10.376 -1.2969 -0.5487 -1.4042
    3MOL0     H  389   3.038   6.043   8.996  1.2343  1.5859 -1.8868
    3MOL0     H  390   3.075   6.092   8.765  1.2396  0.5866  2.1099
    3MOL0     H  391   3.360   6.079   8.373  2.0291 -1.0065 -0.9657
    3MOL0     H  392   3.373   6.131   8.128 -1.0774 -0.1440 -0.2193
    3MOL0     H  393   3.149   6.210   7.947 -1.4414 -0.0005  0.0025
    3MOL0     H  394   3.047   6.069   7.899  0.8289 -2.2819  1.0289
    3MOL0     H  395   3.091   6.193   7.709  0.1954  0.3734 -2.0542
    3MOL0     H  396   3.207   6.058   7.701  1.4343  0.4595 -1.1667
    3MOL0     H  397   3.325   6.298   7.845  1.7135  1.0413 -0.4502
    3MOL0     H  398   3.288   6.309   7.670 -2.1793  1.3172  2.0185
    3MOL0     H  399   3.459   6.094   7.802  0.5730  1.1404  1.3953
    3MOL0     H  400   3.416   6.097   7.627  0.2552  1.5517 -1.0004
    3MOL0     H  401   3.701   6.390   7.590  2.3437 -0.4954  0.1012
    3MOL0     H  402   3.061   5.846   8.064 -3.1046  5.1217 -1.9049
    3MOL0     H  403   2.974   5.717   8.216  0.6957 -1.6597  0.8169
    3MOL0     H  404   3.040   5.717   8.377  2.5922 -1.4743 -2.2231
    3MOL0     H  405   2.899   5.831   8.329 -0.8948 -0.3889 -2.4506
    4MOL0     O  406   8.860   9.875   1.522 -0.0373 -0.1604  0.0867
    4MOL0     C  407   8.825   9.956   1.609  0.1774 -0.2196  0.5051
    4MOL0     O  408   8.899  10.065   1.655 -0.1769  0.3922  0.0557
    4MOL0     C  409   9.019  10.094   1.605 -0.6288 -0.2572 -0.3511
    4MOL0     C  410   9.052  10.115   1.470 -0.1150  0.7394 -0.3433
    4MOL0     C  411   9.182  10.131   1.429 -0.2213 -0.5509 -0.1436
    4MOL0     C  412   9.280  10.146   1.528  0.8254 -0.4356 -0.3630
    4MOL0     O  413   9.410  10.149   1.497 -0.7894 -0.1324 -1.1395
    4MOL0     C  414   9.447  10.198   1.361 -0.3906  1.1236  0.4624
    4MOL0     C  415   9.599  10.181   1.342 -0.5233  0.1191 -0.5312
    4MOL0     C  416   9.637  10.215   1.198  0.0986  0.0894 -0.0521
    4MOL0     C  417   9.790  10.204   1.159  0.3167  0.2668 -0.0526
    4MOL0     C  418   9.801  10.246   1.019  0.0480 -0.2512 -0.3542
    4MOL0     C  419   9.934  10.193   0.963  0.2800 -0.2300  0.2585
    4MOL0     C  420  10.006  10.286   0.861 -0.1047 -0.5445  0.7728
    4MOL0     C  421   9.954  10.282   0.716  0.9268  0.7776 -0.1081
    4MOL0     N  422   9.995  10.404   0.637  0.4831  0.6313  0.2426
    4MOL0     C  423  10.109  10.411   0.554 -0.2980  0.6983 -0.0787
    4MOL0     C  424  10.102  10.543   0.524 -0.2087 -0.2229 -0.0514
    4MOL0     C  425  10.215  10.628   0.469 -0.4619  0.7331 -0.0458
    4MOL0     C  426  10.330  10.541   0.413  0.7110 -0.7412  0.5704
    4MOL0     C  427  10.414  10.603   0.300 -0.1374 -0.1237 -0.3979
    4MOL0     C  428  10.467  10.748   0.348 -0.2900  0.7654  0.5029
    4MOL0     O  429  10.560  10.739   0.455  0.1597  0.1741  0.1799
    4MOL0     C  430  10.696  10.743   0.441  0.1774 -0.2960  0.7001
    4MOL0     C  431  10.765  10.722   0.320  0.5587  0.2683  0.3090
    4MOL0     C  432  10.900  10.739   0.301 -0.6153 -0.4431  0.2735
    4MOL0     C  433  10.976  10.784   0.416  0.0461 -0.0510 -0.2791
    4MOL0     C  434  11.117  10.804   0.410  0.0061  0.1289  0.3167
    4MOL0     O  435  11.170  10.792   0.286  0.3344 -0.2660 -0.3978
    4MOL0     C  436  11.308  10.794   0.275  0.5373  0.3651  0.4538
    4MOL0     C  437  11.385  10.703   0.348  0.5511 -0.5777  0.2722
    4MOL0     C  438  11.527  10.709   0.358 -0.1470 -0.9048  0.6519
    4MOL0     C  439  11.591  10.807   0.275  0.7672  0.5988 -1.0035
    4MOL0     O  440  11.727  10.821   0.264 -0.3897  0.1064 -0.0618
    4MOL0     C  441  11.820  10.735   0.334 -0.4139  0.5763 -0.0566
    4MOL0     C  442  11.847  10.638   0.230 -0.2811 -0.0692  0.5152
    4MOL0     C  443  11.977  10.565   0.268 -0.3040  0.0575 -0.0012
    4MOL0     C  444  12.011  10.435   0.178  0.8618  0.4390 -0.8756
    4MOL0     C  445  12.159  10.395   0.183 -0.0676 -0.2196 -0.9626
    4MOL0     C  446  12.254  10.484   0.106  1.2763 -0.0505 -1.0307
    4MOL0     C  447  12.400  10.447   0.133  0.0852  0.3711 -0.6766
    4MOL0     C  448  12.461  10.330   0.048 -0.8375  0.0010  0.2679
    4MOL0    Cl  449  12.637  10.338   0.044  0.0218 -0.2593 -0.3428
    4MOL0     C  450  11.520  10.884   0.186  0.1402  1.3439  0.0756
    4MOL0     C  451  11.381  10.883   0.193  0.8930  0.4083 -0.7051
    4MOL0     O  452  11.178  10.814   0.516  0.0197 -0.4149  0.1228
    4MOL0     C  453  10.912  10.797   0.540  0.3200  0.2809  0.5758
    4MOL0     C  454  10.776  10.781   0.552 -0.2630  0.2592 -0.4741
    4MOL0     N  455   9.981  10.601   0.561  0.0253  0.3764  0.3091
    4MOL0     N  456   9.928  10.521   0.635 -0.6117 -0.0836 -1.7052
    4MOL0     C  457   9.249  10.139   1.664 -0.2263  0.0139 -0.3157
    4MOL0     C  458   9.119  10.119   1.703 -0.0637  0.2904  0.0398
    4MOL0     C  459   8.708   9.918   1.699 -0.3659  0.3255 -0.3551
    4MOL0     C  460   8.697   9.973   1.824 -0.2870  0.2512 -0.0948
    4MOL0     C  461   8.582   9.961   1.901  0.8171  0.4797  0.7952
    4MOL0     C  462   8.473   9.882   1.856  0.2562  0.4572 -0.5415
    4MOL0     O  463   8.356   9.878   1.928  0.1266 -0.4723  0.5034
    4MOL0     C  464   8.314   9.967   2.029 -0.2351 -0.7733  0.5302
    4MOL0     C  465   8.278  10.095   1.947  0.0446 -0.0496  0.9276
    4MOL0     C  466   8.214  10.080   1.816  0.0516 -0.8843  0.4887
    4MOL0     C  467   8.141  10.210   1.769  0.1960  0.2458 -0.0721
    4MOL0     C  468   8.078  10.199   1.636 -0.8658  0.2651  1.4221
    4MOL0     C  469   8.053  10.185   1.519  0.6955 -0.2203 -0.0460
    4MOL0     C  470   8.488   9.813   1.740 -0.1439 -0.0203 -0.1039
    4MOL0     C  471   8.601   9.829   1.659 -0.0776  0.6944  0.8076
    4MOL0     C  472   8.589   9.749   1.531  0.6461 -0.0511  0.7013
    4MOL0     H  473   8.979  10.103   1.390 -1.2283  1.9151  0.4499
    4MOL0     H  474   9.202  10.134   1.323  4.0262  2.5889  0.4796
    4MOL0     H  475   9.398  10.137   1.284 -1.2324 -2.0993  3.2983
    4MOL0     H  476   9.412  10.301   1.349  0.8552  1.5266  0.1679
    4MOL0     H  477   9.625  10.079   1.370 -1.2787  0.5252  1.9763
    4MOL0     H  478   9.650  10.250   1.410  0.3746 -1.3601  0.3549
    4MOL0     H  479   9.608  10.320   1.187 -2.5397 -0.7145 -1.6578
    4MOL0     H  480   9.579  10.151   1.130  1.2471  0.6839 -1.6430
    4MOL0     H  481   9.847  10.273   1.222  0.9929 -0.2684 -0.0692
    4MOL0     H  482   9.824  10.101   1.175  0.7721  0.8410  3.6570
    4MOL0     H  483   9.717  10.219   0.955 -0.5015  3.0174 -1.2175
    4MOL0     H  484   9.811  10.355   1.026  3.3470 -0.4387 -0.5950
    4MOL0     H  485   9.996  10.187   1.054  0.4219  2.4276  0.4229
    4MOL0     H  486   9.912  10.092   0.927  0.7522 -0.8384  1.5840
    4MOL0     H  487  10.114  10.267   0.865  0.2909  1.3787  0.3230
    4MOL0     H  488   9.996  10.394   0.879 -3.0700 -0.2655 -1.7769
    4MOL0     H  489   9.991  10.195   0.661  1.0401 -0.3048  1.6297
    4MOL0     H  490   9.845  10.267   0.710  1.3258 -2.5915 -0.8218
    4MOL0     H  491  10.194  10.343   0.553  1.4510  2.7435 -1.9861
    4MOL0     H  492  10.167  10.681   0.386 -2.0010 -0.8974 -0.2650
    4MOL0     H  493  10.254  10.673   0.560 -2.1856 -0.3576  1.2894
    4MOL0     H  494  10.393  10.509   0.497  1.7479 -1.0911 -0.3173
    4MOL0     H  495  10.288  10.446   0.380  0.7051 -0.3124 -0.7124
    4MOL0     H  496  10.358  10.596   0.206 -0.1678  0.4790 -0.4253
    4MOL0     H  497  10.508  10.545   0.294  0.9271  1.3447  1.1926
    4MOL0     H  498  10.387  10.806   0.394 -2.1021 -0.1846 -1.2716
    4MOL0     H  499  10.505  10.802   0.260  3.3553  0.3467  1.6383
    4MOL0     H  500  10.703  10.706   0.233  0.2935  1.0623  0.3426
    4MOL0     H  501  10.947  10.725   0.204 -1.9251 -2.8363 -0.0808
    4MOL0     H  502  11.343  10.627   0.413  2.3535 -0.2779  1.8501
    4MOL0     H  503  11.579  10.635   0.418 -1.3978 -1.7554  0.7167
    4MOL0     H  504  11.912  10.787   0.362 -0.4111 -0.4371  2.0710
    4MOL0     H  505  11.775  10.684   0.420 -3.2809  1.6330 -0.7891
    4MOL0     H  506  11.766  10.565   0.222  0.5220 -0.7839 -1.9277
    4MOL0     H  507  11.846  10.689   0.133 -3.6502  0.1126  0.5042
    4MOL0     H  508  12.062  10.634   0.263 -0.1298 -0.2289 -4.5277
    4MOL0     H  509  11.974  10.523   0.370 -1.6949 -0.3893 -0.2002
    4MOL0     H  510  11.991  10.447   0.072 -1.7669 -2.3279 -0.8074
    4MOL0     H  511  11.945  10.360   0.222  0.7696  1.7541  1.4401
    4MOL0     H  512  12.156  10.291   0.153 -3.0683  0.0310 -1.8735
    4MOL0     H  513  12.197  10.394   0.286 -2.8528  1.9992  0.2562
    4MOL0     H  514  12.224  10.471   0.001  3.2305  2.3322 -1.9640
    4MOL0     H  515  12.245  10.584   0.149  4.3086 -0.8801  1.9257
    4MOL0     H  516  12.422  10.431   0.239 -2.9066 -0.5476 -0.1088
    4MOL0     H  517  12.460  10.536   0.112  2.1283 -0.5582  0.8799
    4MOL0     H  518  12.427  10.237   0.095  0.0517  0.0957  1.1253
    4MOL0     H  519  12.416  10.338  -0.052  1.2276  1.8710 -0.5708
    4MOL0     H  520  11.585  10.925   0.108  0.9943 -3.5179 -2.2019
    4MOL0     H  521  11.332  10.949   0.122  0.3067  2.3718  1.3726
    4MOL0     H  522  10.968  10.818   0.631 -0.0957  0.1577  0.8626
    4MOL0     H  523  10.736  10.771   0.652 -0.7747  0.5643 -0.6464
    4MOL0     H  524   9.333  10.145   1.732  1.9701 -0.6172 -2.7916
    4MOL0     H  525   9.101  10.104   1.809  4.0754 -0.6218  0.7651
    4MOL0     H  526   8.780  10.026   1.869 -0.8188 -0.4002  1.7493
    4MOL0     H  527   8.572  10.010   1.997 -2.6476  1.3379  0.1403
    4MOL0     H  528   8.389   9.977   2.108  2.2153 -0.7246 -1.6542
    4MOL0     H  529   8.217   9.946   2.075 -1.7513 -2.0213 -2.9096
    4MOL0     H  530   8.369  10.155   1.955  1.7493 -2.0862 -1.8446
    4MOL0     H  531   8.202  10.139   2.013  0.0855 -1.3361  1.8664
    4MOL0     H  532   8.147   9.994   1.820  3.0800 -3.3942  2.0365
    4MOL0     H  533   8.292  10.051   1.744 -2.8743 -2.4592 -2.2927
    4MOL0     H  534   8.058  10.235   1.836 -0.6470 -2.2433 -0.0422
    4MOL0     H  535   8.209  10.293   1.753  0.1053 -0.2221 -3.8171
    4MOL0     H  536   8.019  10.206   1.419  1.5686 -1.9530 -0.7610
    4MOL0     H  537   8.403   9.751   1.718 -1.0332  1.4715 -1.0775
    4MOL0     H  538   8.607   9.807   1.439  0.7638 -0.3557  0.5307
    4MOL0     H  539   8.674   9.681   1.521  1.9942  1.1999  2.9271
    4MOL0     H  540   8.491   9.702   1.526 -0.0402  0.4012  5.4261
    5MOL0     O  541   9.611   4.790   2.996  0.3241  0.5729  0.1183
    5MOL0     C  542   9.647   4.895   2.940 -0.0545 -0.1547  0.2909
    5MOL0     O  543   9.701   4.899   2.806 -0.5310 -0.0256 -0.6326
    5MOL0     C  544   9.707   4.787   2.728  0.7837  0.6451 -1.3235
    5MOL0     C  545   9.816   4.764   2.643 -0.5944 -0.3330  1.1147
    5MOL0     C  546   9.846   4.644   2.572 -0.4285  0.0468 -0.0591
    5MOL0     C  547   9.749   4.550   2.576  0.3966  0.0759 -0.6721
    5MOL0     O  548   9.749   4.423   2.513 -0.9219  0.0689  0.1153
    5MOL0     C  549   9.870   4.378   2.445 -0.6952 -0.2005 -0.1170
    5MOL0     C  550   9.974   4.322   2.536  0.2136  0.0924 -0.2439
    5MOL0     C  551   9.931   4.228   2.649  0.9554  0.1798 -0.0735
    5MOL0     C  552  10.056   4.137   2.701  0.7341 -0.3372 -0.1264
    5MOL0     C  553  10.033   4.058   2.834  0.1670  0.2331  0.0242
    5MOL0     C  554   9.942   3.936   2.819 -0.1774  0.3863 -0.2541
    5MOL0     C  555   9.917   3.849   2.948 -0.1019  0.7966  0.0736
    5MOL0     C  556   9.833   3.727   2.906 -0.0353  0.6755 -0.0585
    5MOL0     N  557   9.704   3.744   2.837 -0.7894 -1.1675  0.0588
    5MOL0     C  558   9.585   3.777   2.897  0.1847  0.3315 -0.6186
    5MOL0     C  559   9.498   3.789   2.800  1.1651  0.3217 -0.0692
    5MOL0     C  560   9.342   3.821   2.816 -1.7565 -0.0925 -0.4021
    5MOL0     C  561   9.272   3.705   2.878  0.0661  0.2416  0.2194
    5MOL0     C  562   9.290   3.571   2.799  0.2569 -1.0610  0.6840
    5MOL0     C  563   9.165   3.481   2.826  0.9451 -0.9884  0.3751
    5MOL0     O  564   9.159   3.364   2.733  0.5004  0.7995 -0.6070
    5MOL0     C  565   9.089   3.381   2.619  0.2624  0.6057  0.0095
    5MOL0     C  566   8.957   3.432   2.594 -0.1590 -0.5779  0.2817
    5MOL0     C  567   8.912   3.426   2.461  0.6813 -0.1802 -0.1111
    5MOL0     C  568   8.988   3.401   2.354  0.9104 -0.2758  0.1033
    5MOL0     C  569   8.952   3.417   2.215 -0.4900 -0.8365 -0.8521
    5MOL0     O  570   9.040   3.389   2.113  0.1774 -0.4240 -0.7607
    5MOL0     C  571   8.984   3.404   1.985 -0.7034  0.9070 -0.0051
    5MOL0     C  572   9.065   3.472   1.891  0.3074  0.8899 -0.8760
    5MOL0     C  573   9.016   3.489   1.761  0.3883 -0.1216  0.5025
    5MOL0     C  574   8.887   3.443   1.723  0.6450  1.3312 -0.3226
    5MOL0     O  575   8.824   3.448   1.598  0.2801 -0.4617  0.0927
    5MOL0     C  576   8.887   3.537   1.506  0.6121  0.4379 -0.8378
    5MOL0     C  577   8.782   3.554   1.391 -0.7243  0.1094 -0.1965
    5MOL0     C  578   8.828   3.654   1.291 -0.6792  0.2986 -0.1654
    5MOL0     C  579   8.714   3.723   1.208  0.7865  0.2914 -0.4450
    5MOL0     C  580   8.648   3.627   1.111  0.6239 -0.2662  0.1475
    5MOL0     C  581   8.727   3.614   0.985 -0.4161 -0.3074 -0.8473
    5MOL0     C  582   8.680   3.526   0.874  0.1729  0.1277 -0.0706
    5MOL0     C  583   8.797   3.461   0.796  0.1629 -0.4539 -0.8430
    5MOL0    Cl  584   8.745   3.362   0.654  0.4479  0.2253 -0.2929
    5MOL0     C  585   8.820   3.361   1.821  0.3344  0.1795 -0.7322
    5MOL0     C  586   8.872   3.338   1.942 -0.4296 -0.2599 -0.1917
    5MOL0     O  587   8.837   3.460   2.195  0.8660 -0.5792 -0.3500
    5MOL0     C  588   9.110   3.341   2.372  0.5562  0.6115  0.1117
    5MOL0     C  589   9.162   3.335   2.502  0.1730 -0.0014 -0.9805
    5MOL0     N  590   9.558   3.762   2.681  0.0312 -0.3623  1.0086
    5MOL0     N  591   9.685   3.735   2.706 -0.3327 -1.1014  0.1417
    5MOL0     C  592   9.635   4.561   2.658 -0.9600  0.6469 -0.4428
    5MOL0     C  593   9.614   4.679   2.729  0.2779  0.4363  0.2405
    5MOL0     C  594   9.645   5.021   3.018 -0.2673 -0.5066 -0.0962
    5MOL0     C  595   9.603   5.015   3.156 -0.8783 -0.3938  0.1116
    5MOL0     C  596   9.596   5.117   3.241 -0.1597 -0.7725  0.5059
    5MOL0     C  597   9.636   5.244   3.201  0.1032 -0.7648  0.9890
    5MOL0     O  598   9.628   5.344   3.287 -0.5254 -0.4785 -0.5434
    5MOL0     C  599   9.700   5.469   3.252 -0.5854 -0.2691  0.6046
    5MOL0     C  600   9.610   5.577   3.212  0.1288  0.2807 -0.3321
    5MOL0     C  601   9.673   5.716   3.196 -0.2733 -0.1013  0.4743
    5MOL0     C  602   9.725   5.769   3.331  0.2447  0.3455 -0.4491
    5MOL0     C  603   9.801   5.894   3.309  0.4229  0.5045 -0.3262
    5MOL0     C  604   9.842   6.009   3.290  0.2824  0.7116 -0.7128
    5MOL0     C  605   9.685   5.257   3.065  0.6669 -0.2804 -0.1591
    5MOL0     C  606   9.685   5.147   2.972 -0.3369 -0.9054  0.6163
    5MOL0     C  607   9.719   5.187   2.842 -0.4877  0.1469  0.3498
    5MOL0     H  608   9.878   4.852   2.637 -1.9497  0.5521 -0.6557
    5MOL0     H  609   9.928   4.645   2.501 -0.5256  1.3174 -0.1739
    5MOL0     H  610   9.847   4.298   2.375 -1.4401 -1.7873  1.8407
    5MOL0     H  611   9.901   4.467   2.390  0.4319 -0.6623 -0.2549
    5MOL0     H  612  10.025   4.396   2.597 -1.2312  1.0091 -0.0929
    5MOL0     H  613  10.058   4.281   2.480  2.0415  1.6419  1.2152
    5MOL0     H  614   9.844   4.172   2.613 -0.5238  2.0186  0.4274
    5MOL0     H  615   9.883   4.283   2.731  2.3136  1.3425 -0.0286
    5MOL0     H  616  10.082   4.071   2.618  1.2343  1.1811 -1.2076
    5MOL0     H  617  10.143   4.202   2.713 -0.5718  2.1576 -2.9259
    5MOL0     H  618  10.131   4.021   2.865  0.2207  1.2151  1.0720
    5MOL0     H  619   9.994   4.126   2.911  0.5250  3.6455 -2.5568
    5MOL0     H  620   9.846   3.977   2.788  0.2230  0.7598 -1.0365
    5MOL0     H  621   9.971   3.872   2.735 -0.5330 -0.6392  0.3860
    5MOL0     H  622   9.853   3.910   3.011  0.8853  1.2431  0.6650
    5MOL0     H  623  10.009   3.828   3.004 -0.4297 -2.0158 -0.2930
    5MOL0     H  624   9.900   3.661   2.851  0.0666 -1.6278  2.6234
    5MOL0     H  625   9.809   3.676   2.999 -2.4887  3.6137  1.0984
    5MOL0     H  626   9.571   3.816   2.998  0.1429  1.2726 -0.9832
    5MOL0     H  627   9.327   3.913   2.874 -1.3643 -1.3179  1.7466
    5MOL0     H  628   9.303   3.834   2.715  1.2451 -5.1036 -2.5680
    5MOL0     H  629   9.306   3.691   2.981 -0.6717  2.0011  0.7430
    5MOL0     H  630   9.164   3.717   2.891 -0.2271 -0.6696 -1.1374
    5MOL0     H  631   9.383   3.519   2.825 -1.2390 -2.4749  3.6169
    5MOL0     H  632   9.294   3.596   2.693 -2.4124  2.2606  1.2054
    5MOL0     H  633   9.068   3.529   2.811  0.2631 -2.7923 -1.6097
    5MOL0     H  634   9.165   3.446   2.930  0.3313  0.1699  0.7782
    5MOL0     H  635   8.893   3.460   2.677 -2.3393 -4.2396  0.0473
    5MOL0     H  636   8.811   3.463   2.445 -0.2213 -1.4757  2.0090
    5MOL0     H  637   9.161   3.516   1.915 -0.3158  2.3395 -0.9398
    5MOL0     H  638   9.081   3.529   1.684  0.6786 -0.3445  0.6332
    5MOL0     H  639   8.901   3.634   1.555 -0.4948  1.2841 -2.1194
    5MOL0     H  640   8.980   3.499   1.463 -0.5975 -0.1983 -3.0350
    5MOL0     H  641   8.773   3.462   1.332 -1.8412 -1.7541  2.6621
    5MOL0     H  642   8.686   3.573   1.438  0.8291  3.5474  1.9764
    5MOL0     H  643   8.866   3.737   1.351 -2.1779  0.2630  0.8860
    5MOL0     H  644   8.915   3.619   1.235  0.6869  2.6067  0.3882
    5MOL0     H  645   8.770   3.794   1.147 -0.1404  1.5647  0.1343
    5MOL0     H  646   8.643   3.767   1.279  1.2473  2.2581 -1.1321
    5MOL0     H  647   8.552   3.670   1.081  0.7798 -0.2990 -0.4124
    5MOL0     H  648   8.629   3.527   1.151  1.3571 -0.8334 -0.8615
    5MOL0     H  649   8.722   3.721   0.960 -1.4020 -0.1841 -0.1955
    5MOL0     H  650   8.828   3.585   1.016 -0.7610 -0.1710  0.4678
    5MOL0     H  651   8.615   3.586   0.809  2.3290 -0.8670 -3.3908
    5MOL0     H  652   8.610   3.450   0.910 -1.3970  1.3310 -0.4147
    5MOL0     H  653   8.878   3.531   0.774  0.4599  0.2610  2.0507
    5MOL0     H  654   8.844   3.394   0.869 -2.4481 -0.1805  1.2632
    5MOL0     H  655   8.733   3.297   1.808 -0.8054  0.9211  2.2876
    5MOL0     H  656   8.829   3.277   2.022  0.7285 -0.3123  0.4114
    5MOL0     H  657   9.174   3.306   2.293 -0.9624 -4.2935  0.7562
    5MOL0     H  658   9.255   3.279   2.508  1.2448  1.8274  4.5185
    5MOL0     H  659   9.560   4.484   2.669 -1.9661  1.2595 -2.5263
    5MOL0     H  660   9.519   4.694   2.778 -0.6938  0.0402 -1.4660
    5MOL0     H  661   9.569   4.923   3.203 -2.2102  1.1843  2.4356
    5MOL0     H  662   9.537   5.121   3.332 -2.6766  1.3577 -1.0971
    5MOL0     H  663   9.780   5.460   3.179 -3.6367 -6.1718 -2.6774
    5MOL0     H  664   9.753   5.499   3.343 -0.1247  1.0950 -0.0873
    5MOL0     H  665   9.532   5.597   3.287  2.9801  2.0385  2.4078
    5MOL0     H  666   9.561   5.545   3.120 -1.3291  1.2218  0.0820
    5MOL0     H  667   9.591   5.777   3.157 -0.6469 -1.0248 -0.2458
    5MOL0     H  668   9.758   5.724   3.128  2.2996  4.4019  3.7020
    5MOL0     H  669   9.649   5.784   3.408 -0.0739 -1.0608 -0.4531
    5MOL0     H  670   9.801   5.701   3.371  0.5276  1.0094  0.1697
    5MOL0     H  671   9.869   6.111   3.271 -0.5665  0.8865 -1.0080
    5MOL0     H  672   9.708   5.356   3.028 -0.8430  0.9804  2.0465
    5MOL0     H  673   9.648   5.146   2.769  0.4415  0.6780 -0.8708
    5MOL0     H  674   9.732   5.294   2.825  0.2619  0.5885  3.2197
    5MOL0     H  675   9.815   5.140   2.821 -0.2270  0.6737  0.3576
    6MOL0     O  676   7.013   8.942   8.199 -1.0919  0.3471  0.6078
    6MOL0     C  677   7.057   8.957   8.087 -0.2191 -0.6361 -0.5481
    6MOL0     O  678   7.150   8.882   8.026 -0.1527 -0.5814 -0.5830
    6MOL0     C  679   7.220   8.787   8.102  0.4094 -0.4675  0.7719
    6MOL0     C  680   7.345   8.823   8.154 -0.0535 -0.9255  0.5227
    6MOL0     C  681   7.415   8.747   8.244 -0.3007 -0.1023  0.2152
    6MOL0     C  682   7.355   8.626   8.284 -0.4087  0.1502  1.0936
    6MOL0     O  683   7.431   8.557   8.377  0.8448 -0.2208  0.0423
    6MOL0     C  684   7.401   8.408   8.398  0.3302  0.1591  0.4300
    6MOL0     C  685   7.502   8.348   8.496 -0.5652 -0.0086 -1.3485
    6MOL0     C  686   7.656   8.358   8.453 -0.0505  0.9822 -0.4579
    6MOL0     C  687   7.750   8.362   8.577 -0.0912 -0.0790 -0.1730
    6MOL0     C  688   7.898   8.362   8.522 -0.3216  0.2173 -0.0575
    6MOL0     C  689   7.935   8.478   8.426 -0.4609 -0.4205  0.1541
    6MOL0     C  690   7.899   8.610   8.486 -0.1036 -0.2869  0.9318
    6MOL0     C  691   7.975   8.726   8.417 -0.8037 -0.2178  0.3115
    6MOL0     N  692   7.935   8.849   8.494 -0.6990 -0.2988 -0.2923
    6MOL0     C  693   7.934   8.967   8.426 -0.3014 -0.2965 -0.5004
    6MOL0     C  694   7.882   9.061   8.505 -0.8292 -0.0175 -0.0766
    6MOL0     C  695   7.860   9.209   8.488  1.1208  0.4038 -0.2856
    6MOL0     C  696   7.761   9.230   8.376  0.8096 -0.1571  0.1545
    6MOL0     C  697   7.629   9.157   8.405  0.3263  0.1049 -0.1189
    6MOL0     C  698   7.515   9.158   8.299 -0.4651 -0.2802 -0.2244
    6MOL0     O  699   7.471   9.295   8.270  0.1036 -0.0874  1.1719
    6MOL0     C  700   7.421   9.325   8.145  0.3870 -0.3314 -0.3700
    6MOL0     C  701   7.515   9.364   8.047  0.0952 -0.7346  0.3558
    6MOL0     C  702   7.478   9.420   7.917  0.2902  1.0291  1.1689
    6MOL0     C  703   7.348   9.408   7.876  1.4606  0.5533 -0.4489
    6MOL0     C  704   7.308   9.441   7.740 -0.3828 -0.9242 -0.3900
    6MOL0     O  705   7.395   9.509   7.664  0.2602  0.3656 -0.7731
    6MOL0     C  706   7.365   9.534   7.532  0.2024 -0.4919  0.4033
    6MOL0     C  707   7.460   9.485   7.443 -0.2429 -0.1393 -0.0208
    6MOL0     C  708   7.444   9.521   7.300  0.0111 -0.1924 -0.3049
    6MOL0     C  709   7.336   9.592   7.248  0.4573 -0.0899 -0.0705
    6MOL0     O  710   7.294   9.612   7.118  0.2751 -0.5503  0.8931
    6MOL0     C  711   7.346   9.526   7.013  0.3147  0.1969  1.0425
    6MOL0     C  712   7.283   9.547   6.888  0.4880  0.4572  0.1871
    6MOL0     C  713   7.129   9.539   6.891  0.0256 -0.1000 -0.1557
    6MOL0     C  714   7.077   9.534   6.749 -0.2838 -0.1054  0.0539
    6MOL0     C  715   6.927   9.504   6.732  0.0859  0.4271  1.1080
    6MOL0     C  716   6.875   9.535   6.587 -0.1859  0.5739  0.1557
    6MOL0     C  717   6.944   9.467   6.473 -0.3953  0.4390  0.7298
    6MOL0     C  718   6.843   9.455   6.351 -0.1460 -0.0658  0.4440
    6MOL0    Cl  719   6.898   9.336   6.242  0.3418  0.2622  0.2519
    6MOL0     C  720   7.247   9.643   7.347 -0.2240  0.7287 -0.1247
    6MOL0     C  721   7.256   9.612   7.484 -1.0868 -0.0547 -0.0077
    6MOL0     O  722   7.201   9.395   7.703 -0.5839 -0.2557  0.2137
    6MOL0     C  723   7.257   9.350   7.971  0.6028  0.0628  0.3778
    6MOL0     C  724   7.294   9.316   8.099 -0.6397 -0.7332 -0.8517
    6MOL0     N  725   7.847   8.989   8.623 -0.0823 -0.4372 -0.0102
    6MOL0     N  726   7.881   8.866   8.624  0.2731 -0.7984  0.2444
    6MOL0     C  727   7.236   8.578   8.222  0.8188 -0.3882 -0.4140
    6MOL0     C  728   7.169   8.663   8.122 -0.0548 -0.0309 -0.5158
    6MOL0     C  729   6.989   9.067   8.011  0.2582 -0.5511  1.3039
    6MOL0     C  730   7.029   9.090   7.871 -0.7537 -0.4478 -0.4833
    6MOL0     C  731   6.969   9.189   7.782  0.1385  0.3853 -0.4663
    6MOL0     C  732   6.864   9.266   7.838 -0.1011  0.0170  0.9485
    6MOL0     O  733   6.800   9.372   7.783 -0.5715  0.7447  0.9732
    6MOL0     C  734   6.843   9.451   7.661  0.0906  0.3967 -0.6212
    6MOL0     C  735   6.740   9.453   7.545  0.7923 -1.2946  0.3416
    6MOL0     C  736   6.781   9.560   7.437  0.0128  0.8649 -0.2036
    6MOL0     C  737   6.711   9.549   7.311 -0.9964  1.0062  1.1045
    6MOL0     C  738   6.567   9.577   7.323 -0.2372 -0.1710 -0.6686
    6MOL0     C  739   6.454   9.612   7.336 -0.5655 -0.3325 -0.6341
    6MOL0     C  740   6.826   9.245   7.973  0.4962 -0.0211  0.7412
    6MOL0     C  741   6.884   9.146   8.057 -0.6931  0.8044  0.0857
    6MOL0     C  742   6.826   9.152   8.196 -0.3972  0.1562 -0.0865
    6MOL0     H  743   7.375   8.926   8.135  0.5068 -1.1826 -0.0276
    6MOL0     H  744   7.507   8.791   8.282 -1.0703  1.1288  0.6767
    6MOL0     H  745   7.306   8.395   8.451  0.2104 -1.4086 -0.1267
    6MOL0     H  746   7.392   8.356   8.303 -0.3113 -2.1614  1.6740
    6MOL0     H  747   7.467   8.248   8.525  0.1698 -0.6500 -2.6145
    6MOL0     H  748   7.501   8.411   8.585 -0.7466 -0.9289 -0.6846
    6MOL0     H  749   7.664   8.447   8.391 -1.3072 -0.9684 -3.6876
    6MOL0     H  750   7.688   8.276   8.388  0.2478 -1.0647  2.0800
    6MOL0     H  751   7.722   8.451   8.634 -1.4699 -0.8677  0.4283
    6MOL0     H  752   7.734   8.271   8.635  2.7839 -0.7977 -0.3252
    6MOL0     H  753   7.964   8.375   8.608  1.7889 -1.4976 -1.3286
    6MOL0     H  754   7.920   8.267   8.472 -2.9878 -0.0411 -0.8809
    6MOL0     H  755   8.040   8.478   8.395 -0.8483 -2.7229 -1.4604
    6MOL0     H  756   7.878   8.465   8.333 -2.5739 -0.3432  1.3675
    6MOL0     H  757   7.928   8.599   8.590 -1.3818  0.7089  1.4214
    6MOL0     H  758   7.792   8.628   8.473 -0.7160 -2.5258  2.2697
    6MOL0     H  759   8.083   8.719   8.433 -0.5349  0.5017 -1.0925
    6MOL0     H  760   7.960   8.725   8.309  0.7915 -1.9773  0.0618
    6MOL0     H  761   7.967   8.974   8.323 -0.7248  1.1495 -0.5518
    6MOL0     H  762   7.821   9.250   8.583 -0.9137 -0.9826 -0.4430
    6MOL0     H  763   7.949   9.271   8.477  1.6683 -0.4191 -0.5361
    6MOL0     H  764   7.738   9.335   8.354 -0.2549 -0.4114 -0.0173
    6MOL0     H  765   7.805   9.189   8.285 -1.0601 -3.7318  0.6995
    6MOL0     H  766   7.589   9.211   8.491  1.4685  0.2196  0.3609
    6MOL0     H  767   7.643   9.049   8.417 -2.3064 -0.2279  0.5455
    6MOL0     H  768   7.437   9.092   8.339 -0.7749  1.1937  1.7957
    6MOL0     H  769   7.540   9.114   8.202 -0.7239  0.8898 -0.8408
    6MOL0     H  770   7.619   9.373   8.073  0.3703 -0.9728 -0.6033
    6MOL0     H  771   7.555   9.459   7.851  1.9440 -3.6868 -0.1572
    6MOL0     H  772   7.552   9.438   7.478  1.6076  1.5772 -2.2966
    6MOL0     H  773   7.516   9.481   7.230  1.5490  1.1233  0.4714
    6MOL0     H  774   7.451   9.551   6.995 -0.0326  2.3592  1.6684
    6MOL0     H  775   7.334   9.421   7.041 -0.8917 -0.1402 -0.5960
    6MOL0     H  776   7.295   9.643   6.837 -1.5668  1.0462  0.7370
    6MOL0     H  777   7.326   9.468   6.825 -0.4882  1.2015 -1.4665
    6MOL0     H  778   7.095   9.449   6.943  0.8181 -0.2463  0.1291
    6MOL0     H  779   7.092   9.629   6.941  4.8542  1.6760  0.7587
    6MOL0     H  780   7.140   9.470   6.685 -0.1199 -0.6415  0.7441
    6MOL0     H  781   7.090   9.635   6.709 -3.5817  1.1602  1.8880
    6MOL0     H  782   6.862   9.560   6.800  0.9464  0.4851  1.8943
    6MOL0     H  783   6.901   9.401   6.756  0.8716  0.2878  1.3805
    6MOL0     H  784   6.771   9.502   6.588 -0.0616  0.1617 -0.3283
    6MOL0     H  785   6.876   9.643   6.575  0.2310  0.8094  1.9160
    6MOL0     H  786   6.979   9.368   6.504 -0.1590 -0.2405 -1.5390
    6MOL0     H  787   7.039   9.518   6.454  0.0561 -0.1513  1.3626
    6MOL0     H  788   6.746   9.423   6.389 -1.1783 -0.1410 -2.0771
    6MOL0     H  789   6.835   9.551   6.298 -3.1074 -0.9708 -0.9678
    6MOL0     H  790   7.158   9.696   7.316 -1.4632 -0.9498  0.3792
    6MOL0     H  791   7.171   9.636   7.547  1.6279 -2.5871  5.2882
    6MOL0     H  792   7.154   9.327   7.943  0.8672 -0.1563 -0.4566
    6MOL0     H  793   7.221   9.283   8.173  1.0935  2.2983  2.5253
    6MOL0     H  794   7.184   8.486   8.244  1.8865 -1.1327 -0.9114
    6MOL0     H  795   7.079   8.632   8.069 -1.4241 -2.3143  2.7913
    6MOL0     H  796   7.120   9.034   7.850 -1.9180 -3.0419  0.9322
    6MOL0     H  797   7.004   9.216   7.682 -1.2506  0.9961 -0.8040
    6MOL0     H  798   6.938   9.410   7.626  0.7723  0.7041  0.7894
    6MOL0     H  799   6.860   9.550   7.705 -1.4624  0.5032 -0.2151
    6MOL0     H  800   6.641   9.482   7.581  2.0149  0.7271  2.3275
    6MOL0     H  801   6.730   9.349   7.512 -2.5554 -1.2535  0.8751
    6MOL0     H  802   6.889   9.556   7.418 -0.2717  0.5076 -1.8263
    6MOL0     H  803   6.753   9.652   7.490 -4.4103 -1.0276  1.1475
    6MOL0     H  804   6.752   9.629   7.251  0.4072 -0.8582 -0.5479
    6MOL0     H  805   6.725   9.455   7.256  0.4804  2.1886 -0.6404
    6MOL0     H  806   6.356   9.653   7.350 -1.0153 -1.3951 -0.6128
    6MOL0     H  807   6.742   9.304   8.009  0.7138  0.9292 -0.2527
    6MOL0     H  808   6.903   9.186   8.265  0.2385  1.3592 -1.3271
    6MOL0     H  809   6.742   9.222   8.199 -0.7156 -0.2698  2.1141
    6MOL0     H  810   6.782   9.055   8.219  0.1308 -0.3052 -0.9374
    7MOL0     O  811   5.265   7.068   7.863 -0.6220  0.1456 -0.6832
    7MOL0     C  812   5.209   7.160   7.814  0.0901  0.4156  0.4999
    7MOL0     O  813   5.275   7.270   7.770 -0.0671 -0.5568  0.2515
    7MOL0     C  814   5.381   7.316   7.838  0.0825 -0.7518  0.2510
    7MOL0     C  815   5.507   7.272   7.803  0.7874  0.6367 -0.1443
    7MOL0     C  816   5.615   7.327   7.868 -0.3935  0.5726 -0.3244
    7MOL0     C  817   5.610   7.427   7.977  1.0004  0.1708  0.5743
    7MOL0     O  818   5.718   7.483   8.050  0.3102 -0.3113  0.6354
    7MOL0     C  819   5.847   7.498   7.996 -0.3345 -0.5083 -0.3119
    7MOL0     C  820   5.950   7.492   8.107 -0.9520 -0.3866 -1.2576
    7MOL0     C  821   6.088   7.542   8.074  0.3781 -1.3915  0.1978
    7MOL0     C  822   6.181   7.600   8.179  0.0672  0.3080  0.3900
    7MOL0     C  823   6.143   7.736   8.219  0.0813 -0.4801 -0.6254
    7MOL0     C  824   6.223   7.781   8.348 -0.2618 -0.6801 -0.3957
    7MOL0     C  825   6.206   7.705   8.474  0.6127 -0.1698  0.3960
    7MOL0     C  826   6.064   7.708   8.523 -0.0900 -0.4338  0.2397
    7MOL0     N  827   6.014   7.846   8.543  0.3312  0.2550 -0.0757
    7MOL0     C  828   6.078   7.934   8.630 -0.8670  0.2018 -0.0628
    7MOL0     C  829   6.015   8.054   8.603  0.1942  0.0622 -0.2446
    7MOL0     C  830   6.047   8.185   8.683  0.0431 -1.0310 -0.1988
    7MOL0     C  831   5.922   8.242   8.758 -0.7089  0.3970  1.3504
    7MOL0     C  832   5.924   8.204   8.909 -0.0104  0.2290  0.4896
    7MOL0     C  833   5.861   8.064   8.920  0.8514 -0.3323  0.4020
    7MOL0     O  834   5.777   8.054   9.037 -0.3878  0.7560  0.3758
    7MOL0     C  835   5.706   7.944   9.053  0.7502 -0.2674 -0.1283
    7MOL0     C  836   5.638   7.927   9.176 -0.0619  0.4155 -0.8178
    7MOL0     C  837   5.553   7.817   9.199 -0.2071 -0.2819  0.3277
    7MOL0     C  838   5.528   7.728   9.102 -0.9592 -0.5001 -0.5310
    7MOL0     C  839   5.445   7.619   9.139 -0.1429 -0.9535  0.6680
    7MOL0     O  840   5.408   7.599   9.269  0.4782  0.4796  0.5081
    7MOL0     C  841   5.317   7.492   9.288 -0.3209 -0.1576  0.2772
    7MOL0     C  842   5.180   7.509   9.239 -0.6294  0.3435  0.6464
    7MOL0     C  843   5.101   7.392   9.256 -0.2920 -0.3387 -0.9694
    7MOL0     C  844   5.140   7.277   9.329  0.0514  0.1685  0.1499
    7MOL0     O  845   5.035   7.188   9.334  0.1131 -0.1411 -0.6546
    7MOL0     C  846   5.047   7.099   9.456 -0.2560  0.2342  0.5459
    7MOL0     C  847   5.017   7.152   9.597  0.4955 -0.7022 -0.0766
    7MOL0     C  848   4.861   7.144   9.623 -1.4378  1.0784 -0.5722
    7MOL0     C  849   4.770   7.239   9.542  0.2111  0.3361  0.8393
    7MOL0     C  850   4.770   7.377   9.598 -0.2344 -0.2310  0.7910
    7MOL0     C  851   4.682   7.467   9.510  1.2067 -0.1108  0.3510
    7MOL0     C  852   4.703   7.619   9.533  0.3372 -0.1626 -0.9302
    7MOL0     C  853   4.642   7.698   9.406 -1.0596 -0.0217 -0.0294
    7MOL0    Cl  854   4.463   7.720   9.432  0.1809 -0.0410  0.2493
    7MOL0     C  855   5.273   7.261   9.359 -0.6439  0.7034  0.3570
    7MOL0     C  856   5.358   7.374   9.348 -0.5070  1.1106  0.0447
    7MOL0     O  857   5.408   7.554   9.039 -0.8992 -0.4396  0.1622
    7MOL0     C  858   5.583   7.749   8.973 -0.6807 -0.2561 -0.3130
    7MOL0     C  859   5.671   7.851   8.948  0.8795 -0.7184 -0.1530
    7MOL0     N  860   5.924   8.047   8.495  0.1270  0.1432 -0.5863
    7MOL0     N  861   5.921   7.913   8.472  0.3742 -0.1445 -0.7519
    7MOL0     C  862   5.480   7.476   8.006  0.2425  0.5365 -0.3784
    7MOL0     C  863   5.368   7.427   7.930  0.1282  0.0748  0.3272
    7MOL0     C  864   5.077   7.135   7.749 -0.0986 -0.5571  0.4725
    7MOL0     C  865   4.973   7.223   7.756 -1.1499  0.0527  0.2791
    7MOL0     C  866   4.854   7.192   7.692  0.0251 -0.7210  0.5591
    7MOL0     C  867   4.839   7.065   7.630  0.9232  0.9547 -0.7809
    7MOL0     O  868   4.713   7.043   7.584  0.0838 -0.8838  0.0856
    7MOL0     C  869   4.713   7.027   7.439 -0.5256  0.3533  0.1207
    7MOL0     C  870   4.777   7.152   7.359  0.0477  0.7298  0.5173
    7MOL0     C  871   4.699   7.172   7.224  0.3438  0.5642  0.5527
    7MOL0     C  872   4.750   7.297   7.150  1.4208  0.7050  0.6499
    7MOL0     C  873   4.751   7.425   7.218  0.7055  0.3734  0.5128
    7MOL0     C  874   4.755   7.538   7.246  0.4884  0.5427 -0.4379
    7MOL0     C  875   4.941   6.976   7.623  0.0756 -1.1327 -0.4496
    7MOL0     C  876   5.066   7.014   7.674  0.7170  1.1468 -0.5019
    7MOL0     C  877   5.176   6.915   7.648  0.1849 -0.4676  0.4160
    7MOL0     H  878   5.514   7.188   7.735  0.4394 -0.4124  1.0643
    7MOL0     H  879   5.710   7.281   7.843 -0.3781 -0.5268  1.5956
    7MOL0     H  880   5.872   7.415   7.930 -3.3491 -1.6002 -0.2438
    7MOL0     H  881   5.845   7.596   7.948  0.1904  0.0039  0.6890
    7MOL0     H  882   5.956   7.386   8.136 -0.9086 -0.5865 -1.9898
    7MOL0     H  883   5.910   7.554   8.188  0.9788 -0.2150 -0.3821
    7MOL0     H  884   6.061   7.606   7.989 -4.4452 -3.3058 -0.0024
    7MOL0     H  885   6.131   7.447   8.041 -3.7264 -2.5740 -2.4709
    7MOL0     H  886   6.172   7.536   8.267  0.5328  0.6189  0.6662
    7MOL0     H  887   6.281   7.606   8.134 -0.0687 -1.4638 -0.2281
    7MOL0     H  888   6.157   7.814   8.144  1.7426 -0.0995  0.0218
    7MOL0     H  889   6.037   7.755   8.238  0.6910  1.8306  1.0005
    7MOL0     H  890   6.330   7.768   8.328  0.3966  2.3056  0.6669
    7MOL0     H  891   6.189   7.883   8.367 -2.7453 -1.8916  2.5927
    7MOL0     H  892   6.265   7.758   8.549 -0.7505  1.5783  0.3089
    7MOL0     H  893   6.232   7.600   8.459 -3.7201 -0.9567 -3.9333
    7MOL0     H  894   5.996   7.668   8.447 -2.7010  0.1868  2.1149
    7MOL0     H  895   6.056   7.645   8.612 -1.0994 -5.0697 -2.7707
    7MOL0     H  896   6.149   7.897   8.702 -0.1675 -1.1375 -1.3823
    7MOL0     H  897   6.139   8.168   8.739  0.8643 -0.8204 -1.4341
    7MOL0     H  898   6.076   8.267   8.617  0.3189  1.3144  2.6535
    7MOL0     H  899   5.935   8.350   8.747 -0.3505  0.1020 -1.8593
    7MOL0     H  900   5.825   8.226   8.709  0.4469 -1.3952 -0.4677
    7MOL0     H  901   5.880   8.279   8.974  1.4316  0.6956  0.9631
    7MOL0     H  902   6.029   8.204   8.941  0.3660  2.5314 -0.5821
    7MOL0     H  903   5.931   7.982   8.902 -2.3482 -3.3996  0.9245
    7MOL0     H  904   5.797   8.059   8.832  0.9680  1.1098  0.2179
    7MOL0     H  905   5.666   7.995   9.256 -2.2569 -0.3035  0.6289
    7MOL0     H  906   5.516   7.805   9.300 -2.4267 -2.9401 -0.6858
    7MOL0     H  907   5.151   7.600   9.188 -1.4130 -0.1205  0.2358
    7MOL0     H  908   4.995   7.407   9.234 -0.3827 -0.1813 -0.4246
    7MOL0     H  909   4.981   7.013   9.448  0.4999 -0.1902 -2.0360
    7MOL0     H  910   5.146   7.052   9.456 -0.7690 -2.0080 -6.4268
    7MOL0     H  911   5.073   7.095   9.672 -0.2794 -0.1375  0.9591
    7MOL0     H  912   5.049   7.255   9.611 -1.4189 -0.3237  2.1166
    7MOL0     H  913   4.828   7.039   9.617  0.4090  0.3378  1.1662
    7MOL0     H  914   4.855   7.175   9.727  1.9417 -0.6850  0.2914
    7MOL0     H  915   4.665   7.218   9.521 -0.0408  0.8424  1.5577
    7MOL0     H  916   4.815   7.240   9.442 -1.7245 -3.3679 -0.2829
    7MOL0     H  917   4.873   7.414   9.600  0.4886 -1.4368 -3.7058
    7MOL0     H  918   4.727   7.376   9.699  0.1967 -0.9433  0.9765
    7MOL0     H  919   4.701   7.441   9.405 -0.8787 -2.4727  0.4401
    7MOL0     H  920   4.575   7.447   9.525  1.3048 -2.2644 -1.2035
    7MOL0     H  921   4.812   7.633   9.535  0.1907  1.5846  2.7744
    7MOL0     H  922   4.653   7.644   9.627 -0.0692 -0.2766 -1.1127
    7MOL0     H  923   4.678   7.801   9.394  0.0044 -0.1670  1.5744
    7MOL0     H  924   4.676   7.653   9.312  0.1731  2.9001 -1.1011
    7MOL0     H  925   5.316   7.173   9.407 -0.0172  2.1235  2.5033
    7MOL0     H  926   5.461   7.358   9.379 -0.7126  0.1211  0.2673
    7MOL0     H  927   5.553   7.674   8.900  0.1116 -0.9426  0.0511
    7MOL0     H  928   5.720   7.862   8.852  1.1454 -0.6433 -0.0105
    7MOL0     H  929   5.469   7.553   8.081  1.8368 -1.0625  1.6027
    7MOL0     H  930   5.269   7.463   7.958  0.5222 -0.0575  1.9506
    7MOL0     H  931   4.990   7.317   7.807 -1.4804  0.2408  0.0456
    7MOL0     H  932   4.769   7.259   7.696  1.0969  1.2931 -3.8668
    7MOL0     H  933   4.610   7.028   7.402 -0.9579  0.0008  1.2867
    7MOL0     H  934   4.762   6.933   7.412  2.1757  1.2148  1.6160
    7MOL0     H  935   4.882   7.139   7.331 -0.7441 -4.2379 -1.1132
    7MOL0     H  936   4.760   7.240   7.422 -1.3919  2.2761 -1.9000
    7MOL0     H  937   4.591   7.191   7.233  0.8308  3.5923  1.1689
    7MOL0     H  938   4.713   7.091   7.152 -0.3994 -0.4573  1.5161
    7MOL0     H  939   4.849   7.259   7.124  1.3256  0.0496  1.2309
    7MOL0     H  940   4.691   7.311   7.059  1.9855  2.3822  0.4942
    7MOL0     H  941   4.768   7.633   7.294 -1.5545  1.0109 -0.7054
    7MOL0     H  942   4.913   6.883   7.574  1.2535 -2.3798  1.1402
    7MOL0     H  943   5.145   6.835   7.580 -1.2422 -0.7762  1.3893
    7MOL0     H  944   5.271   6.958   7.614 -0.8825  2.7795  1.2641
    7MOL0     H  945   5.179   6.861   7.743 -2.5001 -0.3168  0.6472
    8MOL0     O  946  10.003   2.062   7.057  0.0284 -0.3617  0.9054
    8MOL0     C  947  10.112   2.063   7.113 -0.1695 -0.8604  0.4967
    8MOL0     O  948  10.226   2.102   7.055 -0.5229 -0.3963  0.2130
    8MOL0     C  949  10.240   2.110   6.918  0.7991  0.6074 -0.3211
    8MOL0     C  950  10.233   2.228   6.855  0.0882 -0.9029  0.7323
    8MOL0     C  951  10.257   2.240   6.719  0.0293 -0.0249  0.4014
    8MOL0     C  952  10.296   2.129   6.649  0.5601  0.5979  1.1142
    8MOL0     O  953  10.331   2.128   6.518 -0.2914 -0.7266  0.0866
    8MOL0     C  954  10.265   2.212   6.427 -0.2131 -0.4451  0.5065
    8MOL0     C  955  10.336   2.201   6.290 -0.0278  0.9195 -0.7658
    8MOL0     C  956  10.313   2.063   6.234  0.1796 -0.1480 -0.1792
    8MOL0     C  957  10.399   2.043   6.109  0.8540 -0.2469 -0.1175
    8MOL0     C  958  10.382   1.891   6.079  0.4489 -0.2373 -0.4873
    8MOL0     C  959  10.480   1.807   6.156 -0.3612  0.5216 -0.5933
    8MOL0     C  960  10.449   1.654   6.135 -0.2278  1.1296 -0.3327
    8MOL0     C  961  10.541   1.575   6.227 -0.0682  0.1620 -0.5751
    8MOL0     N  962  10.555   1.431   6.181 -0.8220 -0.5820 -0.4752
    8MOL0     C  963  10.649   1.396   6.094  0.0206  0.1261 -0.0774
    8MOL0     C  964  10.664   1.264   6.106 -0.4116 -0.1916 -0.1033
    8MOL0     C  965  10.748   1.189   6.005  0.0979 -0.6959 -0.4985
    8MOL0     C  966  10.704   1.048   5.984 -0.5561  1.9111  0.7511
    8MOL0     C  967  10.567   1.044   5.914 -0.1738  0.2807  0.7112
    8MOL0     C  968  10.575   1.049   5.764 -0.3007  0.5535 -0.0159
    8MOL0     O  969  10.447   1.070   5.712 -0.4214  0.9144  0.0166
    8MOL0     C  970  10.441   1.070   5.578 -0.8855 -0.3472  0.5356
    8MOL0     C  971  10.549   1.047   5.494 -0.0090  0.3064  0.1039
    8MOL0     C  972  10.523   1.039   5.358  0.0739 -0.9042 -0.0717
    8MOL0     C  973  10.397   1.061   5.297 -0.2104 -0.3468 -0.5617
    8MOL0     C  974  10.358   1.050   5.155 -0.0299 -0.5652 -0.0200
    8MOL0     O  975  10.239   1.106   5.125 -0.5373 -0.8900 -1.1165
    8MOL0     C  976  10.207   1.134   4.992  0.6355  0.1960 -0.3259
    8MOL0     C  977  10.208   1.039   4.895  0.9225  1.4288 -0.6169
    8MOL0     C  978  10.179   1.068   4.757 -0.2992  0.0228 -0.1309
    8MOL0     C  979  10.134   1.197   4.726 -0.2262  0.8968  0.3201
    8MOL0     O  980  10.130   1.237   4.595  0.2541 -0.1698 -0.1467
    8MOL0     C  981  10.148   1.138   4.487  0.4257 -0.0313  0.8986
    8MOL0     C  982  10.097   1.217   4.359 -0.4137  1.1325  0.2976
    8MOL0     C  983  10.108   1.136   4.224 -0.4105  0.4078 -0.5526
    8MOL0     C  984  10.077   0.987   4.226  0.1335 -0.0847  0.2057
    8MOL0     C  985   9.934   0.966   4.269  0.1635  0.7396  0.5590
    8MOL0     C  986   9.828   1.045   4.202  0.2949  0.5459 -0.1497
    8MOL0     C  987   9.813   1.015   4.046 -0.0676 -0.0448  0.6834
    8MOL0     C  988   9.701   1.115   3.999 -0.2136 -0.9966  0.3896
    8MOL0    Cl  989   9.671   1.092   3.832  0.1405  0.2933 -0.0304
    8MOL0     C  990  10.134   1.301   4.819  0.2532 -0.6061 -0.2236
    8MOL0     C  991  10.171   1.264   4.959  0.0642  0.0135  0.3120
    8MOL0     O  992  10.433   0.980   5.087  0.4334 -0.6648 -0.1198
    8MOL0     C  993  10.297   1.092   5.386  0.5260  0.6869  1.0416
    8MOL0     C  994  10.320   1.104   5.520 -0.8641  0.2713 -1.0500
    8MOL0     N  995  10.584   1.218   6.205  0.1237 -0.5329  0.2364
    8MOL0     N  996  10.511   1.317   6.250  0.1454 -0.0254 -0.2544
    8MOL0     C  997  10.300   2.006   6.711  0.0937 -0.4698 -0.6366
    8MOL0     C  998  10.266   2.002   6.844 -0.0109 -0.3537 -0.5596
    8MOL0     C  999  10.106   2.054   7.262  0.8436  0.3565  0.2911
    8MOL0     C 1000   9.998   2.098   7.333 -0.0018  0.7058  0.0446
    8MOL0     C 1001   9.991   2.086   7.471 -0.4401 -0.2883 -0.1869
    8MOL0     C 1002  10.082   2.021   7.549 -0.1966 -0.7646  0.8518
    8MOL0     O 1003  10.058   2.027   7.683 -0.3750 -0.2733 -0.4546
    8MOL0     C 1004  10.164   1.977   7.770  0.0608 -0.5074 -0.5809
    8MOL0     C 1005  10.156   2.033   7.911  0.6155 -0.6595 -0.8035
    8MOL0     C 1006  10.053   1.962   8.003 -0.5553 -0.0942 -0.0134
    8MOL0     C 1007  10.066   2.003   8.147  0.8261  0.2747 -1.1360
    8MOL0     C 1008   9.966   1.938   8.224 -0.1579 -0.6792 -0.2095
    8MOL0     C 1009   9.886   1.896   8.303  0.7256 -0.0049  0.2620
    8MOL0     C 1010  10.187   1.959   7.480  0.1177  0.8930 -0.0690
    8MOL0     C 1011  10.203   1.976   7.335 -0.4993  1.1710 -0.6114
    8MOL0     C 1012  10.308   1.893   7.265  0.1182 -0.2625  0.0451
    8MOL0     H 1013  10.206   2.320   6.906 -3.3751 -1.3557 -0.0235
    8MOL0     H 1014  10.262   2.339   6.676  4.2819 -0.3102 -0.1847
    8MOL0     H 1015  10.160   2.182   6.421 -0.5718 -0.6519  4.7944
    8MOL0     H 1016  10.271   2.314   6.465 -0.4416 -0.1442 -0.2390
    8MOL0     H 1017  10.443   2.222   6.296  0.5180 -1.7927  2.3407
    8MOL0     H 1018  10.282   2.270   6.225  0.3708  0.7647 -1.2659
    8MOL0     H 1019  10.208   2.050   6.205  0.2433 -0.2087 -0.3792
    8MOL0     H 1020  10.325   1.981   6.306 -5.0996  0.1012  1.4409
    8MOL0     H 1021  10.370   2.104   6.023  0.9469  1.1999  0.8391
    8MOL0     H 1022  10.505   2.058   6.133  0.6037 -1.0887  1.6740
    8MOL0     H 1023  10.279   1.860   6.096  1.0519 -1.8905  0.3609
    8MOL0     H 1024  10.397   1.878   5.971  3.5402 -4.0667  0.1895
    8MOL0     H 1025  10.586   1.820   6.132  0.1072 -2.7262 -0.6823
    8MOL0     H 1026  10.474   1.826   6.263  1.4011 -0.1067 -0.3538
    8MOL0     H 1027  10.471   1.634   6.030 -1.1929  2.5491 -0.8354
    8MOL0     H 1028  10.344   1.632   6.154 -0.2254  1.2253 -0.1984
    8MOL0     H 1029  10.636   1.629   6.225  1.2162 -1.9816 -1.2826
    8MOL0     H 1030  10.503   1.578   6.329 -2.6098 -0.2095 -1.4392
    8MOL0     H 1031  10.695   1.462   6.021  0.0397  0.4497  0.2306
    8MOL0     H 1032  10.761   1.241   5.910  2.5001 -0.6201 -0.1897
    8MOL0     H 1033  10.843   1.182   6.060 -0.5868  0.4962  0.9289
    8MOL0     H 1034  10.773   0.995   5.918  1.0103  0.8376  3.1323
    8MOL0     H 1035  10.700   0.997   6.081  0.0578 -1.8847 -1.0603
    8MOL0     H 1036  10.496   1.121   5.948 -3.1842 -0.9173 -2.3198
    8MOL0     H 1037  10.519   0.948   5.937  1.6338 -0.3582  1.9794
    8MOL0     H 1038  10.616   0.950   5.744 -0.7916 -0.2344  2.4606
    8MOL0     H 1039  10.652   1.120   5.733  2.8116 -3.3252 -2.0175
    8MOL0     H 1040  10.643   1.012   5.534 -0.5483 -1.0622  0.2345
    8MOL0     H 1041  10.600   1.010   5.288 -2.5005 -1.9598 -2.6861
    8MOL0     H 1042  10.231   0.943   4.940  0.6303  2.9738  3.0992
    8MOL0     H 1043  10.203   0.999   4.677  0.2145 -1.6782  1.4090
    8MOL0     H 1044  10.250   1.103   4.467 -1.0928 -3.3806 -1.8254
    8MOL0     H 1045  10.080   1.055   4.505 -0.2832  0.7342  1.8786
    8MOL0     H 1046   9.991   1.231   4.386 -0.5156 -2.1764  2.0923
    8MOL0     H 1047  10.153   1.310   4.357  0.4968  0.5889  0.2527
    8MOL0     H 1048  10.054   1.197   4.151  0.1869 -0.4160 -1.7210
    8MOL0     H 1049  10.210   1.140   4.185 -0.5705 -0.0198 -1.0208
    8MOL0     H 1050  10.158   0.935   4.278 -0.5081 -2.7303 -1.2629
    8MOL0     H 1051  10.089   0.956   4.122  0.6545  2.1758 -0.4686
    8MOL0     H 1052   9.940   0.993   4.375  1.4700  0.3465  0.6100
    8MOL0     H 1053   9.902   0.864   4.249 -0.5504  1.2062 -0.8366
    8MOL0     H 1054   9.732   1.015   4.246 -0.0818  1.6909 -0.1487
    8MOL0     H 1055   9.846   1.151   4.221  0.8826  0.2366  1.0897
    8MOL0     H 1056   9.776   0.912   4.053 -0.5907  0.2461  4.0047
    8MOL0     H 1057   9.902   1.011   3.982 -1.0880 -2.0734 -0.7194
    8MOL0     H 1058   9.603   1.094   4.040 -2.0889  0.7876 -2.7531
    8MOL0     H 1059   9.720   1.221   4.015  0.4094 -1.2069  1.1232
    8MOL0     H 1060  10.125   1.403   4.784 -0.1613 -0.5457  0.0648
    8MOL0     H 1061  10.182   1.338   5.037 -1.5919 -0.1206  0.7104
    8MOL0     H 1062  10.194   1.115   5.360 -0.3561 -2.0210  1.8365
    8MOL0     H 1063  10.245   1.136   5.592 -1.1367 -3.6564  0.6658
    8MOL0     H 1064  10.333   1.923   6.650  2.6223  0.4770 -0.6427
    8MOL0     H 1065  10.277   1.904   6.891  0.2619  0.6131  1.4994
    8MOL0     H 1066   9.924   2.152   7.275 -0.8715 -0.0289  0.4424
    8MOL0     H 1067   9.916   2.144   7.524  1.1152  1.3914  0.3085
    8MOL0     H 1068  10.262   2.007   7.730  0.0761 -1.0598 -0.9674
    8MOL0     H 1069  10.164   1.868   7.776 -1.5481 -0.4408  1.6896
    8MOL0     H 1070  10.144   2.142   7.915 -0.8653 -0.8321  0.7541
    8MOL0     H 1071  10.249   2.003   7.960 -0.2291  1.2409  2.2805
    8MOL0     H 1072  10.059   1.853   8.003 -0.3804 -0.1638  2.8074
    8MOL0     H 1073   9.955   1.993   7.966 -0.7382 -0.5481  0.0807
    8MOL0     H 1074  10.161   1.969   8.188 -2.7986 -1.9576  7.8554
    8MOL0     H 1075  10.053   2.112   8.154 -0.1623  0.0651  2.2151
    8MOL0     H 1076   9.814   1.876   8.379  2.4047 -3.3234  1.1676
    8MOL0     H 1077  10.256   1.897   7.536 -0.8515 -0.0451  0.1382
    8MOL0     H 1078  10.306   1.804   7.329  0.1233  0.2195  0.7208
    8MOL0     H 1079  10.280   1.869   7.162  0.1974  1.8683 -0.5072
    8MOL0     H 1080  10.407   1.937   7.255  0.8387 -2.1965 -2.5076
    9MOL0     O 1081   4.042   4.343   8.105  0.2329  1.3018 -0.4477
    9MOL0     C 1082   4.129   4.426   8.127 -0.4818  0.5190  0.4353
    9MOL0     O 1083   4.170   4.475   8.242 -0.3464 -0.6501  0.4146
    9MOL0     C 1084   4.099   4.429   8.352  0.0584 -0.5250 -0.0927
    9MOL0     C 1085   4.176   4.374   8.461  0.3528  0.0263  0.3060
    9MOL0     C 1086   4.115   4.313   8.574  0.2507  0.4555 -0.5664
    9MOL0     C 1087   3.972   4.309   8.588  0.0350  0.2692 -0.1086
    9MOL0     O 1088   3.893   4.249   8.683 -0.3967 -0.2789 -0.4022
    9MOL0     C 1089   3.949   4.151   8.778  0.4593  1.3389  0.1375
    9MOL0     C 1090   3.827   4.084   8.846  0.6462  0.0635  0.4513
    9MOL0     C 1091   3.877   3.975   8.939 -0.6058 -0.2984  0.3095
    9MOL0     C 1092   3.761   3.934   9.017 -0.2798 -0.2538  0.2011
    9MOL0     C 1093   3.785   3.834   9.133  0.1030  0.5447  0.1052
    9MOL0     C 1094   3.802   3.690   9.082 -0.4583 -0.1851  0.3844
    9MOL0     C 1095   3.847   3.589   9.191  0.7802  0.1969  0.9070
    9MOL0     C 1096   3.909   3.463   9.131  0.3106  0.6359 -0.7690
    9MOL0     N 1097   3.954   3.376   9.245  0.3241  0.5426  0.0831
    9MOL0     C 1098   3.882   3.293   9.323  0.3000  0.3361  0.4386
    9MOL0     C 1099   3.963   3.236   9.420 -0.7122 -0.3991 -0.2036
    9MOL0     C 1100   3.907   3.132   9.517  1.1522 -0.1712 -0.2950
    9MOL0     C 1101   3.989   3.096   9.645  0.1649 -0.0615  0.5876
    9MOL0     C 1102   3.997   3.221   9.746  0.6199 -0.0102  0.7935
    9MOL0     C 1103   4.122   3.210   9.834 -0.1627 -0.2260 -0.4246
    9MOL0     O 1104   4.090   3.098   9.917  0.1216 -0.8513  1.1014
    9MOL0     C 1105   4.174   3.033  10.001  0.4474  1.3042  0.8037
    9MOL0     C 1106   4.262   3.100  10.078  0.6479  0.6692 -0.2281
    9MOL0     C 1107   4.363   3.036  10.147 -0.3673  1.0123 -0.0505
    9MOL0     C 1108   4.374   2.894  10.154  0.8848 -0.1570 -0.4886
    9MOL0     C 1109   4.468   2.821  10.247 -0.1409  0.0678 -1.0503
    9MOL0     O 1110   4.542   2.898  10.331  0.2460  0.3518  0.0592
    9MOL0     C 1111   4.631   2.828  10.403 -0.1053 -0.5597 -1.0493
    9MOL0     C 1112   4.602   2.801  10.542  0.0880  0.0290 -0.6466
    9MOL0     C 1113   4.680   2.710  10.618 -0.1009  0.2348  0.4284
    9MOL0     C 1114   4.780   2.634  10.556  0.5354 -0.0895  0.8103
    9MOL0     O 1115   4.847   2.542  10.623  0.1762 -1.3426 -0.0806
    9MOL0     C 1116   4.947   2.445  10.571  0.2889  0.4175 -0.5736
    9MOL0     C 1117   5.001   2.365  10.694  0.1518 -0.0954 -0.4990
    9MOL0     C 1118   5.102   2.262  10.641 -0.5013 -0.1386 -0.8827
    9MOL0     C 1119   5.247   2.321  10.617  0.3632  0.6762 -0.7499
    9MOL0     C 1120   5.327   2.243  10.512 -0.5580  0.9618 -0.1695
    9MOL0     C 1121   5.442   2.339  10.478 -0.6239 -0.3057 -0.2755
    9MOL0     C 1122   5.546   2.283  10.379  0.3085 -0.0825 -0.0673
    9MOL0     C 1123   5.483   2.261  10.243 -0.1159  0.3480 -0.3776
    9MOL0    Cl 1124   5.529   2.396  10.120  0.0193  0.2563 -0.2427
    9MOL0     C 1125   4.809   2.659  10.418  0.1065 -0.2050  0.1668
    9MOL0     C 1126   4.738   2.757  10.345  0.3323 -0.1585 -0.3290
    9MOL0     O 1127   4.457   2.702  10.257 -0.5786  0.6962 -0.1762
    9MOL0     C 1128   4.284   2.824  10.077  0.1015  0.3749 -0.1142
    9MOL0     C 1129   4.181   2.895  10.008  0.6173 -0.3420 -0.9778
    9MOL0     N 1130   4.087   3.294   9.396 -0.2238 -0.1866  0.7826
    9MOL0     N 1131   4.080   3.374   9.296 -0.3993  0.7183  0.3069
    9MOL0     C 1132   3.900   4.367   8.487  0.6642  0.6904  0.4325
    9MOL0     C 1133   3.963   4.432   8.377  1.2371 -0.1191 -0.0963
    9MOL0     C 1134   4.203   4.480   8.003  0.1418  0.2869 -0.7335
    9MOL0     C 1135   4.128   4.541   7.900  0.7620 -0.6199 -0.1724
    9MOL0     C 1136   4.194   4.600   7.795 -0.2810 -0.1923  1.6956
    9MOL0     C 1137   4.330   4.593   7.776  0.0749 -0.4599 -1.0129
    9MOL0     O 1138   4.384   4.661   7.669  0.4625 -0.9199  0.1405
    9MOL0     C 1139   4.432   4.786   7.691 -0.0876  0.7497 -1.0545
    9MOL0     C 1140   4.395   4.881   7.584 -0.5192 -0.2235 -0.4048
    9MOL0     C 1141   4.469   5.015   7.576 -0.2630  0.0696 -0.4215
    9MOL0     C 1142   4.505   5.082   7.715  0.0247  0.2133  0.3279
    9MOL0     C 1143   4.377   5.125   7.773 -0.3118  0.7315  0.4233
    9MOL0     C 1144   4.272   5.138   7.825  0.2441 -0.0123 -0.1776
    9MOL0     C 1145   4.404   4.531   7.876 -0.3236 -0.3170  1.0416
    9MOL0     C 1146   4.347   4.481   7.994  0.1030 -0.3331  0.8908
    9MOL0     C 1147   4.442   4.419   8.102 -0.6671 -0.6298  0.1344
    9MOL0     H 1148   4.283   4.389   8.453 -0.0323  2.4495 -1.4975
    9MOL0     H 1149   4.184   4.275   8.649  3.0508 -1.9592 -4.0314
    9MOL0     H 1150   3.997   4.073   8.717  1.8743  1.9302  0.4398
    9MOL0     H 1151   4.024   4.196   8.844  1.3889 -0.5287  0.4400
    9MOL0     H 1152   3.750   4.044   8.780 -0.1545 -0.7327  1.8195
    9MOL0     H 1153   3.789   4.167   8.906  0.5910 -1.3959  2.5072
    9MOL0     H 1154   3.952   4.006   9.012  0.0380 -4.0326  1.4401
    9MOL0     H 1155   3.928   3.888   8.896  1.0442  0.5418  0.4857
    9MOL0     H 1156   3.716   4.023   9.061 -0.8810 -1.1221  1.4169
    9MOL0     H 1157   3.691   3.881   8.952 -0.8061 -1.5010  1.7162
    9MOL0     H 1158   3.873   3.865   9.190  0.3070 -1.9997  1.3165
    9MOL0     H 1159   3.696   3.839   9.196 -0.6816 -0.5762 -0.8605
    9MOL0     H 1160   3.708   3.655   9.039  1.3521 -2.3566 -2.1768
    9MOL0     H 1161   3.872   3.676   8.999 -0.0585 -0.4107  0.7534
    9MOL0     H 1162   3.754   3.554   9.237  1.9842 -2.6919  1.3279
    9MOL0     H 1163   3.924   3.619   9.263  2.5870 -0.5741 -0.6313
    9MOL0     H 1164   3.833   3.420   9.066  1.2580 -2.9854  0.2939
    9MOL0     H 1165   4.000   3.480   9.072  1.5259  0.6182  0.9867
    9MOL0     H 1166   3.779   3.261   9.312  0.6495 -0.3681 -1.1872
    9MOL0     H 1167   3.822   3.183   9.563 -0.4996 -1.5834 -1.6393
    9MOL0     H 1168   3.887   3.040   9.462  0.5839 -0.3744  0.2465
    9MOL0     H 1169   3.940   3.013   9.697  1.5584  0.0970  2.2220
    9MOL0     H 1170   4.087   3.059   9.615 -0.0936 -0.3456  0.0596
    9MOL0     H 1171   3.912   3.247   9.810 -1.6919 -1.3174 -1.5707
    9MOL0     H 1172   4.013   3.312   9.687  3.6851  1.0596  2.9876
    9MOL0     H 1173   4.136   3.303   9.890 -5.5878 -1.3384  3.5882
    9MOL0     H 1174   4.205   3.188   9.766 -0.0718  0.4925 -0.5533
    9MOL0     H 1175   4.248   3.208  10.083  0.1392  0.5870  0.2217
    9MOL0     H 1176   4.440   3.098  10.192  3.8404 -0.8706 -3.8479
    9MOL0     H 1177   4.505   2.828  10.585 -0.1722 -1.2031 -0.4304
    9MOL0     H 1178   4.645   2.680  10.716  1.1938 -1.5629  0.3823
    9MOL0     H 1179   4.906   2.366  10.508  0.2436 -1.9924  2.2165
    9MOL0     H 1180   5.028   2.501  10.523 -0.3808  2.7541  0.8529
    9MOL0     H 1181   5.057   2.440  10.750  2.2869 -1.7586 -0.2652
    9MOL0     H 1182   4.926   2.312  10.753 -1.3558  0.5242 -1.8080
    9MOL0     H 1183   5.127   2.182  10.711  0.5496  0.8109 -0.1424
    9MOL0     H 1184   5.065   2.213  10.551 -1.7251  0.2041 -0.5896
    9MOL0     H 1185   5.292   2.321  10.717 -3.1023 -1.3137  1.0114
    9MOL0     H 1186   5.245   2.426  10.589 -3.4307  0.9464  0.1045
    9MOL0     H 1187   5.276   2.207  10.422  0.8581 -0.8082 -0.3190
    9MOL0     H 1188   5.372   2.154  10.557  0.1576  0.8905 -0.9883
    9MOL0     H 1189   5.403   2.433  10.439 -4.4407 -0.0650  3.4325
    9MOL0     H 1190   5.496   2.366  10.569  1.1995  0.2270 -1.4447
    9MOL0     H 1191   5.586   2.185  10.409 -0.5071 -1.4154 -2.9386
    9MOL0     H 1192   5.627   2.352  10.359 -0.1789  0.5912  0.2551
    9MOL0     H 1193   5.521   2.169  10.197 -3.7327 -1.1593 -0.7274
    9MOL0     H 1194   5.375   2.244  10.250  0.1909 -2.2939 -1.0793
    9MOL0     H 1195   4.885   2.612  10.357  0.7686  0.4181  0.5049
    9MOL0     H 1196   4.758   2.764  10.239 -2.0255  1.5008 -0.7565
    9MOL0     H 1197   4.276   2.717  10.061 -1.5521  0.4718 -0.1235
    9MOL0     H 1198   4.109   2.837   9.952  0.1817 -1.4337  0.6247
    9MOL0     H 1199   3.792   4.366   8.489  0.6022  2.7307  0.2048
    9MOL0     H 1200   3.896   4.485   8.311  0.4949 -1.6317 -0.5889
    9MOL0     H 1201   4.020   4.547   7.902  0.7597  0.0038 -1.3914
    9MOL0     H 1202   4.122   4.650   7.731  1.1892 -1.2056 -0.9111
    9MOL0     H 1203   4.541   4.778   7.694 -0.1263 -0.1981  2.7136
    9MOL0     H 1204   4.387   4.815   7.786 -1.0983 -1.4451 -0.8161
    9MOL0     H 1205   4.289   4.893   7.609 -0.3267  2.2810 -0.5304
    9MOL0     H 1206   4.392   4.855   7.477  2.2691 -0.4147 -0.5010
    9MOL0     H 1207   4.411   5.085   7.515  0.9785  1.9464  0.4549
    9MOL0     H 1208   4.563   4.993   7.525 -0.3350 -2.7497  0.4798
    9MOL0     H 1209   4.567   5.014   7.774 -0.7364 -1.4028 -0.6809
    9MOL0     H 1210   4.571   5.168   7.701  0.3064 -0.3584 -2.2554
    9MOL0     H 1211   4.173   5.135   7.866  1.5898 -2.4003  3.3220
    9MOL0     H 1212   4.511   4.542   7.861 -0.5808  1.7232  0.4071
    9MOL0     H 1213   4.434   4.311   8.114 -0.8619 -0.4591  1.8164
    9MOL0     H 1214   4.542   4.461   8.086 -0.0033  0.3596  5.2338
    9MOL0     H 1215   4.417   4.465   8.198 -0.4263 -1.2871  0.5206
   10MOL0     O 1216   7.271  10.400  10.148 -0.5920  0.8035  0.4892
   10MOL0     C 1217   7.378  10.442  10.167 -0.8916  0.0049 -0.1582
   10MOL0     O 1218   7.405  10.561  10.229 -0.1615 -0.1490  0.2846
   10MOL0     C 1219   7.299  10.616  10.297  0.0086  0.7672  0.1589
   10MOL0     C 1220   7.298  10.588  10.436 -1.3696 -0.3373  0.6528
   10MOL0     C 1221   7.188  10.628  10.514 -0.6499 -1.1325 -0.3151
   10MOL0     C 1222   7.081  10.694  10.461 -0.7521 -0.2349  0.4058
   10MOL0     O 1223   6.977  10.726  10.544  1.1087 -0.0274 -0.7242
   10MOL0     C 1224   6.860  10.666  10.486  0.5374  0.2221 -0.8116
   10MOL0     C 1225   6.746  10.655  10.593 -0.8612  0.1479 -1.0784
   10MOL0     C 1226   6.656  10.778  10.605  0.1559 -0.8931  0.3911
   10MOL0     C 1227   6.708  10.880  10.703  0.1710 -0.2009 -0.0675
   10MOL0     C 1228   6.624  10.991  10.745  0.3844 -0.0942 -0.6192
   10MOL0     C 1229   6.583  11.079  10.622 -0.2732  0.8257  0.5764
   10MOL0     C 1230   6.558  11.226  10.639  0.0699 -0.0373 -0.8634
   10MOL0     C 1231   6.529  11.283  10.505  0.1123 -0.6774  0.3284
   10MOL0     N 1232   6.391  11.257  10.457  0.2639 -0.2660 -0.2021
   10MOL0     C 1233   6.349  11.318  10.345 -0.5780 -0.1938 -0.3315
   10MOL0     C 1234   6.214  11.300  10.343 -0.6257  0.3272  0.1080
   10MOL0     C 1235   6.124  11.333  10.223  0.2449 -0.3275 -0.2196
   10MOL0     C 1236   6.060  11.206  10.174  0.1798  0.1868 -0.3758
   10MOL0     C 1237   5.961  11.227  10.048  0.1760 -0.8391  0.1745
   10MOL0     C 1238   5.877  11.104  10.020  0.5592  0.4712  0.3009
   10MOL0     O 1239   5.955  10.988   9.999  0.7549 -0.3637  0.5276
   10MOL0     C 1240   5.960  10.938   9.870  0.4314 -1.0165  0.4144
   10MOL0     C 1241   6.045  11.005   9.772  0.6408 -0.1674 -0.3930
   10MOL0     C 1242   6.055  10.957   9.645 -0.6247 -0.2062 -0.1712
   10MOL0     C 1243   5.972  10.864   9.595  0.5926  0.3317  0.1710
   10MOL0     C 1244   5.984  10.801   9.460  0.6927 -0.2630  0.7092
   10MOL0     O 1245   5.885  10.731   9.402  0.6261  0.6162 -0.1548
   10MOL0     C 1246   5.912  10.658   9.288 -0.1738  0.0493 -0.0849
   10MOL0     C 1247   5.916  10.516   9.306  0.0729 -0.1327  0.1265
   10MOL0     C 1248   5.930  10.446   9.179 -0.5982 -1.1470  0.6110
   10MOL0     C 1249   5.942  10.515   9.052 -0.0512  0.2132 -0.9294
   10MOL0     O 1250   5.958  10.426   8.948  0.2776  0.1920 -0.3452
   10MOL0     C 1251   6.021  10.450   8.819  0.3180  0.7016  0.1275
   10MOL0     C 1252   6.021  10.310   8.757 -1.1020  1.3345  0.0577
   10MOL0     C 1253   6.069  10.320   8.613 -0.4416  0.4613 -0.0632
   10MOL0     C 1254   6.027  10.196   8.533  0.2295  0.0641  1.2447
   10MOL0     C 1255   6.111  10.176   8.405 -0.2205 -0.6227  0.6342
   10MOL0     C 1256   6.266  10.162   8.429 -0.2772 -0.3944  0.0703
   10MOL0     C 1257   6.345  10.106   8.312  1.1938  0.4292  0.3550
   10MOL0     C 1258   6.368   9.955   8.318 -0.1625  0.3738  0.1124
   10MOL0    Cl 1259   6.400   9.879   8.165  0.1292 -0.4188 -0.3892
   10MOL0     C 1260   5.935  10.646   9.056  0.5250  0.0046 -1.1246
   10MOL0     C 1261   5.922  10.720   9.168  0.3382 -0.5826  0.3814
   10MOL0     O 1262   6.096  10.822   9.402  0.4122  0.7223 -0.2621
   10MOL0     C 1263   5.876  10.806   9.685 -1.1892  0.1023  0.2254
   10MOL0     C 1264   5.876  10.836   9.821  0.5415 -0.2354 -0.2587
   10MOL0     N 1265   6.180  11.243  10.460  0.6158 -0.2630  0.2970
   10MOL0     N 1266   6.288  11.204  10.524  0.8397  0.0155  0.7767
   10MOL0     C 1267   7.077  10.712  10.325  0.0312  1.1549  0.3097
   10MOL0     C 1268   7.189  10.681  10.238  0.9649 -0.0203 -0.7148
   10MOL0     C 1269   7.497  10.367  10.122 -0.6764 -0.0370 -0.5970
   10MOL0     C 1270   7.620  10.432  10.127  0.4749  0.2717  1.6437
   10MOL0     C 1271   7.736  10.377  10.087 -0.0754  0.2818  0.4913
   10MOL0     C 1272   7.747  10.246  10.051  0.3535  0.1334  0.4044
   10MOL0     O 1273   7.867  10.188  10.009 -0.1791 -0.2527  0.2995
   10MOL0     C 1274   7.992  10.225  10.066  0.7492 -0.3528 -0.3353
   10MOL0     C 1275   8.098  10.141  10.008  0.7792 -0.5661 -0.3013
   10MOL0     C 1276   8.224  10.185  10.073 -0.3819  0.0352  0.8619
   10MOL0     C 1277   8.353  10.109  10.037 -0.1963  1.0193 -0.0883
   10MOL0     C 1278   8.358  10.071   9.895  0.4364  0.3904  0.3614
   10MOL0     C 1279   8.348  10.028   9.786  0.3426  1.3005 -0.0356
   10MOL0     C 1280   7.626  10.175  10.049  0.5753  0.7893 -0.0225
   10MOL0     C 1281   7.501  10.229  10.085 -0.0547 -1.0370 -0.0996
   10MOL0     C 1282   7.379  10.135  10.089 -0.0904 -0.0281  0.3002
   10MOL0     H 1283   7.387  10.538  10.474  0.6776  0.4675 -2.6462
   10MOL0     H 1284   7.195  10.614  10.621 -0.1277  1.1973  0.0150
   10MOL0     H 1285   6.819  10.741  10.418 -1.0118  2.3528  2.2533
   10MOL0     H 1286   6.886  10.579  10.425  2.4008  1.3543 -1.7183
   10MOL0     H 1287   6.791  10.638  10.691  3.0027  1.7618 -2.3851
   10MOL0     H 1288   6.697  10.560  10.568 -2.8065  0.4143  1.3511
   10MOL0     H 1289   6.556  10.744  10.633 -0.7674  2.0179  0.9361
   10MOL0     H 1290   6.642  10.823  10.507  0.8221 -1.0376  0.2248
   10MOL0     H 1291   6.722  10.827  10.798  1.6633 -0.7333 -0.5528
   10MOL0     H 1292   6.804  10.920  10.669 -0.1583 -0.5730 -1.5231
   10MOL0     H 1293   6.537  10.946  10.794  1.7024 -2.8604 -0.6182
   10MOL0     H 1294   6.676  11.044  10.826 -1.8447 -0.5941  1.2299
   10MOL0     H 1295   6.663  11.075  10.548 -0.2203 -0.4383  0.6848
   10MOL0     H 1296   6.490  11.032  10.587 -0.8348  2.0867  0.3028
   10MOL0     H 1297   6.654  11.271  10.667  1.8449 -2.2292 -3.0062
   10MOL0     H 1298   6.485  11.251  10.717  2.1408  0.5270  1.0010
   10MOL0     H 1299   6.539  11.390  10.527  1.0860 -0.1994 -2.1236
   10MOL0     H 1300   6.607  11.265  10.431  1.0326  0.7706  0.8834
   10MOL0     H 1301   6.411  11.347  10.260 -4.2976 -0.2152 -3.3272
   10MOL0     H 1302   6.046  11.404  10.251 -0.8552 -0.6663 -2.2074
   10MOL0     H 1303   6.186  11.381  10.147 -2.6785  1.9137 -1.3589
   10MOL0     H 1304   6.143  11.140  10.147  0.2508  0.1982 -0.1865
   10MOL0     H 1305   6.005  11.166  10.260  0.7691  2.0889  0.9715
   10MOL0     H 1306   6.022  11.258   9.962  0.4923  2.4255  1.4215
   10MOL0     H 1307   5.894  11.310  10.072  1.1256 -0.1451  0.5038
   10MOL0     H 1308   5.808  11.121   9.937 -1.8343  0.6122  2.1944
   10MOL0     H 1309   5.814  11.085  10.108  0.7410  2.3313  0.8928
   10MOL0     H 1310   6.110  11.089   9.795  0.9144 -0.6771  0.7737
   10MOL0     H 1311   6.128  10.994   9.573 -0.5677 -3.7198 -2.1391
   10MOL0     H 1312   5.912  10.468   9.403  0.7303 -0.7576 -0.1508
   10MOL0     H 1313   5.929  10.338   9.184 -2.7425 -1.2396 -0.6758
   10MOL0     H 1314   5.944  10.515   8.777  0.9364  3.3470  2.7882
   10MOL0     H 1315   6.122  10.492   8.819  0.2170  0.9985  1.9261
   10MOL0     H 1316   6.100  10.265   8.817 -1.3203 -0.8897 -1.2176
   10MOL0     H 1317   5.931  10.249   8.769 -1.8970  2.1805 -1.3717
   10MOL0     H 1318   6.012  10.402   8.567  0.7239  3.2944  3.1210
   10MOL0     H 1319   6.176  10.337   8.602 -0.6697  3.1891  1.1424
   10MOL0     H 1320   5.923  10.199   8.499  0.7848  0.1469 -0.6164
   10MOL0     H 1321   6.053  10.109   8.594 -0.0674  0.7009  2.3046
   10MOL0     H 1322   6.086  10.251   8.329 -0.8482 -1.8711 -0.4379
   10MOL0     H 1323   6.078  10.082   8.359 -0.2517 -1.5935  2.5607
   10MOL0     H 1324   6.316  10.256   8.454  0.3455  0.0465 -2.5810
   10MOL0     H 1325   6.276  10.098   8.517  0.9550  1.1040  1.0648
   10MOL0     H 1326   6.442  10.153   8.291  1.4416 -0.1877  0.0596
   10MOL0     H 1327   6.290  10.129   8.221  4.2207 -0.3239 -1.8452
   10MOL0     H 1328   6.457   9.954   8.381 -1.2459  3.3755  1.9278
   10MOL0     H 1329   6.285   9.904   8.369 -1.7674  1.1953 -1.5531
   10MOL0     H 1330   5.936  10.697   8.960  0.3091 -2.3304 -2.4539
   10MOL0     H 1331   5.929  10.828   9.169  1.4300 -0.6399  1.2157
   10MOL0     H 1332   5.816  10.721   9.655 -0.0846 -0.3202 -0.8703
   10MOL0     H 1333   5.794  10.792   9.878  0.3745 -0.6347 -0.8058
   10MOL0     H 1334   6.984  10.758  10.294 -1.9645 -3.6032 -1.6913
   10MOL0     H 1335   7.185  10.702  10.132  0.2879 -1.0843 -0.9060
   10MOL0     H 1336   7.629  10.535  10.159  0.1746  1.5373 -1.8922
   10MOL0     H 1337   7.824  10.436  10.110 -0.2971  0.0173  2.2094
   10MOL0     H 1338   7.993  10.222  10.175 -0.7390 -0.7875 -0.3063
   10MOL0     H 1339   8.011  10.328  10.035 -1.3749  0.3203  0.4306
   10MOL0     H 1340   8.103  10.158   9.901  1.6785 -1.2189 -0.3791
   10MOL0     H 1341   8.069  10.036  10.020 -0.0607 -0.2688  0.4727
   10MOL0     H 1342   8.196  10.191  10.179  0.4322 -3.0102  1.3458
   10MOL0     H 1343   8.256  10.283  10.037  0.7530 -0.6376 -0.0444
   10MOL0     H 1344   8.436  10.179  10.051  0.7348  0.0585 -0.6301
   10MOL0     H 1345   8.363  10.019  10.098 -3.3489 -0.1068 -1.0600
   10MOL0     H 1346   8.348   9.988   9.687  1.2790 -3.9853  1.8073
   10MOL0     H 1347   7.633  10.067  10.041 -0.8149  0.6499  0.4167
   10MOL0     H 1348   7.333  10.159  10.185  1.0724  0.6906  0.7094
   10MOL0     H 1349   7.317  10.158  10.002  0.0804  0.4364  0.2959
   10MOL0     H 1350   7.402  10.028  10.090 -2.6606 -0.6404  0.8259
   11MOL0     O 1351  10.846  10.951   6.933 -0.3003  0.1300 -0.8984
   11MOL0     C 1352  10.768  10.993   7.020 -0.1379 -0.4387 -0.5303
   11MOL0     O 1353  10.813  11.043   7.136  0.5406  0.1166  0.0410
   11MOL0     C 1354  10.944  11.030   7.163 -0.4731  0.7996 -0.2458
   11MOL0     C 1355  10.981  10.973   7.286  0.7675 -0.1966 -0.2840
   11MOL0     C 1356  11.116  10.961   7.319  0.4092  0.5903 -0.0942
   11MOL0     C 1357  11.214  11.029   7.242  0.4563  0.5899 -0.1886
   11MOL0     O 1358  11.343  11.031   7.298 -0.2293 -0.0306 -0.5889
   11MOL0     C 1359  11.367  11.140   7.386 -0.6412  0.3794 -0.0168
   11MOL0     C 1360  11.422  11.084   7.513 -0.6622 -0.3520 -0.5421
   11MOL0     C 1361  11.553  11.006   7.486 -0.5678  0.3199 -0.0404
   11MOL0     C 1362  11.643  10.970   7.613 -0.9188 -0.2635 -0.2637
   11MOL0     C 1363  11.770  10.887   7.567  0.4337 -0.2193 -0.9781
   11MOL0     C 1364  11.841  10.830   7.695  0.2691 -0.0957  0.3260
   11MOL0     C 1365  11.964  10.751   7.656  1.0814 -0.3894 -0.5736
   11MOL0     C 1366  12.023  10.670   7.773  0.7926 -0.4178 -0.6323
   11MOL0     N 1367  12.131  10.738   7.838 -0.2693  0.8183  0.8530
   11MOL0     C 1368  12.261  10.749   7.799 -0.3606 -0.5623 -0.2844
   11MOL0     C 1369  12.323  10.807   7.900 -0.2535 -0.8106  0.2708
   11MOL0     C 1370  12.471  10.841   7.919  0.5560 -0.7193 -0.0045
   11MOL0     C 1371  12.490  10.988   7.921  0.2342 -0.3677  0.0900
   11MOL0     C 1372  12.573  11.043   7.807  0.2966  0.0134 -0.0977
   11MOL0     C 1373  12.640  11.172   7.850 -0.2258  1.3479 -0.3781
   11MOL0     O 1374  12.527  11.261   7.880 -1.3657  0.0841 -0.4826
   11MOL0     C 1375  12.541  11.390   7.917 -0.8427 -0.2683 -0.1178
   11MOL0     C 1376  12.663  11.463   7.897 -0.1247  0.4748  0.0292
   11MOL0     C 1377  12.660  11.594   7.941  0.3310 -0.1192 -0.6106
   11MOL0     C 1378  12.567  11.644   8.025  0.5323 -0.4464  0.1010
   11MOL0     C 1379  12.584  11.772   8.087  0.4096  0.0213 -0.4345
   11MOL0     O 1380  12.709  11.828   8.082  0.1733 -0.5481 -0.1271
   11MOL0     C 1381  12.747  11.920   8.174 -0.6219  0.6486  0.6559
   11MOL0     C 1382  12.697  11.938   8.303 -0.5612  0.5415  0.0365
   11MOL0     C 1383  12.741  12.034   8.396 -0.4278 -0.2763  0.0626
   11MOL0     C 1384  12.838  12.122   8.362 -0.6744 -0.7106  1.2214
   11MOL0     O 1385  12.865  12.237   8.437 -0.3646  0.3302  1.1603
   11MOL0     C 1386  12.828  12.249   8.573 -0.4753 -0.6408  0.3142
   11MOL0     C 1387  12.925  12.350   8.650 -1.0433  0.8437 -0.5087
   11MOL0     C 1388  12.873  12.353   8.792  0.3537 -1.1460 -0.7789
   11MOL0     C 1389  12.975  12.399   8.895 -0.0067 -0.3226 -0.1600
   11MOL0     C 1390  12.985  12.554   8.901 -0.5987 -0.0580 -1.3901
   11MOL0     C 1391  13.076  12.594   9.022  0.0623  1.1573  1.2919
   11MOL0     C 1392  12.983  12.650   9.134 -1.3516  0.5803 -0.7514
   11MOL0     C 1393  13.067  12.675   9.258 -0.3593 -0.1119 -0.1952
   11MOL0    Cl 1394  13.206  12.792   9.237  0.4429  0.3076  0.1110
   11MOL0     C 1395  12.881  12.114   8.225  0.5067 -0.1164 -0.1506
   11MOL0     C 1396  12.846  12.011   8.137  0.9090 -0.5698  0.2462
   11MOL0     O 1397  12.482  11.824   8.134 -0.3196 -0.3787 -0.2228
   11MOL0     C 1398  12.455  11.564   8.044 -0.2053 -0.2767  0.1765
   11MOL0     C 1399  12.438  11.443   7.988  0.6906  0.4034 -0.5942
   11MOL0     N 1400  12.234  10.824   8.004 -0.3402 -0.0631 -0.4161
   11MOL0     N 1401  12.115  10.787   7.957 -0.6831  0.6201 -0.3190
   11MOL0     C 1402  11.184  11.092   7.122  0.3310  0.3916  0.5373
   11MOL0     C 1403  11.047  11.085   7.087 -0.0762 -0.4360 -0.3344
   11MOL0     C 1404  10.625  10.983   6.991  0.0349  0.5301  0.4301
   11MOL0     C 1405  10.536  11.011   7.098  0.2767 -0.9603 -0.1484
   11MOL0     C 1406  10.397  11.015   7.086 -0.6181  0.3962  0.0093
   11MOL0     C 1407  10.341  10.981   6.960 -0.7111 -0.2375 -0.3967
   11MOL0     O 1408  10.208  10.982   6.934 -0.8415  0.4881 -0.3522
   11MOL0     C 1409  10.115  11.015   7.042 -0.1412  0.5225 -0.2141
   11MOL0     C 1410   9.985  10.959   7.011  0.3301 -0.6139  1.0086
   11MOL0     C 1411   9.981  10.817   6.957 -0.3849 -0.1045  0.0220
   11MOL0     C 1412   9.837  10.789   6.906 -1.0969  0.9403  0.5165
   11MOL0     C 1413   9.725  10.788   7.000 -0.1251 -0.7066 -0.1029
   11MOL0     C 1414   9.637  10.798   7.083  0.2354  0.1583 -0.9537
   11MOL0     C 1415  10.423  10.954   6.852 -0.4044 -0.2363  0.0152
   11MOL0     C 1416  10.563  10.942   6.864 -0.1606 -0.5068  0.7945
   11MOL0     C 1417  10.641  10.894   6.741 -0.5176  0.1053 -0.0291
   11MOL0     H 1418  10.906  10.952   7.361 -1.1009 -0.4262 -2.1020
   11MOL0     H 1419  11.145  10.917   7.413  2.5278  0.4803 -0.7402
   11MOL0     H 1420  11.431  11.215   7.339  1.6553 -1.5743 -0.2257
   11MOL0     H 1421  11.283  11.205   7.411  0.8828  3.0897 -1.4853
   11MOL0     H 1422  11.348  11.022   7.566  1.1848 -2.4970 -0.3098
   11MOL0     H 1423  11.447  11.169   7.578  0.1580 -0.4332 -0.7439
   11MOL0     H 1424  11.619  11.062   7.419 -1.8702  1.2105 -0.6231
   11MOL0     H 1425  11.520  10.915   7.435  0.3225  1.0520 -2.0334
   11MOL0     H 1426  11.687  11.052   7.672  4.1450 -2.8377  0.1036
   11MOL0     H 1427  11.577  10.912   7.678  0.1413  0.0700  1.1611
   11MOL0     H 1428  11.727  10.809   7.504 -2.7878 -2.5620  3.5485
   11MOL0     H 1429  11.847  10.945   7.515  2.5906  1.6616  3.6804
   11MOL0     H 1430  11.875  10.904   7.768  0.7592 -1.1222  1.1601
   11MOL0     H 1431  11.775  10.763   7.751 -2.1604 -0.0462 -2.2347
   11MOL0     H 1432  12.043  10.810   7.609  0.8420  0.4507  0.0476
   11MOL0     H 1433  11.921  10.675   7.590 -2.4753  0.8157  0.0939
   11MOL0     H 1434  11.939  10.658   7.843  2.0320  0.4429  1.0625
   11MOL0     H 1435  12.061  10.576   7.732  0.3592 -2.5810  3.4365
   11MOL0     H 1436  12.302  10.719   7.704 -1.3279  0.2671 -0.9852
   11MOL0     H 1437  12.504  10.800   8.014  1.0021 -3.5950 -1.2954
   11MOL0     H 1438  12.527  10.795   7.837  2.1988 -0.1823  0.7928
   11MOL0     H 1439  12.393  11.039   7.932 -0.4756 -1.5835 -0.3446
   11MOL0     H 1440  12.552  11.016   8.006  0.3203 -1.3846  0.3757
   11MOL0     H 1441  12.515  11.060   7.715  3.6072  0.6271 -2.2569
   11MOL0     H 1442  12.654  10.973   7.784  0.0881 -1.4409  3.1395
   11MOL0     H 1443  12.712  11.215   7.780  0.2206  0.9397 -0.1688
   11MOL0     H 1444  12.697  11.150   7.940 -1.1172  0.1037 -0.0801
   11MOL0     H 1445  12.743  11.424   7.835 -0.9754 -1.7902  0.2514
   11MOL0     H 1446  12.742  11.658   7.910 -0.9478  1.0926 -1.5980
   11MOL0     H 1447  12.611  11.874   8.321 -1.1599  0.3581 -2.8975
   11MOL0     H 1448  12.712  12.020   8.500 -2.0993 -2.1815 -0.6036
   11MOL0     H 1449  12.725  12.287   8.580  0.4357  2.0251  0.2431
   11MOL0     H 1450  12.838  12.147   8.609  5.9016 -0.5577 -0.0913
   11MOL0     H 1451  13.028  12.314   8.641 -1.7428 -0.6944 -3.8420
   11MOL0     H 1452  12.919  12.449   8.604 -1.0135  1.7360  1.3260
   11MOL0     H 1453  12.784  12.414   8.807  0.9953 -0.6523  1.4189
   11MOL0     H 1454  12.850  12.255   8.836  1.8187 -1.1467  0.0647
   11MOL0     H 1455  13.078  12.364   8.881  0.9744  2.0159  0.6602
   11MOL0     H 1456  12.956  12.359   8.995  4.6030 -0.9970  0.6929
   11MOL0     H 1457  12.888  12.604   8.887  0.0272  0.8968 -2.5781
   11MOL0     H 1458  13.042  12.587   8.813  0.6029  2.5923  0.2674
   11MOL0     H 1459  13.137  12.512   9.062  0.8980  0.5968 -1.0021
   11MOL0     H 1460  13.157  12.662   8.995  0.6836 -0.0126  0.1353
   11MOL0     H 1461  12.918  12.564   9.155  1.3183 -1.5312 -0.6568
   11MOL0     H 1462  12.931  12.740   9.100  4.4307  3.9177 -1.9406
   11MOL0     H 1463  12.994  12.714   9.329 -0.6953  1.2196 -1.2363
   11MOL0     H 1464  13.103  12.582   9.303  0.2277 -0.4392 -1.3073
   11MOL0     H 1465  12.940  12.191   8.176  1.4577 -0.8570 -0.1877
   11MOL0     H 1466  12.891  12.015   8.038 -1.0339 -1.6377 -0.7286
   11MOL0     H 1467  12.387  11.593   8.124  2.7975  0.2887  2.7479
   11MOL0     H 1468  12.355  11.378   8.016  2.4345 -0.5094  2.9995
   11MOL0     H 1469  11.263  11.137   7.063 -0.3104 -0.7129 -1.2405
   11MOL0     H 1470  11.025  11.140   6.996  0.2853  0.5897  0.1848
   11MOL0     H 1471  10.578  11.034   7.195  0.7728 -0.7933 -0.3989
   11MOL0     H 1472  10.356  11.045   7.182  1.8185 -0.9025  1.5843
   11MOL0     H 1473  10.109  11.121   7.065 -0.2296 -0.0664  2.9268
   11MOL0     H 1474  10.162  10.977   7.134  1.0733  1.5430 -0.3782
   11MOL0     H 1475   9.958  11.018   6.923  2.7778  0.0785  0.6616
   11MOL0     H 1476   9.915  10.969   7.095  0.1613  1.8595  0.6508
   11MOL0     H 1477  10.020  10.750   7.034  0.1195  1.2894  1.0127
   11MOL0     H 1478  10.044  10.797   6.869 -1.5768 -1.6049 -0.5382
   11MOL0     H 1479   9.824  10.856   6.820  0.9646 -0.5860 -1.0880
   11MOL0     H 1480   9.846  10.695   6.851 -3.6395  1.8351 -1.6035
   11MOL0     H 1481   9.558  10.799   7.156  1.8814 -0.3290  0.9291
   11MOL0     H 1482  10.369  10.923   6.763  1.5040 -0.0626 -1.2675
   11MOL0     H 1483  10.709  10.816   6.777 -1.1512 -3.0106 -4.6884
   11MOL0     H 1484  10.572  10.848   6.669 -1.5674  2.2735 -0.4743
   11MOL0     H 1485  10.696  10.972   6.688 -2.1951 -0.2010 -2.3837
   12MOL0     O 1486   8.201  10.721   3.200  0.5112  0.1710  0.3012
   12MOL0     C 1487   8.212  10.702   3.082 -0.0022  0.4305  0.2765
   12MOL0     O 1488   8.129  10.621   3.008  0.4626 -0.4307 -0.2584
   12MOL0     C 1489   8.013  10.568   3.072 -0.1954  0.3899 -0.8550
   12MOL0     C 1490   7.915  10.660   3.106  1.2423 -0.3302  0.2488
   12MOL0     C 1491   7.805  10.623   3.185 -0.4613  0.4764 -0.0236
   12MOL0     C 1492   7.788  10.487   3.211 -0.7842  0.3095 -0.0584
   12MOL0     O 1493   7.683  10.433   3.284 -0.0064 -0.1839  0.3063
   12MOL0     C 1494   7.614  10.539   3.355 -0.2079 -0.3733  0.0211
   12MOL0     C 1495   7.519  10.464   3.446 -0.1535 -0.0906 -0.6108
   12MOL0     C 1496   7.584  10.395   3.572  0.3242 -0.1062 -0.9853
   12MOL0     C 1497   7.503  10.274   3.624 -0.0291  0.0384 -1.0901
   12MOL0     C 1498   7.595  10.166   3.695 -0.5593 -0.2054 -0.2979
   12MOL0     C 1499   7.512  10.048   3.746  0.3970  0.3381 -0.6990
   12MOL0     C 1500   7.602   9.970   3.841 -0.0062  0.9390  0.9555
   12MOL0     C 1501   7.563   9.820   3.841  0.5198  0.5454  0.0217
   12MOL0     N 1502   7.584   9.747   3.971 -0.0740 -0.1720 -0.0862
   12MOL0     C 1503   7.513   9.787   4.081  0.4740  0.6596  0.2310
   12MOL0     C 1504   7.553   9.707   4.181 -0.3880 -0.4932 -0.1628
   12MOL0     C 1505   7.485   9.691   4.308  0.0883 -0.2639 -0.5727
   12MOL0     C 1506   7.550   9.749   4.440  0.1452 -0.5843 -0.5896
   12MOL0     C 1507   7.564   9.904   4.427 -0.9835 -0.4684 -0.7019
   12MOL0     C 1508   7.566   9.976   4.561 -0.9336  0.1736 -0.8793
   12MOL0     O 1509   7.459  10.073   4.555  0.4026  0.8974 -0.6121
   12MOL0     C 1510   7.429  10.142   4.671  0.2753 -0.1658 -1.0030
   12MOL0     C 1511   7.510  10.139   4.786  0.3797  0.3993 -0.1334
   12MOL0     C 1512   7.467  10.203   4.897 -0.0901 -0.4935  0.3276
   12MOL0     C 1513   7.356  10.284   4.898  0.3628 -0.7808 -0.1447
   12MOL0     C 1514   7.330  10.359   5.021  0.3115  0.0858 -0.2376
   12MOL0     O 1515   7.432  10.397   5.098  1.0427  0.0416 -0.7687
   12MOL0     C 1516   7.407  10.474   5.212  0.5745  0.1012  0.0418
   12MOL0     C 1517   7.489  10.435   5.328  0.4048  0.4245 -0.7798
   12MOL0     C 1518   7.471  10.506   5.448  1.0520 -0.6336  0.3663
   12MOL0     C 1519   7.379  10.611   5.456  0.0297 -0.0772  0.0642
   12MOL0     O 1520   7.378  10.702   5.557  0.6901  0.6944  0.1092
   12MOL0     C 1521   7.388  10.651   5.698 -0.5619  0.4481 -0.0281
   12MOL0     C 1522   7.273  10.711   5.779 -1.0196  0.3300  0.4473
   12MOL0     C 1523   7.272  10.868   5.786 -0.2431  0.4125 -0.1384
   12MOL0     C 1524   7.142  10.927   5.851  0.7395 -0.4475 -0.4332
   12MOL0     C 1525   7.154  11.082   5.868 -0.5107 -0.5909  0.0921
   12MOL0     C 1526   7.035  11.123   5.953  0.0871  0.0785  0.0434
   12MOL0     C 1527   6.988  11.271   5.937 -0.4956  0.3387  0.3786
   12MOL0     C 1528   6.857  11.303   5.994 -0.2660  0.6880  0.6594
   12MOL0    Cl 1529   6.813  11.469   5.933 -0.0924  0.2266  0.1168
   12MOL0     C 1530   7.303  10.655   5.350 -0.2037 -0.3440  0.3440
   12MOL0     C 1531   7.312  10.586   5.232 -0.4280 -1.0399 -0.6347
   12MOL0     O 1532   7.208  10.378   5.043 -0.7705  0.6806 -0.6228
   12MOL0     C 1533   7.272  10.282   4.790 -0.0393 -0.0558 -0.2577
   12MOL0     C 1534   7.309  10.212   4.681 -0.0310  0.3315  0.6610
   12MOL0     N 1535   7.662   9.632   4.133  0.1616  0.8864 -1.0859
   12MOL0     N 1536   7.673   9.657   4.012  0.3310  0.1233 -0.2706
   12MOL0     C 1537   7.892  10.392   3.172  0.1563 -0.9082  0.5293
   12MOL0     C 1538   8.002  10.437   3.108  0.1082 -0.1143 -0.1118
   12MOL0     C 1539   8.347  10.734   3.027 -0.3779  0.5601 -0.1279
   12MOL0     C 1540   8.386  10.674   2.911 -0.9225 -0.8040  0.2516
   12MOL0     C 1541   8.521  10.675   2.868  0.0301  0.3284  0.1475
   12MOL0     C 1542   8.615  10.750   2.952 -0.3391 -1.3677 -0.4367
   12MOL0     O 1543   8.750  10.780   2.934 -0.3550 -0.5467  0.8326
   12MOL0     C 1544   8.836  10.657   2.931 -0.3987 -0.4761 -0.8392
   12MOL0     C 1545   8.791  10.554   3.037  0.0427  0.1101  0.0972
   12MOL0     C 1546   8.911  10.457   3.072  0.4312 -0.5623  0.7811
   12MOL0     C 1547   8.871  10.399   3.209  1.5187 -0.8781 -0.4291
   12MOL0     C 1548   8.904  10.254   3.202 -0.2912 -1.7881  0.6361
   12MOL0     C 1549   8.972  10.156   3.185  0.8044  1.2995 -0.6551
   12MOL0     C 1550   8.564  10.816   3.068  0.2105 -0.0313  0.8611
   12MOL0     C 1551   8.430  10.817   3.101 -0.3649  0.2291 -0.3788
   12MOL0     C 1552   8.397  10.892   3.219 -0.3415  0.1342  0.5115
   12MOL0     H 1553   7.935  10.763   3.076 -0.6548  0.0597  0.2034
   12MOL0     H 1554   7.738  10.703   3.212 -1.7753 -0.9336  1.1054
   12MOL0     H 1555   7.676  10.595   3.426  2.6930 -1.6201 -1.4071
   12MOL0     H 1556   7.567  10.606   3.282  3.5790  0.8105 -1.5580
   12MOL0     H 1557   7.466  10.392   3.384  0.2189  0.1847 -1.2560
   12MOL0     H 1558   7.451  10.542   3.482 -0.1986 -0.3299 -0.1663
   12MOL0     H 1559   7.601  10.474   3.646  0.5340  0.7234 -1.8938
   12MOL0     H 1560   7.686  10.362   3.549  0.0681  0.4032 -3.0162
   12MOL0     H 1561   7.422  10.307   3.689 -1.7185 -3.3767 -1.2185
   12MOL0     H 1562   7.452  10.219   3.545  0.7674  0.4133 -1.8829
   12MOL0     H 1563   7.658  10.118   3.620 -2.2676 -1.8937 -0.7446
   12MOL0     H 1564   7.650  10.205   3.781 -3.2462  2.6694  0.3194
   12MOL0     H 1565   7.424  10.077   3.805  1.3654  2.2011 -0.1039
   12MOL0     H 1566   7.481   9.983   3.663 -0.9265 -1.8628  1.3691
   12MOL0     H 1567   7.595  10.019   3.939  0.8217  3.7817 -0.3284
   12MOL0     H 1568   7.705   9.970   3.807  0.8683 -0.7448  3.2821
   12MOL0     H 1569   7.459   9.796   3.820  1.3548 -0.3905 -3.7340
   12MOL0     H 1570   7.622   9.764   3.767  0.4332 -0.2679  0.5532
   12MOL0     H 1571   7.437   9.865   4.078  2.0309  2.2202 -2.2042
   12MOL0     H 1572   7.381   9.721   4.296 -0.3907 -2.7712 -4.3241
   12MOL0     H 1573   7.477   9.582   4.319  2.4341 -0.5841 -1.4487
   12MOL0     H 1574   7.483   9.732   4.525  0.1719  1.4811 -0.1030
   12MOL0     H 1575   7.644   9.697   4.459 -0.0694 -1.1990 -1.1545
   12MOL0     H 1576   7.477   9.944   4.373 -0.0412  0.9461 -1.2264
   12MOL0     H 1577   7.640   9.945   4.360 -1.7945  0.6686 -0.9713
   12MOL0     H 1578   7.662  10.025   4.582 -1.2990  0.5119  0.0573
   12MOL0     H 1579   7.545   9.907   4.644  1.6316  1.0463  0.6132
   12MOL0     H 1580   7.608  10.092   4.792 -0.7555 -2.5333 -2.2359
   12MOL0     H 1581   7.523  10.184   4.989 -0.5387 -1.7675  0.3567
   12MOL0     H 1582   7.577  10.372   5.333  0.3824  0.4799  2.4711
   12MOL0     H 1583   7.530  10.487   5.538 -0.3859  0.1099  1.5191
   12MOL0     H 1584   7.383  10.542   5.693 -2.0097  0.5437 -1.5269
   12MOL0     H 1585   7.490  10.675   5.730 -0.9223  1.8641  0.1311
   12MOL0     H 1586   7.182  10.681   5.725 -1.7657  2.6507  0.2876
   12MOL0     H 1587   7.271  10.675   5.882 -1.0272 -2.8442 -0.5541
   12MOL0     H 1588   7.365  10.893   5.837  0.4921  0.2079 -1.3751
   12MOL0     H 1589   7.280  10.922   5.692  2.9933  0.0146 -0.1870
   12MOL0     H 1590   7.130  10.884   5.951 -0.3934 -4.5410 -2.1193
   12MOL0     H 1591   7.057  10.905   5.786 -1.2266  1.6538  1.2634
   12MOL0     H 1592   7.148  11.127   5.769  0.9765  0.4941  0.4701
   12MOL0     H 1593   7.242  11.115   5.922 -0.9048  0.1390  0.2984
   12MOL0     H 1594   6.951  11.059   5.922 -1.3647  1.5234  0.8523
   12MOL0     H 1595   7.064  11.098   6.055 -0.4198 -1.9973 -0.2662
   12MOL0     H 1596   6.971  11.289   5.830  0.0186  2.0283  0.5615
   12MOL0     H 1597   7.063  11.342   5.973 -3.7356  4.6074 -0.5093
   12MOL0     H 1598   6.788  11.220   5.973  0.3871  0.3132 -0.0827
   12MOL0     H 1599   6.873  11.304   6.102  1.3116 -3.0600  0.6084
   12MOL0     H 1600   7.240  10.743   5.343  3.5664  2.5524 -0.3270
   12MOL0     H 1601   7.256  10.608   5.142 -1.2214 -0.5643 -0.0398
   12MOL0     H 1602   7.179  10.338   4.793 -1.6547 -2.6395  1.1376
   12MOL0     H 1603   7.245  10.213   4.593 -3.9990 -1.7000  3.2246
   12MOL0     H 1604   7.883  10.291   3.209 -2.5633 -0.7092  0.5980
   12MOL0     H 1605   8.071  10.361   3.073  0.0237  0.0727 -0.6971
   12MOL0     H 1606   8.326  10.611   2.846  0.0990 -1.4587 -0.0799
   12MOL0     H 1607   8.565  10.633   2.778  0.9317 -0.3784  0.8957
   12MOL0     H 1608   8.936  10.698   2.951 -1.0867  1.4120 -1.0591
   12MOL0     H 1609   8.847  10.609   2.833  0.8587  0.2090 -1.0550
   12MOL0     H 1610   8.714  10.493   2.989  1.2455 -0.3430 -1.3443
   12MOL0     H 1611   8.742  10.602   3.122 -2.7648  0.6101 -1.6404
   12MOL0     H 1612   8.999  10.522   3.080  1.5272 -1.6921 -1.4218
   12MOL0     H 1613   8.931  10.379   2.999  0.2469 -1.8502  2.0590
   12MOL0     H 1614   8.921  10.441   3.297  0.1515  0.4259 -0.2331
   12MOL0     H 1615   8.765  10.401   3.237  1.7136 -1.4677  0.4178
   12MOL0     H 1616   9.040  10.073   3.186  0.3581  0.8961 -1.8878
   12MOL0     H 1617   8.636  10.886   3.111 -0.5315  0.6958  0.9523
   12MOL0     H 1618   8.396  10.832   3.311  0.5914 -0.9056 -0.1349
   12MOL0     H 1619   8.461  10.980   3.234 -0.9672  0.7229 -0.1953
   12MOL0     H 1620   8.303  10.944   3.195  0.6105  1.4805 -0.4880
   13MOL0     O 1621   7.165   0.596   4.649 -0.9045 -0.1390 -0.5493
   13MOL0     C 1622   7.076   0.595   4.733 -0.5483 -0.2205 -0.5340
   13MOL0     O 1623   6.988   0.492   4.745  0.4522 -0.6745 -0.2402
   13MOL0     C 1624   7.001   0.385   4.667 -0.3528 -0.2657 -0.3441
   13MOL0     C 1625   6.954   0.382   4.532 -0.3923  0.7414  0.4527
   13MOL0     C 1626   6.969   0.256   4.463  1.3224 -0.2517 -0.1163
   13MOL0     C 1627   7.033   0.149   4.527 -0.1764  0.0098 -0.0652
   13MOL0     O 1628   7.046   0.029   4.455  0.3354  0.2161 -0.0006
   13MOL0     C 1629   7.173  -0.039   4.452  0.4483 -0.9130  0.3858
   13MOL0     C 1630   7.238  -0.023   4.314 -0.8215  1.0101  1.2126
   13MOL0     C 1631   7.264   0.112   4.259  0.0337  0.7566  0.3968
   13MOL0     C 1632   7.338   0.191   4.358 -0.4083  1.0704 -0.1419
   13MOL0     C 1633   7.387   0.323   4.313 -0.0977 -0.2418  0.2159
   13MOL0     C 1634   7.440   0.414   4.418  0.7242  0.6303 -0.2182
   13MOL0     C 1635   7.513   0.529   4.355  0.6482  0.4489 -0.1267
   13MOL0     C 1636   7.563   0.620   4.458  0.0268  0.3812  0.9962
   13MOL0     N 1637   7.663   0.711   4.409  0.4246 -0.0715 -0.6365
   13MOL0     C 1638   7.784   0.674   4.371 -0.8915  0.6418 -0.0820
   13MOL0     C 1639   7.851   0.786   4.341  0.5007 -0.7585  0.4173
   13MOL0     C 1640   7.979   0.799   4.284  0.4013 -0.3361  0.2956
   13MOL0     C 1641   8.011   0.948   4.246 -1.1461  0.3390  0.6362
   13MOL0     C 1642   8.162   0.956   4.194  0.6896 -0.8319  0.0613
   13MOL0     C 1643   8.232   1.094   4.181  0.3231  0.6950 -0.7766
   13MOL0     O 1644   8.337   1.094   4.079  0.0277  0.3246 -0.5537
   13MOL0     C 1645   8.455   1.156   4.121 -0.5564 -0.1764  0.4003
   13MOL0     C 1646   8.492   1.279   4.067 -0.6276  0.3363  0.3329
   13MOL0     C 1647   8.617   1.329   4.109  0.3119 -0.6338  0.0524
   13MOL0     C 1648   8.702   1.255   4.197 -1.3179  0.3374  0.2100
   13MOL0     C 1649   8.842   1.298   4.227 -0.5943  0.2418  0.1199
   13MOL0     O 1650   8.909   1.224   4.318 -0.0988  0.2085 -0.8688
   13MOL0     C 1651   9.035   1.260   4.367  0.3295  0.2500  0.4788
   13MOL0     C 1652   9.145   1.304   4.288  0.0173 -0.4465 -0.0694
   13MOL0     C 1653   9.259   1.352   4.350 -0.7441  0.3237 -0.7695
   13MOL0     C 1654   9.275   1.334   4.490  0.5493 -1.3447  0.2210
   13MOL0     O 1655   9.396   1.378   4.537 -0.3434 -0.4019 -0.3165
   13MOL0     C 1656   9.482   1.262   4.571  0.4951  0.5403  0.8060
   13MOL0     C 1657   9.629   1.319   4.596  0.1134 -0.2081  0.0830
   13MOL0     C 1658   9.699   1.384   4.477  0.3562 -0.7591  0.0517
   13MOL0     C 1659   9.839   1.450   4.486  0.7558  0.3238 -0.7513
   13MOL0     C 1660   9.892   1.500   4.362  0.3198 -0.1631 -0.1460
   13MOL0     C 1661   9.835   1.640   4.331  0.1177 -0.1353  0.1919
   13MOL0     C 1662   9.925   1.729   4.230  0.2028 -0.9606 -0.5204
   13MOL0     C 1663   9.917   1.877   4.270 -0.4169  1.0427 -0.4004
   13MOL0    Cl 1664   9.785   1.979   4.222  0.3595 -0.1249 -0.2584
   13MOL0     C 1665   9.172   1.272   4.564 -0.3884 -0.7262  0.5847
   13MOL0     C 1666   9.052   1.239   4.504 -0.2407 -0.5922  0.4379
   13MOL0     O 1667   8.883   1.404   4.181 -0.7532 -0.1418  0.4521
   13MOL0     C 1668   8.660   1.129   4.248  0.2042  0.2157  0.6861
   13MOL0     C 1669   8.537   1.084   4.205  0.2944  0.3767 -0.1538
   13MOL0     N 1670   7.758   0.899   4.353  0.6980  0.4811 -0.3995
   13MOL0     N 1671   7.653   0.846   4.388 -0.4061 -0.7030  0.3732
   13MOL0     C 1672   7.071   0.155   4.659 -0.2933 -1.1345 -0.5443
   13MOL0     C 1673   7.052   0.277   4.732  0.2088 -0.2685  0.2030
   13MOL0     C 1674   7.066   0.718   4.817  0.7998  0.2316 -0.7932
   13MOL0     C 1675   6.953   0.722   4.909  0.2836  0.7114 -0.3846
   13MOL0     C 1676   6.924   0.833   4.989 -1.1878 -0.3224  0.1219
   13MOL0     C 1677   7.000   0.946   4.977 -0.0610  0.2497  0.6690
   13MOL0     O 1678   6.984   1.066   5.037 -0.0637  0.2024  0.2020
   13MOL0     C 1679   6.954   1.056   5.177 -0.2363 -0.6819  1.6509
   13MOL0     C 1680   7.015   1.174   5.251  0.1636  0.8955 -0.1996
   13MOL0     C 1681   6.983   1.321   5.211 -0.3377 -0.1569  0.5763
   13MOL0     C 1682   6.825   1.340   5.195  0.2269  0.5940 -0.9493
   13MOL0     C 1683   6.754   1.337   5.326 -0.3477 -0.2085 -0.6290
   13MOL0     C 1684   6.706   1.335   5.431 -0.2608 -0.0634  0.3225
   13MOL0     C 1685   7.110   0.938   4.892  0.2975  0.7787  0.0017
   13MOL0     C 1686   7.143   0.825   4.813 -0.7167 -1.0925  0.1270
   13MOL0     C 1687   7.274   0.833   4.737  0.1760  0.1854 -0.1427
   13MOL0     H 1688   6.899   0.457   4.476  1.3641  1.6520 -0.1069
   13MOL0     H 1689   6.923   0.239   4.366  0.5932 -0.1317  0.1994
   13MOL0     H 1690   7.241   0.002   4.527  0.4535  0.4410 -0.3313
   13MOL0     H 1691   7.160  -0.146   4.471 -0.2804 -1.0406 -0.7273
   13MOL0     H 1692   7.171  -0.070   4.241  1.4188  0.1682 -0.4220
   13MOL0     H 1693   7.332  -0.078   4.304 -0.8662  1.1726 -0.4734
   13MOL0     H 1694   7.165   0.156   4.245  0.7809  2.6504  0.7883
   13MOL0     H 1695   7.305   0.111   4.158 -0.1829 -1.9427  0.2526
   13MOL0     H 1696   7.276   0.202   4.447  0.9318 -0.1988  1.0083
   13MOL0     H 1697   7.428   0.135   4.384 -1.8310 -1.2136  0.1913
   13MOL0     H 1698   7.453   0.314   4.226  0.7986 -0.4521  0.9031
   13MOL0     H 1699   7.303   0.373   4.263 -0.3556 -2.9587 -2.3314
   13MOL0     H 1700   7.363   0.448   4.488  0.0673 -0.6560 -0.2697
   13MOL0     H 1701   7.508   0.365   4.489 -2.2574 -0.1655  2.3324
   13MOL0     H 1702   7.449   0.580   4.282  0.1191  4.2563  2.7001
   13MOL0     H 1703   7.590   0.483   4.292 -1.5367  0.9640 -3.4220
   13MOL0     H 1704   7.487   0.685   4.503  0.6668  0.3081  2.2226
   13MOL0     H 1705   7.615   0.560   4.534  3.2062  0.2487 -1.1039
   13MOL0     H 1706   7.820   0.572   4.363 -1.0959  0.3963  1.8451
   13MOL0     H 1707   8.048   0.767   4.363  1.1612  0.2391 -0.1236
   13MOL0     H 1708   7.972   0.740   4.192  0.5500  1.5426 -0.9782
   13MOL0     H 1709   7.953   0.976   4.158 -0.9031 -1.5446 -0.1794
   13MOL0     H 1710   8.013   1.017   4.331  1.8127  0.3810  0.6108
   13MOL0     H 1711   8.162   0.918   4.091  1.0182 -2.8821  0.7597
   13MOL0     H 1712   8.225   0.890   4.255  0.6924  1.8033  3.2076
   13MOL0     H 1713   8.277   1.122   4.277  0.7926  2.7602 -1.5508
   13MOL0     H 1714   8.170   1.178   4.151  0.6000  1.6848  1.2282
   13MOL0     H 1715   8.431   1.338   4.000  2.0338  3.6589  0.5244
   13MOL0     H 1716   8.647   1.428   4.075 -3.0724  1.4946  2.5349
   13MOL0     H 1717   9.127   1.326   4.183  2.5424  1.9700 -0.1102
   13MOL0     H 1718   9.333   1.408   4.294 -2.2119  0.5462 -2.5983
   13MOL0     H 1719   9.444   1.223   4.666 -0.2480  0.6553  0.5656
   13MOL0     H 1720   9.467   1.186   4.494  1.6605  0.4466  0.6518
   13MOL0     H 1721   9.622   1.397   4.672  2.7864  2.6978 -2.3356
   13MOL0     H 1722   9.683   1.231   4.634 -2.2004 -1.2605  1.1172
   13MOL0     H 1723   9.692   1.318   4.390  0.3010 -0.7899  0.0790
   13MOL0     H 1724   9.624   1.455   4.440  0.1234 -1.8524 -1.6927
   13MOL0     H 1725   9.903   1.373   4.529 -0.3437 -0.7858 -1.0206
   13MOL0     H 1726   9.841   1.538   4.550 -0.1238 -0.2488  0.0921
   13MOL0     H 1727   9.888   1.435   4.274  0.4246  0.2024 -0.4231
   13MOL0     H 1728   9.999   1.510   4.379 -0.0887 -0.3157  2.9601
   13MOL0     H 1729   9.740   1.632   4.277  0.2048  1.4816 -0.2569
   13MOL0     H 1730   9.819   1.681   4.431  4.1341  0.3624  0.7602
   13MOL0     H 1731   9.903   1.709   4.125  3.6630 -0.6688 -1.4198
   13MOL0     H 1732  10.029   1.697   4.239  1.1955  1.7335 -1.5617
   13MOL0     H 1733   9.925   1.891   4.378 -0.1763 -0.9064 -0.1226
   13MOL0     H 1734  10.000   1.925   4.218 -0.7692 -1.3611 -3.4895
   13MOL0     H 1735   9.191   1.245   4.668  0.2577 -2.1311  0.1181
   13MOL0     H 1736   8.972   1.200   4.567 -0.2543 -2.1351 -0.4904
   13MOL0     H 1737   8.711   1.072   4.325  1.1737 -1.2247 -0.9497
   13MOL0     H 1738   8.497   0.990   4.242  0.8041  0.6489  1.1362
   13MOL0     H 1739   7.110   0.065   4.703 -1.3502 -0.7687  1.2255
   13MOL0     H 1740   7.072   0.293   4.837  0.2733 -0.5518  0.2344
   13MOL0     H 1741   6.880   0.642   4.910 -1.0246  1.8570  0.9811
   13MOL0     H 1742   6.825   0.830   5.034 -1.1270 -2.4047  0.2351
   13MOL0     H 1743   6.994   0.963   5.218 -1.0949 -0.7847  2.2684
   13MOL0     H 1744   6.845   1.057   5.180 -0.5580  3.8390 -1.3278
   13MOL0     H 1745   7.121   1.160   5.230 -0.8296 -3.3195 -3.6942
   13MOL0     H 1746   6.997   1.156   5.357  0.7931 -0.0280 -0.2480
   13MOL0     H 1747   7.039   1.343   5.119 -0.9557 -3.4966 -0.7480
   13MOL0     H 1748   7.015   1.385   5.294  1.5731 -1.5813  1.0008
   13MOL0     H 1749   6.792   1.435   5.152  0.3878 -0.2965 -3.1630
   13MOL0     H 1750   6.783   1.260   5.133 -0.0665  0.2699 -0.3393
   13MOL0     H 1751   6.648   1.342   5.521 -0.2526  1.9571  0.2334
   13MOL0     H 1752   7.168   1.029   4.902 -0.6017  1.4403 -0.6302
   13MOL0     H 1753   7.334   0.742   4.739  1.9400  1.2553 -1.6159
   13MOL0     H 1754   7.247   0.861   4.635  0.0534  1.8398  0.3176
   13MOL0     H 1755   7.336   0.911   4.781 -0.5565  2.1751 -2.4066
   14MOL0     O 1756   6.392   4.160   3.142 -0.4892  0.3464 -0.3781
   14MOL0     C 1757   6.479   4.158   3.061 -0.4410  0.2294 -0.2407
   14MOL0     O 1758   6.572   4.248   3.049 -0.0056 -0.1179 -0.8487
   14MOL0     C 1759   6.585   4.352   3.136 -0.4454  0.4362 -0.6759
   14MOL0     C 1760   6.513   4.474   3.110 -0.3740  0.2397  0.9722
   14MOL0     C 1761   6.520   4.572   3.205  1.0848  0.1263 -0.2512
   14MOL0     C 1762   6.559   4.544   3.335 -0.4329  0.1170 -0.6904
   14MOL0     O 1763   6.547   4.640   3.446 -0.4144 -0.7268 -0.2465
   14MOL0     C 1764   6.481   4.763   3.420 -0.0593  0.1761  0.8915
   14MOL0     C 1765   6.481   4.859   3.536  0.6476  0.3943 -0.2534
   14MOL0     C 1766   6.396   4.810   3.662  0.0615  0.3404 -0.1655
   14MOL0     C 1767   6.240   4.830   3.625 -0.1869 -0.2221 -0.7510
   14MOL0     C 1768   6.151   4.781   3.743 -0.2825 -0.4068  0.5420
   14MOL0     C 1769   6.018   4.723   3.701  0.5163 -0.5340 -0.3554
   14MOL0     C 1770   5.913   4.714   3.811 -0.5399  0.6976  0.5115
   14MOL0     C 1771   5.787   4.630   3.758 -0.8661  0.2038 -0.7743
   14MOL0     N 1772   5.828   4.488   3.754  0.8625 -0.1055 -0.4886
   14MOL0     C 1773   5.869   4.408   3.862 -0.0475  0.2736  0.2977
   14MOL0     C 1774   5.905   4.291   3.801  0.7954  0.6392  0.3407
   14MOL0     C 1775   5.957   4.175   3.870  0.1677 -1.0528  0.2964
   14MOL0     C 1776   5.949   4.050   3.786  0.0478  0.2144  0.5193
   14MOL0     C 1777   5.823   3.972   3.800 -0.2843 -0.1331 -0.1414
   14MOL0     C 1778   5.699   4.051   3.756  0.5940 -0.9640  0.4415
   14MOL0     O 1779   5.572   3.971   3.763 -0.7154 -0.6988 -0.7078
   14MOL0     C 1780   5.448   4.042   3.756  0.4261  0.8595  0.6396
   14MOL0     C 1781   5.328   3.967   3.775  0.4418 -0.5162  0.5816
   14MOL0     C 1782   5.211   4.041   3.768  0.3326 -0.2087  0.7457
   14MOL0     C 1783   5.202   4.171   3.735  0.3850 -1.0052 -0.1014
   14MOL0     C 1784   5.065   4.228   3.723 -0.4608 -1.0416 -0.3953
   14MOL0     O 1785   4.970   4.144   3.745 -0.2548 -0.3146 -0.7378
   14MOL0     C 1786   4.836   4.184   3.736  0.4348 -0.4484  0.3054
   14MOL0     C 1787   4.781   4.144   3.614  0.9013  0.1888  0.0490
   14MOL0     C 1788   4.645   4.152   3.584 -0.3833 -0.2916  0.9916
   14MOL0     C 1789   4.557   4.193   3.689  0.6756 -0.6537  0.3950
   14MOL0     O 1790   4.424   4.232   3.674  0.4148  0.2642 -0.3854
   14MOL0     C 1791   4.372   4.207   3.545 -0.1321 -0.3185 -0.2761
   14MOL0     C 1792   4.220   4.228   3.525  0.3272  0.3912  0.2372
   14MOL0     C 1793   4.141   4.113   3.578  0.1787 -0.3957  0.6000
   14MOL0     C 1794   4.094   4.143   3.725 -0.8690  0.1881  0.3411
   14MOL0     C 1795   4.025   4.016   3.784 -0.7522 -0.3698 -0.4138
   14MOL0     C 1796   3.945   4.048   3.909 -0.5623  0.5731  0.2353
   14MOL0     C 1797   3.847   3.929   3.916 -0.2654  0.2392 -0.5858
   14MOL0     C 1798   3.789   3.914   4.057  0.1128 -0.7489  0.0862
   14MOL0    Cl 1799   3.663   3.795   4.070  0.1085  0.1652  0.0365
   14MOL0     C 1800   4.613   4.230   3.814  0.7490 -1.2239  0.3357
   14MOL0     C 1801   4.752   4.229   3.838  0.3741 -0.2895 -0.1572
   14MOL0     O 1802   5.046   4.345   3.682 -0.0941 -0.4605 -0.5102
   14MOL0     C 1803   5.319   4.238   3.711  0.2599 -1.5415 -0.2862
   14MOL0     C 1804   5.438   4.174   3.729  0.1861  0.5466 -0.2116
   14MOL0     N 1805   5.889   4.311   3.658  0.4884  0.2750  0.3020
   14MOL0     N 1806   5.858   4.433   3.633  0.2382  0.3567  0.1450
   14MOL0     C 1807   6.626   4.421   3.359  1.0633  0.0338  0.4012
   14MOL0     C 1808   6.645   4.323   3.264  0.3972 -0.3997  0.8479
   14MOL0     C 1809   6.481   4.043   2.966  0.3169 -0.0796 -0.0244
   14MOL0     C 1810   6.597   4.019   2.883 -0.0877 -0.0582 -0.4575
   14MOL0     C 1811   6.605   3.907   2.798 -0.0262 -0.3907  0.8120
   14MOL0     C 1812   6.500   3.815   2.782 -0.0191  0.0754  0.1348
   14MOL0     O 1813   6.477   3.705   2.693  0.6717 -0.6829  0.5259
   14MOL0     C 1814   6.582   3.674   2.601 -0.4395 -0.0830  0.3669
   14MOL0     C 1815   6.698   3.587   2.661  0.2609 -0.1072 -0.5240
   14MOL0     C 1816   6.643   3.482   2.755  0.0002 -0.4815 -0.0821
   14MOL0     C 1817   6.718   3.353   2.742 -0.8421  0.2218  0.6868
   14MOL0     C 1818   6.852   3.348   2.812  0.3615  0.6016 -0.0032
   14MOL0     C 1819   6.955   3.324   2.862 -0.3476  0.0017  0.1026
   14MOL0     C 1820   6.393   3.841   2.862 -0.2472 -0.1444  0.6204
   14MOL0     C 1821   6.376   3.951   2.949 -0.3948 -0.9410  0.7772
   14MOL0     C 1822   6.246   3.969   3.003  0.1654  0.3747 -0.3132
   14MOL0     H 1823   6.490   4.508   3.009 -0.6341 -2.7924 -0.0721
   14MOL0     H 1824   6.490   4.671   3.171  0.6114 -1.2130 -4.2072
   14MOL0     H 1825   6.535   4.808   3.336  0.6941  1.5436  2.0734
   14MOL0     H 1826   6.374   4.745   3.406 -0.2119 -0.5032  2.6406
   14MOL0     H 1827   6.432   4.953   3.508 -4.5787 -2.0949 -0.6541
   14MOL0     H 1828   6.579   4.886   3.576  0.0494  2.4475 -0.0483
   14MOL0     H 1829   6.435   4.848   3.756  1.0788 -0.0674 -0.4136
   14MOL0     H 1830   6.413   4.703   3.671  3.3319  0.5858 -1.9358
   14MOL0     H 1831   6.208   4.930   3.595 -1.2725 -0.2921  0.1215
   14MOL0     H 1832   6.217   4.782   3.530  1.5681 -1.1851 -0.7277
   14MOL0     H 1833   6.204   4.716   3.813  1.8627 -1.0102 -1.5152
   14MOL0     H 1834   6.137   4.880   3.787  3.8318  0.9827 -0.7922
   14MOL0     H 1835   5.979   4.791   3.625  1.2076  0.4099  0.1167
   14MOL0     H 1836   6.018   4.624   3.654 -2.2309 -2.7662  3.7298
   14MOL0     H 1837   5.869   4.810   3.837  1.2181  1.6459  0.1421
   14MOL0     H 1838   5.953   4.674   3.904  2.2576  2.2130  0.0879
   14MOL0     H 1839   5.708   4.639   3.833 -0.3354  1.8594 -0.3571
   14MOL0     H 1840   5.747   4.677   3.668 -0.3141  2.8109  0.2577
   14MOL0     H 1841   5.894   4.439   3.964 -1.3179  0.5696  0.5384
   14MOL0     H 1842   6.060   4.188   3.905  0.7763 -3.6142 -0.3137
   14MOL0     H 1843   5.895   4.158   3.959 -3.3738  0.8905 -1.6237
   14MOL0     H 1844   5.980   4.073   3.683  1.6364  1.4284  1.2284
   14MOL0     H 1845   6.037   3.990   3.811  0.5667  0.2895 -0.9838
   14MOL0     H 1846   5.814   3.947   3.906  2.0573  3.3081  1.0609
   14MOL0     H 1847   5.838   3.887   3.734 -2.4035  0.0318 -0.9069
   14MOL0     H 1848   5.714   4.099   3.659  1.0914 -0.0531  0.9593
   14MOL0     H 1849   5.692   4.130   3.831 -1.8048 -0.1545 -0.5288
   14MOL0     H 1850   5.323   3.859   3.786  0.0594 -0.5964 -0.3130
   14MOL0     H 1851   5.119   3.985   3.785  0.5554  0.1160  3.5324
   14MOL0     H 1852   4.834   4.113   3.525  0.8158  2.0400 -0.6982
   14MOL0     H 1853   4.606   4.130   3.485 -2.2623  1.2379  1.3425
   14MOL0     H 1854   4.420   4.278   3.477 -1.8489  1.4740  0.2939
   14MOL0     H 1855   4.397   4.105   3.516 -0.7412 -1.0294  1.5886
   14MOL0     H 1856   4.177   4.319   3.569 -1.0923 -0.8835  1.6205
   14MOL0     H 1857   4.183   4.245   3.424 -0.2664  2.6662  0.7644
   14MOL0     H 1858   4.047   4.097   3.525 -1.0319  2.2324  1.7705
   14MOL0     H 1859   4.209   4.028   3.567 -0.0163 -0.3805 -0.9401
   14MOL0     H 1860   4.020   4.222   3.714 -0.6680  0.3185 -0.1032
   14MOL0     H 1861   4.185   4.167   3.782  0.2292 -1.1342 -0.7783
   14MOL0     H 1862   4.093   3.935   3.812 -1.3814 -0.5468  0.6254
   14MOL0     H 1863   3.965   3.982   3.699 -2.0581 -0.5438  0.5548
   14MOL0     H 1864   3.998   4.057   4.004  1.0705  1.8231 -0.7640
   14MOL0     H 1865   3.886   4.139   3.896  1.7565  2.0190 -0.5765
   14MOL0     H 1866   3.895   3.833   3.892  0.7325  0.8130 -0.9666
   14MOL0     H 1867   3.765   3.953   3.849 -1.5499  2.6546  1.6601
   14MOL0     H 1868   3.868   3.889   4.129  0.3071  0.8692  0.4606
   14MOL0     H 1869   3.752   4.012   4.088  0.0095 -0.8025  0.1310
   14MOL0     H 1870   4.551   4.272   3.892  0.0276 -1.0479 -0.3229
   14MOL0     H 1871   4.807   4.244   3.931  0.7499  0.4603 -0.4964
   14MOL0     H 1872   5.331   4.343   3.688  3.1935 -1.6424  0.4002
   14MOL0     H 1873   5.527   4.224   3.692  0.7208 -1.1217 -1.2907
   14MOL0     H 1874   6.672   4.414   3.457  2.8858  1.7600 -0.2748
   14MOL0     H 1875   6.704   4.233   3.282  1.7096  0.0132 -1.0031
   14MOL0     H 1876   6.679   4.089   2.892 -1.1215  0.9796  6.7917
   14MOL0     H 1877   6.695   3.904   2.738 -0.4369  1.6121  0.0086
   14MOL0     H 1878   6.619   3.769   2.560 -2.3616  0.7295  0.4008
   14MOL0     H 1879   6.527   3.612   2.530 -1.8443 -1.9290  2.9251
   14MOL0     H 1880   6.764   3.664   2.703  1.1311 -0.4663 -1.2254
   14MOL0     H 1881   6.751   3.543   2.576  0.0060 -1.6723  0.1002
   14MOL0     H 1882   6.548   3.462   2.705  0.5664  1.8335 -2.3394
   14MOL0     H 1883   6.630   3.511   2.860 -3.0141  1.3749 -0.8512
   14MOL0     H 1884   6.668   3.263   2.779  2.1637 -2.1293 -0.5082
   14MOL0     H 1885   6.752   3.330   2.641 -1.2313  2.9700 -0.1527
   14MOL0     H 1886   7.049   3.299   2.907 -0.6040  1.3253  1.4601
   14MOL0     H 1887   6.311   3.770   2.859 -0.6713  0.3642 -0.7671
   14MOL0     H 1888   6.166   3.947   2.931  0.2786  0.7910 -0.5732
   14MOL0     H 1889   6.237   3.906   3.092  0.4940 -0.2523 -0.7123
   14MOL0     H 1890   6.213   4.072   3.019 -3.2466 -0.6587  0.2407
   15MOL0     O 1891   4.644   7.348   8.038  0.4117  0.1413  0.0577
   15MOL0     C 1892   4.708   7.334   8.142 -1.0198 -0.1876  1.1990
   15MOL0     O 1893   4.677   7.399   8.256  0.0113 -0.0680  0.3117
   15MOL0     C 1894   4.578   7.496   8.272 -0.6007  0.0026  0.3733
   15MOL0     C 1895   4.574   7.554   8.398  0.6832 -0.3840 -0.8098
   15MOL0     C 1896   4.520   7.682   8.422  0.9601  0.1834 -0.0466
   15MOL0     C 1897   4.458   7.747   8.312  0.8133  0.2357  0.4229
   15MOL0     O 1898   4.396   7.865   8.326  0.2691  0.0666 -0.3066
   15MOL0     C 1899   4.477   7.979   8.376 -0.0408  0.6123  0.0339
   15MOL0     C 1900   4.388   8.106   8.357  0.2627 -0.1646 -0.2780
   15MOL0     C 1901   4.358   8.128   8.202 -0.7698  0.4144  0.2399
   15MOL0     C 1902   4.231   8.052   8.163  0.1549  0.1133  1.8453
   15MOL0     C 1903   4.189   8.072   8.017  1.2059 -1.1496 -0.3560
   15MOL0     C 1904   4.047   8.031   8.000  0.3077  0.4392  0.1116
   15MOL0     C 1905   4.006   8.062   7.857  0.4807 -0.1665 -0.9705
   15MOL0     C 1906   3.945   8.198   7.831  0.7127  0.2423  1.0872
   15MOL0     N 1907   3.878   8.214   7.697  0.2269  0.0668  0.4812
   15MOL0     C 1908   3.757   8.168   7.656 -0.5950  0.4258  0.4927
   15MOL0     C 1909   3.754   8.185   7.519 -0.3308 -0.2592 -0.3329
   15MOL0     C 1910   3.653   8.140   7.423 -0.4826  0.3685 -0.0176
   15MOL0     C 1911   3.568   8.024   7.472  0.1192  0.2533  0.2060
   15MOL0     C 1912   3.479   7.962   7.360  0.0354 -0.5102 -0.8665
   15MOL0     C 1913   3.405   7.832   7.400 -0.1795  0.4544  0.5069
   15MOL0     O 1914   3.492   7.717   7.425 -1.0297  0.0597 -0.1532
   15MOL0     C 1915   3.428   7.596   7.439 -1.3238  0.5451 -0.7182
   15MOL0     C 1916   3.314   7.561   7.378  0.1917 -0.2369  0.2540
   15MOL0     C 1917   3.262   7.433   7.396 -0.3505  0.4161 -0.8142
   15MOL0     C 1918   3.313   7.341   7.493  0.0187  0.7791  1.2130
   15MOL0     C 1919   3.260   7.209   7.516 -0.9181 -0.6112  1.0527
   15MOL0     O 1920   3.332   7.129   7.606  0.1094 -0.3541  0.1825
   15MOL0     C 1921   3.279   7.007   7.649 -1.6662  0.2216 -0.5696
   15MOL0     C 1922   3.294   6.975   7.783  0.1392  0.6598  0.1573
   15MOL0     C 1923   3.237   6.867   7.848  0.5503  1.1293 -0.4190
   15MOL0     C 1924   3.143   6.792   7.773 -0.4269  0.2793 -0.3311
   15MOL0     O 1925   3.069   6.684   7.822  0.5276 -0.3029 -0.0524
   15MOL0     C 1926   3.034   6.696   7.958  0.7989 -0.4505 -1.1135
   15MOL0     C 1927   2.951   6.580   8.000  0.0377  0.5563 -0.5962
   15MOL0     C 1928   3.012   6.487   8.101  0.1812  0.0978  0.6133
   15MOL0     C 1929   2.996   6.532   8.247 -0.2742 -0.0256 -0.9670
   15MOL0     C 1930   3.062   6.431   8.336  0.2833  0.2915  0.2332
   15MOL0     C 1931   3.082   6.466   8.484  0.4953  0.4889  0.1507
   15MOL0     C 1932   3.156   6.355   8.561 -0.7089 -0.1399  0.8848
   15MOL0     C 1933   3.203   6.403   8.702 -0.3408  1.2829 -0.2592
   15MOL0    Cl 1934   3.360   6.492   8.689 -0.3260 -0.2111  0.2690
   15MOL0     C 1935   3.129   6.817   7.636  0.5024  0.3015 -0.6346
   15MOL0     C 1936   3.206   6.922   7.579  0.2737  1.0066  0.6237
   15MOL0     O 1937   3.155   7.181   7.463  0.6337 -0.0978 -0.7879
   15MOL0     C 1938   3.432   7.379   7.556 -0.4186 -0.5062  0.5376
   15MOL0     C 1939   3.492   7.506   7.520  0.3899  0.9387 -0.4485
   15MOL0     N 1940   3.881   8.232   7.484 -0.0319 -0.2963 -0.2879
   15MOL0     N 1941   3.951   8.254   7.590 -0.7935 -0.3633  1.1101
   15MOL0     C 1942   4.445   7.688   8.187  0.4678  0.2966 -0.2471
   15MOL0     C 1943   4.511   7.567   8.170  0.4578  1.0771  0.2828
   15MOL0     C 1944   4.836   7.258   8.137  0.2317  0.3869  0.1622
   15MOL0     C 1945   4.944   7.294   8.216 -0.5909 -0.2176  0.0279
   15MOL0     C 1946   5.063   7.219   8.228  0.5376 -1.0640 -0.4123
   15MOL0     C 1947   5.080   7.108   8.146 -1.0248  0.5122 -1.2547
   15MOL0     O 1948   5.191   7.026   8.158  0.0616  0.4101  0.2104
   15MOL0     C 1949   5.302   7.088   8.226 -0.6342 -0.0713  0.6618
   15MOL0     C 1950   5.431   7.015   8.213 -0.8703  0.0643  0.4502
   15MOL0     C 1951   5.547   7.101   8.274 -0.0924  0.8668 -0.2063
   15MOL0     C 1952   5.690   7.055   8.250 -0.2063 -0.5678  0.6343
   15MOL0     C 1953   5.703   6.911   8.249 -0.0093 -0.7932  1.0114
   15MOL0     C 1954   5.705   6.787   8.250 -0.7117 -0.8231  0.1269
   15MOL0     C 1955   4.974   7.061   8.075  0.3032  0.2638 -1.1520
   15MOL0     C 1956   4.848   7.132   8.075 -0.6964  0.1010  0.0679
   15MOL0     C 1957   4.730   7.064   8.009  0.4096  0.5528 -0.4060
   15MOL0     H 1958   4.607   7.492   8.480 -1.5241 -0.4843  0.0561
   15MOL0     H 1959   4.514   7.723   8.522 -2.7504 -2.6822  1.1536
   15MOL0     H 1960   4.498   7.961   8.482 -1.9436 -0.2911  0.3210
   15MOL0     H 1961   4.577   7.972   8.334 -0.3151  0.0327 -0.5522
   15MOL0     H 1962   4.452   8.178   8.408 -1.9464  0.0653  2.3345
   15MOL0     H 1963   4.291   8.093   8.405 -0.1730 -3.4617 -1.7549
   15MOL0     H 1964   4.447   8.091   8.151 -0.5994 -0.0282  0.8520
   15MOL0     H 1965   4.348   8.232   8.171  0.6988  0.4434 -0.2202
   15MOL0     H 1966   4.241   7.948   8.195 -0.2881  0.1702  2.1762
   15MOL0     H 1967   4.148   8.088   8.225 -0.2309 -1.3612  2.2265
   15MOL0     H 1968   4.201   8.178   7.990  1.4873 -0.8118  0.9951
   15MOL0     H 1969   4.245   8.011   7.946  1.9525 -0.9225  0.0321
   15MOL0     H 1970   4.042   7.922   8.010 -1.0270  0.4478 -0.2619
   15MOL0     H 1971   3.976   8.070   8.074  1.8215  2.8430  0.3961
   15MOL0     H 1972   3.927   7.990   7.835 -0.9656  1.4602 -1.3015
   15MOL0     H 1973   4.087   8.036   7.787 -1.0092 -1.1214 -2.4096
   15MOL0     H 1974   3.877   8.228   7.911 -1.5355 -1.5134 -0.0539
   15MOL0     H 1975   4.029   8.265   7.814 -1.5261  2.5307 -2.0619
   15MOL0     H 1976   3.679   8.114   7.709 -1.5273  0.5218 -0.7097
   15MOL0     H 1977   3.589   8.221   7.388 -2.0165  0.7816  3.3318
   15MOL0     H 1978   3.712   8.102   7.339 -0.4873 -0.5288  0.3690
   15MOL0     H 1979   3.636   7.946   7.509 -0.0572  0.7336  1.6007
   15MOL0     H 1980   3.509   8.049   7.561 -1.5724  0.3450 -0.8933
   15MOL0     H 1981   3.556   7.935   7.287  2.1029  0.1944  0.9631
   15MOL0     H 1982   3.406   8.038   7.332  1.0651  0.8012 -0.0759
   15MOL0     H 1983   3.347   7.803   7.312  2.2875 -0.7279 -0.8337
   15MOL0     H 1984   3.333   7.849   7.481 -3.5858  1.7198 -2.5171
   15MOL0     H 1985   3.257   7.616   7.303 -0.0630 -0.0112  0.6137
   15MOL0     H 1986   3.174   7.414   7.336 -3.6595  1.6454  3.2067
   15MOL0     H 1987   3.346   7.046   7.847 -0.4416  1.2849 -0.0672
   15MOL0     H 1988   3.245   6.865   7.956 -0.7430 -0.4068 -0.3038
   15MOL0     H 1989   3.128   6.695   8.015  1.3627  1.0064 -1.9397
   15MOL0     H 1990   2.974   6.785   7.979 -2.4238 -2.9831  1.5375
   15MOL0     H 1991   2.860   6.624   8.042 -0.8798 -1.4856 -0.3378
   15MOL0     H 1992   2.926   6.530   7.906  0.3786  0.4798 -0.6482
   15MOL0     H 1993   2.964   6.391   8.079 -1.7670  1.7150 -2.9019
   15MOL0     H 1994   3.118   6.475   8.075  0.0026 -0.6881  0.2117
   15MOL0     H 1995   2.888   6.542   8.265 -0.5375 -1.4925 -1.6440
   15MOL0     H 1996   3.037   6.633   8.252  0.3578 -0.2537 -1.4478
   15MOL0     H 1997   3.164   6.410   8.302  0.0517 -2.1401  0.8142
   15MOL0     H 1998   3.006   6.337   8.340  1.2442 -0.2848  0.6498
   15MOL0     H 1999   3.148   6.554   8.484  2.1777 -0.6119 -2.6628
   15MOL0     H 2000   2.993   6.488   8.544  0.7142 -0.1115  0.7047
   15MOL0     H 2001   3.240   6.318   8.500 -2.0758  0.6934 -1.6698
   15MOL0     H 2002   3.102   6.261   8.571 -0.6323 -0.4254 -0.9972
   15MOL0     H 2003   3.132   6.474   8.745  0.7650  2.1063  0.2358
   15MOL0     H 2004   3.211   6.311   8.762 -0.1174 -1.2715 -3.8715
   15MOL0     H 2005   3.064   6.747   7.584 -2.2237  1.8319  0.5236
   15MOL0     H 2006   3.198   6.939   7.472  1.5840 -0.8903  0.1837
   15MOL0     H 2007   3.480   7.322   7.634  0.4738  1.3694  1.4165
   15MOL0     H 2008   3.589   7.524   7.564  0.5848 -3.2058  1.2482
   15MOL0     H 2009   4.391   7.730   8.102 -1.8245  0.9852  1.4637
   15MOL0     H 2010   4.501   7.521   8.072 -2.1057 -2.1142  1.8472
   15MOL0     H 2011   4.950   7.390   8.267 -1.0551  0.2428 -0.7606
   15MOL0     H 2012   5.140   7.264   8.290 -1.0300 -0.3955  1.1210
   15MOL0     H 2013   5.270   7.111   8.328  1.6462  2.7320  0.8681
   15MOL0     H 2014   5.317   7.185   8.179 -0.9313 -0.4356 -0.2038
   15MOL0     H 2015   5.451   7.008   8.106  1.4037  1.5475  0.7130
   15MOL0     H 2016   5.417   6.922   8.269 -0.1912  1.1279  2.4854
   15MOL0     H 2017   5.519   7.105   8.380 -0.9947 -1.7240 -0.2762
   15MOL0     H 2018   5.544   7.203   8.234  2.6268  1.5094  0.9773
   15MOL0     H 2019   5.726   7.091   8.153 -0.8010 -2.2125 -0.2485
   15MOL0     H 2020   5.752   7.098   8.328  0.2236  2.0923 -1.0514
   15MOL0     H 2021   5.720   6.683   8.232  0.3686 -0.2216 -3.0663
   15MOL0     H 2022   4.993   6.969   8.020  0.0757 -0.8061  0.4931
   15MOL0     H 2023   4.692   7.116   7.921 -0.4558 -2.1881 -1.7607
   15MOL0     H 2024   4.758   6.959   7.994  4.4762  1.2628  0.9958
   15MOL0     H 2025   4.645   7.073   8.078  0.6475  2.7582 -0.3165
   16MOL0     O 2026   1.206   6.466   2.978  0.9547  0.3760  0.1559
   16MOL0     C 2027   1.149   6.558   3.041  1.0037 -0.5618 -0.4302
   16MOL0     O 2028   1.126   6.681   2.998  0.0919  0.4505  0.0064
   16MOL0     C 2029   1.186   6.728   2.880 -0.4781 -0.5910  0.2851
   16MOL0     C 2030   1.098   6.767   2.779 -0.1197 -0.4014 -0.8984
   16MOL0     C 2031   1.144   6.800   2.657 -0.1262 -1.1898 -0.8678
   16MOL0     C 2032   1.282   6.794   2.633 -0.2207  0.1102 -0.3203
   16MOL0     O 2033   1.314   6.821   2.504 -0.1779  0.2157  0.6673
   16MOL0     C 2034   1.287   6.953   2.452 -0.3224  0.0752 -0.8473
   16MOL0     C 2035   1.379   6.971   2.338 -0.1958  0.2871 -0.3364
   16MOL0     C 2036   1.310   7.066   2.236 -0.5876 -1.0870 -0.0373
   16MOL0     C 2037   1.404   7.112   2.120  0.4433 -0.2877  0.6475
   16MOL0     C 2038   1.344   7.215   2.023  0.5532 -0.6871  0.1501
   16MOL0     C 2039   1.221   7.149   1.938  0.6345  0.4499 -0.8259
   16MOL0     C 2040   1.165   7.228   1.825 -0.4953 -0.3163  0.2794
   16MOL0     C 2041   1.268   7.255   1.713 -0.1228 -0.4894  0.1755
   16MOL0     N 2042   1.215   7.345   1.610 -0.2333 -0.1464 -0.0195
   16MOL0     C 2043   1.169   7.472   1.625  0.1655  0.1121  0.4178
   16MOL0     C 2044   1.146   7.517   1.491 -0.4198  1.3791 -0.4838
   16MOL0     C 2045   1.118   7.652   1.431 -0.3581  0.0027  0.2578
   16MOL0     C 2046   1.170   7.673   1.284 -0.3175  0.0335 -0.7230
   16MOL0     C 2047   1.060   7.654   1.183  0.0732  1.0588  0.0153
   16MOL0     C 2048   1.088   7.686   1.028  0.3361  0.8410  0.0129
   16MOL0     O 2049   1.223   7.720   1.009  0.2529  0.2119 -0.2404
   16MOL0     C 2050   1.267   7.732   0.872 -0.0478 -0.7126 -0.2279
   16MOL0     C 2051   1.190   7.722   0.764 -0.4334  0.0239  0.2638
   16MOL0     C 2052   1.244   7.743   0.633  0.9566  0.5332  0.5542
   16MOL0     C 2053   1.381   7.766   0.615  0.7476 -0.2866 -0.4241
   16MOL0     C 2054   1.441   7.788   0.479 -0.2138 -1.7250  0.3331
   16MOL0     O 2055   1.358   7.752   0.381 -0.8417  0.6682  0.4843
   16MOL0     C 2056   1.385   7.800   0.253 -0.1408 -0.0984  0.3717
   16MOL0     C 2057   1.504   7.759   0.189  0.0555  0.0868 -0.8433
   16MOL0     C 2058   1.532   7.811   0.061 -0.0042 -0.1157 -0.8205
   16MOL0     C 2059   1.436   7.882  -0.010 -0.4131 -0.5923 -0.8761
   16MOL0     O 2060   1.475   7.931  -0.138 -0.3378  0.4728  0.4111
   16MOL0     C 2061   1.391   8.019  -0.211 -0.9017  0.3117  0.4547
   16MOL0     C 2062   1.438   8.050  -0.350  0.6914 -0.4922  0.1916
   16MOL0     C 2063   1.570   8.127  -0.374  0.7815 -0.1446 -0.1919
   16MOL0     C 2064   1.609   8.119  -0.525  1.0206 -0.2069 -0.7562
   16MOL0     C 2065   1.723   8.225  -0.549  0.6032  1.0743 -0.0052
   16MOL0     C 2066   1.781   8.236  -0.691 -0.8485  0.1275  0.0850
   16MOL0     C 2067   1.682   8.269  -0.812  0.1789 -0.2734  0.5705
   16MOL0     C 2068   1.748   8.298  -0.953 -0.7789  0.4044 -0.8027
   16MOL0    Cl 2069   1.851   8.148  -0.993  0.0714 -0.0827 -0.2665
   16MOL0     C 2070   1.316   7.901   0.048  0.6410 -0.6409 -0.1644
   16MOL0     C 2071   1.292   7.876   0.180 -0.7934  0.7275 -0.4547
   16MOL0     O 2072   1.544   7.844   0.467 -0.0111  0.0422 -0.4368
   16MOL0     C 2073   1.452   7.784   0.733 -0.2807 -0.3414 -0.5255
   16MOL0     C 2074   1.402   7.765   0.864  0.2252  0.1243  0.9616
   16MOL0     N 2075   1.150   7.400   1.411  0.2669 -0.2920  0.2785
   16MOL0     N 2076   1.192   7.300   1.487 -0.7763  0.7190 -0.3263
   16MOL0     C 2077   1.372   6.759   2.729 -0.6099  0.2883  0.5002
   16MOL0     C 2078   1.327   6.728   2.856  0.6288 -0.6767 -0.1777
   16MOL0     C 2079   1.085   6.512   3.173  0.7276  1.1753  0.3342
   16MOL0     C 2080   1.127   6.393   3.225 -0.3579 -0.3658  0.5035
   16MOL0     C 2081   1.067   6.348   3.350 -0.3249 -0.8570  0.4108
   16MOL0     C 2082   0.976   6.417   3.421  0.4936  0.7257  0.0422
   16MOL0     O 2083   0.915   6.376   3.539  0.2320  0.3012  0.0600
   16MOL0     C 2084   1.012   6.326   3.630  0.4937  0.1146 -0.2568
   16MOL0     C 2085   1.087   6.428   3.701  0.1119 -1.1151  0.6254
   16MOL0     C 2086   1.109   6.399   3.858  0.3240 -0.8149  0.8844
   16MOL0     C 2087   1.007   6.489   3.926 -0.4918 -0.6029 -0.2626
   16MOL0     C 2088   1.023   6.499   4.072 -0.5296  0.6564  0.1268
   16MOL0     C 2089   1.015   6.511   4.189 -0.2347  0.1671  0.0907
   16MOL0     C 2090   0.916   6.525   3.353  0.1076 -0.2576 -0.3463
   16MOL0     C 2091   0.972   6.581   3.232 -0.3992  0.5611 -0.2483
   16MOL0     C 2092   0.911   6.702   3.183 -0.1281 -1.0506  0.0941
   16MOL0     H 2093   0.990   6.775   2.775 -0.0216  1.8176 -0.2973
   16MOL0     H 2094   1.080   6.841   2.580 -0.4768  0.2268  0.1407
   16MOL0     H 2095   1.183   6.967   2.420  0.4958  2.6865 -2.6199
   16MOL0     H 2096   1.315   7.026   2.529  1.6125 -0.1333 -1.3184
   16MOL0     H 2097   1.420   6.882   2.290 -0.7562 -0.7797  1.1059
   16MOL0     H 2098   1.459   7.031   2.382 -1.3152  1.2017  0.5352
   16MOL0     H 2099   1.266   7.154   2.285 -0.1443 -1.6626  1.4299
   16MOL0     H 2100   1.223   7.021   2.186 -0.4726 -1.4106  0.0539
   16MOL0     H 2101   1.488   7.157   2.173 -1.8043  3.8766  1.0580
   16MOL0     H 2102   1.435   7.029   2.056 -0.9723  1.0269 -1.8901
   16MOL0     H 2103   1.306   7.303   2.075 -1.9927 -1.3921 -0.3783
   16MOL0     H 2104   1.427   7.247   1.958 -2.2448  0.3594 -3.1776
   16MOL0     H 2105   1.243   7.051   1.894  0.7758 -0.2775  0.8114
   16MOL0     H 2106   1.140   7.130   2.008 -2.0967  2.4548 -3.2207
   16MOL0     H 2107   1.115   7.316   1.866  0.7789  0.7957 -0.5090
   16MOL0     H 2108   1.088   7.169   1.773 -0.1827 -1.4289  1.0532
   16MOL0     H 2109   1.352   7.309   1.758 -1.5558  0.4606  1.8257
   16MOL0     H 2110   1.292   7.158   1.669  0.3482 -0.8209  1.1456
   16MOL0     H 2111   1.178   7.530   1.716 -2.0566  2.4492 -0.7418
   16MOL0     H 2112   1.017   7.691   1.447 -1.4687 -2.0364 -1.2826
   16MOL0     H 2113   1.191   7.711   1.487 -3.2376  4.3045 -0.1366
   16MOL0     H 2114   1.203   7.777   1.279 -0.4112  0.1447  0.5683
   16MOL0     H 2115   1.248   7.603   1.254  0.5389  0.9574 -0.6994
   16MOL0     H 2116   0.983   7.728   1.209 -2.6638 -0.6378 -2.6807
   16MOL0     H 2117   1.023   7.552   1.189 -1.7833  1.7369  0.6354
   16MOL0     H 2118   1.021   7.767   0.996  0.9508  2.3780  2.3502
   16MOL0     H 2119   1.062   7.603   0.963  0.9473  1.4305 -1.0126
   16MOL0     H 2120   1.084   7.704   0.779 -0.5628  2.8563  4.9087
   16MOL0     H 2121   1.179   7.730   0.547 -0.5173 -1.0852  1.8527
   16MOL0     H 2122   1.570   7.695   0.247  1.2109  2.6687  0.8776
   16MOL0     H 2123   1.621   7.773   0.012  0.8835  2.3621 -1.2592
   16MOL0     H 2124   1.290   7.978  -0.223  0.0739 -1.9758 -0.7630
   16MOL0     H 2125   1.380   8.117  -0.164  1.1582  1.3481 -1.0274
   16MOL0     H 2126   1.436   7.954  -0.403 -1.0666  0.1261 -0.9507
   16MOL0     H 2127   1.358   8.111  -0.393  0.2878  0.1674  1.8001
   16MOL0     H 2128   1.553   8.230  -0.341  1.6878  0.5236 -1.7004
   16MOL0     H 2129   1.644   8.075  -0.311  0.0038 -0.2346  0.6682
   16MOL0     H 2130   1.529   8.144  -0.596  0.9749 -0.0461 -0.6481
   16MOL0     H 2131   1.651   8.020  -0.544 -0.8186 -1.3164  0.5930
   16MOL0     H 2132   1.808   8.193  -0.488 -0.0590  0.6320  0.7109
   16MOL0     H 2133   1.673   8.318  -0.523 -2.0288 -0.9545  2.8774
   16MOL0     H 2134   1.863   8.305  -0.669  0.9901 -2.2117  1.0478
   16MOL0     H 2135   1.819   8.136  -0.710 -1.6465 -0.5613  1.9226
   16MOL0     H 2136   1.626   8.357  -0.777 -3.6490 -0.6588 -3.7413
   16MOL0     H 2137   1.615   8.183  -0.822 -1.4160  1.0453 -0.6412
   16MOL0     H 2138   1.674   8.315  -1.031 -2.6283  0.7003  0.9369
   16MOL0     H 2139   1.812   8.385  -0.939  1.1968 -1.2182  0.9648
   16MOL0     H 2140   1.242   7.967   0.004 -0.7164 -1.3787  0.9227
   16MOL0     H 2141   1.193   7.901   0.218  0.3712  2.3551  1.6900
   16MOL0     H 2142   1.559   7.802   0.723 -0.3155 -0.3985 -1.0072
   16MOL0     H 2143   1.462   7.780   0.953  1.5838 -3.0055  0.6840
   16MOL0     H 2144   1.474   6.745   2.695 -0.3843 -1.5216  1.7624
   16MOL0     H 2145   1.393   6.686   2.931  0.1636 -0.5178  0.3278
   16MOL0     H 2146   1.209   6.340   3.179 -1.5047 -0.2697 -1.7639
   16MOL0     H 2147   1.103   6.251   3.383  1.6193  0.2408  1.6830
   16MOL0     H 2148   1.074   6.242   3.597 -3.0175 -2.8211 -0.0744
   16MOL0     H 2149   0.952   6.281   3.710  0.6319  2.1100  1.0404
   16MOL0     H 2150   1.035   6.523   3.690  0.3974 -0.5585  3.2479
   16MOL0     H 2151   1.183   6.441   3.651  0.0050  0.2109  0.7274
   16MOL0     H 2152   1.209   6.433   3.885 -0.5393  0.2971  2.9338
   16MOL0     H 2153   1.084   6.294   3.879 -3.4751 -0.4933 -1.1204
   16MOL0     H 2154   1.006   6.588   3.879 -0.5889  0.5850  2.0686
   16MOL0     H 2155   0.905   6.460   3.901 -0.0439 -0.3785 -2.5340
   16MOL0     H 2156   1.016   6.527   4.295 -1.4347  1.2773 -0.0323
   16MOL0     H 2157   0.819   6.557   3.391 -0.0954 -2.3578  1.0337
   16MOL0     H 2158   0.836   6.738   3.253  0.0501  0.1159 -0.3011
   16MOL0     H 2159   0.987   6.779   3.165 -0.6429 -1.1338 -2.8405
   16MOL0     H 2160   0.862   6.678   3.089  3.4923 -1.8220 -1.7855
   17MOL0     O 2161   7.574   2.052  10.997  0.3119 -0.0562  0.1315
   17MOL0     C 2162   7.672   2.009  10.936 -0.1702 -0.2652  0.4803
   17MOL0     O 2163   7.776   1.948  10.994 -0.7666  0.2328  0.4348
   17MOL0     C 2164   7.767   1.942  11.129  0.2058 -0.2318 -0.9886
   17MOL0     C 2165   7.794   2.054  11.208  0.0915 -0.5511 -0.1062
   17MOL0     C 2166   7.797   2.053  11.351 -0.7860  0.0034  0.7211
   17MOL0     C 2167   7.788   1.928  11.413 -0.0028  0.0146  0.5831
   17MOL0     O 2168   7.804   1.914  11.549 -0.4064 -0.4465 -0.0352
   17MOL0     C 2169   7.846   2.022  11.634 -0.6406  0.0504 -0.4311
   17MOL0     C 2170   7.858   1.954  11.779  0.1095 -0.5943  0.9033
   17MOL0     C 2171   7.961   2.032  11.861  0.1578  0.8227  0.3051
   17MOL0     C 2172   8.009   1.952  11.984 -0.1615  0.4457 -0.0194
   17MOL0     C 2173   8.143   2.005  12.034 -1.1185  0.1844 -0.5805
   17MOL0     C 2174   8.121   2.142  12.089  0.6717  0.6415 -0.3468
   17MOL0     C 2175   8.252   2.206  12.128 -1.4569 -0.2879  0.6365
   17MOL0     C 2176   8.318   2.280  12.005  0.7458 -0.0199 -0.1160
   17MOL0     N 2177   8.430   2.360  12.039 -0.1036 -0.1097  0.7534
   17MOL0     C 2178   8.546   2.326  12.111 -0.1462 -0.4621 -0.3093
   17MOL0     C 2179   8.628   2.434  12.103 -0.3323  0.2427 -0.3531
   17MOL0     C 2180   8.769   2.440  12.167  0.8204 -0.1862 -0.0998
   17MOL0     C 2181   8.860   2.328  12.118 -0.0365  0.2361  0.1926
   17MOL0     C 2182   9.014   2.350  12.156  0.0217  0.5033  0.2283
   17MOL0     C 2183   9.104   2.248  12.099 -0.0699 -0.6537  0.1560
   17MOL0     O 2184   9.109   2.260  11.952  0.0928 -0.2622  0.0018
   17MOL0     C 2185   9.213   2.334  11.900 -0.1380  0.0254  0.0401
   17MOL0     C 2186   9.314   2.392  11.969 -0.1646 -0.2225  0.8293
   17MOL0     C 2187   9.430   2.441  11.912 -0.0021 -0.8212  0.1891
   17MOL0     C 2188   9.429   2.456  11.769 -0.8459  0.3185 -0.3802
   17MOL0     C 2189   9.548   2.505  11.705  0.3856  0.1946 -0.5181
   17MOL0     O 2190   9.551   2.520  11.567 -0.0899 -0.3217 -0.8472
   17MOL0     C 2191   9.672   2.526  11.494  0.4043  0.5119 -0.8068
   17MOL0     C 2192   9.667   2.556  11.357  0.8067 -0.2241 -1.2131
   17MOL0     C 2193   9.767   2.544  11.265  0.5317  0.5196  0.5211
   17MOL0     C 2194   9.891   2.493  11.306 -0.8637 -0.5375 -0.9999
   17MOL0     O 2195   9.995   2.478  11.223 -0.2904 -0.2832  0.7296
   17MOL0     C 2196   9.953   2.390  11.116 -0.1882  0.3114 -0.9093
   17MOL0     C 2197  10.082   2.365  11.032 -0.2754  0.0737  0.5149
   17MOL0     C 2198  10.146   2.482  10.960  0.4531 -0.5633  0.2706
   17MOL0     C 2199  10.277   2.456  10.902 -0.1153  0.0484 -0.0515
   17MOL0     C 2200  10.357   2.579  10.846  0.4024  0.0403 -0.1179
   17MOL0     C 2201  10.459   2.552  10.732  0.0453 -0.3126  1.0897
   17MOL0     C 2202  10.380   2.547  10.592  0.4302  1.4389  0.0060
   17MOL0     C 2203  10.468   2.503  10.479  0.1861 -0.7317  0.6837
   17MOL0    Cl 2204  10.509   2.331  10.514  0.1445  0.3129 -0.4691
   17MOL0     C 2205   9.903   2.450  11.447 -0.3181  0.0421  0.6449
   17MOL0     C 2206   9.799   2.467  11.540 -0.1546 -0.8342 -0.4322
   17MOL0     O 2207   9.639   2.527  11.780 -0.6901 -0.2443 -0.3041
   17MOL0     C 2208   9.319   2.402  11.694  0.3171  0.0892  0.8103
   17MOL0     C 2209   9.214   2.336  11.762 -0.7630  0.3717 -0.0747
   17MOL0     N 2210   8.550   2.539  12.044 -1.1988 -0.0130 -0.4565
   17MOL0     N 2211   8.445   2.488  11.996 -0.8340  0.3296 -0.5352
   17MOL0     C 2212   7.767   1.811  11.335 -0.0295 -0.5824  0.1677
   17MOL0     C 2213   7.747   1.819  11.197 -0.5329 -0.0859  0.9127
   17MOL0     C 2214   7.668   1.999  10.789  0.2917 -0.0538 -0.3870
   17MOL0     C 2215   7.555   1.942  10.732  0.0604 -0.2251  0.3790
   17MOL0     C 2216   7.537   1.953  10.592  0.1313  0.1071 -0.6021
   17MOL0     C 2217   7.640   2.009  10.517  1.2761  0.2068  0.1325
   17MOL0     O 2218   7.610   2.014  10.384 -0.0642 -0.0554  0.2785
   17MOL0     C 2219   7.674   2.109  10.307 -0.1561 -0.6788 -0.2151
   17MOL0     C 2220   7.618   2.124  10.161  0.0645  0.0500 -0.2661
   17MOL0     C 2221   7.473   2.145  10.147 -0.2811  0.9676  1.1156
   17MOL0     C 2222   7.440   2.169   9.989 -0.4530  0.7628 -0.6075
   17MOL0     C 2223   7.297   2.180   9.945  0.0608  0.3708 -0.5145
   17MOL0     C 2224   7.187   2.197   9.911  0.0506 -0.1470 -0.3860
   17MOL0     C 2225   7.755   2.057  10.580  0.6678  1.1711 -0.0654
   17MOL0     C 2226   7.767   2.057  10.715 -0.2343  0.0277 -0.3624
   17MOL0     C 2227   7.896   2.121  10.769  0.0853 -0.5704 -0.0835
   17MOL0     H 2228   7.821   2.145  11.154 -0.1582 -0.0792  0.5453
   17MOL0     H 2229   7.811   2.149  11.401 -1.9478 -0.7034  2.4608
   17MOL0     H 2230   7.945   2.050  11.598 -0.9585  0.7103 -0.8145
   17MOL0     H 2231   7.779   2.108  11.639 -1.5473 -0.6400 -0.4659
   17MOL0     H 2232   7.886   1.849  11.766 -0.7773 -0.8534  1.0158
   17MOL0     H 2233   7.762   1.969  11.829  0.5490 -1.2067  1.9618
   17MOL0     H 2234   7.914   2.125  11.892  0.2740  1.0325 -0.1359
   17MOL0     H 2235   8.047   2.051  11.796 -0.3031  1.5279 -0.1082
   17MOL0     H 2236   7.951   1.966  12.076  1.5165 -0.6785  1.2755
   17MOL0     H 2237   8.020   1.844  11.973 -1.2176  0.3768 -0.5461
   17MOL0     H 2238   8.183   1.930  12.102  1.5020  1.3033 -0.7929
   17MOL0     H 2239   8.210   2.018  11.949 -0.6958 -0.3462 -0.3345
   17MOL0     H 2240   8.065   2.202  12.017  0.9776  3.9870  1.9512
   17MOL0     H 2241   8.062   2.128  12.180  1.7533 -0.1436  0.2638
   17MOL0     H 2242   8.329   2.145  12.175 -2.5983 -1.2572  1.3098
   17MOL0     H 2243   8.225   2.284  12.201  0.4765  0.7464  0.3232
   17MOL0     H 2244   8.352   2.195  11.945 -1.6657 -2.3137  1.5489
   17MOL0     H 2245   8.238   2.331  11.950 -1.2893 -1.3799  1.4080
   17MOL0     H 2246   8.571   2.231  12.157  1.4270  0.9429  1.9087
   17MOL0     H 2247   8.822   2.535  12.164 -1.2561  1.0136 -0.7976
   17MOL0     H 2248   8.743   2.425  12.273 -1.3201 -0.8585 -0.6602
   17MOL0     H 2249   8.827   2.229  12.150  0.2820 -1.0987 -3.1802
   17MOL0     H 2250   8.842   2.323  12.010  1.7631  1.6857 -0.2244
   17MOL0     H 2251   9.012   2.352  12.265 -2.3449 -1.5131  0.3137
   17MOL0     H 2252   9.061   2.445  12.128  1.6923  0.2707  2.0002
   17MOL0     H 2253   9.073   2.147  12.126  0.3837 -0.7843  0.1876
   17MOL0     H 2254   9.201   2.246  12.149  0.3470 -2.5267 -0.6610
   17MOL0     H 2255   9.314   2.405  12.077 -3.6328  1.5105  0.7553
   17MOL0     H 2256   9.515   2.473  11.972  0.2160 -3.5768  1.4818
   17MOL0     H 2257   9.566   2.586  11.331 -0.2405 -3.5956 -1.5424
   17MOL0     H 2258   9.744   2.571  11.163  1.2281  1.5435  0.6322
   17MOL0     H 2259   9.911   2.298  11.157 -1.7310  1.1223 -0.5614
   17MOL0     H 2260   9.879   2.433  11.048  0.5865  0.8193 -1.4504
   17MOL0     H 2261  10.165   2.335  11.097 -0.5091 -1.4333  0.1518
   17MOL0     H 2262  10.073   2.284  10.959  0.7643  0.6449 -0.2895
   17MOL0     H 2263  10.093   2.491  10.864 -0.2500 -1.6044  0.5566
   17MOL0     H 2264  10.136   2.576  11.016 -0.5867 -0.6745  0.2877
   17MOL0     H 2265  10.262   2.385  10.820 -3.9911  1.0464 -0.4085
   17MOL0     H 2266  10.346   2.410  10.973  0.4003 -1.3707 -1.4259
   17MOL0     H 2267  10.404   2.638  10.925 -2.4442  4.7565 -1.5625
   17MOL0     H 2268  10.291   2.658  10.809 -0.0721  0.5206  1.6469
   17MOL0     H 2269  10.528   2.637  10.737  0.3647 -0.3716 -1.3775
   17MOL0     H 2270  10.515   2.462  10.761  2.3288  0.5748 -0.2679
   17MOL0     H 2271  10.335   2.641  10.560 -1.8703  1.2993  2.5118
   17MOL0     H 2272  10.302   2.471  10.604 -0.1796  1.9854 -0.4222
   17MOL0     H 2273  10.423   2.514  10.380  0.4125  2.5460  0.8171
   17MOL0     H 2274  10.562   2.558  10.462  0.2183 -0.8898  0.3384
   17MOL0     H 2275  10.001   2.431  11.489  0.3228 -1.5526 -1.4016
   17MOL0     H 2276   9.812   2.428  11.640 -2.9820 -2.1227 -0.4690
   17MOL0     H 2277   9.323   2.406  11.585 -0.2450 -0.5452  0.7562
   17MOL0     H 2278   9.150   2.284  11.691  1.0758  1.3950 -2.6188
   17MOL0     H 2279   7.758   1.720  11.392 -0.9210 -1.7964 -1.8027
   17MOL0     H 2280   7.730   1.727  11.142  0.7899 -0.5837  1.3223
   17MOL0     H 2281   7.478   1.891  10.788 -0.7837  1.1028  0.4665
   17MOL0     H 2282   7.460   1.903  10.535  1.0131 -1.0033 -0.8548
   17MOL0     H 2283   7.776   2.071  10.296 -0.8229 -3.1395  1.3889
   17MOL0     H 2284   7.668   2.202  10.364  0.2975 -0.1447 -1.0082
   17MOL0     H 2285   7.654   2.043  10.097  3.2846  1.1157 -0.0066
   17MOL0     H 2286   7.682   2.206  10.125  4.5345 -2.0814  1.9108
   17MOL0     H 2287   7.440   2.233  10.202  1.3070  2.7952 -0.6902
   17MOL0     H 2288   7.416   2.058  10.180 -1.5189  0.6854 -1.4547
   17MOL0     H 2289   7.492   2.261   9.960 -0.3628  0.4146 -1.6242
   17MOL0     H 2290   7.480   2.083   9.933 -2.1817 -0.0326 -0.6949
   17MOL0     H 2291   7.081   2.194   9.891 -0.0040  0.8263 -0.2925
   17MOL0     H 2292   7.826   2.097  10.508  0.2245  1.8987 -0.1018
   17MOL0     H 2293   7.873   2.179  10.858  0.1919 -0.5101 -0.0952
   17MOL0     H 2294   7.966   2.040  10.790  0.0788 -2.0932 -4.8099
   17MOL0     H 2295   7.928   2.194  10.694 -0.7399 -0.4287 -0.3059
   18MOL0     O 2296   7.140   1.042   7.987  0.3324 -0.9868  0.8030
   18MOL0     C 2297   7.247   1.067   8.042  0.4385 -0.1761 -0.0187
   18MOL0     O 2298   7.329   0.977   8.103 -0.0304  0.0669  0.5845
   18MOL0     C 2299   7.324   0.851   8.058  0.3363 -0.1538 -0.2917
   18MOL0     C 2300   7.439   0.793   8.004 -0.5822  0.3706 -0.2484
   18MOL0     C 2301   7.435   0.657   7.977 -0.2346  0.5700 -0.2835
   18MOL0     C 2302   7.318   0.581   7.980 -0.0508 -0.0044  0.3366
   18MOL0     O 2303   7.316   0.446   7.959 -0.1262 -0.0998 -0.8691
   18MOL0     C 2304   7.415   0.388   7.872 -0.2078 -0.1179 -0.5026
   18MOL0     C 2305   7.372   0.272   7.778 -0.5950 -0.3813 -0.4558
   18MOL0     C 2306   7.252   0.300   7.704  0.0130 -0.3645 -0.1377
   18MOL0     C 2307   7.213   0.201   7.598  0.2717  0.1133 -0.2630
   18MOL0     C 2308   7.067   0.198   7.555  0.3430  0.0974  0.8273
   18MOL0     C 2309   6.975   0.158   7.667  0.3341  0.6012 -0.3447
   18MOL0     C 2310   6.837   0.123   7.615  0.8399  0.4110 -0.4910
   18MOL0     C 2311   6.744   0.093   7.727 -0.3950  0.3061 -0.9848
   18MOL0     N 2312   6.744  -0.044   7.770  1.0610 -0.0275 -0.0829
   18MOL0     C 2313   6.693  -0.153   7.704  1.0973  0.2891  0.9524
   18MOL0     C 2314   6.716  -0.269   7.775 -0.6193 -1.4815  0.0577
   18MOL0     C 2315   6.650  -0.400   7.776  0.2798 -0.4744  0.2028
   18MOL0     C 2316   6.649  -0.471   7.633  0.2445  0.1026 -0.7064
   18MOL0     C 2317   6.590  -0.614   7.636  0.8931  0.6995 -0.5866
   18MOL0     C 2318   6.585  -0.682   7.506 -0.5323 -0.0655 -0.3108
   18MOL0     O 2319   6.539  -0.820   7.507 -0.2530 -0.6044  0.7465
   18MOL0     C 2320   6.439  -0.852   7.418  0.3081  0.0909  0.5975
   18MOL0     C 2321   6.306  -0.849   7.457  0.1525 -0.2023 -0.1968
   18MOL0     C 2322   6.201  -0.879   7.374 -0.3454  0.7120  0.4871
   18MOL0     C 2323   6.232  -0.930   7.243 -0.6526 -0.0300  0.6754
   18MOL0     C 2324   6.120  -0.978   7.154  0.1259 -0.2967  0.2149
   18MOL0     O 2325   5.991  -0.953   7.206 -0.0997  0.5984  0.0177
   18MOL0     C 2326   5.884  -1.024   7.161 -0.1420  0.2554 -0.2823
   18MOL0     C 2327   5.810  -1.090   7.263  0.8293 -0.1912  0.6189
   18MOL0     C 2328   5.693  -1.170   7.231 -0.4302 -0.8243  0.9684
   18MOL0     C 2329   5.649  -1.163   7.103  0.7142  0.3860 -0.0434
   18MOL0     O 2330   5.534  -1.232   7.073 -0.4581 -0.3015  0.6074
   18MOL0     C 2331   5.431  -1.144   7.026  0.1615  0.2111  1.1831
   18MOL0     C 2332   5.310  -1.227   6.979 -0.3524 -0.4060 -0.3143
   18MOL0     C 2333   5.190  -1.143   6.978 -0.0459 -0.4166 -0.0386
   18MOL0     C 2334   5.066  -1.228   6.952 -0.4753 -0.6843 -0.3816
   18MOL0     C 2335   4.941  -1.154   6.921  0.2119 -0.3513 -0.0680
   18MOL0     C 2336   4.805  -1.236   6.906 -0.4992 -0.8061 -0.3871
   18MOL0     C 2337   4.695  -1.133   6.856 -0.1953  0.4826  1.1374
   18MOL0     C 2338   4.676  -1.124   6.704 -0.9593 -0.2534  0.6025
   18MOL0    Cl 2339   4.535  -1.023   6.666 -0.7089  0.2262  0.4058
   18MOL0     C 2340   5.728  -1.105   7.006 -0.5092  0.9845  0.6784
   18MOL0     C 2341   5.837  -1.024   7.030  0.3560  0.4339  0.2293
   18MOL0     O 2342   6.137  -1.041   7.044  0.4444 -0.3279 -0.3725
   18MOL0     C 2343   6.370  -0.945   7.205  0.2100 -0.2139  0.2255
   18MOL0     C 2344   6.468  -0.903   7.292 -0.1703 -0.1472 -0.4370
   18MOL0     N 2345   6.790  -0.222   7.882  0.4016  0.0271  0.4955
   18MOL0     N 2346   6.804  -0.088   7.878  0.4895  1.1237 -0.1785
   18MOL0     C 2347   7.196   0.641   8.021  0.1651 -0.4629  0.7846
   18MOL0     C 2348   7.204   0.775   8.072  0.4785  0.5496 -0.1085
   18MOL0     C 2349   7.290   1.212   8.029  0.8524  1.0576  0.1184
   18MOL0     C 2350   7.348   1.272   8.140 -0.0841  0.5181  0.2899
   18MOL0     C 2351   7.397   1.398   8.133 -1.0540  0.2825  0.2127
   18MOL0     C 2352   7.381   1.470   8.020 -0.6485 -0.2147  0.4577
   18MOL0     O 2353   7.436   1.594   8.031 -0.5232  0.4047  0.2404
   18MOL0     C 2354   7.451   1.681   7.917  0.5185  0.6792 -0.0695
   18MOL0     C 2355   7.543   1.799   7.946  0.2476  1.1068  0.6180
   18MOL0     C 2356   7.529   1.916   7.843  0.3005 -0.4729 -0.4347
   18MOL0     C 2357   7.648   1.915   7.740 -0.8235 -0.5291 -0.4325
   18MOL0     C 2358   7.618   2.011   7.631 -0.3763 -1.1771  0.1989
   18MOL0     C 2359   7.609   2.090   7.536  0.0120  0.4749  0.7419
   18MOL0     C 2360   7.314   1.416   7.905  0.1418  0.4040  0.1490
   18MOL0     C 2361   7.283   1.275   7.905  0.3781 -0.1540 -0.0924
   18MOL0     C 2362   7.244   1.220   7.767 -0.3684  0.0632 -0.0800
   18MOL0     H 2363   7.529   0.854   8.007 -0.2168 -0.2021  0.9871
   18MOL0     H 2364   7.530   0.615   7.942  0.8518  1.9878  0.8629
   18MOL0     H 2365   7.464   0.459   7.804  1.8122 -1.4696 -0.5412
   18MOL0     H 2366   7.489   0.347   7.942 -1.1560 -0.1414  0.4982
   18MOL0     H 2367   7.368   0.172   7.822  2.2054 -1.4128 -2.2940
   18MOL0     H 2368   7.465   0.256   7.723  0.9838  1.9711  1.3185
   18MOL0     H 2369   7.249   0.400   7.661  0.3381 -0.7909 -1.1800
   18MOL0     H 2370   7.174   0.294   7.780  0.5325  0.6425  0.4989
   18MOL0     H 2371   7.271   0.221   7.507  1.2636  1.3070  0.5912
   18MOL0     H 2372   7.245   0.104   7.636  3.3953 -0.0605 -2.8725
   18MOL0     H 2373   7.040   0.302   7.533 -2.3698 -0.3570  1.6140
   18MOL0     H 2374   7.030   0.142   7.469 -0.7092  2.5212 -0.4084
   18MOL0     H 2375   7.005   0.077   7.735  0.3715 -0.7085 -1.8637
   18MOL0     H 2376   6.966   0.244   7.734 -1.3991  1.1200 -1.2203
   18MOL0     H 2377   6.837   0.039   7.544  0.8464  2.2178 -2.7311
   18MOL0     H 2378   6.796   0.207   7.560  0.8187  1.1979  0.6981
   18MOL0     H 2379   6.768   0.152   7.816  1.2398 -1.5321 -0.1295
   18MOL0     H 2380   6.640   0.117   7.701 -1.4163  0.6585  2.7028
   18MOL0     H 2381   6.630  -0.153   7.615  1.7151  0.3806  0.5059
   18MOL0     H 2382   6.708  -0.458   7.849  2.5432  0.3097 -0.8974
   18MOL0     H 2383   6.553  -0.385   7.823  0.7392 -2.4975  1.9872
   18MOL0     H 2384   6.587  -0.400   7.578  0.0340  4.3333  4.2286
   18MOL0     H 2385   6.746  -0.488   7.584  1.7350  1.5318  1.5694
   18MOL0     H 2386   6.494  -0.598   7.686  1.9882  1.4178  1.3931
   18MOL0     H 2387   6.651  -0.679   7.700  1.5867 -0.4084 -2.2869
   18MOL0     H 2388   6.682  -0.688   7.457 -0.7732 -2.6035 -0.5947
   18MOL0     H 2389   6.516  -0.617   7.450 -1.2334  0.3473  0.9943
   18MOL0     H 2390   6.285  -0.811   7.557  2.2305 -0.2891  0.3060
   18MOL0     H 2391   6.101  -0.867   7.414 -0.9629  3.2634 -1.5777
   18MOL0     H 2392   5.856  -1.090   7.361  3.4265 -1.2233 -0.4894
   18MOL0     H 2393   5.652  -1.231   7.311 -0.6098 -2.5169 -0.3487
   18MOL0     H 2394   5.390  -1.082   7.106 -0.6754  1.2439 -0.0144
   18MOL0     H 2395   5.468  -1.078   6.948  2.1731 -1.5194  0.5792
   18MOL0     H 2396   5.327  -1.278   6.884  0.8731  1.6230 -1.2695
   18MOL0     H 2397   5.306  -1.294   7.065  2.9595  0.9887  1.1056
   18MOL0     H 2398   5.181  -1.089   7.072  0.9443  4.4199 -2.4141
   18MOL0     H 2399   5.201  -1.070   6.898  0.1144  0.8682  1.1180
   18MOL0     H 2400   5.056  -1.298   7.035  0.2868  2.7230  2.8884
   18MOL0     H 2401   5.092  -1.298   6.872 -0.5685 -0.9906 -0.1436
   18MOL0     H 2402   4.959  -1.081   6.842  1.7010 -0.3709  0.2137
   18MOL0     H 2403   4.913  -1.089   7.005 -1.0096  1.4081 -1.7647
   18MOL0     H 2404   4.822  -1.323   6.842  0.4590  0.8739 -2.5504
   18MOL0     H 2405   4.772  -1.261   7.007  0.7240 -3.6664 -0.5962
   18MOL0     H 2406   4.714  -1.029   6.882 -2.1086  0.8272  1.2723
   18MOL0     H 2407   4.596  -1.165   6.891 -0.7376 -2.1367 -2.2874
   18MOL0     H 2408   4.770  -1.086   6.665 -1.7013  0.3859 -0.6082
   18MOL0     H 2409   4.653  -1.224   6.664  5.6634 -2.0704  0.1122
   18MOL0     H 2410   5.700  -1.123   6.902  3.8749  2.9860 -1.0931
   18MOL0     H 2411   5.873  -0.960   6.950 -0.2346  0.5611  0.0615
   18MOL0     H 2412   6.397  -0.999   7.115 -1.5646 -1.4501  0.4068
   18MOL0     H 2413   6.571  -0.916   7.261  0.3504 -0.1340  1.1978
   18MOL0     H 2414   7.102   0.587   8.032 -1.6241  2.1625 -0.4700
   18MOL0     H 2415   7.113   0.810   8.120  0.3403  1.1927 -0.8229
   18MOL0     H 2416   7.371   1.215   8.230 -0.4214 -0.2410 -0.1021
   18MOL0     H 2417   7.462   1.431   8.214  2.4943  0.7463 -2.5895
   18MOL0     H 2418   7.349   1.706   7.886 -1.1219 -2.3995  2.3060
   18MOL0     H 2419   7.492   1.632   7.828 -0.0469 -1.5944  0.8289
   18MOL0     H 2420   7.640   1.749   7.952 -1.1504 -1.8253  0.2876
   18MOL0     H 2421   7.513   1.837   8.044  0.4274  1.7069  0.4460
   18MOL0     H 2422   7.524   2.011   7.898 -4.5990 -1.2528  0.8900
   18MOL0     H 2423   7.441   1.899   7.781  1.7315 -1.7822 -2.2411
   18MOL0     H 2424   7.742   1.948   7.787 -0.6792  3.3012 -2.9753
   18MOL0     H 2425   7.651   1.809   7.715 -1.6070 -1.8253  4.0709
   18MOL0     H 2426   7.615   2.151   7.449 -0.1739  0.8144  0.9621
   18MOL0     H 2427   7.300   1.480   7.818 -0.6032  1.2262  0.8534
   18MOL0     H 2428   7.259   1.296   7.689 -0.6732  2.0954  1.7281
   18MOL0     H 2429   7.299   1.130   7.739  1.4409  0.4667  1.9580
   18MOL0     H 2430   7.137   1.197   7.774 -0.4216 -0.0214 -0.9533
   19MOL0     O 2431   3.744   7.367   4.740 -0.4581 -0.2683 -0.0652
   19MOL0     C 2432   3.806   7.275   4.680 -1.4664 -1.1177 -0.0592
   19MOL0     O 2433   3.765   7.147   4.664 -0.3508  0.1449  0.9083
   19MOL0     C 2434   3.646   7.118   4.728 -0.2256 -0.1517 -0.3074
   19MOL0     C 2435   3.523   7.104   4.659 -0.3879 -0.9063  0.4326
   19MOL0     C 2436   3.411   7.070   4.726  0.1804  0.1310 -0.2533
   19MOL0     C 2437   3.407   7.059   4.872  0.2490 -0.6150  0.1619
   19MOL0     O 2438   3.311   7.001   4.951  0.4600  0.3955 -0.2090
   19MOL0     C 2439   3.183   6.984   4.895 -0.3869 -1.2376  0.5225
   19MOL0     C 2440   3.100   6.917   5.000  0.3286 -0.2766  0.1609
   19MOL0     C 2441   3.141   6.917   5.151  0.4201 -0.1069  0.3784
   19MOL0     C 2442   3.038   6.893   5.259 -0.1402 -0.0893  0.4097
   19MOL0     C 2443   3.108   6.918   5.390  0.3769 -0.4002  0.5589
   19MOL0     C 2444   3.017   6.929   5.513 -1.3273  0.2126  0.5775
   19MOL0     C 2445   2.886   6.839   5.523 -0.2307 -0.6483  0.2117
   19MOL0     C 2446   2.862   6.826   5.676 -0.9776 -0.0459  0.7714
   19MOL0     N 2447   2.747   6.743   5.704  0.9643  0.4265 -0.6896
   19MOL0     C 2448   2.735   6.614   5.665 -0.0467  0.1397  0.3414
   19MOL0     C 2449   2.603   6.590   5.668  0.1583 -0.4725 -0.5410
   19MOL0     C 2450   2.550   6.457   5.623 -0.4405  1.0074 -0.0151
   19MOL0     C 2451   2.466   6.464   5.489  0.0482  0.2083  0.1691
   19MOL0     C 2452   2.444   6.329   5.424 -0.4012 -0.0309 -0.0608
   19MOL0     C 2453   2.333   6.242   5.490 -0.0545 -0.3529 -0.1220
   19MOL0     O 2454   2.300   6.118   5.425  0.6786 -0.2235  0.3728
   19MOL0     C 2455   2.407   6.022   5.425 -0.4311  0.4781 -0.4166
   19MOL0     C 2456   2.414   5.927   5.330  0.5295  0.0767 -0.4938
   19MOL0     C 2457   2.527   5.843   5.316 -0.0549  0.3129  0.4704
   19MOL0     C 2458   2.634   5.848   5.404  0.8841  0.7459 -0.2367
   19MOL0     C 2459   2.750   5.749   5.395 -0.6882 -0.2315  0.4225
   19MOL0     O 2460   2.713   5.628   5.348  0.1700  0.5829  0.3660
   19MOL0     C 2461   2.809   5.533   5.335  0.2608 -0.0464  0.0841
   19MOL0     C 2462   2.860   5.479   5.210  0.0318 -0.8110  0.2638
   19MOL0     C 2463   2.945   5.361   5.209  0.3414  0.2466  0.0049
   19MOL0     C 2464   2.990   5.304   5.325 -0.2683  0.6913 -0.3429
   19MOL0     O 2465   3.055   5.185   5.321  0.7168  0.2608  0.5054
   19MOL0     C 2466   3.191   5.175   5.373  0.2699 -0.3511 -1.0138
   19MOL0     C 2467   3.270   5.061   5.312  0.1076  0.1765  0.1518
   19MOL0     C 2468   3.420   5.091   5.322 -0.8152  0.9195  0.0443
   19MOL0     C 2469   3.482   5.016   5.443  0.1489 -0.5524  0.4453
   19MOL0     C 2470   3.432   5.046   5.584  0.1125  0.1622 -0.0511
   19MOL0     C 2471   3.478   5.184   5.640  0.5119 -0.5268  0.1248
   19MOL0     C 2472   3.629   5.211   5.660  0.3375  0.1281 -0.1169
   19MOL0     C 2473   3.705   5.093   5.735  0.0634 -0.2193  0.1382
   19MOL0    Cl 2474   3.854   5.158   5.799 -0.5274  0.2944 -0.5665
   19MOL0     C 2475   2.950   5.366   5.444  0.3888  0.0860  0.0449
   19MOL0     C 2476   2.852   5.473   5.452 -0.6773  0.7294 -0.0886
   19MOL0     O 2477   2.861   5.776   5.447  0.0603 -0.8793  0.0730
   19MOL0     C 2478   2.625   5.944   5.505 -0.0291  0.1375  0.0505
   19MOL0     C 2479   2.518   6.029   5.514 -0.4300 -0.1795  0.7516
   19MOL0     N 2480   2.539   6.705   5.712  0.8837 -0.0657 -0.5356
   19MOL0     N 2481   2.628   6.795   5.740 -0.9783 -0.3942 -0.0242
   19MOL0     C 2482   3.528   7.085   4.940  0.4799  0.6771  0.0149
   19MOL0     C 2483   3.644   7.110   4.866 -0.6180  0.6928  0.4681
   19MOL0     C 2484   3.943   7.317   4.627  0.8317 -0.1289  0.0959
   19MOL0     C 2485   3.980   7.451   4.647 -0.6557  0.0734 -0.3127
   19MOL0     C 2486   4.113   7.491   4.627 -0.6753  0.5052 -0.3526
   19MOL0     C 2487   4.210   7.401   4.576  0.0040  0.1500 -0.4663
   19MOL0     O 2488   4.335   7.439   4.537 -0.0718  0.4056  0.5385
   19MOL0     C 2489   4.349   7.568   4.475 -0.0873 -0.7284  0.0652
   19MOL0     C 2490   4.380   7.543   4.333  1.0543 -0.2210 -0.5020
   19MOL0     C 2491   4.383   7.670   4.243  0.3533 -0.5051  0.4526
   19MOL0     C 2492   4.381   7.628   4.094 -0.3324  0.5009  0.1534
   19MOL0     C 2493   4.284   7.698   4.007  0.2001 -0.7040 -0.0761
   19MOL0     C 2494   4.192   7.745   3.950  0.4038  0.2331  1.2744
   19MOL0     C 2495   4.169   7.274   4.567  0.0759 -0.0939 -0.5807
   19MOL0     C 2496   4.044   7.222   4.587 -1.2672 -0.6187  0.4612
   19MOL0     C 2497   4.026   7.081   4.568  0.1563  0.2592 -0.1099
   19MOL0     H 2498   3.531   7.123   4.553  2.5705  2.1727  1.0118
   19MOL0     H 2499   3.324   7.046   4.666 -0.5282  1.5836  0.1352
   19MOL0     H 2500   3.138   7.082   4.875 -1.1318 -0.1096  5.9831
   19MOL0     H 2501   3.190   6.928   4.801 -1.1498  1.7798 -1.4762
   19MOL0     H 2502   3.098   6.813   4.965  1.3945 -0.2832  0.1012
   19MOL0     H 2503   3.000   6.961   4.991 -0.8099 -2.6247  0.4728
   19MOL0     H 2504   3.193   7.013   5.164 -0.9361  0.9588 -1.5889
   19MOL0     H 2505   3.215   6.837   5.143 -0.6645 -0.9510 -3.4087
   19MOL0     H 2506   2.962   6.971   5.254 -0.1539 -0.1270  0.0476
   19MOL0     H 2507   2.985   6.797   5.260 -1.8544  0.7387 -2.1228
   19MOL0     H 2508   3.184   6.841   5.404 -0.0357 -0.5745  2.0561
   19MOL0     H 2509   3.164   7.011   5.380 -0.3554 -0.1344 -1.6430
   19MOL0     H 2510   3.081   6.911   5.600 -0.2730 -2.1701 -0.6251
   19MOL0     H 2511   2.979   7.032   5.520  0.7940  1.0986 -0.2021
   19MOL0     H 2512   2.894   6.738   5.481 -2.3117 -0.1674 -1.5357
   19MOL0     H 2513   2.817   6.898   5.462 -0.1406 -0.1457  0.5942
   19MOL0     H 2514   2.950   6.774   5.715 -0.7868 -0.1732  0.1739
   19MOL0     H 2515   2.856   6.924   5.724 -3.1489  0.1184  0.2651
   19MOL0     H 2516   2.811   6.542   5.637 -0.8895 -0.9881  0.8328
   19MOL0     H 2517   2.633   6.386   5.622 -1.6013 -0.3998  0.3744
   19MOL0     H 2518   2.475   6.418   5.692 -0.8987  0.1467 -0.9737
   19MOL0     H 2519   2.370   6.511   5.511 -2.0551 -3.7767  0.4218
   19MOL0     H 2520   2.517   6.533   5.421  1.9965  1.3897  2.6729
   19MOL0     H 2521   2.539   6.274   5.413 -0.3114  0.0464  0.3197
   19MOL0     H 2522   2.413   6.343   5.320  0.4609  1.9168 -0.1076
   19MOL0     H 2523   2.245   6.305   5.473 -0.6086 -1.0140  0.2502
   19MOL0     H 2524   2.345   6.240   5.599 -1.7332 -0.6334  0.0893
   19MOL0     H 2525   2.333   5.925   5.258 -0.5466  2.9467  0.4973
   19MOL0     H 2526   2.537   5.773   5.233 -1.2901 -1.2759  1.5887
   19MOL0     H 2527   2.831   5.511   5.111  0.1557  0.2821  0.5756
   19MOL0     H 2528   2.990   5.320   5.120  1.0602 -0.7262  0.7950
   19MOL0     H 2529   3.239   5.270   5.349 -0.2467  1.1395  3.0958
   19MOL0     H 2530   3.186   5.170   5.482  0.5634 -0.7931 -1.0191
   19MOL0     H 2531   3.253   4.970   5.371  1.1397  0.2978  0.6512
   19MOL0     H 2532   3.241   5.051   5.207 -2.4636  0.8982  0.7111
   19MOL0     H 2533   3.464   5.044   5.234 -0.5585  1.1199  0.0645
   19MOL0     H 2534   3.447   5.197   5.322 -0.6715  0.8951 -0.9864
   19MOL0     H 2535   3.584   5.051   5.433 -0.6148  1.5288 -0.5005
   19MOL0     H 2536   3.457   4.909   5.434 -1.4748 -0.2878  1.3151
   19MOL0     H 2537   3.468   4.962   5.644  0.5116 -0.7618 -1.5281
   19MOL0     H 2538   3.322   5.039   5.582 -0.0180  0.7284 -4.1238
   19MOL0     H 2539   3.442   5.257   5.567 -0.9818 -0.5106  0.8458
   19MOL0     H 2540   3.428   5.203   5.735 -0.3402  0.9973 -0.5987
   19MOL0     H 2541   3.647   5.306   5.713 -2.8422  0.3281  0.7746
   19MOL0     H 2542   3.663   5.225   5.557 -0.9656 -1.0706 -0.7371
   19MOL0     H 2543   3.637   5.051   5.810 -1.6264 -0.4202 -1.4310
   19MOL0     H 2544   3.728   5.018   5.659  0.9508 -2.1136  2.1708
   19MOL0     H 2545   2.986   5.318   5.534 -3.5699 -2.0315  0.6763
   19MOL0     H 2546   2.830   5.504   5.554  1.4135 -1.2459  1.0377
   19MOL0     H 2547   2.700   5.961   5.582 -1.7680  1.5377  1.5209
   19MOL0     H 2548   2.532   6.105   5.591 -1.0700  0.5007  0.2055
   19MOL0     H 2549   3.527   7.072   5.047 -2.5920  1.7978  0.2323
   19MOL0     H 2550   3.736   7.116   4.923 -1.1010  2.7747  1.1234
   19MOL0     H 2551   3.921   7.531   4.691  0.5784 -0.3396  2.2586
   19MOL0     H 2552   4.141   7.595   4.642 -1.4318  0.5317  1.0602
   19MOL0     H 2553   4.419   7.616   4.545  0.8243 -5.5838  2.9310
   19MOL0     H 2554   4.254   7.620   4.486 -0.6595 -1.7415 -0.0141
   19MOL0     H 2555   4.298   7.480   4.297  0.3751  0.8364 -0.8570
   19MOL0     H 2556   4.474   7.489   4.318  1.3828  0.1420  0.1896
   19MOL0     H 2557   4.473   7.728   4.266  2.9133 -4.4333  1.2595
   19MOL0     H 2558   4.289   7.728   4.243 -0.3178 -1.4665 -2.0481
   19MOL0     H 2559   4.483   7.645   4.057  0.4452  0.4485  2.1726
   19MOL0     H 2560   4.354   7.523   4.078  1.1748  0.3183 -1.4724
   19MOL0     H 2561   4.100   7.779   3.907 -0.3550 -1.4793  1.4838
   19MOL0     H 2562   4.245   7.206   4.530 -1.3785 -2.0724 -0.0873
   19MOL0     H 2563   3.969   7.066   4.476 -0.9518  0.6244  0.5046
   19MOL0     H 2564   4.122   7.029   4.567 -0.0266 -0.1164  0.9648
   19MOL0     H 2565   3.977   7.030   4.651 -1.0988  0.7111 -0.5585
   20MOL0     O 2566  11.353   6.038   4.711 -0.2055  0.0081  0.1393
   20MOL0     C 2567  11.344   5.959   4.621 -0.3939  1.0354 -0.1977
   20MOL0     O 2568  11.239   5.882   4.595 -0.2807  0.7528 -0.1819
   20MOL0     C 2569  11.133   5.885   4.680 -0.4429 -0.4323 -0.3707
   20MOL0     C 2570  11.049   5.992   4.680 -0.0776 -0.6411  0.1002
   20MOL0     C 2571  10.925   5.999   4.737  0.3336 -0.4819 -0.1514
   20MOL0     C 2572  10.873   5.873   4.781  0.3924  0.2312 -0.6842
   20MOL0     O 2573  10.743   5.852   4.828  0.9893 -0.3485 -0.8167
   20MOL0     C 2574  10.671   5.969   4.882  1.0527  0.8256 -0.5151
   20MOL0     C 2575  10.674   5.953   5.039 -0.0074  0.4007  0.1619
   20MOL0     C 2576  10.685   6.092   5.109  0.5104 -0.6532 -1.1194
   20MOL0     C 2577  10.562   6.182   5.087  0.0998 -0.0169  0.1925
   20MOL0     C 2578  10.583   6.314   5.164  0.6257 -0.0427  0.5543
   20MOL0     C 2579  10.527   6.294   5.309  0.8729 -0.3863 -0.1798
   20MOL0     C 2580  10.598   6.411   5.400  0.9766  0.0118  0.8048
   20MOL0     C 2581  10.584   6.397   5.545  0.8064  0.1718  0.1054
   20MOL0     N 2582  10.446   6.389   5.594 -0.6000 -0.2999  0.0961
   20MOL0     C 2583  10.371   6.277   5.601  0.2631  0.5105  0.5610
   20MOL0     C 2584  10.290   6.304   5.702  0.6703 -1.0178 -0.9863
   20MOL0     C 2585  10.193   6.198   5.743  0.2258  0.1244 -0.0047
   20MOL0     C 2586  10.250   6.097   5.829 -0.8778  1.1303 -0.2284
   20MOL0     C 2587  10.343   6.142   5.960 -0.5705 -0.9388  0.6840
   20MOL0     C 2588  10.280   6.239   6.054 -0.0638  0.3384  0.3548
   20MOL0     O 2589  10.348   6.220   6.181  0.0767 -0.5443  0.4084
   20MOL0     C 2590  10.315   6.306   6.285 -0.2191 -0.2765  0.0532
   20MOL0     C 2591  10.370   6.272   6.405 -0.2487 -0.1857 -0.2626
   20MOL0     C 2592  10.342   6.339   6.520  0.1231  0.4118  0.2510
   20MOL0     C 2593  10.244   6.444   6.515  0.0353 -0.4112 -1.2486
   20MOL0     C 2594  10.221   6.524   6.640  0.7757  0.1297 -0.3787
   20MOL0     O 2595  10.279   6.468   6.744 -0.0487  0.1590 -0.4618
   20MOL0     C 2596  10.241   6.514   6.865 -0.3365 -0.6709 -0.6534
   20MOL0     C 2597  10.107   6.505   6.911 -0.3590 -0.0962  0.2556
   20MOL0     C 2598  10.070   6.565   7.037  0.1090 -1.6132  0.2993
   20MOL0     C 2599  10.168   6.644   7.097  0.1322 -0.1371  1.1817
   20MOL0     O 2600  10.137   6.695   7.224 -0.0938 -0.3848  0.2235
   20MOL0     C 2601  10.034   6.784   7.235 -0.5795 -0.0372 -0.1976
   20MOL0     C 2602  10.011   6.828   7.381 -0.2537 -0.4092 -0.5448
   20MOL0     C 2603   9.959   6.713   7.470  0.4371  0.4421  0.0940
   20MOL0     C 2604   9.920   6.771   7.602 -0.2338  0.3359  0.3419
   20MOL0     C 2605   9.866   6.671   7.708 -0.2010  0.3264 -1.0119
   20MOL0     C 2606   9.854   6.751   7.833  0.0508 -0.1096  0.5159
   20MOL0     C 2607   9.802   6.664   7.942 -1.1425  0.4205  0.1974
   20MOL0     C 2608   9.890   6.533   7.973  0.9182 -0.1774 -0.2121
   20MOL0    Cl 2609   9.906   6.512   8.145  0.1474  0.6753 -0.6484
   20MOL0     C 2610  10.292   6.667   7.046  0.3369 -0.2557 -0.1439
   20MOL0     C 2611  10.329   6.598   6.935 -0.3229 -0.8013  0.0306
   20MOL0     O 2612  10.155   6.625   6.648  0.6036 -0.6507  0.2448
   20MOL0     C 2613  10.185   6.481   6.392  0.1248 -0.7075 -0.1945
   20MOL0     C 2614  10.231   6.415   6.280 -0.3368 -0.6355 -0.3060
   20MOL0     N 2615  10.298   6.433   5.746 -0.3132 -0.1612  0.0844
   20MOL0     N 2616  10.403   6.477   5.686 -0.1243 -0.0031  0.1317
   20MOL0     C 2617  10.950   5.766   4.786 -0.1880 -0.4401 -0.0750
   20MOL0     C 2618  11.084   5.773   4.738  0.4601  0.2910  0.9205
   20MOL0     C 2619  11.457   5.937   4.532  0.2506  0.4907 -0.5857
   20MOL0     C 2620  11.454   5.829   4.435  0.2325 -0.9448 -0.1673
   20MOL0     C 2621  11.554   5.803   4.346 -0.7254  0.5064 -0.5971
   20MOL0     C 2622  11.679   5.875   4.358  0.8400 -1.0789  0.5720
   20MOL0     O 2623  11.781   5.844   4.278 -0.2167 -0.5376  0.4460
   20MOL0     C 2624  11.869   5.953   4.233 -0.1627  0.3065  0.7012
   20MOL0     C 2625  12.005   5.926   4.285 -0.4968 -0.2985 -0.6276
   20MOL0     C 2626  12.073   5.804   4.224 -0.5507  0.5339 -0.2576
   20MOL0     C 2627  12.220   5.807   4.249 -0.5734 -0.8650  0.5713
   20MOL0     C 2628  12.273   5.702   4.162  0.8099 -0.6128 -0.2563
   20MOL0     C 2629  12.313   5.621   4.081  0.4281 -0.1714  0.4168
   20MOL0     C 2630  11.685   5.977   4.457 -0.2518  0.3635  0.2237
   20MOL0     C 2631  11.576   6.016   4.531  0.5346  0.0212  0.3133
   20MOL0     C 2632  11.589   6.142   4.608 -0.2874 -0.8661 -0.1841
   20MOL0     H 2633  11.075   6.079   4.621 -0.0207 -1.0638 -0.5048
   20MOL0     H 2634  10.863   6.088   4.738  0.8007 -0.1313  1.8787
   20MOL0     H 2635  10.723   6.064   4.862  3.8664 -0.3121  0.8013
   20MOL0     H 2636  10.564   5.973   4.862  0.7649  3.2732  1.0446
   20MOL0     H 2637  10.767   5.907   5.076  0.7658  0.9209 -1.0663
   20MOL0     H 2638  10.585   5.899   5.071 -0.0728 -0.6680 -1.6684
   20MOL0     H 2639  10.776   6.134   5.065 -0.6220  1.9131 -1.2158
   20MOL0     H 2640  10.710   6.093   5.215  0.5346  0.2386 -1.1253
   20MOL0     H 2641  10.544   6.212   4.984  0.7295 -0.9212 -0.1956
   20MOL0     H 2642  10.476   6.123   5.120  0.4883  0.3989  2.1072
   20MOL0     H 2643  10.690   6.333   5.153  0.6038  0.1332  0.6436
   20MOL0     H 2644  10.529   6.400   5.123  1.5410 -0.5972 -1.9594
   20MOL0     H 2645  10.421   6.309   5.330  1.2117  1.1924  0.5376
   20MOL0     H 2646  10.552   6.189   5.332  2.5402 -0.3172 -1.4534
   20MOL0     H 2647  10.556   6.506   5.367 -2.2649 -1.7616 -0.6560
   20MOL0     H 2648  10.705   6.409   5.374  0.6643  3.5702 -1.4662
   20MOL0     H 2649  10.639   6.312   5.587 -1.9304 -1.8930 -0.2211
   20MOL0     H 2650  10.629   6.488   5.585  0.0152  0.3447  0.6194
   20MOL0     H 2651  10.381   6.179   5.556 -0.1397  1.4913 -1.8622
   20MOL0     H 2652  10.110   6.234   5.805  3.1908 -1.4906  5.6388
   20MOL0     H 2653  10.146   6.149   5.657 -0.3292  0.0546  0.3273
   20MOL0     H 2654  10.172   6.035   5.874  0.3137 -0.0270  0.3226
   20MOL0     H 2655  10.311   6.029   5.769  0.4505  2.0361  0.0557
   20MOL0     H 2656  10.427   6.197   5.917 -2.6972  3.2387  1.3537
   20MOL0     H 2657  10.384   6.053   6.009  3.4880  0.4086  0.0673
   20MOL0     H 2658  10.175   6.213   6.063  0.8941 -3.4901  2.9135
   20MOL0     H 2659  10.283   6.343   6.021 -0.4645 -0.0241 -0.8505
   20MOL0     H 2660  10.438   6.188   6.408  0.7874  0.6027 -0.7287
   20MOL0     H 2661  10.397   6.302   6.605  2.8340 -0.9547 -1.9464
   20MOL0     H 2662  10.039   6.429   6.873 -1.4844  1.0692 -0.1837
   20MOL0     H 2663   9.970   6.545   7.074 -0.8524  1.7717 -0.1517
   20MOL0     H 2664  10.051   6.874   7.175 -1.4530 -0.3432 -0.9168
   20MOL0     H 2665   9.939   6.743   7.199 -1.5018  0.3983  1.6136
   20MOL0     H 2666  10.105   6.869   7.420 -0.7391 -1.4505  1.8663
   20MOL0     H 2667   9.944   6.914   7.379 -2.2891 -1.4907  4.5720
   20MOL0     H 2668   9.873   6.666   7.422  0.5282 -0.2149  0.5650
   20MOL0     H 2669  10.029   6.631   7.486 -0.1707  0.0341  0.7215
   20MOL0     H 2670   9.854   6.853   7.571 -0.8815  0.0772  1.0090
   20MOL0     H 2671  10.007   6.819   7.648  0.2297 -0.6795  0.5458
   20MOL0     H 2672   9.946   6.602   7.736 -1.2190  0.6070  3.1987
   20MOL0     H 2673   9.770   6.625   7.682 -0.6729 -1.6596  3.3312
   20MOL0     H 2674   9.945   6.805   7.860  0.5331 -0.6826  0.0698
   20MOL0     H 2675   9.780   6.831   7.822  1.0239  0.6367 -0.9682
   20MOL0     H 2676   9.699   6.632   7.925 -0.3761 -1.7281 -0.8111
   20MOL0     H 2677   9.813   6.732   8.026  1.3383 -0.2404  0.5045
   20MOL0     H 2678   9.835   6.444   7.940  1.8978 -0.3223 -1.5333
   20MOL0     H 2679   9.976   6.544   7.908 -1.1244  2.8221 -2.6612
   20MOL0     H 2680  10.364   6.731   7.096  0.9355 -0.5142 -0.6620
   20MOL0     H 2681  10.430   6.604   6.897 -1.1613 -1.5673 -2.5066
   20MOL0     H 2682  10.103   6.551   6.403 -0.6466 -1.6440  0.1845
   20MOL0     H 2683  10.183   6.431   6.184  1.0194 -2.0725 -1.2635
   20MOL0     H 2684  10.922   5.667   4.822  0.4425 -1.9877 -3.4018
   20MOL0     H 2685  11.135   5.677   4.744  1.3436  0.5479 -1.4350
   20MOL0     H 2686  11.365   5.767   4.429 -1.3229  1.2878 -2.1078
   20MOL0     H 2687  11.553   5.716   4.280 -0.0630  0.0067  0.0409
   20MOL0     H 2688  11.837   6.052   4.266  1.6326  0.5516  1.8093
   20MOL0     H 2689  11.862   5.956   4.124  4.2976  2.8783  0.2754
   20MOL0     H 2690  11.989   5.904   4.391 -0.2855 -3.3026 -1.1134
   20MOL0     H 2691  12.073   6.010   4.271 -0.1443 -0.5138 -0.2672
   20MOL0     H 2692  12.052   5.808   4.117  0.4165  0.1961 -0.4695
   20MOL0     H 2693  12.027   5.711   4.259  1.4176 -0.2051  0.4924
   20MOL0     H 2694  12.253   5.905   4.212  1.3712 -1.1276  1.5097
   20MOL0     H 2695  12.246   5.797   4.355 -1.8777  1.3299  1.1847
   20MOL0     H 2696  12.345   5.545   4.013 -0.6711 -1.9258  1.7645
   20MOL0     H 2697  11.777   6.034   4.461  0.4855 -0.7329 -0.2878
   20MOL0     H 2698  11.670   6.202   4.564  0.2874 -1.1806  0.4220
   20MOL0     H 2699  11.497   6.200   4.614  1.4068  2.0628 -0.5144
   20MOL0     H 2700  11.624   6.118   4.709 -1.8052 -0.0456  0.5631
   21MOL0     O 2701   5.810   4.044   0.790  0.8325 -0.3675 -0.9376
   21MOL0     C 2702   5.748   4.116   0.872 -0.3967 -0.6934  0.0317
   21MOL0     O 2703   5.623   4.098   0.933 -0.1664  0.0666 -0.0559
   21MOL0     C 2704   5.530   4.027   0.852  0.1689 -0.3982  0.3529
   21MOL0     C 2705   5.527   4.045   0.710  0.1479 -1.3062 -1.1412
   21MOL0     C 2706   5.430   3.979   0.631 -0.6115 -0.4219  0.5261
   21MOL0     C 2707   5.321   3.913   0.689  0.5614  0.0605 -0.2605
   21MOL0     O 2708   5.213   3.864   0.629  0.9971 -0.0714 -0.0680
   21MOL0     C 2709   5.172   3.907   0.494  0.1028 -0.5341  0.0993
   21MOL0     C 2710   5.033   3.859   0.461 -0.0543 -0.7353  0.2231
   21MOL0     C 2711   5.026   3.716   0.473  0.0289  0.2682 -0.2368
   21MOL0     C 2712   5.108   3.651   0.365  0.4217  0.6602  0.6136
   21MOL0     C 2713   5.064   3.501   0.365 -0.6860 -0.6056  0.4125
   21MOL0     C 2714   5.125   3.441   0.238 -0.3551 -0.1296 -0.0496
   21MOL0     C 2715   5.053   3.461   0.101 -0.2295 -0.2718 -0.8789
   21MOL0     C 2716   4.898   3.442   0.090 -0.5222 -0.8958  0.0773
   21MOL0     N 2717   4.842   3.316   0.137 -0.1704  0.0588 -0.8584
   21MOL0     C 2718   4.868   3.190   0.072 -0.2518 -0.0959 -0.5937
   21MOL0     C 2719   4.801   3.103   0.150 -0.0948 -0.1286  0.2533
   21MOL0     C 2720   4.779   2.956   0.122 -0.1919  0.9773  0.2268
   21MOL0     C 2721   4.675   2.890   0.215 -0.1014 -0.1317  0.7155
   21MOL0     C 2722   4.665   2.740   0.197 -0.1358 -0.7192  0.2821
   21MOL0     C 2723   4.539   2.684   0.264  0.3572  0.3767 -0.6347
   21MOL0     O 2724   4.503   2.545   0.231 -0.1331 -0.1165  0.3069
   21MOL0     C 2725   4.407   2.490   0.308 -0.0196  0.8145  0.9102
   21MOL0     C 2726   4.291   2.543   0.350 -0.3634 -0.4397 -0.4568
   21MOL0     C 2727   4.207   2.482   0.445  0.7314 -0.2640  0.3717
   21MOL0     C 2728   4.234   2.359   0.495  1.2245 -0.3733 -0.8024
   21MOL0     C 2729   4.149   2.294   0.597 -0.9134  0.1288 -0.3376
   21MOL0     O 2730   4.195   2.180   0.650  0.0980 -0.2024  0.0777
   21MOL0     C 2731   4.110   2.119   0.742 -0.7188 -0.5922 -0.8411
   21MOL0     C 2732   3.980   2.062   0.709 -0.4098 -0.6665  0.4841
   21MOL0     C 2733   3.905   2.002   0.807 -0.0512 -0.5924 -0.4468
   21MOL0     C 2734   3.955   2.001   0.943 -0.2880  1.1871  0.5758
   21MOL0     O 2735   3.870   1.933   1.024 -0.1961 -0.1271 -0.1317
   21MOL0     C 2736   3.884   1.948   1.170  0.3484 -0.3427  0.8528
   21MOL0     C 2737   3.784   1.854   1.242  0.4422 -0.0678  0.2006
   21MOL0     C 2738   3.649   1.918   1.268  0.3319  0.7023 -1.1469
   21MOL0     C 2739   3.546   1.801   1.295 -0.3956 -0.1377  0.4310
   21MOL0     C 2740   3.583   1.716   1.419 -0.0106 -0.2015  0.4912
   21MOL0     C 2741   3.623   1.793   1.546 -0.8227 -0.2301 -0.4086
   21MOL0     C 2742   3.647   1.696   1.660  0.2483  0.0402  0.5942
   21MOL0     C 2743   3.726   1.764   1.765  1.2882  0.6242  0.3329
   21MOL0    Cl 2744   3.683   1.936   1.793  0.3282 -0.1176 -0.0220
   21MOL0     C 2745   4.083   2.038   0.973 -0.5381 -0.3630  0.0008
   21MOL0     C 2746   4.159   2.105   0.873 -0.3588 -0.6543  0.3547
   21MOL0     O 2747   4.035   2.339   0.620 -0.4817  0.1716 -0.3358
   21MOL0     C 2748   4.356   2.304   0.456  0.1615  0.8199  0.8918
   21MOL0     C 2749   4.445   2.364   0.359 -0.1305  0.4670  0.6449
   21MOL0     N 2750   4.751   3.173   0.256  0.4302  0.1759 -0.4508
   21MOL0     N 2751   4.767   3.296   0.247  0.1523 -0.7631  0.1858
   21MOL0     C 2752   5.318   3.899   0.828 -0.5994  0.0507 -0.0034
   21MOL0     C 2753   5.418   3.963   0.902  0.3648  0.1976 -0.4325
   21MOL0     C 2754   5.837   4.225   0.918 -0.8979  0.3596 -0.7308
   21MOL0     C 2755   5.973   4.209   0.894  0.5270 -0.1060 -0.4361
   21MOL0     C 2756   6.065   4.302   0.940 -0.2613  0.0267 -0.7475
   21MOL0     C 2757   6.028   4.415   1.010 -1.2536 -0.8177 -0.4942
   21MOL0     O 2758   6.105   4.512   1.055  0.5499 -0.3384 -0.4201
   21MOL0     C 2759   6.245   4.502   1.034  0.0817  0.6101  0.6792
   21MOL0     C 2760   6.310   4.635   1.075 -0.2954  1.1312 -0.8298
   21MOL0     C 2761   6.294   4.744   0.968  0.6020 -0.1665  0.1969
   21MOL0     C 2762   6.343   4.883   1.021 -0.3144  0.8411 -0.6802
   21MOL0     C 2763   6.487   4.879   1.028  0.1160 -0.2867 -0.1362
   21MOL0     C 2764   6.606   4.878   1.025 -0.5373  0.1182 -0.9614
   21MOL0     C 2765   5.894   4.417   1.041 -0.2081 -0.2688  0.5195
   21MOL0     C 2766   5.794   4.329   1.001 -0.7760  0.0783 -0.6367
   21MOL0     C 2767   5.651   4.354   1.027  0.4684 -0.0115 -0.5229
   21MOL0     H 2768   5.588   4.115   0.653 -0.5790  6.4811  5.6829
   21MOL0     H 2769   5.433   3.998   0.524 -0.2304  3.2809  1.0740
   21MOL0     H 2770   5.172   4.017   0.489 -2.6893 -0.5015 -1.3707
   21MOL0     H 2771   5.240   3.879   0.413 -0.8548 -1.4463 -0.4063
   21MOL0     H 2772   4.997   3.888   0.361  0.7372 -0.5274 -0.0096
   21MOL0     H 2773   4.960   3.909   0.525 -0.7777  1.2838 -2.0023
   21MOL0     H 2774   4.920   3.693   0.458 -0.4530  1.5199  1.0539
   21MOL0     H 2775   5.057   3.678   0.571  1.4201  1.4133 -0.1995
   21MOL0     H 2776   5.085   3.701   0.271  1.9112  1.8166  0.8209
   21MOL0     H 2777   5.217   3.644   0.370  0.2526 -2.4078  2.2188
   21MOL0     H 2778   5.117   3.459   0.450  1.9857 -1.1831 -1.3913
   21MOL0     H 2779   4.956   3.489   0.374 -0.4029 -1.3902  5.5885
   21MOL0     H 2780   5.232   3.455   0.222 -0.4169 -1.5660 -1.9849
   21MOL0     H 2781   5.120   3.333   0.250 -0.1145 -0.2758 -1.2024
   21MOL0     H 2782   5.088   3.388   0.026 -2.3412 -1.8796 -0.3854
   21MOL0     H 2783   5.082   3.558   0.059 -2.9250  1.9822  1.9712
   21MOL0     H 2784   4.847   3.524   0.141 -0.1538 -1.1774  0.9045
   21MOL0     H 2785   4.868   3.449  -0.016 -0.3167  3.2092  0.1243
   21MOL0     H 2786   4.922   3.168  -0.019  0.5820  1.8580 -0.6162
   21MOL0     H 2787   4.741   2.936   0.022  2.0488 -0.2060 -0.4683
   21MOL0     H 2788   4.871   2.898   0.132 -0.9755  0.0769  3.5061
   21MOL0     H 2789   4.698   2.916   0.319  0.8358  0.5330  0.3507
   21MOL0     H 2790   4.583   2.940   0.184  2.1249  3.0785 -1.2441
   21MOL0     H 2791   4.761   2.694   0.223  0.2526  0.1364  0.3940
   21MOL0     H 2792   4.645   2.729   0.090 -0.5653  0.9294  0.1596
   21MOL0     H 2793   4.452   2.749   0.248 -2.3570 -2.7775  0.0984
   21MOL0     H 2794   4.554   2.676   0.372 -1.5537 -1.9145 -0.4375
   21MOL0     H 2795   4.268   2.639   0.304 -0.3123 -1.6159 -3.0897
   21MOL0     H 2796   4.114   2.533   0.468  0.6232 -0.1462 -0.3078
   21MOL0     H 2797   3.953   2.053   0.605  2.9797 -2.6911 -0.3982
   21MOL0     H 2798   3.808   1.959   0.785  0.6296 -1.2498 -2.3756
   21MOL0     H 2799   3.987   1.924   1.198  0.9178  0.0723 -0.7714
   21MOL0     H 2800   3.865   2.048   1.211  1.5690  1.3899 -2.4390
   21MOL0     H 2801   3.769   1.755   1.198  0.4274  0.5188 -1.1768
   21MOL0     H 2802   3.830   1.829   1.338  0.2423  0.8340  0.5410
   21MOL0     H 2803   3.657   1.980   1.357  1.1150 -1.6200  0.4859
   21MOL0     H 2804   3.603   1.977   1.189 -3.4216 -0.5112 -0.1034
   21MOL0     H 2805   3.530   1.728   1.215 -0.5011 -1.6852  1.8131
   21MOL0     H 2806   3.455   1.853   1.325 -0.6908 -1.3314  1.7091
   21MOL0     H 2807   3.662   1.649   1.384  1.1025  1.9173 -1.2698
   21MOL0     H 2808   3.491   1.659   1.430 -0.3216 -0.0937 -1.2502
   21MOL0     H 2809   3.717   1.845   1.525 -0.2106 -1.4571 -0.8038
   21MOL0     H 2810   3.557   1.879   1.558 -1.6625 -0.6688 -1.6505
   21MOL0     H 2811   3.699   1.604   1.633  0.6869  0.2371  0.7614
   21MOL0     H 2812   3.546   1.667   1.690 -1.2543  1.1347 -2.8927
   21MOL0     H 2813   3.711   1.705   1.856 -0.5567 -2.6827 -1.8917
   21MOL0     H 2814   3.830   1.752   1.732  0.6884 -0.7999 -1.1743
   21MOL0     H 2815   4.127   2.024   1.071  1.1921 -1.3855 -0.8801
   21MOL0     H 2816   4.257   2.151   0.881 -1.3783  2.0264 -1.3154
   21MOL0     H 2817   4.389   2.208   0.495 -1.6762  1.3263  4.0010
   21MOL0     H 2818   4.523   2.300   0.317 -2.4175 -2.9314  1.2164
   21MOL0     H 2819   5.242   3.839   0.879  1.6080 -0.7695  2.5853
   21MOL0     H 2820   5.422   3.956   1.010 -3.8918  1.7441  0.0200
   21MOL0     H 2821   6.015   4.112   0.868  0.3064 -1.7568  4.3889
   21MOL0     H 2822   6.172   4.285   0.930 -0.2394  0.6319 -1.6465
   21MOL0     H 2823   6.266   4.483   0.928  1.5449  1.2710  0.8219
   21MOL0     H 2824   6.275   4.415   1.092 -1.6412 -0.5398 -0.0702
   21MOL0     H 2825   6.417   4.612   1.080 -0.8624 -1.5647  2.5582
   21MOL0     H 2826   6.271   4.648   1.176 -0.4971  4.2201 -1.2192
   21MOL0     H 2827   6.187   4.746   0.946  0.6512  0.0177 -0.0312
   21MOL0     H 2828   6.350   4.712   0.879 -1.4472 -1.7958 -0.5701
   21MOL0     H 2829   6.312   4.957   0.947  0.7538  1.3903 -0.5939
   21MOL0     H 2830   6.312   4.902   1.124  2.6149 -2.5723  1.0564
   21MOL0     H 2831   6.712   4.869   1.035 -0.5522  0.8602  0.0111
   21MOL0     H 2832   5.861   4.506   1.094  0.6066 -0.9082  2.1824
   21MOL0     H 2833   5.637   4.457   1.060  2.4478  0.0061  0.3980
   21MOL0     H 2834   5.586   4.340   0.940  1.3969  1.4236 -1.4771
   21MOL0     H 2835   5.629   4.289   1.113 -0.2514  2.4012  1.2034
   22MOL0     O 2836   4.836   8.135   4.191  0.3053 -0.0707 -0.1510
   22MOL0     C 2837   4.937   8.143   4.130 -0.0645  0.2503 -0.0395
   22MOL0     O 2838   4.951   8.128   3.989 -0.1621 -0.3825 -0.4476
   22MOL0     C 2839   4.891   8.023   3.926  0.2889 -1.0187  0.6994
   22MOL0     C 2840   4.871   8.020   3.786  0.5649 -0.1243 -0.5238
   22MOL0     C 2841   4.810   7.920   3.714 -0.4999  0.6879  0.1771
   22MOL0     C 2842   4.769   7.804   3.784 -0.8033 -0.3258 -0.2133
   22MOL0     O 2843   4.708   7.692   3.727  0.1673  0.3947  0.5795
   22MOL0     C 2844   4.599   7.712   3.637 -0.1204 -1.0412  0.1678
   22MOL0     C 2845   4.483   7.620   3.679  0.0028 -0.0776 -0.6669
   22MOL0     C 2846   4.534   7.481   3.680 -0.2854 -0.3859 -0.6582
   22MOL0     C 2847   4.425   7.404   3.748  0.6315  0.0590 -0.0029
   22MOL0     C 2848   4.432   7.253   3.749 -1.0265 -1.0383  0.5116
   22MOL0     C 2849   4.363   7.179   3.630  0.3172  0.1687 -1.0578
   22MOL0     C 2850   4.367   7.030   3.656  1.6636  0.0434  1.0738
   22MOL0     C 2851   4.304   6.944   3.540  0.6755 -0.4389  0.2865
   22MOL0     N 2852   4.337   6.798   3.540  0.1142  0.8655 -0.3062
   22MOL0     C 2853   4.417   6.724   3.461 -0.1614 -0.6049 -0.6035
   22MOL0     C 2854   4.422   6.604   3.522 -0.0136  0.0736  0.1012
   22MOL0     C 2855   4.500   6.489   3.469 -0.2555  0.6105 -0.3786
   22MOL0     C 2856   4.427   6.417   3.365  0.2483 -0.2396 -0.1514
   22MOL0     C 2857   4.507   6.300   3.332 -0.0428 -0.0478 -0.4486
   22MOL0     C 2858   4.459   6.211   3.208  0.0734  0.3308  0.3869
   22MOL0     O 2859   4.328   6.158   3.208 -0.8981  0.0519  0.2964
   22MOL0     C 2860   4.316   6.064   3.310  0.6364 -1.0621 -0.1321
   22MOL0     C 2861   4.404   5.955   3.328 -0.4392  0.3672 -0.1339
   22MOL0     C 2862   4.374   5.854   3.425 -0.1327  0.0530  0.8288
   22MOL0     C 2863   4.267   5.870   3.510  1.2162 -0.0995  1.1785
   22MOL0     C 2864   4.222   5.763   3.605 -0.4579 -0.2017  0.0892
   22MOL0     O 2865   4.127   5.792   3.700  0.6766 -0.2214  0.5693
   22MOL0     C 2866   4.081   5.685   3.772  0.0437  0.4522  0.5428
   22MOL0     C 2867   3.995   5.593   3.707 -0.1600 -0.8793 -0.0154
   22MOL0     C 2868   3.919   5.501   3.778  0.0908  0.1532  0.5730
   22MOL0     C 2869   3.937   5.496   3.919 -0.2695 -0.3914  0.4961
   22MOL0     O 2870   3.885   5.394   3.994  0.0897 -0.0368 -0.3681
   22MOL0     C 2871   3.756   5.334   3.968  0.1584 -0.0215  0.0043
   22MOL0     C 2872   3.720   5.239   4.085 -0.4208  0.2826  0.4884
   22MOL0     C 2873   3.575   5.210   4.075 -0.0345 -0.2923  0.0751
   22MOL0     C 2874   3.499   5.294   4.178 -0.6588 -0.6022  0.5197
   22MOL0     C 2875   3.350   5.301   4.153  0.0484  0.5061  0.7599
   22MOL0     C 2876   3.271   5.167   4.163 -0.0840 -0.2194  0.1440
   22MOL0     C 2877   3.126   5.173   4.115 -0.2048  0.2256  0.2258
   22MOL0     C 2878   3.073   5.033   4.121  0.4305 -0.8372  0.3110
   22MOL0    Cl 2879   2.909   5.018   4.075 -0.0093 -0.1142  0.2263
   22MOL0     C 2880   4.022   5.588   3.982  0.6236 -0.2356 -0.8580
   22MOL0     C 2881   4.086   5.684   3.906  0.4534  0.0260 -0.8930
   22MOL0     O 2882   4.277   5.647   3.587  0.3849 -0.4611 -0.1313
   22MOL0     C 2883   4.191   5.988   3.499 -1.1004 -0.3811 -0.0170
   22MOL0     C 2884   4.212   6.083   3.400 -0.4415  0.3370 -0.2321
   22MOL0     N 2885   4.346   6.594   3.632 -0.2288  1.0495  0.5103
   22MOL0     N 2886   4.300   6.717   3.644 -0.2380  0.8164 -0.0413
   22MOL0     C 2887   4.799   7.795   3.918 -0.6917 -0.2335  0.1805
   22MOL0     C 2888   4.847   7.906   3.985 -0.1602 -0.1219  0.1953
   22MOL0     C 2889   5.061   8.155   4.209 -0.1601 -0.0449 -0.8321
   22MOL0     C 2890   5.177   8.178   4.145 -0.6347  0.1866  0.6483
   22MOL0     C 2891   5.301   8.191   4.203 -0.2589 -0.7028 -0.7416
   22MOL0     C 2892   5.309   8.171   4.341 -0.0568 -0.4637  0.4818
   22MOL0     O 2893   5.428   8.174   4.414 -0.0908 -0.2139  0.1070
   22MOL0     C 2894   5.549   8.191   4.345  0.0854 -0.4327 -1.1048
   22MOL0     C 2895   5.611   8.052   4.321  0.1178 -0.5706 -0.2453
   22MOL0     C 2896   5.731   8.064   4.224  1.0156  0.7464 -0.5211
   22MOL0     C 2897   5.789   7.920   4.219  0.6735 -0.8000  0.2791
   22MOL0     C 2898   5.705   7.826   4.148 -0.0489 -1.1965 -0.4765
   22MOL0     C 2899   5.636   7.747   4.081 -0.5539  0.4941 -0.8126
   22MOL0     C 2900   5.197   8.143   4.413 -0.7154 -0.1497  0.6625
   22MOL0     C 2901   5.075   8.132   4.344  0.0981 -0.6383 -0.2752
   22MOL0     C 2902   4.960   8.096   4.426 -0.3293 -0.0871 -0.6686
   22MOL0     H 2903   4.907   8.109   3.735  4.7366 -0.1857  1.9179
   22MOL0     H 2904   4.800   7.925   3.606  0.7076  2.9308  0.1082
   22MOL0     H 2905   4.557   7.812   3.629  1.9793 -0.2583 -2.4697
   22MOL0     H 2906   4.627   7.688   3.534 -3.9462  1.0292 -1.5547
   22MOL0     H 2907   4.415   7.630   3.594  3.9851 -0.3136 -4.2338
   22MOL0     H 2908   4.437   7.646   3.774  1.2567  1.1987 -0.3840
   22MOL0     H 2909   4.628   7.462   3.733  0.1434  0.7522 -0.9801
   22MOL0     H 2910   4.537   7.453   3.575 -4.7547  0.4075 -1.2043
   22MOL0     H 2911   4.416   7.436   3.853 -1.0348 -1.6571  0.4235
   22MOL0     H 2912   4.333   7.434   3.698 -0.2662 -2.0734  0.2786
   22MOL0     H 2913   4.536   7.220   3.760 -0.8366 -0.3514  0.8564
   22MOL0     H 2914   4.381   7.218   3.839  0.0582 -1.2228  1.0801
   22MOL0     H 2915   4.258   7.210   3.640  0.0058 -0.9062 -0.8550
   22MOL0     H 2916   4.406   7.212   3.535 -0.3757 -0.0805 -1.4674
   22MOL0     H 2917   4.318   7.006   3.751  0.4348  2.1443  1.0107
   22MOL0     H 2918   4.475   7.011   3.663  1.3336 -2.0660  1.0388
   22MOL0     H 2919   4.196   6.962   3.537  0.4854 -1.6181 -0.6455
   22MOL0     H 2920   4.336   6.994   3.448 -1.1630  0.0194 -0.1438
   22MOL0     H 2921   4.455   6.767   3.369 -0.2785  0.8714  0.0005
   22MOL0     H 2922   4.598   6.523   3.437  0.2404  0.0208  0.4693
   22MOL0     H 2923   4.526   6.428   3.556  0.4261  2.7971  1.0261
   22MOL0     H 2924   4.328   6.379   3.392  0.2340 -0.0495  0.0672
   22MOL0     H 2925   4.409   6.475   3.274 -0.6282  0.9056  0.7213
   22MOL0     H 2926   4.496   6.234   3.419 -0.4935  0.3471 -0.1981
   22MOL0     H 2927   4.608   6.331   3.306  1.2686 -2.2841  1.6103
   22MOL0     H 2928   4.534   6.137   3.175  2.6043  1.7944  2.4361
   22MOL0     H 2929   4.458   6.276   3.121 -0.0641 -0.0216  0.1229
   22MOL0     H 2930   4.484   5.942   3.255  0.9855  2.6980  0.8920
   22MOL0     H 2931   4.441   5.769   3.422  2.5304  1.9719  2.0627
   22MOL0     H 2932   3.978   5.587   3.600  0.4557 -0.5353 -0.1408
   22MOL0     H 2933   3.862   5.428   3.721  1.4283 -0.5212  0.0648
   22MOL0     H 2934   3.687   5.418   3.951 -2.4235 -2.5633 -3.5023
   22MOL0     H 2935   3.772   5.274   3.878  2.8985 -2.0543  1.6904
   22MOL0     H 2936   3.780   5.151   4.064  0.4439  0.2795  2.6885
   22MOL0     H 2937   3.742   5.283   4.183 -2.2096  5.8342 -1.2160
   22MOL0     H 2938   3.530   5.223   3.976  1.4236 -2.5949 -0.9592
   22MOL0     H 2939   3.548   5.106   4.095  1.6059 -0.8582 -0.5117
   22MOL0     H 2940   3.527   5.400   4.171  2.5405 -1.3168  1.0047
   22MOL0     H 2941   3.528   5.264   4.279 -0.8487 -0.0102  0.7520
   22MOL0     H 2942   3.322   5.338   4.054 -3.1408 -0.0319  1.3318
   22MOL0     H 2943   3.311   5.380   4.219  2.0914  3.3800 -1.1981
   22MOL0     H 2944   3.314   5.085   4.105  1.8828 -1.1235  2.6992
   22MOL0     H 2945   3.282   5.128   4.265  0.5539  0.6237  0.4145
   22MOL0     H 2946   3.122   5.218   4.015  1.6777 -1.5468 -0.7465
   22MOL0     H 2947   3.080   5.238   4.189  4.7558  1.8389  2.3620
   22MOL0     H 2948   3.131   4.972   4.050 -0.7038 -0.1618 -1.2473
   22MOL0     H 2949   3.073   4.991   4.222  3.5121  4.5603  2.9799
   22MOL0     H 2950   4.039   5.588   4.089 -0.5945 -2.7549 -0.6074
   22MOL0     H 2951   4.138   5.748   3.977 -1.5377 -0.8881  1.5447
   22MOL0     H 2952   4.104   6.003   3.561 -5.0398  1.4024 -5.2847
   22MOL0     H 2953   4.155   6.173   3.380  1.0181  1.4002  0.2127
   22MOL0     H 2954   4.763   7.705   3.967 -1.5953 -1.4234 -2.4409
   22MOL0     H 2955   4.837   7.900   4.093  0.9186  0.8920  0.3736
   22MOL0     H 2956   5.168   8.177   4.037 -0.2745 -2.9114  0.5458
   22MOL0     H 2957   5.385   8.195   4.135  0.5757  0.4134  0.3143
   22MOL0     H 2958   5.617   8.256   4.401  1.0706  2.3445 -5.0498
   22MOL0     H 2959   5.535   8.257   4.259  1.1738  3.1296  1.2272
   22MOL0     H 2960   5.539   7.992   4.265  1.4424 -0.5258 -2.0631
   22MOL0     H 2961   5.622   7.992   4.412  0.4653  0.5470  0.4745
   22MOL0     H 2962   5.801   8.139   4.264  1.3683  0.7847 -1.1938
   22MOL0     H 2963   5.710   8.103   4.124  0.5636 -1.1144 -1.1859
   22MOL0     H 2964   5.887   7.919   4.170  0.9327  0.4126  0.7275
   22MOL0     H 2965   5.811   7.887   4.321  1.7794  0.5593  0.5257
   22MOL0     H 2966   5.578   7.674   4.027  0.0134 -0.9011  0.4082
   22MOL0     H 2967   5.203   8.131   4.521 -3.6077  3.0723  1.3387
   22MOL0     H 2968   4.907   8.007   4.392  0.0316 -1.1433  1.3486
   22MOL0     H 2969   4.999   8.070   4.525  0.3317  0.9335 -0.6436
   22MOL0     H 2970   4.900   8.185   4.447 -1.6089 -0.4487 -2.5144
   23MOL0     O 2971   5.157   9.959   9.635 -0.6011  0.2247  0.3462
   23MOL0     C 2972   5.194   9.882   9.721 -0.2927 -0.2104  0.1505
   23MOL0     O 2973   5.243   9.915   9.836 -0.2045  0.6542 -0.7206
   23MOL0     C 2974   5.227  10.043   9.883  0.5714 -0.3216 -0.4123
   23MOL0     C 2975   5.117  10.073   9.970  0.0313 -0.4545  0.0774
   23MOL0     C 2976   5.122  10.183  10.039 -0.6842 -0.8093  0.0560
   23MOL0     C 2977   5.215  10.298  10.004  0.1125  0.5591 -0.1051
   23MOL0     O 2978   5.221  10.417  10.077  0.0127  0.4308  0.2821
   23MOL0     C 2979   5.110  10.460  10.156  0.2538  1.2668 -0.9548
   23MOL0     C 2980   5.149  10.599  10.193  0.1464 -0.1091  0.2846
   23MOL0     C 2981   5.237  10.596  10.319 -0.0362 -0.6940 -0.1272
   23MOL0     C 2982   5.158  10.578  10.453  0.1619  0.1338  0.0094
   23MOL0     C 2983   5.220  10.636  10.580  0.4754  0.3697 -0.1553
   23MOL0     C 2984   5.251  10.790  10.576 -0.2741  0.1490 -0.2409
   23MOL0     C 2985   5.271  10.860  10.707  0.1313  0.0825 -0.3269
   23MOL0     C 2986   5.300  11.011  10.701  0.0684 -0.3926  0.9634
   23MOL0     N 2987   5.330  11.087  10.825  0.2547 -0.3510 -0.8034
   23MOL0     C 2988   5.326  11.221  10.831  0.1413 -0.1293  0.2142
   23MOL0     C 2989   5.363  11.248  10.958 -0.1137  0.9741 -0.7810
   23MOL0     C 2990   5.369  11.389  11.020 -0.3971 -0.4439  0.0101
   23MOL0     C 2991   5.487  11.462  10.949  0.5834 -0.0214 -0.2825
   23MOL0     C 2992   5.486  11.609  10.984  1.2429  0.1569  0.1371
   23MOL0     C 2993   5.425  11.692  10.870 -0.1135 -0.7174  0.1753
   23MOL0     O 2994   5.516  11.682  10.763  0.0824  0.0922 -0.1521
   23MOL0     C 2995   5.636  11.750  10.768  0.3169 -0.3810 -1.3472
   23MOL0     C 2996   5.748  11.682  10.820 -1.0061  1.2081  0.9920
   23MOL0     C 2997   5.871  11.746  10.810  0.2488 -0.1179 -0.1554
   23MOL0     C 2998   5.884  11.880  10.765 -0.3281  0.1098 -1.6964
   23MOL0     C 2999   6.018  11.923  10.738  0.2983 -0.2612  0.6252
   23MOL0     O 3000   6.036  12.048  10.669 -0.1426 -0.1207 -0.2007
   23MOL0     C 3001   6.165  12.069  10.626  0.7788 -0.1463 -0.4504
   23MOL0     C 3002   6.271  12.104  10.713 -0.1549 -0.1941 -0.1248
   23MOL0     C 3003   6.407  12.095  10.678  0.7369 -0.3904  0.2825
   23MOL0     C 3004   6.438  12.075  10.541  0.4478 -0.4713 -0.0848
   23MOL0     O 3005   6.557  12.070  10.474 -0.9284  0.4110 -0.0046
   23MOL0     C 3006   6.679  12.061  10.563 -0.8843  0.0309 -0.0444
   23MOL0     C 3007   6.809  12.064  10.484  1.0845 -0.0277 -0.1575
   23MOL0     C 3008   6.884  12.201  10.477  0.2354 -0.7019 -0.7196
   23MOL0     C 3009   7.021  12.192  10.405 -0.3007  0.0445  0.9725
   23MOL0     C 3010   7.117  12.079  10.441 -0.1483 -0.4669  0.5129
   23MOL0     C 3011   7.252  12.111  10.377  0.2090 -0.0898 -0.0213
   23MOL0     C 3012   7.245  12.085  10.223 -0.1449 -0.2639 -0.3203
   23MOL0     C 3013   7.373  12.126  10.147 -0.9525 -0.5853  0.3349
   23MOL0    Cl 3014   7.484  11.989  10.158  0.3603 -0.0773  0.1828
   23MOL0     C 3015   6.327  12.042  10.460  0.0227  0.6882  0.2702
   23MOL0     C 3016   6.195  12.036  10.498  0.2522 -0.7556  1.6564
   23MOL0     O 3017   6.113  11.852  10.762 -0.0956  0.5656  0.0762
   23MOL0     C 3018   5.773  11.947  10.722  0.1135  0.7156 -0.2692
   23MOL0     C 3019   5.648  11.883  10.710 -0.1665  0.2482  0.0726
   23MOL0     N 3020   5.388  11.125  11.025  0.3719  0.7331  0.2112
   23MOL0     N 3021   5.363  11.024  10.942  0.8478 -0.3432  0.3225
   23MOL0     C 3022   5.310  10.271   9.902  0.3641 -0.4870 -0.1121
   23MOL0     C 3023   5.319  10.141   9.848 -0.6737  0.0859  0.1657
   23MOL0     C 3024   5.194   9.740   9.691  0.0774  0.2548 -0.4171
   23MOL0     C 3025   5.273   9.646   9.766  0.4221 -0.0747 -1.3121
   23MOL0     C 3026   5.276   9.508   9.748  0.5833 -0.5082  0.6282
   23MOL0     C 3027   5.207   9.457   9.643  1.0802 -0.0955  1.1207
   23MOL0     O 3028   5.230   9.322   9.621  0.2506 -0.2191 -0.4942
   23MOL0     C 3029   5.142   9.235   9.689 -1.0990 -0.4752  0.5476
   23MOL0     C 3030   5.016   9.202   9.616  0.2320 -0.9389 -0.1254
   23MOL0     C 3031   5.033   9.094   9.507  0.2938 -0.0615 -0.0548
   23MOL0     C 3032   5.147   9.126   9.406  0.7499 -0.9587  0.3593
   23MOL0     C 3033   5.182   9.015   9.313  0.2744  0.2205 -0.5103
   23MOL0     C 3034   5.208   8.930   9.236  0.8453  0.2774 -0.1262
   23MOL0     C 3035   5.125   9.530   9.561  0.9795 -0.6723 -0.0295
   23MOL0     C 3036   5.107   9.673   9.590 -1.3097 -0.1574  0.3046
   23MOL0     C 3037   5.015   9.756   9.503 -0.0663 -0.3971  1.0189
   23MOL0     H 3038   5.034  10.008   9.998  0.9773 -1.4098  0.7583
   23MOL0     H 3039   5.042  10.192  10.111  1.5565  4.4652  2.4913
   23MOL0     H 3040   5.015  10.443  10.104 -0.5992 -0.3236  1.0083
   23MOL0     H 3041   5.098  10.394  10.242  1.2698  0.8021 -1.1568
   23MOL0     H 3042   5.057  10.655  10.215  1.5712  1.9889  1.2469
   23MOL0     H 3043   5.178  10.650  10.101 -2.1014 -3.2770 -2.4443
   23MOL0     H 3044   5.293  10.690  10.326 -1.3009  0.0614  0.2230
   23MOL0     H 3045   5.307  10.512  10.321 -0.8962 -1.4629 -1.2722
   23MOL0     H 3046   5.063  10.632  10.447  1.0578  1.8588  0.6290
   23MOL0     H 3047   5.132  10.472  10.454  0.3920  0.0646 -0.9617
   23MOL0     H 3048   5.147  10.627  10.660  3.0276 -0.5388  2.2302
   23MOL0     H 3049   5.308  10.573  10.602 -0.7474 -1.3886 -0.0569
   23MOL0     H 3050   5.339  10.798  10.511 -0.4921  0.2475 -0.5304
   23MOL0     H 3051   5.169  10.841  10.525 -0.8550 -0.7164 -0.1821
   23MOL0     H 3052   5.356  10.805  10.748  1.9900  0.7075 -3.0169
   23MOL0     H 3053   5.181  10.842  10.766 -0.3656 -1.5207 -1.5058
   23MOL0     H 3054   5.393  11.015  10.644 -1.2094  0.7323 -1.1460
   23MOL0     H 3055   5.221  11.058  10.643  1.5079 -0.5384 -1.2043
   23MOL0     H 3056   5.293  11.290  10.755 -2.5242 -1.0630  0.4223
   23MOL0     H 3057   5.280  11.450  11.000  2.0010  2.0252 -5.2073
   23MOL0     H 3058   5.394  11.386  11.126  1.8076 -1.9111 -0.4735
   23MOL0     H 3059   5.580  11.419  10.988  0.2421 -3.4392 -2.8151
   23MOL0     H 3060   5.485  11.451  10.840 -1.6531 -0.2539 -0.2668
   23MOL0     H 3061   5.583  11.650  11.016  0.4945  1.2230  1.1222
   23MOL0     H 3062   5.428  11.615  11.076 -1.0683 -0.4473 -1.1931
   23MOL0     H 3063   5.400  11.796  10.894  0.5677 -0.6449  0.6081
   23MOL0     H 3064   5.332  11.639  10.847  0.1023  0.4999 -4.3523
   23MOL0     H 3065   5.744  11.583  10.865  2.3652 -0.4663 -1.9283
   23MOL0     H 3066   5.961  11.693  10.838  1.2075 -0.6045 -3.7189
   23MOL0     H 3067   6.230  12.123  10.812  2.0905 -1.6294  1.1510
   23MOL0     H 3068   6.493  12.122  10.739  3.8531 -1.6466 -3.1742
   23MOL0     H 3069   6.678  12.149  10.628 -0.1021 -0.3035  0.4321
   23MOL0     H 3070   6.675  11.982  10.638 -0.4575  1.0829  1.1335
   23MOL0     H 3071   6.870  11.986  10.530  0.7871  1.6928  3.5327
   23MOL0     H 3072   6.774  12.034  10.385 -2.5205 -0.5854  1.1410
   23MOL0     H 3073   6.816  12.278  10.437 -1.5437  0.3776  3.7154
   23MOL0     H 3074   6.892  12.251  10.574 -0.5874  1.5129 -1.7190
   23MOL0     H 3075   7.058  12.295  10.411 -2.1340  0.7035  1.6971
   23MOL0     H 3076   6.983  12.169  10.305 -0.3096 -1.4780  1.2974
   23MOL0     H 3077   7.077  11.983  10.405 -1.8313  0.9824 -1.7929
   23MOL0     H 3078   7.133  12.079  10.549 -1.1032 -1.2341  0.6701
   23MOL0     H 3079   7.290  12.212  10.399  2.3777 -0.9227  0.3571
   23MOL0     H 3080   7.327  12.039  10.412  1.3258  0.5346 -1.0687
   23MOL0     H 3081   7.152  12.135  10.193  0.0814  0.0418 -0.5325
   23MOL0     H 3082   7.224  11.980  10.202  0.6655 -0.7779  1.3466
   23MOL0     H 3083   7.354  12.143  10.041 -0.5618 -3.3214 -0.2457
   23MOL0     H 3084   7.408  12.216  10.198 -0.9407  0.2281 -1.0732
   23MOL0     H 3085   6.343  12.026  10.353  0.7234 -0.5781  0.5484
   23MOL0     H 3086   6.121  12.004  10.425  1.6370  0.4479 -0.3892
   23MOL0     H 3087   5.777  12.049  10.686  1.8424  0.7145 -0.1531
   23MOL0     H 3088   5.564  11.934  10.664 -0.7631  0.3783  1.2448
   23MOL0     H 3089   5.394  10.334   9.876 -0.8322  1.8341  1.2820
   23MOL0     H 3090   5.403  10.108   9.789  1.4410  4.1754  0.5472
   23MOL0     H 3091   5.342   9.676   9.845  1.3017 -3.2110 -0.7525
   23MOL0     H 3092   5.348   9.440   9.792  0.7175 -0.9567 -0.2501
   23MOL0     H 3093   5.116   9.291   9.780  2.2482 -1.6299  2.3719
   23MOL0     H 3094   5.191   9.140   9.712 -1.7545 -1.1358 -0.6813
   23MOL0     H 3095   4.975   9.288   9.562 -1.8783 -2.8281 -1.7071
   23MOL0     H 3096   4.939   9.178   9.690 -2.1142 -2.3442 -2.8366
   23MOL0     H 3097   4.948   9.079   9.440  2.7916  1.6001 -3.9591
   23MOL0     H 3098   5.050   9.003   9.565 -0.3199  0.9550  1.8232
   23MOL0     H 3099   5.119   9.209   9.341 -0.8857 -1.5992  0.1902
   23MOL0     H 3100   5.243   9.149   9.452  0.8880  1.8153 -1.1178
   23MOL0     H 3101   5.211   8.847   9.169 -2.8946  0.1533 -0.3514
   23MOL0     H 3102   5.083   9.477   9.477  2.8765 -1.9693 -0.2357
   23MOL0     H 3103   4.920   9.711   9.475 -1.0612  2.7484 -1.1833
   23MOL0     H 3104   4.983   9.845   9.557 -0.5668 -0.7144  1.2605
   23MOL0     H 3105   5.069   9.770   9.409 -3.0754 -1.8185 -1.1035
   24MOL0     O 3106   6.970   7.306   0.944 -0.0522 -0.2156 -0.2029
   24MOL0     C 3107   6.936   7.194   0.908 -0.2499 -0.6314 -0.1430
   24MOL0     O 3108   6.960   7.131   0.790 -0.0239 -0.2797 -0.9152
   24MOL0     C 3109   7.028   7.209   0.697 -0.8260 -0.2278 -1.1795
   24MOL0     C 3110   6.980   7.324   0.641 -0.7357 -0.1237  0.4491
   24MOL0     C 3111   7.056   7.404   0.559  0.8232 -0.0433  0.0488
   24MOL0     C 3112   7.175   7.352   0.511 -0.6964 -0.9711  0.3708
   24MOL0     O 3113   7.265   7.426   0.440  0.4347  0.1478 -0.0187
   24MOL0     C 3114   7.281   7.382   0.304  0.9392  0.0116 -0.2977
   24MOL0     C 3115   7.299   7.499   0.202 -0.4895  0.2760  0.2374
   24MOL0     C 3116   7.286   7.436   0.054  0.5397 -0.3919  1.1018
   24MOL0     C 3117   7.426   7.407   0.009  0.1818  1.1534  0.4642
   24MOL0     C 3118   7.413   7.324  -0.126  0.4974 -0.4251 -0.9313
   24MOL0     C 3119   7.560   7.280  -0.171 -0.3702  0.2275 -0.6886
   24MOL0     C 3120   7.534   7.213  -0.311  0.4504  0.4025 -0.3253
   24MOL0     C 3121   7.660   7.188  -0.390  0.0557  0.1789  0.3258
   24MOL0     N 3122   7.688   7.309  -0.470 -0.5935 -0.1195  0.1865
   24MOL0     C 3123   7.606   7.355  -0.571 -0.3275 -0.2975  0.6694
   24MOL0     C 3124   7.690   7.436  -0.642  0.7240  0.9093  0.0369
   24MOL0     C 3125   7.683   7.510  -0.771 -0.1917  0.9537 -0.0835
   24MOL0     C 3126   7.685   7.423  -0.890  0.5297  1.5343  0.2390
   24MOL0     C 3127   7.547   7.397  -0.943 -0.7909 -1.6416  0.2779
   24MOL0     C 3128   7.549   7.384  -1.094 -0.2089 -1.1554 -0.6853
   24MOL0     O 3129   7.631   7.271  -1.127  1.1106  0.4425 -0.1247
   24MOL0     C 3130   7.634   7.235  -1.258  0.0596  0.6598  1.0095
   24MOL0     C 3131   7.601   7.104  -1.293  0.4630  0.2019 -0.1806
   24MOL0     C 3132   7.620   7.050  -1.417  0.6246 -0.0601 -0.3552
   24MOL0     C 3133   7.673   7.134  -1.512  0.1037  0.3263  0.8178
   24MOL0     C 3134   7.694   7.081  -1.648  0.1253 -1.3421  0.5666
   24MOL0     O 3135   7.760   7.159  -1.739  0.6521 -0.0197  0.0486
   24MOL0     C 3136   7.741   7.149  -1.868  1.0820 -0.0918  0.2314
   24MOL0     C 3137   7.613   7.188  -1.916  0.1115  0.2264 -0.1383
   24MOL0     C 3138   7.606   7.192  -2.053  0.4872  0.2214  0.5733
   24MOL0     C 3139   7.704   7.157  -2.141 -0.8831  0.2182 -0.0000
   24MOL0     O 3140   7.666   7.143  -2.273 -0.1586 -0.0857  1.1798
   24MOL0     C 3141   7.765   7.101  -2.367 -0.5021  0.4748  0.2970
   24MOL0     C 3142   7.728   7.115  -2.514  0.2587 -0.3088  0.0623
   24MOL0     C 3143   7.711   7.258  -2.562  0.0083 -0.0145  0.4338
   24MOL0     C 3144   7.846   7.330  -2.557 -0.0981  1.0190 -0.0349
   24MOL0     C 3145   7.826   7.475  -2.600 -0.0153 -0.1230 -0.4343
   24MOL0     C 3146   7.964   7.544  -2.617 -0.1601  0.2992  0.1197
   24MOL0     C 3147   7.957   7.697  -2.646 -0.1088  0.1211  0.7438
   24MOL0     C 3148   8.097   7.753  -2.671  0.2178  0.4664  0.3388
   24MOL0    Cl 3149   8.189   7.776  -2.523  0.1506  0.1298  0.2245
   24MOL0     C 3150   7.834   7.133  -2.086 -0.7866  0.5862 -0.0533
   24MOL0     C 3151   7.848   7.127  -1.952 -0.8245 -0.2840  0.2208
   24MOL0     O 3152   7.638   6.977  -1.672 -0.2877  0.1648 -0.0304
   24MOL0     C 3153   7.705   7.271  -1.480  0.6018 -0.3312  0.6084
   24MOL0     C 3154   7.680   7.327  -1.356 -0.6522  0.9613 -0.5225
   24MOL0     N 3155   7.820   7.428  -0.584 -0.7752  0.4087  0.2941
   24MOL0     N 3156   7.821   7.354  -0.480  1.3435 -0.4559 -0.3254
   24MOL0     C 3157   7.227   7.229   0.557 -0.6120  0.2175 -1.2056
   24MOL0     C 3158   7.163   7.163   0.656  1.2949 -0.3504 -0.3404
   24MOL0     C 3159   6.843   7.121   1.002  0.1177  0.0219  0.5730
   24MOL0     C 3160   6.753   7.201   1.077 -0.2275  0.5760  0.1407
   24MOL0     C 3161   6.656   7.142   1.159 -0.1712 -0.2172  0.1703
   24MOL0     C 3162   6.640   7.009   1.170  0.0124  0.1566 -0.4174
   24MOL0     O 3163   6.545   6.966   1.264  0.2948 -0.2440 -0.6346
   24MOL0     C 3164   6.584   6.965   1.404  0.2243 -0.0860 -0.1872
   24MOL0     C 3165   6.695   6.868   1.425 -0.6502  0.3179  0.1816
   24MOL0     C 3166   6.650   6.721   1.399 -0.0976 -0.2823 -0.2941
   24MOL0     C 3167   6.768   6.622   1.422 -0.9475  0.4987 -0.4307
   24MOL0     C 3168   6.878   6.630   1.331  0.1080 -0.2954 -0.5657
   24MOL0     C 3169   6.980   6.652   1.268  0.4713 -0.3946 -0.0190
   24MOL0     C 3170   6.725   6.930   1.093  0.4103  0.1477  0.4875
   24MOL0     C 3171   6.831   6.979   1.007 -0.9564  0.2417  0.2300
   24MOL0     C 3172   6.902   6.880   0.921  0.0903  0.3626 -0.5282
   24MOL0     H 3173   6.885   7.368   0.670 -1.5159 -1.1873 -0.4590
   24MOL0     H 3174   7.030   7.507   0.539  0.5727 -0.3053 -1.0191
   24MOL0     H 3175   7.353   7.300   0.300 -0.4051 -1.4214  2.3529
   24MOL0     H 3176   7.187   7.331   0.279  0.9137 -0.8758  1.4534
   24MOL0     H 3177   7.400   7.537   0.220  0.1429 -1.2279  0.0341
   24MOL0     H 3178   7.221   7.571   0.226  0.5230  1.1978  0.8873
   24MOL0     H 3179   7.239   7.504  -0.018  3.2602  0.8673  0.3707
   24MOL0     H 3180   7.232   7.341   0.048  0.9785 -0.5892 -2.9505
   24MOL0     H 3181   7.485   7.497  -0.008 -2.3164  2.5795 -1.3275
   24MOL0     H 3182   7.483   7.357   0.088  0.5926 -1.1853 -1.2154
   24MOL0     H 3183   7.354   7.233  -0.115 -0.4747  0.5120  3.4384
   24MOL0     H 3184   7.366   7.384  -0.205 -2.3042 -2.2235 -0.7601
   24MOL0     H 3185   7.624   7.367  -0.186 -0.2393  0.0779 -1.0109
   24MOL0     H 3186   7.611   7.219  -0.096  1.6522  2.4938 -0.1103
   24MOL0     H 3187   7.466   7.281  -0.362  0.1095 -1.8272 -3.1066
   24MOL0     H 3188   7.484   7.115  -0.312  2.1426 -0.4939 -0.8378
   24MOL0     H 3189   7.740   7.160  -0.320 -1.2138 -2.7316  0.7766
   24MOL0     H 3190   7.656   7.099  -0.454 -3.3958 -2.6207  3.9186
   24MOL0     H 3191   7.499   7.354  -0.590 -0.2876  2.6473 -0.2934
   24MOL0     H 3192   7.594   7.573  -0.758  0.9453  2.4696  0.6211
   24MOL0     H 3193   7.760   7.587  -0.784 -0.1584  0.7540 -1.1818
   24MOL0     H 3194   7.747   7.478  -0.962  0.8244  0.5259 -0.2900
   24MOL0     H 3195   7.737   7.328  -0.874 -0.9281  0.2140 -2.2638
   24MOL0     H 3196   7.481   7.481  -0.925 -1.8910 -2.1340 -1.2612
   24MOL0     H 3197   7.506   7.310  -0.890  1.7993 -2.2374  1.5090
   24MOL0     H 3198   7.600   7.474  -1.129 -0.3712  0.0356  1.9235
   24MOL0     H 3199   7.447   7.376  -1.132 -1.0941 -1.2922  1.5425
   24MOL0     H 3200   7.558   7.043  -1.214  1.6855  0.5182  0.7557
   24MOL0     H 3201   7.608   6.944  -1.435 -1.1335 -0.1098  0.8374
   24MOL0     H 3202   7.528   7.215  -1.855  0.0017  1.5763 -0.8665
   24MOL0     H 3203   7.519   7.227  -2.108  0.9263  0.8690  0.2806
   24MOL0     H 3204   7.868   7.136  -2.351 -0.4969 -0.4361  2.8002
   24MOL0     H 3205   7.761   6.993  -2.348 -1.6764  0.5200  0.3880
   24MOL0     H 3206   7.801   7.055  -2.569 -0.2691 -2.0785  1.2109
   24MOL0     H 3207   7.634   7.066  -2.541  0.3061 -0.0638 -0.5642
   24MOL0     H 3208   7.674   7.258  -2.665  2.8423 -0.6758 -0.6729
   24MOL0     H 3209   7.645   7.317  -2.497 -0.2801  2.4801 -1.8974
   24MOL0     H 3210   7.911   7.277  -2.626 -2.9491  0.3317 -2.4204
   24MOL0     H 3211   7.887   7.331  -2.456 -3.6944  1.9088  1.5739
   24MOL0     H 3212   7.769   7.532  -2.526  0.1655  0.8275 -1.0145
   24MOL0     H 3213   7.771   7.477  -2.695  0.4800  1.4939 -0.7203
   24MOL0     H 3214   8.015   7.539  -2.520 -2.3751  1.0336  1.4010
   24MOL0     H 3215   8.016   7.487  -2.694 -3.6460 -0.5435 -1.8403
   24MOL0     H 3216   7.911   7.758  -2.568 -1.7298  0.8056 -0.6863
   24MOL0     H 3217   7.897   7.706  -2.737  0.1912  3.5141  0.7458
   24MOL0     H 3218   8.166   7.692  -2.730  2.4587  2.0012  1.2150
   24MOL0     H 3219   8.086   7.844  -2.731  1.2882  1.3337  1.3868
   24MOL0     H 3220   7.909   7.108  -2.160 -0.7626 -2.3463  0.8100
   24MOL0     H 3221   7.938   7.093  -1.903 -0.2960  2.6554  1.5020
   24MOL0     H 3222   7.744   7.334  -1.560  0.4097 -2.2047 -1.0316
   24MOL0     H 3223   7.708   7.430  -1.335  2.1666 -0.1221  1.8109
   24MOL0     H 3224   7.326   7.194   0.529 -0.7783 -0.4549 -0.9812
   24MOL0     H 3225   7.206   7.076   0.703 -1.4123 -2.1173 -0.9263
   24MOL0     H 3226   6.759   7.309   1.072 -1.3342  0.7733  2.1263
   24MOL0     H 3227   6.588   7.204   1.215 -0.9090  0.0024 -0.9420
   24MOL0     H 3228   6.491   6.949   1.459 -1.1365  0.1127 -2.3031
   24MOL0     H 3229   6.612   7.067   1.432 -2.7144  0.3227  1.7421
   24MOL0     H 3230   6.725   6.881   1.530  1.8073 -0.1025 -0.4158
   24MOL0     H 3231   6.784   6.901   1.371  0.0027  0.9240  1.5773
   24MOL0     H 3232   6.623   6.731   1.293  2.6460  2.0024 -0.9259
   24MOL0     H 3233   6.564   6.693   1.459 -0.4234 -1.2294 -1.1739
   24MOL0     H 3234   6.796   6.633   1.527 -1.2899  1.5787 -0.4446
   24MOL0     H 3235   6.718   6.529   1.392  1.2388  0.0787 -3.0844
   24MOL0     H 3236   7.070   6.692   1.226  0.5894  0.7072  1.2264
   24MOL0     H 3237   6.697   6.825   1.093  1.0589 -0.0279  1.2036
   24MOL0     H 3238   7.006   6.888   0.953  0.2346 -1.9254 -0.2980
   24MOL0     H 3239   6.857   6.782   0.937 -2.2989  1.1965 -1.6540
   24MOL0     H 3240   6.903   6.899   0.813  2.2296  0.8932 -0.4627
   25MOL0     O 3241  10.129   0.245   4.939 -0.1238  0.3755  0.1900
   25MOL0     C 3242  10.174   0.146   4.880  0.5055 -0.3100  0.4368
   25MOL0     O 3243  10.098   0.076   4.774  0.0259  0.1511 -0.1382
   25MOL0     C 3244   9.963   0.114   4.748 -0.7959  0.7119  0.4888
   25MOL0     C 3245   9.858   0.029   4.788 -0.3578  0.1644 -0.2635
   25MOL0     C 3246   9.727   0.042   4.740  0.2077 -0.6423  0.3011
   25MOL0     C 3247   9.711   0.145   4.641  0.5819 -0.1317  0.6014
   25MOL0     O 3248   9.579   0.187   4.597 -0.8885  0.1206 -0.1336
   25MOL0     C 3249   9.478   0.096   4.552 -0.1917 -0.0608 -0.4936
   25MOL0     C 3250   9.352   0.178   4.533  0.1920  0.2218 -0.1586
   25MOL0     C 3251   9.358   0.310   4.448 -0.1432 -0.1853  0.7574
   25MOL0     C 3252   9.212   0.368   4.443  0.1248 -0.3478  0.0528
   25MOL0     C 3253   9.201   0.511   4.377  0.1579 -0.9174 -0.0580
   25MOL0     C 3254   9.067   0.587   4.365  0.5968 -0.5164  0.1710
   25MOL0     C 3255   8.945   0.499   4.313 -0.1263  0.9447 -0.8423
   25MOL0     C 3256   8.810   0.568   4.276  0.7212 -0.1516  0.1215
   25MOL0     N 3257   8.726   0.451   4.236  0.1320 -0.5191 -1.8327
   25MOL0     C 3258   8.632   0.402   4.325 -0.7448 -0.1721 -1.2935
   25MOL0     C 3259   8.580   0.295   4.263  0.9119  0.3084  0.5160
   25MOL0     C 3260   8.501   0.181   4.330  0.5430  0.2508  0.1853
   25MOL0     C 3261   8.431   0.077   4.245 -0.1611 -0.5291  0.4537
   25MOL0     C 3262   8.306   0.024   4.322 -1.2372  0.6459  0.5032
   25MOL0     C 3263   8.325  -0.063   4.452  0.5623 -0.3837 -1.2266
   25MOL0     O 3264   8.208  -0.135   4.488  0.1011  0.2091  0.3540
   25MOL0     C 3265   8.144  -0.105   4.604  0.0614 -0.2053 -0.9149
   25MOL0     C 3266   8.124  -0.211   4.694  0.0267 -0.2381  0.0680
   25MOL0     C 3267   8.088  -0.189   4.823  1.0276  0.3318  0.0668
   25MOL0     C 3268   8.062  -0.063   4.874  0.0529 -0.5744  0.0892
   25MOL0     C 3269   8.035  -0.042   5.016 -0.0728  0.5033 -0.6837
   25MOL0     O 3270   7.977   0.086   5.043  0.4821  0.5395  0.1188
   25MOL0     C 3271   7.895   0.094   5.157  1.5850  0.2237  0.6281
   25MOL0     C 3272   7.803  -0.003   5.198 -0.4907  1.1699 -0.7140
   25MOL0     C 3273   7.724   0.023   5.314 -0.7662 -0.2820 -0.3443
   25MOL0     C 3274   7.735   0.150   5.375 -0.3656 -0.1263 -0.4429
   25MOL0     O 3275   7.664   0.198   5.481  0.2309 -1.1292 -0.2568
   25MOL0     C 3276   7.556   0.131   5.542 -0.0269  0.0513  0.4676
   25MOL0     C 3277   7.517   0.206   5.673 -0.2015 -0.6496 -1.2084
   25MOL0     C 3278   7.632   0.203   5.782  0.5352  0.1547  0.5526
   25MOL0     C 3279   7.580   0.257   5.913 -0.7601 -0.3045 -1.0122
   25MOL0     C 3280   7.700   0.273   6.011  0.2923 -0.0494 -0.1078
   25MOL0     C 3281   7.660   0.362   6.128  0.5204  0.6863 -0.5507
   25MOL0     C 3282   7.556   0.295   6.222 -0.1982 -0.0712 -0.4156
   25MOL0     C 3283   7.618   0.268   6.359  0.0088 -0.0315  0.5383
   25MOL0    Cl 3284   7.755   0.165   6.338  0.4476 -0.1742  0.2244
   25MOL0     C 3285   7.828   0.239   5.332 -0.0378  0.1882  0.5933
   25MOL0     C 3286   7.911   0.208   5.224  1.1474  0.7240  0.3285
   25MOL0     O 3287   8.045  -0.137   5.091 -0.9872  0.7986  0.5749
   25MOL0     C 3288   8.088   0.046   4.785  0.2389  0.0228  0.1849
   25MOL0     C 3289   8.126   0.023   4.652  0.8927  0.8264  0.4142
   25MOL0     N 3290   8.625   0.298   4.132 -0.3748  0.3096  0.1579
   25MOL0     N 3291   8.711   0.397   4.112  0.7063 -0.0315 -0.0978
   25MOL0     C 3292   9.813   0.237   4.610  0.9355  0.0235  0.7380
   25MOL0     C 3293   9.940   0.225   4.655 -0.5689  0.5138  0.5260
   25MOL0     C 3294  10.302   0.086   4.923 -0.0750 -0.3010 -0.3199
   25MOL0     C 3295  10.384   0.166   5.008 -0.3274 -0.1219  0.3367
   25MOL0     C 3296  10.507   0.115   5.061 -0.5521 -0.0285 -0.6463
   25MOL0     C 3297  10.552  -0.018   5.027  0.8407 -0.7408 -0.0344
   25MOL0     O 3298  10.681  -0.055   5.066  0.7068 -0.1031  0.0991
   25MOL0     C 3299  10.753  -0.160   4.988  1.0437 -0.5124  0.0745
   25MOL0     C 3300  10.727  -0.293   5.050 -0.7725 -0.7177 -1.0630
   25MOL0     C 3301  10.818  -0.399   4.989 -0.8097  0.1012  0.3983
   25MOL0     C 3302  10.813  -0.534   5.056 -0.2099 -0.0305 -0.5726
   25MOL0     C 3303  10.851  -0.515   5.202  0.5380  0.1885 -0.1603
   25MOL0     C 3304  10.887  -0.502   5.320 -0.5243 -0.9477  0.6631
   25MOL0     C 3305  10.466  -0.101   4.950 -0.2737 -0.1474 -0.6558
   25MOL0     C 3306  10.349  -0.045   4.893  0.7356 -0.0482 -0.0230
   25MOL0     C 3307  10.265  -0.130   4.795 -0.3382 -0.5299 -0.3144
   25MOL0     H 3308   9.871  -0.046   4.865 -4.2288 -0.7270 -0.2478
   25MOL0     H 3309   9.644  -0.019   4.773 -1.8830  2.3224  0.9007
   25MOL0     H 3310   9.526   0.072   4.457 -2.2867  1.8520 -2.1708
   25MOL0     H 3311   9.460   0.021   4.630 -0.1913 -0.1920 -0.6206
   25MOL0     H 3312   9.314   0.198   4.633  0.1050  1.3983 -0.4200
   25MOL0     H 3313   9.284   0.105   4.486  1.5030 -0.2686 -1.3937
   25MOL0     H 3314   9.395   0.283   4.349 -2.5701  0.9736 -0.5632
   25MOL0     H 3315   9.424   0.384   4.495 -2.0952  2.3473 -0.2072
   25MOL0     H 3316   9.141   0.308   4.384 -1.8475  1.5886  0.3183
   25MOL0     H 3317   9.176   0.379   4.545  1.6926  2.2012  0.4341
   25MOL0     H 3318   9.268   0.582   4.428  0.1179  1.1698 -2.6559
   25MOL0     H 3319   9.228   0.508   4.271 -2.1025  3.2024 -0.9522
   25MOL0     H 3320   9.035   0.623   4.464  0.8297  0.7332 -0.1948
   25MOL0     H 3321   9.075   0.678   4.305  0.5909 -1.1786 -0.8434
   25MOL0     H 3322   8.934   0.420   4.387 -2.5928  0.4458 -1.6415
   25MOL0     H 3323   8.971   0.446   4.221  3.4963 -0.8388  1.0319
   25MOL0     H 3324   8.762   0.617   4.361 -1.2814 -0.9635 -0.4968
   25MOL0     H 3325   8.823   0.643   4.197 -1.9889 -1.0354 -1.2898
   25MOL0     H 3326   8.615   0.416   4.431  2.0826 -2.0507 -0.4670
   25MOL0     H 3327   8.561   0.129   4.405 -0.9066 -1.7412  0.0288
   25MOL0     H 3328   8.423   0.223   4.394  0.9725 -2.1902  2.4786
   25MOL0     H 3329   8.393   0.124   4.154  1.7209 -1.9832 -1.1727
   25MOL0     H 3330   8.503  -0.002   4.221  2.3523  1.2686  1.5854
   25MOL0     H 3331   8.250  -0.046   4.259 -0.9646 -0.5209  1.5324
   25MOL0     H 3332   8.241   0.110   4.342  2.9325  4.1048  0.6593
   25MOL0     H 3333   8.360  -0.001   4.534  0.7615 -1.5616 -0.3923
   25MOL0     H 3334   8.399  -0.142   4.438  0.4529 -0.3598 -2.0192
   25MOL0     H 3335   8.181  -0.301   4.674  0.1021  0.1692 -1.7374
   25MOL0     H 3336   8.089  -0.282   4.878 -0.7342 -0.1402 -0.6181
   25MOL0     H 3337   7.797  -0.101   5.152  1.0852 -0.0382  1.4745
   25MOL0     H 3338   7.658  -0.052   5.355 -0.5730 -0.8323 -1.0201
   25MOL0     H 3339   7.462   0.138   5.487  0.1189 -4.4304 -0.7531
   25MOL0     H 3340   7.578   0.025   5.559 -0.9869 -0.4279 -1.0719
   25MOL0     H 3341   7.485   0.309   5.657 -1.6952 -0.4456  2.2564
   25MOL0     H 3342   7.432   0.167   5.729 -0.6210  0.9180 -0.7118
   25MOL0     H 3343   7.671   0.100   5.788 -1.0564 -0.6249 -1.4956
   25MOL0     H 3344   7.710   0.271   5.746 -0.4768  1.4530  0.7518
   25MOL0     H 3345   7.499   0.198   5.957  0.7353 -0.4911  1.6879
   25MOL0     H 3346   7.532   0.353   5.894 -1.0053 -0.6867 -2.4856
   25MOL0     H 3347   7.788   0.323   5.969  1.6644 -1.6497  0.7319
   25MOL0     H 3348   7.738   0.174   6.037 -1.7519 -0.8325  0.0767
   25MOL0     H 3349   7.757   0.375   6.178  0.5306 -0.8333 -0.1509
   25MOL0     H 3350   7.618   0.456   6.090 -1.9903 -1.0468 -2.3146
   25MOL0     H 3351   7.499   0.214   6.176 -0.7180 -1.4069  2.3864
   25MOL0     H 3352   7.482   0.372   6.246  0.4280  0.5408 -0.4066
   25MOL0     H 3353   7.636   0.364   6.409 -3.2556 -0.3069  2.5707
   25MOL0     H 3354   7.547   0.220   6.427 -0.5344  1.8110  1.3251
   25MOL0     H 3355   7.849   0.340   5.365  0.2954 -0.2741  1.8482
   25MOL0     H 3356   7.990   0.273   5.188  1.0582  1.1738  0.9361
   25MOL0     H 3357   8.079   0.150   4.814 -1.1945  0.4356 -1.5335
   25MOL0     H 3358   8.131   0.108   4.585  1.1704  2.9953  3.0163
   25MOL0     H 3359   9.789   0.310   4.534 -3.6673  0.3244  2.1918
   25MOL0     H 3360  10.029   0.284   4.634  0.8592 -0.8214  2.4268
   25MOL0     H 3361  10.350   0.269   5.022 -0.9355 -0.3701  0.7271
   25MOL0     H 3362  10.572   0.166   5.132 -3.4793 -0.1416  2.3953
   25MOL0     H 3363  10.859  -0.139   5.001  1.8387 -3.3033 -1.0211
   25MOL0     H 3364  10.729  -0.173   4.882  0.3391 -1.3677  0.3214
   25MOL0     H 3365  10.624  -0.329   5.044 -1.1991  0.4284 -0.7169
   25MOL0     H 3366  10.749  -0.279   5.157  0.0005  1.0228 -1.4233
   25MOL0     H 3367  10.921  -0.361   4.988 -1.3633  1.7653  1.9413
   25MOL0     H 3368  10.777  -0.411   4.888 -3.4516  1.0459  1.2991
   25MOL0     H 3369  10.716  -0.582   5.068  1.1315 -2.3754  2.4455
   25MOL0     H 3370  10.884  -0.599   5.003  1.9364 -0.5949  2.6276
   25MOL0     H 3371  10.912  -0.478   5.422 -0.6521  1.2426  0.2397
   25MOL0     H 3372  10.488  -0.207   4.938 -4.4769 -1.4347  0.9804
   25MOL0     H 3373  10.268  -0.083   4.697  1.2441 -0.5986 -0.3147
   25MOL0     H 3374  10.300  -0.233   4.778  1.2764  0.3861 -3.1213
   25MOL0     H 3375  10.160  -0.149   4.822 -0.3150 -1.5416 -0.8538
   26MOL0     O 3376   6.857  11.012   1.235  0.4664 -0.5503  0.0645
   26MOL0     C 3377   6.875  10.964   1.125  0.0039 -0.4728  0.3232
   26MOL0     O 3378   6.979  10.995   1.043 -0.5421 -0.6878 -0.6240
   26MOL0     C 3379   7.040  11.114   1.062 -0.3377  0.0887 -0.0376
   26MOL0     C 3380   7.147  11.146   1.147 -0.2652  0.5360  0.0275
   26MOL0     C 3381   7.207  11.265   1.127 -0.5487 -0.5826 -0.0704
   26MOL0     C 3382   7.175  11.364   1.037 -0.2237  0.5367  0.0637
   26MOL0     O 3383   7.258  11.474   1.023  0.5213  0.1755  0.2519
   26MOL0     C 3384   7.206  11.595   0.985  0.4383  0.4667  0.0578
   26MOL0     C 3385   7.316  11.682   0.943 -0.7034 -0.8388 -0.0063
   26MOL0     C 3386   7.289  11.826   0.882  1.2740  0.3060 -0.7384
   26MOL0     C 3387   7.236  11.812   0.739 -0.1729  0.3700  0.2477
   26MOL0     C 3388   7.235  11.949   0.669  0.9930  1.0286  1.1039
   26MOL0     C 3389   7.381  11.980   0.613  0.0650 -0.2153  1.6314
   26MOL0     C 3390   7.368  12.105   0.516 -0.0140  0.0729 -0.1644
   26MOL0     C 3391   7.497  12.148   0.442  0.0737 -0.8777  0.2919
   26MOL0     N 3392   7.459  12.264   0.360  0.7525  0.5290  0.0179
   26MOL0     C 3393   7.393  12.378   0.400 -1.0127 -0.0887 -0.6963
   26MOL0     C 3394   7.382  12.457   0.296 -0.6581 -0.2343  0.5427
   26MOL0     C 3395   7.334  12.600   0.309  1.3286 -0.4560 -0.2296
   26MOL0     C 3396   7.464  12.684   0.339  0.6225 -0.0252  0.6264
   26MOL0     C 3397   7.433  12.828   0.341  0.3055  0.3514  0.0534
   26MOL0     C 3398   7.359  12.871   0.459 -0.5119  0.9759  0.0955
   26MOL0     O 3399   7.436  12.860   0.576  0.2327 -0.3470  0.3960
   26MOL0     C 3400   7.418  12.914   0.699 -0.2935 -0.1051 -0.6592
   26MOL0     C 3401   7.505  12.875   0.805 -0.1451  0.2321  0.1322
   26MOL0     C 3402   7.484  12.944   0.929 -0.5152  0.6349 -0.3482
   26MOL0     C 3403   7.384  13.043   0.959 -0.2875 -1.0536  0.3938
   26MOL0     C 3404   7.375  13.117   1.089 -0.1350 -1.2509 -0.3105
   26MOL0     O 3405   7.437  13.075   1.195  0.3107  0.6213 -0.2938
   26MOL0     C 3406   7.377  13.107   1.319 -0.7327 -1.3261  0.2559
   26MOL0     C 3407   7.410  13.230   1.362  0.5447 -0.4622 -0.6956
   26MOL0     C 3408   7.351  13.289   1.479 -0.3483  0.4808 -0.0458
   26MOL0     C 3409   7.242  13.222   1.544  0.3552 -1.1467  0.5871
   26MOL0     O 3410   7.183  13.273   1.655 -0.1145 -0.7649 -0.2598
   26MOL0     C 3411   7.197  13.412   1.694  0.4748  1.0333 -0.9876
   26MOL0     C 3412   7.070  13.472   1.760 -0.0812 -0.1165 -0.0603
   26MOL0     C 3413   7.013  13.400   1.884 -0.5737 -0.3362  0.0751
   26MOL0     C 3414   6.886  13.321   1.852  0.2570 -0.0036  0.2193
   26MOL0     C 3415   6.784  13.271   1.963  0.0564 -0.2079  0.6981
   26MOL0     C 3416   6.651  13.220   1.898 -0.5411 -0.2925  0.2673
   26MOL0     C 3417   6.667  13.091   1.806 -0.0157  0.1029  0.8231
   26MOL0     C 3418   6.553  13.088   1.713 -0.4704 -0.1020  0.6606
   26MOL0    Cl 3419   6.386  13.122   1.790 -0.8317  0.2258 -0.1423
   26MOL0     C 3420   7.204  13.094   1.481  0.3322 -0.4275 -0.6780
   26MOL0     C 3421   7.260  13.042   1.372 -0.0517  0.3832  0.6606
   26MOL0     O 3422   7.310  13.225   1.086  0.0841  0.1420  0.7665
   26MOL0     C 3423   7.315  13.090   0.849  0.1324 -0.2538  1.1454
   26MOL0     C 3424   7.325  13.017   0.723 -0.1449 -1.0999  0.2486
   26MOL0     N 3425   7.453  12.399   0.196  0.6465 -0.2832 -0.6251
   26MOL0     N 3426   7.478  12.274   0.226  0.1133 -0.9459  0.0254
   26MOL0     C 3427   7.066  11.339   0.949  0.4728  1.1191 -0.7147
   26MOL0     C 3428   7.005  11.217   0.964  0.9120  0.4097  0.0514
   26MOL0     C 3429   6.802  10.847   1.071  0.0320 -0.9465 -0.4807
   26MOL0     C 3430   6.862  10.725   1.055  0.4141  0.9707  0.5124
   26MOL0     C 3431   6.801  10.613   1.009  1.0415 -0.0331 -0.2368
   26MOL0     C 3432   6.668  10.613   0.968  0.4765  0.4111 -0.6345
   26MOL0     O 3433   6.608  10.503   0.920  0.7175 -0.6637  0.1879
   26MOL0     C 3434   6.690  10.387   0.880  0.7822 -0.2401  0.2496
   26MOL0     C 3435   6.589  10.282   0.842  0.3982  0.1729  1.0084
   26MOL0     C 3436   6.659  10.159   0.786 -0.4871  0.0213 -0.5818
   26MOL0     C 3437   6.561  10.062   0.715 -0.4055 -0.5131 -0.0908
   26MOL0     C 3438   6.643   9.974   0.629 -0.5220 -0.9363 -0.8039
   26MOL0     C 3439   6.708   9.903   0.557 -0.7463 -0.7936  0.3609
   26MOL0     C 3440   6.601  10.740   0.986 -0.6229  0.2704  0.0416
   26MOL0     C 3441   6.670  10.850   1.033  0.3663 -1.1324 -0.9187
   26MOL0     C 3442   6.600  10.990   1.036 -0.3956 -0.1717  0.2761
   26MOL0     H 3443   7.179  11.072   1.220  1.6621  0.3346 -0.9348
   26MOL0     H 3444   7.297  11.276   1.186 -0.7994 -0.2176  0.2473
   26MOL0     H 3445   7.133  11.590   0.903 -0.6310  0.0283  1.0184
   26MOL0     H 3446   7.156  11.637   1.072 -0.0379  1.7612 -0.8125
   26MOL0     H 3447   7.361  11.633   0.857  2.3637 -0.4064  1.2239
   26MOL0     H 3448   7.400  11.690   1.013  0.4296 -1.3557 -1.2702
   26MOL0     H 3449   7.385  11.879   0.879  2.0561 -0.8904  1.4017
   26MOL0     H 3450   7.212  11.873   0.944 -1.3756 -2.5339 -1.6077
   26MOL0     H 3451   7.290  11.740   0.676 -2.4944  1.0028 -2.7357
   26MOL0     H 3452   7.139  11.761   0.742  0.2859 -1.2390 -4.0674
   26MOL0     H 3453   7.167  11.940   0.583  2.4122  0.2258  0.0193
   26MOL0     H 3454   7.182  12.019   0.733  2.3287  1.3610  1.8852
   26MOL0     H 3455   7.439  12.011   0.700  0.2113  2.3025  0.7005
   26MOL0     H 3456   7.437  11.898   0.566  0.8478  0.7190  0.8977
   26MOL0     H 3457   7.320  12.190   0.565  1.9559  1.2128 -0.1138
   26MOL0     H 3458   7.307  12.071   0.431 -0.7303  0.4458  0.1954
   26MOL0     H 3459   7.568  12.178   0.519 -1.1310  2.1371  0.3784
   26MOL0     H 3460   7.545  12.063   0.393  1.0535 -2.7809  4.1325
   26MOL0     H 3461   7.376  12.420   0.499 -0.6543  0.5924 -0.9169
   26MOL0     H 3462   7.288  12.622   0.213 -0.7763  0.3269  0.8958
   26MOL0     H 3463   7.249  12.609   0.377  0.4822  1.9068 -1.4850
   26MOL0     H 3464   7.516  12.655   0.430 -0.2126  2.5397  2.0055
   26MOL0     H 3465   7.524  12.676   0.248  0.4695  0.8105  0.4469
   26MOL0     H 3466   7.387  12.866   0.250  0.4522  1.5423  0.4572
   26MOL0     H 3467   7.531  12.875   0.328  0.5974  1.6623  4.8685
   26MOL0     H 3468   7.274  12.802   0.463  2.3797 -3.0230 -0.9462
   26MOL0     H 3469   7.319  12.971   0.438 -0.2062  0.5038 -3.3369
   26MOL0     H 3470   7.586  12.805   0.790  0.0717  0.7781 -1.3281
   26MOL0     H 3471   7.558  12.930   1.007  0.5459  1.3750 -1.2040
   26MOL0     H 3472   7.486  13.287   1.308  1.7567  0.6484  1.9970
   26MOL0     H 3473   7.388  13.385   1.512 -0.2711  0.8518 -1.2084
   26MOL0     H 3474   7.273  13.419   1.773  0.5611  2.6222 -1.1735
   26MOL0     H 3475   7.219  13.477   1.608 -2.4545  1.7346 -1.3028
   26MOL0     H 3476   7.108  13.570   1.789  2.3705 -1.1342  0.3824
   26MOL0     H 3477   6.992  13.488   1.684  0.1867 -1.6193 -0.6971
   26MOL0     H 3478   7.087  13.327   1.917 -0.8823 -0.2161  1.0499
   26MOL0     H 3479   7.000  13.467   1.969 -1.2748  1.2508 -1.2285
   26MOL0     H 3480   6.905  13.226   1.800 -0.2974 -0.5179  0.9347
   26MOL0     H 3481   6.830  13.375   1.776  1.6870  3.1957  1.2452
   26MOL0     H 3482   6.773  13.358   2.029  1.1657  1.7420 -1.4975
   26MOL0     H 3483   6.833  13.196   2.025  1.0299  0.3101  0.5915
   26MOL0     H 3484   6.572  13.199   1.971  0.4796 -0.1260  1.4348
   26MOL0     H 3485   6.620  13.303   1.833  2.6527  2.3898  1.9084
   26MOL0     H 3486   6.669  13.003   1.871 -0.5630 -0.6945 -0.2172
   26MOL0     H 3487   6.760  13.090   1.748  0.2807 -2.8519  1.1842
   26MOL0     H 3488   6.565  13.158   1.630 -0.2754 -2.1559 -1.1429
   26MOL0     H 3489   6.539  13.002   1.647  2.5275 -0.5409  0.4690
   26MOL0     H 3490   7.121  13.040   1.525  1.0283 -0.2927  0.8783
   26MOL0     H 3491   7.227  12.952   1.321  0.1894  0.2263  0.7767
   26MOL0     H 3492   7.236  13.164   0.856  1.5024  1.4250 -0.0850
   26MOL0     H 3493   7.262  13.045   0.640  2.9395  0.6559 -1.7074
   26MOL0     H 3494   7.036  11.405   0.868 -0.2102  1.3967 -0.2355
   26MOL0     H 3495   6.924  11.175   0.905  1.1473 -2.3787  1.5853
   26MOL0     H 3496   6.967  10.716   1.083  0.0428 -1.3513  1.3285
   26MOL0     H 3497   6.853  10.518   1.014 -1.6820 -1.6082  0.7316
   26MOL0     H 3498   6.754  10.357   0.964  2.1465  0.8259 -0.3669
   26MOL0     H 3499   6.749  10.414   0.792  0.0171  1.3330  0.1733
   26MOL0     H 3500   6.531  10.318   0.757 -0.7543  0.3948  1.8788
   26MOL0     H 3501   6.529  10.256   0.929 -2.5290 -1.5508 -1.3311
   26MOL0     H 3502   6.700  10.106   0.873 -0.0722 -2.8415 -2.3830
   26MOL0     H 3503   6.750  10.191   0.735  0.5843  0.6248  1.5875
   26MOL0     H 3504   6.502   9.997   0.781 -2.8215  2.1403  0.5666
   26MOL0     H 3505   6.501  10.120   0.645 -0.6454 -1.1440 -0.4213
   26MOL0     H 3506   6.762   9.836   0.493 -2.3925  0.8349 -3.0132
   26MOL0     H 3507   6.503  10.765   0.946 -1.0379  0.3342  1.0543
   26MOL0     H 3508   6.560  11.024   0.941  4.6836  1.0014 -1.7471
   26MOL0     H 3509   6.513  10.992   1.103 -1.1257  0.6906 -0.6772
   26MOL0     H 3510   6.664  11.070   1.075 -0.1548 -1.1383  1.9628
   27MOL0     O 3511   7.948   7.074   1.347  0.6627 -0.2378  0.9127
   27MOL0     C 3512   7.863   7.026   1.274  0.1015  0.2381 -0.5763
   27MOL0     O 3513   7.831   6.892   1.262 -0.4175  0.5356 -0.0487
   27MOL0     C 3514   7.875   6.809   1.358  0.3480 -0.6009 -0.1350
   27MOL0     C 3515   8.003   6.758   1.350  0.9002  1.1340  0.0717
   27MOL0     C 3516   8.042   6.660   1.450 -0.0872  0.7774  0.2851
   27MOL0     C 3517   7.958   6.620   1.554  0.7003  0.0067  0.3067
   27MOL0     O 3518   8.017   6.532   1.644 -0.0804  0.0078  0.1776
   27MOL0     C 3519   7.934   6.506   1.759  0.5011  0.0379 -0.1969
   27MOL0     C 3520   7.815   6.407   1.732 -0.0388 -0.3701 -0.4015
   27MOL0     C 3521   7.860   6.274   1.658  0.0545  0.4438 -0.0985
   27MOL0     C 3522   7.947   6.188   1.744 -0.1995  0.6243  1.0831
   27MOL0     C 3523   7.986   6.054   1.669  0.1961 -0.3682 -0.4986
   27MOL0     C 3524   8.131   6.022   1.690 -0.5694  0.0812 -1.2141
   27MOL0     C 3525   8.189   5.914   1.603 -0.3859 -0.6939 -0.0177
   27MOL0     C 3526   8.171   5.774   1.669  0.6813 -0.0170 -0.2304
   27MOL0     N 3527   8.281   5.712   1.744 -0.5270 -0.6801 -0.2554
   27MOL0     C 3528   8.356   5.774   1.848 -0.7678  0.0261  0.2290
   27MOL0     C 3529   8.455   5.678   1.871 -1.0416 -0.3668  0.4050
   27MOL0     C 3530   8.577   5.700   1.956  0.2376  0.3964 -0.1078
   27MOL0     C 3531   8.718   5.715   1.896  1.2080  0.5765  0.6697
   27MOL0     C 3532   8.749   5.592   1.801 -0.0855  0.1489  0.0954
   27MOL0     C 3533   8.887   5.594   1.746 -0.6501  0.3743  0.4004
   27MOL0     O 3534   8.924   5.719   1.686  0.7116  0.2181  0.0040
   27MOL0     C 3535   9.053   5.735   1.644  0.5209  0.9510  0.6015
   27MOL0     C 3536   9.080   5.856   1.576  0.1297  0.8667 -1.1861
   27MOL0     C 3537   9.205   5.891   1.527 -0.1752  0.6465  0.4003
   27MOL0     C 3538   9.306   5.790   1.536  0.0593 -0.7443 -0.5527
   27MOL0     C 3539   9.441   5.815   1.498 -0.4331 -1.0545 -0.4554
   27MOL0     O 3540   9.452   5.903   1.392 -0.6309 -0.3464  0.8169
   27MOL0     C 3541   9.571   5.924   1.326  0.5010  0.5599  0.1778
   27MOL0     C 3542   9.692   5.930   1.388  0.7609  0.6203 -0.3931
   27MOL0     C 3543   9.797   5.991   1.324 -0.1367  0.4988 -0.1175
   27MOL0     C 3544   9.784   6.034   1.192  0.4483 -0.1345  0.3317
   27MOL0     O 3545   9.900   6.078   1.141  0.5487  0.0130 -0.2073
   27MOL0     C 3546   9.891   6.126   1.009 -0.1831  0.6030 -0.4960
   27MOL0     C 3547  10.018   6.221   0.991 -0.8342  0.2231 -0.4080
   27MOL0     C 3548  10.137   6.126   0.959  0.6702  0.8561  0.7870
   27MOL0     C 3549  10.181   6.015   1.056 -0.7522 -0.5252 -0.4559
   27MOL0     C 3550  10.289   5.925   1.005 -0.1773  0.5115  0.1321
   27MOL0     C 3551  10.357   5.848   1.113  0.5081 -0.2261  0.1950
   27MOL0     C 3552  10.460   5.732   1.066  0.7323 -0.9747 -0.2428
   27MOL0     C 3553  10.577   5.720   1.159  0.9011  0.5951  0.1006
   27MOL0    Cl 3554  10.507   5.686   1.323  0.0519  0.0568  0.0254
   27MOL0     C 3555   9.661   6.019   1.123 -0.1116 -0.7782 -0.4733
   27MOL0     C 3556   9.559   5.969   1.190  0.1165 -0.1168 -0.3037
   27MOL0     O 3557   9.535   5.747   1.534 -1.2062  0.2651 -0.8736
   27MOL0     C 3558   9.281   5.668   1.604  0.4552  0.7906  0.3254
   27MOL0     C 3559   9.158   5.641   1.659  0.7617  0.2336 -0.2430
   27MOL0     N 3560   8.426   5.564   1.800  0.2137  0.1142  0.3729
   27MOL0     N 3561   8.324   5.583   1.718 -0.0965  1.0468 -0.1281
   27MOL0     C 3562   7.825   6.672   1.550 -0.5672  0.3541 -0.0117
   27MOL0     C 3563   7.781   6.768   1.457 -0.4666 -0.3185  0.4604
   27MOL0     C 3564   7.784   7.112   1.194 -0.5666  0.0424  0.8045
   27MOL0     C 3565   7.849   7.206   1.116 -0.0621 -0.2152 -1.7238
   27MOL0     C 3566   7.788   7.283   1.023  0.5237  0.3715  0.3954
   27MOL0     C 3567   7.647   7.278   1.013  0.6585  0.4094  0.2299
   27MOL0     O 3568   7.603   7.366   0.917 -0.2550 -0.4225  0.3859
   27MOL0     C 3569   7.458   7.374   0.913 -0.9138 -0.1174  0.6788
   27MOL0     C 3570   7.422   7.496   0.834  0.3618 -0.2636 -0.0488
   27MOL0     C 3571   7.261   7.499   0.815 -0.0910  0.1103 -0.8092
   27MOL0     C 3572   7.179   7.575   0.926  0.1114  0.8732 -0.5419
   27MOL0     C 3573   7.209   7.718   0.913 -0.3930 -0.5928  0.8912
   27MOL0     C 3574   7.207   7.838   0.890 -0.2819 -0.5027  0.1262
   27MOL0     C 3575   7.581   7.197   1.098  0.6240 -0.1688 -0.5674
   27MOL0     C 3576   7.645   7.114   1.188 -0.2596  0.4954 -0.0093
   27MOL0     C 3577   7.564   7.040   1.289 -0.2139 -0.1059 -0.2400
   27MOL0     H 3578   8.065   6.796   1.270  0.4851 -0.9595 -1.3271
   27MOL0     H 3579   8.144   6.622   1.449  0.0778  1.2103  0.3670
   27MOL0     H 3580   7.998   6.461   1.835  0.0206  1.2569  0.9619
   27MOL0     H 3581   7.894   6.598   1.801 -3.9566 -0.7679 -2.1179
   27MOL0     H 3582   7.739   6.457   1.671  1.3621 -1.1905 -2.9286
   27MOL0     H 3583   7.763   6.384   1.825 -0.0643  0.9330 -0.0668
   27MOL0     H 3584   7.907   6.307   1.566  1.4289  2.7259  1.3285
   27MOL0     H 3585   7.771   6.210   1.648  1.3773 -1.6056  0.4466
   27MOL0     H 3586   8.040   6.244   1.748  2.6844 -3.4278 -1.2875
   27MOL0     H 3587   7.899   6.177   1.842 -1.2872  0.5160  0.5579
   27MOL0     H 3588   7.926   5.973   1.712 -1.9802  0.7732 -1.2522
   27MOL0     H 3589   7.958   6.066   1.564 -1.5162 -0.4885 -0.0802
   27MOL0     H 3590   8.188   6.112   1.666 -1.3199  0.4113 -1.7947
   27MOL0     H 3591   8.139   6.006   1.798 -1.0280 -0.6632 -1.2838
   27MOL0     H 3592   8.297   5.930   1.602 -0.6067  1.0976  0.8920
   27MOL0     H 3593   8.155   5.914   1.499  2.9698 -4.8913 -1.3897
   27MOL0     H 3594   8.092   5.782   1.744  0.8082 -0.4746 -0.0396
   27MOL0     H 3595   8.152   5.716   1.578  0.5520 -0.6281  0.1813
   27MOL0     H 3596   8.344   5.876   1.882 -0.6979  0.2996 -0.5362
   27MOL0     H 3597   8.556   5.794   2.006  0.2198 -0.1919  1.0116
   27MOL0     H 3598   8.581   5.620   2.030  0.2111  0.9024  0.4431
   27MOL0     H 3599   8.712   5.805   1.835 -0.2409  0.9890  1.3740
   27MOL0     H 3600   8.793   5.747   1.968  1.5650  0.4330  0.3654
   27MOL0     H 3601   8.698   5.597   1.705 -0.0154 -1.9654 -0.0904
   27MOL0     H 3602   8.750   5.500   1.859 -1.6638  0.2826  0.3741
   27MOL0     H 3603   8.898   5.511   1.676  0.5083  0.9084 -0.0915
   27MOL0     H 3604   8.956   5.570   1.828  1.2337 -1.1645 -1.5257
   27MOL0     H 3605   9.003   5.931   1.562 -2.5412 -1.4993  0.0694
   27MOL0     H 3606   9.230   5.978   1.467  0.0616  2.2041  2.6432
   27MOL0     H 3607   9.695   5.900   1.492 -2.9033  0.9257 -0.0723
   27MOL0     H 3608   9.894   6.005   1.370  0.3503  0.6673 -1.1615
   27MOL0     H 3609   9.895   6.047   0.934  0.8237 -1.8927  2.0229
   27MOL0     H 3610   9.803   6.189   0.993  0.6584  1.3228 -2.5225
   27MOL0     H 3611  10.000   6.285   0.905 -0.3095 -1.0598 -1.5185
   27MOL0     H 3612  10.041   6.284   1.077 -1.0526  3.6742 -2.6661
   27MOL0     H 3613  10.120   6.090   0.857  0.0618  3.3715 -0.0896
   27MOL0     H 3614  10.216   6.201   0.954 -0.8014  2.5666  1.9766
   27MOL0     H 3615  10.097   5.945   1.071 -2.3610  1.3946  0.0038
   27MOL0     H 3616  10.215   6.079   1.138  1.1384 -0.1874 -1.4799
   27MOL0     H 3617  10.364   5.987   0.954 -0.1648 -0.9040 -1.6369
   27MOL0     H 3618  10.252   5.862   0.924  0.7539  1.1020 -0.7762
   27MOL0     H 3619  10.400   5.929   1.173 -2.7446  0.2809  2.0564
   27MOL0     H 3620  10.287   5.804   1.184  1.9826  0.1435  1.9460
   27MOL0     H 3621  10.501   5.766   0.970 -1.9011 -2.3373 -1.9895
   27MOL0     H 3622  10.410   5.636   1.055 -0.9366 -0.3983  1.6914
   27MOL0     H 3623  10.642   5.639   1.125  0.9736  0.9298 -0.5692
   27MOL0     H 3624  10.634   5.813   1.154  4.4816 -1.4406 -1.4826
   27MOL0     H 3625   9.643   6.063   1.026  0.0217  1.0201  0.2767
   27MOL0     H 3626   9.463   5.942   1.148  1.5303 -0.2163 -3.8460
   27MOL0     H 3627   9.357   5.602   1.644 -0.4848  1.0844  2.7600
   27MOL0     H 3628   9.136   5.552   1.718  1.1242  0.8060  0.7738
   27MOL0     H 3629   7.753   6.662   1.631 -0.1043  0.1615  0.3850
   27MOL0     H 3630   7.682   6.813   1.451 -0.8484 -1.0442  1.1589
   27MOL0     H 3631   7.957   7.199   1.119 -0.1416 -2.2836  0.5711
   27MOL0     H 3632   7.834   7.347   0.948 -1.1270 -0.3113 -1.2635
   27MOL0     H 3633   7.421   7.366   1.016  3.8892 -0.2686  2.6698
   27MOL0     H 3634   7.428   7.282   0.863  0.4852  0.2769 -1.0093
   27MOL0     H 3635   7.464   7.499   0.733  1.2536  1.9887  0.3250
   27MOL0     H 3636   7.449   7.585   0.891 -1.4504  1.5735 -1.8759
   27MOL0     H 3637   7.223   7.397   0.807 -3.5613  1.0246  1.6516
   27MOL0     H 3638   7.241   7.538   0.714 -0.3617 -1.7006 -1.4930
   27MOL0     H 3639   7.076   7.540   0.918  0.7216 -1.6914  1.2934
   27MOL0     H 3640   7.224   7.540   1.020 -0.7996 -1.9813 -1.0707
   27MOL0     H 3641   7.228   7.941   0.869  0.3531 -0.5868  0.3096
   27MOL0     H 3642   7.472   7.199   1.103  0.3865 -4.4157 -0.3261
   27MOL0     H 3643   7.623   7.015   1.378  0.6560  2.2703 -0.0860
   27MOL0     H 3644   7.483   7.102   1.328  1.5582  2.0830  0.2025
   27MOL0     H 3645   7.533   6.939   1.259 -1.7019  0.1442  0.4093
   28MOL0     O 3646   2.194  10.847   0.011  0.3083  0.2149  0.0733
   28MOL0     C 3647   2.311  10.814   0.038 -0.1833  0.0170 -0.5654
   28MOL0     O 3648   2.366  10.836   0.159  0.8629  0.5329  0.5059
   28MOL0     C 3649   2.299  10.918   0.243  0.3312  0.3744  0.0282
   28MOL0     C 3650   2.292  11.056   0.222 -0.5325  1.0466  0.0512
   28MOL0     C 3651   2.272  11.141   0.327  0.9169  0.5417 -0.7538
   28MOL0     C 3652   2.207  11.094   0.443  0.1741  0.8702 -1.0476
   28MOL0     O 3653   2.162  11.174   0.546  0.0252 -0.1701  0.5069
   28MOL0     C 3654   2.239  11.300   0.566 -0.1977  0.1630  0.4537
   28MOL0     C 3655   2.193  11.388   0.689 -0.2417  0.7492  1.4573
   28MOL0     C 3656   2.294  11.490   0.707 -0.1334 -0.1745 -0.9335
   28MOL0     C 3657   2.268  11.565   0.840  0.6336 -0.2342  0.2783
   28MOL0     C 3658   2.147  11.662   0.839  0.0251  0.2351  0.2234
   28MOL0     C 3659   2.153  11.727   0.977 -0.6162 -0.9064 -0.3262
   28MOL0     C 3660   2.062  11.854   0.979  0.1454 -0.6417 -0.6198
   28MOL0     C 3661   2.054  11.931   1.113 -0.0583  0.6036 -0.0951
   28MOL0     N 3662   2.027  11.839   1.228 -0.6699 -0.2891 -0.9219
   28MOL0     C 3663   1.924  11.749   1.244  0.0773 -0.2971  0.6269
   28MOL0     C 3664   1.940  11.709   1.370  0.1223  0.1399  0.5798
   28MOL0     C 3665   1.884  11.582   1.425 -0.8261  0.6842 -0.1186
   28MOL0     C 3666   1.962  11.468   1.354 -0.9806 -1.0414  1.8110
   28MOL0     C 3667   1.884  11.335   1.346 -0.1630 -0.1268  0.2902
   28MOL0     C 3668   1.769  11.342   1.258  0.1738 -0.3017  0.3802
   28MOL0     O 3669   1.805  11.390   1.128  0.0526  0.6236  0.4991
   28MOL0     C 3670   1.768  11.320   1.013  0.1789 -0.5965  0.5387
   28MOL0     C 3671   1.635  11.292   0.979 -0.6317  0.1331 -0.2458
   28MOL0     C 3672   1.610  11.238   0.852  0.0352  0.4226 -0.1272
   28MOL0     C 3673   1.706  11.219   0.751  0.2604 -0.4128 -0.3721
   28MOL0     C 3674   1.675  11.152   0.617 -0.9233 -0.6677 -0.2238
   28MOL0     O 3675   1.784  11.139   0.537  0.8652  0.1387  0.3398
   28MOL0     C 3676   1.771  11.040   0.440 -0.3709 -0.7688 -0.2353
   28MOL0     C 3677   1.696  10.917   0.456 -0.6929  0.1538 -0.6530
   28MOL0     C 3678   1.705  10.833   0.343 -0.0297 -0.6614  0.3740
   28MOL0     C 3679   1.784  10.858   0.228 -0.1434 -0.0954  0.1826
   28MOL0     O 3680   1.786  10.773   0.130 -0.3034 -0.2789  0.1874
   28MOL0     C 3681   1.750  10.638   0.128 -0.5711  1.2005 -0.8567
   28MOL0     C 3682   1.784  10.541   0.003  0.5881 -0.1463  0.0792
   28MOL0     C 3683   1.702  10.584  -0.121 -0.0653 -1.1785  0.1931
   28MOL0     C 3684   1.757  10.531  -0.255 -1.2680  0.7881  0.1526
   28MOL0     C 3685   1.660  10.557  -0.374  0.3245  0.1161  0.2771
   28MOL0     C 3686   1.715  10.503  -0.504  0.2728 -0.4456 -0.3628
   28MOL0     C 3687   1.720  10.353  -0.509  0.3416  1.2583  0.6158
   28MOL0     C 3688   1.780  10.297  -0.648  0.0708 -0.4286 -0.6703
   28MOL0    Cl 3689   1.698  10.372  -0.786 -0.3194 -0.4420  0.0077
   28MOL0     C 3690   1.879  10.959   0.227  1.2830 -0.7722  0.0465
   28MOL0     C 3691   1.861  11.050   0.336  0.3988  0.1526  0.1330
   28MOL0     O 3692   1.556  11.126   0.580 -0.8416  0.5279  0.0225
   28MOL0     C 3693   1.835  11.255   0.788 -0.6159  0.0089 -1.0349
   28MOL0     C 3694   1.863  11.304   0.911 -0.0303 -0.5863 -0.4255
   28MOL0     N 3695   2.041  11.772   1.433 -0.3329 -0.0941 -0.1370
   28MOL0     N 3696   2.091  11.855   1.344 -1.6596  0.2051 -0.3847
   28MOL0     C 3697   2.199  10.951   0.459  1.2685  0.7222  0.0674
   28MOL0     C 3698   2.249  10.862   0.360 -0.0574 -0.0564  0.1914
   28MOL0     C 3699   2.391  10.737  -0.060  0.0697  0.3933 -0.6656
   28MOL0     C 3700   2.527  10.728  -0.027 -0.3304  0.5309 -0.5271
   28MOL0     C 3701   2.620  10.650  -0.107 -0.1540 -0.7358  0.8419
   28MOL0     C 3702   2.575  10.596  -0.223  1.0375  0.6887  0.2513
   28MOL0     O 3703   2.660  10.549  -0.317  0.0094 -0.2146 -0.7514
   28MOL0     C 3704   2.712  10.421  -0.308  0.5438  0.3431 -0.4356
   28MOL0     C 3705   2.860  10.424  -0.316  0.0384  0.1366 -0.3516
   28MOL0     C 3706   2.920  10.292  -0.314 -0.6000  0.4026  0.3151
   28MOL0     C 3707   2.924  10.218  -0.183  0.3251  0.3611 -0.1337
   28MOL0     C 3708   2.998  10.278  -0.075 -0.5615  0.1684  0.7439
   28MOL0     C 3709   3.066  10.326   0.016 -0.4869 -0.2327 -0.2685
   28MOL0     C 3710   2.437  10.602  -0.257 -0.7898  1.0976  0.2448
   28MOL0     C 3711   2.345  10.668  -0.170  1.2442  0.0116 -0.2770
   28MOL0     C 3712   2.203  10.687  -0.226  0.3316 -0.5034  0.0616
   28MOL0     H 3713   2.310  11.093   0.122 -1.4015 -2.0480 -1.3658
   28MOL0     H 3714   2.275  11.247   0.303 -1.4788  0.7249 -0.4758
   28MOL0     H 3715   2.340  11.263   0.587  0.1541  1.4730  1.1730
   28MOL0     H 3716   2.241  11.358   0.474  4.6105  1.1983  0.9109
   28MOL0     H 3717   2.186  11.322   0.776 -1.7099 -0.3868  0.5203
   28MOL0     H 3718   2.097  11.429   0.657  0.2663 -0.2974 -1.7293
   28MOL0     H 3719   2.306  11.558   0.622 -1.4432  1.5814  0.2276
   28MOL0     H 3720   2.393  11.450   0.731 -1.3050 -2.4213  0.4682
   28MOL0     H 3721   2.253  11.496   0.924 -2.0515  0.0384  0.1059
   28MOL0     H 3722   2.358  11.623   0.861 -0.2284  1.2458  0.0001
   28MOL0     H 3723   2.148  11.743   0.766 -0.2670 -2.0024 -2.4508
   28MOL0     H 3724   2.052  11.608   0.841  0.8928 -1.3214  0.8883
   28MOL0     H 3725   2.117  11.662   1.058 -3.8500 -0.6930 -1.4419
   28MOL0     H 3726   2.256  11.751   1.002 -0.8065 -1.0413  0.6466
   28MOL0     H 3727   1.959  11.838   0.946  0.0685  1.0721 -1.2642
   28MOL0     H 3728   2.113  11.923   0.911 -0.0070 -0.5770 -0.6680
   28MOL0     H 3729   2.151  11.981   1.112  0.4025 -0.2315  1.4084
   28MOL0     H 3730   1.984  12.014   1.120  1.8776  2.5770 -2.2496
   28MOL0     H 3731   1.858  11.688   1.183  2.1785 -1.5703 -0.5343
   28MOL0     H 3732   1.895  11.582   1.534 -0.3050  0.8967 -0.1681
   28MOL0     H 3733   1.778  11.583   1.399  0.1146  3.0307 -5.0303
   28MOL0     H 3734   1.987  11.495   1.251 -3.2699 -1.3023  1.1251
   28MOL0     H 3735   2.057  11.454   1.407 -1.5609 -0.7292  2.9735
   28MOL0     H 3736   1.849  11.300   1.443 -0.2995 -1.1560 -0.1115
   28MOL0     H 3737   1.960  11.263   1.314 -0.9212  0.1189 -2.3394
   28MOL0     H 3738   1.703  11.422   1.293  1.9719  1.2371  0.3877
   28MOL0     H 3739   1.717  11.245   1.251  3.8146 -2.6998  3.1846
   28MOL0     H 3740   1.545  11.308   1.037 -1.8055 -3.3586 -0.8580
   28MOL0     H 3741   1.508  11.211   0.823  0.7031 -1.4318 -0.9157
   28MOL0     H 3742   1.637  10.899   0.545  1.5266  0.9215  1.0685
   28MOL0     H 3743   1.651  10.739   0.344 -0.3495 -0.5149 -1.1816
   28MOL0     H 3744   1.800  10.592   0.214 -1.2530  0.8328 -0.6418
   28MOL0     H 3745   1.644  10.614   0.142  0.1293 -1.9430 -0.0978
   28MOL0     H 3746   1.890  10.556  -0.021  0.2939  0.6833 -0.7747
   28MOL0     H 3747   1.775  10.436   0.032  2.4206 -1.3288 -3.1040
   28MOL0     H 3748   1.604  10.541  -0.097 -1.1879  1.4528  0.7280
   28MOL0     H 3749   1.673  10.690  -0.122 -1.4610 -1.5357 -0.0665
   28MOL0     H 3750   1.772  10.424  -0.243  2.4520  1.1686  0.0693
   28MOL0     H 3751   1.857  10.553  -0.292  0.3494 -2.5892  2.1080
   28MOL0     H 3752   1.655  10.665  -0.388 -1.4792  0.0033 -0.1749
   28MOL0     H 3753   1.559  10.518  -0.357 -0.0058  0.6445 -0.4079
   28MOL0     H 3754   1.646  10.545  -0.578  3.7785  4.0222 -1.5057
   28MOL0     H 3755   1.813  10.536  -0.539 -0.2573 -2.9881 -5.0932
   28MOL0     H 3756   1.617  10.315  -0.505  0.7235  0.1920  0.4683
   28MOL0     H 3757   1.772  10.318  -0.420 -0.2941  1.3360  1.0253
   28MOL0     H 3758   1.887  10.319  -0.654  0.8748 -3.1569  1.4004
   28MOL0     H 3759   1.775  10.188  -0.661  0.7196 -0.3610 -1.6340
   28MOL0     H 3760   1.956  10.969   0.151  0.4541 -1.1495 -0.8446
   28MOL0     H 3761   1.916  11.142   0.326 -1.4145  1.2243 -0.6174
   28MOL0     H 3762   1.916  11.238   0.717 -2.1436 -2.3541 -2.3315
   28MOL0     H 3763   1.965  11.326   0.940 -0.8278 -1.7590  3.9298
   28MOL0     H 3764   2.150  10.908   0.546 -0.2622  0.4141 -0.9062
   28MOL0     H 3765   2.272  10.761   0.393  0.5839 -0.6945 -2.0521
   28MOL0     H 3766   2.562  10.779   0.062 -0.6033 -1.0104  0.5087
   28MOL0     H 3767   2.724  10.662  -0.078 -0.4344  1.9027  1.0082
   28MOL0     H 3768   2.671  10.362  -0.390 -1.8617 -0.2239  1.0710
   28MOL0     H 3769   2.683  10.376  -0.212 -1.3721  0.7439 -0.7881
   28MOL0     H 3770   2.898  10.482  -0.231 -0.8097 -2.4930  1.9899
   28MOL0     H 3771   2.892  10.477  -0.406 -0.8573 -2.0502 -2.0529
   28MOL0     H 3772   3.022  10.300  -0.352  0.0300  1.2304  2.1001
   28MOL0     H 3773   2.868  10.223  -0.382  2.4926 -1.8781  0.0176
   28MOL0     H 3774   2.828  10.224  -0.132  2.3736  1.0390  4.0304
   28MOL0     H 3775   2.960  10.114  -0.188  1.3867  0.7522 -1.0709
   28MOL0     H 3776   3.139  10.354   0.089 -0.1661  0.4109 -0.8137
   28MOL0     H 3777   2.392  10.547  -0.339  0.3706  1.1733 -0.4571
   28MOL0     H 3778   2.192  10.636  -0.322 -2.8474  3.9117 -2.2341
   28MOL0     H 3779   2.132  10.645  -0.154  0.5738 -0.2937  0.4306
   28MOL0     H 3780   2.170  10.789  -0.244  1.1463 -0.0412  1.0433
   29MOL0     O 3781   2.380   9.429   6.072  0.5029  0.4922  0.5744
   29MOL0     C 3782   2.322   9.352   5.996  0.2107  0.2002  0.3708
   29MOL0     O 3783   2.261   9.395   5.880  0.0786  0.5144  0.9152
   29MOL0     C 3784   2.255   9.526   5.855  1.4193  0.3950 -0.3864
   29MOL0     C 3785   2.203   9.613   5.941 -0.1977  0.0090  0.7977
   29MOL0     C 3786   2.200   9.748   5.906  0.5195 -0.7523  0.0188
   29MOL0     C 3787   2.239   9.794   5.776  0.9413  0.1821  0.4832
   29MOL0     O 3788   2.234   9.915   5.729 -0.9493  0.0281  0.3246
   29MOL0     C 3789   2.248  10.024   5.821  0.0020  0.0380 -0.7776
   29MOL0     C 3790   2.285  10.153   5.759 -0.3262  0.5717  0.3916
   29MOL0     C 3791   2.434  10.153   5.718  0.4606 -0.1986 -0.4074
   29MOL0     C 3792   2.455  10.287   5.651 -0.2205 -0.3986 -0.2093
   29MOL0     C 3793   2.599  10.311   5.613 -0.2881 -0.2925  0.0619
   29MOL0     C 3794   2.596  10.417   5.493 -0.2185  0.6905 -0.3849
   29MOL0     C 3795   2.737  10.435   5.422  0.3803 -0.5246  0.6331
   29MOL0     C 3796   2.839  10.477   5.530 -0.1168  0.3014 -0.1794
   29MOL0     N 3797   2.794  10.600   5.590 -0.2055 -0.8257  0.6945
   29MOL0     C 3798   2.778  10.725   5.532  0.2522  0.3598  0.0550
   29MOL0     C 3799   2.745  10.800   5.636  0.4052 -0.3185 -0.5739
   29MOL0     C 3800   2.723  10.941   5.635  0.8813 -0.6363 -0.5433
   29MOL0     C 3801   2.842  11.025   5.680  0.4440  0.8695  0.5686
   29MOL0     C 3802   2.901  11.005   5.821 -0.0211 -0.4893  0.6092
   29MOL0     C 3803   2.787  11.030   5.929  0.1977  0.8750  0.5498
   29MOL0     O 3804   2.711  11.147   5.912 -1.0058  0.4651 -0.2832
   29MOL0     C 3805   2.771  11.263   5.921 -0.4887 -0.2070 -1.4905
   29MOL0     C 3806   2.902  11.291   5.969  0.5825 -1.1846  0.2297
   29MOL0     C 3807   2.943  11.422   5.973 -0.7849 -0.9776  0.5881
   29MOL0     C 3808   2.874  11.530   5.908  0.7308  0.6704  0.2620
   29MOL0     C 3809   2.925  11.667   5.893 -0.5968  0.3582  0.4830
   29MOL0     O 3810   2.833  11.760   5.881 -0.1416  0.4583  0.0592
   29MOL0     C 3811   2.847  11.890   5.861  0.8170  0.3353  0.9732
   29MOL0     C 3812   2.966  11.968   5.870  0.6536  0.5534  0.1747
   29MOL0     C 3813   2.966  12.099   5.846  0.4916 -0.6269  0.4073
   29MOL0     C 3814   2.846  12.171   5.825 -0.6943  0.2377  0.2087
   29MOL0     O 3815   2.853  12.306   5.807  0.3099 -0.0165  0.3206
   29MOL0     C 3816   2.732  12.378   5.851 -0.1329  0.4547 -0.5067
   29MOL0     C 3817   2.772  12.523   5.878  0.7758  0.1339 -0.1810
   29MOL0     C 3818   2.794  12.618   5.760  0.7153  0.3883  0.0693
   29MOL0     C 3819   2.875  12.753   5.788 -0.8854 -0.0588  0.0035
   29MOL0     C 3820   3.028  12.734   5.823  0.7660  0.4914  0.5003
   29MOL0     C 3821   3.103  12.866   5.837  0.2769 -1.1652 -0.5172
   29MOL0     C 3822   3.160  12.925   5.714 -0.0162 -0.1686 -0.3697
   29MOL0     C 3823   3.282  13.006   5.739 -0.2144 -0.4947  0.2844
   29MOL0    Cl 3824   3.252  13.140   5.853  0.1679  0.0397 -0.2527
   29MOL0     C 3825   2.722  12.093   5.813 -0.1052 -0.3397 -0.3373
   29MOL0     C 3826   2.727  11.949   5.832 -0.3460 -0.2758 -0.1611
   29MOL0     O 3827   3.046  11.685   5.912 -0.2020  0.0384 -0.2979
   29MOL0     C 3828   2.750  11.498   5.860 -0.3368 -0.2774  0.5456
   29MOL0     C 3829   2.699  11.371   5.869  0.6978  0.4066 -0.8238
   29MOL0     N 3830   2.746  10.732   5.761 -0.5149 -1.0338 -0.1133
   29MOL0     N 3831   2.781  10.615   5.726  0.8274 -0.1509  0.5837
   29MOL0     C 3832   2.267   9.694   5.685  0.0318 -0.2692  0.7660
   29MOL0     C 3833   2.290   9.567   5.730 -0.1731  0.6571  0.3090
   29MOL0     C 3834   2.291   9.208   6.023 -0.4144  0.1421  0.2771
   29MOL0     C 3835   2.200   9.135   5.939  0.5675 -1.2593  0.1019
   29MOL0     C 3836   2.178   8.998   5.954 -0.6111  0.2612 -0.2900
   29MOL0     C 3837   2.241   8.924   6.060 -0.4424 -0.3816  0.1651
   29MOL0     O 3838   2.187   8.796   6.076 -0.2404  1.3771  0.0570
   29MOL0     C 3839   2.204   8.720   6.196 -0.4669 -0.9137 -0.0797
   29MOL0     C 3840   2.325   8.621   6.197 -0.6703 -0.7009 -0.4827
   29MOL0     C 3841   2.329   8.522   6.080 -0.1055 -0.5198  0.2304
   29MOL0     C 3842   2.193   8.448   6.060  0.2706 -0.5072  0.8570
   29MOL0     C 3843   2.213   8.338   5.958  0.0247 -0.2351  0.3315
   29MOL0     C 3844   2.225   8.265   5.862 -0.7507  0.6416 -0.0855
   29MOL0     C 3845   2.326   8.999   6.147 -0.1249  0.8595  0.2900
   29MOL0     C 3846   2.347   9.132   6.133 -1.1383 -0.4839  0.0281
   29MOL0     C 3847   2.449   9.203   6.226 -0.0257  0.3307 -0.3225
   29MOL0     H 3848   2.177   9.587   6.043 -1.2789  0.5211  0.6713
   29MOL0     H 3849   2.157   9.815   5.981  0.2316 -3.3565  2.3571
   29MOL0     H 3850   2.148  10.035   5.863 -0.0849  0.3437 -1.0573
   29MOL0     H 3851   2.310   9.991   5.905  3.1027  2.4318 -1.9142
   29MOL0     H 3852   2.278  10.229   5.838  0.6817  0.8942  0.1844
   29MOL0     H 3853   2.223  10.168   5.671  3.5879 -1.9439 -3.1600
   29MOL0     H 3854   2.454  10.061   5.662 -1.0686 -0.4421 -0.5923
   29MOL0     H 3855   2.490  10.176   5.809 -2.5373  0.3414  1.4373
   29MOL0     H 3856   2.406  10.272   5.555  1.4301  0.6870 -1.2835
   29MOL0     H 3857   2.409  10.376   5.695 -2.8272 -1.3870 -0.7828
   29MOL0     H 3858   2.661  10.340   5.698 -3.8740  1.0303  2.4538
   29MOL0     H 3859   2.643  10.224   5.562  1.6728  0.5628  0.1961
   29MOL0     H 3860   2.534  10.377   5.412 -0.1260 -0.7659  0.2209
   29MOL0     H 3861   2.564  10.515   5.528  1.0319  0.9469  0.1286
   29MOL0     H 3862   2.724  10.507   5.341 -1.1948 -0.0254  1.2826
   29MOL0     H 3863   2.772  10.337   5.389 -0.3790 -1.3061  2.0346
   29MOL0     H 3864   2.848  10.392   5.598 -2.9743 -0.8896 -1.1538
   29MOL0     H 3865   2.930  10.497   5.472 -0.9010  1.5974 -0.9874
   29MOL0     H 3866   2.797  10.763   5.433  0.5014  0.1025  0.0025
   29MOL0     H 3867   2.706  10.977   5.533  1.9742 -2.6184 -1.4847
   29MOL0     H 3868   2.635  10.942   5.700  1.1185 -2.4501 -0.1472
   29MOL0     H 3869   2.927  11.010   5.612  0.5613 -1.3054  1.1273
   29MOL0     H 3870   2.798  11.125   5.673 -2.2797 -0.3043 -0.6968
   29MOL0     H 3871   2.982  11.076   5.837  1.8316 -2.4863  0.5743
   29MOL0     H 3872   2.943  10.904   5.828 -1.8652 -1.2935  0.7193
   29MOL0     H 3873   2.834  11.035   6.027 -1.7613  0.7666  1.5523
   29MOL0     H 3874   2.718  10.945   5.926  0.8172  0.3856 -0.4644
   29MOL0     H 3875   2.958  11.209   6.014 -0.4544 -0.0379  3.9675
   29MOL0     H 3876   3.033  11.445   6.029  0.3293 -3.9985  0.2369
   29MOL0     H 3877   3.058  11.921   5.904 -1.4347 -1.1867  4.0983
   29MOL0     H 3878   3.048  12.170   5.844 -2.5463  3.3194  1.0909
   29MOL0     H 3879   2.653  12.374   5.775 -4.0158  0.4719  3.1774
   29MOL0     H 3880   2.695  12.342   5.948 -0.9849  0.0911 -0.9495
   29MOL0     H 3881   2.689  12.566   5.935  0.1162 -1.5615  0.2034
   29MOL0     H 3882   2.861  12.520   5.942 -0.0062 -0.1846  0.9269
   29MOL0     H 3883   2.841  12.558   5.681 -0.4053 -0.6568  0.1771
   29MOL0     H 3884   2.694  12.647   5.727  0.3445  0.8885  1.5584
   29MOL0     H 3885   2.831  12.796   5.878  0.5340 -1.3312  1.3491
   29MOL0     H 3886   2.860  12.817   5.700  4.1459 -0.5956 -1.5893
   29MOL0     H 3887   3.072  12.657   5.758  1.0012  1.2121 -0.2239
   29MOL0     H 3888   3.038  12.693   5.924  0.0472  0.5181  0.5872
   29MOL0     H 3889   3.032  12.940   5.873  2.0093  1.0708 -1.4392
   29MOL0     H 3890   3.186  12.857   5.908  1.7405  1.4750 -1.7636
   29MOL0     H 3891   3.087  12.994   5.672 -1.6293 -1.6521 -0.1341
   29MOL0     H 3892   3.178  12.839   5.649 -3.7876 -0.2905 -1.5057
   29MOL0     H 3893   3.362  12.937   5.769 -1.3629 -1.5472  1.0803
   29MOL0     H 3894   3.313  13.046   5.643 -0.6683  2.5146  1.2940
   29MOL0     H 3895   2.628  12.128   5.771 -0.5000 -1.6342 -0.5515
   29MOL0     H 3896   2.638  11.888   5.821 -0.9602  0.1869  1.9223
   29MOL0     H 3897   2.687  11.579   5.826  0.0105 -0.5559 -0.8148
   29MOL0     H 3898   2.602  11.355   5.822 -0.0874  2.7185 -0.1248
   29MOL0     H 3899   2.300   9.726   5.587 -1.9547 -2.1026 -0.5941
   29MOL0     H 3900   2.336   9.496   5.662  1.3859  1.8359  0.0692
   29MOL0     H 3901   2.154   9.190   5.858  0.0999 -2.0877 -0.2075
   29MOL0     H 3902   2.111   8.947   5.886  0.2924  0.2241 -1.1615
   29MOL0     H 3903   2.118   8.653   6.207 -1.0163 -0.3617 -0.9331
   29MOL0     H 3904   2.215   8.793   6.276 -1.4876  0.1027 -0.8463
   29MOL0     H 3905   2.319   8.574   6.295 -1.1552  2.9757  1.4078
   29MOL0     H 3906   2.403   8.696   6.185 -1.0012 -0.6212 -2.5737
   29MOL0     H 3907   2.413   8.459   6.110  1.4442  1.8184  1.1604
   29MOL0     H 3908   2.360   8.577   5.990  0.2762  0.2306  0.8066
   29MOL0     H 3909   2.156   8.398   6.150 -1.5940 -0.9792 -0.1139
   29MOL0     H 3910   2.114   8.514   6.023  2.2096  0.9715 -0.8583
   29MOL0     H 3911   2.240   8.198   5.780 -0.1375  3.0871 -2.1051
   29MOL0     H 3912   2.372   8.958   6.237  0.6459 -2.4662 -1.4877
   29MOL0     H 3913   2.532   9.246   6.169  2.4185 -0.6274  2.2824
   29MOL0     H 3914   2.410   9.288   6.282 -0.2076  0.1697 -0.2044
   29MOL0     H 3915   2.492   9.130   6.295 -0.5771  0.9096  0.6508
   30MOL0     O 3916   8.853   5.127   0.184 -0.5027 -0.4189  0.2233
   30MOL0     C 3917   8.868   5.195   0.079  0.1449  1.1675 -0.6488
   30MOL0     O 3918   8.977   5.255   0.040 -0.5646  0.0309 -0.4247
   30MOL0     C 3919   9.078   5.301   0.124 -0.3089 -0.2375 -0.2615
   30MOL0     C 3920   9.105   5.272   0.260  0.5630  1.1098  0.1162
   30MOL0     C 3921   9.218   5.320   0.325  0.6468 -0.9846 -0.3051
   30MOL0     C 3922   9.320   5.383   0.255  0.0793 -0.1933 -0.5477
   30MOL0     O 3923   9.432   5.427   0.328  0.6390  0.5080  0.0835
   30MOL0     C 3924   9.491   5.550   0.287  0.1347 -0.4749  0.3640
   30MOL0     C 3925   9.620   5.533   0.206  0.5274  0.7031 -0.6053
   30MOL0     C 3926   9.719   5.430   0.279  0.9300 -0.5713 -0.2017
   30MOL0     C 3927   9.762   5.491   0.411  0.2628 -0.7194 -0.1339
   30MOL0     C 3928   9.855   5.405   0.488 -0.6958  1.0227 -0.3090
   30MOL0     C 3929   9.904   5.462   0.618  0.8375  0.1313 -0.8181
   30MOL0     C 3930   9.994   5.382   0.706 -0.1786  0.1463  0.6720
   30MOL0     C 3931  10.048   5.243   0.664  0.4786  0.1319  0.8962
   30MOL0     N 3932  10.153   5.191   0.759  0.1589 -0.6128 -0.2850
   30MOL0     C 3933  10.269   5.160   0.714 -0.2297  0.2950  0.2265
   30MOL0     C 3934  10.347   5.130   0.829  0.6278 -0.6383  0.1134
   30MOL0     C 3935  10.498   5.110   0.850 -0.0386  0.4997  0.8186
   30MOL0     C 3936  10.547   4.995   0.949 -0.5240 -0.5024  0.1744
   30MOL0     C 3937  10.505   4.852   0.906 -0.6544 -0.9672  0.0426
   30MOL0     C 3938  10.577   4.736   0.980  0.4150  0.1906 -0.8646
   30MOL0     O 3939  10.719   4.745   0.936  0.4452 -0.2462 -0.8059
   30MOL0     C 3940  10.788   4.632   0.925  0.0172  1.0597 -0.2809
   30MOL0     C 3941  10.874   4.609   0.810  0.6101 -0.4869 -0.7723
   30MOL0     C 3942  10.956   4.495   0.808  0.3191 -0.0123  0.6619
   30MOL0     C 3943  10.958   4.412   0.918  0.6882 -0.0668 -0.3141
   30MOL0     C 3944  11.026   4.287   0.907  0.4828 -0.6942  0.2299
   30MOL0     O 3945  11.091   4.267   0.789  0.1040 -0.1799  0.9891
   30MOL0     C 3946  11.184   4.168   0.766 -0.0210  0.5055 -0.6556
   30MOL0     C 3947  11.191   4.118   0.636 -0.3170 -0.2835  1.1025
   30MOL0     C 3948  11.290   4.021   0.608 -0.1794 -0.0473 -0.5310
   30MOL0     C 3949  11.372   3.956   0.706  1.0470 -0.2759 -0.4461
   30MOL0     O 3950  11.461   3.857   0.662 -0.6413  0.3357  0.1324
   30MOL0     C 3951  11.427   3.722   0.699 -0.3228  0.1785 -0.3373
   30MOL0     C 3952  11.544   3.660   0.763 -0.0621 -0.4156  0.8627
   30MOL0     C 3953  11.612   3.735   0.878 -0.7866 -0.0972  0.8013
   30MOL0     C 3954  11.743   3.664   0.908  0.2885  0.1794  0.1815
   30MOL0     C 3955  11.812   3.732   1.027 -0.0254  0.2322  1.0368
   30MOL0     C 3956  11.885   3.857   0.982  0.8165 -0.3987 -0.0115
   30MOL0     C 3957  11.953   3.930   1.098  0.6767 -0.2033 -0.1271
   30MOL0     C 3958  12.030   4.059   1.051 -0.4609  0.6179  0.2325
   30MOL0    Cl 3959  11.922   4.188   0.995  0.0039  0.2960  0.4219
   30MOL0     C 3960  11.343   3.995   0.840 -0.4722  0.1959  0.4308
   30MOL0     C 3961  11.259   4.095   0.869  1.0524  0.5081 -0.6339
   30MOL0     O 3962  11.014   4.208   1.002 -0.0025 -0.1367  0.2241
   30MOL0     C 3963  10.886   4.442   1.029 -0.2297  0.5592  0.5731
   30MOL0     C 3964  10.800   4.550   1.035 -0.4885 -0.2792 -0.3393
   30MOL0     N 3965  10.259   5.135   0.940  0.0715 -0.1436  0.5028
   30MOL0     N 3966  10.145   5.182   0.901 -0.8817  0.4863 -0.1215
   30MOL0     C 3967   9.300   5.402   0.118 -0.4265 -0.6841 -0.4616
   30MOL0     C 3968   9.186   5.358   0.055  0.7589 -0.1352  0.0833
   30MOL0     C 3969   8.749   5.198  -0.002  0.7465 -0.6419  0.3551
   30MOL0     C 3970   8.666   5.092  -0.040  0.8332  0.2348 -0.6784
   30MOL0     C 3971   8.556   5.109  -0.118  0.3507  0.7174  0.1180
   30MOL0     C 3972   8.513   5.236  -0.164 -0.9039 -0.5517 -0.6931
   30MOL0     O 3973   8.403   5.263  -0.241  1.0297  0.4117 -0.2007
   30MOL0     C 3974   8.277   5.229  -0.175 -0.1948  0.2267  0.0774
   30MOL0     C 3975   8.156   5.216  -0.268 -0.0170  0.1332 -0.0179
   30MOL0     C 3976   8.113   5.351  -0.333  0.1056 -0.7101 -0.0026
   30MOL0     C 3977   8.216   5.408  -0.430 -1.1031 -0.3401  1.3459
   30MOL0     C 3978   8.265   5.313  -0.536  0.3189 -0.6077  0.6386
   30MOL0     C 3979   8.305   5.231  -0.610  1.0259  0.2559  0.0296
   30MOL0     C 3980   8.585   5.344  -0.114  0.0737 -0.4230 -0.3765
   30MOL0     C 3981   8.701   5.325  -0.044  0.9150 -0.5146  1.2205
   30MOL0     C 3982   8.764   5.453  -0.011 -0.0934 -0.3018  0.2938
   30MOL0     H 3983   9.035   5.214   0.320  1.6220 -0.8084 -0.4277
   30MOL0     H 3984   9.221   5.300   0.432  0.0982  0.5418  0.0176
   30MOL0     H 3985   9.440   5.623   0.223  2.7651  0.8015 -0.4212
   30MOL0     H 3986   9.532   5.611   0.368  0.9800  1.5896 -1.5121
   30MOL0     H 3987   9.647   5.639   0.194 -2.0681  1.6562  1.0139
   30MOL0     H 3988   9.589   5.490   0.110 -0.4896  2.1337 -0.9553
   30MOL0     H 3989   9.802   5.401   0.214  1.3134  2.8481 -1.4244
   30MOL0     H 3990   9.677   5.333   0.306  2.9487 -1.3550  0.2885
   30MOL0     H 3991   9.816   5.582   0.386 -0.4329 -0.7827 -1.9812
   30MOL0     H 3992   9.677   5.514   0.476 -0.4183 -0.6508 -1.0297
   30MOL0     H 3993   9.798   5.315   0.512 -1.0113  0.2362 -3.5035
   30MOL0     H 3994   9.936   5.369   0.424 -1.1072 -0.5335  0.0042
   30MOL0     H 3995   9.946   5.563   0.609  1.0134 -0.0351 -2.1268
   30MOL0     H 3996   9.822   5.477   0.690  1.3325  0.3265 -0.2895
   30MOL0     H 3997   9.952   5.370   0.806  1.3323 -0.0356  1.3065
   30MOL0     H 3998  10.081   5.441   0.734 -0.3578 -0.8457  3.5847
   30MOL0     H 3999   9.962   5.180   0.642  0.2491  0.9984 -0.8855
   30MOL0     H 4000  10.089   5.253   0.563  0.6234  1.0824  1.0391
   30MOL0     H 4001  10.312   5.159   0.615  1.3302 -0.4272  0.8896
   30MOL0     H 4002  10.549   5.083   0.757 -1.3824 -1.1195  0.4926
   30MOL0     H 4003  10.534   5.206   0.888 -0.7522  2.7061 -3.5342
   30MOL0     H 4004  10.654   5.011   0.961 -1.0347  3.0535  0.8779
   30MOL0     H 4005  10.506   5.013   1.049  3.0140 -1.1901  1.8794
   30MOL0     H 4006  10.519   4.844   0.798  1.6428 -1.0123  0.3045
   30MOL0     H 4007  10.402   4.837   0.941  0.0166 -1.6577  1.8108
   30MOL0     H 4008  10.539   4.639   0.947  0.4668 -0.8200  1.8043
   30MOL0     H 4009  10.580   4.736   1.089  1.5126 -3.2595 -0.7684
   30MOL0     H 4010  10.873   4.657   0.713 -0.0517  0.5370 -0.2780
   30MOL0     H 4011  11.013   4.466   0.721  1.5437 -0.1134  1.4853
   30MOL0     H 4012  11.135   4.155   0.551  2.0828  1.5679  0.2131
   30MOL0     H 4013  11.302   3.984   0.507  0.8062 -1.1486 -0.0309
   30MOL0     H 4014  11.346   3.720   0.773 -2.8792  0.0409 -2.9222
   30MOL0     H 4015  11.385   3.670   0.612 -0.5534 -0.4428  0.1342
   30MOL0     H 4016  11.527   3.558   0.798 -0.3819 -0.1571  1.4783
   30MOL0     H 4017  11.620   3.643   0.686  1.1266  1.8423  1.4420
   30MOL0     H 4018  11.633   3.836   0.840 -1.6064 -1.6280 -4.5846
   30MOL0     H 4019  11.544   3.755   0.961 -1.8282 -1.0175  0.1919
   30MOL0     H 4020  11.806   3.682   0.820  2.3741  1.9373  1.9160
   30MOL0     H 4021  11.715   3.560   0.923 -4.9887  1.6452  2.7159
   30MOL0     H 4022  11.887   3.662   1.065  0.0907  0.4416  1.1961
   30MOL0     H 4023  11.748   3.758   1.113  1.3843  1.7815  1.6691
   30MOL0     H 4024  11.960   3.841   0.904 -0.3251 -1.7618 -0.8828
   30MOL0     H 4025  11.809   3.926   0.945  2.6440  2.3599  1.0076
   30MOL0     H 4026  12.028   3.859   1.135  1.1452  0.2651 -0.1677
   30MOL0     H 4027  11.881   3.954   1.176 -4.0904  2.4554 -4.6693
   30MOL0     H 4028  12.098   4.105   1.123  1.5552 -0.8307 -0.6621
   30MOL0     H 4029  12.090   4.028   0.965 -2.6814 -0.3006 -1.0819
   30MOL0     H 4030  11.403   3.947   0.917 -1.2360  0.2199  1.0509
   30MOL0     H 4031  11.234   4.124   0.970  0.8390  0.4144 -0.6610
   30MOL0     H 4032  10.904   4.373   1.111  0.4954 -0.2310 -0.2206
   30MOL0     H 4033  10.760   4.557   1.136 -0.8604 -2.2615 -0.3165
   30MOL0     H 4034   9.376   5.440   0.050 -0.9086 -2.0461 -1.8094
   30MOL0     H 4035   9.184   5.361  -0.054  2.5866 -1.6035 -0.0321
   30MOL0     H 4036   8.674   5.000   0.018 -0.5363  2.7238  3.8861
   30MOL0     H 4037   8.500   5.018  -0.133  4.1726 -1.6523 -1.2012
   30MOL0     H 4038   8.257   5.297  -0.092  0.1959 -2.2557  2.3243
   30MOL0     H 4039   8.279   5.130  -0.128 -1.9250  0.1190 -0.0188
   30MOL0     H 4040   8.075   5.180  -0.204 -0.2085  0.8552  0.1544
   30MOL0     H 4041   8.155   5.140  -0.347 -1.9657 -1.7093  1.6254
   30MOL0     H 4042   8.104   5.437  -0.266  2.5283 -1.7729  1.7847
   30MOL0     H 4043   8.025   5.334  -0.396 -0.2571 -0.2272  0.3661
   30MOL0     H 4044   8.183   5.502  -0.476  0.6963  0.5308  1.7426
   30MOL0     H 4045   8.304   5.432  -0.369 -1.9093 -2.1204  3.3568
   30MOL0     H 4046   8.358   5.152  -0.660  1.9270  0.7171  0.2480
   30MOL0     H 4047   8.542   5.435  -0.155  1.2023  2.0715  3.4483
   30MOL0     H 4048   8.730   5.530  -0.081 -1.2601  0.2624  1.4417
   30MOL0     H 4049   8.752   5.475   0.095  0.8621 -1.2732  0.6149
   30MOL0     H 4050   8.872   5.446  -0.027 -0.4236  0.8394 -3.6270
   31MOL0     O 4051   1.932   6.017   7.294  0.4764  0.3497  0.1823
   31MOL0     C 4052   1.919   5.970   7.181 -0.6592 -0.1660 -0.4967
   31MOL0     O 4053   2.013   5.996   7.087  0.3334  0.2865 -0.0554
   31MOL0     C 4054   2.127   6.064   7.114 -0.0642  0.3020 -0.7082
   31MOL0     C 4055   2.131   6.189   7.175  0.2129 -0.4745  0.2822
   31MOL0     C 4056   2.253   6.259   7.199  0.8384 -0.2577  1.0578
   31MOL0     C 4057   2.383   6.202   7.161 -0.6961  0.5042 -0.1278
   31MOL0     O 4058   2.504   6.270   7.145 -0.0254 -0.1470  0.5455
   31MOL0     C 4059   2.523   6.393   7.224 -0.2032  0.4181  0.5077
   31MOL0     C 4060   2.652   6.456   7.178 -0.4577 -0.0550 -0.3738
   31MOL0     C 4061   2.661   6.496   7.036  0.0299 -0.1239 -0.0822
   31MOL0     C 4062   2.805   6.545   7.022  0.1144 -0.0938 -0.5181
   31MOL0     C 4063   2.831   6.621   6.899 -0.2048  0.5475  0.5710
   31MOL0     C 4064   2.775   6.762   6.903  0.0126 -0.6938 -0.6824
   31MOL0     C 4065   2.786   6.826   6.763  0.6138 -0.6376  0.2635
   31MOL0     C 4066   2.926   6.833   6.726 -0.2258 -0.4412 -0.2673
   31MOL0     N 4067   2.960   6.941   6.641  0.0159  0.4421  0.0955
   31MOL0     C 4068   2.939   6.930   6.514  0.0663 -0.5266  0.5966
   31MOL0     C 4069   2.938   7.061   6.461 -0.5975 -0.1765 -0.5475
   31MOL0     C 4070   2.910   7.127   6.331 -0.4295 -0.2510  0.5483
   31MOL0     C 4071   3.035   7.168   6.251 -0.6427  0.7424  0.9053
   31MOL0     C 4072   3.088   7.051   6.170 -0.2770 -0.4232 -0.2292
   31MOL0     C 4073   3.216   7.084   6.081  0.5236 -0.4770  0.0278
   31MOL0     O 4074   3.171   7.156   5.962  0.0014 -0.3856 -0.0397
   31MOL0     C 4075   3.247   7.160   5.850  0.4314  0.5657  0.3236
   31MOL0     C 4076   3.175   7.194   5.733 -0.3507  1.1437  0.5628
   31MOL0     C 4077   3.244   7.196   5.607  0.5441  0.1672  0.3180
   31MOL0     C 4078   3.382   7.179   5.608 -0.0460 -1.1393 -0.2629
   31MOL0     C 4079   3.447   7.186   5.472 -0.6239 -0.6304  0.2365
   31MOL0     O 4080   3.583   7.179   5.478 -0.5176  0.0568  0.1138
   31MOL0     C 4081   3.661   7.185   5.369 -0.3044  0.3323  0.1035
   31MOL0     C 4082   3.788   7.138   5.396  0.0814  0.6876 -0.6580
   31MOL0     C 4083   3.900   7.167   5.303 -0.2693  0.6574  0.3497
   31MOL0     C 4084   3.876   7.222   5.177  0.4001  0.0956 -0.1847
   31MOL0     O 4085   3.988   7.229   5.106 -0.6264 -0.4150 -0.7789
   31MOL0     C 4086   4.016   7.327   5.009 -0.3627  0.5221  0.7226
   31MOL0     C 4087   4.136   7.294   4.925  0.1921  0.1866 -0.5671
   31MOL0     C 4088   4.255   7.269   5.020 -1.1342 -0.9645 -0.0990
   31MOL0     C 4089   4.399   7.288   4.954 -0.7667  0.4646 -0.4503
   31MOL0     C 4090   4.434   7.432   4.897 -0.6312  1.3742 -0.8918
   31MOL0     C 4091   4.435   7.536   5.016 -0.1761  0.2749  0.3558
   31MOL0     C 4092   4.477   7.673   4.969 -0.4980 -0.0087 -0.9435
   31MOL0     C 4093   4.391   7.719   4.846  0.4601  0.1086 -0.8185
   31MOL0    Cl 4094   4.216   7.737   4.877  0.1244 -0.3916 -0.1059
   31MOL0     C 4095   3.746   7.280   5.153 -0.2715 -0.2290 -0.3435
   31MOL0     C 4096   3.643   7.257   5.246  0.2587 -0.6220  1.1262
   31MOL0     O 4097   3.378   7.214   5.370 -0.2007  0.3776  0.2409
   31MOL0     C 4098   3.452   7.170   5.731 -0.6417  0.2498  0.6559
   31MOL0     C 4099   3.382   7.153   5.853  0.7548  0.3005 -0.4489
   31MOL0     N 4100   2.967   7.143   6.568  0.2276  0.1294 -0.0077
   31MOL0     N 4101   2.981   7.070   6.670 -0.2640 -0.2658  0.0161
   31MOL0     C 4102   2.376   6.070   7.121 -0.3674  0.1820 -0.5803
   31MOL0     C 4103   2.255   6.008   7.101  0.7149  0.0662  0.7052
   31MOL0     C 4104   1.792   5.908   7.152  0.3798 -0.5162  1.1831
   31MOL0     C 4105   1.677   5.970   7.207  0.0986  0.2281  0.1914
   31MOL0     C 4106   1.550   5.923   7.188  0.2135 -0.1487  0.1294
   31MOL0     C 4107   1.527   5.809   7.113 -0.5489 -0.0142  0.0560
   31MOL0     O 4108   1.395   5.782   7.077 -0.2725  0.6406 -0.3888
   31MOL0     C 4109   1.356   5.723   6.948  0.6009  0.3377  0.6799
   31MOL0     C 4110   1.248   5.816   6.891  0.5313  0.6088  0.9083
   31MOL0     C 4111   1.290   5.960   6.878  0.5789 -0.4672 -0.3208
   31MOL0     C 4112   1.426   5.974   6.799  0.3132  0.0707  0.6086
   31MOL0     C 4113   1.418   6.077   6.699  1.3829  0.0533 -0.2293
   31MOL0     C 4114   1.399   6.165   6.619 -0.3775 -0.7248 -0.1476
   31MOL0     C 4115   1.649   5.741   7.069 -0.7171 -0.4665  0.0099
   31MOL0     C 4116   1.777   5.789   7.093  0.3886 -0.0894 -0.2526
   31MOL0     C 4117   1.896   5.701   7.054  0.2209  0.4655  0.2110
   31MOL0     H 4118   2.038   6.222   7.219  1.1940  0.9584  1.3814
   31MOL0     H 4119   2.249   6.366   7.216 -2.0992 -0.6519  3.8384
   31MOL0     H 4120   2.448   6.472   7.218  2.2486  2.9173  0.3077
   31MOL0     H 4121   2.537   6.373   7.331 -0.2962  1.5696  0.7475
   31MOL0     H 4122   2.741   6.394   7.191 -0.2211  0.3862  0.1395
   31MOL0     H 4123   2.657   6.546   7.240 -2.2599  0.5510 -1.0407
   31MOL0     H 4124   2.588   6.573   7.009  0.7422 -0.0968 -2.0452
   31MOL0     H 4125   2.644   6.409   6.971 -4.4926  1.2906 -1.1744
   31MOL0     H 4126   2.821   6.615   7.105 -0.8822 -1.9786  1.3867
   31MOL0     H 4127   2.865   6.454   7.031 -1.1520 -0.9905 -0.9077
   31MOL0     H 4128   2.940   6.617   6.893 -0.0966 -1.1881  2.3828
   31MOL0     H 4129   2.797   6.563   6.812  0.7457 -1.5191  1.4904
   31MOL0     H 4130   2.671   6.758   6.936 -0.3124  3.7928 -0.5785
   31MOL0     H 4131   2.822   6.819   6.983  3.6946 -2.7069 -1.1561
   31MOL0     H 4132   2.753   6.930   6.770 -0.9447 -1.0005 -1.0399
   31MOL0     H 4133   2.726   6.775   6.687 -0.1135 -0.7536  0.9010
   31MOL0     H 4134   2.992   6.833   6.813  1.1404 -3.3550 -1.1460
   31MOL0     H 4135   2.947   6.740   6.672 -2.5615 -1.8885  1.1552
   31MOL0     H 4136   2.928   6.835   6.461 -0.7088 -0.1426  0.0473
   31MOL0     H 4137   2.852   7.056   6.272  3.1415 -2.1325 -0.9862
   31MOL0     H 4138   2.850   7.217   6.351 -0.9620 -0.1548 -1.3002
   31MOL0     H 4139   3.005   7.258   6.198 -0.7155  1.1402  1.6159
   31MOL0     H 4140   3.119   7.200   6.314 -0.4540 -1.1028  1.6759
   31MOL0     H 4141   3.003   7.029   6.104 -1.5094  0.7205  0.9251
   31MOL0     H 4142   3.128   6.980   6.242  0.4161 -2.9706 -2.9115
   31MOL0     H 4143   3.269   6.996   6.044  0.4310  0.1791 -1.7370
   31MOL0     H 4144   3.285   7.140   6.145 -0.1865 -1.1194  1.4051
   31MOL0     H 4145   3.068   7.207   5.742 -0.4018  2.4400 -1.3517
   31MOL0     H 4146   3.180   7.207   5.521  2.6200  0.2855 -1.2948
   31MOL0     H 4147   3.806   7.091   5.492  0.4261 -1.5134 -1.7387
   31MOL0     H 4148   4.004   7.146   5.328  0.1812 -0.4853 -2.1398
   31MOL0     H 4149   3.922   7.329   4.952  1.2630  2.3346 -2.1622
   31MOL0     H 4150   4.034   7.428   5.047  0.3339  0.9120 -0.6055
   31MOL0     H 4151   4.114   7.201   4.871  1.8683 -2.7795  3.3339
   31MOL0     H 4152   4.161   7.382   4.866  1.0367  1.3050  1.3389
   31MOL0     H 4153   4.247   7.345   5.098  0.4845  1.1882 -1.9123
   31MOL0     H 4154   4.243   7.170   5.065 -0.1016 -0.8048  0.5542
   31MOL0     H 4155   4.400   7.215   4.873  1.5516  3.4616 -3.4456
   31MOL0     H 4156   4.481   7.270   5.025  1.5299  1.4277 -2.6892
   31MOL0     H 4157   4.359   7.448   4.819 -1.2529 -1.3256 -0.9204
   31MOL0     H 4158   4.535   7.432   4.853 -1.1352  1.7575 -2.0960
   31MOL0     H 4159   4.328   7.554   5.032  0.1711  2.8565  0.2813
   31MOL0     H 4160   4.488   7.502   5.105 -0.8339  0.0433  0.6680
   31MOL0     H 4161   4.579   7.665   4.931  0.1157  1.2785  0.3257
   31MOL0     H 4162   4.480   7.746   5.050  1.4878 -0.0794 -0.9067
   31MOL0     H 4163   4.430   7.814   4.809  0.7946 -0.2900 -1.4892
   31MOL0     H 4164   4.411   7.643   4.771 -0.3686 -1.9273  0.9293
   31MOL0     H 4165   3.742   7.322   5.053  0.1880 -0.9661 -0.6802
   31MOL0     H 4166   3.551   7.314   5.237  0.0220 -1.0614  0.6984
   31MOL0     H 4167   3.558   7.150   5.737 -0.6639 -1.9467 -3.3695
   31MOL0     H 4168   3.443   7.125   5.939  1.2629 -0.3926 -1.0185
   31MOL0     H 4169   2.466   6.016   7.091 -0.3896 -5.4344  6.7796
   31MOL0     H 4170   2.253   5.915   7.044  1.4521  0.8992 -0.7566
   31MOL0     H 4171   1.690   6.056   7.272  1.8367 -0.6321  1.0464
   31MOL0     H 4172   1.470   5.979   7.235  2.0102  1.3437  1.5611
   31MOL0     H 4173   1.334   5.617   6.959  2.5895 -0.1157  0.6123
   31MOL0     H 4174   1.450   5.722   6.891  0.9287 -2.4446  1.1162
   31MOL0     H 4175   1.158   5.798   6.951 -2.7230  5.5497 -1.7188
   31MOL0     H 4176   1.224   5.774   6.792  1.5756 -1.4998  1.4911
   31MOL0     H 4177   1.310   5.992   6.981 -1.4417 -1.4633  0.4413
   31MOL0     H 4178   1.211   6.028   6.847  0.2202  0.4751  2.3649
   31MOL0     H 4179   1.511   5.991   6.865 -0.1412  0.0290  1.2124
   31MOL0     H 4180   1.455   5.881   6.749  0.7030 -0.6887  2.1863
   31MOL0     H 4181   1.391   6.249   6.552 -0.5209  1.6031  2.6192
   31MOL0     H 4182   1.635   5.650   7.012 -2.6358 -0.4396  0.3946
   31MOL0     H 4183   1.931   5.634   7.133 -1.7270 -0.8660  0.0012
   31MOL0     H 4184   1.870   5.629   6.975 -1.0322 -0.8069  1.7283
   31MOL0     H 4185   1.980   5.757   7.011 -0.1319  0.3690 -0.6302
   32MOL0     O 4186   2.629   9.526   8.942 -0.5508  0.8282  0.2980
   32MOL0     C 4187   2.511   9.571   8.948 -0.3396 -0.0794 -0.1283
   32MOL0     O 4188   2.471   9.697   8.936 -0.2100  0.1894 -0.2087
   32MOL0     C 4189   2.554   9.801   8.900 -0.4916  0.3575 -1.1949
   32MOL0     C 4190   2.544   9.859   8.777 -0.0534 -0.8873 -1.4900
   32MOL0     C 4191   2.624   9.970   8.737  0.1886 -0.5832 -1.2325
   32MOL0     C 4192   2.723  10.017   8.826  0.1824 -0.0863 -0.2786
   32MOL0     O 4193   2.802  10.115   8.781  1.0326 -0.6948 -0.3694
   32MOL0     C 4194   2.892  10.183   8.870  1.7502  0.0986  0.8067
   32MOL0     C 4195   2.893  10.328   8.821 -0.2421 -0.7068 -1.0325
   32MOL0     C 4196   3.025  10.403   8.872  0.3353 -0.7438 -0.5447
   32MOL0     C 4197   3.045  10.538   8.801 -0.5843  0.4484  0.8684
   32MOL0     C 4198   3.197  10.588   8.806 -0.0556  0.0194 -0.2634
   32MOL0     C 4199   3.276  10.549   8.937 -0.2534 -0.2879  0.3463
   32MOL0     C 4200   3.402  10.628   8.960 -0.4951 -0.0511 -0.0834
   32MOL0     C 4201   3.404  10.765   8.899  0.6285 -0.4680  0.4564
   32MOL0     N 4202   3.448  10.777   8.755  0.6050 -0.0650 -0.1070
   32MOL0     C 4203   3.568  10.787   8.702 -0.1177  0.0817  0.6052
   32MOL0     C 4204   3.554  10.804   8.574  0.2988  0.1162  1.0968
   32MOL0     C 4205   3.653  10.836   8.465 -0.3668  0.4912  0.3251
   32MOL0     C 4206   3.702  10.986   8.456 -0.4844 -0.7111  0.1565
   32MOL0     C 4207   3.845  10.996   8.411 -0.4091  0.2682  0.3618
   32MOL0     C 4208   3.866  10.946   8.266  0.2369  0.7673  0.1158
   32MOL0     O 4209   3.754  10.981   8.179 -0.5206 -0.0570  0.6507
   32MOL0     C 4210   3.766  10.975   8.042  0.0712 -0.9696 -0.1602
   32MOL0     C 4211   3.746  10.859   7.963 -0.9596 -0.4921  0.0380
   32MOL0     C 4212   3.794  10.861   7.826  0.0378  0.3065  0.3164
   32MOL0     C 4213   3.842  10.974   7.762  0.3384 -0.0785 -0.7238
   32MOL0     C 4214   3.871  10.973   7.622  0.4357 -0.3925 -0.0578
   32MOL0     O 4215   3.927  11.085   7.575  0.1710 -0.0680  0.0354
   32MOL0     C 4216   3.977  11.102   7.446  0.4348  0.3006  1.0110
   32MOL0     C 4217   3.946  11.226   7.378 -0.0226 -0.0169 -0.2978
   32MOL0     C 4218   4.001  11.264   7.254 -0.1274 -0.0257 -0.6924
   32MOL0     C 4219   4.080  11.170   7.192 -0.3379  0.0283  0.3400
   32MOL0     O 4220   4.141  11.197   7.072  0.6331  0.4679  0.3848
   32MOL0     C 4221   4.057  11.247   6.967  0.1701 -0.3005 -0.2378
   32MOL0     C 4222   3.942  11.137   6.943  1.2231 -0.1866 -0.2455
   32MOL0     C 4223   3.888  11.159   6.810 -0.1469  0.3137  0.8329
   32MOL0     C 4224   3.789  11.052   6.762  0.8647  0.5364 -0.1418
   32MOL0     C 4225   3.742  11.074   6.621 -0.4681 -0.2444  0.1161
   32MOL0     C 4226   3.643  10.969   6.564 -0.4012  0.2173  0.1107
   32MOL0     C 4227   3.541  11.014   6.462 -0.1857 -0.3595 -0.4606
   32MOL0     C 4228   3.422  10.915   6.448 -0.5592 -0.3708  0.0614
   32MOL0    Cl 4229   3.346  10.893   6.605 -0.3339 -0.6898 -0.0599
   32MOL0     C 4230   4.113  11.049   7.254 -0.1627  0.9164 -0.3764
   32MOL0     C 4231   4.055  11.007   7.380 -0.8678 -0.0704  0.2149
   32MOL0     O 4232   3.875  10.863   7.568 -0.1279 -0.1559 -0.3653
   32MOL0     C 4233   3.853  11.092   7.839 -0.2414 -0.0216 -0.2678
   32MOL0     C 4234   3.825  11.087   7.978  0.4280  0.3150 -0.0743
   32MOL0     N 4235   3.425  10.814   8.544 -0.6823 -0.4554 -0.1672
   32MOL0     N 4236   3.366  10.802   8.656  0.0128 -0.9262  0.1675
   32MOL0     C 4237   2.738   9.949   8.944 -0.0957 -0.8076 -0.9055
   32MOL0     C 4238   2.646   9.850   8.991  0.0245 -0.4262 -1.0317
   32MOL0     C 4239   2.412   9.467   8.962  0.8597  0.2761 -1.1905
   32MOL0     C 4240   2.280   9.513   8.987 -0.2572 -0.1473 -0.2933
   32MOL0     C 4241   2.172   9.425   9.004 -0.1719 -0.4894 -0.2199
   32MOL0     C 4242   2.182   9.288   8.982 -0.4886 -1.3016 -0.5131
   32MOL0     O 4243   2.069   9.205   8.992 -0.0459 -0.0500  0.2988
   32MOL0     C 4244   2.086   9.065   9.002 -0.1904  0.7026 -0.7417
   32MOL0     C 4245   1.968   8.990   9.058  0.4812 -0.3720 -0.7503
   32MOL0     C 4246   1.861   9.076   9.117 -0.4018  0.2070 -1.1670
   32MOL0     C 4247   1.749   8.980   9.161 -0.3515  0.3432  0.2480
   32MOL0     C 4248   1.675   9.034   9.277  0.0077 -0.3503 -0.6524
   32MOL0     C 4249   1.628   9.072   9.379 -0.4799  1.1971 -0.0275
   32MOL0     C 4250   2.316   9.247   8.978 -0.2243 -1.0722  0.8463
   32MOL0     C 4251   2.429   9.331   8.963  0.0778  0.0354  0.2253
   32MOL0     C 4252   2.568   9.260   8.960  0.1493 -1.1068  0.1699
   32MOL0     H 4253   2.480   9.802   8.711 -1.8345 -2.4348  1.3785
   32MOL0     H 4254   2.617  10.018   8.640 -2.6752  1.6306 -0.0489
   32MOL0     H 4255   2.876  10.188   8.978 -3.6544 -2.1191  0.4255
   32MOL0     H 4256   2.988  10.133   8.853  0.8959 -1.9527  1.7496
   32MOL0     H 4257   2.801  10.378   8.849 -0.4465 -1.9562  0.7024
   32MOL0     H 4258   2.904  10.317   8.712  1.3265 -0.5117 -0.9263
   32MOL0     H 4259   3.110  10.336   8.860  2.3168  1.7049 -1.0318
   32MOL0     H 4260   3.027  10.440   8.975  4.5317 -0.6133 -0.5299
   32MOL0     H 4261   3.007  10.519   8.700  2.7824 -0.6471 -0.3173
   32MOL0     H 4262   2.979  10.619   8.835 -1.2149  0.6595 -0.7568
   32MOL0     H 4263   3.255  10.554   8.720 -1.1288 -0.4857 -0.8141
   32MOL0     H 4264   3.192  10.697   8.792  1.3966  0.1983  0.4490
   32MOL0     H 4265   3.216  10.551   9.029 -1.7316 -0.0574 -0.5850
   32MOL0     H 4266   3.296  10.442   8.927  3.1430  0.1041  1.5312
   32MOL0     H 4267   3.486  10.574   8.917 -1.8053 -0.4214 -2.3571
   32MOL0     H 4268   3.421  10.649   9.066  2.8222 -1.6020 -0.2479
   32MOL0     H 4269   3.308  10.817   8.904  1.6526  2.4622 -3.9538
   32MOL0     H 4270   3.471  10.832   8.953  0.7527  0.2293 -0.5420
   32MOL0     H 4271   3.661  10.767   8.755  0.6574 -1.3500 -1.1755
   32MOL0     H 4272   3.730  10.762   8.485 -1.7401 -0.4136  2.8007
   32MOL0     H 4273   3.614  10.817   8.365  1.0341  2.1630 -0.5901
   32MOL0     H 4274   3.639  11.035   8.381  0.5248 -2.5519 -2.0278
   32MOL0     H 4275   3.687  11.023   8.558 -1.4910  0.3818 -0.3699
   32MOL0     H 4276   3.920  10.942   8.469 -1.0836  0.8268  1.8033
   32MOL0     H 4277   3.877  11.100   8.423  0.3049  0.1055 -0.0397
   32MOL0     H 4278   3.877  10.837   8.276  0.0888  0.9254  2.6407
   32MOL0     H 4279   3.964  10.979   8.231  1.3091 -0.7614  1.4784
   32MOL0     H 4280   3.692  10.775   8.006  0.3101 -0.1039  2.5931
   32MOL0     H 4281   3.775  10.773   7.765 -0.2303  1.9484 -2.0982
   32MOL0     H 4282   3.883  11.285   7.444  0.9806 -1.2821  1.9250
   32MOL0     H 4283   3.980  11.360   7.208 -0.0753  0.5368  0.4011
   32MOL0     H 4284   4.012  11.340   7.005  1.6452  0.5691 -0.5445
   32MOL0     H 4285   4.113  11.279   6.879 -1.2410  1.5040 -0.5489
   32MOL0     H 4286   3.978  11.033   6.948 -2.6849 -1.8613 -2.3533
   32MOL0     H 4287   3.859  11.137   7.013  1.5676 -1.9932  0.2306
   32MOL0     H 4288   3.849  11.261   6.798 -8.2286 -2.3126 -1.3189
   32MOL0     H 4289   3.973  11.149   6.742 -0.2318  4.3531 -0.1400
   32MOL0     H 4290   3.705  11.044   6.832  0.1074  0.7045 -1.0111
   32MOL0     H 4291   3.845  10.959   6.767  0.2996  0.0657 -1.9943
   32MOL0     H 4292   3.825  11.071   6.550 -1.8373 -1.6837 -1.5274
   32MOL0     H 4293   3.695  11.172   6.611  0.0236 -0.1163 -1.1323
   32MOL0     H 4294   3.705  10.891   6.519  0.5910  1.0204  0.0504
   32MOL0     H 4295   3.589  10.922   6.647 -1.6249  0.3894 -0.5695
   32MOL0     H 4296   3.592  11.030   6.367  0.8975 -2.0191 -0.1984
   32MOL0     H 4297   3.501  11.111   6.495  0.7421  0.7805 -2.4979
   32MOL0     H 4298   3.349  10.940   6.371  2.3093 -0.1636 -2.8484
   32MOL0     H 4299   3.459  10.819   6.409 -0.4847 -0.1176 -0.5099
   32MOL0     H 4300   4.182  10.990   7.195 -0.4123  1.0849 -0.8378
   32MOL0     H 4301   4.081  10.915   7.431 -1.9885 -1.0480 -0.8718
   32MOL0     H 4302   3.888  11.189   7.805 -0.9992  0.9694  1.5635
   32MOL0     H 4303   3.857  11.164   8.048  3.5294  0.7777 -1.8184
   32MOL0     H 4304   2.811   9.970   9.021 -1.1183  1.0196 -0.3790
   32MOL0     H 4305   2.656   9.804   9.088  0.5126 -0.8465 -1.2766
   32MOL0     H 4306   2.263   9.620   8.995 -1.8998 -0.2371 -1.8673
   32MOL0     H 4307   2.071   9.458   9.027  0.5150 -0.6901  3.7911
   32MOL0     H 4308   2.164   9.046   9.076 -1.0514 -1.4266 -0.3075
   32MOL0     H 4309   2.111   9.013   8.909 -3.5339  0.2518 -1.5256
   32MOL0     H 4310   2.007   8.922   9.134  1.4734 -1.8128 -2.4611
   32MOL0     H 4311   1.923   8.923   8.984 -0.6522  0.1619 -0.5748
   32MOL0     H 4312   1.832   9.154   9.046 -1.3706 -0.0534 -1.0662
   32MOL0     H 4313   1.896   9.126   9.207 -3.5149  1.1674 -0.3728
   32MOL0     H 4314   1.675   8.965   9.083 -3.5924  1.7267  2.8045
   32MOL0     H 4315   1.797   8.887   9.193  1.7013  0.3615 -2.4073
   32MOL0     H 4316   1.571   9.087   9.468 -3.0268 -2.4801 -0.8076
   32MOL0     H 4317   2.354   9.145   8.981  0.9990 -0.6268  1.3538
   32MOL0     H 4318   2.618   9.294   9.052  0.0574  3.5919 -1.2259
   32MOL0     H 4319   2.569   9.152   8.948  2.9467 -0.8367 -3.6814
   32MOL0     H 4320   2.611   9.308   8.872 -0.4874  3.5489  2.0618
   33MOL0     O 4321   3.754   8.146   4.177  0.0348  0.3431 -0.4396
   33MOL0     C 4322   3.813   8.098   4.278 -0.1849 -0.4877 -0.5167
   33MOL0     O 4323   3.757   8.041   4.389  0.6671  0.2654 -0.4136
   33MOL0     C 4324   3.637   7.981   4.387  0.4442 -0.2475 -1.1971
   33MOL0     C 4325   3.610   7.876   4.308 -0.1286  0.3203  0.0678
   33MOL0     C 4326   3.483   7.812   4.315 -0.0567  0.6659 -0.7371
   33MOL0     C 4327   3.386   7.848   4.418  0.5904  0.7219  0.1065
   33MOL0     O 4328   3.281   7.762   4.426 -0.0121 -0.4198 -0.7621
   33MOL0     C 4329   3.185   7.789   4.529  1.0474 -0.4981  0.4690
   33MOL0     C 4330   3.057   7.710   4.505  0.6469  1.2306  0.6856
   33MOL0     C 4331   2.963   7.781   4.404  0.6573  0.2535 -0.9721
   33MOL0     C 4332   2.928   7.919   4.444 -0.0642  0.7094  0.2641
   33MOL0     C 4333   2.834   7.970   4.340 -0.4548 -1.2443  0.4850
   33MOL0     C 4334   2.810   8.117   4.375 -0.8156  0.3917 -0.1732
   33MOL0     C 4335   2.735   8.195   4.261  0.3537  0.1240  0.2598
   33MOL0     C 4336   2.804   8.190   4.124  0.0918  0.5602  0.0234
   33MOL0     N 4337   2.755   8.287   4.039  0.1811 -0.7113 -0.2349
   33MOL0     C 4338   2.807   8.417   4.029 -0.5017 -0.3482  0.3544
   33MOL0     C 4339   2.731   8.489   3.943 -0.0979  0.0481  0.8452
   33MOL0     C 4340   2.762   8.634   3.912 -0.5197  0.8043 -0.1227
   33MOL0     C 4341   2.773   8.661   3.755 -0.5666  0.1012 -0.1339
   33MOL0     C 4342   2.923   8.686   3.724 -0.2774 -0.6395  0.0890
   33MOL0     C 4343   2.935   8.730   3.578  0.7589 -0.7446 -0.4411
   33MOL0     O 4344   2.914   8.875   3.567 -0.3110  0.3174 -0.3147
   33MOL0     C 4345   2.980   8.946   3.466  0.4713 -1.5670 -0.6638
   33MOL0     C 4346   3.000   8.874   3.343  0.6046 -0.8889 -0.2473
   33MOL0     C 4347   3.074   8.946   3.252 -0.3057  0.4824 -1.3230
   33MOL0     C 4348   3.136   9.072   3.270  0.6366 -0.1533 -0.8733
   33MOL0     C 4349   3.218   9.150   3.177 -0.3483  0.7225  0.2197
   33MOL0     O 4350   3.266   9.274   3.224  0.8948 -0.2155  0.5996
   33MOL0     C 4351   3.384   9.323   3.179 -0.0815  0.0277  0.4049
   33MOL0     C 4352   3.495   9.247   3.134  0.3264 -0.1440 -0.3699
   33MOL0     C 4353   3.613   9.305   3.109 -0.8665  0.0872 -0.0954
   33MOL0     C 4354   3.630   9.447   3.107  0.2840  0.4039 -0.1122
   33MOL0     O 4355   3.760   9.492   3.089 -0.3954 -0.3806  0.1318
   33MOL0     C 4356   3.798   9.622   3.125 -0.6995 -0.4033  0.0209
   33MOL0     C 4357   3.946   9.651   3.126 -0.8674 -0.7753 -0.4633
   33MOL0     C 4358   4.001   9.620   3.267  0.0067  0.5487  0.9594
   33MOL0     C 4359   4.145   9.677   3.275 -0.5830  0.8694 -0.3994
   33MOL0     C 4360   4.212   9.638   3.410 -0.6175 -0.3128  0.3356
   33MOL0     C 4361   4.363   9.680   3.404  0.4341 -0.1763 -0.3186
   33MOL0     C 4362   4.360   9.831   3.439  0.5823 -0.2724  0.2554
   33MOL0     C 4363   4.500   9.878   3.429 -0.5633 -0.4124  0.3840
   33MOL0    Cl 4364   4.513  10.049   3.506  0.2890 -0.4029 -0.5948
   33MOL0     C 4365   3.522   9.528   3.146  0.6384  0.3253  0.0217
   33MOL0     C 4366   3.393   9.471   3.179  0.0141  0.0109 -0.4175
   33MOL0     O 4367   3.243   9.109   3.061  0.7876  0.0106  0.0962
   33MOL0     C 4368   3.109   9.138   3.398 -0.6566 -0.0433 -0.2284
   33MOL0     C 4369   3.025   9.078   3.486 -0.3743  1.4030 -1.0623
   33MOL0     N 4370   2.630   8.411   3.910 -0.6109  0.6040 -0.2074
   33MOL0     N 4371   2.645   8.286   3.957  0.0568  0.1868 -0.5409
   33MOL0     C 4372   3.421   7.958   4.503 -0.1687 -0.7322  0.6445
   33MOL0     C 4373   3.539   8.025   4.481  0.2861  0.0576 -0.0074
   33MOL0     C 4374   3.952   8.137   4.287  0.3604 -0.0553  0.6974
   33MOL0     C 4375   4.002   8.191   4.405 -0.4795 -0.5181 -0.3734
   33MOL0     C 4376   4.137   8.220   4.406 -0.2142 -0.6044  0.6019
   33MOL0     C 4377   4.220   8.222   4.294  0.5235  0.7017  0.2161
   33MOL0     O 4378   4.353   8.275   4.296 -0.2822 -0.4753  0.9656
   33MOL0     C 4379   4.453   8.213   4.221 -0.2483 -0.7584 -0.0535
   33MOL0     C 4380   4.487   8.082   4.289 -0.7910  0.0449  0.2696
   33MOL0     C 4381   4.529   8.108   4.434  0.2144 -0.0988  0.1753
   33MOL0     C 4382   4.522   7.972   4.513 -0.2928 -0.5750 -0.3932
   33MOL0     C 4383   4.383   7.940   4.551 -0.6295 -0.0213 -0.0949
   33MOL0     C 4384   4.260   7.931   4.574 -0.4954 -0.1505 -0.6545
   33MOL0     C 4385   4.169   8.171   4.175  0.2102 -0.2475 -1.2339
   33MOL0     C 4386   4.036   8.122   4.170  0.9179 -0.1855 -0.6166
   33MOL0     C 4387   3.989   8.057   4.030  0.9924 -0.3555  0.0694
   33MOL0     H 4388   3.688   7.839   4.242 -0.6796 -1.4120  0.3340
   33MOL0     H 4389   3.463   7.727   4.251  0.4386  1.3803 -1.8694
   33MOL0     H 4390   3.219   7.762   4.629 -0.4800  1.3463  1.5578
   33MOL0     H 4391   3.169   7.898   4.523  0.5346 -0.5410  0.9619
   33MOL0     H 4392   3.014   7.688   4.603  0.9360  1.5646  0.8920
   33MOL0     H 4393   3.086   7.615   4.459 -0.8307 -0.9386  3.9174
   33MOL0     H 4394   2.872   7.721   4.399  0.4572  0.4993 -0.3378
   33MOL0     H 4395   3.004   7.793   4.303  2.8384  0.7661 -0.0836
   33MOL0     H 4396   2.883   7.929   4.543 -1.2077  3.8473 -0.4497
   33MOL0     H 4397   3.018   7.980   4.434 -0.1880  0.5947 -2.0899
   33MOL0     H 4398   2.878   7.964   4.240  0.3240 -2.4262  0.8844
   33MOL0     H 4399   2.741   7.913   4.326 -1.2934  0.5235 -1.7693
   33MOL0     H 4400   2.749   8.119   4.466 -1.3219  3.0635 -0.4703
   33MOL0     H 4401   2.903   8.170   4.398  0.8774 -3.7084  3.9133
   33MOL0     H 4402   2.737   8.300   4.292 -2.8129 -0.0373  1.3216
   33MOL0     H 4403   2.630   8.164   4.257  0.1656  0.5364  1.4842
   33MOL0     H 4404   2.911   8.187   4.147 -0.5628 -0.9341  3.4314
   33MOL0     H 4405   2.782   8.099   4.068 -0.6554  1.4545 -1.1977
   33MOL0     H 4406   2.902   8.436   4.077 -0.0147 -3.3620  0.7716
   33MOL0     H 4407   2.669   8.683   3.944 -0.9471 -1.3464  2.1843
   33MOL0     H 4408   2.853   8.672   3.959 -1.0221  1.4702  0.3268
   33MOL0     H 4409   2.740   8.572   3.699 -0.7718  1.7272 -2.7421
   33MOL0     H 4410   2.710   8.746   3.730  3.6079  3.8650  0.9276
   33MOL0     H 4411   2.966   8.587   3.739 -1.9971 -1.0680  3.1142
   33MOL0     H 4412   2.969   8.763   3.786 -1.4607 -0.0084  0.2251
   33MOL0     H 4413   2.859   8.678   3.519 -1.9836 -1.4485  3.3105
   33MOL0     H 4414   3.037   8.710   3.544  1.2327  1.8030 -0.7406
   33MOL0     H 4415   2.956   8.778   3.322 -0.6754  0.1155 -2.6113
   33MOL0     H 4416   3.087   8.904   3.153 -0.9290 -0.1816 -1.1287
   33MOL0     H 4417   3.475   9.142   3.115  0.5774 -0.8720  2.8375
   33MOL0     H 4418   3.700   9.245   3.084  0.1505  2.1929 -2.0609
   33MOL0     H 4419   3.755   9.685   3.046  1.5711  2.0382  0.5531
   33MOL0     H 4420   3.759   9.644   3.224 -0.3043  0.7455 -0.0646
   33MOL0     H 4421   4.001   9.590   3.053 -2.6670 -4.7729  1.2715
   33MOL0     H 4422   3.987   9.748   3.094  3.9756 -2.0095  1.0779
   33MOL0     H 4423   3.935   9.644   3.350 -5.3993 -2.0258 -2.0640
   33MOL0     H 4424   3.998   9.510   3.263  0.6962  0.5454 -2.2415
   33MOL0     H 4425   4.140   9.785   3.260 -1.2997  1.0858  1.1879
   33MOL0     H 4426   4.208   9.634   3.197 -0.4676  1.9251 -0.9033
   33MOL0     H 4427   4.213   9.529   3.419 -1.5739 -0.3239  0.3541
   33MOL0     H 4428   4.162   9.686   3.494 -1.4606  1.5064 -1.1239
   33MOL0     H 4429   4.418   9.620   3.476  2.9043  1.4154 -0.7425
   33MOL0     H 4430   4.414   9.664   3.308  2.5980 -2.5959  1.1081
   33MOL0     H 4431   4.326   9.838   3.542 -2.1660  1.3798 -0.6510
   33MOL0     H 4432   4.297   9.892   3.373  0.9760  1.9889  1.8733
   33MOL0     H 4433   4.571   9.801   3.462 -3.7998 -4.0809 -0.4860
   33MOL0     H 4434   4.525   9.888   3.323 -1.6278 -1.3844  0.0304
   33MOL0     H 4435   3.537   9.635   3.146 -0.7660  0.5483  0.8689
   33MOL0     H 4436   3.306   9.533   3.198  1.6869  2.2018  0.3808
   33MOL0     H 4437   3.174   9.222   3.423 -1.6581  0.3056  1.3407
   33MOL0     H 4438   2.999   9.124   3.580 -1.3337  0.4182 -0.8162
   33MOL0     H 4439   3.370   7.987   4.594 -0.8062 -1.5324  0.5610
   33MOL0     H 4440   3.571   8.102   4.550  0.6806 -1.4909  1.6084
   33MOL0     H 4441   3.965   8.193   4.507  0.3681  2.3181 -0.0499
   33MOL0     H 4442   4.188   8.237   4.500 -0.8530  0.8671  0.7067
   33MOL0     H 4443   4.542   8.276   4.215 -0.3618 -0.1694  2.9112
   33MOL0     H 4444   4.423   8.188   4.119 -0.9146 -3.7610  0.7717
   33MOL0     H 4445   4.571   8.037   4.236  0.1151 -1.0600  2.5065
   33MOL0     H 4446   4.402   8.015   4.277 -0.6679 -0.0272 -0.2402
   33MOL0     H 4447   4.480   8.189   4.489  1.3510  0.7400 -0.0050
   33MOL0     H 4448   4.630   8.151   4.435 -0.1879  0.9830 -1.9357
   33MOL0     H 4449   4.569   7.884   4.469  0.0080  0.2641 -1.8395
   33MOL0     H 4450   4.576   8.001   4.603  2.6186  0.6983 -2.4189
   33MOL0     H 4451   4.158   7.930   4.606  0.6211 -1.5324  3.3812
   33MOL0     H 4452   4.232   8.163   4.087  1.6596 -0.0526 -0.2438
   33MOL0     H 4453   3.930   8.129   3.973  2.4822 -1.4201 -2.9921
   33MOL0     H 4454   4.073   8.024   3.968 -1.0333 -1.8978 -1.9581
   33MOL0     H 4455   3.927   7.969   4.044  1.8275 -0.6232  2.8126
   34MOL0     O 4456   3.206   3.029   2.545 -0.0419 -0.0358  0.4763
   34MOL0     C 4457   3.292   2.993   2.465  0.4275 -0.1351  0.7049
   34MOL0     O 4458   3.285   2.991   2.334  0.8731 -0.4250  1.1080
   34MOL0     C 4459   3.158   2.954   2.282  0.2987 -0.0221 -0.3263
   34MOL0     C 4460   3.098   2.835   2.320 -0.1077 -0.0820  0.3358
   34MOL0     C 4461   2.985   2.774   2.263 -0.0222 -0.0527 -0.5328
   34MOL0     C 4462   2.922   2.841   2.157 -1.1399 -0.3929 -0.3605
   34MOL0     O 4463   2.821   2.801   2.073  0.4394  0.1542  0.3516
   34MOL0     C 4464   2.736   2.716   2.147 -0.2034  0.5489  0.4972
   34MOL0     C 4465   2.622   2.668   2.051  0.4734  0.2150 -0.7091
   34MOL0     C 4466   2.504   2.587   2.114 -0.3699  0.2169 -0.7461
   34MOL0     C 4467   2.541   2.484   2.214 -0.2662  0.4820 -0.6099
   34MOL0     C 4468   2.414   2.424   2.283 -0.0606 -0.7465  0.7460
   34MOL0     C 4469   2.456   2.345   2.405 -0.4630  0.8556 -0.4217
   34MOL0     C 4470   2.344   2.275   2.474  0.2852  0.7713  0.0047
   34MOL0     C 4471   2.228   2.356   2.512 -0.0004 -0.8533 -0.9365
   34MOL0     N 4472   2.149   2.316   2.631  0.7751  0.3954  0.8695
   34MOL0     C 4473   2.028   2.254   2.630 -1.0945  0.5112  0.7282
   34MOL0     C 4474   2.001   2.219   2.754  0.7477  0.0801  0.5452
   34MOL0     C 4475   1.889   2.130   2.799  0.7559  0.7769 -0.6922
   34MOL0     C 4476   1.747   2.185   2.767  0.1098 -0.3919 -0.0249
   34MOL0     C 4477   1.616   2.104   2.773 -0.5796  0.3154 -0.2685
   34MOL0     C 4478   1.623   2.030   2.908  0.8364 -0.3528  1.2105
   34MOL0     O 4479   1.617   2.134   3.010 -0.0538 -0.1456  0.3400
   34MOL0     C 4480   1.504   2.204   3.035 -0.2897  0.2951 -0.5196
   34MOL0     C 4481   1.372   2.181   2.994 -1.1003 -0.0701  0.1703
   34MOL0     C 4482   1.265   2.259   3.043 -1.3192  0.7222  0.3649
   34MOL0     C 4483   1.290   2.353   3.140 -0.0553  0.3477  0.2768
   34MOL0     C 4484   1.170   2.429   3.193 -0.0668  0.3499  0.1026
   34MOL0     O 4485   1.199   2.527   3.280 -0.7852  0.1377 -0.9620
   34MOL0     C 4486   1.111   2.621   3.341 -0.6755  0.4719  0.3750
   34MOL0     C 4487   1.171   2.728   3.421  0.3124  0.6200 -0.5986
   34MOL0     C 4488   1.095   2.840   3.454  0.0646 -0.5726  0.2458
   34MOL0     C 4489   0.962   2.851   3.426 -0.7885 -0.9082  0.5164
   34MOL0     O 4490   0.899   2.968   3.456  0.0846  0.1988  0.6124
   34MOL0     C 4491   0.769   3.010   3.412  0.9003  0.5364 -0.0157
   34MOL0     C 4492   0.726   3.152   3.442  0.3556 -1.4469  0.3178
   34MOL0     C 4493   0.567   3.168   3.449  0.1265  0.3820 -0.1166
   34MOL0     C 4494   0.490   3.184   3.317 -1.6978 -0.5298  0.8147
   34MOL0     C 4495   0.342   3.223   3.336 -0.0957  0.0311  0.5594
   34MOL0     C 4496   0.270   3.129   3.426  0.8560  0.4025  0.6179
   34MOL0     C 4497   0.131   3.178   3.456 -1.0996 -0.5994  0.4037
   34MOL0     C 4498   0.125   3.302   3.545  0.2709  0.6843  0.3532
   34MOL0    Cl 4499  -0.039   3.356   3.591 -0.2938  0.1602  0.1294
   34MOL0     C 4500   0.905   2.752   3.347 -0.9570 -0.4413  0.0091
   34MOL0     C 4501   0.978   2.641   3.309  0.2667  0.0857 -0.6957
   34MOL0     O 4502   1.056   2.391   3.168 -0.0596 -0.6033 -0.4723
   34MOL0     C 4503   1.416   2.371   3.189 -0.2918 -0.2175  0.5309
   34MOL0     C 4504   1.520   2.300   3.133  0.3401  0.1863 -0.2347
   34MOL0     N 4505   2.105   2.270   2.830 -0.9915 -0.2635  0.0181
   34MOL0     N 4506   2.187   2.335   2.756  0.3038  0.1411  0.5731
   34MOL0     C 4507   2.971   2.963   2.123 -0.2357 -0.4777  0.0326
   34MOL0     C 4508   3.092   3.021   2.180 -0.1826  0.9038 -0.2444
   34MOL0     C 4509   3.430   2.972   2.522  0.0395 -0.1389  0.4283
   34MOL0     C 4510   3.489   3.074   2.596  0.0812  0.3455  0.1041
   34MOL0     C 4511   3.609   3.064   2.659  0.1758 -0.2183 -0.3469
   34MOL0     C 4512   3.690   2.958   2.623  0.0660 -0.3765 -0.2115
   34MOL0     O 4513   3.800   2.945   2.703  0.7468  0.6842  0.5891
   34MOL0     C 4514   3.768   2.840   2.808 -0.7305 -0.6816 -0.7924
   34MOL0     C 4515   3.882   2.828   2.904  0.5504  0.0079  0.3044
   34MOL0     C 4516   4.008   2.787   2.832 -0.0281  0.2385 -0.4071
   34MOL0     C 4517   3.998   2.647   2.758  0.0591  0.0626 -0.3710
   34MOL0     C 4518   4.122   2.607   2.689  0.7158 -0.0252  0.9385
   34MOL0     C 4519   4.233   2.573   2.647 -0.0016  0.2906  0.9103
   34MOL0     C 4520   3.633   2.851   2.552  0.8583 -0.5300  0.3472
   34MOL0     C 4521   3.501   2.855   2.505  0.6668  0.8724  0.7049
   34MOL0     C 4522   3.452   2.722   2.434  0.1640 -0.3649  0.3688
   34MOL0     H 4523   3.143   2.773   2.397 -1.0487  0.2357  1.1620
   34MOL0     H 4524   2.947   2.678   2.296  0.3430 -0.0948 -0.2321
   34MOL0     H 4525   2.791   2.624   2.168  0.1086  0.3744 -0.9564
   34MOL0     H 4526   2.701   2.772   2.234 -1.0093  0.5393  0.1829
   34MOL0     H 4527   2.669   2.603   1.976  2.6771  2.2441 -1.1999
   34MOL0     H 4528   2.580   2.757   2.004  0.3930  0.5072 -0.0837
   34MOL0     H 4529   2.446   2.537   2.037  1.0129 -0.8271 -1.1543
   34MOL0     H 4530   2.441   2.659   2.167  0.1625  0.7741 -0.8560
   34MOL0     H 4531   2.607   2.425   2.150  0.6665  1.2742 -0.4195
   34MOL0     H 4532   2.597   2.532   2.295 -0.4139  4.0230 -2.3870
   34MOL0     H 4533   2.354   2.507   2.321 -0.9601 -1.0832  0.1053
   34MOL0     H 4534   2.352   2.366   2.214 -3.0371  1.5018  1.3226
   34MOL0     H 4535   2.545   2.284   2.383 -0.6870  0.3150  0.1446
   34MOL0     H 4536   2.502   2.413   2.477 -0.2652 -0.2082  0.4949
   34MOL0     H 4537   2.382   2.227   2.565 -3.6271 -2.4639  0.2230
   34MOL0     H 4538   2.298   2.201   2.408 -0.7835  0.6277  0.8775
   34MOL0     H 4539   2.268   2.455   2.533  0.0369 -0.9745 -0.4110
   34MOL0     H 4540   2.175   2.366   2.417 -0.3688  1.3865 -0.5486
   34MOL0     H 4541   1.987   2.213   2.538  0.9459  0.7773 -0.3590
   34MOL0     H 4542   1.902   2.036   2.745 -0.0655  1.6217 -2.4456
   34MOL0     H 4543   1.906   2.113   2.906 -2.7747  3.0890  0.4182
   34MOL0     H 4544   1.728   2.277   2.823 -0.4378  0.1521 -1.0554
   34MOL0     H 4545   1.754   2.222   2.664  1.7662  0.4618  0.3714
   34MOL0     H 4546   1.610   2.033   2.690  1.0150 -2.5536  1.8563
   34MOL0     H 4547   1.542   2.183   2.760  0.1460  1.1508  0.5302
   34MOL0     H 4548   1.698   1.950   2.917 -0.5725 -1.8998 -0.0497
   34MOL0     H 4549   1.528   1.976   2.916 -0.4657  1.9241  1.9596
   34MOL0     H 4550   1.345   2.108   2.919  0.0963 -1.1745  0.7707
   34MOL0     H 4551   1.167   2.216   3.031 -0.3657 -2.4900  2.5634
   34MOL0     H 4552   1.274   2.723   3.454 -0.3264 -0.5612  1.3872
   34MOL0     H 4553   1.147   2.930   3.483 -0.0235  0.1634 -1.7138
   34MOL0     H 4554   0.767   3.001   3.303 -1.2685  0.7683 -0.0520
   34MOL0     H 4555   0.702   2.934   3.455  0.1395  1.1127 -0.1635
   34MOL0     H 4556   0.764   3.181   3.541 -1.5974 -1.0493  0.9947
   34MOL0     H 4557   0.766   3.228   3.374 -3.2939  0.8365  0.4719
   34MOL0     H 4558   0.526   3.084   3.506 -1.0306  0.2826 -1.0619
   34MOL0     H 4559   0.545   3.260   3.504 -3.2042 -1.0370  1.1730
   34MOL0     H 4560   0.488   3.087   3.266  0.1305  0.1459 -0.6728
   34MOL0     H 4561   0.545   3.255   3.255 -0.8363 -1.5590  0.3445
   34MOL0     H 4562   0.291   3.229   3.239  0.6756 -3.1550 -0.1602
   34MOL0     H 4563   0.346   3.328   3.368 -1.3996  0.0683  0.6694
   34MOL0     H 4564   0.259   3.026   3.389 -0.3586 -0.0386  2.0723
   34MOL0     H 4565   0.330   3.110   3.515 -0.9300 -2.5168  1.3319
   34MOL0     H 4566   0.073   3.100   3.507  2.2680 -1.4074  3.4685
   34MOL0     H 4567   0.079   3.200   3.363 -1.6317 -1.1264  0.5731
   34MOL0     H 4568   0.183   3.289   3.637 -1.2000  2.1532  1.5611
   34MOL0     H 4569   0.175   3.380   3.488  0.9190  0.3787  0.4934
   34MOL0     H 4570   0.802   2.759   3.316 -1.5951  4.9082  2.2510
   34MOL0     H 4571   0.928   2.570   3.244  0.1186 -1.4699  1.0534
   34MOL0     H 4572   1.420   2.460   3.252 -1.0271  2.8729 -3.3523
   34MOL0     H 4573   1.624   2.315   3.163 -0.1429  1.2853  1.0001
   34MOL0     H 4574   2.927   3.011   2.036 -0.0726 -2.7648 -1.3949
   34MOL0     H 4575   3.140   3.114   2.152  2.4197  0.6465  2.8007
   34MOL0     H 4576   3.446   3.172   2.614  0.5736  0.3397  1.5172
   34MOL0     H 4577   3.651   3.144   2.718  3.9269  0.1721 -3.1604
   34MOL0     H 4578   3.753   2.739   2.768  2.9462 -1.7921  0.2238
   34MOL0     H 4579   3.684   2.874   2.869  0.0466 -1.1758  0.5928
   34MOL0     H 4580   3.863   2.759   2.987 -0.2042  1.0603  1.0332
   34MOL0     H 4581   3.887   2.924   2.957 -1.5265  1.4323 -1.8695
   34MOL0     H 4582   4.081   2.787   2.914 -2.4057 -0.7571  1.8440
   34MOL0     H 4583   4.054   2.847   2.752  6.8001 -3.3039  0.0751
   34MOL0     H 4584   3.965   2.570   2.827  0.4188 -0.7263 -1.0627
   34MOL0     H 4585   3.917   2.640   2.685 -1.3853  3.1612  0.7331
   34MOL0     H 4586   4.328   2.552   2.603  1.4049  3.3983  2.1802
   34MOL0     H 4587   3.694   2.763   2.533  0.7037 -0.7160  0.7100
   34MOL0     H 4588   3.530   2.647   2.417  1.4024  0.7850  0.7726
   34MOL0     H 4589   3.370   2.694   2.501 -0.4249 -0.6383 -0.4512
   34MOL0     H 4590   3.402   2.738   2.338 -0.9323 -3.1977  0.3513
   35MOL0     O 4591   4.484   4.871   7.242  1.1294  0.4071  0.0506
   35MOL0     C 4592   4.603   4.880   7.274 -0.5199  0.4099 -0.4456
   35MOL0     O 4593   4.672   4.997   7.285 -0.0898 -0.4244 -0.0261
   35MOL0     C 4594   4.608   5.108   7.231  0.0535 -0.4843 -0.4380
   35MOL0     C 4595   4.564   5.208   7.316  0.3270 -0.1300  1.1293
   35MOL0     C 4596   4.510   5.326   7.264  0.5824 -0.1034 -0.5749
   35MOL0     C 4597   4.490   5.335   7.129  0.5859 -0.0458  0.1380
   35MOL0     O 4598   4.448   5.450   7.061  1.0823  0.8173 -0.6714
   35MOL0     C 4599   4.376   5.552   7.146  0.3655  0.8335  0.4264
   35MOL0     C 4600   4.360   5.677   7.055 -0.3572 -0.1558  0.2994
   35MOL0     C 4601   4.502   5.731   7.000  0.8855 -0.2483  0.0098
   35MOL0     C 4602   4.504   5.880   6.969  0.0559  0.2240  0.3722
   35MOL0     C 4603   4.630   5.921   6.884  0.2840  0.3670 -0.5604
   35MOL0     C 4604   4.633   6.066   6.833 -0.2224  1.1305 -0.2413
   35MOL0     C 4605   4.590   6.065   6.683  0.8853 -0.4143  0.2784
   35MOL0     C 4606   4.594   6.201   6.621  0.3676 -0.3133  0.4066
   35MOL0     N 4607   4.733   6.268   6.624  0.2356  0.3493 -0.3392
   35MOL0     C 4608   4.823   6.252   6.522  0.4664 -0.6637  0.5211
   35MOL0     C 4609   4.907   6.354   6.531 -0.7356 -0.1508 -0.8501
   35MOL0     C 4610   5.034   6.391   6.466  0.5663 -0.1595  0.3672
   35MOL0     C 4611   5.051   6.307   6.336  0.7434 -0.0284  0.9582
   35MOL0     C 4612   5.183   6.313   6.257  0.4124  0.0389 -0.8846
   35MOL0     C 4613   5.305   6.271   6.349  0.5796 -0.2145  0.2504
   35MOL0     O 4614   5.353   6.389   6.420  0.2896 -0.0148  0.2945
   35MOL0     C 4615   5.460   6.459   6.361  0.0663  0.3247 -0.0861
   35MOL0     C 4616   5.517   6.447   6.233  1.0361 -0.3265 -0.5981
   35MOL0     C 4617   5.611   6.532   6.180  0.2771  0.2362  0.7665
   35MOL0     C 4618   5.673   6.630   6.263  0.1754  0.2738 -0.4133
   35MOL0     C 4619   5.790   6.711   6.220  0.0259 -0.1441 -0.1749
   35MOL0     O 4620   5.825   6.812   6.310 -0.0241  0.6014 -0.7587
   35MOL0     C 4621   5.934   6.891   6.268 -0.8136  0.7673  1.2044
   35MOL0     C 4622   5.910   7.004   6.187 -1.0427 -0.2989  0.1097
   35MOL0     C 4623   6.020   7.068   6.133 -0.1299 -0.6125 -0.3537
   35MOL0     C 4624   6.154   7.034   6.172  0.1674  0.6720  1.5423
   35MOL0     O 4625   6.256   7.093   6.096 -0.4135 -0.4740 -0.5143
   35MOL0     C 4626   6.374   7.019   6.087 -0.1118 -0.0295  0.0934
   35MOL0     C 4627   6.469   7.085   5.989 -0.4364 -0.0135 -0.8426
   35MOL0     C 4628   6.568   7.171   6.074 -0.9235  0.3644 -0.1591
   35MOL0     C 4629   6.655   7.261   5.972 -0.0770  0.4851  0.9345
   35MOL0     C 4630   6.729   7.371   6.047  0.1114  0.0994  0.8028
   35MOL0     C 4631   6.836   7.303   6.142  0.5147  0.1869 -0.9089
   35MOL0     C 4632   6.950   7.402   6.170  0.1140 -0.3414 -0.2052
   35MOL0     C 4633   6.906   7.552   6.195  0.0064  0.3351  0.2005
   35MOL0    Cl 4634   6.771   7.562   6.301  0.0350 -0.1506 -0.4244
   35MOL0     C 4635   6.171   6.927   6.267  0.2070 -0.6224 -0.3258
   35MOL0     C 4636   6.063   6.859   6.319  0.2126 -0.3842  0.5565
   35MOL0     O 4637   5.848   6.688   6.115  0.6578 -0.1663  0.1008
   35MOL0     C 4638   5.621   6.636   6.393 -1.4649 -0.9717 -0.0497
   35MOL0     C 4639   5.508   6.566   6.432 -0.3091 -0.0292  0.0528
   35MOL0     N 4640   4.881   6.416   6.653  0.7651 -0.2578 -0.2817
   35MOL0     N 4641   4.771   6.367   6.705  0.0154 -0.7226  0.4942
   35MOL0     C 4642   4.519   5.233   7.046 -0.6755  0.0476  0.3937
   35MOL0     C 4643   4.575   5.121   7.093 -0.3885 -0.0192 -0.0002
   35MOL0     C 4644   4.671   4.755   7.330 -0.9503 -0.0937 -0.0976
   35MOL0     C 4645   4.777   4.774   7.411 -0.6272  0.6493 -0.5539
   35MOL0     C 4646   4.841   4.665   7.461  0.7899  0.9361 -0.0973
   35MOL0     C 4647   4.804   4.531   7.438 -0.5304  0.2261  0.0074
   35MOL0     O 4648   4.869   4.431   7.511  0.4321 -0.0011 -1.0638
   35MOL0     C 4649   4.818   4.291   7.501  0.6211 -0.2796 -0.1688
   35MOL0     C 4650   4.679   4.275   7.582  0.6049 -0.2441  1.2012
   35MOL0     C 4651   4.710   4.230   7.727  0.3369 -0.7768 -0.0612
   35MOL0     C 4652   4.587   4.188   7.809 -0.1656 -0.9411  0.2546
   35MOL0     C 4653   4.644   4.136   7.939  0.4979 -0.4011  0.2233
   35MOL0     C 4654   4.695   4.092   8.038  0.0471  1.4963  0.2833
   35MOL0     C 4655   4.697   4.510   7.353  0.5860 -0.2967  0.7719
   35MOL0     C 4656   4.624   4.626   7.304  0.3641 -0.1956  0.0677
   35MOL0     C 4657   4.515   4.584   7.207 -0.0867 -0.0723  0.3165
   35MOL0     H 4658   4.588   5.191   7.421 -0.4042 -2.8268  0.9145
   35MOL0     H 4659   4.480   5.403   7.334  2.2084 -0.8361  1.0055
   35MOL0     H 4660   4.282   5.505   7.179  1.9460 -2.5552  0.5325
   35MOL0     H 4661   4.435   5.583   7.232 -1.2106  0.9036  1.5176
   35MOL0     H 4662   4.325   5.757   7.121  0.0673  2.3360 -2.2728
   35MOL0     H 4663   4.286   5.653   6.978 -3.6832  2.3704  2.3760
   35MOL0     H 4664   4.529   5.671   6.913 -2.2752 -1.1251 -0.4911
   35MOL0     H 4665   4.579   5.705   7.074 -0.0672 -3.7258 -0.0551
   35MOL0     H 4666   4.417   5.901   6.907  0.3024  1.1372  0.3161
   35MOL0     H 4667   4.493   5.943   7.057 -2.8236 -1.7752  1.5746
   35MOL0     H 4668   4.710   5.907   6.957  1.0435  0.4479 -1.3601
   35MOL0     H 4669   4.639   5.856   6.796 -0.8401 -1.0148  0.2954
   35MOL0     H 4670   4.570   6.129   6.897 -1.4269  0.5824 -0.8638
   35MOL0     H 4671   4.741   6.083   6.834 -0.0699  0.3287  1.4696
   35MOL0     H 4672   4.486   6.031   6.687  0.8129 -0.1673  0.4947
   35MOL0     H 4673   4.650   6.003   6.616 -0.6689  0.5273 -2.1011
   35MOL0     H 4674   4.567   6.191   6.515 -2.3974 -0.4244  1.0390
   35MOL0     H 4675   4.526   6.270   6.672 -0.0959  1.7086 -2.6804
   35MOL0     H 4676   4.822   6.172   6.448 -0.7261 -0.6211  0.4709
   35MOL0     H 4677   5.032   6.498   6.446 -1.6256 -0.2675 -0.2994
   35MOL0     H 4678   5.114   6.369   6.537  2.2973  0.4045 -1.3482
   35MOL0     H 4679   5.033   6.199   6.347  2.9947 -1.0828 -3.3896
   35MOL0     H 4680   4.968   6.340   6.273  0.7536 -0.7093  0.5663
   35MOL0     H 4681   5.188   6.412   6.211  0.9923  1.4043  1.9095
   35MOL0     H 4682   5.171   6.247   6.171 -0.0513 -0.2527 -0.6020
   35MOL0     H 4683   5.389   6.227   6.295 -0.6000 -0.7625 -1.2024
   35MOL0     H 4684   5.276   6.198   6.425  0.1848 -1.1461 -0.7763
   35MOL0     H 4685   5.493   6.365   6.166  1.4241  0.0418 -1.1934
   35MOL0     H 4686   5.653   6.512   6.082 -2.9424 -3.6610 -0.0901
   35MOL0     H 4687   5.812   7.029   6.148 -0.0133  0.6871 -1.9895
   35MOL0     H 4688   6.008   7.134   6.047 -1.2434  0.0985  0.3316
   35MOL0     H 4689   6.418   7.020   6.188 -1.5967 -3.4603  0.9289
   35MOL0     H 4690   6.332   6.922   6.059  0.7247 -1.3034  2.8077
   35MOL0     H 4691   6.515   7.003   5.934 -1.8537 -1.2482 -0.2536
   35MOL0     H 4692   6.411   7.156   5.930  0.7395  3.4092  1.7703
   35MOL0     H 4693   6.519   7.231   6.151  1.2654  2.0075  0.0474
   35MOL0     H 4694   6.632   7.096   6.121 -2.5912 -0.2570  1.2196
   35MOL0     H 4695   6.596   7.311   5.895  1.3857 -1.0336 -1.3161
   35MOL0     H 4696   6.728   7.203   5.915 -1.7883 -2.3147  1.3612
   35MOL0     H 4697   6.656   7.428   6.106  1.1107  0.0623  2.1122
   35MOL0     H 4698   6.775   7.436   5.972  0.8541  1.4046  2.3143
   35MOL0     H 4699   6.790   7.283   6.239 -0.6810  1.4670 -1.1789
   35MOL0     H 4700   6.879   7.208   6.110  2.6053  1.5479 -2.3831
   35MOL0     H 4701   7.014   7.410   6.082 -1.4855 -0.4404 -1.4207
   35MOL0     H 4702   7.011   7.360   6.251  0.0666  4.0461  2.4650
   35MOL0     H 4703   6.984   7.609   6.246  2.0617 -0.9969 -1.3172
   35MOL0     H 4704   6.894   7.601   6.098  0.9642  2.8244  1.2802
   35MOL0     H 4705   6.271   6.909   6.305 -0.1187 -0.1071  0.8196
   35MOL0     H 4706   6.074   6.788   6.401 -0.5080 -3.9424 -2.1774
   35MOL0     H 4707   5.660   6.699   6.472  0.8213 -1.5585 -0.6217
   35MOL0     H 4708   5.478   6.574   6.536  1.3402 -2.2293  0.7438
   35MOL0     H 4709   4.501   5.256   6.942 -0.1651  1.2984  0.5603
   35MOL0     H 4710   4.595   5.042   7.021 -2.9405  1.9002 -3.0958
   35MOL0     H 4711   4.816   4.871   7.441 -0.0136  0.2457 -0.0190
   35MOL0     H 4712   4.927   4.684   7.525  0.1936  0.5462  0.8422
   35MOL0     H 4713   4.884   4.220   7.550  0.8365  0.1883  0.2305
   35MOL0     H 4714   4.808   4.258   7.398 -0.7272 -2.1938  0.5185
   35MOL0     H 4715   4.617   4.196   7.539  3.1695 -1.6617 -0.1755
   35MOL0     H 4716   4.617   4.365   7.574 -0.1436 -0.8237  0.1527
   35MOL0     H 4717   4.761   4.315   7.773  2.6430 -1.9845 -0.2096
   35MOL0     H 4718   4.790   4.157   7.711  0.0749 -1.2040  0.5678
   35MOL0     H 4719   4.524   4.271   7.844  3.4576  1.4569  1.6178
   35MOL0     H 4720   4.540   4.112   7.745  0.6595 -0.8055 -0.5220
   35MOL0     H 4721   4.752   4.043   8.114  0.9770 -2.9971 -2.8859
   35MOL0     H 4722   4.672   4.408   7.326  2.5753 -1.4112  2.8036
   35MOL0     H 4723   4.419   4.608   7.253 -1.4048 -1.9100 -1.3325
   35MOL0     H 4724   4.529   4.643   7.116 -0.8004  0.5538  0.6022
   35MOL0     H 4725   4.518   4.478   7.180 -2.4716 -0.2218  0.4241
   36MOL0     O 4726   2.143   8.101   5.485 -0.0127  0.8135  0.1463
   36MOL0     C 4727   2.037   8.124   5.534  0.1066 -0.0924  1.0468
   36MOL0     O 4728   1.932   8.204   5.480  0.5936  0.2203 -0.0519
   36MOL0     C 4729   1.940   8.236   5.345 -1.0550  0.9320  0.1215
   36MOL0     C 4730   1.869   8.158   5.260  0.5072  0.3661 -0.2102
   36MOL0     C 4731   1.878   8.180   5.130  0.1173  0.1148 -0.0283
   36MOL0     C 4732   1.959   8.274   5.071 -0.7453  0.1690 -0.3991
   36MOL0     O 4733   1.971   8.286   4.934  0.1366 -0.1505 -0.5950
   36MOL0     C 4734   1.929   8.409   4.882 -0.5078 -0.2360 -0.3717
   36MOL0     C 4735   1.981   8.431   4.738 -0.2207  0.3203  0.0506
   36MOL0     C 4736   2.113   8.503   4.736 -0.0180  0.1663 -0.1219
   36MOL0     C 4737   2.138   8.570   4.610 -0.4055  0.1761  0.8108
   36MOL0     C 4738   2.283   8.554   4.568 -0.6853 -0.3463 -0.6623
   36MOL0     C 4739   2.323   8.625   4.438  0.7130  0.1744  0.7213
   36MOL0     C 4740   2.475   8.619   4.414 -0.8496  0.1343 -0.5216
   36MOL0     C 4741   2.503   8.708   4.294 -0.0618  0.1518  0.4390
   36MOL0     N 4742   2.406   8.698   4.178 -0.5503  0.1888 -0.9683
   36MOL0     C 4743   2.420   8.607   4.082  0.0696 -0.1728 -0.3326
   36MOL0     C 4744   2.353   8.655   3.983  0.5788 -0.8428 -0.1470
   36MOL0     C 4745   2.337   8.604   3.846  1.7911 -0.7691  0.7789
   36MOL0     C 4746   2.332   8.708   3.735 -0.2110 -0.1513 -1.0408
   36MOL0     C 4747   2.335   8.656   3.581 -0.7856  0.4044  0.3677
   36MOL0     C 4748   2.476   8.598   3.547 -0.6362 -0.2268  0.6481
   36MOL0     O 4749   2.470   8.552   3.410 -0.2569 -0.6065 -0.3074
   36MOL0     C 4750   2.530   8.641   3.326  0.4360  0.2331  0.2155
   36MOL0     C 4751   2.597   8.582   3.215 -0.1706 -0.2060  0.2867
   36MOL0     C 4752   2.661   8.671   3.118 -0.0487  0.6683 -0.5371
   36MOL0     C 4753   2.667   8.813   3.134 -0.6205 -0.0928 -0.1669
   36MOL0     C 4754   2.727   8.896   3.024  0.6696  1.5534  0.3422
   36MOL0     O 4755   2.732   9.026   3.043  0.3482 -0.0690 -0.0492
   36MOL0     C 4756   2.817   9.108   2.962  0.4027  0.9109 -0.0461
   36MOL0     C 4757   2.787   9.115   2.824 -0.4121 -0.0961  0.7055
   36MOL0     C 4758   2.882   9.186   2.756  1.1854  0.8787 -0.1133
   36MOL0     C 4759   2.986   9.260   2.808 -1.2951  0.7860 -0.0697
   36MOL0     O 4760   3.071   9.336   2.730  0.3582 -0.2507  0.0172
   36MOL0     C 4761   3.197   9.274   2.704 -0.4218  0.6302 -0.3267
   36MOL0     C 4762   3.278   9.387   2.650  0.3327 -0.6990 -0.5411
   36MOL0     C 4763   3.389   9.436   2.750  0.9466  0.2606 -0.5193
   36MOL0     C 4764   3.444   9.555   2.687  0.1688  0.6090 -0.0408
   36MOL0     C 4765   3.520   9.640   2.796  0.0725  0.6129 -0.8881
   36MOL0     C 4766   3.563   9.774   2.741 -0.0466  0.6028  1.3894
   36MOL0     C 4767   3.661   9.837   2.821 -0.2358  0.7603  0.0353
   36MOL0     C 4768   3.708   9.984   2.775 -0.7085 -0.3807 -0.3881
   36MOL0    Cl 4769   3.562  10.095   2.755  0.0489  0.9372  0.2409
   36MOL0     C 4770   3.003   9.259   2.943  0.5959 -0.5509 -0.7706
   36MOL0     C 4771   2.917   9.178   3.024  0.3813 -0.3925 -0.1081
   36MOL0     O 4772   2.786   8.835   2.937  0.1041  0.1522  0.4575
   36MOL0     C 4773   2.591   8.867   3.237  0.6107 -0.0748 -0.2160
   36MOL0     C 4774   2.533   8.784   3.343  0.1917 -0.8663 -0.6497
   36MOL0     N 4775   2.295   8.772   4.027  0.4184 -0.0875  0.6601
   36MOL0     N 4776   2.327   8.802   4.141 -0.5962 -0.0522  0.2843
   36MOL0     C 4777   2.036   8.344   5.158 -0.3587 -0.6203  0.0380
   36MOL0     C 4778   2.035   8.325   5.295 -0.1425  0.0637  0.7323
   36MOL0     C 4779   2.017   8.063   5.676  0.2927  0.0074  0.7334
   36MOL0     C 4780   1.897   8.099   5.728 -0.4992  0.5581 -0.7078
   36MOL0     C 4781   1.857   8.038   5.853  0.1383  0.4881  1.2217
   36MOL0     C 4782   1.921   7.938   5.912 -1.0695 -0.4616 -0.7631
   36MOL0     O 4783   1.874   7.864   6.019  0.5202 -0.3034  0.3935
   36MOL0     C 4784   1.966   7.839   6.122  0.4676 -0.0118  0.6998
   36MOL0     C 4785   2.001   7.689   6.141  0.2943  0.6844 -1.0802
   36MOL0     C 4786   2.072   7.649   6.269 -1.0518 -0.5787 -1.1505
   36MOL0     C 4787   2.152   7.756   6.349 -0.0378  0.5124  0.6143
   36MOL0     C 4788   2.065   7.826   6.440  0.0860 -0.8486  0.3381
   36MOL0     C 4789   1.986   7.878   6.521  0.0386 -0.7229  0.2736
   36MOL0     C 4790   2.042   7.890   5.856  0.4480  0.6454  0.4420
   36MOL0     C 4791   2.093   7.960   5.742 -0.3028 -0.8525 -0.2929
   36MOL0     C 4792   2.222   7.900   5.681 -0.1336  0.4272  0.0672
   36MOL0     H 4793   1.808   8.081   5.307  2.9096  0.6126  3.8567
   36MOL0     H 4794   1.821   8.110   5.071 -1.3787 -1.0891  2.6550
   36MOL0     H 4795   1.820   8.407   4.884 -0.5162 -1.8005 -0.9395
   36MOL0     H 4796   1.967   8.494   4.940 -2.3480 -0.2121  0.8875
   36MOL0     H 4797   1.909   8.496   4.688 -2.3560 -0.6442  1.6804
   36MOL0     H 4798   1.975   8.338   4.681 -3.4278  1.8818 -2.4846
   36MOL0     H 4799   2.183   8.421   4.748  0.3413  0.0184 -2.5822
   36MOL0     H 4800   2.117   8.585   4.809 -2.4190  2.0474 -1.9091
   36MOL0     H 4801   2.073   8.529   4.532  0.0817 -1.7584  1.3657
   36MOL0     H 4802   2.124   8.677   4.630 -2.1195  0.2794 -0.7013
   36MOL0     H 4803   2.350   8.588   4.647 -0.0071 -0.8829 -0.9922
   36MOL0     H 4804   2.294   8.448   4.544  1.8599  0.0783 -1.7846
   36MOL0     H 4805   2.262   8.575   4.362 -1.6285 -0.7831  3.0849
   36MOL0     H 4806   2.290   8.729   4.441  1.7706  0.6044 -0.9675
   36MOL0     H 4807   2.510   8.515   4.410 -3.2259 -0.7637  0.2401
   36MOL0     H 4808   2.525   8.660   4.503 -1.1221 -3.6879  1.6209
   36MOL0     H 4809   2.481   8.807   4.336  0.4827  0.1916  0.6408
   36MOL0     H 4810   2.607   8.689   4.266 -0.6543 -1.7744 -0.5891
   36MOL0     H 4811   2.487   8.521   4.082 -5.1539 -4.7999 -1.2479
   36MOL0     H 4812   2.418   8.533   3.827 -0.2812 -2.6274 -1.6739
   36MOL0     H 4813   2.250   8.540   3.829 -0.6303  2.6378 -0.7307
   36MOL0     H 4814   2.234   8.751   3.754 -0.1892 -0.8718  0.9621
   36MOL0     H 4815   2.413   8.779   3.755 -0.5484 -0.3105  1.1012
   36MOL0     H 4816   2.310   8.735   3.509  1.0884  0.6530 -0.0636
   36MOL0     H 4817   2.257   8.580   3.585  0.4578 -1.0161 -0.9234
   36MOL0     H 4818   2.506   8.512   3.607 -0.8089  0.1960  1.3510
   36MOL0     H 4819   2.557   8.668   3.569  0.6848 -2.0574  1.8374
   36MOL0     H 4820   2.607   8.475   3.198 -0.6192 -0.0198 -1.2757
   36MOL0     H 4821   2.711   8.625   3.033 -0.4759 -3.0091  0.9964
   36MOL0     H 4822   2.698   9.069   2.783 -0.9795  0.7243  0.9772
   36MOL0     H 4823   2.890   9.184   2.648  1.6291 -0.0117 -0.0740
   36MOL0     H 4824   3.241   9.227   2.792  0.5014 -0.0209 -1.1167
   36MOL0     H 4825   3.183   9.188   2.639 -4.6824  0.2078  0.8558
   36MOL0     H 4826   3.334   9.345   2.566  2.3875 -1.3820  1.0769
   36MOL0     H 4827   3.222   9.474   2.615 -1.4768 -1.7508 -0.3982
   36MOL0     H 4828   3.347   9.466   2.846  3.7425  1.1030  0.5423
   36MOL0     H 4829   3.471   9.364   2.765  2.3421  1.3825 -2.3133
   36MOL0     H 4830   3.367   9.622   2.648  0.5569  0.5908 -0.8480
   36MOL0     H 4831   3.491   9.519   2.596 -2.7244 -1.7120 -0.7628
   36MOL0     H 4832   3.602   9.587   2.846  0.7698  2.1756 -0.3292
   36MOL0     H 4833   3.449   9.667   2.875 -0.3086  2.0746 -1.6920
   36MOL0     H 4834   3.605   9.763   2.640 -1.8531  1.5964  0.4826
   36MOL0     H 4835   3.475   9.838   2.730 -0.8959 -0.6435  0.7044
   36MOL0     H 4836   3.743   9.764   2.825  0.5914  1.6871  0.3970
   36MOL0     H 4837   3.607   9.837   2.916 -0.5215 -0.6226 -0.1068
   36MOL0     H 4838   3.772  10.025   2.854 -1.4874  0.2565 -0.0769
   36MOL0     H 4839   3.772   9.980   2.687 -1.1548 -0.3740 -0.7166
   36MOL0     H 4840   3.074   9.328   2.987 -0.6411 -0.0919  0.5536
   36MOL0     H 4841   2.946   9.170   3.128  0.2079  0.0279 -0.0236
   36MOL0     H 4842   2.589   8.975   3.247  1.7372 -0.2827  4.5573
   36MOL0     H 4843   2.488   8.837   3.426  2.9458 -1.9472  1.6804
   36MOL0     H 4844   2.108   8.411   5.112  0.1891 -0.7818  0.6449
   36MOL0     H 4845   2.118   8.372   5.348  0.7327  2.2755 -2.3027
   36MOL0     H 4846   1.838   8.185   5.697  2.2424  3.5545  1.7448
   36MOL0     H 4847   1.775   8.091   5.900  0.9852  2.8945  0.1603
   36MOL0     H 4848   1.901   7.864   6.207 -0.6019 -0.4366  0.0325
   36MOL0     H 4849   2.050   7.909   6.125  2.4142 -2.2411  1.0912
   36MOL0     H 4850   2.048   7.652   6.049 -0.1900 -1.7185 -0.4406
   36MOL0     H 4851   1.914   7.624   6.147  0.1129  0.8953  5.5546
   36MOL0     H 4852   2.150   7.574   6.251  0.2929  0.8026 -1.2890
   36MOL0     H 4853   1.996   7.597   6.327  1.2460 -1.8130  0.9678
   36MOL0     H 4854   2.232   7.701   6.400 -0.1460  0.3013  0.5595
   36MOL0     H 4855   2.192   7.822   6.273 -0.1701  0.3302  0.3840
   36MOL0     H 4856   1.915   7.924   6.586  0.6966 -1.3283  1.4523
   36MOL0     H 4857   2.104   7.820   5.910 -0.9557  0.0030  1.2795
   36MOL0     H 4858   2.255   7.813   5.738  1.4912  1.7201  1.1823
   36MOL0     H 4859   2.198   7.871   5.578  0.3537  2.4208 -0.6537
   36MOL0     H 4860   2.301   7.975   5.686 -1.1966  1.5053  1.7337
   37MOL0     O 4861   0.922   2.538   9.378  0.5103 -0.4093  0.7268
   37MOL0     C 4862   0.892   2.645   9.317  0.1380 -0.6004  0.0005
   37MOL0     O 4863   0.898   2.667   9.185 -0.2081 -0.0829  0.2694
   37MOL0     C 4864   0.917   2.553   9.110  0.1900 -0.1508 -0.0427
   37MOL0     C 4865   1.038   2.548   9.036  0.6357  0.9030 -0.3701
   37MOL0     C 4866   1.056   2.447   8.956  0.5291  0.5899  0.2842
   37MOL0     C 4867   0.959   2.344   8.945 -0.3057 -0.2978 -0.0535
   37MOL0     O 4868   0.961   2.240   8.853 -0.3944 -1.0074 -0.2140
   37MOL0     C 4869   1.102   2.208   8.816  0.0283  0.2170  0.4952
   37MOL0     C 4870   1.118   2.076   8.737 -1.0366  0.1218  0.5032
   37MOL0     C 4871   1.252   2.036   8.697  0.0733 -0.2486 -0.3015
   37MOL0     C 4872   1.356   2.002   8.815 -0.5422  0.7729  0.6450
   37MOL0     C 4873   1.490   1.971   8.759  1.3513  0.7779 -0.8359
   37MOL0     C 4874   1.585   2.084   8.760 -0.0714 -0.0403  0.4691
   37MOL0     C 4875   1.615   2.148   8.898  0.1369  0.5282  0.4109
   37MOL0     C 4876   1.634   2.039   9.007  0.1915 -0.2110 -0.5841
   37MOL0     N 4877   1.771   1.994   9.000 -0.4151 -0.2997 -0.1315
   37MOL0     C 4878   1.876   2.052   9.063  0.4270 -0.8092 -0.4629
   37MOL0     C 4879   1.978   1.974   9.033 -0.8803  0.6193 -0.3457
   37MOL0     C 4880   2.119   1.990   9.075  0.1137 -0.0909 -0.2252
   37MOL0     C 4881   2.168   2.136   9.069  0.7787 -0.5415  0.1228
   37MOL0     C 4882   2.323   2.149   9.086 -0.2722 -0.7371  0.0148
   37MOL0     C 4883   2.370   2.293   9.073  0.0401 -1.4980 -0.5878
   37MOL0     O 4884   2.358   2.360   9.205  0.5783 -0.5731 -0.0382
   37MOL0     C 4885   2.427   2.483   9.216  0.6562  0.2870  0.0873
   37MOL0     C 4886   2.422   2.546   9.337  1.2558  0.0119  0.2313
   37MOL0     C 4887   2.474   2.672   9.363 -0.7245  0.5173 -0.1005
   37MOL0     C 4888   2.524   2.747   9.256 -0.3138  0.0615  0.9187
   37MOL0     C 4889   2.584   2.882   9.287 -0.7620 -0.7490 -0.2499
   37MOL0     O 4890   2.607   2.966   9.171 -0.3291 -0.0228  0.2311
   37MOL0     C 4891   2.665   3.088   9.187  0.6849  0.0166 -0.6932
   37MOL0     C 4892   2.579   3.202   9.208  0.6640  0.2292  0.7666
   37MOL0     C 4893   2.631   3.333   9.219 -0.6950  0.0254  0.1563
   37MOL0     C 4894   2.773   3.351   9.231  0.4078 -0.2375 -0.2066
   37MOL0     O 4895   2.834   3.457   9.280  0.1765  0.0139  0.2977
   37MOL0     C 4896   2.800   3.584   9.220  0.4656 -0.2427  0.4321
   37MOL0     C 4897   2.897   3.684   9.282  0.4955  0.3498  0.0909
   37MOL0     C 4898   3.042   3.688   9.233  0.9585 -1.3143 -0.8869
   37MOL0     C 4899   3.115   3.814   9.278 -0.1084  0.2849  0.2657
   37MOL0     C 4900   3.276   3.806   9.259  0.4691  0.3693 -0.0328
   37MOL0     C 4901   3.337   3.727   9.379 -1.3294 -0.3021 -0.6378
   37MOL0     C 4902   3.488   3.708   9.378  0.8171  0.5930  0.1300
   37MOL0     C 4903   3.538   3.702   9.528 -0.4958  0.0498  0.0190
   37MOL0    Cl 4904   3.487   3.555   9.622  0.6123 -0.3470 -0.6654
   37MOL0     C 4905   2.852   3.232   9.215 -1.4354 -0.0878 -0.2505
   37MOL0     C 4906   2.802   3.105   9.193  0.0394 -0.6342 -0.2782
   37MOL0     O 4907   2.628   2.897   9.409  0.3571  0.6241  0.5692
   37MOL0     C 4908   2.534   2.685   9.131  0.4742 -0.4145  0.0068
   37MOL0     C 4909   2.485   2.554   9.105 -0.6311  0.1072 -0.2246
   37MOL0     N 4910   1.931   1.867   8.951 -0.7832 -0.1011 -0.3348
   37MOL0     N 4911   1.809   1.876   8.934  1.0157 -1.3114  0.0790
   37MOL0     C 4912   0.843   2.344   9.016 -0.0012 -0.5214 -0.8907
   37MOL0     C 4913   0.819   2.456   9.102 -0.5398 -0.3556  0.0812
   37MOL0     C 4914   0.836   2.765   9.399  0.1819 -0.2950 -0.4365
   37MOL0     C 4915   0.788   2.871   9.320  0.1804  0.8070  0.9067
   37MOL0     C 4916   0.730   2.975   9.375  0.6487  0.0434 -0.2584
   37MOL0     C 4917   0.697   2.981   9.514 -0.5427  0.6767  0.7140
   37MOL0     O 4918   0.627   3.080   9.581 -0.5431  1.1248 -0.2711
   37MOL0     C 4919   0.558   3.185   9.502  0.1521 -0.2363 -0.2995
   37MOL0     C 4920   0.460   3.248   9.597  0.3186  0.6245 -0.4134
   37MOL0     C 4921   0.522   3.322   9.721  0.9229 -1.5713 -0.0412
   37MOL0     C 4922   0.414   3.418   9.784  0.2780 -0.7643  0.4377
   37MOL0     C 4923   0.472   3.530   9.871  0.7974 -0.6652  0.5961
   37MOL0     C 4924   0.521   3.619   9.928  0.6702  0.5787 -0.1868
   37MOL0     C 4925   0.746   2.882   9.593 -0.2455 -0.4217  0.2764
   37MOL0     C 4926   0.822   2.778   9.535 -0.3385 -0.9855 -0.5127
   37MOL0     C 4927   0.877   2.672   9.629 -0.4735 -0.5774  0.1631
   37MOL0     H 4928   1.122   2.616   9.045  0.6712  0.9592 -1.0887
   37MOL0     H 4929   1.152   2.446   8.904 -0.6095  1.0342 -1.9318
   37MOL0     H 4930   1.154   2.286   8.760  0.9777 -1.2157 -0.6797
   37MOL0     H 4931   1.169   2.203   8.903 -0.6203  2.5553  1.2091
   37MOL0     H 4932   1.056   2.073   8.647 -1.5931 -0.8242  0.9023
   37MOL0     H 4933   1.080   1.991   8.795 -0.2325 -1.1876 -0.8403
   37MOL0     H 4934   1.290   2.127   8.650 -0.3971  0.6567  1.0164
   37MOL0     H 4935   1.248   1.949   8.631  2.7911 -0.7756  0.0979
   37MOL0     H 4936   1.358   2.076   8.895 -2.6801  3.8498 -1.9063
   37MOL0     H 4937   1.319   1.908   8.858  1.3504 -0.1250  0.4182
   37MOL0     H 4938   1.534   1.888   8.815 -0.5681 -0.8474 -1.6128
   37MOL0     H 4939   1.464   1.929   8.661 -0.8596  2.0702 -0.8847
   37MOL0     H 4940   1.683   2.045   8.730 -0.4076  1.0897 -2.3217
   37MOL0     H 4941   1.554   2.156   8.685  1.9008 -0.4115 -0.7777
   37MOL0     H 4942   1.532   2.218   8.916  0.1703  0.4645  0.8193
   37MOL0     H 4943   1.709   2.205   8.904  1.4980 -0.8890 -3.7669
   37MOL0     H 4944   1.616   2.093   9.100 -0.2925  0.4568 -1.0614
   37MOL0     H 4945   1.561   1.958   9.010  0.0313 -0.0264  1.5685
   37MOL0     H 4946   1.877   2.142   9.125  0.5519 -0.8026 -0.4732
   37MOL0     H 4947   2.141   1.936   9.167 -2.3119  0.1362  0.5685
   37MOL0     H 4948   2.173   1.928   9.003  0.8722  1.2244 -0.8147
   37MOL0     H 4949   2.131   2.178   8.975 -2.0016  1.4316  1.9515
   37MOL0     H 4950   2.125   2.188   9.155 -1.1887 -1.1432 -0.4650
   37MOL0     H 4951   2.372   2.102   9.000  1.0103 -0.0001  0.3080
   37MOL0     H 4952   2.364   2.108   9.179  2.4415  1.7340  0.0802
   37MOL0     H 4953   2.321   2.351   8.994  0.0426  0.3064  0.6671
   37MOL0     H 4954   2.475   2.286   9.045 -0.8779 -1.1813 -4.8054
   37MOL0     H 4955   2.385   2.491   9.424  1.5376  0.3373  0.5587
   37MOL0     H 4956   2.465   2.726   9.456 -3.2632  0.7768 -0.4273
   37MOL0     H 4957   2.471   3.195   9.207  0.6889 -0.5252  1.6057
   37MOL0     H 4958   2.560   3.415   9.224  0.8366  1.7352 -3.1266
   37MOL0     H 4959   2.811   3.585   9.111  0.0792 -1.3523  0.3666
   37MOL0     H 4960   2.698   3.613   9.247 -0.4578 -0.2826 -2.6148
   37MOL0     H 4961   2.851   3.779   9.252 -1.8779 -1.3750 -2.2268
   37MOL0     H 4962   2.888   3.682   9.391  1.6644  3.5396  0.3493
   37MOL0     H 4963   3.088   3.598   9.274  2.2512 -0.5934 -0.6839
   37MOL0     H 4964   3.034   3.672   9.125 -0.6006 -2.2856 -0.6498
   37MOL0     H 4965   3.078   3.826   9.380 -1.7594  0.7243 -0.3511
   37MOL0     H 4966   3.081   3.901   9.222  1.3451  2.7853  3.0027
   37MOL0     H 4967   3.323   3.905   9.259  2.7877 -0.6433 -1.7975
   37MOL0     H 4968   3.287   3.762   9.159 -3.4219 -2.1875  0.4682
   37MOL0     H 4969   3.312   3.778   9.472  0.7623 -2.3656  1.1662
   37MOL0     H 4970   3.278   3.636   9.390 -2.6407 -0.1748 -4.8014
   37MOL0     H 4971   3.540   3.793   9.332  0.5796  1.9592  2.2985
   37MOL0     H 4972   3.519   3.616   9.327  0.8105  1.5415 -1.6717
   37MOL0     H 4973   3.646   3.711   9.519 -0.6446  1.6830 -0.5216
   37MOL0     H 4974   3.511   3.798   9.574  0.0975  0.0141  0.4580
   37MOL0     H 4975   2.954   3.260   9.235 -1.8305  0.0071  1.8749
   37MOL0     H 4976   2.868   3.019   9.188  3.2401  1.6539 -0.3077
   37MOL0     H 4977   2.568   2.750   9.051  3.3932  1.7944  2.7908
   37MOL0     H 4978   2.485   2.511   9.005  1.3896 -2.3459  0.7415
   37MOL0     H 4979   0.781   2.255   9.016 -0.5109 -0.1991  0.9550
   37MOL0     H 4980   0.735   2.471   9.168 -0.6784  1.2766 -0.4064
   37MOL0     H 4981   0.801   2.869   9.212 -2.0319 -2.0109  0.6084
   37MOL0     H 4982   0.692   3.051   9.307 -2.3519 -0.7787  0.3266
   37MOL0     H 4983   0.501   3.143   9.419 -0.3152  0.3735 -0.2892
   37MOL0     H 4984   0.625   3.266   9.472 -0.9925  0.8425 -0.0203
   37MOL0     H 4985   0.394   3.166   9.628  0.1002  0.2758 -1.7276
   37MOL0     H 4986   0.402   3.323   9.541  3.1665  3.0783 -0.2913
   37MOL0     H 4987   0.597   3.394   9.686  1.1394  0.3544  3.8221
   37MOL0     H 4988   0.553   3.256   9.803 -0.3175  1.1113  2.7723
   37MOL0     H 4989   0.371   3.467   9.696  1.4696 -0.8816 -0.2346
   37MOL0     H 4990   0.339   3.368   9.846 -0.8752  1.2768  0.7799
   37MOL0     H 4991   0.569   3.690   9.992  2.9449 -1.3429  0.3766
   37MOL0     H 4992   0.729   2.895   9.700  0.3452  0.8102  0.2436
   37MOL0     H 4993   0.843   2.700   9.729 -1.7129  1.5027 -0.7707
   37MOL0     H 4994   0.832   2.577   9.601  0.8914 -1.0038 -0.6834
   37MOL0     H 4995   0.986   2.658   9.624 -0.6927 -3.4909  1.4675
   38MOL0     O 4996   4.758   5.538   6.456 -0.1514 -0.5787 -0.4246
   38MOL0     C 4997   4.712   5.431   6.425  0.0470 -0.8853 -0.0488
   38MOL0     O 4998   4.748   5.370   6.315 -0.5053 -0.1313 -0.0465
   38MOL0     C 4999   4.886   5.359   6.302  0.0876  0.7653 -0.2596
   38MOL0     C 5000   4.955   5.429   6.195  0.5326  0.5375 -0.7730
   38MOL0     C 5001   5.095   5.427   6.190  0.0969 -0.2725 -0.7407
   38MOL0     C 5002   5.161   5.345   6.287  0.1764 -0.4675 -0.4707
   38MOL0     O 5003   5.300   5.342   6.299 -0.9092 -0.1949 -0.4144
   38MOL0     C 5004   5.394   5.368   6.188 -0.1690  0.4364  0.1864
   38MOL0     C 5005   5.358   5.276   6.067 -0.8320  0.1276 -0.3189
   38MOL0     C 5006   5.482   5.231   5.985  0.7344  0.0714 -0.3161
   38MOL0     C 5007   5.440   5.221   5.827  0.1808  1.0442 -0.0151
   38MOL0     C 5008   5.565   5.177   5.743  1.0965  0.1609  0.1483
   38MOL0     C 5009   5.694   5.255   5.736 -0.3140  0.0186  0.7239
   38MOL0     C 5010   5.671   5.405   5.723  0.1119 -0.7231  0.0730
   38MOL0     C 5011   5.787   5.472   5.646 -1.1729  0.3893  0.5324
   38MOL0     N 5012   5.771   5.481   5.493 -0.4435  0.2408 -0.6154
   38MOL0     C 5013   5.743   5.382   5.407  0.6223  0.3752 -0.3951
   38MOL0     C 5014   5.749   5.438   5.285  0.9003 -0.0510 -0.3669
   38MOL0     C 5015   5.730   5.362   5.155  0.6809 -0.2500 -0.5303
   38MOL0     C 5016   5.632   5.452   5.071 -0.0713  0.1966 -0.7402
   38MOL0     C 5017   5.599   5.391   4.937 -0.1584  0.2633  0.3570
   38MOL0     C 5018   5.550   5.511   4.849 -0.1053  0.3145 -0.1300
   38MOL0     O 5019   5.471   5.462   4.736 -0.2429  0.1297 -0.0796
   38MOL0     C 5020   5.418   5.557   4.653 -0.3803  0.0468  0.1367
   38MOL0     C 5021   5.348   5.503   4.544 -0.5021 -0.3002  0.2953
   38MOL0     C 5022   5.306   5.591   4.447  0.7005 -0.0403 -0.0137
   38MOL0     C 5023   5.303   5.733   4.470 -0.0564 -0.1219  0.4512
   38MOL0     C 5024   5.231   5.812   4.371  0.3892  0.5559  0.1156
   38MOL0     O 5025   5.204   5.750   4.252  0.5627  0.6567  0.0671
   38MOL0     C 5026   5.147   5.826   4.149  0.9251 -0.0185  0.5697
   38MOL0     C 5027   5.083   5.757   4.048  1.0756 -0.0822 -0.2386
   38MOL0     C 5028   5.013   5.826   3.947 -0.6638 -0.4813 -0.7218
   38MOL0     C 5029   5.016   5.972   3.943 -0.3237  0.2192 -0.6418
   38MOL0     O 5030   4.943   6.042   3.851 -0.8208  0.2648 -0.2100
   38MOL0     C 5031   4.995   6.167   3.799  0.2495 -0.1184 -0.4654
   38MOL0     C 5032   5.129   6.152   3.724 -0.1388 -0.1154  0.9127
   38MOL0     C 5033   5.110   6.128   3.576  0.3795  0.4122 -0.2866
   38MOL0     C 5034   5.238   6.124   3.496  0.6340  0.2787 -0.1328
   38MOL0     C 5035   5.201   6.075   3.357 -0.4643  0.1920  0.2338
   38MOL0     C 5036   5.314   6.078   3.257  0.1071 -0.2537  0.2947
   38MOL0     C 5037   5.294   5.986   3.142 -0.1121 -0.1145  0.1996
   38MOL0     C 5038   5.410   5.995   3.037  0.0478  0.7359  0.9042
   38MOL0    Cl 5039   5.543   5.890   3.091 -0.1837 -0.2027 -0.0322
   38MOL0     C 5040   5.097   6.037   4.037 -1.1147 -0.5267  0.1501
   38MOL0     C 5041   5.166   5.962   4.132  0.0466 -0.9691 -0.6220
   38MOL0     O 5042   5.185   5.920   4.409  0.3095  0.0877  0.2047
   38MOL0     C 5043   5.365   5.791   4.584 -0.2971 -0.6115  0.0872
   38MOL0     C 5044   5.426   5.699   4.676  1.0776  0.3826  0.6909
   38MOL0     N 5045   5.804   5.562   5.297  0.1024 -0.0101  0.3704
   38MOL0     N 5046   5.814   5.587   5.424 -0.0290  0.5764 -0.1926
   38MOL0     C 5047   5.091   5.284   6.385  0.5581  0.1777 -0.8976
   38MOL0     C 5048   4.951   5.279   6.389 -0.0360 -0.7693 -0.3944
   38MOL0     C 5049   4.588   5.382   6.492 -0.7113  0.8040  0.0283
   38MOL0     C 5050   4.510   5.294   6.420  0.0697 -0.4353  0.6104
   38MOL0     C 5051   4.394   5.259   6.475  0.1357  0.0813  0.2457
   38MOL0     C 5052   4.358   5.293   6.603 -0.9139 -0.4718  0.4038
   38MOL0     O 5053   4.246   5.261   6.664 -0.2537  0.8164 -0.2591
   38MOL0     C 5054   4.163   5.157   6.608 -1.1448 -1.0168  0.9171
   38MOL0     C 5055   4.065   5.095   6.709  0.1182 -1.4166 -0.7950
   38MOL0     C 5056   3.989   4.978   6.645 -0.4239  0.1339 -0.4240
   38MOL0     C 5057   3.876   4.918   6.708  0.2002 -1.0670  1.0828
   38MOL0     C 5058   3.889   4.898   6.851  0.9474 -0.4722  0.0729
   38MOL0     C 5059   3.912   4.897   6.968  0.1825 -0.2473  1.1160
   38MOL0     C 5060   4.444   5.368   6.672 -1.2264  0.8712 -0.4248
   38MOL0     C 5061   4.558   5.417   6.622 -0.7689 -0.9969 -0.1551
   38MOL0     C 5062   4.646   5.491   6.711 -0.4364  0.5716  0.0564
   38MOL0     H 5063   4.900   5.487   6.122 -0.0844  1.0936  0.1127
   38MOL0     H 5064   5.154   5.477   6.114 -0.6009 -0.3995 -1.3720
   38MOL0     H 5065   5.399   5.475   6.164  2.0072  0.8214  2.0763
   38MOL0     H 5066   5.490   5.331   6.224  0.1765  0.7750 -0.3644
   38MOL0     H 5067   5.299   5.334   5.995 -1.4877  0.3103  0.3638
   38MOL0     H 5068   5.298   5.189   6.092 -0.5933 -0.2299 -0.9590
   38MOL0     H 5069   5.512   5.129   6.009 -0.0604 -0.3877 -1.2043
   38MOL0     H 5070   5.570   5.295   5.999  1.3036 -0.9520  1.0602
   38MOL0     H 5071   5.355   5.152   5.820  1.0977 -0.5336  2.6880
   38MOL0     H 5072   5.418   5.325   5.799 -0.4716  0.9352  0.0664
   38MOL0     H 5073   5.597   5.075   5.768 -0.2208 -0.6586 -1.3156
   38MOL0     H 5074   5.526   5.171   5.641  1.8458 -1.2023 -0.0817
   38MOL0     H 5075   5.733   5.235   5.837 -2.3264 -0.5297  1.4424
   38MOL0     H 5076   5.753   5.225   5.649 -1.4432  1.4056 -0.5766
   38MOL0     H 5077   5.663   5.441   5.826 -2.0216 -2.7077  0.6894
   38MOL0     H 5078   5.575   5.429   5.677 -1.6330 -3.4635  1.9076
   38MOL0     H 5079   5.811   5.575   5.676  0.9904  0.6629 -1.8111
   38MOL0     H 5080   5.873   5.407   5.665 -0.5726  1.2052  0.6391
   38MOL0     H 5081   5.715   5.278   5.420  3.7591 -0.8689 -2.2662
   38MOL0     H 5082   5.828   5.345   5.110  1.1317 -2.2125  1.0561
   38MOL0     H 5083   5.704   5.257   5.169  1.0766 -0.1438  1.2957
   38MOL0     H 5084   5.545   5.470   5.135 -0.8909 -1.6297 -1.2919
   38MOL0     H 5085   5.684   5.548   5.058 -0.3472  0.4242 -0.2011
   38MOL0     H 5086   5.524   5.314   4.956 -1.0255  1.5012  2.2336
   38MOL0     H 5087   5.680   5.339   4.884 -0.9067 -0.3948 -0.1712
   38MOL0     H 5088   5.630   5.573   4.808  2.4703 -0.9391  2.6687
   38MOL0     H 5089   5.490   5.588   4.898  1.1486  1.3283 -0.1507
   38MOL0     H 5090   5.329   5.397   4.532  1.3153 -0.5547 -0.6463
   38MOL0     H 5091   5.258   5.555   4.357 -0.8700 -1.1170  1.1987
   38MOL0     H 5092   5.080   5.649   4.055  2.3011 -0.0925  0.5108
   38MOL0     H 5093   4.953   5.777   3.871  0.9629 -0.1818 -2.2489
   38MOL0     H 5094   4.926   6.211   3.726 -1.1719 -2.5883 -0.7218
   38MOL0     H 5095   4.995   6.243   3.876 -1.4893 -0.2861 -0.2502
   38MOL0     H 5096   5.187   6.245   3.730 -1.7223  0.8530  2.4017
   38MOL0     H 5097   5.185   6.067   3.762 -0.7299 -0.7459  0.3884
   38MOL0     H 5098   5.057   6.033   3.567 -0.3672  0.5950  1.6301
   38MOL0     H 5099   5.044   6.208   3.544 -2.1116 -0.3910  2.3962
   38MOL0     H 5100   5.302   6.050   3.545 -1.4171  0.1560  2.5932
   38MOL0     H 5101   5.279   6.225   3.497 -0.4942  0.7434 -0.1619
   38MOL0     H 5102   5.123   6.139   3.314 -0.5607  0.2073  0.4325
   38MOL0     H 5103   5.149   5.979   3.353  2.6614 -1.6152 -0.4192
   38MOL0     H 5104   5.335   6.180   3.223  1.7501 -0.8589 -0.6480
   38MOL0     H 5105   5.402   6.037   3.308 -1.0543 -1.1038  1.6839
   38MOL0     H 5106   5.205   6.019   3.087  0.4674  1.4573  0.1406
   38MOL0     H 5107   5.282   5.890   3.193 -1.5727  0.8075  1.6877
   38MOL0     H 5108   5.384   5.963   2.936  0.2898  0.3948  0.9502
   38MOL0     H 5109   5.450   6.097   3.028 -0.2618  0.6771 -2.8602
   38MOL0     H 5110   5.116   6.143   4.046  3.0330 -1.0419 -0.5963
   38MOL0     H 5111   5.233   6.021   4.193  1.7414 -1.7175 -1.6939
   38MOL0     H 5112   5.363   5.899   4.581  1.7868 -0.5092  0.9321
   38MOL0     H 5113   5.482   5.735   4.761  0.0509  0.4967  1.3428
   38MOL0     H 5114   5.137   5.217   6.457 -2.0071 -1.9597 -1.0623
   38MOL0     H 5115   4.891   5.237   6.469 -0.4917 -0.2844 -0.4754
   38MOL0     H 5116   4.541   5.264   6.320  2.1203  1.6696  0.5028
   38MOL0     H 5117   4.337   5.187   6.418 -3.7400  1.2379  2.3035
   38MOL0     H 5118   4.226   5.082   6.559  0.7607  0.0218  1.7040
   38MOL0     H 5119   4.100   5.201   6.529 -0.9403  0.7090  1.6668
   38MOL0     H 5120   4.005   5.181   6.742  1.6730 -0.1682 -1.1205
   38MOL0     H 5121   4.127   5.055   6.790  3.3728  2.5253 -1.0165
   38MOL0     H 5122   4.069   4.903   6.640 -0.6334 -0.1286  0.0544
   38MOL0     H 5123   3.952   5.006   6.547  2.5625  1.7968 -1.2078
   38MOL0     H 5124   3.794   4.984   6.678  1.8535  0.4644 -0.3178
   38MOL0     H 5125   3.864   4.822   6.656 -2.2363 -0.8190  1.0943
   38MOL0     H 5126   3.937   4.904   7.072 -1.3504  5.1571  1.4161
   38MOL0     H 5127   4.406   5.387   6.772 -1.5060 -1.9854  0.0780
   38MOL0     H 5128   4.609   5.471   6.812 -3.4599 -1.1376 -1.2712
   38MOL0     H 5129   4.751   5.464   6.696  0.2622  2.0923  1.7383
   38MOL0     H 5130   4.631   5.599   6.709 -2.5995  0.4075  2.3056
   39MOL0     O 5131   1.412  11.180   3.329  0.3155 -0.5516 -0.2939
   39MOL0     C 5132   1.475  11.197   3.223  0.0807 -0.4269  1.9644
   39MOL0     O 5133   1.553  11.101   3.164 -0.2580  0.8508 -0.4801
   39MOL0     C 5134   1.572  10.987   3.236  0.0217  0.1535  0.9921
   39MOL0     C 5135   1.497  10.870   3.204 -0.0232 -0.3235 -0.9379
   39MOL0     C 5136   1.523  10.748   3.263 -0.1858 -1.0020 -0.3313
   39MOL0     C 5137   1.623  10.729   3.355 -0.2795 -1.2616  1.2999
   39MOL0     O 5138   1.658  10.612   3.417 -0.3836 -1.0455  0.1054
   39MOL0     C 5139   1.641  10.486   3.341 -0.5974 -1.4270  0.6777
   39MOL0     C 5140   1.728  10.392   3.420 -0.0813 -0.4419  0.7791
   39MOL0     C 5141   1.693  10.253   3.367  0.2134  0.1045 -0.8900
   39MOL0     C 5142   1.748  10.136   3.447  0.4472  1.3327 -0.3717
   39MOL0     C 5143   1.735   9.997   3.392  0.8202  0.1890 -0.7038
   39MOL0     C 5144   1.815   9.896   3.470  0.1115  0.0585 -0.8044
   39MOL0     C 5145   1.803   9.758   3.403 -0.4830  0.4084  0.2505
   39MOL0     C 5146   1.893   9.658   3.482 -0.4601  0.0194  0.2772
   39MOL0     N 5147   1.902   9.515   3.448 -0.7404 -0.1453 -0.2961
   39MOL0     C 5148   1.896   9.425   3.551  1.0191  0.4617 -0.2013
   39MOL0     C 5149   1.913   9.303   3.492 -0.8186  0.7879  0.1724
   39MOL0     C 5150   1.916   9.171   3.572  0.0068 -0.1523  0.4241
   39MOL0     C 5151   2.017   9.168   3.685 -1.3276  0.0922 -1.0535
   39MOL0     C 5152   2.156   9.106   3.651  0.4282 -0.4240 -0.0018
   39MOL0     C 5153   2.251   9.116   3.773  0.1417 -0.0915  0.2343
   39MOL0     O 5154   2.385   9.060   3.742  0.3322 -0.3015 -0.8381
   39MOL0     C 5155   2.478   9.047   3.842 -0.7535  0.0709  0.5255
   39MOL0     C 5156   2.449   9.056   3.977 -0.2474 -1.0556 -0.5216
   39MOL0     C 5157   2.547   9.036   4.076 -0.3255 -0.5796 -0.1757
   39MOL0     C 5158   2.678   8.983   4.034  2.0950 -0.2288 -0.6069
   39MOL0     C 5159   2.782   8.937   4.130  0.2763 -0.3831  0.5163
   39MOL0     O 5160   2.902   8.899   4.072  1.0250 -0.1363 -0.3187
   39MOL0     C 5161   3.015   8.872   4.149  0.3145 -0.7267  0.0192
   39MOL0     C 5162   3.092   8.762   4.101 -0.2949 -0.1733  0.5252
   39MOL0     C 5163   3.203   8.717   4.166 -0.1377  0.6970 -0.2585
   39MOL0     C 5164   3.245   8.798   4.277 -0.2607  0.2716  0.0742
   39MOL0     O 5165   3.362   8.786   4.347 -0.0285  0.2038 -0.1560
   39MOL0     C 5166   3.491   8.774   4.278 -0.3113 -0.1513  0.3752
   39MOL0     C 5167   3.621   8.780   4.366  0.5838 -0.3032 -0.8728
   39MOL0     C 5168   3.613   8.687   4.483 -1.3493 -0.0226  0.7128
   39MOL0     C 5169   3.713   8.734   4.583  0.1476  0.2217 -0.2049
   39MOL0     C 5170   3.711   8.650   4.717 -0.0078  0.3645 -0.2705
   39MOL0     C 5171   3.813   8.699   4.829 -0.0426 -0.3229  0.5513
   39MOL0     C 5172   3.797   8.853   4.861 -0.2044  0.3990 -0.6944
   39MOL0     C 5173   3.865   8.896   4.998 -0.4575 -0.7690  0.1342
   39MOL0    Cl 5174   3.833   9.067   5.015  0.1347 -0.0156 -0.3098
   39MOL0     C 5175   3.167   8.908   4.329 -0.5851 -0.9812  0.6229
   39MOL0     C 5176   3.057   8.951   4.256  0.1591  0.3111  0.6475
   39MOL0     O 5177   2.748   8.932   4.250 -0.3785  0.7873  0.9277
   39MOL0     C 5178   2.702   8.984   3.898 -0.6153  0.6836 -0.2727
   39MOL0     C 5179   2.608   9.007   3.802  0.1695 -0.4465 -0.0234
   39MOL0     N 5180   1.928   9.319   3.354 -0.2181 -0.6771  0.0369
   39MOL0     N 5181   1.925   9.446   3.328  0.1641  0.0977  0.3218
   39MOL0     C 5182   1.702  10.845   3.393  0.6272  0.0867 -0.5596
   39MOL0     C 5183   1.665  10.970   3.344  0.1874  1.0751 -0.4847
   39MOL0     C 5184   1.469  11.316   3.142 -0.4494  0.1412  0.2445
   39MOL0     C 5185   1.512  11.307   3.005  0.2667  0.7069 -0.7016
   39MOL0     C 5186   1.533  11.417   2.922 -0.1864  0.6148 -0.4060
   39MOL0     C 5187   1.495  11.545   2.974 -0.1813 -0.0447  0.6165
   39MOL0     O 5188   1.508  11.655   2.891  0.5689  0.0940  0.1698
   39MOL0     C 5189   1.388  11.730   2.877  0.5064 -0.1432  0.3849
   39MOL0     C 5190   1.322  11.675   2.755  0.2645  0.3146  0.4981
   39MOL0     C 5191   1.398  11.720   2.625  0.4676  1.2193  0.2925
   39MOL0     C 5192   1.416  11.868   2.588 -0.9059 -0.0345  0.0403
   39MOL0     C 5193   1.291  11.937   2.561  0.3406 -0.3403  0.6941
   39MOL0     C 5194   1.191  11.998   2.528  0.7982  1.2347 -0.0896
   39MOL0     C 5195   1.458  11.556   3.107 -0.8476  0.3451 -0.1605
   39MOL0     C 5196   1.443  11.445   3.192  0.3689  0.5085  0.0140
   39MOL0     C 5197   1.396  11.480   3.326 -0.4817  0.7351 -0.1809
   39MOL0     H 5198   1.425  10.868   3.123 -2.5133 -0.1565  1.1620
   39MOL0     H 5199   1.459  10.662   3.247  0.6737 -2.2574  2.4089
   39MOL0     H 5200   1.532  10.476   3.351 -0.4604 -3.0620  0.7332
   39MOL0     H 5201   1.690  10.497   3.244  0.5852 -2.6218  1.1092
   39MOL0     H 5202   1.708  10.400   3.527  2.5576  0.9681  1.2427
   39MOL0     H 5203   1.833  10.417   3.401 -0.1689 -1.1325 -0.7403
   39MOL0     H 5204   1.724  10.253   3.262  3.8231  3.5650 -0.0763
   39MOL0     H 5205   1.586  10.253   3.346  0.6505  0.8051 -3.5595
   39MOL0     H 5206   1.853  10.154   3.472  0.0069  0.9422  2.0464
   39MOL0     H 5207   1.699  10.125   3.544  4.0152  2.9509  1.8286
   39MOL0     H 5208   1.631   9.965   3.381  0.0586  1.7204  1.4507
   39MOL0     H 5209   1.777  10.013   3.292  2.2504 -0.7734 -0.2864
   39MOL0     H 5210   1.919   9.930   3.457  0.1847 -0.6949 -2.3381
   39MOL0     H 5211   1.793   9.884   3.577 -0.6473 -3.1061 -1.2384
   39MOL0     H 5212   1.839   9.760   3.300  0.9378  1.7568  0.7425
   39MOL0     H 5213   1.696   9.734   3.398  0.2247 -3.5498  0.4686
   39MOL0     H 5214   1.996   9.695   3.482 -1.1080  2.0584  2.1463
   39MOL0     H 5215   1.872   9.668   3.589  1.0858 -1.5982  0.7871
   39MOL0     H 5216   1.882   9.442   3.657  1.7008  2.7300 -0.4147
   39MOL0     H 5217   1.816   9.175   3.618  0.1919  1.6616  0.7418
   39MOL0     H 5218   1.919   9.084   3.506  0.5907 -0.9220  1.4380
   39MOL0     H 5219   2.038   9.266   3.729 -1.8440 -1.0876  2.0541
   39MOL0     H 5220   1.986   9.111   3.772  0.8877 -1.2984 -1.1141
   39MOL0     H 5221   2.203   9.168   3.574 -1.0220  0.2467 -0.3860
   39MOL0     H 5222   2.141   9.002   3.619  0.3979 -0.4980  0.2463
   39MOL0     H 5223   2.183   9.056   3.834 -0.9127  1.2597  0.4479
   39MOL0     H 5224   2.260   9.219   3.809  1.0237 -0.9762  2.6780
   39MOL0     H 5225   2.356   9.103   4.008 -0.1476 -2.2218  1.7970
   39MOL0     H 5226   2.538   9.056   4.182 -3.6589 -2.2536 -0.0219
   39MOL0     H 5227   3.064   8.711   4.009  0.9298  0.4267 -0.2182
   39MOL0     H 5228   3.258   8.630   4.134 -1.4716  0.4024 -1.8705
   39MOL0     H 5229   3.487   8.675   4.231 -1.5487 -0.8277  1.8342
   39MOL0     H 5230   3.502   8.851   4.201 -1.4079  0.2396  0.5947
   39MOL0     H 5231   3.706   8.759   4.301  1.8919  1.6299  0.1005
   39MOL0     H 5232   3.643   8.882   4.398 -0.4912 -0.6613  1.1924
   39MOL0     H 5233   3.521   8.690   4.542  0.6141  0.1614  3.9937
   39MOL0     H 5234   3.657   8.590   4.456  1.9699  1.3841  0.6241
   39MOL0     H 5235   3.696   8.840   4.603 -1.0666  0.3795 -1.8736
   39MOL0     H 5236   3.813   8.731   4.538  1.5273  3.5574  2.1956
   39MOL0     H 5237   3.738   8.545   4.707 -1.2105  0.1276 -1.1692
   39MOL0     H 5238   3.607   8.664   4.747 -0.1358  0.3508 -0.7096
   39MOL0     H 5239   3.794   8.642   4.920 -0.2475 -2.1416 -0.5772
   39MOL0     H 5240   3.912   8.675   4.789 -0.6080  1.2545 -2.0973
   39MOL0     H 5241   3.688   8.867   4.868 -0.7655 -2.5729 -1.7478
   39MOL0     H 5242   3.831   8.916   4.779  2.1231 -2.3078 -1.9789
   39MOL0     H 5243   3.810   8.849   5.079 -2.3604  1.4181  0.2324
   39MOL0     H 5244   3.973   8.880   5.000  0.0212  1.8893 -0.1460
   39MOL0     H 5245   3.207   8.977   4.403 -0.9752  0.7186 -0.7168
   39MOL0     H 5246   3.008   9.045   4.281  1.3879  0.5457  2.4244
   39MOL0     H 5247   2.804   8.970   3.864 -0.8801  1.6497 -1.5638
   39MOL0     H 5248   2.640   9.011   3.698  1.9364  3.1439  0.5038
   39MOL0     H 5249   1.771  10.829   3.475  1.2015  0.9865 -0.8551
   39MOL0     H 5250   1.716  11.056   3.386 -1.1157  1.2397  0.8185
   39MOL0     H 5251   1.549  11.215   2.961  0.9133  0.4223  0.4176
   39MOL0     H 5252   1.568  11.402   2.820  1.9191 -1.3082  0.5085
   39MOL0     H 5253   1.409  11.836   2.858  0.5271 -0.0504  0.9118
   39MOL0     H 5254   1.328  11.733   2.969  1.0175 -0.2139  0.7239
   39MOL0     H 5255   1.219  11.709   2.740  0.4977  0.3051 -1.2869
   39MOL0     H 5256   1.305  11.567   2.764  0.6757  0.2304  0.2680
   39MOL0     H 5257   1.356  11.671   2.536 -0.7279 -0.3454  1.6564
   39MOL0     H 5258   1.501  11.684   2.632 -0.0777 -1.0276 -1.7182
   39MOL0     H 5259   1.477  11.911   2.668 -2.7471  0.9898  0.9871
   39MOL0     H 5260   1.472  11.877   2.495 -0.4910  2.6739  0.4621
   39MOL0     H 5261   1.111  12.034   2.467 -0.4409 -0.1537  0.6397
   39MOL0     H 5262   1.455  11.655   3.152  0.0608 -1.0670  3.3331
   39MOL0     H 5263   1.477  11.486   3.398  2.2924  1.5842 -3.1340
   39MOL0     H 5264   1.333  11.570   3.324 -3.2350 -1.0495 -3.0833
   39MOL0     H 5265   1.314  11.417   3.363 -1.0000  2.1785  1.2925
   40MOL0     O 5266  10.889   1.193  10.961 -0.1109  0.1305 -0.5714
   40MOL0     C 5267  10.895   1.140  11.076  0.1696 -0.4505 -0.6095
   40MOL0     O 5268  10.974   1.179  11.175 -0.6043  0.0065  0.0616
   40MOL0     C 5269  11.069   1.272  11.146  0.1557  0.8430 -0.3180
   40MOL0     C 5270  11.082   1.384  11.222 -0.4924  0.4787 -0.6865
   40MOL0     C 5271  11.172   1.481  11.201 -0.5311  0.3076  0.1039
   40MOL0     C 5272  11.258   1.472  11.095  0.0758 -0.6736  0.5419
   40MOL0     O 5273  11.350   1.569  11.079  0.1932  0.4500 -0.1271
   40MOL0     C 5274  11.306   1.690  11.021  0.6785  0.0747  0.1985
   40MOL0     C 5275  11.425   1.758  10.952  0.1183  0.8501  0.5984
   40MOL0     C 5276  11.392   1.869  10.843  0.2051  0.7200 -0.4019
   40MOL0     C 5277  11.521   1.952  10.827 -0.3726 -0.4104 -0.1933
   40MOL0     C 5278  11.516   2.051  10.714  0.2148 -0.5651  0.1337
   40MOL0     C 5279  11.556   1.994  10.578 -0.2019  0.2999  0.5469
   40MOL0     C 5280  11.593   2.114  10.492 -1.5255 -1.1574  0.6483
   40MOL0     C 5281  11.670   2.079  10.365 -0.0958  1.0405 -0.2951
   40MOL0     N 5282  11.580   2.033  10.260 -0.3036  0.7837  0.3007
   40MOL0     C 5283  11.546   1.904  10.242 -0.5104  0.2663  0.0187
   40MOL0     C 5284  11.478   1.911  10.124 -0.2863  0.8351  0.8471
   40MOL0     C 5285  11.426   1.789  10.052 -0.5183  0.3030  0.0484
   40MOL0     C 5286  11.513   1.760   9.933  0.2064  0.3798 -0.2377
   40MOL0     C 5287  11.659   1.727   9.962 -0.4055 -0.5431  0.4766
   40MOL0     C 5288  11.738   1.702   9.836  0.1387 -0.1255 -0.2662
   40MOL0     O 5289  11.874   1.675   9.860 -0.6851  0.4079  0.3346
   40MOL0     C 5290  11.962   1.678   9.749  0.6863 -0.3458  0.5364
   40MOL0     C 5291  12.089   1.624   9.767 -0.2450 -0.4335  0.3619
   40MOL0     C 5292  12.179   1.619   9.659 -0.3137 -0.4800 -0.2764
   40MOL0     C 5293  12.150   1.676   9.534  0.3559  0.8214 -0.7370
   40MOL0     C 5294  12.244   1.670   9.424 -0.8445 -0.0732  0.3383
   40MOL0     O 5295  12.223   1.747   9.314 -0.4567  0.4984  0.3635
   40MOL0     C 5296  12.291   1.742   9.195  0.9609  0.1604 -0.0755
   40MOL0     C 5297  12.237   1.826   9.093  0.0306 -0.0692  0.2659
   40MOL0     C 5298  12.302   1.835   8.968 -0.4643  0.2031 -0.8035
   40MOL0     C 5299  12.415   1.753   8.933 -0.2547  0.0074 -0.3630
   40MOL0     O 5300  12.462   1.745   8.811 -0.3984  0.9066  0.4995
   40MOL0     C 5301  12.509   1.615   8.762  0.4999  0.2629  0.0132
   40MOL0     C 5302  12.463   1.595   8.616 -0.4330 -0.4632 -0.1879
   40MOL0     C 5303  12.524   1.701   8.522 -0.0653 -0.6689 -0.1059
   40MOL0     C 5304  12.457   1.703   8.387  0.1232 -0.3169 -0.7386
   40MOL0     C 5305  12.541   1.792   8.284  0.0562 -0.5567  0.0851
   40MOL0     C 5306  12.451   1.808   8.159 -0.4117 -0.5557 -0.3216
   40MOL0     C 5307  12.514   1.863   8.030  0.1879 -0.3741  0.1072
   40MOL0     C 5308  12.408   1.916   7.933 -0.5368 -0.5673  0.5189
   40MOL0    Cl 5309  12.342   1.797   7.821  0.0216 -0.2996  0.3635
   40MOL0     C 5310  12.469   1.677   9.038  0.3656  0.3279  0.2390
   40MOL0     C 5311  12.416   1.680   9.173  0.2949  0.1477  0.8118
   40MOL0     O 5312  12.335   1.588   9.440 -0.4348  0.0174 -0.7733
   40MOL0     C 5313  12.018   1.713   9.510 -0.5908  0.2188 -0.4295
   40MOL0     C 5314  11.924   1.720   9.624 -0.4836 -1.1823  0.1159
   40MOL0     N 5315  11.469   2.043  10.080 -0.2052  0.4461  0.6330
   40MOL0     N 5316  11.532   2.114  10.163  0.2622  0.1667 -0.1106
   40MOL0     C 5317  11.245   1.362  11.005 -1.1029  0.0723 -0.6257
   40MOL0     C 5318  11.155   1.264  11.035 -0.1947 -1.1116 -0.3325
   40MOL0     C 5319  10.796   1.028  11.100 -0.1873 -0.1077 -0.5055
   40MOL0     C 5320  10.747   0.953  10.991  1.2831 -0.6456 -0.5480
   40MOL0     C 5321  10.653   0.848  11.002  0.8960  0.0120 -0.2223
   40MOL0     C 5322  10.610   0.812  11.137 -0.5895  0.0768 -0.3077
   40MOL0     O 5323  10.508   0.723  11.168  0.1715 -0.5020 -0.1749
   40MOL0     C 5324  10.441   0.636  11.069  0.6228 -0.3690 -1.0375
   40MOL0     C 5325  10.296   0.681  11.065 -0.3272  0.1750  0.6263
   40MOL0     C 5326  10.198   0.628  11.174 -0.2528 -0.8943 -0.2282
   40MOL0     C 5327  10.064   0.649  11.113  0.2975  0.0890 -0.1671
   40MOL0     C 5328   9.969   0.587  11.201 -0.5179  1.1834 -0.5591
   40MOL0     C 5329   9.879   0.535  11.263  0.2630  0.5058  0.0219
   40MOL0     C 5330  10.660   0.887  11.244 -0.3831  0.4751 -0.5185
   40MOL0     C 5331  10.749   0.993  11.232 -0.7599 -0.4691 -0.4358
   40MOL0     C 5332  10.782   1.070  11.358 -0.5817  1.0210  0.1704
   40MOL0     H 5333  11.014   1.392  11.306  1.7776 -4.8780  2.1442
   40MOL0     H 5334  11.162   1.570  11.262  2.4219  1.4448 -0.8912
   40MOL0     H 5335  11.221   1.667  10.956  0.2529 -0.2715  0.8597
   40MOL0     H 5336  11.283   1.768  11.093  0.6426  0.5645 -0.3390
   40MOL0     H 5337  11.482   1.688  10.890  2.4466  2.8334  0.3316
   40MOL0     H 5338  11.499   1.799  11.021 -1.4120  1.3488  2.0069
   40MOL0     H 5339  11.313   1.933  10.882 -0.9874 -0.4607 -0.8246
   40MOL0     H 5340  11.359   1.820  10.751 -0.2924 -1.1488  0.7191
   40MOL0     H 5341  11.546   2.010  10.916  0.4762  0.6412 -1.0932
   40MOL0     H 5342  11.602   1.883  10.801  0.6464 -0.2421  2.2511
   40MOL0     H 5343  11.434   2.123  10.707  0.0789 -0.7112  0.1947
   40MOL0     H 5344  11.595   2.120  10.745  1.6384 -1.6222 -0.9999
   40MOL0     H 5345  11.650   1.939  10.570 -0.3067  0.2564 -0.5741
   40MOL0     H 5346  11.472   1.940  10.534  2.1652 -0.5830 -3.2943
   40MOL0     H 5347  11.655   2.182  10.551 -2.5605  0.2860  0.1318
   40MOL0     H 5348  11.497   2.158  10.464 -1.7485 -0.6730  2.1115
   40MOL0     H 5349  11.716   2.174  10.337  2.1791  0.4574  1.1940
   40MOL0     H 5350  11.753   2.012  10.386 -0.3288  0.5800 -0.8069
   40MOL0     H 5351  11.575   1.813  10.293  0.7197  0.3441 -0.4944
   40MOL0     H 5352  11.419   1.701  10.116 -1.4419  0.2748 -0.0693
   40MOL0     H 5353  11.327   1.814  10.011 -0.2219  1.2299 -0.1213
   40MOL0     H 5354  11.476   1.679   9.870 -0.4847  0.0225  0.6036
   40MOL0     H 5355  11.503   1.849   9.870  2.1597  0.3993 -0.6068
   40MOL0     H 5356  11.677   1.638  10.023  1.2489  0.2341  1.1706
   40MOL0     H 5357  11.693   1.809  10.027 -3.2434  2.3393 -1.3590
   40MOL0     H 5358  11.718   1.792   9.777  3.0421  0.8515  0.0703
   40MOL0     H 5359  11.699   1.618   9.777 -2.3206  0.7862 -0.0642
   40MOL0     H 5360  12.103   1.580   9.865 -0.3794  3.8951  2.5614
   40MOL0     H 5361  12.258   1.551   9.688 -1.3898 -1.7581 -0.2146
   40MOL0     H 5362  12.144   1.882   9.101 -1.1343 -1.6133 -1.4480
   40MOL0     H 5363  12.248   1.907   8.908  0.6259  2.5554  0.8825
   40MOL0     H 5364  12.617   1.602   8.773  0.2372 -1.6812  0.6108
   40MOL0     H 5365  12.475   1.532   8.823  0.2711 -0.9263 -1.6577
   40MOL0     H 5366  12.488   1.494   8.581  1.6523  0.3351 -1.1310
   40MOL0     H 5367  12.356   1.616   8.611 -1.0273 -3.1503 -0.4344
   40MOL0     H 5368  12.508   1.798   8.570  2.8521 -0.5008  0.7121
   40MOL0     H 5369  12.632   1.685   8.509 -0.1702 -0.6068 -1.1206
   40MOL0     H 5370  12.356   1.745   8.391 -0.0961 -0.8577 -0.5788
   40MOL0     H 5371  12.452   1.598   8.357 -3.9278 -0.3656 -0.4834
   40MOL0     H 5372  12.631   1.742   8.250  0.1725  0.0629 -0.5339
   40MOL0     H 5373  12.573   1.890   8.322  0.5951 -1.1297  1.1476
   40MOL0     H 5374  12.418   1.709   8.127 -0.0982 -0.4348 -1.0378
   40MOL0     H 5375  12.364   1.873   8.174  1.7952  2.5123  0.2606
   40MOL0     H 5376  12.572   1.780   7.988  2.6260  1.4580 -0.3647
   40MOL0     H 5377  12.590   1.937   8.057 -0.5413  0.2888  0.3905
   40MOL0     H 5378  12.322   1.973   7.969 -1.2852 -1.7976  0.7437
   40MOL0     H 5379  12.449   1.988   7.861  0.9810 -1.4439  0.4536
   40MOL0     H 5380  12.567   1.636   9.015 -0.3109 -0.9020 -0.5493
   40MOL0     H 5381  12.460   1.612   9.244  1.7839 -2.7538 -2.5722
   40MOL0     H 5382  11.984   1.754   9.416  0.5409  1.5039 -0.2923
   40MOL0     H 5383  11.825   1.752   9.594  0.0684 -1.3113 -2.0074
   40MOL0     H 5384  11.298   1.348  10.912  2.0033  3.3346  0.3842
   40MOL0     H 5385  11.140   1.185  10.962 -0.4541 -0.7265 -0.6975
   40MOL0     H 5386  10.775   0.983  10.891  2.4838 -0.0043 -0.0480
   40MOL0     H 5387  10.635   0.798  10.907  2.7876 -1.2783  0.0439
   40MOL0     H 5388  10.434   0.534  11.108 -1.7472  0.9276  2.4185
   40MOL0     H 5389  10.486   0.639  10.969  0.0369  1.8760 -1.2965
   40MOL0     H 5390  10.261   0.652  10.965 -2.3621  1.3271  0.9305
   40MOL0     H 5391  10.293   0.791  11.060  0.7766  0.1569 -2.2250
   40MOL0     H 5392  10.208   0.677  11.272 -0.4763  0.0944 -0.6814
   40MOL0     H 5393  10.220   0.524  11.199 -0.9757 -0.6448  1.6066
   40MOL0     H 5394  10.038   0.755  11.103 -0.9232 -0.3043 -1.3856
   40MOL0     H 5395  10.064   0.593  11.020  1.5911 -2.4603  1.2534
   40MOL0     H 5396   9.802   0.479  11.312  0.6641 -0.7759 -0.7806
   40MOL0     H 5397  10.617   0.862  11.341 -0.1487  0.0175 -0.5303
   40MOL0     H 5398  10.890   1.071  11.376 -0.0723 -0.1436 -2.3653
   40MOL0     H 5399  10.743   1.172  11.344  1.9268  2.1393  0.7657
   40MOL0     H 5400  10.728   1.023  11.441  1.6195 -2.4111 -0.1748
   41MOL0     O 5401   8.167   2.689   0.044 -0.3640  0.1520 -0.2196
   41MOL0     C 5402   8.138   2.582   0.099  0.3968 -0.2788 -0.0639
   41MOL0     O 5403   8.007   2.543   0.136 -0.0122  0.1922  0.5574
   41MOL0     C 5404   7.912   2.637   0.153 -0.5855  0.0184  0.2125
   41MOL0     C 5405   7.928   2.775   0.194  0.0109 -0.0342  0.7436
   41MOL0     C 5406   7.803   2.845   0.215 -0.2679 -0.9097  0.3152
   41MOL0     C 5407   7.675   2.797   0.188 -0.9691 -0.2069 -1.0775
   41MOL0     O 5408   7.578   2.888   0.193  0.4982  0.4464 -0.5220
   41MOL0     C 5409   7.453   2.836   0.248  0.1455  1.0608 -0.4066
   41MOL0     C 5410   7.344   2.944   0.240  0.7845  0.6536 -0.0785
   41MOL0     C 5411   7.384   3.058   0.331  0.2413  0.7446  0.9010
   41MOL0     C 5412   7.267   3.097   0.424  1.0464 -0.3437 -0.2826
   41MOL0     C 5413   7.296   3.247   0.449  1.1942  0.5855  0.2303
   41MOL0     C 5414   7.188   3.314   0.537 -0.0138 -0.8511 -0.4426
   41MOL0     C 5415   7.224   3.442   0.603 -0.3255  0.1910 -0.3145
   41MOL0     C 5416   7.368   3.454   0.645  0.5263 -0.9311  0.4558
   41MOL0     N 5417   7.385   3.387   0.773  0.5464 -0.1471  0.8441
   41MOL0     C 5418   7.416   3.259   0.801 -0.1911  1.3104 -0.1686
   41MOL0     C 5419   7.428   3.247   0.933 -1.0717  0.3687 -0.1087
   41MOL0     C 5420   7.414   3.114   1.013 -0.4588 -0.6376  0.1037
   41MOL0     C 5421   7.529   3.025   0.999 -0.6098  0.5682  0.6162
   41MOL0     C 5422   7.642   3.032   1.112 -0.2632 -0.3170  0.3751
   41MOL0     C 5423   7.730   2.911   1.095 -0.4359  0.1602  0.6294
   41MOL0     O 5424   7.704   2.829   1.210  0.0131  0.2715 -0.1542
   41MOL0     C 5425   7.792   2.722   1.235  0.2975  0.9305 -0.0727
   41MOL0     C 5426   7.787   2.659   1.359 -0.6573 -1.5705  0.2507
   41MOL0     C 5427   7.886   2.564   1.394 -0.4236 -0.0337 -0.7016
   41MOL0     C 5428   7.970   2.508   1.296  0.2169 -0.2053  0.0366
   41MOL0     C 5429   8.051   2.387   1.323 -0.1855 -0.0939 -0.9420
   41MOL0     O 5430   8.032   2.337   1.446 -0.8261  0.0089 -0.5884
   41MOL0     C 5431   8.077   2.207   1.466 -0.1967 -0.3366  0.8278
   41MOL0     C 5432   8.216   2.190   1.469 -0.6818  0.4521 -0.0444
   41MOL0     C 5433   8.270   2.058   1.477 -0.5372 -0.6074 -0.0964
   41MOL0     C 5434   8.177   1.954   1.468 -0.2364  0.3095 -0.7989
   41MOL0     O 5435   8.219   1.825   1.480 -0.2678  0.6943 -0.4980
   41MOL0     C 5436   8.299   1.773   1.383 -0.4937  0.7929 -0.1079
   41MOL0     C 5437   8.368   1.649   1.436  0.3779 -0.6169  0.4299
   41MOL0     C 5438   8.492   1.698   1.518  0.2656 -0.0734  0.4692
   41MOL0     C 5439   8.580   1.582   1.539 -0.1756 -0.5495  0.2478
   41MOL0     C 5440   8.531   1.454   1.608  0.3880 -0.1301  0.0413
   41MOL0     C 5441   8.514   1.473   1.767 -0.5981  0.1377  0.4064
   41MOL0     C 5442   8.442   1.349   1.820 -0.0414 -0.1991  0.1215
   41MOL0     C 5443   8.437   1.350   1.977  0.0502  0.0232 -0.1107
   41MOL0    Cl 5444   8.602   1.365   2.042  0.0859 -0.1837 -0.3797
   41MOL0     C 5445   8.038   1.978   1.460  0.1835 -0.5854 -0.9740
   41MOL0     C 5446   7.982   2.102   1.461 -0.1883 -0.4674  0.4737
   41MOL0     O 5447   8.100   2.326   1.228 -0.7107  0.3168  0.4750
   41MOL0     C 5448   7.955   2.558   1.162  0.2409 -0.2784  0.1679
   41MOL0     C 5449   7.876   2.671   1.131 -0.1677 -0.8813 -0.3738
   41MOL0     N 5450   7.410   3.377   0.983  0.4266 -0.2399 -0.5006
   41MOL0     N 5451   7.382   3.459   0.888  0.0491 -0.5601 -0.2468
   41MOL0     C 5452   7.667   2.659   0.152 -0.0227 -0.5562  0.5294
   41MOL0     C 5453   7.779   2.584   0.136  0.2584  0.3615  0.4770
   41MOL0     C 5454   8.241   2.487   0.135 -0.0682  0.1797 -0.0437
   41MOL0     C 5455   8.206   2.350   0.114 -0.4808  0.3250 -0.3171
   41MOL0     C 5456   8.299   2.248   0.131  0.1100  0.5555  0.0799
   41MOL0     C 5457   8.425   2.279   0.182 -0.7831  0.3055  0.1794
   41MOL0     O 5458   8.509   2.174   0.201 -0.4024  0.1426 -0.5726
   41MOL0     C 5459   8.634   2.194   0.275  0.4212  0.7835 -1.6475
   41MOL0     C 5460   8.723   2.064   0.254  0.2572 -0.2413  0.8276
   41MOL0     C 5461   8.838   2.060   0.353  0.4806 -0.0310 -1.0768
   41MOL0     C 5462   8.813   1.974   0.479 -0.6596  0.4165  0.2185
   41MOL0     C 5463   8.829   1.831   0.445 -0.2943 -1.0702 -0.0903
   41MOL0     C 5464   8.830   1.725   0.390 -0.9946 -0.3755 -0.3172
   41MOL0     C 5465   8.461   2.413   0.209  0.4277  0.5194 -0.4600
   41MOL0     C 5466   8.371   2.519   0.181 -0.0858 -0.7034 -0.6331
   41MOL0     C 5467   8.420   2.663   0.198 -0.6337 -0.4614 -0.8009
   41MOL0     H 5468   8.025   2.821   0.211 -0.4062  2.3080 -2.3950
   41MOL0     H 5469   7.806   2.952   0.232  0.2766 -1.0291  1.0068
   41MOL0     H 5470   7.422   2.745   0.194  0.3264  0.8905 -0.2275
   41MOL0     H 5471   7.466   2.807   0.352 -1.2976 -0.7369 -0.6592
   41MOL0     H 5472   7.250   2.894   0.266  1.3945 -0.0135  0.9296
   41MOL0     H 5473   7.318   2.981   0.140 -4.6214  1.8852  1.4565
   41MOL0     H 5474   7.403   3.131   0.252  1.1395 -2.1270 -1.7595
   41MOL0     H 5475   7.476   3.039   0.386 -0.4284 -0.5485  1.6213
   41MOL0     H 5476   7.172   3.077   0.372  0.8253 -0.1313  0.0377
   41MOL0     H 5477   7.259   3.039   0.516 -2.6274  0.2248 -0.0952
   41MOL0     H 5478   7.396   3.243   0.493  1.5038 -1.4669 -0.5311
   41MOL0     H 5479   7.292   3.291   0.350  3.0564 -0.7373 -0.4928
   41MOL0     H 5480   7.091   3.305   0.487  0.6017 -0.4637 -1.7617
   41MOL0     H 5481   7.182   3.245   0.621 -1.3126 -1.6032 -1.1173
   41MOL0     H 5482   7.164   3.474   0.689  0.1312  0.1292  0.0358
   41MOL0     H 5483   7.213   3.523   0.532  1.0812  1.6120  1.0004
   41MOL0     H 5484   7.434   3.412   0.568 -0.8171 -0.2942 -1.0849
   41MOL0     H 5485   7.399   3.558   0.661  1.6394 -1.4280  1.8602
   41MOL0     H 5486   7.411   3.172   0.736 -0.3966 -0.3622  1.9542
   41MOL0     H 5487   7.402   3.134   1.120  5.0329  0.6647  0.7806
   41MOL0     H 5488   7.326   3.066   0.970  0.8635 -1.7363 -1.4879
   41MOL0     H 5489   7.488   2.923   1.005  2.1498 -0.7602 -1.0110
   41MOL0     H 5490   7.581   3.023   0.903  1.5980 -1.1118  1.7697
   41MOL0     H 5491   7.594   3.051   1.208  0.0122  5.1628 -0.2466
   41MOL0     H 5492   7.706   3.117   1.086  0.6620 -1.2934 -0.7018
   41MOL0     H 5493   7.833   2.946   1.095 -0.6830  0.9016  0.7682
   41MOL0     H 5494   7.715   2.860   1.000  1.8592 -0.0083  0.3120
   41MOL0     H 5495   7.726   2.713   1.430  1.4511  0.1859  0.8165
   41MOL0     H 5496   7.882   2.532   1.498 -0.4819 -3.2878 -1.6000
   41MOL0     H 5497   8.291   2.268   1.480  1.9357 -1.8754  0.0075
   41MOL0     H 5498   8.377   2.045   1.491 -0.4807 -0.1033 -0.0610
   41MOL0     H 5499   8.227   1.733   1.311 -0.1413 -2.7849  1.3178
   41MOL0     H 5500   8.368   1.846   1.339  0.6921 -0.3894 -0.2761
   41MOL0     H 5501   8.298   1.597   1.502 -2.4814  2.8947  0.4288
   41MOL0     H 5502   8.402   1.593   1.348  2.1621  1.8976 -0.6218
   41MOL0     H 5503   8.546   1.780   1.470 -0.9328  1.2577  1.3138
   41MOL0     H 5504   8.456   1.742   1.611 -0.8035  0.6948 -0.2813
   41MOL0     H 5505   8.658   1.615   1.608 -0.2785 -0.1098  0.1586
   41MOL0     H 5506   8.622   1.553   1.442  0.8569  2.8788 -0.4724
   41MOL0     H 5507   8.613   1.382   1.597 -1.0187 -1.8076  0.1879
   41MOL0     H 5508   8.441   1.430   1.551  0.8352 -1.5371 -0.1011
   41MOL0     H 5509   8.613   1.477   1.814  1.2452 -2.5856 -2.8259
   41MOL0     H 5510   8.457   1.559   1.804  0.9115  1.1462  0.4887
   41MOL0     H 5511   8.484   1.256   1.781 -0.1738 -0.9252  1.6176
   41MOL0     H 5512   8.335   1.345   1.797 -0.8897 -0.6848  3.5711
   41MOL0     H 5513   8.381   1.432   2.021  1.8472  0.0327  2.3627
   41MOL0     H 5514   8.399   1.254   2.014  0.1859  0.0930  0.2120
   41MOL0     H 5515   7.969   1.895   1.467  2.8801 -2.9528 -0.6643
   41MOL0     H 5516   7.876   2.110   1.437  0.3734 -0.5410 -2.3784
   41MOL0     H 5517   8.013   2.515   1.081 -0.5072 -1.8659  0.4258
   41MOL0     H 5518   7.881   2.717   1.033  0.9472  3.2007  1.3966
   41MOL0     H 5519   7.572   2.612   0.127 -1.3019  1.9859  0.3163
   41MOL0     H 5520   7.771   2.478   0.114  0.4365  0.6098 -0.8411
   41MOL0     H 5521   8.104   2.335   0.081 -1.2389  1.2887  1.4407
   41MOL0     H 5522   8.266   2.148   0.106 -0.5214  0.5421  0.9142
   41MOL0     H 5523   8.602   2.200   0.379 -0.5831 -0.8373 -1.8279
   41MOL0     H 5524   8.694   2.278   0.239  1.5835  0.9720  0.5844
   41MOL0     H 5525   8.764   2.079   0.154 -0.6197  2.1294  0.7416
   41MOL0     H 5526   8.653   1.980   0.253  0.0890 -0.1077 -0.3151
   41MOL0     H 5527   8.853   2.164   0.385  0.6172 -1.1380  3.0736
   41MOL0     H 5528   8.925   2.014   0.307  1.2062  0.7723 -0.5413
   41MOL0     H 5529   8.888   2.003   0.554  1.9713 -3.0450 -0.7867
   41MOL0     H 5530   8.708   1.985   0.508 -1.7176 -0.7436 -2.8227
   41MOL0     H 5531   8.814   1.631   0.340 -2.6975  0.8125 -2.1610
   41MOL0     H 5532   8.558   2.431   0.255  0.7872  2.1769 -1.7467
   41MOL0     H 5533   8.519   2.672   0.245 -1.7915  4.5369  1.3202
   41MOL0     H 5534   8.410   2.720   0.105 -0.2702  1.2119  0.1351
   41MOL0     H 5535   8.349   2.705   0.270 -0.5395  2.4377 -2.2336
   42MOL0     O 5536   3.163   9.535   5.460  0.7741 -0.3347  1.5532
   42MOL0     C 5537   3.228   9.630   5.437 -0.9192 -0.1975 -1.0208
   42MOL0     O 5538   3.296   9.688   5.533  0.4706 -0.2709  0.5271
   42MOL0     C 5539   3.277   9.657   5.667 -0.7947 -0.0549  0.0084
   42MOL0     C 5540   3.161   9.666   5.738  0.7509  0.2466  0.0984
   42MOL0     C 5541   3.151   9.633   5.878 -0.5800 -0.3685  0.9807
   42MOL0     C 5542   3.264   9.593   5.945 -0.5398 -0.7880 -0.6317
   42MOL0     O 5543   3.252   9.544   6.071  1.1993  0.1935 -0.2227
   42MOL0     C 5544   3.365   9.548   6.160 -0.0877 -0.1582 -0.2288
   42MOL0     C 5545   3.343   9.470   6.288 -0.0963  0.7708 -0.3591
   42MOL0     C 5546   3.327   9.317   6.257  0.5783  0.7410 -0.1204
   42MOL0     C 5547   3.306   9.235   6.388 -0.0697  0.6432 -0.5778
   42MOL0     C 5548   3.264   9.087   6.344 -0.7908  0.2809  0.2211
   42MOL0     C 5549   3.209   9.019   6.464 -0.4564  0.0024 -0.3316
   42MOL0     C 5550   3.321   8.929   6.522  0.5559 -0.1413  0.4767
   42MOL0     C 5551   3.278   8.843   6.643 -1.1402  0.0450  0.4724
   42MOL0     N 5552   3.175   8.751   6.593 -0.1225  0.5193 -0.3995
   42MOL0     C 5553   3.202   8.652   6.501  0.0535  0.4368  0.0856
   42MOL0     C 5554   3.085   8.584   6.480 -0.1855  1.0079  0.2222
   42MOL0     C 5555   3.059   8.467   6.381  0.0369 -0.0648 -0.3316
   42MOL0     C 5556   3.166   8.362   6.401  0.0999  0.1841 -0.7487
   42MOL0     C 5557   3.162   8.231   6.329  1.5322 -0.2068  0.2506
   42MOL0     C 5558   3.277   8.140   6.358 -0.5020  0.4111  0.7126
   42MOL0     O 5559   3.394   8.202   6.302  0.1117 -0.0091  0.1724
   42MOL0     C 5560   3.505   8.124   6.300  0.7307 -0.8237  1.0092
   42MOL0     C 5561   3.594   8.161   6.201 -0.5377  0.2401  0.5080
   42MOL0     C 5562   3.697   8.079   6.157  0.0930  0.4223  0.2217
   42MOL0     C 5563   3.723   7.961   6.226  0.2043  0.5638  0.8761
   42MOL0     C 5564   3.842   7.875   6.189 -0.1702 -0.1937  0.3585
   42MOL0     O 5565   3.870   7.761   6.259  0.6008  0.7816  0.3721
   42MOL0     C 5566   3.956   7.663   6.204  0.8854 -0.2182 -0.4260
   42MOL0     C 5567   4.046   7.610   6.284 -0.0013 -0.0864 -0.6368
   42MOL0     C 5568   4.110   7.500   6.250 -0.2265  0.2217 -0.3238
   42MOL0     C 5569   4.088   7.428   6.129  0.1773 -0.2674 -0.4773
   42MOL0     O 5570   4.169   7.330   6.070 -0.2028  0.5354 -0.0054
   42MOL0     C 5571   4.317   7.360   6.085  0.6853  0.2832 -0.4235
   42MOL0     C 5572   4.378   7.285   5.967  0.0018  0.9243 -0.1109
   42MOL0     C 5573   4.396   7.133   6.009 -0.6244 -0.7612 -0.3748
   42MOL0     C 5574   4.473   7.063   5.893 -0.7291  0.8064 -0.0142
   42MOL0     C 5575   4.473   6.910   5.917  0.5337  0.7206 -0.2392
   42MOL0     C 5576   4.337   6.834   5.939 -0.6176  0.6391 -0.1433
   42MOL0     C 5577   4.342   6.694   5.990  0.1797  0.1073 -0.4997
   42MOL0     C 5578   4.202   6.655   6.052  0.3971 -0.5501  0.4278
   42MOL0    Cl 5579   4.185   6.729   6.219  0.1876 -0.3373 -0.1131
   42MOL0     C 5580   4.001   7.496   6.037 -0.1231  0.6493  0.4217
   42MOL0     C 5581   3.931   7.614   6.075 -0.2316  0.0170  0.8799
   42MOL0     O 5582   3.904   7.914   6.092  0.2353  1.0490 -0.0754
   42MOL0     C 5583   3.645   7.925   6.337 -0.2337 -0.0856  0.5524
   42MOL0     C 5584   3.539   8.004   6.376  0.3737  0.4438  0.8472
   42MOL0     N 5585   2.987   8.655   6.543 -0.4809 -0.0769 -0.1616
   42MOL0     N 5586   3.040   8.747   6.624  0.3733 -0.5251  0.0645
   42MOL0     C 5587   3.387   9.603   5.875 -0.8182 -0.1253 -0.5628
   42MOL0     C 5588   3.398   9.634   5.740 -0.1836  0.2115 -0.1965
   42MOL0     C 5589   3.245   9.676   5.300 -0.0463 -0.3669 -1.0099
   42MOL0     C 5590   3.187   9.600   5.195 -0.7902  0.1984 -0.8444
   42MOL0     C 5591   3.204   9.642   5.064 -0.0328  1.0441  0.3124
   42MOL0     C 5592   3.268   9.772   5.030  1.5268  0.8460 -0.5597
   42MOL0     O 5593   3.271   9.806   4.900 -0.3733 -0.4040 -0.6645
   42MOL0     C 5594   3.297   9.933   4.863  0.3413 -1.0023  0.6206
   42MOL0     C 5595   3.453   9.955   4.860  0.2239  1.3346 -0.8292
   42MOL0     C 5596   3.521   9.870   4.749 -0.8589 -0.3738  1.0581
   42MOL0     C 5597   3.677   9.895   4.720  0.5180 -0.2118  0.3975
   42MOL0     C 5598   3.725   9.792   4.625 -0.1153 -0.3317 -0.0624
   42MOL0     C 5599   3.769   9.689   4.564 -0.3229 -0.1760 -0.1189
   42MOL0     C 5600   3.297   9.858   5.139 -0.5312  1.5912  0.6293
   42MOL0     C 5601   3.291   9.812   5.271  0.2693  0.4507  1.1655
   42MOL0     C 5602   3.329   9.918   5.369 -0.1658  0.2823  0.5680
   42MOL0     H 5603   3.070   9.700   5.691 -0.2807  0.0135  1.8286
   42MOL0     H 5604   3.058   9.657   5.929 -1.2997  1.6640 -1.0913
   42MOL0     H 5605   3.462   9.515   6.120  1.1106  0.1291  2.2401
   42MOL0     H 5606   3.382   9.652   6.189 -2.4120  0.5968 -1.3480
   42MOL0     H 5607   3.252   9.497   6.342 -0.4369 -0.1770 -0.4470
   42MOL0     H 5608   3.430   9.489   6.352  0.7118  0.6315 -1.3930
   42MOL0     H 5609   3.403   9.278   6.188 -0.1780 -0.3888 -0.3546
   42MOL0     H 5610   3.238   9.300   6.196  1.1903  0.0011 -0.8349
   42MOL0     H 5611   3.399   9.223   6.443 -0.4525 -2.4858 -0.4464
   42MOL0     H 5612   3.235   9.291   6.451 -1.9892 -1.2558 -0.9438
   42MOL0     H 5613   3.186   9.088   6.267 -1.3390 -0.9231  0.7370
   42MOL0     H 5614   3.359   9.049   6.308  1.1239  3.2720  1.7073
   42MOL0     H 5615   3.177   9.092   6.539  2.0477  0.5318  0.3099
   42MOL0     H 5616   3.123   8.965   6.424  1.3298 -1.4052 -2.5626
   42MOL0     H 5617   3.394   9.005   6.550  0.9421 -0.8416  1.4225
   42MOL0     H 5618   3.372   8.880   6.439  0.6792  0.9431 -0.0971
   42MOL0     H 5619   3.371   8.797   6.677  0.4273 -0.5934 -3.9822
   42MOL0     H 5620   3.234   8.905   6.722  2.2371  1.9933  1.0287
   42MOL0     H 5621   3.295   8.627   6.451  0.9204  3.0621  0.2426
   42MOL0     H 5622   2.957   8.426   6.388  0.1315 -0.4659 -1.1260
   42MOL0     H 5623   3.064   8.497   6.276  0.4546 -0.7824 -0.5232
   42MOL0     H 5624   3.264   8.405   6.380  0.4505  0.7131  1.6790
   42MOL0     H 5625   3.160   8.344   6.509  1.6003  1.7970 -0.3588
   42MOL0     H 5626   3.163   8.237   6.220 -0.1733 -1.0433  0.1527
   42MOL0     H 5627   3.066   8.184   6.352  0.4466  0.9640 -1.6290
   42MOL0     H 5628   3.275   8.037   6.320  1.5578  0.5274  0.1644
   42MOL0     H 5629   3.296   8.131   6.466  2.4088  0.1963  0.2645
   42MOL0     H 5630   3.570   8.256   6.156 -0.2260 -0.9774 -2.4711
   42MOL0     H 5631   3.754   8.101   6.067 -0.0753  1.0062  0.2544
   42MOL0     H 5632   4.065   7.666   6.375 -3.4673 -1.5246  1.1446
   42MOL0     H 5633   4.183   7.469   6.323 -0.2675 -1.5362 -0.9963
   42MOL0     H 5634   4.328   7.467   6.062  2.2047 -0.1270 -1.7304
   42MOL0     H 5635   4.353   7.327   6.182 -0.2894 -1.0505 -0.4939
   42MOL0     H 5636   4.317   7.296   5.877  0.7781  1.3920 -0.5957
   42MOL0     H 5637   4.476   7.335   5.958 -1.3352  3.4941 -1.6379
   42MOL0     H 5638   4.457   7.126   6.100 -1.8217  1.1824  0.6322
   42MOL0     H 5639   4.299   7.088   6.033 -0.7858 -0.6238 -0.7722
   42MOL0     H 5640   4.578   7.091   5.883 -0.1986 -1.5829 -2.5094
   42MOL0     H 5641   4.422   7.080   5.798  0.7268 -0.5035 -1.0903
   42MOL0     H 5642   4.533   6.883   6.005 -0.0628  0.9800  0.2550
   42MOL0     H 5643   4.509   6.849   5.834 -2.6574 -2.3202  0.3666
   42MOL0     H 5644   4.281   6.888   6.016  1.1930  2.2702  0.0936
   42MOL0     H 5645   4.281   6.828   5.845 -2.6725 -2.3273  1.1292
   42MOL0     H 5646   4.419   6.680   6.066  1.1796 -0.0053 -1.5043
   42MOL0     H 5647   4.364   6.627   5.906 -2.9116 -1.9392  0.1395
   42MOL0     H 5648   4.123   6.682   5.980  0.4603 -3.9570 -1.1269
   42MOL0     H 5649   4.196   6.546   6.064  2.9224 -0.7238  0.6361
   42MOL0     H 5650   3.971   7.443   5.947 -0.8311  0.5208  0.7304
   42MOL0     H 5651   3.852   7.652   6.011  1.9408  1.5300 -1.0652
   42MOL0     H 5652   3.661   7.837   6.398 -1.6416 -0.9949 -0.3591
   42MOL0     H 5653   3.482   7.965   6.460  1.9235 -2.0403  0.8253
   42MOL0     H 5654   3.481   9.580   5.922 -0.6440  0.7584 -0.4512
   42MOL0     H 5655   3.485   9.628   5.675 -1.3928 -0.8251 -1.8162
   42MOL0     H 5656   3.146   9.502   5.218 -0.6840  0.7286  2.0270
   42MOL0     H 5657   3.164   9.583   4.982 -4.3725  0.4310  2.5715
   42MOL0     H 5658   3.243  10.003   4.927 -0.9529 -1.4054  0.0115
   42MOL0     H 5659   3.266   9.959   4.761  2.2443  1.6722  0.6357
   42MOL0     H 5660   3.498   9.927   4.956  5.3210  1.0995 -2.9771
   42MOL0     H 5661   3.474  10.061   4.841  1.4493  1.0839 -0.9253
   42MOL0     H 5662   3.465   9.899   4.660  1.1651 -1.1109 -0.5555
   42MOL0     H 5663   3.511   9.762   4.760  0.2880 -0.5891  0.1787
   42MOL0     H 5664   3.676   9.992   4.669  1.3928 -0.2735  0.2482
   42MOL0     H 5665   3.739   9.902   4.809  2.0131  0.3434 -0.6523
   42MOL0     H 5666   3.818   9.601   4.529  1.4760  0.2916  1.0656
   42MOL0     H 5667   3.333   9.959   5.119  4.6954  0.0771  1.0841
   42MOL0     H 5668   3.313  10.020   5.331 -2.7099 -0.5444 -0.7877
   42MOL0     H 5669   3.267   9.917   5.459 -2.9522  2.0839 -1.1759
   42MOL0     H 5670   3.436   9.905   5.389  0.0390  0.8272 -0.0995
   43MOL0     O 5671   1.789  10.530   4.558  0.0003 -0.1171  0.2107
   43MOL0     C 5672   1.776  10.477   4.665  0.5134  1.0567  0.0872
   43MOL0     O 5673   1.682  10.378   4.684 -0.3018 -0.4575  0.0407
   43MOL0     C 5674   1.621  10.331   4.575  0.9212 -0.3582 -0.0767
   43MOL0     C 5675   1.668  10.227   4.489 -0.2575 -0.5362  0.5840
   43MOL0     C 5676   1.589  10.166   4.391 -0.1560 -0.3272  0.4614
   43MOL0     C 5677   1.462  10.213   4.364 -0.1656  0.0633 -1.0116
   43MOL0     O 5678   1.376  10.146   4.275 -0.1381 -0.5576  0.2458
   43MOL0     C 5679   1.427  10.139   4.137 -0.6615  0.6212 -0.3529
   43MOL0     C 5680   1.405  10.279   4.076  0.0731  0.0879  0.0854
   43MOL0     C 5681   1.416  10.275   3.927 -0.2747 -1.0013 -0.0640
   43MOL0     C 5682   1.397  10.411   3.859  0.0132  0.2191  0.1413
   43MOL0     C 5683   1.438  10.403   3.709 -0.2055 -0.2134 -0.8972
   43MOL0     C 5684   1.396  10.532   3.648 -0.0553  0.3208  0.1619
   43MOL0     C 5685   1.442  10.667   3.715 -0.6187 -0.0460 -0.4389
   43MOL0     C 5686   1.383  10.784   3.632 -0.7279  0.2543 -0.2599
   43MOL0     N 5687   1.415  10.910   3.692 -0.6136 -1.2650  1.2243
   43MOL0     C 5688   1.473  11.015   3.621 -0.3263 -0.4276  0.7939
   43MOL0     C 5689   1.472  11.118   3.705  0.2871 -0.5455  0.3245
   43MOL0     C 5690   1.509  11.267   3.678 -0.3711  0.5473 -0.5082
   43MOL0     C 5691   1.633  11.282   3.583 -0.2943 -0.1434 -0.0575
   43MOL0     C 5692   1.764  11.228   3.639 -0.6310 -0.5229 -0.3898
   43MOL0     C 5693   1.779  11.266   3.785 -0.0651  0.8034  0.3783
   43MOL0     O 5694   1.787  11.404   3.816 -0.6859 -0.6061 -0.2352
   43MOL0     C 5695   1.914  11.465   3.810  0.7924 -0.2302  0.5015
   43MOL0     C 5696   2.040  11.401   3.797 -0.7361 -0.2189  0.6496
   43MOL0     C 5697   2.157  11.470   3.779 -0.2151 -0.6522 -0.2618
   43MOL0     C 5698   2.164  11.612   3.778  0.3221 -0.3292 -0.5048
   43MOL0     C 5699   2.294  11.694   3.765 -0.4356  0.3843 -0.3408
   43MOL0     O 5700   2.296  11.832   3.772  0.3385 -0.2592  0.4543
   43MOL0     C 5701   2.412  11.893   3.744  0.5607  0.9920  0.6465
   43MOL0     C 5702   2.538  11.875   3.805 -0.4422  0.3359  0.4797
   43MOL0     C 5703   2.641  11.951   3.757  0.1919  1.2862 -0.8984
   43MOL0     C 5704   2.640  12.044   3.666 -0.2546 -0.5507  0.5884
   43MOL0     O 5705   2.757  12.115   3.647  0.8956  0.4630 -0.2109
   43MOL0     C 5706   2.746  12.209   3.539  0.0717  1.1555  0.1984
   43MOL0     C 5707   2.872  12.285   3.504  0.0330 -0.6725  0.1616
   43MOL0     C 5708   2.875  12.417   3.579 -0.6747 -0.1600  0.6263
   43MOL0     C 5709   3.008  12.492   3.544  0.7873  0.0768 -1.0901
   43MOL0     C 5710   3.015  12.633   3.598 -0.0728  0.2203  0.6060
   43MOL0     C 5711   2.923  12.728   3.525 -0.1341  0.0758  0.2720
   43MOL0     C 5712   2.954  12.863   3.588  0.1129 -1.1973 -0.0417
   43MOL0     C 5713   2.828  12.940   3.634  0.0711  0.7697 -0.0697
   43MOL0    Cl 5714   2.743  12.984   3.492  0.3597 -0.2795  0.7953
   43MOL0     C 5715   2.516  12.054   3.594 -0.3722  0.1519  1.1493
   43MOL0     C 5716   2.408  11.972   3.629 -0.6868 -0.5957 -0.3644
   43MOL0     O 5717   2.397  11.628   3.763  0.3793 -0.0068  0.8027
   43MOL0     C 5718   2.043  11.677   3.785 -0.5006  0.6053  0.6024
   43MOL0     C 5719   1.922  11.606   3.789  1.2468 -0.0876 -0.2972
   43MOL0     N 5720   1.438  11.080   3.828 -0.2803  0.0467 -0.3617
   43MOL0     N 5721   1.400  10.961   3.825 -1.0822 -0.1308  0.4360
   43MOL0     C 5722   1.415  10.323   4.443 -0.1002  0.7039 -0.4074
   43MOL0     C 5723   1.490  10.381   4.551 -0.1996 -0.1292 -0.0422
   43MOL0     C 5724   1.839  10.520   4.794  0.0107  0.0383  0.1620
   43MOL0     C 5725   1.792  10.463   4.917 -0.1616 -0.9695 -0.2451
   43MOL0     C 5726   1.847  10.493   5.042 -0.1119 -0.0597 -0.1982
   43MOL0     C 5727   1.954  10.589   5.052  0.0310  1.1434 -0.3000
   43MOL0     O 5728   1.990  10.633   5.178 -0.2372  0.5488 -0.4177
   43MOL0     C 5729   1.904  10.591   5.297  0.1110 -0.4485  0.0796
   43MOL0     C 5730   1.761  10.662   5.310 -0.0462 -0.5541 -0.6007
   43MOL0     C 5731   1.681  10.627   5.446 -0.2204  0.1213  0.8736
   43MOL0     C 5732   1.577  10.726   5.494  0.0883  0.5610  0.0923
   43MOL0     C 5733   1.460  10.712   5.410 -0.3861  0.5331  0.3783
   43MOL0     C 5734   1.366  10.708   5.324 -0.5380 -0.4381  0.5130
   43MOL0     C 5735   2.003  10.641   4.927  0.3207  0.3581  0.2525
   43MOL0     C 5736   1.956  10.614   4.799  0.4427  0.7047 -0.4233
   43MOL0     C 5737   2.019  10.678   4.676  0.4782  0.7771 -1.2510
   43MOL0     H 5738   1.773  10.202   4.484  0.8201  3.4980 -2.5438
   43MOL0     H 5739   1.631  10.093   4.322  0.1918 -0.2290  0.5712
   43MOL0     H 5740   1.528  10.100   4.123 -1.8820 -1.9969 -2.8844
   43MOL0     H 5741   1.368  10.058   4.094  0.9024 -1.2456  0.8440
   43MOL0     H 5742   1.477  10.343   4.129 -1.3061  0.0611  2.1052
   43MOL0     H 5743   1.309  10.321   4.106 -0.2426  0.3603 -1.2447
   43MOL0     H 5744   1.343  10.206   3.883 -2.3342  1.2514 -0.3814
   43MOL0     H 5745   1.516  10.242   3.898  0.0625  0.0662 -0.1658
   43MOL0     H 5746   1.292  10.438   3.872  0.2153  1.0450  0.1621
   43MOL0     H 5747   1.460  10.479   3.918  3.2955 -2.2319 -0.2524
   43MOL0     H 5748   1.546  10.393   3.701  0.0750  0.4283  1.3161
   43MOL0     H 5749   1.398  10.315   3.658  0.4969  1.1096 -4.0007
   43MOL0     H 5750   1.439  10.533   3.548 -3.6939 -0.3115 -1.5323
   43MOL0     H 5751   1.289  10.523   3.627 -0.0000 -0.4540  0.1798
   43MOL0     H 5752   1.550  10.679   3.696 -0.9683  1.0057 -1.9752
   43MOL0     H 5753   1.418  10.669   3.821  2.7506  0.6175  0.4308
   43MOL0     H 5754   1.404  10.774   3.526  1.1633 -2.5566  0.2617
   43MOL0     H 5755   1.274  10.788   3.642 -0.7213  4.5003 -0.0089
   43MOL0     H 5756   1.507  11.016   3.518  1.8699 -1.0321  1.4534
   43MOL0     H 5757   1.423  11.316   3.631 -0.9151 -1.1310 -1.3397
   43MOL0     H 5758   1.518  11.320   3.773 -3.2411 -1.6933  1.1505
   43MOL0     H 5759   1.621  11.226   3.490 -0.2667  0.2220 -0.2803
   43MOL0     H 5760   1.648  11.385   3.551  3.2094 -0.9524 -1.4614
   43MOL0     H 5761   1.842  11.276   3.580  1.8937  0.3593  3.2963
   43MOL0     H 5762   1.766  11.119   3.627 -2.3525 -0.3938 -2.3564
   43MOL0     H 5763   1.860  11.207   3.829  0.7102  2.3998  1.1944
   43MOL0     H 5764   1.690  11.236   3.842 -1.9447  3.2537 -1.0681
   43MOL0     H 5765   2.044  11.293   3.799  2.4750 -0.2049  0.3687
   43MOL0     H 5766   2.246  11.409   3.765  0.0534 -0.7526  1.5957
   43MOL0     H 5767   2.541  11.808   3.890 -1.1303 -0.0873  0.1823
   43MOL0     H 5768   2.737  11.940   3.806 -0.2528 -0.4618 -0.3340
   43MOL0     H 5769   2.703  12.162   3.450 -2.8539 -2.8383  3.3100
   43MOL0     H 5770   2.683  12.293   3.568  1.1386  2.1938 -0.3988
   43MOL0     H 5771   2.955  12.219   3.528  0.4763 -1.2914 -2.6884
   43MOL0     H 5772   2.871  12.313   3.398 -0.3096 -0.5053  0.2052
   43MOL0     H 5773   2.803  12.478   3.523  0.5692 -1.2605 -2.3387
   43MOL0     H 5774   2.861  12.412   3.688 -0.9027 -0.9176  0.5672
   43MOL0     H 5775   3.027  12.496   3.436  4.0756 -4.1811 -0.9475
   43MOL0     H 5776   3.090  12.434   3.588  0.3661  0.4577  0.2433
   43MOL0     H 5777   3.120  12.658   3.580 -0.0373 -1.0187 -1.1792
   43MOL0     H 5778   2.991  12.635   3.705 -2.5462 -1.0078  0.1436
   43MOL0     H 5779   2.952  12.730   3.419  1.8316  2.9049  0.7539
   43MOL0     H 5780   2.817  12.704   3.534  0.1782 -2.3586 -1.5377
   43MOL0     H 5781   3.012  12.930   3.524  2.4494  0.9297  3.9422
   43MOL0     H 5782   3.015  12.845   3.677  0.7118  0.0298 -0.1883
   43MOL0     H 5783   2.763  12.882   3.700  0.8098  1.8828  1.6990
   43MOL0     H 5784   2.854  13.033   3.686 -1.4120  0.3201  1.5981
   43MOL0     H 5785   2.502  12.121   3.510 -0.8786 -2.2502 -0.8129
   43MOL0     H 5786   2.314  11.968   3.574 -1.7658 -1.4402  1.4622
   43MOL0     H 5787   2.038  11.785   3.777  1.6052  0.7574  0.7340
   43MOL0     H 5788   1.837  11.672   3.781  0.2164 -1.5657 -2.5964
   43MOL0     H 5789   1.313  10.358   4.431 -0.1599  0.4762 -0.5734
   43MOL0     H 5790   1.453  10.434   4.638 -0.1705  0.4329 -0.3693
   43MOL0     H 5791   1.718  10.384   4.907 -1.0518 -0.5292  2.1508
   43MOL0     H 5792   1.825  10.433   5.130  0.8189 -0.6866 -0.3695
   43MOL0     H 5793   1.958  10.608   5.391 -1.6525  1.6080  0.8043
   43MOL0     H 5794   1.908  10.482   5.290  4.4027 -0.4113 -1.5208
   43MOL0     H 5795   1.700  10.643   5.222  0.6241 -1.1790 -0.9345
   43MOL0     H 5796   1.781  10.770   5.307  1.3353 -0.7515  0.4904
   43MOL0     H 5797   1.757  10.612   5.523  1.5651  0.2699 -0.7659
   43MOL0     H 5798   1.629  10.532   5.426  0.2120 -0.2129  1.3133
   43MOL0     H 5799   1.556  10.707   5.600 -2.1040 -1.2903 -0.5884
   43MOL0     H 5800   1.629  10.822   5.492 -1.7094  1.5870 -0.2245
   43MOL0     H 5801   1.287  10.726   5.253  1.7957 -3.5972 -3.3336
   43MOL0     H 5802   2.093  10.701   4.937 -0.3891  1.8148 -1.4277
   43MOL0     H 5803   2.103  10.741   4.706  1.0268 -2.2979  5.3010
   43MOL0     H 5804   2.049  10.602   4.603  2.9896 -0.2145  0.7062
   43MOL0     H 5805   1.946  10.737   4.619 -1.4499 -1.8070 -1.6274
   44MOL0     O 5806   7.971   3.171   3.991  0.0490  0.6502 -0.5751
   44MOL0     C 5807   7.940   3.233   4.091 -1.0678  0.4272 -0.1877
   44MOL0     O 5808   7.994   3.219   4.218 -0.6342 -0.2100 -0.0112
   44MOL0     C 5809   8.105   3.140   4.258  1.1873 -0.4806  0.1457
   44MOL0     C 5810   8.109   3.111   4.391 -0.7821  0.0902 -0.7762
   44MOL0     C 5811   8.222   3.031   4.432  1.2240 -0.5188 -0.3092
   44MOL0     C 5812   8.308   2.970   4.337 -0.9105 -0.2541  0.2280
   44MOL0     O 5813   8.417   2.892   4.368 -0.7918  0.4594  0.3252
   44MOL0     C 5814   8.438   2.848   4.508 -0.2107  0.1178  0.3420
   44MOL0     C 5815   8.515   2.717   4.521  0.6933 -1.0725  0.4677
   44MOL0     C 5816   8.659   2.744   4.484 -0.6780 -0.3843  0.3609
   44MOL0     C 5817   8.730   2.610   4.481  0.5690  0.6857  0.6855
   44MOL0     C 5818   8.877   2.618   4.434  0.5397  1.3609  0.1776
   44MOL0     C 5819   8.956   2.712   4.505 -0.1378 -0.6728 -0.5661
   44MOL0     C 5820   9.111   2.719   4.471  1.4462 -0.2043  0.5914
   44MOL0     C 5821   9.176   2.844   4.524  0.2593 -0.6427  0.5580
   44MOL0     N 5822   9.233   2.830   4.663 -1.2542 -0.4995  0.3669
   44MOL0     C 5823   9.155   2.854   4.780 -0.1964 -0.2198 -0.2626
   44MOL0     C 5824   9.251   2.852   4.877 -0.3628 -0.3145  0.4621
   44MOL0     C 5825   9.208   2.849   5.019  0.3573 -0.2877 -0.0847
   44MOL0     C 5826   9.171   2.703   5.072 -0.8446  0.3636 -0.2876
   44MOL0     C 5827   9.066   2.616   5.001  0.4448 -0.3635 -0.0281
   44MOL0     C 5828   9.039   2.481   5.070  0.1315  0.6156  0.7860
   44MOL0     O 5829   9.050   2.486   5.214  0.1227 -0.4223  0.3717
   44MOL0     C 5830   9.036   2.372   5.288 -0.9853 -0.5098 -0.7953
   44MOL0     C 5831   9.105   2.349   5.413 -0.5020 -0.3281  0.2246
   44MOL0     C 5832   9.072   2.249   5.501  0.4426  0.3546 -0.1326
   44MOL0     C 5833   8.971   2.159   5.470  0.2300 -0.5140  0.7225
   44MOL0     C 5834   8.931   2.044   5.554 -0.3947 -0.2217  1.5077
   44MOL0     O 5835   8.846   1.956   5.497 -0.0308  0.5381 -0.9331
   44MOL0     C 5836   8.788   1.848   5.565 -1.0636 -0.0649  0.4275
   44MOL0     C 5837   8.859   1.770   5.656 -0.8750  0.6967 -0.5668
   44MOL0     C 5838   8.802   1.657   5.710 -0.4687  1.1068  0.7495
   44MOL0     C 5839   8.683   1.600   5.650 -0.5451 -0.7674  0.5918
   44MOL0     O 5840   8.619   1.486   5.699  0.1666  0.1499  1.4439
   44MOL0     C 5841   8.619   1.366   5.623 -0.0971  0.4372 -0.3025
   44MOL0     C 5842   8.519   1.285   5.703 -0.0379  1.4826  0.1759
   44MOL0     C 5843   8.519   1.128   5.662 -0.1340 -0.6166  1.1832
   44MOL0     C 5844   8.630   1.054   5.731  0.0798 -0.0160  0.0332
   44MOL0     C 5845   8.640   0.922   5.666 -0.4542 -0.6758 -1.2806
   44MOL0     C 5846   8.726   0.819   5.749  0.4632 -0.1431  0.2212
   44MOL0     C 5847   8.736   0.669   5.696  0.0520 -0.2172  0.1812
   44MOL0     C 5848   8.831   0.661   5.579 -0.1493 -0.5267  1.2357
   44MOL0    Cl 5849   8.794   0.508   5.490 -0.1306  0.0636 -0.2600
   44MOL0     C 5850   8.616   1.682   5.561  0.5516  0.7956 -0.7590
   44MOL0     C 5851   8.664   1.802   5.509 -1.1261 -0.9632 -0.5608
   44MOL0     O 5852   8.975   2.053   5.666 -0.2098  0.1894 -0.2747
   44MOL0     C 5853   8.901   2.183   5.350  0.1644  1.0914  0.3703
   44MOL0     C 5854   8.928   2.284   5.261 -0.2211  0.1291 -0.4631
   44MOL0     N 5855   9.383   2.830   4.819  0.2989  0.3635 -0.3687
   44MOL0     N 5856   9.365   2.809   4.695 -0.5352  0.7054  0.5457
   44MOL0     C 5857   8.302   3.006   4.208  0.3859  0.3343  0.0871
   44MOL0     C 5858   8.205   3.089   4.166  0.4394  0.0986  0.9745
   44MOL0     C 5859   7.841   3.338   4.085 -0.1010 -0.5530  0.5796
   44MOL0     C 5860   7.889   3.471   4.076  0.2894 -0.0853  0.0232
   44MOL0     C 5861   7.802   3.579   4.048  0.3272  0.3469  1.2947
   44MOL0     C 5862   7.661   3.561   4.051  0.2997  0.0093  0.1640
   44MOL0     O 5863   7.560   3.657   4.045 -0.8190  0.1345  0.3695
   44MOL0     C 5864   7.563   3.742   4.168 -0.4128  0.6634  0.5036
   44MOL0     C 5865   7.629   3.879   4.153 -0.7680 -0.1956 -0.5207
   44MOL0     C 5866   7.576   3.974   4.260  0.9499 -0.0478 -0.4275
   44MOL0     C 5867   7.615   4.123   4.242  0.3745 -0.0256 -0.9659
   44MOL0     C 5868   7.751   4.150   4.216  1.1157 -0.3056 -0.2488
   44MOL0     C 5869   7.871   4.169   4.215 -0.7362  0.4334  0.0433
   44MOL0     C 5870   7.619   3.433   4.065  0.3819 -0.5653 -0.6932
   44MOL0     C 5871   7.703   3.317   4.075  0.4515 -0.4284 -0.2924
   44MOL0     C 5872   7.632   3.183   4.094 -0.5680 -0.2311  0.2051
   44MOL0     H 5873   8.033   3.150   4.458  1.9581 -1.0920  3.4014
   44MOL0     H 5874   8.222   2.994   4.534  1.4069  1.3299  0.4009
   44MOL0     H 5875   8.470   2.930   4.574  2.3093  0.8046 -1.5563
   44MOL0     H 5876   8.344   2.817   4.554 -0.3791  1.8334  1.2351
   44MOL0     H 5877   8.476   2.660   4.436  1.3471  0.5847 -1.0075
   44MOL0     H 5878   8.509   2.663   4.616 -0.0339  0.0143  1.0689
   44MOL0     H 5879   8.701   2.821   4.551  1.7206 -0.2993 -1.1298
   44MOL0     H 5880   8.667   2.797   4.389  2.0620 -0.0904  0.6572
   44MOL0     H 5881   8.724   2.569   4.582  2.4759  3.7934  2.2185
   44MOL0     H 5882   8.675   2.555   4.404  0.0146  2.3483 -0.1465
   44MOL0     H 5883   8.914   2.515   4.444 -0.1051  1.0795 -0.2769
   44MOL0     H 5884   8.879   2.640   4.327 -0.3555 -0.7887 -0.3465
   44MOL0     H 5885   8.913   2.812   4.504  0.4494 -0.3985 -2.6140
   44MOL0     H 5886   8.961   2.679   4.609 -1.1645 -0.7297 -0.5246
   44MOL0     H 5887   9.131   2.720   4.363  0.6702  1.2744  0.4309
   44MOL0     H 5888   9.159   2.631   4.513  1.7444 -0.9062 -1.1416
   44MOL0     H 5889   9.249   2.884   4.452 -2.2103  3.8253  0.1443
   44MOL0     H 5890   9.113   2.933   4.513 -0.8291 -1.2071  1.9629
   44MOL0     H 5891   9.047   2.867   4.784 -0.1585  0.7480 -1.6291
   44MOL0     H 5892   9.287   2.885   5.085 -0.3797  2.4981 -0.5865
   44MOL0     H 5893   9.126   2.919   5.036  1.7739  1.7626 -1.2258
   44MOL0     H 5894   9.267   2.651   5.080 -1.4318 -0.8269 -0.7841
   44MOL0     H 5895   9.113   2.718   5.163 -1.6133  1.6527 -0.9526
   44MOL0     H 5896   9.093   2.611   4.896 -0.6278  1.5421 -0.4353
   44MOL0     H 5897   8.968   2.666   5.005 -1.0617 -3.0191 -1.0476
   44MOL0     H 5898   9.126   2.426   5.032  1.6780  2.3400  1.6542
   44MOL0     H 5899   8.948   2.438   5.027  1.5043 -2.1862  0.4364
   44MOL0     H 5900   9.186   2.412   5.450 -1.9382  3.6217 -2.6488
   44MOL0     H 5901   9.132   2.238   5.591 -0.2233  0.5655  0.3507
   44MOL0     H 5902   8.957   1.795   5.695  0.7956 -3.0467 -1.8131
   44MOL0     H 5903   8.855   1.604   5.788 -0.0078  3.3011  2.0019
   44MOL0     H 5904   8.585   1.366   5.519 -4.1106 -1.4828  0.8142
   44MOL0     H 5905   8.710   1.308   5.632 -1.3078 -1.2014  2.8423
   44MOL0     H 5906   8.563   1.285   5.803 -2.1841  1.3624  1.1590
   44MOL0     H 5907   8.420   1.329   5.696  0.4816  2.7387  0.3904
   44MOL0     H 5908   8.417   1.098   5.686 -1.9589  2.1205 -2.1502
   44MOL0     H 5909   8.533   1.105   5.556  0.5687 -2.1221  1.5739
   44MOL0     H 5910   8.600   1.061   5.836 -0.9438  0.7514 -0.2951
   44MOL0     H 5911   8.724   1.109   5.716  1.4948 -2.0478  0.9173
   44MOL0     H 5912   8.680   0.930   5.565  3.2057 -1.7404 -0.0562
   44MOL0     H 5913   8.540   0.879   5.655 -0.8138  0.3704 -2.3464
   44MOL0     H 5914   8.824   0.867   5.754 -0.5322  1.9730  0.5529
   44MOL0     H 5915   8.685   0.818   5.850 -0.7735 -2.1162 -0.2647
   44MOL0     H 5916   8.647   0.624   5.652  0.0934 -0.6732  0.5592
   44MOL0     H 5917   8.776   0.598   5.768  0.3641 -2.0946 -1.7407
   44MOL0     H 5918   8.810   0.752   5.521  1.9068 -0.8380 -0.0953
   44MOL0     H 5919   8.936   0.651   5.605  0.4698 -0.5559 -1.0976
   44MOL0     H 5920   8.526   1.642   5.513  0.3159 -0.1565  0.4088
   44MOL0     H 5921   8.613   1.847   5.424  1.8099 -0.4700 -2.1964
   44MOL0     H 5922   8.813   2.125   5.325  1.7325 -0.0398 -3.1413
   44MOL0     H 5923   8.853   2.297   5.183  2.1377 -1.2944 -3.1533
   44MOL0     H 5924   8.378   2.979   4.136  0.2906 -1.8271  0.7454
   44MOL0     H 5925   8.191   3.138   4.070  1.1885  0.6014  1.1160
   44MOL0     H 5926   7.996   3.486   4.093  0.2990 -0.7060  0.5198
   44MOL0     H 5927   7.838   3.681   4.041 -2.4158  1.3929  1.3760
   44MOL0     H 5928   7.614   3.701   4.255  0.7954  1.9970  0.4684
   44MOL0     H 5929   7.457   3.742   4.195 -0.1249  1.3471  1.6781
   44MOL0     H 5930   7.611   3.931   4.059 -0.6161  1.3751  0.2754
   44MOL0     H 5931   7.737   3.874   4.166 -0.9263  0.4061  1.4036
   44MOL0     H 5932   7.610   3.932   4.355  1.5479 -0.4245 -0.8038
   44MOL0     H 5933   7.468   3.960   4.263  0.7006  1.5222 -1.0965
   44MOL0     H 5934   7.549   4.160   4.163  0.9340 -0.4646 -1.6470
   44MOL0     H 5935   7.580   4.179   4.330 -1.5669 -1.5829 -0.6758
   44MOL0     H 5936   7.975   4.167   4.190 -1.0510  1.1473 -1.4850
   44MOL0     H 5937   7.511   3.431   4.078  0.4171  1.4925  0.3776
   44MOL0     H 5938   7.564   3.178   4.179 -2.7137  2.6210 -1.1964
   44MOL0     H 5939   7.579   3.141   4.008  0.7093 -1.4680 -0.0211
   44MOL0     H 5940   7.712   3.111   4.113  0.4625  1.1272  1.2194
   45MOL0     O 5941  10.229   3.358   4.462  0.3431  0.1997  0.5035
   45MOL0     C 5942  10.310   3.283   4.412  0.1849 -0.6270 -0.1718
   45MOL0     O 5943  10.301   3.151   4.402  0.1606  0.3483  0.0463
   45MOL0     C 5944  10.193   3.092   4.461  0.8009 -0.0706 -0.9016
   45MOL0     C 5945  10.209   2.973   4.537 -0.8495 -0.2242 -0.8667
   45MOL0     C 5946  10.101   2.901   4.573  0.0110 -0.3663  0.8029
   45MOL0     C 5947   9.971   2.922   4.524  0.6048 -0.5680  0.3723
   45MOL0     O 5948   9.866   2.875   4.600  0.5246 -0.3717  0.5853
   45MOL0     C 5949   9.866   2.888   4.737  0.4484  0.6254 -0.0442
   45MOL0     C 5950   9.737   2.838   4.811 -0.2596 -0.5175  0.3421
   45MOL0     C 5951   9.713   2.692   4.827  0.1295  0.8790 -0.5364
   45MOL0     C 5952   9.821   2.629   4.901 -0.5459 -0.2961  0.0995
   45MOL0     C 5953   9.784   2.478   4.911 -0.3746  0.5585 -0.2390
   45MOL0     C 5954   9.861   2.417   5.031 -0.1874  0.2936  0.1553
   45MOL0     C 5955   9.816   2.272   5.070 -0.3834 -0.7799  0.5107
   45MOL0     C 5956   9.836   2.160   4.962 -0.2898 -0.1611 -1.2265
   45MOL0     N 5957   9.952   2.077   4.984  0.2615  0.5446 -0.0641
   45MOL0     C 5958   9.941   1.937   4.997  0.3918  0.5427  0.0416
   45MOL0     C 5959  10.060   1.891   5.036  0.0656 -0.7329  0.3924
   45MOL0     C 5960  10.097   1.761   5.076  0.3074  0.3553  0.7036
   45MOL0     C 5961  10.158   1.755   5.219  0.1649 -0.0868  0.3766
   45MOL0     C 5962  10.309   1.797   5.213  0.0574  0.1733  0.0130
   45MOL0     C 5963  10.376   1.770   5.337 -0.0241 -0.2870 -0.1275
   45MOL0     O 5964  10.297   1.820   5.452 -0.7604 -0.1532  0.7613
   45MOL0     C 5965  10.328   1.938   5.505  0.0583  0.2698 -0.4540
   45MOL0     C 5966  10.401   2.035   5.443 -0.5410  0.7432 -0.3872
   45MOL0     C 5967  10.433   2.154   5.505  1.1711 -0.3212 -0.5030
   45MOL0     C 5968  10.376   2.174   5.630  1.2110  0.3751  0.6076
   45MOL0     C 5969  10.409   2.293   5.704 -0.2038 -0.8578 -0.1576
   45MOL0     O 5970  10.469   2.395   5.639  0.6059  0.2935  0.8600
   45MOL0     C 5971  10.523   2.494   5.707 -0.0180 -0.0455 -0.0409
   45MOL0     C 5972  10.665   2.506   5.719 -0.1755  0.1127 -0.8496
   45MOL0     C 5973  10.717   2.621   5.780  0.6326 -0.0007  0.9127
   45MOL0     C 5974  10.633   2.713   5.842 -0.1383  0.2372  0.5208
   45MOL0     O 5975  10.676   2.834   5.897 -0.6991 -0.1167 -0.3659
   45MOL0     C 5976  10.796   2.837   5.975  0.2505 -0.4625 -0.0284
   45MOL0     C 5977  10.853   2.973   5.972 -0.7150 -0.9789 -0.6448
   45MOL0     C 5978  10.983   2.975   6.059 -0.6683  0.4794  0.9238
   45MOL0     C 5979  11.057   3.110   6.069  1.1695 -0.5287  0.0869
   45MOL0     C 5980  11.183   3.097   6.163 -0.2276 -0.1184  1.0330
   45MOL0     C 5981  11.287   3.213   6.172 -0.1823 -0.0625  0.6138
   45MOL0     C 5982  11.349   3.236   6.037  0.6283 -0.2466  0.0740
   45MOL0     C 5983  11.424   3.368   6.029  0.2291  0.6703  0.5437
   45MOL0    Cl 5984  11.309   3.493   5.976  0.4929 -0.2006  0.1906
   45MOL0     C 5985  10.493   2.700   5.839  0.1610  0.2467  0.1363
   45MOL0     C 5986  10.439   2.590   5.774  0.2249 -0.2637 -0.4917
   45MOL0     O 5987  10.387   2.291   5.828  0.2864  0.8486  0.2218
   45MOL0     C 5988  10.290   2.073   5.688  0.0882 -0.1659 -0.8419
   45MOL0     C 5989  10.262   1.957   5.628 -0.7752 -0.5677 -0.0259
   45MOL0     N 5990  10.139   2.000   5.043 -1.0941 -0.0851  0.1236
   45MOL0     N 5991  10.087   2.104   4.993  0.8135 -0.0675  0.7925
   45MOL0     C 5992   9.951   3.034   4.449 -0.4176 -0.4912  0.0512
   45MOL0     C 5993  10.054   3.117   4.416  0.1247 -0.0603 -0.5124
   45MOL0     C 5994  10.441   3.338   4.363 -0.1894  0.0641  0.7175
   45MOL0     C 5995  10.524   3.255   4.292  0.9280  0.4962  0.8434
   45MOL0     C 5996  10.639   3.291   4.243  0.2429  0.1351  0.6814
   45MOL0     C 5997  10.689   3.416   4.278 -0.1537 -0.1805  0.0007
   45MOL0     O 5998  10.814   3.439   4.225  0.1371  0.2421 -0.0800
   45MOL0     C 5999  10.873   3.565   4.233 -1.0615 -0.2260 -0.5913
   45MOL0     C 6000  10.969   3.591   4.118  0.4208 -0.6393 -0.6096
   45MOL0     C 6001  11.051   3.471   4.100  0.3307 -0.1527 -0.0202
   45MOL0     C 6002  11.160   3.496   3.989 -0.8966 -0.3681 -0.2701
   45MOL0     C 6003  11.182   3.389   3.885 -0.4252  0.1043 -0.4331
   45MOL0     C 6004  11.180   3.287   3.826  0.5328 -0.0086  1.0720
   45MOL0     C 6005  10.616   3.503   4.367 -0.1517  0.6464  0.0960
   45MOL0     C 6006  10.493   3.468   4.410  0.2883  0.2624  0.1537
   45MOL0     C 6007  10.440   3.555   4.518  0.6216  0.3584 -0.0878
   45MOL0     H 6008  10.310   2.971   4.576 -1.3848  7.0592  2.4141
   45MOL0     H 6009  10.113   2.814   4.636  1.0758 -0.2855  0.7269
   45MOL0     H 6010   9.957   2.851   4.784  0.2843 -0.4294 -0.5375
   45MOL0     H 6011   9.865   2.995   4.763 -1.1307  0.1818  2.0532
   45MOL0     H 6012   9.651   2.887   4.762  0.1832 -0.6750 -0.6288
   45MOL0     H 6013   9.744   2.892   4.906  3.6154  0.0926 -0.1251
   45MOL0     H 6014   9.690   2.655   4.727 -3.3706 -0.5061  0.6245
   45MOL0     H 6015   9.621   2.684   4.885  1.5941  1.4400  2.0331
   45MOL0     H 6016   9.917   2.642   4.850  1.1555 -2.1465  2.5840
   45MOL0     H 6017   9.830   2.687   4.993  1.5023 -0.4014  0.0028
   45MOL0     H 6018   9.678   2.456   4.928 -0.8069  4.1041  2.9184
   45MOL0     H 6019   9.826   2.427   4.823 -0.7285 -0.5206  0.1919
   45MOL0     H 6020   9.969   2.425   5.015  0.0659  1.2924  2.0513
   45MOL0     H 6021   9.823   2.478   5.113 -0.1623 -0.9912  1.1639
   45MOL0     H 6022   9.710   2.287   5.090  0.1190  1.1913  2.0559
   45MOL0     H 6023   9.860   2.233   5.163  2.4794  1.5460  0.2599
   45MOL0     H 6024   9.760   2.087   4.992  1.0865 -1.0905  0.1697
   45MOL0     H 6025   9.826   2.200   4.861 -0.3948 -0.1141 -1.1972
   45MOL0     H 6026   9.846   1.884   4.989 -0.2051  1.7238 -1.0245
   45MOL0     H 6027  10.004   1.705   5.062 -0.2625  1.8008 -2.2613
   45MOL0     H 6028  10.167   1.720   5.002 -1.9105 -0.8926 -0.8176
   45MOL0     H 6029  10.102   1.821   5.285  1.3075  1.9154 -0.5771
   45MOL0     H 6030  10.154   1.654   5.261 -4.7188 -1.1080 -1.7751
   45MOL0     H 6031  10.319   1.905   5.201 -0.2761  0.1382 -0.6400
   45MOL0     H 6032  10.363   1.741   5.135  3.2331  0.6363  1.7181
   45MOL0     H 6033  10.480   1.804   5.340  0.8833 -2.8949  2.1947
   45MOL0     H 6034  10.383   1.661   5.347 -0.3324 -0.3078 -0.1549
   45MOL0     H 6035  10.440   2.025   5.342  1.1786 -0.1553  0.3381
   45MOL0     H 6036  10.501   2.227   5.463  0.8780 -0.3101 -0.9631
   45MOL0     H 6037  10.724   2.422   5.682  0.0262 -0.2959  0.3483
   45MOL0     H 6038  10.824   2.640   5.776  0.4311  0.9753 -0.0352
   45MOL0     H 6039  10.767   2.823   6.079  0.3207  1.2839  0.2578
   45MOL0     H 6040  10.868   2.767   5.932 -1.3504 -1.0329 -1.9884
   45MOL0     H 6041  10.890   2.995   5.872  1.7859 -0.0701  0.3917
   45MOL0     H 6042  10.783   3.050   6.005  2.1925  1.9873 -0.9019
   45MOL0     H 6043  10.962   2.944   6.162 -0.3442 -0.2627  0.7688
   45MOL0     H 6044  11.058   2.907   6.017 -0.5725  1.7944 -1.1648
   45MOL0     H 6045  10.989   3.190   6.101  2.8316  0.6125  0.9362
   45MOL0     H 6046  11.094   3.143   5.971 -2.0667  4.9004  0.3048
   45MOL0     H 6047  11.230   3.004   6.129  1.6175  0.2836  2.3197
   45MOL0     H 6048  11.140   3.079   6.262  0.1717 -1.0369  1.0503
   45MOL0     H 6049  11.227   3.304   6.181 -0.3154  0.3476 -2.9942
   45MOL0     H 6050  11.363   3.200   6.250  0.7546 -0.4716 -0.3327
   45MOL0     H 6051  11.278   3.228   5.954  1.2314  2.1992 -0.7620
   45MOL0     H 6052  11.419   3.152   6.027 -1.1955 -1.8706  0.3456
   45MOL0     H 6053  11.478   3.389   6.122  1.9645  1.7700 -0.6443
   45MOL0     H 6054  11.508   3.358   5.959 -0.3631 -0.2061 -0.0670
   45MOL0     H 6055  10.418   2.767   5.880  0.6349 -0.0307  1.5068
   45MOL0     H 6056  10.332   2.578   5.763  0.0997 -0.9866  1.2228
   45MOL0     H 6057  10.244   2.089   5.785 -2.0740 -3.4269 -1.1861
   45MOL0     H 6058  10.199   1.874   5.660  1.1790 -2.1629 -0.1016
   45MOL0     H 6059   9.852   3.060   4.414 -0.6779 -1.4632  0.0347
   45MOL0     H 6060  10.042   3.200   4.347 -0.2616 -0.2566 -0.6852
   45MOL0     H 6061  10.493   3.152   4.277  1.1026 -0.0923  3.9063
   45MOL0     H 6062  10.701   3.230   4.177  0.3425  0.5224  0.4151
   45MOL0     H 6063  10.925   3.580   4.328 -2.3600  0.9506 -0.0435
   45MOL0     H 6064  10.798   3.644   4.223 -1.8093 -1.0780 -2.1180
   45MOL0     H 6065  11.037   3.671   4.148  1.3025 -1.9592  1.0474
   45MOL0     H 6066  10.906   3.622   4.034  1.8501 -3.9454 -3.1042
   45MOL0     H 6067  11.004   3.383   4.055  4.2322 -2.3554 -0.3301
   45MOL0     H 6068  11.103   3.433   4.189 -0.7818 -4.0384 -0.8495
   45MOL0     H 6069  11.142   3.587   3.931  5.0630  0.0146 -2.1825
   45MOL0     H 6070  11.248   3.504   4.054 -0.0950 -3.0330 -0.8809
   45MOL0     H 6071  11.151   3.200   3.770  2.4686 -0.1759  0.2364
   45MOL0     H 6072  10.659   3.599   4.394  1.1201 -0.1411  0.9845
   45MOL0     H 6073  10.355   3.612   4.482 -1.3088 -1.1378  1.7962
   45MOL0     H 6074  10.407   3.487   4.598 -1.4148  2.1259  0.6442
   45MOL0     H 6075  10.503   3.631   4.566  0.0209 -0.6750  2.5241
   46MOL0     O 6076   2.781   9.348   8.497 -0.2581 -0.0376 -0.4360
   46MOL0     C 6077   2.664   9.369   8.532 -0.0242 -1.4981  0.9312
   46MOL0     O 6078   2.610   9.496   8.531  0.0831 -0.4475 -0.5798
   46MOL0     C 6079   2.678   9.596   8.482 -1.6168  0.0493  0.9036
   46MOL0     C 6080   2.667   9.649   8.350 -0.4183  0.3284  0.5119
   46MOL0     C 6081   2.748   9.760   8.315 -0.8498 -0.4741 -0.2225
   46MOL0     C 6082   2.832   9.823   8.409 -0.0251 -0.1602  0.9165
   46MOL0     O 6083   2.892   9.946   8.376 -0.2087  0.2485  0.2468
   46MOL0     C 6084   2.877  10.051   8.481 -0.4312 -0.0695 -0.1600
   46MOL0     C 6085   2.977  10.155   8.454  0.0978 -0.4289 -0.7550
   46MOL0     C 6086   3.113  10.087   8.490  0.0959  0.2625  1.3071
   46MOL0     C 6087   3.238  10.169   8.498 -0.7131  0.4134 -0.5490
   46MOL0     C 6088   3.256  10.230   8.640 -0.6827 -0.1077  0.4718
   46MOL0     C 6089   3.397  10.278   8.675 -0.3758  0.4247  0.6199
   46MOL0     C 6090   3.484  10.149   8.708  0.4904 -0.5364  0.6406
   46MOL0     C 6091   3.628  10.183   8.747 -0.5021 -0.1773 -0.2500
   46MOL0     N 6092   3.711  10.064   8.770  0.0461  0.2177  0.7152
   46MOL0     C 6093   3.718  10.006   8.883 -0.9471  0.8459 -0.1563
   46MOL0     C 6094   3.787   9.894   8.858 -0.2721 -0.6432 -1.2318
   46MOL0     C 6095   3.797   9.787   8.962 -0.2415  0.8351  0.3607
   46MOL0     C 6096   3.676   9.770   9.051  0.2171  0.2067  1.0772
   46MOL0     C 6097   3.722   9.685   9.168  0.7005  1.1633 -0.5642
   46MOL0     C 6098   3.598   9.641   9.249  0.8355  0.0201 -0.4268
   46MOL0     O 6099   3.497   9.579   9.174 -0.2206  0.9963  0.1119
   46MOL0     C 6100   3.407   9.490   9.236  0.1623  0.8313  0.3778
   46MOL0     C 6101   3.342   9.393   9.161  0.3421 -0.4559  0.4642
   46MOL0     C 6102   3.246   9.303   9.224 -0.3186 -0.2773 -0.2837
   46MOL0     C 6103   3.212   9.321   9.363 -0.0437  0.1561 -0.0891
   46MOL0     C 6104   3.114   9.242   9.431 -0.5520  0.7271 -0.3720
   46MOL0     O 6105   3.050   9.149   9.357  0.3969  0.0186 -0.1160
   46MOL0     C 6106   2.943   9.076   9.405 -0.4117  0.2956 -0.0239
   46MOL0     C 6107   2.927   8.944   9.352  0.6355 -0.0596  0.0594
   46MOL0     C 6108   2.810   8.868   9.389  0.8102  0.8648  0.6410
   46MOL0     C 6109   2.710   8.930   9.458 -0.5492 -0.2306  0.0691
   46MOL0     O 6110   2.599   8.845   9.490  0.1413 -0.1497 -0.1967
   46MOL0     C 6111   2.500   8.883   9.596 -0.3255 -0.2339 -0.1309
   46MOL0     C 6112   2.552   8.864   9.737 -0.6652  0.1566 -1.2583
   46MOL0     C 6113   2.446   8.879   9.837  0.3828  0.0493 -0.4466
   46MOL0     C 6114   2.496   8.809   9.955 -0.1690 -0.3124 -0.4040
   46MOL0     C 6115   2.402   8.825  10.077 -0.1294 -0.3795  0.0493
   46MOL0     C 6116   2.464   8.778  10.214 -1.0661  0.4240  0.4316
   46MOL0     C 6117   2.359   8.798  10.325  0.1097  1.1734  0.7756
   46MOL0     C 6118   2.413   8.768  10.461 -0.6820 -1.0641 -0.3373
   46MOL0    Cl 6119   2.421   8.592  10.462  0.1532 -0.4318 -0.5513
   46MOL0     C 6120   2.720   9.060   9.511  0.3322 -0.5559  0.1304
   46MOL0     C 6121   2.840   9.126   9.497 -0.1629 -0.2876  0.0654
   46MOL0     O 6122   3.098   9.255   9.549  0.1098 -0.0605  0.1526
   46MOL0     C 6123   3.284   9.417   9.433  0.0145  0.2629 -0.3466
   46MOL0     C 6124   3.384   9.495   9.375  0.0877 -0.4478  0.4281
   46MOL0     N 6125   3.823   9.893   8.728 -0.2179 -0.4534  0.2295
   46MOL0     N 6126   3.775   9.991   8.677  0.2108 -0.2601 -1.1089
   46MOL0     C 6127   2.844   9.772   8.535  0.4216 -0.2128 -0.5454
   46MOL0     C 6128   2.776   9.653   8.563  0.5383  1.3136 -0.2606
   46MOL0     C 6129   2.575   9.258   8.560  0.2024  0.7807 -0.0242
   46MOL0     C 6130   2.630   9.131   8.565  0.1652  0.5568  0.0125
   46MOL0     C 6131   2.557   9.022   8.611 -0.7438 -0.7662  0.2259
   46MOL0     C 6132   2.426   9.030   8.643  0.4572 -0.2321  0.6200
   46MOL0     O 6133   2.360   8.922   8.692  0.1386 -0.4506  0.0649
   46MOL0     C 6134   2.242   8.890   8.628  0.8606 -0.0895  0.2110
   46MOL0     C 6135   2.244   8.766   8.540 -0.6295 -1.1612  0.1956
   46MOL0     C 6136   2.143   8.763   8.432  0.3197  0.1127  0.1047
   46MOL0     C 6137   2.144   8.637   8.344  0.3224  1.4044 -0.2972
   46MOL0     C 6138   2.272   8.584   8.314 -0.2351  0.1331 -0.6903
   46MOL0     C 6139   2.379   8.549   8.266  1.4371  0.2280  1.0053
   46MOL0     C 6140   2.365   9.153   8.635 -0.4131  0.0194  0.1956
   46MOL0     C 6141   2.439   9.271   8.600  0.3121  0.1947  0.7075
   46MOL0     C 6142   2.366   9.400   8.586  0.0824  1.0577  0.4707
   46MOL0     H 6143   2.604   9.603   8.274  1.4587 -2.0328  0.2671
   46MOL0     H 6144   2.733   9.795   8.213 -0.5931 -1.7467 -0.7124
   46MOL0     H 6145   2.778  10.097   8.476 -0.4478 -0.1247 -4.9109
   46MOL0     H 6146   2.866  10.018   8.584 -1.8576  1.0562  0.0866
   46MOL0     H 6147   2.974  10.236   8.527  0.9681 -1.8695  0.9427
   46MOL0     H 6148   2.978  10.197   8.352 -0.1415  1.0683 -0.1679
   46MOL0     H 6149   3.126  10.008   8.416  0.5586  1.3752  0.1698
   46MOL0     H 6150   3.107  10.035   8.586 -2.7457 -3.0923 -0.4933
   46MOL0     H 6151   3.321  10.101   8.475  0.2877  1.0196  1.0688
   46MOL0     H 6152   3.234  10.247   8.422 -0.6592  0.2041 -0.7687
   46MOL0     H 6153   3.191  10.318   8.643 -0.1561  0.7769 -4.6392
   46MOL0     H 6154   3.230  10.153   8.713  4.1482 -1.4860  1.0805
   46MOL0     H 6155   3.447  10.323   8.588  2.5818  0.4077  2.1679
   46MOL0     H 6156   3.390  10.352   8.755 -3.7138  0.3179  0.5429
   46MOL0     H 6157   3.504  10.080   8.626  1.5016 -1.0706  1.3119
   46MOL0     H 6158   3.447  10.100   8.798 -1.3309 -0.0031  0.2344
   46MOL0     H 6159   3.673  10.259   8.683  0.8639 -0.4260  0.3708
   46MOL0     H 6160   3.620  10.218   8.850 -2.4018 -3.1831  0.7763
   46MOL0     H 6161   3.664  10.042   8.970  1.1142  0.9730  1.1409
   46MOL0     H 6162   3.831   9.688   8.930  0.7396  0.6404  1.8843
   46MOL0     H 6163   3.884   9.803   9.027 -0.6395 -0.0925  1.1467
   46MOL0     H 6164   3.633   9.868   9.074  3.0865  0.9064  4.2550
   46MOL0     H 6165   3.599   9.722   8.990 -0.9602  1.3964  1.5928
   46MOL0     H 6166   3.790   9.739   9.235  2.0349  0.5962 -1.4420
   46MOL0     H 6167   3.759   9.588   9.134 -1.0118 -0.3837  1.6446
   46MOL0     H 6168   3.565   9.739   9.284  3.8666  0.4210  1.7221
   46MOL0     H 6169   3.615   9.584   9.341 -2.3684 -2.1507 -0.9818
   46MOL0     H 6170   3.362   9.375   9.056 -0.7704 -1.0692  0.3417
   46MOL0     H 6171   3.191   9.233   9.162 -0.6594  0.7391 -1.1681
   46MOL0     H 6172   3.004   8.903   9.287  0.9000 -0.6178  0.7210
   46MOL0     H 6173   2.793   8.764   9.365  3.0801  1.4147 -4.5991
   46MOL0     H 6174   2.473   8.989   9.592 -2.3802 -0.5818  2.1816
   46MOL0     H 6175   2.407   8.827   9.582 -1.3366  1.2895  0.2908
   46MOL0     H 6176   2.600   8.766   9.732 -1.3481 -0.1113 -4.3860
   46MOL0     H 6177   2.632   8.935   9.762  0.5320 -1.7715  0.8079
   46MOL0     H 6178   2.429   8.984   9.863 -0.7301  1.0467 -4.4631
   46MOL0     H 6179   2.355   8.831   9.800 -1.7098  1.5818  2.3297
   46MOL0     H 6180   2.595   8.851   9.978  0.6732 -2.6025  0.3951
   46MOL0     H 6181   2.516   8.703   9.941 -3.4588 -0.8898 -1.4792
   46MOL0     H 6182   2.313   8.762  10.066 -1.2562  1.0720  0.5863
   46MOL0     H 6183   2.378   8.931  10.088  0.3069 -0.4600  2.2807
   46MOL0     H 6184   2.506   8.677  10.207  1.0043  1.0634  2.4755
   46MOL0     H 6185   2.554   8.839  10.224 -0.8136  0.3716 -1.2032
   46MOL0     H 6186   2.278   8.729  10.303  0.7472  0.5584  0.2837
   46MOL0     H 6187   2.320   8.901  10.321 -2.6179  0.2336  1.2681
   46MOL0     H 6188   2.510   8.816  10.479 -1.6010  0.4206  0.8832
   46MOL0     H 6189   2.343   8.805  10.536 -0.8866  0.5561 -1.2686
   46MOL0     H 6190   2.641   9.112   9.565 -1.1312 -0.5306 -1.9363
   46MOL0     H 6191   2.850   9.232   9.521  2.5413 -0.0262 -1.8262
   46MOL0     H 6192   3.264   9.431   9.538  0.2829 -0.9721 -0.1176
   46MOL0     H 6193   3.430   9.567   9.441 -1.4353  0.1933  0.8513
   46MOL0     H 6194   2.907   9.813   8.613  1.5858 -1.5693 -0.7242
   46MOL0     H 6195   2.775   9.614   8.664 -2.8908 -1.9905 -1.3514
   46MOL0     H 6196   2.734   9.116   8.540 -0.0398  2.2809 -2.1816
   46MOL0     H 6197   2.600   8.922   8.620  1.2002  0.2118  3.3021
   46MOL0     H 6198   2.191   8.975   8.579 -1.5906  0.1076  2.8041
   46MOL0     H 6199   2.170   8.871   8.708  1.1492  1.5824  0.9226
   46MOL0     H 6200   2.227   8.676   8.600 -0.5853 -0.6032  1.0489
   46MOL0     H 6201   2.345   8.765   8.498 -0.4147  1.7925  0.4252
   46MOL0     H 6202   2.137   8.849   8.366 -2.4318 -0.3435 -0.3503
   46MOL0     H 6203   2.043   8.770   8.475 -0.0861  0.3007 -0.8510
   46MOL0     H 6204   2.092   8.558   8.399 -1.4089  2.7239  0.0571
   46MOL0     H 6205   2.095   8.665   8.250 -0.4292  3.2339  0.5963
   46MOL0     H 6206   2.463   8.504   8.217  2.2647  1.0016  1.6990
   46MOL0     H 6207   2.259   9.160   8.660 -0.3036  3.1074  0.2673
   46MOL0     H 6208   2.259   9.375   8.578  0.3118  0.3089 -0.3997
   46MOL0     H 6209   2.393   9.459   8.673  0.6050  1.5602 -0.0259
   46MOL0     H 6210   2.374   9.453   8.491 -0.1230  0.8613  0.3413
   47MOL0     O 6211   6.174   0.396   6.125  0.2026  0.1562  0.0818
   47MOL0     C 6212   6.183   0.324   6.222  0.4587  0.0322  1.1506
   47MOL0     O 6213   6.170   0.187   6.226 -0.8454 -0.0408 -0.0711
   47MOL0     C 6214   6.180   0.118   6.115  0.0190  0.3712 -0.0196
   47MOL0     C 6215   6.239   0.151   5.986  0.3707  0.3504 -0.0012
   47MOL0     C 6216   6.235   0.055   5.875  0.2653  0.7353 -0.6243
   47MOL0     C 6217   6.175  -0.071   5.890 -0.1666  0.1586  0.3199
   47MOL0     O 6218   6.172  -0.144   5.777 -1.1640  0.4039  0.0316
   47MOL0     C 6219   6.189  -0.285   5.794  0.8310  0.1440  0.0853
   47MOL0     C 6220   6.328  -0.328   5.847  0.4970 -0.5735 -0.5477
   47MOL0     C 6221   6.435  -0.307   5.735 -0.0949 -0.1264 -1.0841
   47MOL0     C 6222   6.565  -0.392   5.750  0.2377  1.1074  0.2417
   47MOL0     C 6223   6.653  -0.360   5.628 -0.1175 -0.6439  0.6244
   47MOL0     C 6224   6.784  -0.440   5.618 -0.7678 -0.1005  0.4336
   47MOL0     C 6225   6.766  -0.588   5.645  0.2186 -0.3486 -0.4816
   47MOL0     C 6226   6.678  -0.666   5.556  0.5281 -0.4836 -0.4980
   47MOL0     N 6227   6.716  -0.655   5.412  0.2936 -0.0033  0.1648
   47MOL0     C 6228   6.616  -0.602   5.329  0.0029  0.9463 -1.0441
   47MOL0     C 6229   6.663  -0.659   5.214 -0.1902  0.3522 -0.4157
   47MOL0     C 6230   6.591  -0.631   5.087 -0.6315 -0.0082 -0.5896
   47MOL0     C 6231   6.547  -0.769   5.038 -0.1168 -0.1884  0.2259
   47MOL0     C 6232   6.429  -0.769   4.946 -0.4514  0.5077  1.0929
   47MOL0     C 6233   6.396  -0.919   4.913 -0.6929 -0.3961  0.0077
   47MOL0     O 6234   6.460  -0.974   4.792 -0.1587  0.2115 -0.2535
   47MOL0     C 6235   6.424  -0.944   4.660 -0.8264 -0.8374 -0.3118
   47MOL0     C 6236   6.310  -0.867   4.615 -0.0105  1.1293 -0.4455
   47MOL0     C 6237   6.288  -0.843   4.475  1.3139 -0.2820  0.1537
   47MOL0     C 6238   6.383  -0.885   4.379 -0.3386 -0.9184  0.4093
   47MOL0     C 6239   6.373  -0.834   4.237 -0.1507  0.2702  0.5053
   47MOL0     O 6240   6.441  -0.904   4.135  0.5566 -0.2439  0.5637
   47MOL0     C 6241   6.418  -0.865   4.007 -0.5341 -0.3791  0.5921
   47MOL0     C 6242   6.413  -0.732   3.954  0.6759  0.1567 -0.1794
   47MOL0     C 6243   6.355  -0.714   3.826  0.5295 -0.8277  0.9666
   47MOL0     C 6244   6.322  -0.813   3.741 -0.2858 -0.2961 -0.5221
   47MOL0     O 6245   6.251  -0.793   3.621  0.0214  0.3271 -0.6143
   47MOL0     C 6246   6.253  -0.671   3.540 -1.2214  0.3227 -0.8389
   47MOL0     C 6247   6.397  -0.639   3.508 -0.2955 -0.0046 -0.2981
   47MOL0     C 6248   6.413  -0.540   3.394  0.6448  0.0025 -0.8826
   47MOL0     C 6249   6.551  -0.542   3.328 -0.1840  0.1833 -0.4381
   47MOL0     C 6250   6.576  -0.432   3.232  0.1770  0.6579  0.5160
   47MOL0     C 6251   6.699  -0.472   3.145  0.3940 -0.5891  0.4131
   47MOL0     C 6252   6.729  -0.365   3.032  0.3105  0.2427  0.1533
   47MOL0     C 6253   6.816  -0.245   3.073 -0.0485  0.9925 -0.6636
   47MOL0    Cl 6254   6.850  -0.140   2.930  0.1964  0.1165 -0.1433
   47MOL0     C 6255   6.330  -0.939   3.791 -0.1990  0.1214 -0.0703
   47MOL0     C 6256   6.377  -0.965   3.919  0.5646 -0.1176 -0.1288
   47MOL0     O 6257   6.292  -0.749   4.215  0.3808 -0.1851  0.8753
   47MOL0     C 6258   6.499  -0.954   4.428 -0.7742 -0.7041  1.1880
   47MOL0     C 6259   6.517  -0.978   4.563  0.4619 -0.4345  0.6782
   47MOL0     N 6260   6.777  -0.736   5.230 -0.3334  0.4908  0.2863
   47MOL0     N 6261   6.805  -0.731   5.355 -0.6872 -0.1349  0.7650
   47MOL0     C 6262   6.127  -0.100   6.011  0.3134  0.3046  0.0983
   47MOL0     C 6263   6.137  -0.016   6.122  0.3435 -0.0793 -0.0266
   47MOL0     C 6264   6.184   0.383   6.361 -0.2420  0.0440  0.3375
   47MOL0     C 6265   6.178   0.523   6.367  0.6518  0.0615  0.0626
   47MOL0     C 6266   6.164   0.598   6.483 -1.0295  0.4368  0.3890
   47MOL0     C 6267   6.134   0.534   6.609  0.5440  0.3501  0.8321
   47MOL0     O 6268   6.092   0.601   6.711  0.0546  0.0372  0.4102
   47MOL0     C 6269   6.087   0.745   6.714  0.1932  0.1626  0.7727
   47MOL0     C 6270   6.219   0.823   6.720 -0.7358  0.1600  0.3252
   47MOL0     C 6271   6.322   0.773   6.828 -1.5205  0.3020 -0.3172
   47MOL0     C 6272   6.449   0.854   6.829  0.1377 -0.2050 -0.0291
   47MOL0     C 6273   6.434   0.981   6.898  0.3006  1.4398  0.2014
   47MOL0     C 6274   6.440   1.093   6.942 -0.3514  0.2047  0.3721
   47MOL0     C 6275   6.142   0.392   6.609 -0.3318 -0.2754 -0.2998
   47MOL0     C 6276   6.168   0.323   6.485  0.2404  0.1837 -1.4926
   47MOL0     C 6277   6.205   0.179   6.510 -0.6309  0.4486 -0.8341
   47MOL0     H 6278   6.278   0.249   5.960 -1.4013  1.0163 -0.3232
   47MOL0     H 6279   6.276   0.078   5.776 -0.6085 -1.0938 -1.4586
   47MOL0     H 6280   6.118  -0.328   5.865  0.2535 -1.2975 -1.3061
   47MOL0     H 6281   6.168  -0.334   5.698  0.7564  0.8461 -0.2636
   47MOL0     H 6282   6.337  -0.434   5.873  4.7389 -0.7083 -1.7694
   47MOL0     H 6283   6.351  -0.280   5.943 -3.3017 -1.1319  0.8171
   47MOL0     H 6284   6.456  -0.204   5.704 -1.9868  0.8980  0.7265
   47MOL0     H 6285   6.391  -0.366   5.654  1.7157 -3.6455  0.2780
   47MOL0     H 6286   6.621  -0.387   5.844 -0.6291  3.9225  0.7026
   47MOL0     H 6287   6.523  -0.492   5.742 -0.1353  1.1419  1.4876
   47MOL0     H 6288   6.592  -0.374   5.539 -0.2115 -0.6395  0.6873
   47MOL0     H 6289   6.681  -0.255   5.632 -0.2457 -0.5690 -0.2644
   47MOL0     H 6290   6.840  -0.431   5.524 -1.6575 -2.8077 -0.4414
   47MOL0     H 6291   6.847  -0.416   5.704  0.9921 -4.8580  0.7830
   47MOL0     H 6292   6.730  -0.608   5.747 -2.7658 -1.0548 -1.5562
   47MOL0     H 6293   6.864  -0.637   5.646  0.6520  0.3310  2.9502
   47MOL0     H 6294   6.685  -0.774   5.572  1.3710 -0.8727 -3.0075
   47MOL0     H 6295   6.572  -0.639   5.563  1.2693  2.8794 -0.6477
   47MOL0     H 6296   6.526  -0.544   5.345 -1.3471 -1.0825 -0.9282
   47MOL0     H 6297   6.504  -0.566   5.103 -1.1522 -1.1235  1.4160
   47MOL0     H 6298   6.657  -0.585   5.013  0.8421 -0.8572  0.1414
   47MOL0     H 6299   6.625  -0.819   4.980 -1.3168 -0.5551 -1.0990
   47MOL0     H 6300   6.521  -0.821   5.131 -0.9833  0.6046  0.4369
   47MOL0     H 6301   6.458  -0.725   4.850  0.7151 -0.2665  1.0672
   47MOL0     H 6302   6.342  -0.722   4.992 -1.9969 -1.1441 -0.0002
   47MOL0     H 6303   6.287  -0.917   4.916 -0.7433 -2.1231  1.7828
   47MOL0     H 6304   6.401  -0.983   5.002 -4.0883 -0.8943 -0.0302
   47MOL0     H 6305   6.231  -0.828   4.678 -0.5831  2.2425 -1.7996
   47MOL0     H 6306   6.192  -0.804   4.441  0.4982 -0.9793  1.5636
   47MOL0     H 6307   6.438  -0.643   4.012  0.3846  0.4964 -0.5638
   47MOL0     H 6308   6.344  -0.614   3.785 -2.8138 -2.0928 -1.7495
   47MOL0     H 6309   6.205  -0.674   3.443  0.3950  1.7908 -1.7433
   47MOL0     H 6310   6.210  -0.580   3.583  0.6665  1.7533 -1.8029
   47MOL0     H 6311   6.455  -0.599   3.592  1.7335 -0.1463 -1.5575
   47MOL0     H 6312   6.446  -0.732   3.475  0.6737  0.1770  0.5521
   47MOL0     H 6313   6.335  -0.535   3.317  3.1128  3.1194 -3.4780
   47MOL0     H 6314   6.401  -0.439   3.434  2.5640 -0.3527  0.7174
   47MOL0     H 6315   6.549  -0.639   3.277  1.3855 -0.0554 -0.0727
   47MOL0     H 6316   6.625  -0.553   3.407 -0.3595 -3.0517 -0.5738
   47MOL0     H 6317   6.580  -0.332   3.278  0.2100  2.1963 -2.5571
   47MOL0     H 6318   6.485  -0.423   3.171  0.1633 -1.4584  0.1444
   47MOL0     H 6319   6.786  -0.485   3.209  0.8546 -2.0131 -0.4546
   47MOL0     H 6320   6.669  -0.572   3.112 -4.0459 -0.5648  3.4348
   47MOL0     H 6321   6.634  -0.325   2.995  0.2959  0.1820  0.1254
   47MOL0     H 6322   6.772  -0.419   2.947  1.6731  0.7749  0.4847
   47MOL0     H 6323   6.774  -0.190   3.158 -1.0807 -2.7794  1.5173
   47MOL0     H 6324   6.906  -0.287   3.119 -1.3472 -0.7139  0.4597
   47MOL0     H 6325   6.292  -1.021   3.731  4.1455 -2.3058  0.0446
   47MOL0     H 6326   6.362  -1.063   3.962 -0.2086  0.6012  1.3295
   47MOL0     H 6327   6.562  -0.996   4.350 -0.7291  1.9426 -0.3347
   47MOL0     H 6328   6.601  -1.030   4.608  1.3023  0.0868 -0.2559
   47MOL0     H 6329   6.069  -0.190   6.028  1.3281 -0.7276 -1.6116
   47MOL0     H 6330   6.095  -0.047   6.217 -0.2282 -2.6075 -1.0534
   47MOL0     H 6331   6.164   0.579   6.275 -0.5296 -3.0640 -1.8469
   47MOL0     H 6332   6.158   0.706   6.471  0.1259  0.5588  0.7818
   47MOL0     H 6333   6.024   0.765   6.801 -0.6061 -0.8093  0.4413
   47MOL0     H 6334   6.030   0.785   6.630  0.4769  0.5745  0.7781
   47MOL0     H 6335   6.177   0.923   6.735 -0.3924  0.6170 -1.5797
   47MOL0     H 6336   6.262   0.819   6.620  0.9497 -0.2857  1.0445
   47MOL0     H 6337   6.367   0.679   6.794  2.5719  1.1648  1.9979
   47MOL0     H 6338   6.273   0.773   6.926 -1.2457  2.2086 -0.1339
   47MOL0     H 6339   6.535   0.796   6.865  1.8147  1.2909 -1.3964
   47MOL0     H 6340   6.471   0.868   6.723  0.6202 -2.2151 -0.2403
   47MOL0     H 6341   6.443   1.197   6.965  2.8554  0.1695  0.5124
   47MOL0     H 6342   6.130   0.348   6.708 -1.3218 -0.0712 -0.3170
   47MOL0     H 6343   6.296   0.143   6.462  1.7271  1.8181  2.2264
   47MOL0     H 6344   6.219   0.172   6.619 -0.5659  1.0078 -0.8078
   47MOL0     H 6345   6.126   0.118   6.465 -2.8223  2.1500  0.4805
   48MOL0     O 6346   8.479   7.353   1.354  0.1492 -0.0171 -0.0531
   48MOL0     C 6347   8.586   7.398   1.328  0.1285  0.0713  0.2873
   48MOL0     O 6348   8.613   7.528   1.290  0.3372  0.2279 -0.2124
   48MOL0     C 6349   8.508   7.600   1.245  0.5651  0.3037 -0.5075
   48MOL0     C 6350   8.478   7.610   1.105 -0.4696  1.1096  0.1393
   48MOL0     C 6351   8.371   7.684   1.067  0.6927  0.1959 -0.0659
   48MOL0     C 6352   8.298   7.765   1.154 -0.8144  0.6892 -0.5708
   48MOL0     O 6353   8.205   7.848   1.106  0.5374  0.5678  0.6091
   48MOL0     C 6354   8.075   7.785   1.123 -0.3594  0.4229  0.5997
   48MOL0     C 6355   8.046   7.673   1.011  0.1448  0.5440  0.5963
   48MOL0     C 6356   8.022   7.724   0.869 -0.0699 -0.5157 -0.3210
   48MOL0     C 6357   7.934   7.626   0.794 -0.0822  0.2049 -0.4891
   48MOL0     C 6358   7.856   7.705   0.687  0.6293 -0.2393  0.2631
   48MOL0     C 6359   7.753   7.608   0.634  0.2062 -1.0853 -1.8379
   48MOL0     C 6360   7.683   7.694   0.520 -0.6018  0.0329  1.2226
   48MOL0     C 6361   7.568   7.614   0.466 -0.1726 -0.4692 -0.0246
   48MOL0     N 6362   7.596   7.473   0.415 -0.0323  0.0434  0.1934
   48MOL0     C 6363   7.659   7.455   0.298 -0.0819  0.7664  0.3739
   48MOL0     C 6364   7.670   7.325   0.275  1.0886  0.5457 -0.2384
   48MOL0     C 6365   7.733   7.262   0.168 -0.7876 -0.3364 -0.0300
   48MOL0     C 6366   7.859   7.203   0.218 -0.4094  0.3522  0.4811
   48MOL0     C 6367   7.911   7.111   0.110  0.2403  0.6604  0.3752
   48MOL0     C 6368   8.048   7.063   0.153  0.5755 -0.7431 -1.4555
   48MOL0     O 6369   8.004   6.947   0.235  0.0704  0.5080 -0.3643
   48MOL0     C 6370   8.088   6.885   0.328 -0.8045  0.7004 -0.0170
   48MOL0     C 6371   8.232   6.910   0.321  0.4176  0.1630 -0.4148
   48MOL0     C 6372   8.325   6.859   0.413 -0.1724 -0.5601 -0.2826
   48MOL0     C 6373   8.272   6.763   0.501  0.2111  1.0762 -0.2425
   48MOL0     C 6374   8.356   6.723   0.617 -0.1555  1.2397  0.2121
   48MOL0     O 6375   8.483   6.773   0.619  0.3534  0.1018  0.0585
   48MOL0     C 6376   8.575   6.755   0.725 -0.1480  0.0957  0.0273
   48MOL0     C 6377   8.680   6.856   0.737  0.6899 -0.3791  0.3095
   48MOL0     C 6378   8.793   6.852   0.822  0.5538  0.0031  0.9423
   48MOL0     C 6379   8.803   6.738   0.903  0.5731  0.2451  0.6297
   48MOL0     O 6380   8.919   6.720   0.976 -0.3475  0.0656  0.0609
   48MOL0     C 6381   8.896   6.680   1.110  0.3476 -0.6174  0.3100
   48MOL0     C 6382   9.027   6.635   1.170 -0.8818 -0.5483 -0.0592
   48MOL0     C 6383   9.151   6.734   1.153  0.3211  0.1465  0.2407
   48MOL0     C 6384   9.258   6.682   1.247  0.2190  0.1877  0.6403
   48MOL0     C 6385   9.371   6.775   1.270 -0.3670  0.3545  0.3727
   48MOL0     C 6386   9.432   6.812   1.124  0.7155 -0.5712 -0.5508
   48MOL0     C 6387   9.559   6.895   1.143  0.0339 -0.2221  0.4358
   48MOL0     C 6388   9.613   6.963   1.017  0.2245 -0.0626 -0.6100
   48MOL0    Cl 6389   9.507   7.087   0.952 -0.0433  0.3174 -0.1263
   48MOL0     C 6390   8.700   6.640   0.898  0.2629  0.4956  0.3644
   48MOL0     C 6391   8.592   6.645   0.806 -0.2244  0.6088 -0.2853
   48MOL0     O 6392   8.304   6.646   0.706  0.0401 -0.1533  0.0382
   48MOL0     C 6393   8.134   6.735   0.499 -0.6142  0.5647 -0.5348
   48MOL0     C 6394   8.051   6.785   0.408 -1.0356 -0.4416 -0.6540
   48MOL0     N 6395   7.617   7.260   0.381  0.7033 -0.9801  0.9027
   48MOL0     N 6396   7.585   7.351   0.469  0.0514  0.5955  0.3286
   48MOL0     C 6397   8.340   7.768   1.290  0.5107  0.7943  0.0533
   48MOL0     C 6398   8.450   7.690   1.336 -0.4815 -0.0605 -0.2526
   48MOL0     C 6399   8.693   7.300   1.375 -0.1644 -0.7960 -0.4051
   48MOL0     C 6400   8.661   7.171   1.363 -0.3541 -0.8326 -0.2636
   48MOL0     C 6401   8.751   7.071   1.401  0.4665 -0.4219  0.1906
   48MOL0     C 6402   8.867   7.100   1.463  0.2864  1.1125 -0.2144
   48MOL0     O 6403   8.941   6.987   1.487 -0.7972  0.1548 -0.1284
   48MOL0     C 6404   9.083   6.993   1.514 -0.1454  0.1862  0.4736
   48MOL0     C 6405   9.127   6.846   1.541  0.6418 -0.0973 -0.2410
   48MOL0     C 6406   9.082   6.804   1.683  0.1176  0.0692 -0.3196
   48MOL0     C 6407   9.113   6.656   1.719  0.3798 -1.4243 -0.6189
   48MOL0     C 6408   9.250   6.632   1.712  0.9649 -0.2561  0.3825
   48MOL0     C 6409   9.371   6.621   1.706 -0.2623  0.8170 -0.5987
   48MOL0     C 6410   8.905   7.229   1.469  0.6011  0.1087  0.5138
   48MOL0     C 6411   8.826   7.330   1.415  0.1739 -0.4181 -0.3694
   48MOL0     C 6412   8.870   7.469   1.418 -0.0718 -0.3370  0.0761
   48MOL0     H 6413   8.530   7.540   1.040 -0.3688 -0.3347  1.7073
   48MOL0     H 6414   8.349   7.682   0.960 -0.4898 -2.3015  0.1419
   48MOL0     H 6415   8.065   7.746   1.225  1.9115 -2.9757 -0.3004
   48MOL0     H 6416   7.992   7.856   1.113  1.7210  2.8891 -0.2539
   48MOL0     H 6417   7.963   7.607   1.040 -0.8002  1.6287  0.4548
   48MOL0     H 6418   8.123   7.596   1.007 -0.0444  0.3930 -0.1123
   48MOL0     H 6419   8.123   7.714   0.829 -0.3684  0.4201 -1.3686
   48MOL0     H 6420   7.988   7.828   0.859  2.5561  0.2764 -1.8950
   48MOL0     H 6421   7.997   7.544   0.760  1.1908  0.9370  0.0231
   48MOL0     H 6422   7.868   7.572   0.862 -0.2679  1.8122  0.6703
   48MOL0     H 6423   7.797   7.779   0.741 -0.1188 -2.4523  2.6955
   48MOL0     H 6424   7.926   7.746   0.614  0.0008  2.6456  1.1719
   48MOL0     H 6425   7.791   7.516   0.590  1.5033 -1.0234 -0.9014
   48MOL0     H 6426   7.684   7.595   0.718  0.5013  2.3296 -0.8934
   48MOL0     H 6427   7.751   7.719   0.438 -1.6539  5.1759  1.5729
   48MOL0     H 6428   7.642   7.790   0.553 -0.9908  0.7134 -1.0595
   48MOL0     H 6429   7.490   7.609   0.543  0.3223 -1.9947  0.4101
   48MOL0     H 6430   7.535   7.666   0.376  2.4377 -0.5676 -1.1338
   48MOL0     H 6431   7.699   7.539   0.242  3.0361 -0.5153  0.4641
   48MOL0     H 6432   7.669   7.179   0.137  0.2246 -0.9683 -0.4821
   48MOL0     H 6433   7.760   7.330   0.086 -0.2876 -1.2121 -0.6099
   48MOL0     H 6434   7.939   7.278   0.225  2.0052 -1.8921 -1.1903
   48MOL0     H 6435   7.845   7.152   0.314 -0.5689  0.3649  0.4641
   48MOL0     H 6436   7.922   7.170   0.018  1.0344 -1.3645 -0.8914
   48MOL0     H 6437   7.839   7.033   0.083  2.3195 -0.8136 -1.2094
   48MOL0     H 6438   8.104   7.130   0.219 -0.6257 -1.4229  0.3533
   48MOL0     H 6439   8.114   7.033   0.071  0.5557  0.4902 -1.9459
   48MOL0     H 6440   8.286   6.974   0.252  1.3674  0.3601  0.4889
   48MOL0     H 6441   8.430   6.884   0.423 -0.0859 -0.9408 -0.1923
   48MOL0     H 6442   8.672   6.948   0.679  0.2357 -0.5189  0.1472
   48MOL0     H 6443   8.872   6.925   0.810 -0.9928  1.4655 -1.4609
   48MOL0     H 6444   8.871   6.774   1.161  4.1032  1.7420 -1.6755
   48MOL0     H 6445   8.816   6.606   1.114 -1.2319  0.6119 -3.6544
   48MOL0     H 6446   9.002   6.615   1.274 -3.0846  1.7879 -0.0445
   48MOL0     H 6447   9.054   6.546   1.112 -1.5155  0.4948 -2.0644
   48MOL0     H 6448   9.177   6.721   1.048 -1.2000 -4.7504  0.2039
   48MOL0     H 6449   9.119   6.832   1.189 -0.6542 -0.1928  0.3538
   48MOL0     H 6450   9.288   6.584   1.210 -1.6153 -1.4670  3.1938
   48MOL0     H 6451   9.209   6.664   1.343 -0.3086 -0.3919  0.2752
   48MOL0     H 6452   9.438   6.718   1.336 -0.8681 -0.2954  0.3229
   48MOL0     H 6453   9.351   6.864   1.331  1.1801 -1.4654  3.8658
   48MOL0     H 6454   9.460   6.719   1.074  3.5603  0.0453 -0.2643
   48MOL0     H 6455   9.352   6.871   1.079  1.8150  0.4250 -1.2604
   48MOL0     H 6456   9.637   6.830   1.184 -2.4563 -2.4001  1.9984
   48MOL0     H 6457   9.520   6.971   1.210 -3.2566 -1.0902 -0.3105
   48MOL0     H 6458   9.713   7.002   1.037  1.3561 -3.4794  1.1482
   48MOL0     H 6459   9.639   6.886   0.944  0.2896 -2.2601  1.5855
   48MOL0     H 6460   8.698   6.544   0.949 -5.6938 -1.0482 -1.9266
   48MOL0     H 6461   8.525   6.561   0.791  0.6810 -0.0094 -0.9302
   48MOL0     H 6462   8.091   6.659   0.563  2.9830 -2.2453 -1.0969
   48MOL0     H 6463   7.950   6.745   0.401 -2.2527  1.9842  1.3514
   48MOL0     H 6464   8.264   7.819   1.348 -0.7823 -0.2899 -0.6516
   48MOL0     H 6465   8.475   7.673   1.440  0.1836  0.2106 -0.3586
   48MOL0     H 6466   8.566   7.146   1.315  0.1589 -0.2740 -1.6035
   48MOL0     H 6467   8.721   6.968   1.386 -0.8655  0.0019 -0.2503
   48MOL0     H 6468   9.117   7.050   1.601 -0.7788  1.7415 -0.2609
   48MOL0     H 6469   9.139   7.050   1.439 -1.1929  3.4363  1.9877
   48MOL0     H 6470   9.234   6.828   1.527  0.4619 -1.7552  0.2571
   48MOL0     H 6471   9.076   6.785   1.466  2.2096  1.9734 -3.2112
   48MOL0     H 6472   8.978   6.824   1.712  0.8030  0.4384  2.0763
   48MOL0     H 6473   9.131   6.867   1.758 -2.1106  0.9161  0.5246
   48MOL0     H 6474   9.074   6.627   1.817 -1.7801 -0.6510 -1.1988
   48MOL0     H 6475   9.062   6.591   1.647 -0.6002  0.5396 -1.7877
   48MOL0     H 6476   9.477   6.609   1.721 -0.8689 -2.4100  2.4852
   48MOL0     H 6477   8.999   7.247   1.520 -1.0246  1.4822  3.3444
   48MOL0     H 6478   8.886   7.493   1.312  0.8881  0.1675  0.3232
   48MOL0     H 6479   8.806   7.545   1.464  0.5381 -0.5121  1.2350
   48MOL0     H 6480   8.966   7.482   1.468  0.5481 -1.9569 -0.6260
   49MOL0     O 6481   3.536   1.537   5.350  0.4314 -0.2473 -0.3756
   49MOL0     C 6482   3.542   1.506   5.229 -0.6268  0.4494  0.1817
   49MOL0     O 6483   3.566   1.590   5.119  0.7973 -0.2821 -0.0779
   49MOL0     C 6484   3.509   1.716   5.138 -0.9954 -0.3359  1.1857
   49MOL0     C 6485   3.564   1.814   5.219 -0.1133  0.2772 -0.2950
   49MOL0     C 6486   3.511   1.943   5.232  0.3064 -0.2493  0.6946
   49MOL0     C 6487   3.393   1.978   5.152 -0.7313 -0.4866 -0.2786
   49MOL0     O 6488   3.331   2.099   5.151 -0.0533  0.1780 -0.3362
   49MOL0     C 6489   3.385   2.200   5.233  0.0624  0.7441  0.3506
   49MOL0     C 6490   3.284   2.317   5.237  0.3416  0.2268 -0.1859
   49MOL0     C 6491   3.160   2.295   5.327  0.6379  0.2334  0.6025
   49MOL0     C 6492   3.085   2.430   5.337  1.0381  0.6635  0.2551
   49MOL0     C 6493   2.965   2.417   5.425 -0.0315 -0.7273  0.2159
   49MOL0     C 6494   2.852   2.366   5.335 -0.4799  0.0568 -0.0946
   49MOL0     C 6495   2.728   2.304   5.404 -0.4054  0.0538  0.4162
   49MOL0     C 6496   2.620   2.268   5.306  0.2027 -1.0851  0.1157
   49MOL0     N 6497   2.501   2.215   5.366  0.2624  0.8799  0.8154
   49MOL0     C 6498   2.421   2.293   5.451 -0.0297 -0.6006  0.1908
   49MOL0     C 6499   2.333   2.206   5.497 -0.3801  0.0647 -0.9646
   49MOL0     C 6500   2.224   2.231   5.587  0.0648  1.0226 -0.6466
   49MOL0     C 6501   2.219   2.369   5.647 -0.4782 -0.0869  0.3863
   49MOL0     C 6502   2.152   2.477   5.576  0.9445 -0.2048 -0.2388
   49MOL0     C 6503   1.996   2.450   5.538 -0.4021 -0.1402  0.1919
   49MOL0     O 6504   1.963   2.539   5.430 -0.2544 -0.4294  0.0419
   49MOL0     C 6505   1.871   2.634   5.465 -0.4571 -0.7252 -0.2227
   49MOL0     C 6506   1.917   2.759   5.514 -0.3286 -0.5881 -1.0619
   49MOL0     C 6507   1.819   2.866   5.518 -0.1751  0.1960 -0.3649
   49MOL0     C 6508   1.680   2.841   5.501  0.1811 -0.2035  0.3091
   49MOL0     C 6509   1.573   2.940   5.530  0.1469  0.4895  0.8381
   49MOL0     O 6510   1.449   2.879   5.519  0.4252 -0.5192  0.1795
   49MOL0     C 6511   1.339   2.947   5.570  0.4787  0.2679 -0.1609
   49MOL0     C 6512   1.324   3.046   5.668 -0.3645 -0.3532 -0.1326
   49MOL0     C 6513   1.204   3.093   5.718  0.7080 -0.6492 -0.2111
   49MOL0     C 6514   1.085   3.074   5.655 -0.5583 -0.7028  0.1246
   49MOL0     O 6515   0.973   3.125   5.713  0.5296  0.0623 -1.1177
   49MOL0     C 6516   0.845   3.058   5.711 -0.1367  0.2393  0.1458
   49MOL0     C 6517   0.756   3.139   5.602  0.1553  0.5201  0.3016
   49MOL0     C 6518   0.739   3.290   5.639  0.2502 -0.4847  0.8597
   49MOL0     C 6519   0.600   3.342   5.687  0.6133 -0.0286  0.2284
   49MOL0     C 6520   0.598   3.494   5.700  0.2732 -0.2107 -0.4476
   49MOL0     C 6521   0.454   3.537   5.737 -0.2973 -0.3746  0.0944
   49MOL0     C 6522   0.418   3.507   5.886  0.1449 -0.5073 -0.5481
   49MOL0     C 6523   0.319   3.605   5.959  0.1744  0.4211  0.5800
   49MOL0    Cl 6524   0.166   3.559   5.892 -0.0350 -0.1508  0.1938
   49MOL0     C 6525   1.088   2.992   5.539  0.0517  0.1335 -0.3738
   49MOL0     C 6526   1.215   2.929   5.503  0.4750  0.4756  0.6321
   49MOL0     O 6527   1.605   3.043   5.582  0.3475  0.2105  0.8334
   49MOL0     C 6528   1.643   2.707   5.464  1.2138 -0.6727  0.0820
   49MOL0     C 6529   1.738   2.613   5.438  0.9239 -1.5830  0.9671
   49MOL0     N 6530   2.358   2.085   5.436 -0.3523  1.0657  0.1729
   49MOL0     N 6531   2.460   2.089   5.354 -0.4952  0.4753  0.4574
   49MOL0     C 6532   3.351   1.881   5.054 -0.4166 -0.0451  0.5625
   49MOL0     C 6533   3.403   1.753   5.054  0.7792  0.8869 -0.1297
   49MOL0     C 6534   3.540   1.358   5.193 -1.2060 -0.4004  0.3015
   49MOL0     C 6535   3.591   1.320   5.070  0.0515 -0.3054 -0.6492
   49MOL0     C 6536   3.615   1.188   5.043 -0.4202  0.1288  0.2616
   49MOL0     C 6537   3.587   1.085   5.136  0.6352  0.3881 -0.2277
   49MOL0     O 6538   3.635   0.964   5.126 -0.5151  0.0604  0.8191
   49MOL0     C 6539   3.600   0.858   5.225  0.1689 -0.7541  0.4473
   49MOL0     C 6540   3.680   0.738   5.176 -0.7290 -0.8679  0.1882
   49MOL0     C 6541   3.619   0.669   5.060  0.9065  0.9584  1.0114
   49MOL0     C 6542   3.711   0.560   5.002  0.1519 -0.7956  0.5158
   49MOL0     C 6543   3.639   0.456   4.933 -0.0929 -0.5087 -0.7476
   49MOL0     C 6544   3.563   0.371   4.884  0.0084  0.7921 -0.0192
   49MOL0     C 6545   3.527   1.123   5.259 -0.0856 -0.1448 -0.4362
   49MOL0     C 6546   3.506   1.254   5.286  0.0558  0.2360 -0.6793
   49MOL0     C 6547   3.431   1.284   5.412 -0.4174  0.2357 -0.9200
   49MOL0     H 6548   3.661   1.802   5.265  0.1613  0.5876 -0.7853
   49MOL0     H 6549   3.564   2.011   5.299 -1.3454  0.9784  0.8002
   49MOL0     H 6550   3.395   2.156   5.333 -1.6347 -0.3396  0.0963
   49MOL0     H 6551   3.485   2.232   5.203 -0.5295  1.8859 -0.4732
   49MOL0     H 6552   3.256   2.343   5.135 -0.5359  1.6668  0.3825
   49MOL0     H 6553   3.328   2.405   5.286 -0.9473  0.2576  0.9946
   49MOL0     H 6554   3.207   2.277   5.424  3.1156  1.6027 -0.2299
   49MOL0     H 6555   3.090   2.221   5.288 -0.7009  1.1216  1.2462
   49MOL0     H 6556   3.153   2.497   5.391  0.1417  2.3946 -0.6759
   49MOL0     H 6557   3.060   2.466   5.237 -1.2254 -2.8447 -0.6071
   49MOL0     H 6558   2.983   2.353   5.512  0.4876  0.7100  1.2148
   49MOL0     H 6559   2.931   2.518   5.453 -0.3052  0.4961 -3.8759
   49MOL0     H 6560   2.824   2.458   5.283  0.2383  2.6689  3.6880
   49MOL0     H 6561   2.886   2.309   5.248  1.0856  2.0541 -0.8727
   49MOL0     H 6562   2.694   2.375   5.480  0.1394  2.7302 -1.6716
   49MOL0     H 6563   2.752   2.208   5.450 -0.5258 -0.8260 -1.3022
   49MOL0     H 6564   2.584   2.349   5.242 -1.6294 -1.4810  0.5853
   49MOL0     H 6565   2.646   2.190   5.234  1.8636 -1.1951  0.7862
   49MOL0     H 6566   2.440   2.399   5.461 -1.9766 -0.0904 -1.0512
   49MOL0     H 6567   2.129   2.211   5.537 -0.1446  3.5381 -1.4013
   49MOL0     H 6568   2.246   2.159   5.665  2.4319  2.3483  0.0001
   49MOL0     H 6569   2.164   2.368   5.741 -0.0584  0.7086  0.6483
   49MOL0     H 6570   2.313   2.404   5.690 -1.9022 -0.0646  3.7921
   49MOL0     H 6571   2.205   2.495   5.482 -0.4271  2.8373 -0.5459
   49MOL0     H 6572   2.143   2.573   5.627 -0.8748  0.6137 -1.9509
   49MOL0     H 6573   1.940   2.464   5.631 -2.1899 -2.0039 -0.5175
   49MOL0     H 6574   1.962   2.351   5.505 -0.1014 -0.9999  2.3334
   49MOL0     H 6575   2.025   2.769   5.517 -0.3007 -1.1481  0.1856
   49MOL0     H 6576   1.851   2.966   5.544  1.0923  0.0501 -1.2480
   49MOL0     H 6577   1.409   3.074   5.729 -1.0383 -0.2057  0.7743
   49MOL0     H 6578   1.199   3.163   5.802 -0.1449  0.8864 -1.4882
   49MOL0     H 6579   0.859   2.950   5.705  0.6869  0.2052  1.9747
   49MOL0     H 6580   0.801   3.072   5.810 -1.8784 -1.4010 -0.3302
   49MOL0     H 6581   0.795   3.127   5.501 -1.3802 -1.0904 -0.1421
   49MOL0     H 6582   0.656   3.097   5.600 -1.2137  3.2639  3.0538
   49MOL0     H 6583   0.817   3.320   5.709  0.7953  1.6265 -0.5635
   49MOL0     H 6584   0.767   3.341   5.546 -1.2858  1.7553  1.5284
   49MOL0     H 6585   0.576   3.296   5.783 -0.8494 -1.1079 -0.6057
   49MOL0     H 6586   0.516   3.314   5.622  0.3280 -2.4133  1.5056
   49MOL0     H 6587   0.614   3.540   5.602  1.2716  0.6605  0.1034
   49MOL0     H 6588   0.670   3.526   5.776  1.5323 -1.9100 -0.8735
   49MOL0     H 6589   0.440   3.642   5.711 -0.0839 -0.0515  1.2394
   49MOL0     H 6590   0.383   3.488   5.670  0.1002  0.7152 -1.1663
   49MOL0     H 6591   0.515   3.524   5.933  0.9440 -0.4245 -2.1859
   49MOL0     H 6592   0.386   3.404   5.902 -1.4380  0.3358  2.8579
   49MOL0     H 6593   0.321   3.603   6.068 -0.9918  1.0906  0.6270
   49MOL0     H 6594   0.337   3.704   5.915  0.7789  0.4698  0.9232
   49MOL0     H 6595   0.999   2.969   5.481 -0.4237  0.4064  0.2480
   49MOL0     H 6596   1.210   2.850   5.429 -3.3688 -0.5288  1.7451
   49MOL0     H 6597   1.539   2.679   5.451  0.2555  1.4374  2.4560
   49MOL0     H 6598   1.704   2.514   5.409  2.3909 -1.6480 -0.6649
   49MOL0     H 6599   3.273   1.922   4.991  0.5623 -2.2745 -2.3030
   49MOL0     H 6600   3.377   1.676   4.982  1.7853  1.7124 -1.4235
   49MOL0     H 6601   3.623   1.390   4.994 -2.4588 -0.4426 -1.9505
   49MOL0     H 6602   3.667   1.156   4.954 -0.0002 -1.5135  1.0642
   49MOL0     H 6603   3.494   0.833   5.232  0.3278 -1.1306  1.7844
   49MOL0     H 6604   3.639   0.888   5.323  3.2817  0.0954 -0.9372
   49MOL0     H 6605   3.703   0.674   5.261  2.2795  1.5449  1.3857
   49MOL0     H 6606   3.777   0.778   5.143 -1.1265 -0.4515 -0.5050
   49MOL0     H 6607   3.582   0.727   4.975 -0.5663 -1.8003 -0.3610
   49MOL0     H 6608   3.530   0.613   5.090  0.9934 -0.9258 -1.7756
   49MOL0     H 6609   3.780   0.616   4.938 -1.3381 -0.0396 -0.4885
   49MOL0     H 6610   3.762   0.516   5.089 -3.3571 -2.2980  2.0003
   49MOL0     H 6611   3.479   0.319   4.845  0.2661 -0.1696  0.6645
   49MOL0     H 6612   3.514   1.055   5.342 -1.2522  2.0647  1.2951
   49MOL0     H 6613   3.412   1.197   5.476  0.1790  1.4221  0.9598
   49MOL0     H 6614   3.481   1.363   5.468  2.8528  0.5199 -3.8591
   49MOL0     H 6615   3.334   1.328   5.385  0.0914  1.7417 -0.3836
   50MOL0     O 6616   5.134   6.501  10.019  0.1007  0.4697 -0.3890
   50MOL0     C 6617   5.241   6.447  10.008  0.0048 -0.1645  0.2453
   50MOL0     O 6618   5.294   6.415   9.882 -0.3690  0.5985  1.0239
   50MOL0     C 6619   5.427   6.418   9.877 -0.7319 -0.2216  0.3424
   50MOL0     C 6620   5.484   6.541   9.858  0.8468  0.1813 -0.5316
   50MOL0     C 6621   5.618   6.555   9.846 -0.2894  0.2352 -0.2169
   50MOL0     C 6622   5.713   6.453   9.865  0.7632  0.3236 -0.5497
   50MOL0     O 6623   5.853   6.475   9.866  0.3829  0.6090 -0.6073
   50MOL0     C 6624   5.948   6.379   9.827  0.4349 -0.2600 -0.2160
   50MOL0     C 6625   6.069   6.453   9.780 -0.3313  0.9508  0.2877
   50MOL0     C 6626   6.155   6.500   9.893 -0.4396  0.6969 -0.0408
   50MOL0     C 6627   6.097   6.603   9.995 -0.6538  0.3062  0.6001
   50MOL0     C 6628   6.204   6.638  10.102 -0.5007 -0.2245  0.4876
   50MOL0     C 6629   6.140   6.737  10.208  0.5320 -0.5349 -0.1147
   50MOL0     C 6630   6.244   6.825  10.270 -0.7954 -0.2954 -0.5853
   50MOL0     C 6631   6.290   6.932  10.173  0.0561  0.5917 -0.8029
   50MOL0     N 6632   6.425   6.974  10.211 -0.3648 -0.8023 -0.0210
   50MOL0     C 6633   6.458   7.033  10.336 -0.6117  0.0924  1.1001
   50MOL0     C 6634   6.591   7.020  10.346  0.3238  0.9416  0.6083
   50MOL0     C 6635   6.669   7.045  10.477  0.6916 -0.4494 -0.4058
   50MOL0     C 6636   6.659   7.201  10.499 -0.1815  0.6195  0.1839
   50MOL0     C 6637   6.744   7.277  10.395  0.8349  0.2589 -1.3778
   50MOL0     C 6638   6.658   7.376  10.312  1.5876 -1.4671  0.4501
   50MOL0     O 6639   6.721   7.500  10.296 -0.9217 -0.1179 -0.1618
   50MOL0     C 6640   6.760   7.582  10.403 -0.9937  0.2104  0.6844
   50MOL0     C 6641   6.710   7.571  10.533  0.6140  0.1570 -0.2526
   50MOL0     C 6642   6.753   7.653  10.636 -0.5534  0.8514  0.5713
   50MOL0     C 6643   6.845   7.758  10.616  0.2561  0.4071  1.0726
   50MOL0     C 6644   6.886   7.849  10.727  0.1073  0.1856 -0.5449
   50MOL0     O 6645   7.012   7.907  10.706  0.3080  0.3802  0.2786
   50MOL0     C 6646   7.049   8.006  10.791 -0.0186 -0.1565  0.0296
   50MOL0     C 6647   7.044   8.006  10.932 -0.9490  0.5242  0.5164
   50MOL0     C 6648   7.077   8.126  11.006 -0.2947 -0.5378  0.1006
   50MOL0     C 6649   7.105   8.242  10.940  0.3134  0.6258 -0.2735
   50MOL0     O 6650   7.128   8.359  11.010 -0.0609 -0.3491  0.4284
   50MOL0     C 6651   7.026   8.471  11.021  0.1906  0.1570  0.9298
   50MOL0     C 6652   7.020   8.570  10.904  0.6683 -0.2098  0.9010
   50MOL0     C 6653   7.143   8.659  10.913 -0.2236  0.2939  0.6762
   50MOL0     C 6654   7.166   8.741  10.785 -0.0362  0.2228  0.6158
   50MOL0     C 6655   7.289   8.837  10.771  0.2563  0.5591  0.3547
   50MOL0     C 6656   7.297   8.920  10.896  0.7503  0.2093 -0.5260
   50MOL0     C 6657   7.417   9.013  10.899 -0.0213 -0.4445 -0.3437
   50MOL0     C 6658   7.415   9.118  11.009 -1.0650 -0.3567  0.9697
   50MOL0    Cl 6659   7.538   9.234  10.972 -0.2839 -0.0415  0.0821
   50MOL0     C 6660   7.134   8.240  10.810 -0.6012 -0.0130 -0.1768
   50MOL0     C 6661   7.118   8.119  10.735  0.3203 -1.4677 -0.4519
   50MOL0     O 6662   6.825   7.844  10.835 -0.1848 -0.1631  0.9121
   50MOL0     C 6663   6.899   7.761  10.490 -0.7519  0.6245  0.6368
   50MOL0     C 6664   6.849   7.686  10.380  0.2156  0.2093 -0.1965
   50MOL0     N 6665   6.642   6.969  10.223 -1.1860  0.0281 -0.3575
   50MOL0     N 6666   6.547   6.941  10.148 -0.1667  0.9904  0.7351
   50MOL0     C 6667   5.658   6.323   9.878  0.4688  0.4771 -0.0395
   50MOL0     C 6668   5.519   6.303   9.864 -0.6083  1.1744 -0.1749
   50MOL0     C 6669   5.318   6.414  10.136 -0.0982 -1.1486 -0.4522
   50MOL0     C 6670   5.357   6.282  10.161 -0.0773 -0.7170  0.7168
   50MOL0     C 6671   5.439   6.241  10.268 -0.1787 -0.1667 -0.6662
   50MOL0     C 6672   5.452   6.329  10.375  0.2278  0.0860 -0.0147
   50MOL0     O 6673   5.533   6.307  10.478 -0.4678 -0.2292 -0.7596
   50MOL0     C 6674   5.501   6.205  10.573  0.3297 -0.2669 -1.2144
   50MOL0     C 6675   5.446   6.251  10.714 -0.7163  0.2997  0.7081
   50MOL0     C 6676   5.387   6.123  10.785 -0.6564 -0.3180 -0.2970
   50MOL0     C 6677   5.479   6.009  10.814 -0.1382 -0.2707  0.2945
   50MOL0     C 6678   5.606   6.062  10.870 -0.0489  0.3460 -0.8481
   50MOL0     C 6679   5.708   6.112  10.926  0.3722 -0.0221 -0.4768
   50MOL0     C 6680   5.404   6.464  10.366  0.6583  0.0966  0.1301
   50MOL0     C 6681   5.333   6.504  10.248 -0.2253 -0.3170  0.7464
   50MOL0     C 6682   5.285   6.650  10.226 -0.5464 -0.8672  0.0594
   50MOL0     H 6683   5.417   6.626   9.862 -0.7839 -1.0505  2.5485
   50MOL0     H 6684   5.651   6.654   9.818 -1.6858  0.3672 -1.4996
   50MOL0     H 6685   5.961   6.309   9.910 -0.6622  1.0660  1.1322
   50MOL0     H 6686   5.914   6.324   9.739 -3.8236  0.5115  0.7170
   50MOL0     H 6687   6.045   6.525   9.701  0.9423 -0.6994 -1.7226
   50MOL0     H 6688   6.129   6.384   9.720  1.5656  1.4365  1.5296
   50MOL0     H 6689   6.239   6.542   9.837  1.0599  1.4027  2.5908
   50MOL0     H 6690   6.171   6.406   9.946 -0.5540  1.4699  1.4105
   50MOL0     H 6691   6.076   6.697   9.943 -1.9215  1.1864  2.5757
   50MOL0     H 6692   5.999   6.573  10.035 -1.9664 -2.3868 -3.9139
   50MOL0     H 6693   6.231   6.545  10.152  0.7774 -1.1338 -1.7582
   50MOL0     H 6694   6.291   6.675  10.045  0.0266 -1.4460  0.4755
   50MOL0     H 6695   6.059   6.794  10.161 -2.1051 -4.2572 -0.5420
   50MOL0     H 6696   6.085   6.680  10.284 -1.0246  1.9343  0.7390
   50MOL0     H 6697   6.327   6.759  10.297  0.5930  1.7519  0.4338
   50MOL0     H 6698   6.201   6.862  10.364 -0.4506 -2.0512  0.3067
   50MOL0     H 6699   6.306   6.885  10.075 -0.2273 -0.6473 -0.2829
   50MOL0     H 6700   6.214   7.010  10.176 -0.4671  0.0785  2.4010
   50MOL0     H 6701   6.385   7.068  10.409  0.5019  3.6153  0.7185
   50MOL0     H 6702   6.623   6.987  10.558 -1.3101 -1.1011 -1.9114
   50MOL0     H 6703   6.771   7.013  10.458  0.4591 -1.6064  0.2149
   50MOL0     H 6704   6.557   7.240  10.492  0.3601  1.8360 -1.2453
   50MOL0     H 6705   6.702   7.221  10.598  2.5404 -2.4615 -0.2204
   50MOL0     H 6706   6.815   7.215  10.338  2.3782 -1.1219  1.8121
   50MOL0     H 6707   6.815   7.335  10.456  0.4511 -1.3547  0.6821
   50MOL0     H 6708   6.555   7.389  10.346  1.2258 -1.0084 -0.7501
   50MOL0     H 6709   6.644   7.332  10.212 -0.6959 -2.0051  0.9387
   50MOL0     H 6710   6.632   7.499  10.554 -0.4272  0.8345 -1.6078
   50MOL0     H 6711   6.716   7.638  10.737 -0.7971  0.7551  0.4683
   50MOL0     H 6712   7.018   7.919  10.991  1.6936 -1.8597 -1.5435
   50MOL0     H 6713   7.075   8.144  11.113  1.0356 -0.2599  0.0983
   50MOL0     H 6714   6.925   8.431  11.036 -0.8663  2.5618  0.5943
   50MOL0     H 6715   7.038   8.524  11.115 -3.3066  3.6097 -0.3116
   50MOL0     H 6716   7.027   8.521  10.806  0.8437  2.1128 -0.3326
   50MOL0     H 6717   6.930   8.631  10.909 -1.3790 -3.0267  0.9554
   50MOL0     H 6718   7.128   8.729  10.996 -1.1796  0.8086  0.0864
   50MOL0     H 6719   7.232   8.598  10.932 -1.3986 -1.8250 -0.2636
   50MOL0     H 6720   7.075   8.790  10.748  1.1438  0.2689 -2.6106
   50MOL0     H 6721   7.184   8.668  10.706  2.4349  1.0218  0.3403
   50MOL0     H 6722   7.287   8.894  10.678 -0.2708  0.7810  0.4974
   50MOL0     H 6723   7.372   8.766  10.778  0.5142  0.2221 -3.6086
   50MOL0     H 6724   7.205   8.973  10.920  0.5082 -0.3897 -0.0898
   50MOL0     H 6725   7.314   8.851  10.980  0.5647  3.6158  2.5501
   50MOL0     H 6726   7.438   9.056  10.801 -0.9265 -0.1417 -0.4123
   50MOL0     H 6727   7.498   8.939  10.907 -0.6531 -1.1014  0.1389
   50MOL0     H 6728   7.323   9.178  11.016 -0.7021  0.0195  4.4378
   50MOL0     H 6729   7.431   9.074  11.108 -2.1752  1.5797  2.0782
   50MOL0     H 6730   7.170   8.332  10.765  1.3705 -0.5562  0.1832
   50MOL0     H 6731   7.159   8.113  10.635  2.5748  0.3307  0.2753
   50MOL0     H 6732   6.972   7.840  10.478 -1.8547  1.5366 -0.2696
   50MOL0     H 6733   6.888   7.701  10.280  0.0211  0.8346 -0.1840
   50MOL0     H 6734   5.717   6.232   9.881 -5.3422 -3.9407  3.0921
   50MOL0     H 6735   5.467   6.209   9.852  1.3506 -0.1359  1.1201
   50MOL0     H 6736   5.329   6.210  10.085 -2.3038 -0.4465  1.2135
   50MOL0     H 6737   5.500   6.152  10.277 -2.4101 -2.0631 -2.9737
   50MOL0     H 6738   5.595   6.164  10.613  0.2445  1.1791  0.6372
   50MOL0     H 6739   5.429   6.143  10.521  1.7539 -0.6403 -2.8281
   50MOL0     H 6740   5.364   6.320  10.695 -0.7391  0.1587  0.2785
   50MOL0     H 6741   5.515   6.303  10.781  1.3002 -2.6467  1.1256
   50MOL0     H 6742   5.310   6.092  10.714  1.0313 -1.0295 -1.9139
   50MOL0     H 6743   5.331   6.152  10.874 -3.1696  1.5033 -2.3245
   50MOL0     H 6744   5.421   5.934  10.868 -0.1838 -0.9313 -0.6390
   50MOL0     H 6745   5.501   5.964  10.716  3.3526 -2.3505  1.8179
   50MOL0     H 6746   5.793   6.155  10.974 -1.1167  1.9975  0.5067
   50MOL0     H 6747   5.419   6.539  10.442  3.6076  0.1183 -0.3528
   50MOL0     H 6748   5.340   6.716  10.158 -2.0800 -0.0436 -0.4293
   50MOL0     H 6749   5.178   6.656  10.208 -0.5773 -2.1459 -0.2671
   50MOL0     H 6750   5.295   6.686  10.329 -0.8356 -1.9068  0.4630
   51MOL0     O 6751   4.336   5.780   9.348  0.1933  0.0163  0.0278
   51MOL0     C 6752   4.433   5.820   9.418  0.1025 -1.0603  0.4384
   51MOL0     O 6753   4.420   5.899   9.539 -0.0826  0.2126  0.5297
   51MOL0     C 6754   4.299   5.885   9.598 -0.2167 -1.5481 -0.6786
   51MOL0     C 6755   4.203   5.978   9.576  0.8834  0.3102 -0.0334
   51MOL0     C 6756   4.067   5.949   9.615 -0.2638 -0.0287 -0.3538
   51MOL0     C 6757   4.040   5.838   9.704  0.6049 -0.0885 -0.0617
   51MOL0     O 6758   3.921   5.827   9.763 -0.0682  0.4869 -0.4621
   51MOL0     C 6759   3.806   5.869   9.691  0.7541 -0.5319 -0.4803
   51MOL0     C 6760   3.692   5.786   9.754  0.8382  0.4013 -0.5584
   51MOL0     C 6761   3.644   5.829   9.896 -0.4314  0.4198  0.0564
   51MOL0     C 6762   3.731   5.776  10.009 -0.2939 -0.7232 -0.3918
   51MOL0     C 6763   3.736   5.627  10.033  0.3917 -0.5326 -0.0305
   51MOL0     C 6764   3.605   5.580  10.087  0.0827 -0.1883 -0.0644
   51MOL0     C 6765   3.605   5.429  10.122  0.0328 -0.7329  0.7922
   51MOL0     C 6766   3.480   5.373  10.176  0.4936 -0.8793  0.6454
   51MOL0     N 6767   3.488   5.226  10.188  0.2637  0.1055  0.6912
   51MOL0     C 6768   3.418   5.131  10.116  0.6823 -0.2925 -0.7768
   51MOL0     C 6769   3.446   5.009  10.175 -0.4629  0.3249 -0.3840
   51MOL0     C 6770   3.400   4.873  10.123 -0.6070 -1.1450 -0.3353
   51MOL0     C 6771   3.319   4.861   9.993  0.2089  0.1928 -0.7778
   51MOL0     C 6772   3.404   4.891   9.870  0.1328 -0.4353  0.1415
   51MOL0     C 6773   3.306   4.929   9.763 -1.0508 -0.0040  0.0667
   51MOL0     O 6774   3.380   4.995   9.656  0.1650 -0.6108 -0.6208
   51MOL0     C 6775   3.302   5.049   9.547 -0.7714  0.6854 -0.3710
   51MOL0     C 6776   3.365   5.145   9.465  0.7072  0.0817  0.9419
   51MOL0     C 6777   3.287   5.220   9.378 -0.9710  0.1764 -0.3638
   51MOL0     C 6778   3.157   5.188   9.360  0.1618  0.0952  0.0184
   51MOL0     C 6779   3.074   5.254   9.251  0.1435  0.0333 -0.9247
   51MOL0     O 6780   2.955   5.202   9.222  0.3586 -0.0218  0.3874
   51MOL0     C 6781   2.920   5.215   9.089  0.6930  0.3586 -0.2283
   51MOL0     C 6782   3.012   5.213   8.980 -0.8513  0.7020 -0.1374
   51MOL0     C 6783   2.970   5.239   8.851 -0.7194 -0.2318 -0.8302
   51MOL0     C 6784   2.834   5.250   8.826 -0.2510 -1.0001 -0.2154
   51MOL0     O 6785   2.801   5.249   8.693 -0.3631  0.0635  0.6790
   51MOL0     C 6786   2.735   5.127   8.655 -0.2477 -0.5674 -0.4310
   51MOL0     C 6787   2.793   5.071   8.531 -0.4560  0.5184  0.6490
   51MOL0     C 6788   2.950   5.058   8.538  0.5955  0.1346  0.1931
   51MOL0     C 6789   2.998   5.028   8.392  0.5817 -0.1277 -0.2408
   51MOL0     C 6790   3.152   5.010   8.391  0.0686 -0.1232 -0.8180
   51MOL0     C 6791   3.214   4.891   8.460 -0.3773  0.4047 -0.2800
   51MOL0     C 6792   3.169   4.752   8.408  0.7646 -0.1533 -0.9450
   51MOL0     C 6793   3.273   4.650   8.447 -0.0914  0.0136  0.6881
   51MOL0    Cl 6794   3.263   4.631   8.622  0.1552  0.0976 -0.0402
   51MOL0     C 6795   2.733   5.258   8.927  0.3018 -0.3154 -0.3931
   51MOL0     C 6796   2.777   5.243   9.058 -1.1025  0.3265 -0.2824
   51MOL0     O 6797   3.114   5.363   9.208  0.3346 -0.3571 -1.2928
   51MOL0     C 6798   3.103   5.089   9.440  0.8393  0.1221  0.9853
   51MOL0     C 6799   3.175   5.016   9.522  0.6337 -0.8107  0.4000
   51MOL0     N 6800   3.530   5.024  10.283  0.2061  0.1432 -0.1693
   51MOL0     N 6801   3.554   5.159  10.280  0.8738  0.1550 -0.4726
   51MOL0     C 6802   4.146   5.756   9.738  0.5244 -0.3800 -0.3387
   51MOL0     C 6803   4.279   5.777   9.686  0.1249  0.4119 -0.7990
   51MOL0     C 6804   4.573   5.810   9.371 -0.0506  1.1989  0.2921
   51MOL0     C 6805   4.675   5.894   9.429  0.0210 -0.5941 -0.6828
   51MOL0     C 6806   4.803   5.900   9.381  0.3834  0.0837 -0.1291
   51MOL0     C 6807   4.842   5.819   9.272 -0.3482 -1.3636 -0.9132
   51MOL0     O 6808   4.959   5.809   9.212 -0.0007 -0.7917  0.8596
   51MOL0     C 6809   5.052   5.913   9.230 -0.1447 -0.2178 -0.2182
   51MOL0     C 6810   5.157   5.921   9.114 -0.5489  0.3906 -0.2735
   51MOL0     C 6811   5.237   5.795   9.116  0.1889 -0.0935  0.1224
   51MOL0     C 6812   5.377   5.827   9.064  0.3868  0.4725 -0.0442
   51MOL0     C 6813   5.375   5.898   8.934  0.1027 -0.1498  0.1619
   51MOL0     C 6814   5.365   5.955   8.819  0.2586 -0.4072  0.2492
   51MOL0     C 6815   4.755   5.725   9.224  0.0817 -0.1256  0.1073
   51MOL0     C 6816   4.620   5.720   9.267  0.0951  0.6599  0.0866
   51MOL0     C 6817   4.531   5.622   9.193 -0.4902 -0.2311 -0.0346
   51MOL0     H 6818   4.207   6.046   9.491 -0.5550 -1.8010 -1.9104
   51MOL0     H 6819   3.988   6.018   9.584  1.3935  2.0426 -0.2025
   51MOL0     H 6820   3.783   5.976   9.696 -0.7672 -0.8880  0.9108
   51MOL0     H 6821   3.807   5.844   9.584  0.5947 -0.8576 -0.4078
   51MOL0     H 6822   3.717   5.680   9.743  0.6848  0.2420  0.4458
   51MOL0     H 6823   3.604   5.796   9.691  1.1719 -0.0238 -1.0919
   51MOL0     H 6824   3.545   5.784   9.912  0.3615 -1.2644  0.4399
   51MOL0     H 6825   3.629   5.937   9.893 -1.1558  0.3800  1.3187
   51MOL0     H 6826   3.833   5.813   9.998 -0.5550  0.8360  1.7737
   51MOL0     H 6827   3.696   5.828  10.099  0.4497  0.7086 -0.9022
   51MOL0     H 6828   3.756   5.582   9.935 -6.4664 -1.9691 -1.2756
   51MOL0     H 6829   3.804   5.601  10.115  0.6597 -0.5468 -0.2558
   51MOL0     H 6830   3.581   5.638  10.177 -1.7089  2.1296 -1.9082
   51MOL0     H 6831   3.517   5.594  10.025 -1.3089 -1.0507  1.6169
   51MOL0     H 6832   3.680   5.423  10.202 -0.3067 -1.4373  1.0595
   51MOL0     H 6833   3.646   5.370  10.040 -0.2052 -2.5108  1.9024
   51MOL0     H 6834   3.471   5.416  10.276  0.4051 -0.7917  0.6004
   51MOL0     H 6835   3.405   5.407  10.104  0.0754 -0.1785  1.3848
   51MOL0     H 6836   3.349   5.148  10.034 -0.4920 -3.2871 -0.5223
   51MOL0     H 6837   3.487   4.807  10.111 -0.3282 -0.2349 -6.3665
   51MOL0     H 6838   3.345   4.841  10.211  0.4668  1.1460  1.2864
   51MOL0     H 6839   3.266   4.766   9.989  5.1997 -3.0473  0.9743
   51MOL0     H 6840   3.241   4.938   9.986  0.9323  1.1551  0.9556
   51MOL0     H 6841   3.458   4.799   9.849 -0.5705 -1.0804  1.0865
   51MOL0     H 6842   3.474   4.973   9.888 -0.9563  1.0816 -2.0150
   51MOL0     H 6843   3.230   5.004   9.791 -1.1916 -0.1295  0.0200
   51MOL0     H 6844   3.240   4.852   9.722 -0.6889  0.0371 -0.5898
   51MOL0     H 6845   3.470   5.169   9.472 -0.1232  5.5078 -0.5503
   51MOL0     H 6846   3.341   5.288   9.313  0.8059  0.8992  1.7322
   51MOL0     H 6847   3.117   5.197   8.999 -1.2090 -3.6744 -0.8085
   51MOL0     H 6848   3.040   5.256   8.770  0.6460  2.2291  0.7484
   51MOL0     H 6849   2.739   5.050   8.733  0.1421 -0.1718 -0.0566
   51MOL0     H 6850   2.634   5.161   8.631  0.6804  3.0628  0.3203
   51MOL0     H 6851   2.760   4.974   8.495 -0.8591  0.5434  0.9425
   51MOL0     H 6852   2.772   5.146   8.454  3.9173  1.7028  0.3472
   51MOL0     H 6853   3.005   5.146   8.570 -1.0563  0.8721  1.1724
   51MOL0     H 6854   2.969   4.967   8.597 -3.4542 -1.7666 -1.0513
   51MOL0     H 6855   2.978   5.114   8.327 -0.3316  0.7477  1.1631
   51MOL0     H 6856   2.953   4.945   8.337 -1.1014  0.4231  0.2639
   51MOL0     H 6857   3.192   5.098   8.443  1.4433 -1.5807  0.7100
   51MOL0     H 6858   3.190   5.011   8.288  4.1931  1.0352  0.5112
   51MOL0     H 6859   3.318   4.921   8.449 -0.8971  2.1829 -0.5517
   51MOL0     H 6860   3.186   4.902   8.565 -0.2481  0.9607 -0.3048
   51MOL0     H 6861   3.146   4.738   8.302  0.3591 -0.0784 -0.8684
   51MOL0     H 6862   3.077   4.722   8.458  0.1210  1.8345 -0.8779
   51MOL0     H 6863   3.243   4.553   8.405 -2.0163  0.9592 -0.2823
   51MOL0     H 6864   3.374   4.678   8.418 -0.6605  1.5917  0.1245
   51MOL0     H 6865   2.631   5.285   8.902  0.5754  1.0434 -0.1137
   51MOL0     H 6866   2.708   5.250   9.141 -1.8454 -2.4535 -0.5776
   51MOL0     H 6867   3.003   5.052   9.421  0.3579  1.1996  1.3852
   51MOL0     H 6868   3.116   4.948   9.582 -1.2793  1.8826  1.7366
   51MOL0     H 6869   4.127   5.671   9.803 -1.1013 -0.0780 -0.3609
   51MOL0     H 6870   4.358   5.708   9.716  0.5766  1.3129  0.1726
   51MOL0     H 6871   4.648   5.957   9.513 -1.1403 -0.3364 -1.2294
   51MOL0     H 6872   4.862   5.978   9.429 -1.8627  0.7429  1.7764
   51MOL0     H 6873   5.109   5.896   9.322  0.5336 -1.3678 -0.8200
   51MOL0     H 6874   5.001   6.009   9.236  1.4086  0.6079  0.0353
   51MOL0     H 6875   5.228   6.002   9.134 -0.8231  0.4869  0.3350
   51MOL0     H 6876   5.109   5.922   9.016 -2.5993 -0.6921  0.6531
   51MOL0     H 6877   5.200   5.705   9.065 -3.4391  0.8242  0.8963
   51MOL0     H 6878   5.243   5.749   9.215  0.8748 -1.5338 -0.5454
   51MOL0     H 6879   5.422   5.893   9.140 -3.5645  0.4980  2.5752
   51MOL0     H 6880   5.423   5.728   9.065 -1.2405 -0.3279  1.7000
   51MOL0     H 6881   5.335   6.009   8.732 -1.2464  0.2929  1.1482
   51MOL0     H 6882   4.781   5.657   9.143 -1.3191  0.4206 -0.8458
   51MOL0     H 6883   4.590   5.536   9.162 -1.0458 -0.7068  0.2046
   51MOL0     H 6884   4.449   5.582   9.255 -0.7676 -1.1056 -0.9416
   51MOL0     H 6885   4.482   5.659   9.102 -1.8939 -2.1831 -0.1433
   52MOL0     O 6886   6.146   0.506   4.595 -0.1269  0.4933  0.7301
   52MOL0     C 6887   6.075   0.609   4.608  0.4309  0.2159 -0.9097
   52MOL0     O 6888   6.115   0.733   4.589 -0.5035  0.2882  0.0848
   52MOL0     C 6889   6.251   0.757   4.595  0.0789  0.2449 -0.2197
   52MOL0     C 6890   6.313   0.836   4.497  0.4990  0.5722 -0.6159
   52MOL0     C 6891   6.453   0.867   4.486  0.4364 -0.3168 -0.2108
   52MOL0     C 6892   6.539   0.809   4.577 -0.2600 -0.0211 -0.6959
   52MOL0     O 6893   6.674   0.825   4.572 -0.5675  0.3720  0.2207
   52MOL0     C 6894   6.741   0.876   4.451 -0.2783 -0.6937  0.0422
   52MOL0     C 6895   6.891   0.845   4.468  1.0209 -0.5591 -0.2579
   52MOL0     C 6896   6.972   0.882   4.340  0.7709 -0.1115  0.1349
   52MOL0     C 6897   7.118   0.858   4.368 -0.3280 -0.3742 -0.6489
   52MOL0     C 6898   7.193   0.915   4.246 -0.2636  0.4829 -0.0755
   52MOL0     C 6899   7.306   0.814   4.203  0.2899 -0.0505  0.6074
   52MOL0     C 6900   7.380   0.875   4.081 -0.1298 -0.2936 -0.5490
   52MOL0     C 6901   7.488   0.981   4.116  0.6519 -0.2752  0.5681
   52MOL0     N 6902   7.531   1.050   3.997 -0.6116  0.1463  0.5578
   52MOL0     C 6903   7.609   0.983   3.908 -0.4515 -0.5205  0.8721
   52MOL0     C 6904   7.608   1.053   3.787 -0.3941 -0.0199 -0.1393
   52MOL0     C 6905   7.681   1.017   3.656 -0.1296  0.9861 -0.3468
   52MOL0     C 6906   7.789   1.112   3.613  0.6953  0.2993  0.3186
   52MOL0     C 6907   7.910   1.122   3.695 -0.2071 -0.8735 -1.0498
   52MOL0     C 6908   7.906   1.222   3.818 -0.5220  0.3916 -0.2530
   52MOL0     O 6909   7.858   1.350   3.769  0.0445 -0.7453 -0.4740
   52MOL0     C 6910   7.815   1.445   3.859 -0.1750 -0.2334  0.1247
   52MOL0     C 6911   7.914   1.509   3.938 -0.3121  0.2543  0.0963
   52MOL0     C 6912   7.888   1.611   4.033  0.1200 -0.7038 -0.1053
   52MOL0     C 6913   7.751   1.654   4.047  0.4472  0.4696  0.5505
   52MOL0     C 6914   7.715   1.756   4.151  0.7801  0.7940 -0.3806
   52MOL0     O 6915   7.808   1.846   4.193 -0.8762 -0.1715  0.0751
   52MOL0     C 6916   7.790   1.922   4.307  0.1570 -0.4889 -0.1169
   52MOL0     C 6917   7.835   2.056   4.308  0.1289  0.8206 -0.0805
   52MOL0     C 6918   7.829   2.132   4.423  0.5190 -0.2381  0.2831
   52MOL0     C 6919   7.803   2.076   4.548 -1.1222  0.2062 -0.4757
   52MOL0     O 6920   7.802   2.158   4.657  0.1346  0.1805 -0.2409
   52MOL0     C 6921   7.891   2.124   4.756 -1.4449  0.5159 -0.0531
   52MOL0     C 6922   7.963   2.252   4.782  1.2112 -0.3463  0.3891
   52MOL0     C 6923   8.074   2.241   4.892  0.4375  0.7901  0.2076
   52MOL0     C 6924   8.215   2.307   4.862 -0.2560  0.2162  0.2191
   52MOL0     C 6925   8.291   2.341   4.988  0.5909  0.1555 -0.0469
   52MOL0     C 6926   8.420   2.405   4.946 -0.4856 -0.2307  0.5714
   52MOL0     C 6927   8.522   2.305   4.880 -0.8323  0.2560 -0.5799
   52MOL0     C 6928   8.662   2.362   4.874 -0.4505  0.3081 -1.1181
   52MOL0    Cl 6929   8.660   2.534   4.828  0.3103  0.1971 -0.1014
   52MOL0     C 6930   7.770   1.938   4.553  0.6748  0.2563  0.2801
   52MOL0     C 6931   7.752   1.867   4.430  0.5012  0.4088 -0.0721
   52MOL0     O 6932   7.600   1.746   4.201  0.5261  0.5677 -0.1052
   52MOL0     C 6933   7.650   1.590   3.965 -0.6186 -1.3835 -0.1890
   52MOL0     C 6934   7.684   1.483   3.874 -0.0779  0.1473 -0.1132
   52MOL0     N 6935   7.510   1.150   3.793 -0.1451 -0.8138 -0.1957
   52MOL0     N 6936   7.459   1.142   3.919 -0.7504  0.2024 -0.1706
   52MOL0     C 6937   6.486   0.734   4.682  1.4083  0.1985  0.3397
   52MOL0     C 6938   6.343   0.706   4.695 -0.5643 -0.5911  0.3672
   52MOL0     C 6939   5.932   0.584   4.613 -0.0798  0.1704 -0.1575
   52MOL0     C 6940   5.856   0.681   4.541 -0.3596 -0.3974  0.5760
   52MOL0     C 6941   5.716   0.675   4.537  0.0451  0.1180  0.0319
   52MOL0     C 6942   5.644   0.584   4.624 -0.2487 -0.6342 -0.6343
   52MOL0     O 6943   5.509   0.599   4.643  0.0778  0.6252 -0.1852
   52MOL0     C 6944   5.433   0.517   4.558 -0.0998  0.0882 -0.7412
   52MOL0     C 6945   5.326   0.431   4.639  0.9959  0.9242 -0.0021
   52MOL0     C 6946   5.223   0.506   4.716  0.8142  0.2326  0.0257
   52MOL0     C 6947   5.109   0.578   4.645 -0.3459  0.3841 -0.3106
   52MOL0     C 6948   5.023   0.487   4.572  0.3591 -0.5396  1.4055
   52MOL0     C 6949   4.958   0.400   4.510 -0.5106 -0.1756 -0.0842
   52MOL0     C 6950   5.724   0.490   4.704 -0.2624  0.4359  0.4307
   52MOL0     C 6951   5.869   0.488   4.702  0.4398 -0.8833 -0.5415
   52MOL0     C 6952   5.936   0.390   4.780 -0.7354  0.4856  0.1362
   52MOL0     H 6953   6.243   0.877   4.425 -0.7025  1.0707  0.7743
   52MOL0     H 6954   6.496   0.937   4.415 -0.2340  0.5549  0.2227
   52MOL0     H 6955   6.698   0.822   4.366 -1.3300 -1.8751  1.2808
   52MOL0     H 6956   6.740   0.985   4.442  2.5652 -0.6337 -0.5926
   52MOL0     H 6957   6.901   0.739   4.496  3.0980 -0.8726 -1.9521
   52MOL0     H 6958   6.922   0.902   4.556 -2.1399  2.8325 -1.0701
   52MOL0     H 6959   6.957   0.990   4.328 -0.8305 -0.0685  1.9745
   52MOL0     H 6960   6.943   0.834   4.246 -0.4045  0.1029  0.3742
   52MOL0     H 6961   7.151   0.898   4.464 -0.4518 -0.2468 -0.6587
   52MOL0     H 6962   7.129   0.749   4.376 -2.3979 -0.4701  2.1978
   52MOL0     H 6963   7.118   0.951   4.175  0.4130  3.0865  0.4102
   52MOL0     H 6964   7.247   1.002   4.286 -3.0517  1.8665  0.9513
   52MOL0     H 6965   7.384   0.793   4.277 -0.2638  1.4418  1.6466
   52MOL0     H 6966   7.251   0.724   4.173 -1.1782  1.0521 -0.1284
   52MOL0     H 6967   7.306   0.927   4.019  1.4464  0.4946 -1.8294
   52MOL0     H 6968   7.425   0.804   4.011  2.9331  1.6416 -0.7146
   52MOL0     H 6969   7.442   1.043   4.194  0.2016 -3.4225  3.0425
   52MOL0     H 6970   7.570   0.921   4.160 -0.3990 -1.0653  1.5258
   52MOL0     H 6971   7.658   0.889   3.934 -1.1882 -1.4536 -0.8747
   52MOL0     H 6972   7.723   0.916   3.657 -0.9434  0.6288  1.0739
   52MOL0     H 6973   7.602   1.012   3.580 -1.7216  0.4703  1.2501
   52MOL0     H 6974   7.812   1.086   3.509 -0.0295 -0.7002  0.3875
   52MOL0     H 6975   7.759   1.217   3.605  2.8373  0.9869  0.8388
   52MOL0     H 6976   7.994   1.158   3.634 -0.4950 -1.0146 -1.5360
   52MOL0     H 6977   7.939   1.021   3.723  1.7384  0.4177  2.0363
   52MOL0     H 6978   8.004   1.237   3.864 -0.5501 -2.0441  0.7481
   52MOL0     H 6979   7.840   1.184   3.897 -0.9380  1.4876 -0.0501
   52MOL0     H 6980   8.008   1.456   3.928 -0.9292 -1.1223  1.2075
   52MOL0     H 6981   7.960   1.670   4.089 -1.8326  0.8116  0.9412
   52MOL0     H 6982   7.875   2.099   4.217 -0.0016  0.2678 -0.4029
   52MOL0     H 6983   7.861   2.235   4.411 -1.3229  0.1909 -1.5525
   52MOL0     H 6984   7.824   2.093   4.837  1.3194  0.8384  2.5082
   52MOL0     H 6985   7.963   2.045   4.735 -1.9669  0.1488 -0.4898
   52MOL0     H 6986   8.013   2.294   4.694 -1.1846 -0.1451 -0.9456
   52MOL0     H 6987   7.888   2.324   4.813  1.0008 -0.9626  1.3487
   52MOL0     H 6988   8.038   2.280   4.988 -0.1521 -2.0682  1.2436
   52MOL0     H 6989   8.087   2.133   4.896  2.0916  0.8091 -2.3348
   52MOL0     H 6990   8.207   2.396   4.799 -1.9512 -0.3361 -0.3926
   52MOL0     H 6991   8.273   2.234   4.805 -1.2234 -1.3549  1.1974
   52MOL0     H 6992   8.298   2.263   5.064 -0.2309 -0.1762 -0.2995
   52MOL0     H 6993   8.227   2.419   5.029 -1.5115 -2.4275  1.9397
   52MOL0     H 6994   8.399   2.493   4.883  1.0912  2.0453  3.0195
   52MOL0     H 6995   8.452   2.456   5.037 -1.9774 -1.3309  1.7611
   52MOL0     H 6996   8.499   2.291   4.774  1.3431 -1.7922 -0.8730
   52MOL0     H 6997   8.530   2.208   4.930  0.0837  0.3883 -0.4392
   52MOL0     H 6998   8.723   2.348   4.964  1.0944  1.0480 -2.0245
   52MOL0     H 6999   8.715   2.305   4.797 -1.2790 -4.8648  1.6770
   52MOL0     H 7000   7.737   1.884   4.642  0.1208 -3.2221 -1.8470
   52MOL0     H 7001   7.717   1.765   4.445  1.1216  0.4816  2.2230
   52MOL0     H 7002   7.547   1.624   3.965 -0.0706  0.4792 -1.8589
   52MOL0     H 7003   7.607   1.429   3.818 -1.4259  1.1213  0.7330
   52MOL0     H 7004   6.548   0.732   4.771 -1.4299  0.4928  2.4829
   52MOL0     H 7005   6.312   0.643   4.778 -0.1130 -2.0385 -0.5190
   52MOL0     H 7006   5.897   0.765   4.486 -0.7865 -0.1802  0.5842
   52MOL0     H 7007   5.661   0.730   4.461 -1.0249  1.3217  1.6000
   52MOL0     H 7008   5.491   0.448   4.496 -1.2039 -0.7233 -0.8861
   52MOL0     H 7009   5.385   0.587   4.489 -1.5252  2.8889  2.7383
   52MOL0     H 7010   5.371   0.356   4.705 -1.7672 -0.5489  0.3743
   52MOL0     H 7011   5.279   0.366   4.564  2.9537  0.3936 -0.8564
   52MOL0     H 7012   5.269   0.595   4.760  1.5846  0.5527 -1.3628
   52MOL0     H 7013   5.191   0.451   4.805 -3.7516 -1.8160 -2.5595
   52MOL0     H 7014   5.057   0.636   4.722 -0.1095 -1.0359  0.9750
   52MOL0     H 7015   5.142   0.650   4.570 -1.8999 -1.4123 -2.8733
   52MOL0     H 7016   4.902   0.328   4.453 -1.3968  0.0059  0.5335
   52MOL0     H 7017   5.673   0.421   4.770 -1.2615 -1.6847 -2.3480
   52MOL0     H 7018   5.881   0.358   4.869  1.1508 -5.1861 -0.3023
   52MOL0     H 7019   5.960   0.299   4.724  2.7174  0.7611  0.9789
   52MOL0     H 7020   6.032   0.429   4.815  0.5914  0.6190 -3.3047
   53MOL0     O 7021   7.308   0.586   5.844  0.7363  0.2651  0.5556
   53MOL0     C 7022   7.196   0.641   5.838  0.4383 -0.6500  1.0041
   53MOL0     O 7023   7.134   0.670   5.716  0.0704  1.3122 -0.3042
   53MOL0     C 7024   7.119   0.579   5.623 -0.2909  0.1894 -0.3089
   53MOL0     C 7025   7.155   0.439   5.624  1.3336  0.1244 -0.3904
   53MOL0     C 7026   7.153   0.355   5.516 -0.5238 -1.1178  0.4388
   53MOL0     C 7027   7.114   0.416   5.400  1.1123 -0.3997 -0.2835
   53MOL0     O 7028   7.097   0.350   5.284 -0.2838  0.4231  0.0326
   53MOL0     C 7029   7.125   0.202   5.268  0.4491  0.5804  0.3218
   53MOL0     C 7030   7.086   0.155   5.130  0.1163  0.0376  1.1725
   53MOL0     C 7031   7.108   0.007   5.103 -0.4499  0.2184 -0.4557
   53MOL0     C 7032   7.094  -0.032   4.952  0.1585  0.9664 -0.8656
   53MOL0     C 7033   7.074  -0.183   4.940  0.5535 -0.6395 -0.3514
   53MOL0     C 7034   7.010  -0.218   4.803  0.4515  0.2847  0.3032
   53MOL0     C 7035   7.006  -0.369   4.775 -0.0684  1.2043  0.0934
   53MOL0     C 7036   7.002  -0.413   4.629  0.2722 -0.0660 -0.4310
   53MOL0     N 7037   7.127  -0.468   4.585 -0.5766  0.1825 -0.1927
   53MOL0     C 7038   7.151  -0.606   4.592  0.3745  0.7332  0.1079
   53MOL0     C 7039   7.285  -0.617   4.586 -0.9491  0.5505 -0.0200
   53MOL0     C 7040   7.363  -0.742   4.596 -1.1103  0.6451 -0.4208
   53MOL0     C 7041   7.411  -0.766   4.740 -0.6161  0.1680 -0.0695
   53MOL0     C 7042   7.294  -0.805   4.833  0.1874  0.3992  0.4319
   53MOL0     C 7043   7.228  -0.686   4.912  0.1730 -0.9131  0.0443
   53MOL0     O 7044   7.325  -0.631   5.001  0.3921 -0.4323  0.3121
   53MOL0     C 7045   7.291  -0.523   5.066  0.4025  0.3345 -0.8537
   53MOL0     C 7046   7.182  -0.520   5.154  0.4604 -0.1673 -0.9513
   53MOL0     C 7047   7.172  -0.428   5.254 -0.1568 -0.3916 -0.9570
   53MOL0     C 7048   7.256  -0.312   5.252  0.4611 -0.7449  0.2366
   53MOL0     C 7049   7.243  -0.196   5.346 -0.3179  0.0317  0.3712
   53MOL0     O 7050   7.153  -0.214   5.443 -0.0795  0.1109 -0.2412
   53MOL0     C 7051   7.165  -0.129   5.563  0.3853  0.6335  0.0834
   53MOL0     C 7052   7.280  -0.128   5.639 -0.0038 -0.1244  1.3474
   53MOL0     C 7053   7.281  -0.038   5.754  0.3838 -0.4010 -0.5706
   53MOL0     C 7054   7.187   0.050   5.784  1.0686 -0.2600 -0.1679
   53MOL0     O 7055   7.217   0.134   5.887 -0.2766 -0.3089 -0.1234
   53MOL0     C 7056   7.109   0.159   5.982  0.7343  0.4345 -0.6561
   53MOL0     C 7057   7.168   0.226   6.096 -0.6115  0.0250 -0.6329
   53MOL0     C 7058   7.061   0.251   6.207  0.6546  0.3377  0.4674
   53MOL0     C 7059   7.124   0.309   6.334 -0.8752 -0.9594 -0.4547
   53MOL0     C 7060   7.017   0.365   6.430 -0.0824  0.1181 -0.3788
   53MOL0     C 7061   7.096   0.419   6.557  0.3251 -0.1906  0.8070
   53MOL0     C 7062   6.989   0.518   6.608 -1.4850  0.2927  0.2205
   53MOL0     C 7063   7.017   0.571   6.745  0.0007 -1.6177  0.5627
   53MOL0    Cl 7064   6.984   0.445   6.869  0.0312  0.3141 -0.0550
   53MOL0     C 7065   7.077   0.051   5.696  1.2476  0.9239  0.2921
   53MOL0     C 7066   7.056  -0.041   5.594 -0.3642  0.1174  1.2308
   53MOL0     O 7067   7.327  -0.106   5.345  0.1782  0.0253 -0.4456
   53MOL0     C 7068   7.351  -0.304   5.146 -0.3392  0.7375 -0.7315
   53MOL0     C 7069   7.380  -0.412   5.060  0.4463  0.9471  0.2783
   53MOL0     N 7070   7.338  -0.490   4.592  0.0565  0.3529  0.7358
   53MOL0     N 7071   7.249  -0.402   4.589  0.0701 -0.2806 -0.2126
   53MOL0     C 7072   7.066   0.548   5.389  0.2157  0.4604 -0.1428
   53MOL0     C 7073   7.079   0.629   5.502 -0.3494  0.0267 -0.2432
   53MOL0     C 7074   7.124   0.672   5.961 -0.8326  0.1452 -0.3765
   53MOL0     C 7075   6.990   0.713   5.945  0.0804 -0.4878  0.1504
   53MOL0     C 7076   6.922   0.749   6.052 -0.9577 -0.7727 -0.2309
   53MOL0     C 7077   6.972   0.743   6.190 -0.2278  0.4961 -0.2756
   53MOL0     O 7078   6.902   0.778   6.308 -0.3890  0.3090 -0.0695
   53MOL0     C 7079   6.775   0.856   6.303  0.3041 -0.1559  0.5541
   53MOL0     C 7080   6.651   0.765   6.281  0.7446  0.1554  0.3557
   53MOL0     C 7081   6.622   0.645   6.375 -1.1626 -0.3581  0.8987
   53MOL0     C 7082   6.577   0.677   6.519 -0.1962  0.0562  0.8606
   53MOL0     C 7083   6.534   0.550   6.576 -1.2850 -0.0094 -0.3422
   53MOL0     C 7084   6.514   0.433   6.621 -0.4136 -0.0574  0.5450
   53MOL0     C 7085   7.104   0.696   6.203  0.1343 -0.3142  0.2345
   53MOL0     C 7086   7.174   0.659   6.088  0.4244  0.7482  0.1575
   53MOL0     C 7087   7.329   0.633   6.117 -0.6730  0.2051 -0.7645
   53MOL0     H 7088   7.208   0.403   5.711 -0.3695  0.1805  0.7285
   53MOL0     H 7089   7.199   0.257   5.522 -0.7692 -1.1603  2.0422
   53MOL0     H 7090   7.229   0.173   5.289 -0.7522 -2.5544  2.7540
   53MOL0     H 7091   7.071   0.147   5.346  0.3311  0.6757  0.3062
   53MOL0     H 7092   7.159   0.200   5.062  3.2727  0.9287  4.8008
   53MOL0     H 7093   6.988   0.196   5.106 -0.3784 -0.4503  2.2612
   53MOL0     H 7094   7.039  -0.048   5.168  0.2413  1.5408  1.5009
   53MOL0     H 7095   7.205  -0.037   5.130 -0.4925  0.7980  0.7301
   53MOL0     H 7096   7.006   0.016   4.910  0.2167  0.7959 -1.1843
   53MOL0     H 7097   7.186  -0.004   4.900  0.9490 -0.4776 -0.3058
   53MOL0     H 7098   7.172  -0.232   4.947  1.2093  0.5932 -0.5261
   53MOL0     H 7099   7.007  -0.222   5.017 -3.8586  1.9354 -2.4986
   53MOL0     H 7100   6.908  -0.178   4.806  0.2070 -0.3501  2.3989
   53MOL0     H 7101   7.066  -0.166   4.725  1.3367  0.4493  1.0246
   53MOL0     H 7102   6.910  -0.410   4.804 -0.8271 -0.3059 -3.9135
   53MOL0     H 7103   7.087  -0.421   4.827  1.1899  0.0604 -2.7828
   53MOL0     H 7104   6.918  -0.482   4.613  0.6255 -0.6343  0.1560
   53MOL0     H 7105   6.966  -0.324   4.576 -0.8376  1.8135  3.1718
   53MOL0     H 7106   7.075  -0.683   4.582  1.4017 -0.1371 -1.3426
   53MOL0     H 7107   7.293  -0.821   4.568  0.2934 -1.0452  0.6284
   53MOL0     H 7108   7.450  -0.753   4.531  0.0648  0.9848  1.0405
   53MOL0     H 7109   7.480  -0.850   4.731  1.2026  1.0749  3.4592
   53MOL0     H 7110   7.468  -0.684   4.784 -2.1497  0.2040  2.0232
   53MOL0     H 7111   7.342  -0.867   4.909  0.7912 -0.4158 -0.5879
   53MOL0     H 7112   7.216  -0.868   4.789  0.1815  2.6789 -3.2604
   53MOL0     H 7113   7.139  -0.714   4.969 -4.1025  3.0736 -3.7774
   53MOL0     H 7114   7.192  -0.604   4.849 -3.1660 -1.9222  0.4400
   53MOL0     H 7115   7.104  -0.594   5.160  1.3884 -1.0858  4.0876
   53MOL0     H 7116   7.100  -0.448   5.333  1.2696 -0.9712  0.2443
   53MOL0     H 7117   7.362  -0.192   5.608  0.5752  1.7591 -1.2928
   53MOL0     H 7118   7.364  -0.042   5.823 -0.3472  0.0658  0.3667
   53MOL0     H 7119   7.022   0.214   5.946 -1.8136 -1.6647  1.8555
   53MOL0     H 7120   7.081   0.063   6.026  2.5582 -1.1123 -2.6714
   53MOL0     H 7121   7.247   0.159   6.131  0.5742  0.5092 -2.2261
   53MOL0     H 7122   7.225   0.315   6.066  0.6537 -0.5088  0.1051
   53MOL0     H 7123   6.987   0.318   6.162  0.2236  0.5251  1.4289
   53MOL0     H 7124   7.000   0.164   6.233 -1.5847  1.3197 -1.1210
   53MOL0     H 7125   7.175   0.399   6.299  1.6860 -2.0569  0.2212
   53MOL0     H 7126   7.186   0.235   6.384 -0.4770 -1.5794 -1.8173
   53MOL0     H 7127   6.948   0.284   6.455  2.4174 -1.3339  2.4793
   53MOL0     H 7128   6.969   0.454   6.387  0.8968  0.1228 -1.5335
   53MOL0     H 7129   7.131   0.345   6.630 -2.4592 -1.2947  1.1206
   53MOL0     H 7130   7.171   0.493   6.526 -2.4082  2.7015  0.6669
   53MOL0     H 7131   6.886   0.481   6.610 -1.1849 -0.5786 -0.0260
   53MOL0     H 7132   6.990   0.594   6.530 -1.1694 -0.9017 -0.9751
   53MOL0     H 7133   7.121   0.603   6.749 -0.5841  0.3518  1.4232
   53MOL0     H 7134   6.951   0.657   6.763 -2.0124 -2.6122 -1.5240
   53MOL0     H 7135   6.996   0.121   5.715 -0.5050 -1.0447  0.4228
   53MOL0     H 7136   6.963  -0.042   5.537  0.6053 -1.0791 -0.4104
   53MOL0     H 7137   7.410  -0.212   5.144  1.0205 -0.0387  0.8741
   53MOL0     H 7138   7.470  -0.417   4.999  1.2471 -4.0035  1.4361
   53MOL0     H 7139   7.012   0.592   5.306 -3.8006 -0.3140  1.8041
   53MOL0     H 7140   7.057   0.735   5.493  0.3971  0.3635  1.5358
   53MOL0     H 7141   6.947   0.743   5.850 -1.5397  2.1017  1.5776
   53MOL0     H 7142   6.822   0.787   6.034 -0.2085  1.9550  0.8139
   53MOL0     H 7143   6.778   0.931   6.224 -2.2394  0.3519  0.8486
   53MOL0     H 7144   6.767   0.906   6.401  1.0571 -2.0613  1.6498
   53MOL0     H 7145   6.658   0.725   6.179 -2.3516  0.6885 -0.1623
   53MOL0     H 7146   6.554   0.813   6.272 -1.3609 -2.8852  3.9586
   53MOL0     H 7147   6.704   0.573   6.379 -1.0556 -0.2257  1.1270
   53MOL0     H 7148   6.543   0.582   6.334 -0.4091 -2.4585  2.5310
   53MOL0     H 7149   6.653   0.727   6.579 -0.4146 -0.2746  1.4202
   53MOL0     H 7150   6.486   0.736   6.504 -0.2901 -0.6020 -1.4594
   53MOL0     H 7151   6.484   0.339   6.662 -1.7193  1.5115  3.4672
   53MOL0     H 7152   7.161   0.702   6.295  3.4608 -1.0529 -1.6288
   53MOL0     H 7153   7.359   0.668   6.216  1.5784  1.5271 -1.8225
   53MOL0     H 7154   7.354   0.527   6.115  0.0224  0.2842  1.3796
   53MOL0     H 7155   7.392   0.697   6.054 -1.0439 -0.6339 -2.0287
   54MOL0     O 7156   7.153   2.336   0.812  0.7089  1.0283  0.4192
   54MOL0     C 7157   7.274   2.307   0.809  0.3559  0.7474  0.0909
   54MOL0     O 7158   7.324   2.175   0.805 -0.3746 -0.1504 -0.3550
   54MOL0     C 7159   7.233   2.068   0.786  0.2765 -0.4452  0.0053
   54MOL0     C 7160   7.162   2.024   0.897  0.4782  0.0527 -0.7545
   54MOL0     C 7161   7.046   1.949   0.884  1.0378  0.2775  0.7607
   54MOL0     C 7162   7.003   1.895   0.762  0.1960 -0.3853 -0.2359
   54MOL0     O 7163   6.891   1.820   0.743  0.1073 -0.3655  0.2668
   54MOL0     C 7164   6.832   1.741   0.848 -0.0804 -0.3447  0.4045
   54MOL0     C 7165   6.758   1.631   0.760 -0.5151  0.5495  0.1252
   54MOL0     C 7166   6.655   1.550   0.855 -0.1540 -0.1707  0.2882
   54MOL0     C 7167   6.589   1.437   0.772 -0.0240  0.1284 -0.4108
   54MOL0     C 7168   6.483   1.365   0.854 -0.3122  0.3289 -0.7890
   54MOL0     C 7169   6.545   1.248   0.954  0.6328 -0.7052 -0.7084
   54MOL0     C 7170   6.581   1.116   0.883  1.1804  0.3121 -0.4645
   54MOL0     C 7171   6.476   1.076   0.775 -0.5257 -0.1027 -0.7420
   54MOL0     N 7172   6.520   0.951   0.706  0.2282 -0.6235 -0.0233
   54MOL0     C 7173   6.565   0.941   0.575 -1.3161  1.1151 -0.0227
   54MOL0     C 7174   6.619   0.813   0.569  0.9910 -0.3465  0.5064
   54MOL0     C 7175   6.693   0.746   0.462 -0.1067 -0.4229 -0.0618
   54MOL0     C 7176   6.613   0.641   0.387 -0.2025 -0.5152  0.7962
   54MOL0     C 7177   6.680   0.589   0.257 -0.1489  0.0392  0.5933
   54MOL0     C 7178   6.813   0.515   0.283 -0.2746  0.0598  0.2609
   54MOL0     O 7179   6.930   0.599   0.240 -0.0064  0.0228  0.0392
   54MOL0     C 7180   7.046   0.537   0.226  0.7319 -0.4491 -0.8376
   54MOL0     C 7181   7.144   0.599   0.149 -0.0644  0.2393  0.3297
   54MOL0     C 7182   7.268   0.534   0.125  0.1077  0.0028 -0.5908
   54MOL0     C 7183   7.299   0.411   0.188  0.9437  0.1748  0.0535
   54MOL0     C 7184   7.440   0.349   0.172  0.2907 -0.8214 -0.0539
   54MOL0     O 7185   7.464   0.247   0.267  0.9265  0.6787  0.2024
   54MOL0     C 7186   7.588   0.217   0.313 -0.2440  0.5619 -0.7906
   54MOL0     C 7187   7.611   0.099   0.385 -0.1149 -0.0040 -0.3465
   54MOL0     C 7188   7.735   0.057   0.433 -0.3271 -1.1648  0.2725
   54MOL0     C 7189   7.845   0.147   0.420  0.1619 -0.3204 -0.4674
   54MOL0     O 7190   7.957   0.108   0.484  0.1473 -0.3480 -0.2259
   54MOL0     C 7191   8.085   0.127   0.419  0.5034  0.5857 -0.4381
   54MOL0     C 7192   8.189   0.032   0.474  0.1509  0.6413  0.7005
   54MOL0     C 7193   8.230   0.104   0.598 -1.0649  0.6585 -0.2655
   54MOL0     C 7194   8.341   0.021   0.686  0.4691  0.0290  0.4298
   54MOL0     C 7195   8.386   0.096   0.805 -0.1191 -0.1449  0.0374
   54MOL0     C 7196   8.517   0.161   0.787  0.0150 -0.8775 -0.6477
   54MOL0     C 7197   8.583   0.196   0.924 -0.2570  0.0379 -0.0586
   54MOL0     C 7198   8.743   0.201   0.919 -0.0131 -0.9774 -1.0855
   54MOL0    Cl 7199   8.821   0.045   0.873  0.2740 -0.4942 -0.3691
   54MOL0     C 7200   7.821   0.268   0.359  0.3013 -0.4327 -0.1070
   54MOL0     C 7201   7.688   0.304   0.312  0.1757 -0.5968  0.3428
   54MOL0     O 7202   7.518   0.395   0.091  0.3097 -0.4385 -0.0037
   54MOL0     C 7203   7.208   0.359   0.272  0.3096  0.2553 -0.4987
   54MOL0     C 7204   7.079   0.416   0.288  0.4523 -0.1313 -0.4194
   54MOL0     N 7205   6.594   0.744   0.686  0.0237 -0.5958  0.0133
   54MOL0     N 7206   6.553   0.835   0.770 -0.2827 -0.0820 -0.6866
   54MOL0     C 7207   7.082   1.929   0.652 -0.0435 -0.4183  0.5472
   54MOL0     C 7208   7.202   1.999   0.667 -0.1467  0.3255 -0.4400
   54MOL0     C 7209   7.370   2.413   0.791  0.9990 -0.4360 -0.6790
   54MOL0     C 7210   7.484   2.405   0.868  0.0489 -0.0334 -0.3145
   54MOL0     C 7211   7.593   2.494   0.858  0.6716 -0.3778  0.0785
   54MOL0     C 7212   7.585   2.599   0.765  0.9033 -0.4397  0.1059
   54MOL0     O 7213   7.684   2.693   0.770 -0.5118  0.3717 -0.1513
   54MOL0     C 7214   7.661   2.813   0.679  0.2466 -0.0704  0.4331
   54MOL0     C 7215   7.780   2.911   0.680  0.2224  0.1171  0.2665
   54MOL0     C 7216   7.749   3.046   0.602 -0.1295  0.0493  0.5421
   54MOL0     C 7217   7.844   3.160   0.626 -0.4084 -0.1342  0.5402
   54MOL0     C 7218   7.799   3.226   0.747  0.6005 -0.2716  0.2444
   54MOL0     C 7219   7.757   3.277   0.847 -0.5355  0.3032 -0.4470
   54MOL0     C 7220   7.468   2.615   0.696 -0.4459 -0.2483 -0.6378
   54MOL0     C 7221   7.360   2.533   0.705  0.0571  0.5409 -0.8147
   54MOL0     C 7222   7.240   2.575   0.622 -0.8847  0.5026 -0.5065
   54MOL0     H 7223   7.186   2.066   0.994 -1.5627 -1.7686  0.6242
   54MOL0     H 7224   6.992   1.918   0.974  0.9325  0.0082  0.6052
   54MOL0     H 7225   6.916   1.695   0.901  2.3906  2.4105 -0.8266
   54MOL0     H 7226   6.758   1.790   0.912 -1.8738 -2.6680  0.2206
   54MOL0     H 7227   6.831   1.554   0.733  0.3247  0.0208  3.4259
   54MOL0     H 7228   6.691   1.662   0.679 -1.1971  1.4046  1.0000
   54MOL0     H 7229   6.571   1.609   0.891 -0.8056 -0.3937 -0.8001
   54MOL0     H 7230   6.715   1.520   0.942  2.6209  4.0142  0.1133
   54MOL0     H 7231   6.525   1.476   0.692  0.6099  1.4107 -0.3201
   54MOL0     H 7232   6.660   1.371   0.721  0.5031  1.5193 -1.5462
   54MOL0     H 7233   6.426   1.444   0.903  1.8923  2.5146 -1.5064
   54MOL0     H 7234   6.414   1.325   0.779 -1.0136 -2.0687  0.9991
   54MOL0     H 7235   6.638   1.286   0.999  2.3902 -2.2905 -2.7507
   54MOL0     H 7236   6.476   1.221   1.034  0.8367 -1.6820 -0.8512
   54MOL0     H 7237   6.600   1.031   0.949  0.7033  0.2054 -0.4600
   54MOL0     H 7238   6.673   1.137   0.827 -1.7311  1.4755 -5.3383
   54MOL0     H 7239   6.379   1.072   0.824 -0.4699 -0.1227 -0.6323
   54MOL0     H 7240   6.472   1.149   0.694 -2.2839  1.0401  0.3129
   54MOL0     H 7241   6.562   1.013   0.493  0.3314 -3.7906 -4.9974
   54MOL0     H 7242   6.713   0.827   0.391 -2.3345  1.0115  0.8139
   54MOL0     H 7243   6.786   0.710   0.506 -1.2821 -2.0017  1.2410
   54MOL0     H 7244   6.596   0.558   0.457  0.6273 -2.3279 -1.0433
   54MOL0     H 7245   6.528   0.696   0.347  3.1769  2.2716 -3.5101
   54MOL0     H 7246   6.678   0.669   0.183  0.6066 -0.3678  0.1161
   54MOL0     H 7247   6.624   0.506   0.214  1.5507 -2.5247  2.9616
   54MOL0     H 7248   6.814   0.425   0.221  3.3857  0.8944 -1.1457
   54MOL0     H 7249   6.825   0.505   0.392  1.2675 -0.8239  0.0457
   54MOL0     H 7250   7.121   0.686   0.089  2.9006  1.7386  1.1589
   54MOL0     H 7251   7.329   0.573   0.044 -0.9983 -2.0621 -2.5176
   54MOL0     H 7252   7.524   0.034   0.389  0.8817 -1.3115  1.1180
   54MOL0     H 7253   7.768  -0.040   0.468 -0.6070 -2.4424 -2.7965
   54MOL0     H 7254   8.077   0.097   0.314  1.9854  0.2688 -0.4885
   54MOL0     H 7255   8.114   0.233   0.414 -0.6460  0.8637 -3.2887
   54MOL0     H 7256   8.147  -0.064   0.502 -0.8421  2.0720  4.8412
   54MOL0     H 7257   8.265   0.026   0.395  1.1305  1.6562  1.5338
   54MOL0     H 7258   8.266   0.207   0.588 -2.1954  1.7227  4.4650
   54MOL0     H 7259   8.156   0.119   0.676  1.3526  1.5165  2.0057
   54MOL0     H 7260   8.425   0.010   0.617  1.7020  4.8446  0.7999
   54MOL0     H 7261   8.305  -0.078   0.712  1.9503 -0.4240  0.8843
   54MOL0     H 7262   8.403   0.026   0.888 -3.5682 -2.3038 -0.8997
   54MOL0     H 7263   8.312   0.167   0.842  1.6423 -0.0800  4.0700
   54MOL0     H 7264   8.583   0.105   0.720  0.1441 -0.3436 -0.9772
   54MOL0     H 7265   8.494   0.255   0.736 -2.6637 -1.5017 -0.6894
   54MOL0     H 7266   8.544   0.139   1.009  0.5755 -0.3530  0.0779
   54MOL0     H 7267   8.559   0.300   0.944 -1.6066  0.2076 -2.2140
   54MOL0     H 7268   8.784   0.282   0.858  0.9413 -2.1088 -1.9746
   54MOL0     H 7269   8.789   0.222   1.017  0.8563 -0.7530 -1.5264
   54MOL0     H 7270   7.908   0.333   0.349  0.3430 -0.6156 -1.0344
   54MOL0     H 7271   7.668   0.404   0.274 -0.9403  0.1173  2.6693
   54MOL0     H 7272   7.240   0.270   0.324  2.3346  0.1397 -1.8604
   54MOL0     H 7273   7.002   0.359   0.340 -1.9950  2.6423 -0.7097
   54MOL0     H 7274   7.049   1.884   0.559 -0.6182  1.2195 -0.0691
   54MOL0     H 7275   7.266   2.020   0.582 -0.2858  0.0240 -0.6199
   54MOL0     H 7276   7.480   2.324   0.940 -0.4144  0.5222  0.2912
   54MOL0     H 7277   7.679   2.484   0.924 -0.7532 -1.7176  1.8306
   54MOL0     H 7278   7.573   2.876   0.694 -0.5236 -0.5214 -1.8943
   54MOL0     H 7279   7.650   2.775   0.577 -2.3965  0.4204  0.4750
   54MOL0     H 7280   7.874   2.861   0.657  1.1731  1.0973  1.8131
   54MOL0     H 7281   7.783   2.928   0.788 -1.4919  0.1620  0.3426
   54MOL0     H 7282   7.644   3.075   0.612 -0.3539 -0.7920  0.6737
   54MOL0     H 7283   7.752   3.014   0.498 -0.4345  1.0188  0.2246
   54MOL0     H 7284   7.949   3.132   0.619 -0.3826 -0.2119  1.2095
   54MOL0     H 7285   7.837   3.231   0.543  3.5754  0.1824  0.2819
   54MOL0     H 7286   7.727   3.316   0.943 -1.8744 -3.2561  0.7298
   54MOL0     H 7287   7.456   2.701   0.631 -0.2788  1.4717  1.4969
   54MOL0     H 7288   7.149   2.543   0.673  0.0453  0.6189  1.2927
   54MOL0     H 7289   7.240   2.683   0.605 -1.4609  0.9639  2.0792
   54MOL0     H 7290   7.230   2.524   0.526 -2.4114 -0.8162  0.3074
   55MOL0     O 7291   3.357   0.174   2.810  0.8543  0.2260 -0.1537
   55MOL0     C 7292   3.417   0.217   2.910  0.0537 -0.5269 -0.3316
   55MOL0     O 7293   3.507   0.156   2.982 -0.2130 -0.2434  0.4772
   55MOL0     C 7294   3.556   0.032   2.956  0.3180  0.5446  0.9098
   55MOL0     C 7295   3.552  -0.044   2.835  0.6416  0.1118  0.4486
   55MOL0     C 7296   3.606  -0.172   2.842  0.1143  1.1246 -0.1458
   55MOL0     C 7297   3.663  -0.237   2.950  0.1350 -0.6678 -0.6315
   55MOL0     O 7298   3.692  -0.370   2.946 -0.8270 -0.3848  0.0701
   55MOL0     C 7299   3.702  -0.442   3.072  0.2089 -0.3117  0.5375
   55MOL0     C 7300   3.665  -0.580   3.051  0.4243 -0.1186  0.7924
   55MOL0     C 7301   3.529  -0.590   2.992 -0.0440 -0.1918  0.4049
   55MOL0     C 7302   3.412  -0.570   3.090  0.3358 -0.7460  0.0407
   55MOL0     C 7303   3.265  -0.586   3.033 -0.1190 -0.2477  0.2194
   55MOL0     C 7304   3.158  -0.567   3.137 -0.4272 -0.2848  0.0394
   55MOL0     C 7305   3.010  -0.552   3.092  0.3068 -0.2080  0.8424
   55MOL0     C 7306   2.964  -0.655   2.993 -0.1350  0.7085 -0.7249
   55MOL0     N 7307   2.871  -0.613   2.895 -0.1940 -0.4243 -0.5432
   55MOL0     C 7308   2.899  -0.622   2.765 -0.3943 -0.6428  0.3117
   55MOL0     C 7309   2.790  -0.559   2.707  0.9836  0.4776 -0.4891
   55MOL0     C 7310   2.774  -0.532   2.564  0.2421  0.7970  0.4723
   55MOL0     C 7311   2.647  -0.602   2.523  0.0870 -0.4349 -0.5272
   55MOL0     C 7312   2.654  -0.610   2.374 -0.7765  0.2385 -0.2742
   55MOL0     C 7313   2.576  -0.728   2.325  0.6939  0.0980  0.4949
   55MOL0     O 7314   2.625  -0.857   2.370  0.1514  0.6455  0.3390
   55MOL0     C 7315   2.586  -0.964   2.303  0.1491 -0.2409  0.8257
   55MOL0     C 7316   2.499  -0.967   2.188  0.5742 -0.8318 -0.0216
   55MOL0     C 7317   2.467  -1.079   2.126  0.1458  0.8140 -0.0715
   55MOL0     C 7318   2.509  -1.202   2.187  0.8657  0.4285  0.4069
   55MOL0     C 7319   2.472  -1.325   2.121 -0.1361  0.2076  0.3381
   55MOL0     O 7320   2.449  -1.316   1.985 -0.8049  0.8205  0.6353
   55MOL0     C 7321   2.434  -1.434   1.914  0.6629 -0.1995  0.7821
   55MOL0     C 7322   2.318  -1.470   1.843 -0.4887 -1.6597 -0.4555
   55MOL0     C 7323   2.314  -1.589   1.770 -0.0910  0.1475 -0.1524
   55MOL0     C 7324   2.426  -1.673   1.761 -0.6808 -0.8400  0.3504
   55MOL0     O 7325   2.430  -1.801   1.709  0.1379 -0.3462 -0.4111
   55MOL0     C 7326   2.308  -1.870   1.669 -0.2994 -0.6020  0.0501
   55MOL0     C 7327   2.328  -2.019   1.616 -0.7019  0.2188  0.5724
   55MOL0     C 7328   2.414  -2.092   1.711  0.0768  0.2826 -0.8846
   55MOL0     C 7329   2.561  -2.078   1.705  1.3417 -0.2631 -0.3879
   55MOL0     C 7330   2.639  -2.131   1.827 -0.7059  0.9094  0.3238
   55MOL0     C 7331   2.784  -2.144   1.798 -0.9566 -0.0703  0.1858
   55MOL0     C 7332   2.863  -2.195   1.918  0.1691  0.3737  0.5206
   55MOL0     C 7333   2.847  -2.348   1.940  0.5210 -0.3502 -1.6605
   55MOL0    Cl 7334   2.991  -2.449   1.905  0.3478  0.0209  0.2616
   55MOL0     C 7335   2.533  -1.640   1.847 -0.2602  0.1588  0.0703
   55MOL0     C 7336   2.541  -1.527   1.923 -0.7925 -0.0022 -0.3657
   55MOL0     O 7337   2.458  -1.422   2.192  0.2210 -0.6856  0.6476
   55MOL0     C 7338   2.574  -1.205   2.310 -0.9692  0.2160 -0.7622
   55MOL0     C 7339   2.614  -1.088   2.365  0.0945  0.0247 -0.0740
   55MOL0     N 7340   2.707  -0.515   2.812  1.1198  0.5111  0.6335
   55MOL0     N 7341   2.764  -0.552   2.915  0.3402  0.3286  0.2939
   55MOL0     C 7342   3.687  -0.157   3.064 -0.1348 -0.3330 -0.7265
   55MOL0     C 7343   3.629  -0.024   3.065 -0.3289  0.3685  0.6266
   55MOL0     C 7344   3.423   0.366   2.933  0.9351 -0.2732  0.0522
   55MOL0     C 7345   3.540   0.431   2.891 -0.2528 -0.0456  0.5184
   55MOL0     C 7346   3.557   0.565   2.918 -0.8331 -0.5857  0.7319
   55MOL0     C 7347   3.451   0.644   2.957 -0.3908  0.8573 -0.6223
   55MOL0     O 7348   3.478   0.776   2.969  0.2068  0.0002  0.8065
   55MOL0     C 7349   3.389   0.858   3.050  0.2639 -1.1455 -0.1610
   55MOL0     C 7350   3.369   0.808   3.192  1.0510 -0.4457 -0.0112
   55MOL0     C 7351   3.500   0.780   3.261 -0.6031  0.1530 -0.4722
   55MOL0     C 7352   3.485   0.742   3.411 -0.4776 -0.6214  0.2882
   55MOL0     C 7353   3.608   0.676   3.472  0.1712  1.4586 -0.6858
   55MOL0     C 7354   3.708   0.629   3.521 -0.2975 -0.8051 -0.0721
   55MOL0     C 7355   3.326   0.584   2.965 -0.3466 -0.3385  0.2365
   55MOL0     C 7356   3.310   0.451   2.960  0.1771 -1.1311 -1.0051
   55MOL0     C 7357   3.177   0.396   2.997  0.5746  0.3965  0.8090
   55MOL0     H 7358   3.503   0.006   2.753 -0.2749  3.3076  2.7296
   55MOL0     H 7359   3.594  -0.235   2.755 -0.2524 -0.9889  1.3440
   55MOL0     H 7360   3.794  -0.439   3.132 -1.1112 -3.9577  3.1386
   55MOL0     H 7361   3.624  -0.408   3.141 -0.0008 -1.3843  0.8428
   55MOL0     H 7362   3.675  -0.636   3.144 -1.1543 -1.8127 -0.0048
   55MOL0     H 7363   3.743  -0.628   2.992  0.4012 -0.3804  0.9754
   55MOL0     H 7364   3.509  -0.685   2.941 -1.3025 -0.3795  1.1863
   55MOL0     H 7365   3.515  -0.523   2.907 -1.9995 -3.5184 -2.1873
   55MOL0     H 7366   3.431  -0.628   3.181  0.6720  0.4113  0.7349
   55MOL0     H 7367   3.411  -0.464   3.117  4.1721  0.3418 -3.0694
   55MOL0     H 7368   3.255  -0.506   2.959 -2.6235  0.3612  1.0920
   55MOL0     H 7369   3.259  -0.687   2.993  0.9759 -0.5105  0.6883
   55MOL0     H 7370   3.161  -0.656   3.201  1.2975 -1.8933 -2.1254
   55MOL0     H 7371   3.178  -0.476   3.195 -3.2422  0.7404 -0.4162
   55MOL0     H 7372   2.994  -0.451   3.053  1.8192 -0.2959 -0.0822
   55MOL0     H 7373   2.940  -0.559   3.176  1.4701  1.8708  2.0493
   55MOL0     H 7374   3.054  -0.693   2.944  0.9282  1.7119  0.3764
   55MOL0     H 7375   2.918  -0.742   3.041  1.2320  0.6313  0.5114
   55MOL0     H 7376   2.989  -0.651   2.713  0.6949  2.7224  0.1112
   55MOL0     H 7377   2.759  -0.425   2.547  2.3119  0.7865 -1.9328
   55MOL0     H 7378   2.860  -0.576   2.513 -0.7041 -0.6606  0.0593
   55MOL0     H 7379   2.657  -0.699   2.573  2.1920 -0.5426 -1.0722
   55MOL0     H 7380   2.561  -0.544   2.558  1.1681  0.3305  0.9333
   55MOL0     H 7381   2.756  -0.624   2.339 -1.4642  2.4647 -3.6032
   55MOL0     H 7382   2.613  -0.519   2.330 -0.5358 -0.7252 -2.6268
   55MOL0     H 7383   2.589  -0.725   2.216  3.7418  1.1866  0.8092
   55MOL0     H 7384   2.471  -0.716   2.353  1.0899  1.0446  1.6316
   55MOL0     H 7385   2.474  -0.874   2.136 -0.0752  0.3950  2.3319
   55MOL0     H 7386   2.433  -1.077   2.023  1.3292 -3.1596 -0.7406
   55MOL0     H 7387   2.224  -1.418   1.854  1.0563  1.6948 -1.7386
   55MOL0     H 7388   2.227  -1.625   1.715  0.2950 -0.4807 -0.3643
   55MOL0     H 7389   2.240  -1.880   1.753 -0.9250  0.2503 -0.3431
   55MOL0     H 7390   2.256  -1.808   1.596 -1.2389  2.9162  3.3789
   55MOL0     H 7391   2.231  -2.066   1.596 -0.0639 -0.5810 -0.7782
   55MOL0     H 7392   2.385  -2.027   1.523 -1.1372 -1.6608  0.4282
   55MOL0     H 7393   2.373  -2.065   1.809  1.1575 -3.1279  0.6718
   55MOL0     H 7394   2.384  -2.194   1.686  0.3271  0.9501 -4.4344
   55MOL0     H 7395   2.581  -1.970   1.700 -1.5982  0.5693  2.5260
   55MOL0     H 7396   2.584  -2.133   1.613 -4.1983 -3.9879  0.0199
   55MOL0     H 7397   2.595  -2.225   1.862 -1.5884  1.1315 -0.1590
   55MOL0     H 7398   2.634  -2.070   1.918  2.4196  0.7809  0.7067
   55MOL0     H 7399   2.793  -2.213   1.714  2.1292  0.8061 -0.3162
   55MOL0     H 7400   2.819  -2.045   1.766 -0.9887 -0.1626 -0.1313
   55MOL0     H 7401   2.820  -2.147   2.007 -0.4561  1.4382 -0.3279
   55MOL0     H 7402   2.970  -2.174   1.907  0.0054  0.1045 -2.5283
   55MOL0     H 7403   2.828  -2.357   2.047  2.5080 -1.9702 -1.3890
   55MOL0     H 7404   2.761  -2.386   1.883 -0.5339  2.1303 -1.8336
   55MOL0     H 7405   2.617  -1.704   1.873 -0.6285  0.5199  2.3291
   55MOL0     H 7406   2.628  -1.508   1.985 -0.7108 -3.0936  0.6032
   55MOL0     H 7407   2.613  -1.289   2.367  1.2054  3.2488  2.6129
   55MOL0     H 7408   2.661  -1.091   2.463 -1.4424 -1.1521  0.6834
   55MOL0     H 7409   3.747  -0.186   3.149 -1.2071  1.9335  0.9163
   55MOL0     H 7410   3.644   0.045   3.147  3.0788  2.1412 -1.2967
   55MOL0     H 7411   3.621   0.381   2.840 -2.0039 -0.9571 -1.5444
   55MOL0     H 7412   3.657   0.602   2.897 -0.5103 -1.4531  0.7021
   55MOL0     H 7413   3.286   0.869   3.013  0.0203  3.3589  1.2849
   55MOL0     H 7414   3.430   0.959   3.051  3.1540 -2.2392  0.3661
   55MOL0     H 7415   3.298   0.725   3.205  1.7963 -1.1380 -0.2489
   55MOL0     H 7416   3.327   0.889   3.253 -5.4410 -0.5448 -3.4793
   55MOL0     H 7417   3.571   0.862   3.250  1.4852 -1.5342 -0.2641
   55MOL0     H 7418   3.550   0.698   3.209  3.1763  1.5470  0.6439
   55MOL0     H 7419   3.471   0.845   3.447  1.3246  0.8373 -2.7554
   55MOL0     H 7420   3.393   0.691   3.440  1.2515 -3.3185  1.4227
   55MOL0     H 7421   3.798   0.587   3.560  0.5695  1.0676  0.0350
   55MOL0     H 7422   3.238   0.647   2.975  0.1059  0.1426  1.2466
   55MOL0     H 7423   3.139   0.323   2.925  0.5270  0.2759  0.9549
   55MOL0     H 7424   3.188   0.343   3.093  0.7630 -0.0156  0.5634
   55MOL0     H 7425   3.107   0.475   3.024 -1.7538 -2.2081  3.0796
   56MOL0     O 7426  11.356   7.225   0.290 -0.3546 -1.1161 -0.4398
   56MOL0     C 7427  11.424   7.185   0.394 -1.0551  0.0009  0.0224
   56MOL0     O 7428  11.557   7.190   0.402  0.0742 -1.3326  0.7727
   56MOL0     C 7429  11.623   7.299   0.343 -0.1726 -0.8654 -0.1134
   56MOL0     C 7430  11.761   7.286   0.324  0.1432 -0.5186 -0.1930
   56MOL0     C 7431  11.845   7.393   0.281 -0.3808 -0.7795  0.6022
   56MOL0     C 7432  11.793   7.511   0.244  0.1580 -0.1246 -1.0520
   56MOL0     O 7433  11.871   7.616   0.190 -0.2374  0.6578  0.2491
   56MOL0     C 7434  12.011   7.592   0.143 -0.0247 -0.3111 -0.5877
   56MOL0     C 7435  12.075   7.731   0.101  0.2869 -0.6726 -0.5842
   56MOL0     C 7436  12.029   7.769  -0.037 -0.1873  0.0165 -0.1565
   56MOL0     C 7437  12.000   7.927  -0.038 -1.0203  0.7701  0.4287
   56MOL0     C 7438  11.914   7.966  -0.164 -0.6787 -0.4167 -0.7122
   56MOL0     C 7439  11.766   7.912  -0.149  0.4165  0.1963  0.6798
   56MOL0     C 7440  11.649   8.004  -0.183  0.4810  0.2345 -0.0433
   56MOL0     C 7441  11.644   8.121  -0.085 -0.2849  0.3191 -0.0812
   56MOL0     N 7442  11.537   8.223  -0.113 -1.0219  0.0944  0.1628
   56MOL0     C 7443  11.553   8.331  -0.200 -0.0914  0.9585  0.5783
   56MOL0     C 7444  11.440   8.400  -0.201  0.2665  0.4959 -0.3102
   56MOL0     C 7445  11.398   8.514  -0.288 -0.6908  0.4711  0.2260
   56MOL0     C 7446  11.320   8.467  -0.415 -0.2168 -0.1384 -0.2601
   56MOL0     C 7447  11.416   8.385  -0.507  0.2094 -0.0968  0.6614
   56MOL0     C 7448  11.362   8.361  -0.646  0.2630  0.0156  0.2102
   56MOL0     O 7449  11.314   8.487  -0.702 -0.0437  0.4410 -0.0928
   56MOL0     C 7450  11.396   8.581  -0.748 -0.7221  0.4723  0.2517
   56MOL0     C 7451  11.347   8.712  -0.749 -0.9408 -0.3952  0.0004
   56MOL0     C 7452  11.430   8.819  -0.762  0.5515 -0.6289  0.6259
   56MOL0     C 7453  11.569   8.816  -0.779  0.4740  0.0258 -0.3917
   56MOL0     C 7454  11.647   8.931  -0.833  0.4292 -1.4849 -0.1850
   56MOL0     O 7455  11.576   9.046  -0.869  0.2375 -0.3246 -0.2219
   56MOL0     C 7456  11.668   9.138  -0.905  0.4467 -0.5949 -0.0445
   56MOL0     C 7457  11.693   9.256  -0.828 -0.6249  0.8690 -0.8219
   56MOL0     C 7458  11.777   9.356  -0.867  0.8466  0.6871  0.7352
   56MOL0     C 7459  11.866   9.328  -0.983  1.2687  0.1593 -0.1995
   56MOL0     O 7460  11.967   9.413  -1.036 -0.2921  0.7632  0.3081
   56MOL0     C 7461  12.046   9.491  -0.939  0.1798  0.3725 -0.5348
   56MOL0     C 7462  12.088   9.629  -0.992  0.4333 -0.2518 -0.0550
   56MOL0     C 7463  12.044   9.762  -0.925 -0.6420  0.4809  0.5484
   56MOL0     C 7464  11.895   9.769  -0.910  0.1386 -0.2387 -0.2051
   56MOL0     C 7465  11.820   9.756  -1.044  0.3388  0.4657 -1.0524
   56MOL0     C 7466  11.673   9.786  -1.027  0.1523  0.7597  0.1139
   56MOL0     C 7467  11.645   9.930  -1.059 -0.0928  0.0697 -0.4911
   56MOL0     C 7468  11.494   9.976  -1.033  0.7738  0.2075 -0.0661
   56MOL0    Cl 7469  11.475  10.089  -0.901  0.1797  0.1803 -0.1916
   56MOL0     C 7470  11.830   9.215  -1.060 -0.7041  0.1096  0.6299
   56MOL0     C 7471  11.725   9.128  -1.026  0.0842  0.6939 -0.0000
   56MOL0     O 7472  11.767   8.918  -0.835 -0.0558 -0.5444  0.1814
   56MOL0     C 7473  11.618   8.686  -0.777 -0.2874 -0.5244 -0.0335
   56MOL0     C 7474  11.534   8.565  -0.758  0.3014  1.1637  0.6354
   56MOL0     N 7475  11.347   8.323  -0.137  0.2521 -0.4446 -0.3371
   56MOL0     N 7476  11.414   8.226  -0.067  0.2789  0.0821  0.1058
   56MOL0     C 7477  11.654   7.529   0.249  0.5394  0.6869  0.5062
   56MOL0     C 7478  11.577   7.419   0.291 -0.6563 -0.3105 -0.9133
   56MOL0     C 7479  11.361   7.127   0.516  0.1592  0.1015  0.5884
   56MOL0     C 7480  11.436   7.051   0.611  0.0731  1.4270  0.3366
   56MOL0     C 7481  11.384   6.972   0.711 -1.0030  0.2035 -0.1524
   56MOL0     C 7482  11.239   6.965   0.718 -0.0177 -0.4182  0.1557
   56MOL0     O 7483  11.167   6.888   0.798  0.2997 -0.2338 -0.4939
   56MOL0     C 7484  11.225   6.766   0.842 -0.2681  0.2477  0.2396
   56MOL0     C 7485  11.137   6.695   0.941  0.2270 -0.4075 -1.1559
   56MOL0     C 7486  11.200   6.567   0.986 -0.6735  0.0987  0.2961
   56MOL0     C 7487  11.145   6.496   1.108  0.4725  0.2884 -1.6394
   56MOL0     C 7488  11.028   6.425   1.061 -0.0078 -0.5235  0.5889
   56MOL0     C 7489  10.949   6.350   1.013  0.3178 -0.0293 -0.3022
   56MOL0     C 7490  11.161   7.056   0.640  0.2599 -0.4811  0.4265
   56MOL0     C 7491  11.220   7.133   0.537 -0.7452 -0.8524  0.2536
   56MOL0     C 7492  11.123   7.220   0.452  0.4508  0.4862 -1.5336
   56MOL0     H 7493  11.815   7.192   0.333  1.2758 -0.0657 -1.7949
   56MOL0     H 7494  11.954   7.390   0.279 -0.1943  1.7854  1.7582
   56MOL0     H 7495  12.071   7.560   0.229  0.6364  0.0907 -0.8929
   56MOL0     H 7496  12.015   7.512   0.068 -0.5399 -0.0680 -0.8786
   56MOL0     H 7497  12.184   7.717   0.104  0.9866  3.4223  1.9964
   56MOL0     H 7498  12.065   7.811   0.175  2.0241  0.8942 -1.9075
   56MOL0     H 7499  11.934   7.726  -0.069 -0.5959  2.3074 -2.4285
   56MOL0     H 7500  12.108   7.740  -0.108 -0.0662 -2.0450  0.7683
   56MOL0     H 7501  11.944   7.958   0.051 -0.3673  1.0056  0.7659
   56MOL0     H 7502  12.105   7.957  -0.033 -0.8761  0.3643 -0.1066
   56MOL0     H 7503  11.912   8.075  -0.165 -1.0966 -0.3852  0.9603
   56MOL0     H 7504  11.969   7.939  -0.255  0.3307 -1.1791  0.0946
   56MOL0     H 7505  11.753   7.832  -0.223  0.3143  1.7676 -1.0648
   56MOL0     H 7506  11.743   7.874  -0.049  1.6198  0.8195  1.2062
   56MOL0     H 7507  11.555   7.949  -0.173 -0.3900  1.8140  0.8732
   56MOL0     H 7508  11.655   8.045  -0.285 -1.1300  1.3880  0.2797
   56MOL0     H 7509  11.613   8.088   0.015 -1.0594 -1.1509 -0.7824
   56MOL0     H 7510  11.742   8.168  -0.078  1.4535 -2.9329 -0.9639
   56MOL0     H 7511  11.649   8.347  -0.247 -0.1425 -0.5543 -0.0848
   56MOL0     H 7512  11.336   8.582  -0.229  1.0676  2.1144  0.2736
   56MOL0     H 7513  11.484   8.574  -0.320  0.2438 -0.9285 -0.0010
   56MOL0     H 7514  11.242   8.402  -0.376  0.0134 -1.0961 -1.3659
   56MOL0     H 7515  11.266   8.542  -0.474 -0.9815 -0.5491 -0.0831
   56MOL0     H 7516  11.441   8.288  -0.464  3.2577  0.7998  1.1845
   56MOL0     H 7517  11.509   8.442  -0.520 -1.1484  1.7040 -2.5805
   56MOL0     H 7518  11.279   8.290  -0.644 -1.1440  1.6096  0.7699
   56MOL0     H 7519  11.443   8.312  -0.700  1.0156  1.7256 -0.2754
   56MOL0     H 7520  11.242   8.727  -0.728 -1.5870 -3.1305 -0.8929
   56MOL0     H 7521  11.387   8.918  -0.761 -2.0038 -1.6305  2.4184
   56MOL0     H 7522  11.647   9.259  -0.729  1.1814 -3.0947  0.3563
   56MOL0     H 7523  11.786   9.449  -0.812  2.3699  0.6439  0.5831
   56MOL0     H 7524  11.990   9.501  -0.845 -0.7372  1.9347 -1.2176
   56MOL0     H 7525  12.125   9.415  -0.933 -2.0443 -2.3030 -2.3379
   56MOL0     H 7526  12.197   9.620  -0.989  0.2553 -3.8152  0.0157
   56MOL0     H 7527  12.053   9.628  -1.096  1.3180  0.0980 -0.3653
   56MOL0     H 7528  12.082   9.780  -0.824 -2.1541 -3.2348  1.9513
   56MOL0     H 7529  12.074   9.842  -0.995  1.8391 -0.5255  0.3494
   56MOL0     H 7530  11.868   9.866  -0.868  1.9157 -0.5100  1.7095
   56MOL0     H 7531  11.865   9.699  -0.832  3.0432  0.4984  1.7409
   56MOL0     H 7532  11.825   9.654  -1.083 -2.8263 -1.9531  3.8515
   56MOL0     H 7533  11.857   9.825  -1.121  1.3481 -0.4081 -1.3646
   56MOL0     H 7534  11.603   9.732  -1.092 -1.5456  1.2741  1.4622
   56MOL0     H 7535  11.638   9.769  -0.925  0.1109  1.5327  0.2289
   56MOL0     H 7536  11.662   9.938  -1.167 -2.7026  2.2176 -0.8433
   56MOL0     H 7537  11.711   9.993  -0.998  0.5930  0.0564 -1.2051
   56MOL0     H 7538  11.451  10.014  -1.126  1.0171 -0.8384 -0.6201
   56MOL0     H 7539  11.429   9.891  -1.014 -0.2991  1.1810  0.7075
   56MOL0     H 7540  11.886   9.194  -1.151  2.1323  5.4172  0.7624
   56MOL0     H 7541  11.706   9.033  -1.075  1.5445  0.0184  0.6851
   56MOL0     H 7542  11.725   8.672  -0.788 -0.1676 -0.7768  1.2304
   56MOL0     H 7543  11.585   8.470  -0.768 -0.1500  0.9403  0.4001
   56MOL0     H 7544  11.616   7.625   0.218  2.1504  1.0564 -0.4131
   56MOL0     H 7545  11.473   7.439   0.314 -0.2274  1.7321 -0.5671
   56MOL0     H 7546  11.544   7.051   0.597 -0.0146  3.3515 -0.6049
   56MOL0     H 7547  11.457   6.920   0.773  1.0918  1.7187 -1.2115
   56MOL0     H 7548  11.321   6.775   0.892 -0.1958 -2.7101  0.7866
   56MOL0     H 7549  11.246   6.705   0.754  2.4025  1.2246  0.1292
   56MOL0     H 7550  11.036   6.673   0.905 -0.0502  1.5750 -1.6719
   56MOL0     H 7551  11.128   6.757   1.030  2.0643 -2.1726  0.3668
   56MOL0     H 7552  11.303   6.595   1.011 -0.3488  0.9005 -1.7438
   56MOL0     H 7553  11.194   6.502   0.898 -0.3291 -2.0547  1.7745
   56MOL0     H 7554  11.208   6.417   1.150 -1.5493 -1.4046 -1.6459
   56MOL0     H 7555  11.130   6.560   1.196  0.6962 -1.8221  0.0104
   56MOL0     H 7556  10.882   6.280   0.967  0.5755 -0.6529  0.2615
   56MOL0     H 7557  11.052   7.048   0.640  0.1292  0.2897 -2.1898
   56MOL0     H 7558  11.080   7.161   0.372  0.7389  0.8205 -1.9418
   56MOL0     H 7559  11.041   7.244   0.520  2.8944  2.1469  1.1063
   56MOL0     H 7560  11.160   7.310   0.400 -0.9989 -0.4800 -4.4102
   57MOL0     O 7561   3.066   4.039   6.197  0.0251 -0.0213 -0.3606
   57MOL0     C 7562   2.985   3.966   6.151 -0.0959 -0.2015  0.2008
   57MOL0     O 7563   3.008   3.868   6.056  0.1419  0.3353 -0.3140
   57MOL0     C 7564   3.137   3.818   6.031  0.0483  0.1514  0.4628
   57MOL0     C 7565   3.223   3.770   6.130  1.2756  0.3918  0.3459
   57MOL0     C 7566   3.352   3.737   6.101  0.6450  0.2148 -0.8028
   57MOL0     C 7567   3.402   3.748   5.972 -0.2798  0.7732  0.8062
   57MOL0     O 7568   3.530   3.717   5.944 -0.5667  0.2506 -0.6854
   57MOL0     C 7569   3.635   3.773   6.041  0.2997 -0.3779  0.4250
   57MOL0     C 7570   3.764   3.811   5.967 -0.7079  0.0100  0.2349
   57MOL0     C 7571   3.790   3.725   5.847 -0.0292  0.1540  0.5328
   57MOL0     C 7572   3.800   3.576   5.873 -0.9438 -0.6360  0.0415
   57MOL0     C 7573   3.800   3.489   5.741  0.0433 -0.4345 -0.0255
   57MOL0     C 7574   3.935   3.491   5.667 -0.2574 -0.0730  0.4719
   57MOL0     C 7575   3.938   3.436   5.529  0.1776 -0.0454  0.3601
   57MOL0     C 7576   3.941   3.283   5.535  0.5895 -0.2960  0.2861
   57MOL0     N 7577   3.985   3.223   5.410 -0.0986  0.7859  0.6544
   57MOL0     C 7578   3.942   3.245   5.279 -0.4905  0.1054 -0.1386
   57MOL0     C 7579   4.003   3.139   5.212  0.1974 -0.6879  0.5647
   57MOL0     C 7580   3.979   3.098   5.065  0.1919 -1.2322  0.0508
   57MOL0     C 7581   4.053   2.976   5.006 -0.2863 -0.4016 -0.6381
   57MOL0     C 7582   4.017   2.834   5.066 -0.7028 -0.3606 -0.1594
   57MOL0     C 7583   3.866   2.815   5.095  0.0648 -0.4605  0.3214
   57MOL0     O 7584   3.786   2.824   4.966 -0.7917 -0.1000  0.3588
   57MOL0     C 7585   3.656   2.784   4.972  0.4032 -0.3296 -0.8252
   57MOL0     C 7586   3.589   2.741   5.087 -0.5877  0.7094 -0.2912
   57MOL0     C 7587   3.462   2.684   5.083 -0.3986  0.1223 -0.1730
   57MOL0     C 7588   3.394   2.670   4.957  0.1912 -0.7310 -0.6300
   57MOL0     C 7589   3.269   2.600   4.961 -0.6006 -0.2292  0.5819
   57MOL0     O 7590   3.216   2.556   4.840  0.3452  0.0100 -0.3246
   57MOL0     C 7591   3.120   2.469   4.865  0.4952  1.3296  0.2625
   57MOL0     C 7592   2.995   2.516   4.891  1.1970 -0.3316 -0.2405
   57MOL0     C 7593   2.891   2.421   4.916  0.0569 -0.4369 -0.9762
   57MOL0     C 7594   2.913   2.281   4.919  0.1267 -0.3716 -0.0266
   57MOL0     O 7595   2.823   2.188   4.952  0.6661  0.5524 -1.1132
   57MOL0     C 7596   2.682   2.215   4.949  0.3715  0.1603 -0.6635
   57MOL0     C 7597   2.635   2.248   4.810  0.1050 -0.1352 -0.6034
   57MOL0     C 7598   2.493   2.298   4.816  0.8938  0.5269 -0.3977
   57MOL0     C 7599   2.432   2.321   4.677  0.1861  0.8782  1.1875
   57MOL0     C 7600   2.278   2.331   4.688  0.1054 -0.1379  0.0223
   57MOL0     C 7601   2.229   2.371   4.549 -0.3627 -0.1973 -0.2648
   57MOL0     C 7602   2.091   2.435   4.551  0.3336 -0.2640 -0.2243
   57MOL0     C 7603   2.055   2.527   4.432 -0.0899 -0.4030  0.8772
   57MOL0    Cl 7604   1.885   2.552   4.436 -0.2781 -0.7682  0.0801
   57MOL0     C 7605   3.049   2.243   4.911  0.1812  0.7072 -0.0843
   57MOL0     C 7606   3.151   2.333   4.885 -0.4649 -0.7684 -0.5416
   57MOL0     O 7607   3.219   2.594   5.072  0.0676  0.2159 -0.3192
   57MOL0     C 7608   3.458   2.724   4.842  0.3477 -0.3581  1.1379
   57MOL0     C 7609   3.589   2.776   4.852 -0.3758  0.1193  0.0094
   57MOL0     N 7610   4.075   3.063   5.294 -0.8305 -0.5342 -0.6502
   57MOL0     N 7611   4.067   3.116   5.415  0.4936 -0.4469  0.2335
   57MOL0     C 7612   3.315   3.778   5.871  0.7222  0.8742  0.8077
   57MOL0     C 7613   3.184   3.820   5.905 -0.4677  0.7679  0.7661
   57MOL0     C 7614   2.846   3.995   6.189 -0.5814  0.1175  0.2579
   57MOL0     C 7615   2.821   4.029   6.320  0.5937 -0.1666  0.3879
   57MOL0     C 7616   2.683   4.060   6.347 -0.3513 -0.3555 -0.1813
   57MOL0     C 7617   2.578   4.035   6.265 -0.1176  0.5789 -0.1089
   57MOL0     O 7618   2.442   4.057   6.292  1.1285 -0.1232 -0.4563
   57MOL0     C 7619   2.412   4.037   6.432 -0.6424 -0.6188 -0.3824
   57MOL0     C 7620   2.268   3.992   6.454  0.8833 -0.7697 -0.2343
   57MOL0     C 7621   2.231   3.970   6.604 -0.2954 -0.3980 -0.2237
   57MOL0     C 7622   2.224   4.106   6.667  1.2733 -0.3619 -0.9730
   57MOL0     C 7623   2.199   4.086   6.810  0.6771 -0.6123 -0.1594
   57MOL0     C 7624   2.207   4.063   6.927  0.5356 -0.5706 -0.7544
   57MOL0     C 7625   2.606   4.011   6.137 -0.8488  0.3575 -0.0054
   57MOL0     C 7626   2.742   3.989   6.090 -0.2282 -0.3664  0.4963
   57MOL0     C 7627   2.779   3.956   5.944 -0.1087  0.6439  0.3389
   57MOL0     H 7628   3.178   3.739   6.224  0.3234 -3.2303 -1.1464
   57MOL0     H 7629   3.391   3.688   6.190 -0.5125  1.2388  0.3208
   57MOL0     H 7630   3.602   3.870   6.080  3.3253  0.4559  1.1475
   57MOL0     H 7631   3.665   3.703   6.119  0.7756 -1.3741 -0.6154
   57MOL0     H 7632   3.847   3.816   6.037 -2.0326  0.8332  1.8100
   57MOL0     H 7633   3.765   3.917   5.941 -1.0401 -0.3332 -1.3223
   57MOL0     H 7634   3.889   3.752   5.809 -0.7659 -1.5418 -2.9541
   57MOL0     H 7635   3.725   3.754   5.764  0.9796  0.4051 -0.1977
   57MOL0     H 7636   3.886   3.558   5.938 -1.5580 -0.1216  1.0075
   57MOL0     H 7637   3.709   3.552   5.929 -1.8027 -0.2106 -1.1315
   57MOL0     H 7638   3.776   3.384   5.764  1.2887 -0.6668  0.2861
   57MOL0     H 7639   3.717   3.529   5.681  0.8209 -1.0398 -1.5666
   57MOL0     H 7640   3.963   3.594   5.648  2.8614 -1.3535 -3.2208
   57MOL0     H 7641   4.013   3.445   5.729  1.9668  1.1280 -1.2709
   57MOL0     H 7642   4.033   3.473   5.489  2.3593 -4.0507  1.2300
   57MOL0     H 7643   3.847   3.476   5.483  1.1194  2.5430  0.6038
   57MOL0     H 7644   4.004   3.261   5.621  0.7276  1.6440  0.7362
   57MOL0     H 7645   3.840   3.248   5.557 -1.7625  5.0071 -0.3887
   57MOL0     H 7646   3.879   3.330   5.253  0.6720  1.5189  1.4677
   57MOL0     H 7647   3.870   3.097   5.051  0.1241 -2.1644  0.5530
   57MOL0     H 7648   4.004   3.196   5.023  3.1024 -0.9895  2.0379
   57MOL0     H 7649   4.033   2.991   4.899  0.0631  4.1145 -0.2763
   57MOL0     H 7650   4.157   2.996   5.032 -0.6602 -1.0578  1.5885
   57MOL0     H 7651   4.073   2.824   5.160 -2.0437 -0.8775  0.6105
   57MOL0     H 7652   4.068   2.751   5.016  1.9033 -1.6920  4.2041
   57MOL0     H 7653   3.846   2.893   5.169  2.6543  0.0947  0.5318
   57MOL0     H 7654   3.842   2.719   5.143 -0.4372 -0.9906 -0.9424
   57MOL0     H 7655   3.629   2.740   5.188 -1.5808 -0.5223  0.1014
   57MOL0     H 7656   3.422   2.667   5.182  0.4815  2.4788  0.6666
   57MOL0     H 7657   2.977   2.623   4.898 -0.4148 -0.5950  0.1485
   57MOL0     H 7658   2.794   2.451   4.955  0.6733  0.0356  0.2477
   57MOL0     H 7659   2.620   2.129   4.975  0.7631  0.2878  0.7474
   57MOL0     H 7660   2.662   2.289   5.026 -0.3547 -1.3500  0.6530
   57MOL0     H 7661   2.704   2.328   4.781  1.4224  0.9437  4.4834
   57MOL0     H 7662   2.647   2.165   4.740  0.2310  0.4703 -1.3184
   57MOL0     H 7663   2.427   2.235   4.875 -0.2943  2.3585  0.3261
   57MOL0     H 7664   2.496   2.389   4.877  1.0569 -0.9331  1.8991
   57MOL0     H 7665   2.450   2.239   4.607 -2.0754  0.0822  1.4466
   57MOL0     H 7666   2.475   2.417   4.647  1.9915  0.9086  3.5449
   57MOL0     H 7667   2.240   2.393   4.769 -0.3742  0.1435 -0.4078
   57MOL0     H 7668   2.230   2.233   4.703 -0.2123  0.3421  2.4125
   57MOL0     H 7669   2.301   2.441   4.506 -0.7826 -0.6329 -1.7476
   57MOL0     H 7670   2.221   2.280   4.488  0.1208 -0.0247 -0.5877
   57MOL0     H 7671   2.092   2.502   4.638  1.0745  0.8009 -1.0390
   57MOL0     H 7672   2.017   2.355   4.563 -1.2566  1.0478 -0.8622
   57MOL0     H 7673   2.114   2.614   4.462  0.6711 -0.6701  0.1921
   57MOL0     H 7674   2.079   2.477   4.337  1.7966 -3.2507  2.6946
   57MOL0     H 7675   3.075   2.139   4.930 -0.3595  0.7774  1.1510
   57MOL0     H 7676   3.253   2.299   4.872 -0.7177 -1.6238 -0.3750
   57MOL0     H 7677   3.418   2.692   4.746 -0.1396 -2.0281  1.8582
   57MOL0     H 7678   3.658   2.794   4.769  0.3813 -2.4324 -0.0001
   57MOL0     H 7679   3.348   3.770   5.768 -0.1406  0.0104  0.5803
   57MOL0     H 7680   3.124   3.857   5.822 -2.2212 -1.4076  0.9522
   57MOL0     H 7681   2.902   4.059   6.386  0.5796  2.1473 -0.5564
   57MOL0     H 7682   2.664   4.098   6.446  1.8397  0.4583 -0.0345
   57MOL0     H 7683   2.415   4.141   6.467  2.9862  0.2337 -2.6405
   57MOL0     H 7684   2.492   3.988   6.489  1.7421  1.1633 -1.9938
   57MOL0     H 7685   2.263   3.894   6.406 -0.5855 -0.3702 -0.9510
   57MOL0     H 7686   2.192   4.047   6.399 -0.9414 -4.0643 -1.2905
   57MOL0     H 7687   2.307   3.913   6.659  1.8265  2.1240 -0.3628
   57MOL0     H 7688   2.132   3.925   6.603 -1.1780  1.4184  0.7997
   57MOL0     H 7689   2.321   4.155   6.660  2.0822 -1.4402  1.6107
   57MOL0     H 7690   2.146   4.172   6.627  0.2275 -1.7462 -1.2970
   57MOL0     H 7691   2.217   4.029   7.028  1.5058 -1.9478 -1.2843
   57MOL0     H 7692   2.512   3.998   6.084 -0.4566 -1.5510 -0.3351
   57MOL0     H 7693   2.872   4.004   5.916 -0.3263  2.2760  2.1932
   57MOL0     H 7694   2.795   3.848   5.939 -1.0170  0.5441 -0.8791
   57MOL0     H 7695   2.712   4.005   5.873  0.2971 -0.1094 -0.5833
   58MOL0     O 7696   9.420   9.106   5.455  0.3972 -0.2413  0.0509
   58MOL0     C 7697   9.401   9.004   5.528  0.3049 -0.2229  1.1002
   58MOL0     O 7698   9.475   8.970   5.633 -0.2698 -0.4649 -0.0681
   58MOL0     C 7699   9.529   9.076   5.701  0.5212  0.0789 -1.0144
   58MOL0     C 7700   9.639   9.047   5.780 -0.2127 -0.2813 -0.6125
   58MOL0     C 7701   9.686   9.134   5.882 -0.4755 -0.0798  0.6741
   58MOL0     C 7702   9.636   9.271   5.889  0.7981 -0.1268 -0.6808
   58MOL0     O 7703   9.705   9.350   5.984  1.2499 -0.2172  0.4421
   58MOL0     C 7704   9.684   9.488   5.975 -0.2563 -0.5291  0.5478
   58MOL0     C 7705   9.786   9.570   6.050  0.6350 -0.7514  0.1701
   58MOL0     C 7706   9.805   9.545   6.203 -0.2673 -0.0751  0.5262
   58MOL0     C 7707   9.937   9.606   6.248  0.1269  0.1203  0.4629
   58MOL0     C 7708   9.987   9.737   6.184  0.1317  0.2080 -0.0400
   58MOL0     C 7709  10.132   9.772   6.231 -0.2436  0.1798 -0.3832
   58MOL0     C 7710  10.146   9.925   6.230  0.1009 -0.1531  0.2967
   58MOL0     C 7711  10.056  10.014   6.311 -0.7528 -0.5836  0.6354
   58MOL0     N 7712  10.112  10.152   6.320 -0.0218  0.7244  0.6099
   58MOL0     C 7713  10.226  10.199   6.382  0.7977 -0.5467  0.2161
   58MOL0     C 7714  10.255  10.316   6.325  0.5065  0.4285 -0.2800
   58MOL0     C 7715  10.365  10.415   6.338 -0.5412 -0.0187 -1.1395
   58MOL0     C 7716  10.334  10.511   6.441  0.0402 -0.2244 -0.5134
   58MOL0     C 7717  10.464  10.574   6.495  0.4196 -0.0289  0.3835
   58MOL0     C 7718  10.562  10.483   6.569  0.4875  0.6349  0.0111
   58MOL0     O 7719  10.483  10.417   6.670  0.1112 -0.4003  0.3675
   58MOL0     C 7720  10.492  10.472   6.798 -0.6972 -0.3619 -0.0815
   58MOL0     C 7721  10.377  10.534   6.857  0.0764 -0.3079  0.7966
   58MOL0     C 7722  10.389  10.605   6.972  1.3060 -0.3768 -0.3358
   58MOL0     C 7723  10.507  10.596   7.047  0.1419  0.6574 -0.3421
   58MOL0     C 7724  10.526  10.663   7.177  0.6134  0.0446  0.3887
   58MOL0     O 7725  10.655  10.691   7.224  0.6235  0.8194 -0.4106
   58MOL0     C 7726  10.672  10.729   7.356  0.3764  1.2265  0.6158
   58MOL0     C 7727  10.602  10.825   7.422 -0.3832  0.5191  1.0994
   58MOL0     C 7728  10.617  10.859   7.553 -1.1304  0.2216  0.5133
   58MOL0     C 7729  10.707  10.783   7.635  0.0370 -0.1008 -0.0466
   58MOL0     O 7730  10.715  10.797   7.769  0.1845 -0.3074 -0.0639
   58MOL0     C 7731  10.733  10.675   7.843  0.1950  0.3996 -0.2312
   58MOL0     C 7732  10.663  10.689   7.980 -0.3884  0.0592  0.3981
   58MOL0     C 7733  10.693  10.559   8.066  0.1977  0.2887  0.3972
   58MOL0     C 7734  10.815  10.581   8.151  0.0269 -0.3134 -0.0869
   58MOL0     C 7735  10.880  10.445   8.181 -0.0091 -0.4056 -0.3381
   58MOL0     C 7736  11.003  10.458   8.268  0.7151 -0.4380  0.5084
   58MOL0     C 7737  11.038  10.327   8.342  0.1274  0.2264 -0.8486
   58MOL0     C 7738  11.160  10.342   8.433 -0.6303  0.3363 -0.2786
   58MOL0    Cl 7739  11.312  10.401   8.349 -0.3798 -0.4506 -0.5636
   58MOL0     C 7740  10.778  10.681   7.572 -0.1906  1.1781  1.0706
   58MOL0     C 7741  10.763  10.658   7.428  0.5596  0.0804 -0.2469
   58MOL0     O 7742  10.425  10.664   7.249 -0.1195 -0.4179  0.4877
   58MOL0     C 7743  10.604  10.512   7.001 -0.5653  0.3576 -0.3369
   58MOL0     C 7744  10.600  10.448   6.879 -0.1369 -0.5016 -0.2869
   58MOL0     N 7745  10.154  10.350   6.239 -0.4144  0.2906  0.2454
   58MOL0     N 7746  10.072  10.252   6.230  0.2478 -0.1476  0.0190
   58MOL0     C 7747   9.517   9.293   5.822 -0.0315 -0.0492  0.2021
   58MOL0     C 7748   9.471   9.203   5.724  0.5365  0.5512  0.2294
   58MOL0     C 7749   9.291   8.905   5.492 -0.3008  0.1404  0.0510
   58MOL0     C 7750   9.287   8.788   5.571  0.3406 -0.2218 -0.5302
   58MOL0     C 7751   9.187   8.695   5.544  0.0791 -0.7142 -0.5381
   58MOL0     C 7752   9.098   8.717   5.435  0.6951 -0.0937 -1.0248
   58MOL0     O 7753   9.028   8.611   5.385 -0.5122  0.1918  0.5948
   58MOL0     C 7754   8.929   8.544   5.460 -0.7084  1.1743 -0.5956
   58MOL0     C 7755   8.966   8.399   5.495 -0.1316  0.0683 -0.4898
   58MOL0     C 7756   9.067   8.397   5.611 -0.0433  0.3366  0.5663
   58MOL0     C 7757   9.090   8.251   5.655  0.2557  0.5684  0.2125
   58MOL0     C 7758   9.139   8.170   5.550  0.4776  1.2637 -0.3130
   58MOL0     C 7759   9.173   8.087   5.468 -0.4967  0.3311 -0.6100
   58MOL0     C 7760   9.134   8.819   5.345 -0.3571 -0.0398  0.0036
   58MOL0     C 7761   9.221   8.916   5.370 -1.0485  0.5008  0.7059
   58MOL0     C 7762   9.249   9.021   5.264  0.1252 -0.2748 -0.8274
   58MOL0     H 7763   9.667   8.943   5.770 -2.7473 -1.1540  0.4280
   58MOL0     H 7764   9.774   9.120   5.944 -0.4418  0.2123  0.6955
   58MOL0     H 7765   9.702   9.518   5.871 -0.4990 -1.5499  0.2019
   58MOL0     H 7766   9.589   9.526   6.014  1.2918  1.7603  2.3144
   58MOL0     H 7767   9.754   9.674   6.044 -0.8423 -1.1690  0.6505
   58MOL0     H 7768   9.868   9.533   5.987 -0.6309 -0.8572 -1.4842
   58MOL0     H 7769   9.795   9.438   6.223  0.6679 -0.4685 -0.9661
   58MOL0     H 7770   9.733   9.603   6.262  0.5673  1.8593 -0.2729
   58MOL0     H 7771   9.925   9.617   6.356 -0.8455 -1.2064  0.5255
   58MOL0     H 7772  10.011   9.530   6.220  0.8955  0.7152  0.8391
   58MOL0     H 7773   9.979   9.716   6.077 -1.4282 -1.7041  0.4125
   58MOL0     H 7774   9.912   9.810   6.215  1.7365  0.9861  2.3621
   58MOL0     H 7775  10.157   9.740   6.332 -1.1390 -1.5306 -0.6590
   58MOL0     H 7776  10.202   9.726   6.161  0.0570  0.3534 -0.1944
   58MOL0     H 7777  10.127   9.957   6.128  1.2190 -0.5783 -0.0639
   58MOL0     H 7778  10.249   9.958   6.247  0.5956 -1.3944 -0.1084
   58MOL0     H 7779   9.955  10.022   6.270 -1.4206 -2.7594  1.6778
   58MOL0     H 7780  10.052   9.976   6.414 -1.6953 -0.9674  0.4703
   58MOL0     H 7781  10.283  10.150   6.460  1.0861 -2.8837 -1.3544
   58MOL0     H 7782  10.462  10.364   6.345 -0.1692  0.8904  0.6739
   58MOL0     H 7783  10.369  10.470   6.243 -0.8571  0.4738 -0.8662
   58MOL0     H 7784  10.270  10.592   6.403  0.8592  0.5097 -0.3788
   58MOL0     H 7785  10.285  10.456   6.522  1.7899 -1.9796 -0.5737
   58MOL0     H 7786  10.432  10.653   6.564 -3.8523 -0.6870 -0.5333
   58MOL0     H 7787  10.517  10.628   6.416  1.1164 -0.0472  0.8301
   58MOL0     H 7788  10.646  10.542   6.606  2.3487 -2.1605  0.5872
   58MOL0     H 7789  10.611  10.407   6.507 -2.7831 -0.8790 -0.9540
   58MOL0     H 7790  10.298  10.532   6.783  2.6034 -2.5058 -2.1275
   58MOL0     H 7791  10.305  10.667   7.003  1.0242 -0.1648 -1.4890
   58MOL0     H 7792  10.530  10.881   7.363 -1.0077 -0.6175  0.7554
   58MOL0     H 7793  10.545  10.933   7.585  0.2139  2.7356 -1.8097
   58MOL0     H 7794  10.702  10.587   7.786  3.0895  0.1382 -1.5647
   58MOL0     H 7795  10.839  10.655   7.864  0.1617 -3.5820 -2.7655
   58MOL0     H 7796  10.702  10.780   8.027 -1.2081 -0.1420  1.5054
   58MOL0     H 7797  10.556  10.695   7.963 -0.5984 -1.2870  1.0814
   58MOL0     H 7798  10.613  10.551   8.141 -0.7920  0.2671 -0.6338
   58MOL0     H 7799  10.684  10.470   8.004  0.0907  1.1126 -0.8016
   58MOL0     H 7800  10.796  10.645   8.238 -0.2680  2.8533 -2.2925
   58MOL0     H 7801  10.887  10.648   8.103 -1.4197  2.0556  0.8700
   58MOL0     H 7802  10.907  10.388   8.092  0.9696  1.0728 -1.0201
   58MOL0     H 7803  10.806  10.387   8.239  0.4111  0.1623  0.8039
   58MOL0     H 7804  11.086  10.488   8.203  0.8232 -0.4912  0.6218
   58MOL0     H 7805  10.998  10.535   8.345  1.8780  2.0370 -1.7007
   58MOL0     H 7806  11.045  10.242   8.274 -4.6359  0.3142 -1.7760
   58MOL0     H 7807  10.961  10.294   8.413  1.9943 -2.6227  0.0502
   58MOL0     H 7808  11.142  10.417   8.511  1.4934  0.9185 -0.2771
   58MOL0     H 7809  11.170  10.254   8.497 -0.3448  2.0075  2.1247
   58MOL0     H 7810  10.842  10.615   7.629  0.1157  0.4985 -0.0260
   58MOL0     H 7811  10.821  10.580   7.378  0.8522 -0.7117  1.2793
   58MOL0     H 7812  10.693  10.506   7.063 -0.3692  0.7534 -0.5822
   58MOL0     H 7813  10.695  10.410   6.845 -0.1935 -0.6715 -0.2574
   58MOL0     H 7814   9.461   9.385   5.837  0.7461  0.8109 -1.8264
   58MOL0     H 7815   9.382   9.241   5.673 -1.1913 -0.4663  2.3060
   58MOL0     H 7816   9.348   8.766   5.658  1.7074  2.1290 -0.7893
   58MOL0     H 7817   9.175   8.612   5.613 -0.2435 -0.0808  0.1808
   58MOL0     H 7818   8.832   8.553   5.409 -1.7096  2.5166  1.3936
   58MOL0     H 7819   8.917   8.597   5.555 -2.5597  0.0241 -0.1377
   58MOL0     H 7820   9.022   8.361   5.408  2.0486  1.8714  0.0202
   58MOL0     H 7821   8.882   8.333   5.516  0.2219 -0.5466 -0.9774
   58MOL0     H 7822   9.037   8.469   5.687  1.7442  2.1553 -0.3602
   58MOL0     H 7823   9.164   8.428   5.572  0.6534 -4.4235 -2.3976
   58MOL0     H 7824   9.166   8.248   5.734  1.8701 -2.3999 -1.3031
   58MOL0     H 7825   8.998   8.216   5.703 -0.7212  2.3307 -0.2944
   58MOL0     H 7826   9.215   8.015   5.402  0.5918  1.1226 -0.7999
   58MOL0     H 7827   9.076   8.828   5.254  0.9654 -0.1370 -0.8856
   58MOL0     H 7828   9.192   9.012   5.171  1.1258  0.7185 -1.5560
   58MOL0     H 7829   9.230   9.121   5.304 -2.6735 -0.8491 -0.4903
   58MOL0     H 7830   9.352   9.019   5.229  0.6398 -2.7617  0.5973
   59MOL0     O 7831   5.952   7.461   0.758 -0.2300 -0.2447 -0.4422
   59MOL0     C 7832   5.867   7.445   0.841  0.2010 -0.7878 -0.2641
   59MOL0     O 7833   5.753   7.528   0.859 -0.8374  0.2377 -0.3519
   59MOL0     C 7834   5.720   7.617   0.764  1.0357 -0.8795  0.2435
   59MOL0     C 7835   5.614   7.586   0.678 -0.4956 -0.6363 -0.3294
   59MOL0     C 7836   5.591   7.666   0.568 -0.1306  0.3335 -0.0724
   59MOL0     C 7837   5.669   7.783   0.535 -0.3992  0.7970  0.5916
   59MOL0     O 7838   5.637   7.866   0.434  0.3808  0.0213  0.5604
   59MOL0     C 7839   5.737   7.912   0.343  0.2089  0.2818  0.5297
   59MOL0     C 7840   5.697   7.859   0.208  0.0900 -1.2151  0.1500
   59MOL0     C 7841   5.563   7.915   0.171 -0.1366  0.2808 -0.5966
   59MOL0     C 7842   5.524   7.891   0.023  0.1169  0.0866  0.0617
   59MOL0     C 7843   5.395   7.962  -0.017 -0.3531  0.0194 -0.4378
   59MOL0     C 7844   5.348   7.929  -0.162  0.6884 -0.3204 -0.7413
   59MOL0     C 7845   5.223   8.006  -0.216  0.4542 -0.0147 -0.9909
   59MOL0     C 7846   5.109   8.010  -0.110 -0.1220 -0.7891  0.2225
   59MOL0     N 7847   4.981   8.058  -0.166  0.1979 -0.3801  0.1230
   59MOL0     C 7848   4.868   8.072  -0.096  0.9913  0.0713 -0.3667
   59MOL0     C 7849   4.769   8.129  -0.177 -0.8013  0.7955  1.3205
   59MOL0     C 7850   4.626   8.177  -0.151  0.0052  0.2424 -0.0531
   59MOL0     C 7851   4.607   8.273  -0.026 -0.8328 -0.8542  0.8913
   59MOL0     C 7852   4.576   8.218   0.106 -0.5708 -0.4026 -0.2783
   59MOL0     C 7853   4.485   8.100   0.097  0.0491 -0.3376  0.5447
   59MOL0     O 7854   4.440   8.061   0.231 -0.3154 -0.1272  0.1490
   59MOL0     C 7855   4.544   7.989   0.299  0.7894  0.5501 -0.5214
   59MOL0     C 7856   4.564   7.995   0.437  0.5809 -0.4492 -0.2662
   59MOL0     C 7857   4.660   7.919   0.504  0.9677  0.0588  0.4355
   59MOL0     C 7858   4.753   7.841   0.433 -0.0875  0.0355  0.5937
   59MOL0     C 7859   4.854   7.760   0.496 -1.0827  0.9044  0.6798
   59MOL0     O 7860   4.940   7.677   0.420 -0.0715  0.5882 -0.4320
   59MOL0     C 7861   5.029   7.591   0.475 -0.5079  0.8376 -0.0497
   59MOL0     C 7862   5.032   7.552   0.612  0.0093 -0.3542 -0.0409
   59MOL0     C 7863   5.129   7.459   0.654  0.2319  0.4308 -0.0774
   59MOL0     C 7864   5.215   7.395   0.568  0.4563 -1.1099  0.8308
   59MOL0     O 7865   5.310   7.302   0.616 -0.6769  0.0155 -0.3951
   59MOL0     C 7866   5.362   7.320   0.752  0.2194 -0.1897 -0.4060
   59MOL0     C 7867   5.497   7.248   0.756  0.8699 -1.4532 -0.0047
   59MOL0     C 7868   5.507   7.091   0.736 -0.3538  0.0341 -0.2688
   59MOL0     C 7869   5.411   6.992   0.807  0.3408  0.3470  0.3993
   59MOL0     C 7870   5.483   6.883   0.876  0.5475  0.1172  0.3059
   59MOL0     C 7871   5.384   6.781   0.937  0.3508 -0.7947  0.5862
   59MOL0     C 7872   5.471   6.685   1.014  0.0984 -0.2113 -0.9170
   59MOL0     C 7873   5.574   6.613   0.932 -0.2663  0.3536 -0.1189
   59MOL0    Cl 7874   5.672   6.496   1.020 -0.2192  0.0634 -0.1153
   59MOL0     C 7875   5.207   7.429   0.434  0.7300  1.3631 -0.1484
   59MOL0     C 7876   5.115   7.520   0.393 -0.1136 -0.7871 -0.8888
   59MOL0     O 7877   4.865   7.784   0.616  0.1493 -0.0841 -0.3034
   59MOL0     C 7878   4.745   7.841   0.297 -0.1161  0.5974  0.2736
   59MOL0     C 7879   4.637   7.909   0.232  0.2520 -0.1844  1.5592
   59MOL0     N 7880   4.838   8.142  -0.294  0.1964 -1.2751 -0.2964
   59MOL0     N 7881   4.959   8.109  -0.289  0.6167 -0.8355 -0.1131
   59MOL0     C 7882   5.783   7.805   0.613 -0.0479 -0.4154 -1.0881
   59MOL0     C 7883   5.807   7.724   0.726 -0.4237  0.0943 -0.9327
   59MOL0     C 7884   5.888   7.326   0.923  0.2269 -0.3201 -0.2781
   59MOL0     C 7885   5.901   7.346   1.062  0.1207  0.3354  0.2414
   59MOL0     C 7886   5.911   7.233   1.141  0.4327 -0.0082  0.6781
   59MOL0     C 7887   5.883   7.104   1.094 -0.1393  0.5729 -0.1255
   59MOL0     O 7888   5.863   7.000   1.181  0.2858 -0.8538  0.1324
   59MOL0     C 7889   5.923   6.876   1.148  1.1796  0.4172 -0.5392
   59MOL0     C 7890   5.835   6.759   1.205 -0.1192  0.9170 -0.0751
   59MOL0     C 7891   5.808   6.766   1.355 -0.7778 -0.3440 -0.7762
   59MOL0     C 7892   5.728   6.655   1.403 -0.6718 -0.1062  0.4492
   59MOL0     C 7893   5.729   6.648   1.555 -0.4349 -0.2064  1.1439
   59MOL0     C 7894   5.718   6.660   1.676 -0.9642 -0.2217  0.4594
   59MOL0     C 7895   5.858   7.084   0.956 -0.0370 -0.9833  0.5785
   59MOL0     C 7896   5.877   7.198   0.872  0.4867  0.3418  0.1833
   59MOL0     C 7897   5.891   7.168   0.725 -0.2460 -0.9305 -0.3156
   59MOL0     H 7898   5.550   7.500   0.694 -1.7178  0.5003  1.2601
   59MOL0     H 7899   5.505   7.633   0.510  0.8775  0.2017 -1.5474
   59MOL0     H 7900   5.746   8.021   0.343 -1.1134  0.4251  1.8655
   59MOL0     H 7901   5.836   7.875   0.370 -1.1224 -2.5341  1.9470
   59MOL0     H 7902   5.688   7.751   0.225  1.9838 -1.5202 -0.5016
   59MOL0     H 7903   5.777   7.871   0.134  0.2681  0.3159  0.5566
   59MOL0     H 7904   5.557   8.023   0.185 -5.6230  0.2429 -0.2563
   59MOL0     H 7905   5.482   7.869   0.228  1.9722 -1.7986  0.8852
   59MOL0     H 7906   5.608   7.932  -0.034  0.9678  1.8834  2.4531
   59MOL0     H 7907   5.502   7.786   0.000 -1.2547  1.0037 -3.5959
   59MOL0     H 7908   5.311   7.943   0.051 -2.7086  0.8989 -2.8840
   59MOL0     H 7909   5.420   8.067  -0.006  2.6502 -0.6875  0.3025
   59MOL0     H 7910   5.431   7.964  -0.223  0.9531 -1.3146 -0.9796
   59MOL0     H 7911   5.326   7.822  -0.175  0.6195 -0.6560  1.7374
   59MOL0     H 7912   5.190   7.977  -0.316  2.0295  1.3355 -1.9514
   59MOL0     H 7913   5.249   8.112  -0.217  2.6571 -0.2646  3.1349
   59MOL0     H 7914   5.095   7.905  -0.086  2.7993 -1.7242 -1.6317
   59MOL0     H 7915   5.144   8.063  -0.021  1.7194  0.2133 -1.0317
   59MOL0     H 7916   4.856   8.022  -0.000 -0.0348  0.6004 -0.2115
   59MOL0     H 7917   4.588   8.222  -0.243 -2.2358 -0.6081  0.3944
   59MOL0     H 7918   4.561   8.089  -0.153 -0.5615  0.6680 -2.0030
   59MOL0     H 7919   4.693   8.341  -0.026 -2.0234  0.7121  1.1043
   59MOL0     H 7920   4.526   8.343  -0.051  0.1379  0.1989  0.6146
   59MOL0     H 7921   4.537   8.305   0.160  1.6298  2.9905 -3.6063
   59MOL0     H 7922   4.669   8.197   0.159 -2.0214 -7.5083  0.4178
   59MOL0     H 7923   4.528   8.010   0.053  0.9397 -0.8764  2.4103
   59MOL0     H 7924   4.406   8.110   0.021  0.6072 -2.2912 -0.3430
   59MOL0     H 7925   4.503   8.059   0.500 -0.7091 -1.0768 -0.8619
   59MOL0     H 7926   4.663   7.932   0.612  2.3603  1.1671  0.2900
   59MOL0     H 7927   4.958   7.588   0.683 -0.3191 -0.9549 -0.0686
   59MOL0     H 7928   5.133   7.459   0.763  2.6654  0.9700 -0.1103
   59MOL0     H 7929   5.381   7.428   0.759  3.9752 -0.7863  0.7064
   59MOL0     H 7930   5.279   7.298   0.820  0.6924 -2.1048 -0.4030
   59MOL0     H 7931   5.550   7.294   0.672 -1.0230 -0.8065 -0.8837
   59MOL0     H 7932   5.541   7.264   0.855 -0.2997  0.3878  0.2583
   59MOL0     H 7933   5.482   7.079   0.630  0.5188 -0.2928 -0.4498
   59MOL0     H 7934   5.609   7.057   0.756  1.1682  3.0044 -2.2963
   59MOL0     H 7935   5.348   6.947   0.731  1.2115  3.9172 -2.7664
   59MOL0     H 7936   5.358   7.049   0.884 -0.5607  1.0967 -0.7416
   59MOL0     H 7937   5.545   6.924   0.956  0.1731 -0.9026  1.1371
   59MOL0     H 7938   5.549   6.830   0.806  1.3408 -0.7159  1.6364
   59MOL0     H 7939   5.328   6.836   1.013  3.2485  0.3231  2.0988
   59MOL0     H 7940   5.319   6.736   0.861  0.2288 -1.5187  1.1133
   59MOL0     H 7941   5.414   6.600   1.052  2.5670 -1.8556 -0.7478
   59MOL0     H 7942   5.520   6.742   1.093 -0.3009 -0.9843 -0.1059
   59MOL0     H 7943   5.524   6.571   0.845 -1.7304 -0.9092  1.2692
   59MOL0     H 7944   5.649   6.678   0.885  0.9477 -0.4771  0.5897
   59MOL0     H 7945   5.282   7.394   0.363  4.4242  1.6367  3.2247
   59MOL0     H 7946   5.110   7.536   0.285  2.1375  0.1325 -0.9141
   59MOL0     H 7947   4.821   7.794   0.236  0.1899 -1.2559  2.0018
   59MOL0     H 7948   4.627   7.865   0.133 -1.8775 -0.5347  1.8930
   59MOL0     H 7949   5.846   7.893   0.603  3.1625 -2.2110  1.3422
   59MOL0     H 7950   5.899   7.744   0.780 -0.2292  1.9767 -1.9003
   59MOL0     H 7951   5.894   7.441   1.113  2.5745 -0.7603  2.8291
   59MOL0     H 7952   5.926   7.237   1.249 -2.6917 -0.0043  1.1964
   59MOL0     H 7953   6.022   6.872   1.195  1.0049 -1.2757 -0.2544
   59MOL0     H 7954   5.955   6.860   1.044  1.9960 -2.2153  0.0423
   59MOL0     H 7955   5.872   6.659   1.182  0.7950  0.6360  2.2829
   59MOL0     H 7956   5.741   6.756   1.149 -1.5930 -2.6442  2.2052
   59MOL0     H 7957   5.769   6.864   1.384 -2.1144 -1.5712  1.8612
   59MOL0     H 7958   5.904   6.757   1.407 -1.4686 -2.9640  0.1924
   59MOL0     H 7959   5.629   6.668   1.360 -1.0208  3.4863  2.0294
   59MOL0     H 7960   5.776   6.561   1.372 -1.4396 -1.0003  1.8799
   59MOL0     H 7961   5.726   6.669   1.782 -0.1669  0.9881  0.3175
   59MOL0     H 7962   5.850   6.987   0.908  0.7353  0.1508 -2.0414
   59MOL0     H 7963   5.813   7.219   0.668 -1.5973 -3.0717 -0.4901
   59MOL0     H 7964   5.984   7.214   0.689 -0.9268  2.0432  1.3866
   59MOL0     H 7965   5.882   7.063   0.695 -0.0722 -0.2129 -3.2194
   60MOL0     O 7966   2.365  11.241   4.280 -0.1753  0.3094 -0.1176
   60MOL0     C 7967   2.403  11.241   4.160  0.5163  0.2057 -0.1096
   60MOL0     O 7968   2.338  11.206   4.043 -0.1764 -0.0418  0.0722
   60MOL0     C 7969   2.203  11.169   4.061 -0.5429  0.1902  1.1321
   60MOL0     C 7970   2.172  11.037   4.033  0.4289  0.0797 -0.6162
   60MOL0     C 7971   2.036  11.002   4.034 -0.9989 -0.7820  0.3154
   60MOL0     C 7972   1.939  11.090   4.066  1.0764 -0.7064  0.2102
   60MOL0     O 7973   1.797  11.062   4.071  0.2342  0.4221 -0.2811
   60MOL0     C 7974   1.741  10.939   4.019  0.5147  0.4734 -0.2406
   60MOL0     C 7975   1.615  10.905   4.099  0.1481 -0.1566  0.7361
   60MOL0     C 7976   1.560  10.763   4.072  0.8593 -0.3541  0.1560
   60MOL0     C 7977   1.431  10.728   4.142  0.9148 -0.1458  0.3917
   60MOL0     C 7978   1.441  10.729   4.300  0.6376 -0.3269  0.6081
   60MOL0     C 7979   1.319  10.658   4.367  0.1054 -0.1503 -0.0210
   60MOL0     C 7980   1.316  10.662   4.523 -0.2706  0.3939  0.3630
   60MOL0     C 7981   1.303  10.798   4.592 -0.4308  0.1643  0.6525
   60MOL0     N 7982   1.351  10.793   4.738  0.7237 -0.3641 -0.4419
   60MOL0     C 7983   1.482  10.783   4.774  0.0552 -0.8113  0.6015
   60MOL0     C 7984   1.479  10.794   4.914  1.0035 -0.0460  0.0774
   60MOL0     C 7985   1.589  10.766   5.017  0.0550 -0.5043 -0.2031
   60MOL0     C 7986   1.717  10.859   4.989  0.5068  0.3126  0.1023
   60MOL0     C 7987   1.676  11.010   5.000 -0.5057  0.3149  0.9269
   60MOL0     C 7988   1.795  11.091   4.960  0.2449 -0.9593  0.9739
   60MOL0     O 7989   1.904  11.082   5.058 -0.1787  0.8204 -0.7214
   60MOL0     C 7990   1.906  11.184   5.156  0.2497  0.2997 -0.2538
   60MOL0     C 7991   1.986  11.301   5.136  1.0403  0.5745  0.0921
   60MOL0     C 7992   1.999  11.391   5.247 -0.7226  0.1231  0.8504
   60MOL0     C 7993   1.926  11.376   5.365  0.5851  0.0705  0.6150
   60MOL0     C 7994   1.934  11.470   5.478 -0.5739 -0.5911 -0.9363
   60MOL0     O 7995   1.852  11.449   5.584 -0.8087  0.4143 -0.5487
   60MOL0     C 7996   1.870  11.538   5.690  0.1416  0.0306  0.0314
   60MOL0     C 7997   1.881  11.680   5.674  0.3414  0.7269 -1.1707
   60MOL0     C 7998   1.892  11.763   5.787 -0.2562  0.0489  0.0553
   60MOL0     C 7999   1.900  11.705   5.920  0.5001  1.0552 -0.4127
   60MOL0     O 8000   1.896  11.789   6.030  0.6503 -0.4452 -1.0040
   60MOL0     C 8001   2.021  11.849   6.070  0.6695  0.1702  0.7828
   60MOL0     C 8002   2.104  11.742   6.141  0.4413  0.1739  0.0503
   60MOL0     C 8003   2.221  11.802   6.217 -0.2356 -0.2356  0.2907
   60MOL0     C 8004   2.296  11.701   6.307  0.0754  0.5889  0.0475
   60MOL0     C 8005   2.394  11.768   6.390 -0.5141 -0.2001 -0.3475
   60MOL0     C 8006   2.466  11.660   6.479 -0.2743  0.5744  0.3719
   60MOL0     C 8007   2.559  11.734   6.574 -0.0158 -0.0195  0.0885
   60MOL0     C 8008   2.589  11.649   6.699 -0.1944  0.0683 -0.8206
   60MOL0    Cl 8009   2.443  11.589   6.794  0.1002 -0.8865 -0.2611
   60MOL0     C 8010   1.907  11.559   5.936 -0.2286  0.1362  0.3119
   60MOL0     C 8011   1.892  11.477   5.825 -1.1387 -0.7510  0.1413
   60MOL0     O 8012   2.034  11.548   5.472 -0.0186  0.5002  0.5925
   60MOL0     C 8013   1.842  11.261   5.371 -0.8407 -0.6519 -1.3575
   60MOL0     C 8014   1.839  11.164   5.272 -0.0096 -0.7250  0.2996
   60MOL0     N 8015   1.345  10.816   4.948 -0.9153  1.0543  0.7681
   60MOL0     N 8016   1.275  10.799   4.846  0.7565 -0.5642  0.4363
   60MOL0     C 8017   1.976  11.226   4.104 -0.6259  0.4990 -0.0904
   60MOL0     C 8018   2.103  11.260   4.101 -0.8385  0.5435 -0.5841
   60MOL0     C 8019   2.539  11.286   4.159  0.7522  1.0034  0.3862
   60MOL0     C 8020   2.622  11.282   4.277  0.4845  0.2849  0.0513
   60MOL0     C 8021   2.756  11.323   4.276 -0.1436 -0.5335  0.5235
   60MOL0     C 8022   2.811  11.393   4.165 -0.0460  0.2048  0.3231
   60MOL0     O 8023   2.936  11.444   4.169  0.5048 -0.7457 -0.5129
   60MOL0     C 8024   2.975  11.485   4.303 -0.0572 -0.2294 -0.0415
   60MOL0     C 8025   3.100  11.577   4.313 -0.7325  0.3437  0.8315
   60MOL0     C 8026   3.095  11.657   4.446  0.0930 -0.3821  0.4115
   60MOL0     C 8027   3.235  11.722   4.487  0.5150  0.6665  0.1406
   60MOL0     C 8028   3.283  11.810   4.388 -0.1254  0.7413 -0.0125
   60MOL0     C 8029   3.315  11.862   4.286  0.2420  0.0263 -0.2888
   60MOL0     C 8030   2.730  11.391   4.048  0.0070  0.5087  0.3007
   60MOL0     C 8031   2.597  11.346   4.045 -0.3507  0.7634 -0.5116
   60MOL0     C 8032   2.521  11.369   3.923  0.6173  1.0488  0.9583
   60MOL0     H 8033   2.252  10.972   4.000  3.1566  3.0246 -0.3056
   60MOL0     H 8034   2.015  10.898   4.009  0.4897 -1.5906  2.2140
   60MOL0     H 8035   1.706  10.949   3.916  0.4015  5.5844  0.0726
   60MOL0     H 8036   1.815  10.859   4.030 -0.2503 -0.0146  1.7818
   60MOL0     H 8037   1.534  10.978   4.085  0.6573  0.6595  1.8561
   60MOL0     H 8038   1.639  10.924   4.204  2.5951  0.6465  0.0958
   60MOL0     H 8039   1.637  10.691   4.101  0.1089 -2.7007 -3.1193
   60MOL0     H 8040   1.546  10.749   3.965 -0.2279 -2.5524  0.5128
   60MOL0     H 8041   1.349  10.794   4.112 -0.0728 -1.3496  0.3944
   60MOL0     H 8042   1.406  10.628   4.107 -1.5705  0.2505  0.8708
   60MOL0     H 8043   1.525  10.670   4.339  1.4933  0.9354  0.7172
   60MOL0     H 8044   1.458  10.834   4.323 -1.1452  0.5718 -1.7483
   60MOL0     H 8045   1.233  10.712   4.327 -0.0603  0.7533  1.4545
   60MOL0     H 8046   1.319  10.550   4.346  1.7743 -0.6284  2.0923
   60MOL0     H 8047   1.416  10.627   4.550  1.5352  3.8331 -1.3479
   60MOL0     H 8048   1.233  10.600   4.561 -2.2687  3.4199  1.2653
   60MOL0     H 8049   1.363  10.874   4.541 -0.0230 -2.2038 -2.7251
   60MOL0     H 8050   1.200  10.833   4.576  0.6367  3.0814 -0.4984
   60MOL0     H 8051   1.570  10.761   4.714  0.2787  2.7158 -0.6406
   60MOL0     H 8052   1.553  10.776   5.119  2.0720  3.1798  0.3097
   60MOL0     H 8053   1.617  10.662   4.997 -2.5426 -1.4836  0.7177
   60MOL0     H 8054   1.786  10.831   5.069 -0.5841  0.5398  1.1397
   60MOL0     H 8055   1.759  10.835   4.890 -0.8864 -0.7544 -0.2611
   60MOL0     H 8056   1.639  11.026   5.102  1.3327  1.1372  1.5011
   60MOL0     H 8057   1.583  11.035   4.948 -2.5663  0.1816  4.2292
   60MOL0     H 8058   1.759  11.194   4.954 -2.3591 -1.8468  0.2391
   60MOL0     H 8059   1.840  11.061   4.865  2.8138  0.5535  1.6142
   60MOL0     H 8060   2.033  11.318   5.039 -0.5892 -1.1636 -1.1035
   60MOL0     H 8061   2.064  11.478   5.244 -1.2234  0.4666 -0.6296
   60MOL0     H 8062   1.869  11.728   5.577 -1.3662 -2.6410 -2.7611
   60MOL0     H 8063   1.873  11.870   5.781  1.6933  0.5569  1.7475
   60MOL0     H 8064   2.081  11.899   5.994  1.6313 -1.3186  0.5350
   60MOL0     H 8065   2.001  11.928   6.144  3.7859  1.2418  0.6081
   60MOL0     H 8066   2.035  11.689   6.207 -0.4204  0.6344 -0.4706
   60MOL0     H 8067   2.142  11.658   6.083  0.6985  1.0083 -1.0120
   60MOL0     H 8068   2.289  11.861   6.154  2.4214 -3.1228  0.2222
   60MOL0     H 8069   2.171  11.871   6.286 -2.9053  0.0666 -1.7716
   60MOL0     H 8070   2.355  11.630   6.249 -0.8176 -1.1774  1.2254
   60MOL0     H 8071   2.212  11.645   6.348 -0.4627  0.6572 -0.9290
   60MOL0     H 8072   2.346  11.839   6.459 -0.1742 -0.5554  0.2645
   60MOL0     H 8073   2.460  11.832   6.330  0.4498 -1.3695 -0.5642
   60MOL0     H 8074   2.383  11.611   6.532 -2.2312  2.9287 -0.3036
   60MOL0     H 8075   2.524  11.589   6.420  1.3851  0.0699  2.4832
   60MOL0     H 8076   2.510  11.824   6.613 -0.6501 -0.5228  0.4770
   60MOL0     H 8077   2.655  11.764   6.532 -0.0962  1.6948  1.0541
   60MOL0     H 8078   2.640  11.563   6.656 -1.4815 -1.0144 -0.2792
   60MOL0     H 8079   2.646  11.716   6.764 -1.3455 -0.0958  0.4179
   60MOL0     H 8080   1.921  11.521   6.036 -0.7323 -0.9339 -0.0116
   60MOL0     H 8081   1.912  11.371   5.833 -1.4385 -0.6976  1.7912
   60MOL0     H 8082   1.794  11.260   5.468 -0.5823  2.3546 -1.1171
   60MOL0     H 8083   1.788  11.069   5.283  1.9720 -1.9584 -0.6147
   60MOL0     H 8084   1.891  11.279   4.146 -0.2657 -2.5454  5.4326
   60MOL0     H 8085   2.133  11.363   4.118 -0.9324  0.4039  0.4962
   60MOL0     H 8086   2.579  11.242   4.369  0.7744 -0.4958 -0.1406
   60MOL0     H 8087   2.811  11.312   4.369  0.3850 -2.3938  0.0405
   60MOL0     H 8088   2.996  11.396   4.363  1.0860  0.1883  0.2083
   60MOL0     H 8089   2.888  11.540   4.341  0.1575  0.4213 -0.4733
   60MOL0     H 8090   3.092  11.656   4.238  0.0801  1.4929  1.9064
   60MOL0     H 8091   3.196  11.530   4.287  0.7152  4.3200 -1.9800
   60MOL0     H 8092   3.074  11.585   4.526  0.9690  1.7726  2.7170
   60MOL0     H 8093   3.021  11.737   4.440 -0.2226 -0.7054 -4.4781
   60MOL0     H 8094   3.211  11.774   4.580  0.6363 -2.7399  2.2820
   60MOL0     H 8095   3.313  11.650   4.514  0.4807  1.5973  3.0095
   60MOL0     H 8096   3.333  11.901   4.188  0.5816  0.8297  0.0826
   60MOL0     H 8097   2.774  11.419   3.952  2.5125 -0.6047  1.0440
   60MOL0     H 8098   2.496  11.271   3.882  2.8208  1.2360 -1.0122
   60MOL0     H 8099   2.424  11.418   3.919 -1.2168 -2.2620  1.3386
   60MOL0     H 8100   2.587  11.417   3.850  1.2944  1.8582  2.0581
   61MOL0     O 8101   7.345   8.048   4.639 -0.3085  0.0424  0.3242
   61MOL0     C 8102   7.269   8.143   4.636 -0.2914 -0.7531  0.0180
   61MOL0     O 8103   7.179   8.170   4.728  0.1897 -0.6961 -0.6531
   61MOL0     C 8104   7.185   8.105   4.843 -0.4640  0.2533 -0.9156
   61MOL0     C 8105   7.101   7.997   4.868  0.0775 -0.1296  0.0166
   61MOL0     C 8106   7.116   7.928   4.994 -0.0231  0.9150  0.1105
   61MOL0     C 8107   7.201   7.968   5.095 -0.7586 -0.9112 -0.6096
   61MOL0     O 8108   7.211   7.901   5.215  0.6798  0.2057 -0.4459
   61MOL0     C 8109   7.338   7.884   5.281 -0.4936 -0.0724  1.4164
   61MOL0     C 8110   7.316   7.864   5.435  0.1736 -0.5646 -0.1318
   61MOL0     C 8111   7.445   7.845   5.506 -0.3827  0.1827 -0.1329
   61MOL0     C 8112   7.421   7.775   5.640 -0.2047 -0.4983 -0.4180
   61MOL0     C 8113   7.551   7.792   5.724  0.3557  0.7077 -0.7725
   61MOL0     C 8114   7.552   7.684   5.836 -0.3574 -0.5997  0.4144
   61MOL0     C 8115   7.680   7.701   5.924 -0.0789 -0.9199  0.5423
   61MOL0     C 8116   7.681   7.610   6.038 -0.3234 -0.4068  0.5116
   61MOL0     N 8117   7.807   7.639   6.105  0.7198  0.2512  0.3495
   61MOL0     C 8118   7.925   7.583   6.088  0.9310 -0.3113  0.2515
   61MOL0     C 8119   8.011   7.648   6.174  0.0543 -0.1782  0.0024
   61MOL0     C 8120   8.163   7.620   6.177  0.5873 -1.1187  0.3482
   61MOL0     C 8121   8.215   7.651   6.311 -0.3592  0.2740 -0.1961
   61MOL0     C 8122   8.369   7.641   6.298  0.1642 -0.7932 -0.2408
   61MOL0     C 8123   8.437   7.668   6.440 -0.3439  0.7075  0.2440
   61MOL0     O 8124   8.580   7.633   6.419 -0.5456  0.3612 -0.4963
   61MOL0     C 8125   8.652   7.566   6.514  1.1958  0.5210 -0.6671
   61MOL0     C 8126   8.608   7.538   6.649 -1.3481 -0.1312 -1.3095
   61MOL0     C 8127   8.682   7.474   6.740 -0.8256  0.1824  0.2657
   61MOL0     C 8128   8.812   7.430   6.709  0.1695  0.1285 -1.2830
   61MOL0     C 8129   8.898   7.364   6.805 -0.1971  0.2292  0.5574
   61MOL0     O 8130   9.015   7.305   6.759  0.2787  0.5718  0.4445
   61MOL0     C 8131   9.099   7.241   6.845 -0.1550  0.6050  0.7310
   61MOL0     C 8132   9.135   7.108   6.817  0.5098  0.6897  0.0279
   61MOL0     C 8133   9.228   7.042   6.905  0.8239  0.2915 -0.2067
   61MOL0     C 8134   9.281   7.095   7.022  0.4679  0.1892 -0.2317
   61MOL0     O 8135   9.377   7.025   7.095  0.2856 -0.3517  0.4804
   61MOL0     C 8136   9.412   7.093   7.221  0.0990 -0.2544 -0.4493
   61MOL0     C 8137   9.474   6.992   7.310  0.0030 -0.0294 -0.3536
   61MOL0     C 8138   9.609   6.943   7.257  0.1983  0.9290 -0.7889
   61MOL0     C 8139   9.607   6.813   7.186  0.6377 -0.5623  0.0376
   61MOL0     C 8140   9.580   6.690   7.276  0.4513  0.1453  0.2901
   61MOL0     C 8141   9.640   6.570   7.199 -0.2455 -0.2241  0.0232
   61MOL0     C 8142   9.537   6.527   7.100  0.0622 -0.2054  0.4892
   61MOL0     C 8143   9.545   6.373   7.075 -0.3700 -0.5878  1.2926
   61MOL0    Cl 8144   9.699   6.342   6.976  0.1983 -0.0797  0.1781
   61MOL0     C 8145   9.237   7.224   7.047 -0.3016 -0.5288 -0.1377
   61MOL0     C 8146   9.158   7.301   6.958  0.2574  0.1901 -0.1294
   61MOL0     O 8147   8.868   7.368   6.918  0.3440 -0.0843 -0.2040
   61MOL0     C 8148   8.861   7.453   6.583  0.6232 -0.1306  0.3087
   61MOL0     C 8149   8.778   7.524   6.487  0.1737 -0.0365 -0.6103
   61MOL0     N 8150   7.940   7.734   6.255 -0.0922 -0.4034 -0.7029
   61MOL0     N 8151   7.811   7.737   6.201 -0.2151 -0.8116 -0.4305
   61MOL0     C 8152   7.279   8.087   5.073 -0.0927 -0.0505 -1.0969
   61MOL0     C 8153   7.273   8.148   4.949 -0.6220  0.9579  1.1781
   61MOL0     C 8154   7.255   8.235   4.515 -0.2096  0.8404 -0.2629
   61MOL0     C 8155   7.179   8.351   4.521  0.4197  0.5644 -1.0799
   61MOL0     C 8156   7.166   8.438   4.416 -0.2657 -0.0670  0.2091
   61MOL0     C 8157   7.229   8.414   4.293  0.8475  0.2528 -0.7005
   61MOL0     O 8158   7.216   8.499   4.181  0.0275  0.1683 -0.1796
   61MOL0     C 8159   7.096   8.576   4.186 -0.1802 -0.0107  0.3905
   61MOL0     C 8160   7.076   8.640   4.048 -0.0952 -0.1124 -1.0981
   61MOL0     C 8161   7.064   8.532   3.937 -0.9234 -0.3947  0.3982
   61MOL0     C 8162   6.967   8.572   3.822  0.1614  0.0334  0.0666
   61MOL0     C 8163   6.831   8.519   3.836 -1.2301 -0.2918  0.1249
   61MOL0     C 8164   6.720   8.484   3.860  0.3290  0.7646 -0.5534
   61MOL0     C 8165   7.317   8.309   4.289  0.9762 -0.3469 -0.8933
   61MOL0     C 8166   7.329   8.214   4.393  0.4864 -0.6847 -0.2085
   61MOL0     C 8167   7.426   8.103   4.369 -0.1405  0.2095  0.8805
   61MOL0     H 8168   7.030   7.963   4.794  1.1913 -0.9939 -0.6876
   61MOL0     H 8169   7.058   7.837   4.989 -1.2182  1.7047 -1.7057
   61MOL0     H 8170   7.386   7.794   5.240  0.2835  1.7409 -2.1464
   61MOL0     H 8171   7.402   7.972   5.266 -1.8328  0.5361 -1.5359
   61MOL0     H 8172   7.248   7.779   5.445  0.0023 -0.3251  0.7901
   61MOL0     H 8173   7.276   7.959   5.472  1.1856  0.9683 -2.6480
   61MOL0     H 8174   7.490   7.941   5.528 -1.7238  0.3338  2.2818
   61MOL0     H 8175   7.507   7.790   5.435 -1.3652 -0.6784 -0.3546
   61MOL0     H 8176   7.340   7.821   5.697  1.7035  1.0197  1.2600
   61MOL0     H 8177   7.384   7.674   5.618 -1.1369 -0.1055 -0.6854
   61MOL0     H 8178   7.634   7.773   5.654  0.7714 -0.6124  0.0513
   61MOL0     H 8179   7.564   7.896   5.756  1.1678  1.7426 -4.0646
   61MOL0     H 8180   7.472   7.692   5.910  0.3039  3.4652  0.9109
   61MOL0     H 8181   7.552   7.584   5.791  0.8027  0.6921 -2.7974
   61MOL0     H 8182   7.691   7.805   5.957  0.2007 -0.7955  0.0682
   61MOL0     H 8183   7.767   7.674   5.865 -0.1937 -0.4069  0.1363
   61MOL0     H 8184   7.585   7.649   6.075 -0.9128  0.4338 -1.7705
   61MOL0     H 8185   7.677   7.503   6.017  0.3019 -0.8766  2.5424
   61MOL0     H 8186   7.959   7.510   6.016  0.3077 -0.4909  0.1327
   61MOL0     H 8187   8.191   7.519   6.145 -0.2481 -0.4594 -2.8522
   61MOL0     H 8188   8.203   7.687   6.100 -1.1489 -0.1122  0.2851
   61MOL0     H 8189   8.195   7.753   6.345 -2.6681 -0.0381 -0.4684
   61MOL0     H 8190   8.160   7.580   6.373 -1.9251 -1.0400 -2.9552
   61MOL0     H 8191   8.410   7.712   6.225  0.3517  0.7873  1.3308
   61MOL0     H 8192   8.401   7.543   6.263  4.1035  0.0416  0.5021
   61MOL0     H 8193   8.388   7.593   6.504 -1.8071  3.4850  2.6157
   61MOL0     H 8194   8.424   7.767   6.483 -1.8333  2.0137 -2.9229
   61MOL0     H 8195   8.507   7.573   6.671 -0.2289  3.6237 -1.4814
   61MOL0     H 8196   8.643   7.464   6.841 -0.2574  4.3098  1.1119
   61MOL0     H 8197   9.102   7.054   6.730  0.3607 -3.5425  2.4464
   61MOL0     H 8198   9.251   6.945   6.862 -5.9301 -2.0006  0.1951
   61MOL0     H 8199   9.458   7.190   7.200 -1.6668  0.3416 -1.9009
   61MOL0     H 8200   9.320   7.121   7.273 -0.9062 -2.8779 -0.6606
   61MOL0     H 8201   9.485   7.038   7.409 -1.1716  1.8918 -1.0659
   61MOL0     H 8202   9.408   6.908   7.330  2.0519 -1.4558  0.8449
   61MOL0     H 8203   9.655   7.025   7.202  0.2682  1.5871  0.2189
   61MOL0     H 8204   9.669   6.937   7.348 -0.8546  0.3300 -0.1025
   61MOL0     H 8205   9.694   6.790   7.124 -0.7685  0.6318 -2.5576
   61MOL0     H 8206   9.529   6.810   7.108  2.1307 -1.7271 -1.4819
   61MOL0     H 8207   9.471   6.685   7.292  0.3961 -1.8045 -0.3706
   61MOL0     H 8208   9.636   6.703   7.369  2.6767  0.9141 -1.0906
   61MOL0     H 8209   9.735   6.590   7.148  0.6865 -1.3677  1.2351
   61MOL0     H 8210   9.644   6.492   7.275 -0.2662 -0.4935 -0.2475
   61MOL0     H 8211   9.559   6.579   7.006  0.4612 -0.4814  0.4254
   61MOL0     H 8212   9.436   6.566   7.116  0.7344  1.4864  0.8325
   61MOL0     H 8213   9.545   6.322   7.172 -2.2165 -1.4586  0.8721
   61MOL0     H 8214   9.462   6.334   7.017  0.0798 -0.2283  0.3817
   61MOL0     H 8215   9.275   7.288   7.127  1.2819 -0.3550 -0.9883
   61MOL0     H 8216   9.145   7.409   6.961 -0.1727  0.1598 -0.6747
   61MOL0     H 8217   8.956   7.421   6.542 -0.5018 -0.2581 -2.4237
   61MOL0     H 8218   8.819   7.530   6.386  1.4380 -1.9460 -0.2710
   61MOL0     H 8219   7.342   8.132   5.148  0.2492 -3.5612  0.9452
   61MOL0     H 8220   7.345   8.225   4.922  0.0633 -0.9349 -3.1526
   61MOL0     H 8221   7.127   8.375   4.613 -1.5868 -1.6516 -1.5528
   61MOL0     H 8222   7.098   8.519   4.437  0.0214  0.3256 -0.3579
   61MOL0     H 8223   7.108   8.646   4.269 -0.7638 -1.0877  1.4007
   61MOL0     H 8224   7.006   8.519   4.210 -1.3308  1.7517  0.4724
   61MOL0     H 8225   7.165   8.702   4.034  1.5013 -1.3077  2.4407
   61MOL0     H 8226   6.982   8.696   4.051  0.5763  1.0377 -0.8202
   61MOL0     H 8227   7.033   8.436   3.978 -2.8843  0.0811  0.0976
   61MOL0     H 8228   7.164   8.524   3.893 -1.2796  0.3989 -0.6072
   61MOL0     H 8229   6.954   8.681   3.827  1.6280  0.1828  2.2752
   61MOL0     H 8230   6.998   8.537   3.723 -0.9309 -2.0135  0.3848
   61MOL0     H 8231   6.618   8.463   3.883 -0.3116  2.2287 -1.8996
   61MOL0     H 8232   7.379   8.302   4.201  0.1935  3.9980 -2.0175
   61MOL0     H 8233   7.374   8.015   4.408 -1.3617  1.8799  3.2388
   61MOL0     H 8234   7.469   8.089   4.269  1.3545 -0.2182  1.5473
   61MOL0     H 8235   7.506   8.113   4.443  0.6902 -1.7488  0.3224
   62MOL0     O 8236   5.506   4.927   7.973  0.6990 -0.0584 -0.0596
   62MOL0     C 8237   5.552   4.878   8.074  0.5141 -0.7486  0.0789
   62MOL0     O 8238   5.684   4.861   8.105 -0.1925 -0.0086 -0.1190
   62MOL0     C 8239   5.772   4.856   7.998  0.8174  0.2468  0.1652
   62MOL0     C 8240   5.869   4.945   7.981 -0.2749  0.6789  0.0237
   62MOL0     C 8241   5.953   4.937   7.863 -1.1054  0.5063 -0.4718
   62MOL0     C 8242   5.932   4.835   7.770 -0.4736  0.6095 -0.6167
   62MOL0     O 8243   5.993   4.851   7.652 -0.6837 -0.1498  0.3007
   62MOL0     C 8244   5.984   4.763   7.540 -1.2535  0.4502  0.7791
   62MOL0     C 8245   6.065   4.637   7.548  0.0811 -0.1476  0.6521
   62MOL0     C 8246   6.211   4.671   7.522  0.8259  0.2751  0.3938
   62MOL0     C 8247   6.280   4.536   7.533  0.2860 -0.6121  0.2460
   62MOL0     C 8248   6.413   4.551   7.459 -0.2084  0.2103  0.1083
   62MOL0     C 8249   6.408   4.551   7.311  0.6865 -0.6636  0.2853
   62MOL0     C 8250   6.540   4.588   7.255  0.1566  0.6358  0.4770
   62MOL0     C 8251   6.562   4.551   7.104 -0.0199  0.6982  0.7616
   62MOL0     N 8252   6.447   4.585   7.021 -0.0957 -0.7512 -0.0453
   62MOL0     C 8253   6.420   4.716   6.991 -0.3627  0.0012 -0.9941
   62MOL0     C 8254   6.294   4.713   6.925  0.0207  0.9238  0.6841
   62MOL0     C 8255   6.207   4.827   6.876  0.5284  0.5313 -0.2790
   62MOL0     C 8256   6.118   4.782   6.760  1.0007  0.1878  0.6433
   62MOL0     C 8257   5.980   4.729   6.821  0.7299  0.0307  0.4681
   62MOL0     C 8258   5.878   4.694   6.706  0.2773 -0.0109  0.0884
   62MOL0     O 8259   5.871   4.797   6.612 -0.2740 -0.1862 -0.4244
   62MOL0     C 8260   5.872   4.748   6.483  0.0553 -0.9664 -0.1164
   62MOL0     C 8261   5.761   4.708   6.414  0.1457 -1.0080  0.2147
   62MOL0     C 8262   5.769   4.688   6.270  0.0590  0.4468  1.1938
   62MOL0     C 8263   5.893   4.698   6.200  0.3564  0.1883  0.2624
   62MOL0     C 8264   5.907   4.651   6.055  0.0696 -0.8980  0.2691
   62MOL0     O 8265   6.038   4.661   5.985 -0.0164  0.3761 -0.7646
   62MOL0     C 8266   6.049   4.643   5.851  0.3388  0.4282 -0.4709
   62MOL0     C 8267   6.006   4.528   5.785  1.0430 -0.5943  0.4906
   62MOL0     C 8268   6.029   4.512   5.653 -0.9469 -0.6274 -0.0150
   62MOL0     C 8269   6.112   4.604   5.585  0.6513  0.2330  0.2063
   62MOL0     O 8270   6.140   4.568   5.453  0.7063 -1.1487 -0.6835
   62MOL0     C 8271   6.111   4.665   5.351  1.4806 -0.4398 -0.2642
   62MOL0     C 8272   6.015   4.603   5.254 -0.2891  0.8858  0.2279
   62MOL0     C 8273   5.992   4.701   5.139 -0.0335  0.0081 -0.3952
   62MOL0     C 8274   5.850   4.703   5.086 -0.6104  0.8461  0.6503
   62MOL0     C 8275   5.831   4.745   4.941  0.4476  0.4783  1.1137
   62MOL0     C 8276   5.834   4.903   4.924 -0.2759  1.1576 -0.2422
   62MOL0     C 8277   5.765   4.954   4.795 -0.4125  0.4148 -0.5565
   62MOL0     C 8278   5.617   4.968   4.830 -0.3108 -0.0495  0.2197
   62MOL0    Cl 8279   5.517   4.999   4.684  0.3730 -0.0945  0.0754
   62MOL0     C 8280   6.153   4.720   5.652 -1.1369  0.0487  0.0648
   62MOL0     C 8281   6.122   4.740   5.792  1.2477 -0.0562  0.1556
   62MOL0     O 8282   5.797   4.629   5.996  0.7098  0.7224 -1.3696
   62MOL0     C 8283   6.012   4.725   6.276  0.3865  0.1320  0.3875
   62MOL0     C 8284   5.994   4.751   6.410  0.0593 -0.4264 -0.0009
   62MOL0     N 8285   6.258   4.577   6.910 -0.5753 -0.4935 -0.1515
   62MOL0     N 8286   6.343   4.509   6.974 -0.1678 -0.4334 -0.0004
   62MOL0     C 8287   5.835   4.735   7.794 -0.1496  0.2009 -0.0017
   62MOL0     C 8288   5.766   4.743   7.913  0.0415  0.4175 -0.1651
   62MOL0     C 8289   5.465   4.840   8.179  0.3046  0.5576 -0.8853
   62MOL0     C 8290   5.473   4.891   8.310  0.1439 -0.2871 -0.1862
   62MOL0     C 8291   5.382   4.853   8.417 -0.9247  0.2431  0.7201
   62MOL0     C 8292   5.284   4.759   8.395  0.3806  0.5337 -0.7724
   62MOL0     O 8293   5.216   4.687   8.490 -0.6664  0.2343 -0.0944
   62MOL0     C 8294   5.138   4.774   8.575 -0.4061 -0.1242  0.6856
   62MOL0     C 8295   5.035   4.679   8.647  0.2661 -0.6827  0.7410
   62MOL0     C 8296   5.087   4.591   8.760  0.3652 -0.0636  0.5425
   62MOL0     C 8297   4.982   4.476   8.809 -1.4325 -0.4760  0.5036
   62MOL0     C 8298   4.932   4.380   8.709  0.4917  1.0879  0.1152
   62MOL0     C 8299   4.883   4.285   8.647 -0.5681  0.0039 -0.4443
   62MOL0     C 8300   5.281   4.709   8.261  0.0504 -0.5044  0.1413
   62MOL0     C 8301   5.360   4.750   8.154 -0.3237  0.1403 -0.2804
   62MOL0     C 8302   5.330   4.696   8.019  0.4600 -0.3311 -0.5214
   62MOL0     H 8303   5.888   5.020   8.057 -2.2473 -0.5256  1.8170
   62MOL0     H 8304   6.023   5.016   7.839 -1.2630  0.8150  0.0553
   62MOL0     H 8305   5.879   4.742   7.519 -0.4445 -1.1752 -2.2307
   62MOL0     H 8306   6.016   4.820   7.452 -2.3417 -0.8198 -0.4805
   62MOL0     H 8307   6.036   4.569   7.467  2.8835 -0.8853  0.1705
   62MOL0     H 8308   6.039   4.602   7.648 -2.8778 -0.3931 -0.0974
   62MOL0     H 8309   6.263   4.746   7.583  3.0329  0.5162 -1.6643
   62MOL0     H 8310   6.214   4.707   7.419  2.2652  0.6895  0.5579
   62MOL0     H 8311   6.286   4.505   7.638 -1.3289 -0.7817  0.3113
   62MOL0     H 8312   6.238   4.449   7.482  1.4689 -0.8049 -0.4146
   62MOL0     H 8313   6.466   4.645   7.481  0.8949 -0.4973  0.6073
   62MOL0     H 8314   6.485   4.478   7.499 -1.0615 -0.2168  0.8860
   62MOL0     H 8315   6.392   4.450   7.270 -0.8335 -0.4380  0.2581
   62MOL0     H 8316   6.337   4.624   7.273  1.8202 -1.4569 -3.8512
   62MOL0     H 8317   6.619   4.531   7.306  3.0330  2.7630 -1.3340
   62MOL0     H 8318   6.569   4.693   7.265  3.2442 -0.0237 -0.6072
   62MOL0     H 8319   6.652   4.596   7.061 -0.0896  0.2595  0.1381
   62MOL0     H 8320   6.574   4.445   7.082 -0.0381  0.8538 -0.0357
   62MOL0     H 8321   6.467   4.801   7.040  1.5341 -1.2244 -0.6181
   62MOL0     H 8322   6.143   4.869   6.955 -1.3690 -2.8459  0.1755
   62MOL0     H 8323   6.271   4.905   6.834  0.3510  1.1346  0.5439
   62MOL0     H 8324   6.084   4.874   6.711  1.9096  2.0471  3.2448
   62MOL0     H 8325   6.168   4.712   6.693  0.4440  1.9943 -1.8212
   62MOL0     H 8326   5.936   4.802   6.890  0.1245  0.3835 -0.2676
   62MOL0     H 8327   5.990   4.636   6.877  2.0867 -0.3754 -0.4186
   62MOL0     H 8328   5.777   4.679   6.745  0.8879 -3.8317  0.5936
   62MOL0     H 8329   5.900   4.602   6.651 -1.9076  0.8842 -2.4946
   62MOL0     H 8330   5.665   4.694   6.463 -0.5622 -1.1467 -1.1822
   62MOL0     H 8331   5.678   4.669   6.214  1.3391 -0.6939 -0.5743
   62MOL0     H 8332   5.953   4.443   5.827  0.3951 -1.1970 -1.4111
   62MOL0     H 8333   6.002   4.420   5.603 -1.0549 -1.0512  0.8055
   62MOL0     H 8334   6.068   4.760   5.385 -1.6353 -2.2308  1.2172
   62MOL0     H 8335   6.208   4.686   5.303  2.2881  0.7077  1.7404
   62MOL0     H 8336   6.067   4.512   5.221 -0.0071  0.5299  1.6092
   62MOL0     H 8337   5.924   4.572   5.306  0.7353 -2.2897  0.3586
   62MOL0     H 8338   6.035   4.799   5.162  1.8863 -0.3054 -2.2915
   62MOL0     H 8339   6.048   4.661   5.053 -0.9782 -0.0074 -1.0234
   62MOL0     H 8340   5.799   4.779   5.146 -3.6713 -1.0973  0.7254
   62MOL0     H 8341   5.800   4.607   5.104 -3.0549  1.5968 -1.4045
   62MOL0     H 8342   5.730   4.711   4.917 -0.0193  1.1742  2.0449
   62MOL0     H 8343   5.900   4.696   4.871 -0.0195  0.9085  0.3447
   62MOL0     H 8344   5.779   4.937   5.012 -2.2343 -0.3574 -0.8128
   62MOL0     H 8345   5.936   4.943   4.934 -0.7315  1.9109  1.8473
   62MOL0     H 8346   5.767   4.873   4.721 -1.8727  1.3403 -1.6525
   62MOL0     H 8347   5.816   5.044   4.757  0.8758 -0.0894 -0.1029
   62MOL0     H 8348   5.589   4.877   4.883  1.5837  0.9074  3.0887
   62MOL0     H 8349   5.600   5.055   4.895 -2.2367  0.7957 -1.3108
   62MOL0     H 8350   6.219   4.785   5.595 -1.5814 -0.4473 -1.0454
   62MOL0     H 8351   6.171   4.816   5.851 -0.3333 -0.8901  2.6626
   62MOL0     H 8352   6.107   4.721   6.224  0.2369  3.8619 -0.4637
   62MOL0     H 8353   6.077   4.791   6.468  0.8166 -1.8098 -0.0934
   62MOL0     H 8354   5.813   4.656   7.722 -1.8475 -1.1647  1.9095
   62MOL0     H 8355   5.704   4.657   7.936  0.6551 -0.3495 -1.3059
   62MOL0     H 8356   5.550   4.965   8.324  1.4281 -1.6902  0.4284
   62MOL0     H 8357   5.404   4.893   8.515 -0.2580  0.6929  0.3921
   62MOL0     H 8358   5.093   4.854   8.515  1.1912  2.7290  3.0151
   62MOL0     H 8359   5.204   4.819   8.650 -0.1313 -1.2097  1.1058
   62MOL0     H 8360   4.968   4.634   8.573  3.0807 -2.3908 -0.9469
   62MOL0     H 8361   4.961   4.747   8.691  1.2591  0.5381  0.5813
   62MOL0     H 8362   5.105   4.658   8.844 -1.3856  3.8750 -1.9384
   62MOL0     H 8363   5.180   4.541   8.730  0.8799 -0.8022  3.1438
   62MOL0     H 8364   5.023   4.420   8.893 -3.0411  2.0650  3.1653
   62MOL0     H 8365   4.894   4.530   8.844 -3.0080 -1.2787 -1.9714
   62MOL0     H 8366   4.836   4.206   8.592  1.0678 -0.0074 -1.9328
   62MOL0     H 8367   5.211   4.628   8.244  1.5737 -1.8105 -0.1866
   62MOL0     H 8368   5.238   4.639   8.037  1.4787 -1.5674  1.0645
   62MOL0     H 8369   5.322   4.774   7.943 -3.0137 -0.6887 -0.6962
   62MOL0     H 8370   5.402   4.621   7.985  1.7479  0.1858  0.9443
   63MOL0     O 8371   7.171  10.694   0.865  0.1745  0.2863  0.3119
   63MOL0     C 8372   7.214  10.660   0.752  0.0687  0.0065 -0.6639
   63MOL0     O 8373   7.214  10.527   0.703  0.0086  0.1337  0.7314
   63MOL0     C 8374   7.174  10.425   0.786 -0.7394 -0.8263  0.4119
   63MOL0     C 8375   7.208  10.422   0.918 -0.4277  0.9632 -0.4066
   63MOL0     C 8376   7.152  10.326   1.001 -0.1548 -0.2633 -0.0636
   63MOL0     C 8377   7.072  10.222   0.953 -0.7128 -0.4990  0.1901
   63MOL0     O 8378   7.040  10.104   1.022 -0.3970 -0.2589 -0.0663
   63MOL0     C 8379   7.075  10.094   1.164  0.0695 -0.4583 -0.1207
   63MOL0     C 8380   7.224  10.055   1.171 -0.5560 -0.2115 -0.8254
   63MOL0     C 8381   7.267  10.064   1.317 -0.0897 -0.3180 -0.5433
   63MOL0     C 8382   7.211   9.951   1.406  0.2594 -0.0748  0.2622
   63MOL0     C 8383   7.298   9.922   1.524  0.4294  0.4879 -0.6614
   63MOL0     C 8384   7.318  10.029   1.626  0.0639  0.6001  0.0406
   63MOL0     C 8385   7.191  10.108   1.675  0.4147  0.9786  0.0193
   63MOL0     C 8386   7.232  10.215   1.779 -0.5690 -0.4461 -0.4559
   63MOL0     N 8387   7.114  10.273   1.833 -0.6742  0.9747  0.6380
   63MOL0     C 8388   7.045  10.382   1.782 -0.5200 -0.5988  0.8196
   63MOL0     C 8389   6.933  10.393   1.850  1.0025 -0.2216  0.1423
   63MOL0     C 8390   6.816  10.493   1.841 -0.3345  0.3500 -0.5225
   63MOL0     C 8391   6.686  10.458   1.914  1.1262 -0.8708 -0.2037
   63MOL0     C 8392   6.626  10.318   1.872  0.8070  0.4722 -0.7322
   63MOL0     C 8393   6.506  10.285   1.961  0.2778  1.1311 -0.4610
   63MOL0     O 8394   6.401  10.378   1.941  0.1728 -0.2513  0.0789
   63MOL0     C 8395   6.332  10.376   1.823  0.5690  0.3728 -0.4972
   63MOL0     C 8396   6.326  10.272   1.733  0.0390 -0.1963 -0.2378
   63MOL0     C 8397   6.240  10.271   1.628  0.6116 -0.0823  0.4112
   63MOL0     C 8398   6.140  10.375   1.616 -0.2468 -0.2402 -0.4587
   63MOL0     C 8399   6.030  10.388   1.514 -0.2610 -0.8907  1.0073
   63MOL0     O 8400   5.993  10.270   1.465  0.5811  0.4403  0.2912
   63MOL0     C 8401   5.875  10.261   1.395 -0.9631  0.6664  0.5783
   63MOL0     C 8402   5.753  10.266   1.461  0.1252 -0.0242  0.8410
   63MOL0     C 8403   5.637  10.217   1.397  0.8295 -0.2896 -0.3864
   63MOL0     C 8404   5.634  10.178   1.263 -0.3945 -0.9003  0.5161
   63MOL0     O 8405   5.521  10.139   1.194 -0.2220  0.0319  0.9543
   63MOL0     C 8406   5.394  10.157   1.264  1.0932  0.9838 -0.6573
   63MOL0     C 8407   5.276  10.161   1.166 -0.0891  0.1431 -0.5153
   63MOL0     C 8408   5.301  10.075   1.040 -0.2107  0.3936 -0.4473
   63MOL0     C 8409   5.183  10.069   0.947  0.6655  0.2940 -0.2323
   63MOL0     C 8410   5.209   9.999   0.813  0.1224  0.3787 -0.5918
   63MOL0     C 8411   5.259   9.854   0.824  0.3410  0.3055 -0.9377
   63MOL0     C 8412   5.263   9.790   0.684  0.1706 -0.4331  0.0367
   63MOL0     C 8413   5.324   9.646   0.687  1.0894 -1.0796 -0.1187
   63MOL0    Cl 8414   5.349   9.590   0.514  0.2042  0.2402 -0.1394
   63MOL0     C 8415   5.758  10.168   1.198 -0.2456  0.4361 -0.4221
   63MOL0     C 8416   5.880  10.208   1.266 -0.8060 -0.7798 -0.0328
   63MOL0     O 8417   5.984  10.497   1.477  0.9986 -1.1541  0.0965
   63MOL0     C 8418   6.156  10.490   1.696  0.0445  0.1642 -0.9846
   63MOL0     C 8419   6.257  10.490   1.796  0.0114  0.0667 -0.0893
   63MOL0     N 8420   6.932  10.292   1.943 -1.5128  0.9296 -0.0286
   63MOL0     N 8421   7.045  10.218   1.937  0.0747 -1.1188 -0.5924
   63MOL0     C 8422   7.050  10.220   0.818 -0.4019 -0.5905 -0.5561
   63MOL0     C 8423   7.096  10.322   0.736  0.9154  0.0588 -0.6532
   63MOL0     C 8424   7.273  10.756   0.663  0.7078  0.2376  0.0752
   63MOL0     C 8425   7.337  10.714   0.543  0.7320  0.7466 -0.5632
   63MOL0     C 8426   7.384  10.803   0.450 -0.0556 -0.0833 -0.0858
   63MOL0     C 8427   7.376  10.948   0.460 -0.1798  0.7120 -0.1864
   63MOL0     O 8428   7.411  11.037   0.361 -0.0660  0.1098  0.3820
   63MOL0     C 8429   7.538  11.024   0.300 -0.1017 -0.3339 -0.2608
   63MOL0     C 8430   7.537  11.128   0.183  0.7371 -0.1437  0.4972
   63MOL0     C 8431   7.531  11.275   0.222  0.2348  0.4785  0.1997
   63MOL0     C 8432   7.507  11.354   0.099 -0.0442  0.0373  0.5024
   63MOL0     C 8433   7.617  11.360  -0.000  0.9449  0.1072  0.3653
   63MOL0     C 8434   7.704  11.356  -0.085  0.2230  0.5430 -1.3582
   63MOL0     C 8435   7.304  10.991   0.572  0.2208 -0.5892 -1.0470
   63MOL0     C 8436   7.248  10.897   0.668  0.0804 -1.2430 -1.1318
   63MOL0     C 8437   7.150  10.969   0.762 -0.0412 -0.3425  0.2561
   63MOL0     H 8438   7.274  10.494   0.966 -2.2484  1.7945  0.9677
   63MOL0     H 8439   7.180  10.323   1.106 -0.1954 -3.6812 -0.0506
   63MOL0     H 8440   7.051  10.191   1.208  0.8579 -0.2965 -0.0244
   63MOL0     H 8441   7.014  10.011   1.199 -0.5914 -0.6905 -1.7278
   63MOL0     H 8442   7.289  10.127   1.121  1.0610 -1.7567 -1.0812
   63MOL0     H 8443   7.248   9.956   1.132  1.3098  0.0717 -0.4966
   63MOL0     H 8444   7.238  10.161   1.358  0.9802  0.9316 -2.6038
   63MOL0     H 8445   7.376  10.058   1.310 -0.1863 -0.0696 -2.9525
   63MOL0     H 8446   7.107   9.971   1.435  1.4202  5.0525  1.9610
   63MOL0     H 8447   7.207   9.854   1.354  2.4119  0.1899 -0.5134
   63MOL0     H 8448   7.263   9.831   1.573  3.8176 -1.7502 -2.0014
   63MOL0     H 8449   7.398   9.887   1.495  0.8763 -0.3039  1.6269
   63MOL0     H 8450   7.371   9.984   1.710 -2.2281 -1.3617  0.5363
   63MOL0     H 8451   7.388  10.103   1.585  1.3783  0.7186  2.3614
   63MOL0     H 8452   7.115  10.035   1.703  2.2544 -0.3148  1.9771
   63MOL0     H 8453   7.145  10.171   1.599  0.8641  1.9108  0.4906
   63MOL0     H 8454   7.293  10.178   1.862 -3.6400  0.2663  2.3312
   63MOL0     H 8455   7.293  10.286   1.722  1.3749 -2.1332 -0.5913
   63MOL0     H 8456   7.083  10.446   1.703 -0.2258 -2.6581 -0.7767
   63MOL0     H 8457   6.844  10.589   1.883  1.7814 -0.3521 -0.2326
   63MOL0     H 8458   6.796  10.507   1.734 -2.8226 -0.7338 -0.2815
   63MOL0     H 8459   6.695  10.463   2.023 -1.1671  2.7238 -0.0353
   63MOL0     H 8460   6.618  10.540   1.892  3.8797  1.1358 -1.8967
   63MOL0     H 8461   6.696  10.233   1.877  1.3516  0.8699 -1.3642
   63MOL0     H 8462   6.578  10.324   1.774 -3.7634  1.2105  1.3153
   63MOL0     H 8463   6.550  10.294   2.061  0.5020  0.6133 -0.5089
   63MOL0     H 8464   6.475  10.182   1.940  0.4269  0.7674  1.0236
   63MOL0     H 8465   6.388  10.183   1.738 -0.9343 -0.8362  0.9097
   63MOL0     H 8466   6.222  10.179   1.574  1.2408  0.2657 -0.4210
   63MOL0     H 8467   5.763  10.297   1.565  1.8651 -0.0204  0.7061
   63MOL0     H 8468   5.543  10.224   1.451 -0.8083 -2.7206 -2.6480
   63MOL0     H 8469   5.383  10.073   1.334 -4.6875  1.8415 -0.0200
   63MOL0     H 8470   5.377  10.241   1.331 -3.2981 -0.1481 -0.0226
   63MOL0     H 8471   5.182  10.143   1.220  0.8555 -0.7811  0.8565
   63MOL0     H 8472   5.268  10.262   1.125 -2.9439  1.4095  2.6104
   63MOL0     H 8473   5.391  10.112   0.990 -0.4383  2.1632  0.3640
   63MOL0     H 8474   5.315   9.974   1.079 -2.8447  1.4490  3.9014
   63MOL0     H 8475   5.145  10.170   0.927  1.5432  0.9806  1.3840
   63MOL0     H 8476   5.103  10.021   1.004 -0.7363 -0.9675 -3.0444
   63MOL0     H 8477   5.285  10.064   0.769 -1.1049  2.3275  0.0753
   63MOL0     H 8478   5.115  10.004   0.758  1.1287 -0.0778 -2.4424
   63MOL0     H 8479   5.354   9.861   0.877  0.0820  0.6262 -0.5076
   63MOL0     H 8480   5.182   9.800   0.880 -1.9770 -0.2262 -4.2741
   63MOL0     H 8481   5.317   9.855   0.614 -0.5197  0.4479  0.3146
   63MOL0     H 8482   5.160   9.786   0.649 -0.8702 -2.4657  2.9458
   63MOL0     H 8483   5.430   9.653   0.714  0.6474 -2.4268  2.2411
   63MOL0     H 8484   5.275   9.574   0.753  2.8069  0.9073  3.6455
   63MOL0     H 8485   5.757  10.140   1.093 -2.3549  1.4123 -0.6997
   63MOL0     H 8486   5.968  10.196   1.204 -2.7733  0.4655 -3.3843
   63MOL0     H 8487   6.097  10.579   1.678  1.0624  0.9843 -0.3431
   63MOL0     H 8488   6.269  10.574   1.863  4.8330 -1.5062  1.4293
   63MOL0     H 8489   6.980  10.149   0.775 -0.4430 -0.4220 -0.7689
   63MOL0     H 8490   7.055  10.320   0.635  0.1877  1.1185 -0.3888
   63MOL0     H 8491   7.362  10.610   0.527  0.4566  1.0284 -3.1011
   63MOL0     H 8492   7.429  10.767   0.358  1.7873  2.2489 -0.1832
   63MOL0     H 8493   7.571  10.932   0.250  0.2976  1.1961 -3.0148
   63MOL0     H 8494   7.614  11.062   0.369 -1.4470  5.7049 -1.5329
   63MOL0     H 8495   7.443  11.106   0.132  0.9852 -0.0846  0.0043
   63MOL0     H 8496   7.626  11.120   0.120  0.7947  1.2655  0.3630
   63MOL0     H 8497   7.632  11.306   0.251  1.2198 -1.6932 -0.7246
   63MOL0     H 8498   7.453  11.282   0.299  0.7260 -4.5070  1.5188
   63MOL0     H 8499   7.417  11.306   0.060 -0.7632  1.2188  0.6499
   63MOL0     H 8500   7.494  11.457   0.134 -0.3376  0.2197 -0.1304
   63MOL0     H 8501   7.798  11.358  -0.135  1.2061 -1.0383  0.2797
   63MOL0     H 8502   7.295  11.099   0.586  0.4929 -0.8513  1.6870
   63MOL0     H 8503   7.114  11.063   0.721 -0.5969  0.5330  2.5549
   63MOL0     H 8504   7.064  10.910   0.795  0.5330 -0.3651  1.8007
   63MOL0     H 8505   7.200  10.988   0.858 -1.5596 -0.3407  1.0881
   64MOL0     O 8506   6.661   1.035  11.328  0.2342 -0.7037  0.2963
   64MOL0     C 8507   6.664   0.990  11.444  0.4330 -0.4934  0.7373
   64MOL0     O 8508   6.754   0.896  11.497  0.6487  0.4570  0.1742
   64MOL0     C 8509   6.876   0.891  11.439 -0.9468 -0.7570  0.8608
   64MOL0     C 8510   6.894   0.844  11.305  0.1928  0.2096  0.3567
   64MOL0     C 8511   7.018   0.851  11.244  0.3779 -0.4908  0.2038
   64MOL0     C 8512   7.122   0.913  11.305  0.2424  0.1772 -0.8041
   64MOL0     O 8513   7.232   0.907  11.224  0.2996  0.3498 -0.7236
   64MOL0     C 8514   7.365   0.932  11.272  0.5147  0.0317  0.3837
   64MOL0     C 8515   7.464   0.873  11.165 -0.0987  0.7099 -0.3153
   64MOL0     C 8516   7.423   0.739  11.094 -0.0139 -0.0764 -0.5379
   64MOL0     C 8517   7.440   0.629  11.198  0.6250  0.0574  0.3317
   64MOL0     C 8518   7.387   0.497  11.135  0.3987 -0.2131 -0.2691
   64MOL0     C 8519   7.415   0.376  11.231 -0.3989  0.8481  0.2452
   64MOL0     C 8520   7.566   0.351  11.248 -0.0030 -0.0685 -0.1082
   64MOL0     C 8521   7.612   0.211  11.209 -0.6260 -0.1738  0.3583
   64MOL0     N 8522   7.752   0.187  11.202  0.0763 -0.2356 -0.3556
   64MOL0     C 8523   7.838   0.225  11.300 -0.5932  0.6062 -0.6354
   64MOL0     C 8524   7.957   0.204  11.242 -0.8266  0.0669 -0.0256
   64MOL0     C 8525   8.091   0.215  11.303 -0.0050 -0.0427 -0.5164
   64MOL0     C 8526   8.100   0.111  11.415 -0.3079  0.6041  0.6354
   64MOL0     C 8527   8.110  -0.031  11.348  0.1376  0.1097  0.4069
   64MOL0     C 8528   8.130  -0.140  11.451  0.2349  0.2793  0.1822
   64MOL0     O 8529   8.026  -0.137  11.549 -0.3700  0.2331 -0.2671
   64MOL0     C 8530   8.014  -0.245  11.633  0.0889  0.6876  0.4304
   64MOL0     C 8531   7.921  -0.226  11.732  0.7625 -0.3911 -0.6854
   64MOL0     C 8532   7.888  -0.319  11.832 -0.4099  0.0980  0.6062
   64MOL0     C 8533   7.953  -0.444  11.830  0.1345 -0.9085  0.0714
   64MOL0     C 8534   7.931  -0.535  11.937  0.0635  0.7534  0.5104
   64MOL0     O 8535   7.829  -0.501  12.026 -0.5515 -0.1553  0.5790
   64MOL0     C 8536   7.799  -0.608  12.100 -0.3072 -0.6143  0.3351
   64MOL0     C 8537   7.874  -0.639  12.212 -0.3635  0.0665  0.1641
   64MOL0     C 8538   7.855  -0.749  12.288 -0.4603  0.1298 -0.5581
   64MOL0     C 8539   7.737  -0.824  12.262 -0.0024  0.6139  0.2735
   64MOL0     O 8540   7.722  -0.938  12.349 -0.6926  0.0068  0.0980
   64MOL0     C 8541   7.588  -0.970  12.385 -0.7803 -0.0804  0.9735
   64MOL0     C 8542   7.568  -1.119  12.425 -0.4863  0.9525  0.7302
   64MOL0     C 8543   7.619  -1.175  12.546 -0.6084  0.1739 -0.4693
   64MOL0     C 8544   7.544  -1.111  12.667 -0.8616  0.3246  0.7407
   64MOL0     C 8545   7.607  -1.179  12.793 -0.1573  0.0027  0.4726
   64MOL0     C 8546   7.560  -1.099  12.918 -0.5094  0.1137  0.5215
   64MOL0     C 8547   7.595  -1.164  13.049 -0.2990  0.3539 -0.8847
   64MOL0     C 8548   7.725  -1.099  13.114 -0.0131 -0.3505  0.3260
   64MOL0    Cl 8549   7.664  -0.962  13.214 -0.2393  0.1510 -0.9435
   64MOL0     C 8550   7.650  -0.795  12.147 -0.3320 -0.6975 -0.3056
   64MOL0     C 8551   7.681  -0.680  12.081 -0.3532  0.4726  0.8157
   64MOL0     O 8552   7.997  -0.638  11.926  1.1867 -0.3475  0.3612
   64MOL0     C 8553   8.052  -0.469  11.722  0.1868 -0.5170 -0.2260
   64MOL0     C 8554   8.078  -0.372  11.632 -0.0451 -0.3742 -0.2862
   64MOL0     N 8555   7.941   0.140  11.121 -0.1438  1.0296 -0.3770
   64MOL0     N 8556   7.817   0.127  11.105 -0.9289 -0.7182  0.2030
   64MOL0     C 8557   7.108   0.953  11.443 -0.3967  0.0186  0.0932
   64MOL0     C 8558   6.986   0.952  11.506  0.7618  0.8919  0.0399
   64MOL0     C 8559   6.561   1.042  11.543 -0.5241 -0.1029  0.3458
   64MOL0     C 8560   6.528   0.970  11.662 -0.2520  0.1835 -0.0647
   64MOL0     C 8561   6.433   1.021  11.756 -0.4792 -0.2722  0.0714
   64MOL0     C 8562   6.380   1.146  11.749  0.3188 -1.2394  0.5208
   64MOL0     O 8563   6.315   1.199  11.861 -1.0774 -0.0783 -0.8773
   64MOL0     C 8564   6.274   1.336  11.854  0.2882  0.6369 -0.4362
   64MOL0     C 8565   6.383   1.430  11.883 -0.6464  0.3295 -0.2978
   64MOL0     C 8566   6.317   1.572  11.881 -0.1772  0.1686 -0.1059
   64MOL0     C 8567   6.408   1.670  11.937 -0.8582 -0.7631 -0.2997
   64MOL0     C 8568   6.369   1.715  12.073 -0.0897 -0.6949 -0.4031
   64MOL0     C 8569   6.328   1.744  12.187 -0.9121 -0.1573  0.4335
   64MOL0     C 8570   6.417   1.212  11.630  0.7356  0.5295 -0.1023
   64MOL0     C 8571   6.489   1.160  11.517  0.5422  0.4554 -0.6938
   64MOL0     C 8572   6.505   1.251  11.398 -0.0703  0.1648  1.1387
   64MOL0     H 8573   6.817   0.793  11.248  1.0096 -2.6540  1.6271
   64MOL0     H 8574   7.038   0.816  11.143  1.0773 -2.0839  0.8539
   64MOL0     H 8575   7.375   1.041  11.271 -1.2623  0.2394  1.5297
   64MOL0     H 8576   7.377   0.891  11.372  2.2337  1.3966  0.7824
   64MOL0     H 8577   7.559   0.862  11.217  0.3393  2.0314 -0.7879
   64MOL0     H 8578   7.473   0.948  11.086  0.6334 -0.7295 -1.6630
   64MOL0     H 8579   7.487   0.713  11.010  3.2965  0.6644  1.5793
   64MOL0     H 8580   7.320   0.747  11.058  0.1101  2.2947 -0.4678
   64MOL0     H 8581   7.540   0.611  11.238  0.3572 -0.3945  0.8030
   64MOL0     H 8582   7.374   0.654  11.281 -0.4542 -2.3339  0.2776
   64MOL0     H 8583   7.280   0.502  11.112 -0.0773 -1.0751  1.6091
   64MOL0     H 8584   7.417   0.481  11.031 -0.8039 -3.6709 -0.2056
   64MOL0     H 8585   7.371   0.402  11.328  0.8733 -0.6677  1.2981
   64MOL0     H 8586   7.381   0.284  11.183  1.3986  0.6225 -0.6659
   64MOL0     H 8587   7.588   0.338  11.355 -0.8789 -2.3521 -0.1567
   64MOL0     H 8588   7.634   0.415  11.191  0.4241 -0.9842 -0.6542
   64MOL0     H 8589   7.567   0.145  11.284 -3.7080  0.6449 -0.6328
   64MOL0     H 8590   7.566   0.184  11.113 -4.7545 -0.5081  2.2031
   64MOL0     H 8591   7.819   0.254  11.403 -0.8919  1.7965 -1.0094
   64MOL0     H 8592   8.170   0.209  11.228  1.0667  2.7200  0.2497
   64MOL0     H 8593   8.098   0.318  11.340  1.1484 -1.0706  2.4487
   64MOL0     H 8594   8.187   0.124  11.479 -1.1131 -2.0279  2.4413
   64MOL0     H 8595   8.006   0.117  11.470 -2.4517  2.4609 -2.8816
   64MOL0     H 8596   8.198  -0.033  11.284  0.3272 -1.5781  0.6816
   64MOL0     H 8597   8.028  -0.038  11.276  1.2355  1.4373 -1.0360
   64MOL0     H 8598   8.229  -0.117  11.492 -0.4240  0.4573  1.7278
   64MOL0     H 8599   8.133  -0.236  11.400  3.3693  0.8252 -0.9268
   64MOL0     H 8600   7.860  -0.136  11.735  0.9645 -0.2778  0.2166
   64MOL0     H 8601   7.806  -0.306  11.901 -0.0436 -0.1193  1.0911
   64MOL0     H 8602   7.949  -0.571  12.252  1.1117 -1.4966  0.1661
   64MOL0     H 8603   7.920  -0.762  12.374  0.9132  0.6764 -1.4780
   64MOL0     H 8604   7.555  -0.907  12.469  0.1098 -0.3066  1.4977
   64MOL0     H 8605   7.517  -0.958  12.303 -1.8728  2.1076  2.1397
   64MOL0     H 8606   7.461  -1.137  12.414 -0.0145 -1.3702 -0.7114
   64MOL0     H 8607   7.621  -1.169  12.343 -1.0090  0.9190  0.4136
   64MOL0     H 8608   7.610  -1.283  12.533  3.8307 -1.1801  4.1073
   64MOL0     H 8609   7.726  -1.154  12.556 -0.5121 -0.3386 -0.3824
   64MOL0     H 8610   7.436  -1.127  12.660 -0.6431 -1.0711  0.0682
   64MOL0     H 8611   7.539  -1.002  12.674 -2.3142  0.2948  0.3846
   64MOL0     H 8612   7.714  -1.158  12.789  0.7286 -3.5962  1.8839
   64MOL0     H 8613   7.580  -1.285  12.793 -0.0891 -0.0417  2.2283
   64MOL0     H 8614   7.593  -0.995  12.910  0.7237 -0.3108 -0.1604
   64MOL0     H 8615   7.451  -1.099  12.918 -0.6478 -0.6772 -3.0150
   64MOL0     H 8616   7.621  -1.268  13.032  0.6846  0.5255 -0.4986
   64MOL0     H 8617   7.512  -1.161  13.121  1.1982  0.1943  0.9231
   64MOL0     H 8618   7.772  -1.170  13.183  0.5757  0.4775  0.7975
   64MOL0     H 8619   7.788  -1.063  13.032 -0.2304  1.8704  1.0785
   64MOL0     H 8620   7.566  -0.859  12.123 -0.1252 -0.1448 -2.6917
   64MOL0     H 8621   7.628  -0.647  11.992 -2.2043 -0.2387  1.6160
   64MOL0     H 8622   8.110  -0.559  11.702  0.0302 -0.4538 -0.9988
   64MOL0     H 8623   8.144  -0.402  11.551  0.7789 -2.9013  1.2131
   64MOL0     H 8624   7.199   0.991  11.488 -0.6440 -1.1059  1.5965
   64MOL0     H 8625   6.971   0.989  11.607 -2.9655  1.0639 -0.4233
   64MOL0     H 8626   6.570   0.870  11.666 -0.6498 -0.1928 -3.1572
   64MOL0     H 8627   6.418   0.960  11.844  0.9004 -0.8960 -0.1049
   64MOL0     H 8628   6.197   1.346  11.932  0.8326  1.3080  0.0317
   64MOL0     H 8629   6.229   1.363  11.758 -0.4008  2.2759  0.3076
   64MOL0     H 8630   6.450   1.427  11.797 -2.1203 -2.3821 -1.4812
   64MOL0     H 8631   6.428   1.406  11.979 -1.0268 -2.7097 -0.7863
   64MOL0     H 8632   6.223   1.576  11.937 -0.6290  0.5328 -0.8862
   64MOL0     H 8633   6.286   1.600  11.780  1.9166  3.5009  0.0246
   64MOL0     H 8634   6.509   1.629  11.937 -0.5174 -0.0712 -2.5880
   64MOL0     H 8635   6.399   1.757  11.870 -1.5959  0.1749  0.9593
   64MOL0     H 8636   6.290   1.751  12.287  1.3026 -0.0992  1.3458
   64MOL0     H 8637   6.361   1.303  11.610  0.3820  0.4211  0.3937
   64MOL0     H 8638   6.614   1.262  11.395 -0.1310  0.6338  0.6243
   64MOL0     H 8639   6.470   1.196  11.310 -0.4553  1.2333  0.6052
   64MOL0     H 8640   6.450   1.344  11.411  2.3903  1.4842  2.9589
   65MOL0     O 8641   6.639   0.179   5.227  0.9906  0.1229  0.9896
   65MOL0     C 8642   6.697   0.068   5.257  0.6190 -0.0089  0.0075
   65MOL0     O 8643   6.766   0.052   5.376  0.2289 -0.2727 -0.6365
   65MOL0     C 8644   6.745   0.143   5.476 -0.1696 -0.1411  0.5774
   65MOL0     C 8645   6.801   0.271   5.471  0.0374  0.3368 -0.3339
   65MOL0     C 8646   6.791   0.355   5.584  0.7693 -0.1037 -0.2004
   65MOL0     C 8647   6.727   0.313   5.697  1.5596 -0.4223 -0.4009
   65MOL0     O 8648   6.697   0.399   5.799 -0.1453  0.6670 -0.1078
   65MOL0     C 8649   6.763   0.394   5.931  0.3466 -0.1538 -0.0212
   65MOL0     C 8650   6.674   0.458   6.032 -0.1420 -1.1933 -0.3143
   65MOL0     C 8651   6.552   0.382   6.073  0.3276 -1.1648  0.2051
   65MOL0     C 8652   6.562   0.239   6.111 -0.4414 -0.0475 -0.1063
   65MOL0     C 8653   6.618   0.231   6.253 -0.2985  0.4019 -0.0411
   65MOL0     C 8654   6.621   0.083   6.302  0.1409 -0.3297 -0.3964
   65MOL0     C 8655   6.670   0.075   6.447  0.7344  0.3312 -0.1713
   65MOL0     C 8656   6.712  -0.062   6.504  1.3441  1.3266 -0.4171
   65MOL0     N 8657   6.838  -0.113   6.460 -0.2264  0.7130  0.5067
   65MOL0     C 8658   6.960  -0.056   6.483 -0.1930  0.0388 -0.5056
   65MOL0     C 8659   7.059  -0.137   6.438  0.4234  0.0482 -0.8071
   65MOL0     C 8660   7.203  -0.108   6.421  0.7472  0.5977 -1.0982
   65MOL0     C 8661   7.262  -0.152   6.282 -0.8433  0.5051  0.1470
   65MOL0     C 8662   7.415  -0.108   6.281  0.4085  0.5402 -0.4186
   65MOL0     C 8663   7.491  -0.132   6.143  0.2957  0.2285 -0.0098
   65MOL0     O 8664   7.482  -0.275   6.127  0.3314 -0.0687  0.0120
   65MOL0     C 8665   7.568  -0.367   6.193 -0.0267 -0.0780  0.1097
   65MOL0     C 8666   7.690  -0.325   6.240  0.3254  0.5816 -0.8743
   65MOL0     C 8667   7.772  -0.414   6.306  1.2103 -0.8919 -0.1647
   65MOL0     C 8668   7.738  -0.541   6.338  0.0384 -0.5714 -0.1421
   65MOL0     C 8669   7.819  -0.630   6.421 -0.4321  0.7123 -0.0987
   65MOL0     O 8670   7.957  -0.620   6.423  0.3284 -0.4773 -0.2483
   65MOL0     C 8671   8.017  -0.687   6.524 -1.2119 -0.6032 -0.2039
   65MOL0     C 8672   8.092  -0.804   6.504 -0.2765  0.9080 -0.0222
   65MOL0     C 8673   8.181  -0.855   6.605  0.1818  0.1223  0.6745
   65MOL0     C 8674   8.190  -0.790   6.729 -0.4743  0.1149  0.1855
   65MOL0     O 8675   8.270  -0.854   6.820  0.2675  0.5006  0.2472
   65MOL0     C 8676   8.287  -0.789   6.951 -0.3438 -0.5871 -0.1752
   65MOL0     C 8677   8.387  -0.882   7.023  0.2233 -0.1384  0.1760
   65MOL0     C 8678   8.439  -0.821   7.161 -0.4290  0.6966 -0.0139
   65MOL0     C 8679   8.335  -0.844   7.274  0.5792 -0.4122 -0.4595
   65MOL0     C 8680   8.355  -0.745   7.396  0.0300 -0.2576  0.3863
   65MOL0     C 8681   8.260  -0.803   7.507 -0.4018 -0.4070 -0.7022
   65MOL0     C 8682   8.236  -0.700   7.622 -0.6875  0.3802 -0.0696
   65MOL0     C 8683   8.138  -0.594   7.586 -0.5563  0.1758  0.2475
   65MOL0    Cl 8684   7.982  -0.674   7.604 -0.5549 -0.6288  0.2310
   65MOL0     C 8685   8.107  -0.674   6.760  0.6063  0.4172  0.3581
   65MOL0     C 8686   8.028  -0.627   6.651  0.2899  1.1060  0.0026
   65MOL0     O 8687   7.763  -0.721   6.480 -0.0527  0.0419 -1.0468
   65MOL0     C 8688   7.616  -0.592   6.283 -0.9368 -0.3694  0.0257
   65MOL0     C 8689   7.535  -0.503   6.210 -0.8870 -0.2870  0.6490
   65MOL0     N 8690   6.999  -0.243   6.380  0.7160  0.5770 -0.5097
   65MOL0     N 8691   6.871  -0.226   6.392 -0.7605 -0.8325  0.0988
   65MOL0     C 8692   6.677   0.182   5.705  0.9872 -1.0122  1.0613
   65MOL0     C 8693   6.687   0.096   5.593  0.3319  0.6476 -0.1035
   65MOL0     C 8694   6.694  -0.046   5.155  0.7191 -0.1110  0.7800
   65MOL0     C 8695   6.654  -0.006   5.029  0.3717  0.5956  0.8354
   65MOL0     C 8696   6.628  -0.099   4.931  0.0959  1.0529  0.3301
   65MOL0     C 8697   6.649  -0.232   4.957  0.3848  0.4697 -0.2967
   65MOL0     O 8698   6.622  -0.338   4.875 -0.4893  0.0560 -0.4485
   65MOL0     C 8699   6.567  -0.315   4.748  0.4968  0.6634  0.1033
   65MOL0     C 8700   6.417  -0.286   4.748  0.2479  0.0142  1.2614
   65MOL0     C 8701   6.359  -0.427   4.761 -0.4254  0.6924  0.1104
   65MOL0     C 8702   6.211  -0.417   4.751 -0.0596  0.0827 -0.2059
   65MOL0     C 8703   6.153  -0.539   4.787 -0.8017 -0.3614  0.0009
   65MOL0     C 8704   6.118  -0.643   4.830 -0.8591 -0.0846  0.7476
   65MOL0     C 8705   6.701  -0.268   5.076  0.6920  0.1429 -0.9803
   65MOL0     C 8706   6.728  -0.181   5.173 -0.4212 -0.4562 -0.4896
   65MOL0     C 8707   6.769  -0.231   5.316  0.5843 -0.1154  0.3857
   65MOL0     H 8708   6.855   0.297   5.380  3.0364 -0.5828  1.0516
   65MOL0     H 8709   6.843   0.450   5.597  0.2127  0.4321 -1.7309
   65MOL0     H 8710   6.791   0.293   5.963 -0.1548  0.1737  1.5597
   65MOL0     H 8711   6.854   0.452   5.912 -0.4346  1.8969  1.9790
   65MOL0     H 8712   6.641   0.556   5.995 -0.0488 -0.4605  1.4420
   65MOL0     H 8713   6.740   0.483   6.115  0.4742  0.2019 -1.1961
   65MOL0     H 8714   6.482   0.387   5.988 -1.8322 -0.3637  1.9279
   65MOL0     H 8715   6.503   0.427   6.160  0.1254 -2.6113  0.8705
   65MOL0     H 8716   6.463   0.193   6.115  0.3325 -1.7190  0.7916
   65MOL0     H 8717   6.635   0.189   6.047 -0.0630  1.7597 -1.1795
   65MOL0     H 8718   6.717   0.276   6.261  1.0315 -2.3219  0.0717
   65MOL0     H 8719   6.558   0.293   6.320  0.8641  0.2181  1.2180
   65MOL0     H 8720   6.524   0.032   6.308  0.0715 -0.2116 -0.5082
   65MOL0     H 8721   6.686   0.021   6.241  0.0833 -0.3052 -0.4830
   65MOL0     H 8722   6.596   0.119   6.515  0.7675  0.0288  0.0643
   65MOL0     H 8723   6.764   0.132   6.451  0.5208  0.9908 -2.7457
   65MOL0     H 8724   6.712  -0.047   6.612 -0.7947 -1.5306  0.0853
   65MOL0     H 8725   6.631  -0.131   6.481  3.0632 -0.1832 -2.3313
   65MOL0     H 8726   6.976   0.036   6.538 -1.9747 -1.1704  2.2745
   65MOL0     H 8727   7.209   0.001   6.411  0.1101  0.4768 -3.2279
   65MOL0     H 8728   7.260  -0.161   6.498 -0.8518  1.0728  0.4915
   65MOL0     H 8729   7.256  -0.261   6.277 -0.4549  0.4100  1.4257
   65MOL0     H 8730   7.209  -0.106   6.197 -0.1457  1.1989  0.0711
   65MOL0     H 8731   7.474  -0.146   6.366 -0.5964  1.4705  0.7439
   65MOL0     H 8732   7.418   0.001   6.289 -1.6622  0.5969  0.2760
   65MOL0     H 8733   7.595  -0.100   6.151  0.3950 -0.5232  2.4704
   65MOL0     H 8734   7.442  -0.090   6.054  0.0698 -0.1802 -0.0823
   65MOL0     H 8735   7.736  -0.227   6.235  1.1988  0.1667 -1.1664
   65MOL0     H 8736   7.858  -0.377   6.362  2.1183 -2.2103 -0.6321
   65MOL0     H 8737   8.074  -0.868   6.418  0.2265  1.3761 -0.4789
   65MOL0     H 8738   8.239  -0.946   6.592  0.4358  0.2876  0.6388
   65MOL0     H 8739   8.329  -0.688   6.938  0.7839 -1.0455 -0.2628
   65MOL0     H 8740   8.192  -0.779   7.003  0.5657  0.7685  1.3203
   65MOL0     H 8741   8.339  -0.976   7.050 -0.4829  0.6973  1.9887
   65MOL0     H 8742   8.472  -0.897   6.956  0.0866  0.4288 -0.1304
   65MOL0     H 8743   8.538  -0.863   7.186  0.1061  2.2486  0.5920
   65MOL0     H 8744   8.454  -0.713   7.160 -1.4895  0.9977  3.1601
   65MOL0     H 8745   8.345  -0.948   7.305  2.2333 -0.1647 -0.0672
   65MOL0     H 8746   8.233  -0.826   7.241  0.6146  2.8392  0.8020
   65MOL0     H 8747   8.324  -0.645   7.366 -0.9208 -0.7930 -0.4615
   65MOL0     H 8748   8.459  -0.759   7.430  0.8427  2.1001 -0.9100
   65MOL0     H 8749   8.163  -0.828   7.463 -1.1082 -0.1602  0.6742
   65MOL0     H 8750   8.305  -0.891   7.553 -2.0623 -0.4046  1.0428
   65MOL0     H 8751   8.335  -0.659   7.643 -1.3788  1.1625  1.8445
   65MOL0     H 8752   8.206  -0.747   7.716 -1.5596  2.1227  0.5655
   65MOL0     H 8753   8.147  -0.509   7.654 -1.9053 -0.7702  1.6785
   65MOL0     H 8754   8.149  -0.571   7.480  1.8180 -0.8227  0.2109
   65MOL0     H 8755   8.110  -0.619   6.853 -1.8335 -0.5062  1.0624
   65MOL0     H 8756   7.966  -0.539   6.665 -1.1485 -0.2403  2.8226
   65MOL0     H 8757   7.613  -0.700   6.280  4.6391 -0.7786 -0.0161
   65MOL0     H 8758   7.434  -0.533   6.184 -1.9868  1.3454  2.7116
   65MOL0     H 8759   6.625   0.147   5.793 -0.8797 -1.0724 -0.0221
   65MOL0     H 8760   6.648  -0.002   5.618  1.2591  0.7342  1.9119
   65MOL0     H 8761   6.642   0.097   4.998  3.8900  0.4896 -1.4395
   65MOL0     H 8762   6.609  -0.062   4.830  1.9753 -2.3856 -1.4744
   65MOL0     H 8763   6.594  -0.401   4.685 -1.1557 -0.1278  0.4260
   65MOL0     H 8764   6.606  -0.226   4.696 -3.5769  1.2435 -2.4036
   65MOL0     H 8765   6.382  -0.242   4.654  2.4672 -3.2080 -1.3309
   65MOL0     H 8766   6.388  -0.227   4.835  0.2656 -0.8985  1.9070
   65MOL0     H 8767   6.389  -0.469   4.857 -1.5641 -0.1195  0.1291
   65MOL0     H 8768   6.395  -0.493   4.681  1.3534  1.8464 -0.0964
   65MOL0     H 8769   6.168  -0.339   4.813 -1.5929 -1.1533  0.3615
   65MOL0     H 8770   6.193  -0.393   4.646  1.2031  0.0405 -0.4429
   65MOL0     H 8771   6.104  -0.731   4.890 -2.5175 -0.8940 -0.7384
   65MOL0     H 8772   6.729  -0.369   5.102  0.7990  0.6786  1.0983
   65MOL0     H 8773   6.789  -0.338   5.314  0.7417 -0.1161  1.4080
   65MOL0     H 8774   6.855  -0.176   5.356 -1.3936  3.4354  0.1957
   65MOL0     H 8775   6.682  -0.205   5.376 -2.2470 -1.3551 -2.8329
   66MOL0     O 8776   9.110   8.910   0.854 -0.0878  0.5380  0.2895
   66MOL0     C 8777   9.084   8.899   0.735 -0.3235  0.2552 -0.2834
   66MOL0     O 8778   8.990   8.966   0.665 -0.2044 -0.4205  0.2195
   66MOL0     C 8779   8.890   9.037   0.728 -0.3718 -1.0084 -0.4205
   66MOL0     C 8780   8.836   9.147   0.655 -0.1644 -1.0789 -0.0870
   66MOL0     C 8781   8.736   9.241   0.708 -0.7554  0.5539 -0.0746
   66MOL0     C 8782   8.687   9.204   0.830  0.9561  0.1993 -0.0709
   66MOL0     O 8783   8.567   9.254   0.871 -0.0659 -0.1071 -0.2752
   66MOL0     C 8784   8.574   9.381   0.934 -0.6027  0.3998 -0.5914
   66MOL0     C 8785   8.452   9.406   1.014 -0.0178  0.4960  0.1442
   66MOL0     C 8786   8.414   9.294   1.112 -0.5849 -0.6046 -0.7358
   66MOL0     C 8787   8.285   9.306   1.189 -0.1035 -0.3016  0.1619
   66MOL0     C 8788   8.164   9.337   1.112  0.2362 -0.7333  0.1966
   66MOL0     C 8789   8.042   9.315   1.199  0.7288  0.0580 -0.3594
   66MOL0     C 8790   8.006   9.170   1.221  0.1393  0.6892 -0.5088
   66MOL0     C 8791   7.880   9.157   1.311  0.6018  0.1000 -0.0639
   66MOL0     N 8792   7.815   9.019   1.307 -0.7369 -0.0736  0.5194
   66MOL0     C 8793   7.774   8.960   1.188  0.2327  0.6413 -0.2215
   66MOL0     C 8794   7.763   8.832   1.221 -0.0652 -0.2063 -0.3480
   66MOL0     C 8795   7.732   8.713   1.131 -1.2182 -0.1524  0.4662
   66MOL0     C 8796   7.590   8.656   1.144  0.2734  0.1081  0.0207
   66MOL0     C 8797   7.484   8.772   1.119 -0.5117 -0.2292  0.4010
   66MOL0     C 8798   7.348   8.708   1.106  0.2823 -0.8122 -1.0715
   66MOL0     O 8799   7.250   8.808   1.086 -0.0735  0.0588  0.0957
   66MOL0     C 8800   7.120   8.768   1.072 -0.3536 -0.3585  0.8393
   66MOL0     C 8801   7.072   8.787   0.944 -0.3969 -0.5145  0.0621
   66MOL0     C 8802   6.946   8.737   0.912  0.5195 -0.1045 -0.1485
   66MOL0     C 8803   6.867   8.678   1.005 -0.2817 -0.0446 -0.0196
   66MOL0     C 8804   6.738   8.617   0.964  0.2128  0.5244 -0.8968
   66MOL0     O 8805   6.664   8.545   1.059  0.1323  0.1189  0.6512
   66MOL0     C 8806   6.550   8.479   1.029  0.1567  0.0271 -0.1903
   66MOL0     C 8807   6.430   8.534   1.056 -0.1186  0.3326 -0.2883
   66MOL0     C 8808   6.312   8.468   1.033 -0.1433  0.1710  0.3349
   66MOL0     C 8809   6.321   8.342   0.973  0.9564  0.3702 -0.8849
   66MOL0     O 8810   6.202   8.265   0.950 -0.4754 -0.4733 -0.4840
   66MOL0     C 8811   6.124   8.293   0.830  0.6432 -1.1221  0.5537
   66MOL0     C 8812   6.026   8.401   0.868  0.8672 -0.8623 -0.3864
   66MOL0     C 8813   5.930   8.346   0.970  0.5707 -0.6918  0.4140
   66MOL0     C 8814   5.868   8.473   1.040 -0.0096 -0.6771  0.8122
   66MOL0     C 8815   5.744   8.419   1.111  0.0544  0.7452  0.5180
   66MOL0     C 8816   5.673   8.523   1.194 -0.2835 -0.8667 -0.0852
   66MOL0     C 8817   5.535   8.479   1.230  0.6006 -1.0854 -0.6381
   66MOL0     C 8818   5.542   8.396   1.354 -0.5980  0.0061  0.1871
   66MOL0    Cl 8819   5.384   8.327   1.396  0.6142  0.7045 -0.3101
   66MOL0     C 8820   6.439   8.272   0.957 -0.6333 -0.8282 -0.7776
   66MOL0     C 8821   6.556   8.347   0.979 -0.0576 -0.2769  0.0744
   66MOL0     O 8822   6.698   8.631   0.844 -0.9371  0.6604 -0.7822
   66MOL0     C 8823   6.912   8.678   1.137  0.5797  0.1758  0.6362
   66MOL0     C 8824   7.044   8.711   1.167 -0.5071  1.2782  0.4069
   66MOL0     N 8825   7.823   8.816   1.349  0.5648  0.0612 -0.2333
   66MOL0     N 8826   7.846   8.931   1.399  0.9317  0.2589  0.4231
   66MOL0     C 8827   8.737   9.103   0.903 -0.4903  0.0802  0.2091
   66MOL0     C 8828   8.839   9.016   0.854  0.9935  0.8292 -0.4749
   66MOL0     C 8829   9.174   8.828   0.641 -0.1525  0.6639  0.6186
   66MOL0     C 8830   9.205   8.873   0.520  0.6654 -0.0507 -0.0956
   66MOL0     C 8831   9.286   8.802   0.438 -0.1472 -0.2243 -0.6273
   66MOL0     C 8832   9.369   8.703   0.479 -0.4775  0.3810 -0.7796
   66MOL0     O 8833   9.454   8.643   0.389  0.1480 -0.4596  0.1505
   66MOL0     C 8834   9.554   8.554   0.439 -0.6464 -0.3357  0.2937
   66MOL0     C 8835   9.670   8.525   0.345  0.0416  0.6236  0.0713
   66MOL0     C 8836   9.738   8.392   0.376  0.1067  0.0488  0.2293
   66MOL0     C 8837   9.892   8.386   0.347  0.7145  1.3686  0.3596
   66MOL0     C 8838   9.948   8.253   0.394 -0.2539 -0.0542  0.7507
   66MOL0     C 8839   9.967   8.142   0.434  0.5101 -0.1383  0.3851
   66MOL0     C 8840   9.353   8.656   0.609  0.3358 -0.1051 -0.5167
   66MOL0     C 8841   9.250   8.710   0.684  0.8180  0.1229 -0.5315
   66MOL0     C 8842   9.239   8.657   0.827 -0.3682  0.5872  0.7229
   66MOL0     H 8843   8.874   9.159   0.554  3.3313  2.3284  1.3797
   66MOL0     H 8844   8.696   9.322   0.648  1.2114  1.1814 -0.5962
   66MOL0     H 8845   8.655   9.383   1.007  1.0306  2.5297 -2.3217
   66MOL0     H 8846   8.595   9.460   0.861 -0.7678  2.4009  1.4201
   66MOL0     H 8847   8.360   9.432   0.961 -1.2436 -0.8768  1.5052
   66MOL0     H 8848   8.468   9.499   1.071  5.4500 -1.0932  1.8624
   66MOL0     H 8849   8.488   9.285   1.192  1.6873  0.8462 -2.5209
   66MOL0     H 8850   8.430   9.195   1.069  1.0981 -0.3503 -0.7920
   66MOL0     H 8851   8.271   9.213   1.244  0.0655  0.2436  1.1506
   66MOL0     H 8852   8.302   9.390   1.258 -0.9046 -0.8146  1.0059
   66MOL0     H 8853   8.170   9.442   1.082 -3.2010 -0.2407  0.8441
   66MOL0     H 8854   8.163   9.263   1.031  0.4269 -0.0152 -0.4741
   66MOL0     H 8855   8.047   9.343   1.305 -4.0565 -4.2390  1.3770
   66MOL0     H 8856   7.955   9.365   1.157 -3.0310 -4.0503  1.7695
   66MOL0     H 8857   8.083   9.112   1.274 -0.1372  0.1574 -0.6846
   66MOL0     H 8858   7.991   9.124   1.124 -0.1185  0.9666 -0.6029
   66MOL0     H 8859   7.902   9.182   1.415  1.1652 -0.0251 -0.1493
   66MOL0     H 8860   7.803   9.226   1.275 -0.9732 -1.0550  0.9563
   66MOL0     H 8861   7.745   9.004   1.093 -2.7267 -2.4299 -0.9345
   66MOL0     H 8862   7.737   8.737   1.024 -0.9777  1.4817  0.8067
   66MOL0     H 8863   7.799   8.628   1.146 -3.4328 -2.8739 -3.2827
   66MOL0     H 8864   7.574   8.568   1.081 -0.2766  0.6659 -0.6441
   66MOL0     H 8865   7.583   8.633   1.250 -2.3428  2.0366  0.3784
   66MOL0     H 8866   7.510   8.823   1.025  0.1004 -0.4329  0.4596
   66MOL0     H 8867   7.501   8.844   1.199 -1.5873  0.6853 -0.1634
   66MOL0     H 8868   7.317   8.656   1.197 -4.1607  0.4359 -1.5919
   66MOL0     H 8869   7.353   8.632   1.027  1.2775 -0.7744 -1.0460
   66MOL0     H 8870   7.147   8.822   0.873 -0.4447  0.7221  0.5926
   66MOL0     H 8871   6.899   8.756   0.815  1.5466 -0.5669 -0.7534
   66MOL0     H 8872   6.432   8.633   1.099 -1.9630 -0.1172  0.9393
   66MOL0     H 8873   6.212   8.501   1.058 -1.1849 -1.2144 -1.7076
   66MOL0     H 8874   6.190   8.333   0.753  0.4309  0.1697  1.0151
   66MOL0     H 8875   6.067   8.204   0.801 -2.7373  0.6481  1.3020
   66MOL0     H 8876   6.087   8.488   0.893  2.8315 -2.5924  1.1150
   66MOL0     H 8877   5.973   8.434   0.778  0.7661 -1.8328 -0.7013
   66MOL0     H 8878   5.847   8.292   0.924  0.7038 -2.3901  2.0274
   66MOL0     H 8879   5.973   8.283   1.048 -1.4312 -1.0711  1.2710
   66MOL0     H 8880   5.830   8.550   0.971  3.9806  1.4326  0.6692
   66MOL0     H 8881   5.936   8.510   1.117  0.6461 -2.7157  1.2815
   66MOL0     H 8882   5.758   8.327   1.168 -2.8461 -0.2525 -0.1936
   66MOL0     H 8883   5.667   8.389   1.039  1.8972 -2.2299 -0.4287
   66MOL0     H 8884   5.721   8.552   1.288 -0.1308 -0.9404 -0.1397
   66MOL0     H 8885   5.664   8.613   1.132 -0.1311 -0.2407  0.7817
   66MOL0     H 8886   5.473   8.434   1.152 -2.3602  3.0879 -1.0521
   66MOL0     H 8887   5.485   8.575   1.247 -1.9612 -2.4651  0.1808
   66MOL0     H 8888   5.609   8.315   1.323  2.4014  1.7677  1.6140
   66MOL0     H 8889   5.580   8.448   1.441 -3.0639 -1.1675  2.0871
   66MOL0     H 8890   6.441   8.168   0.926  1.7319 -1.5259  1.3567
   66MOL0     H 8891   6.653   8.299   0.966 -0.3060 -2.5320  4.4584
   66MOL0     H 8892   6.834   8.637   1.201 -2.2488  1.6329 -1.5971
   66MOL0     H 8893   7.078   8.707   1.270 -1.8481 -1.5491  0.8485
   66MOL0     H 8894   8.709   9.084   1.006  1.2402 -1.6980  0.4186
   66MOL0     H 8895   8.879   8.943   0.923  1.5065 -0.3527 -1.9934
   66MOL0     H 8896   9.165   8.969   0.490  2.4572  0.3495 -1.3863
   66MOL0     H 8897   9.300   8.849   0.341 -0.8678 -0.1347 -0.6868
   66MOL0     H 8898   9.505   8.459   0.465 -3.8272  1.5128  1.6880
   66MOL0     H 8899   9.606   8.594   0.527  1.2992  4.6569 -2.7533
   66MOL0     H 8900   9.738   8.604   0.378 -1.7032  2.8192 -1.3167
   66MOL0     H 8901   9.638   8.551   0.244  2.0027  1.7750 -0.3115
   66MOL0     H 8902   9.683   8.317   0.319 -0.5125  1.4417 -1.0648
   66MOL0     H 8903   9.738   8.374   0.484 -1.1991 -0.5356  0.1544
   66MOL0     H 8904   9.893   8.401   0.239 -3.1010  0.6822  0.0899
   66MOL0     H 8905   9.940   8.470   0.398 -0.7636  1.5680  1.4932
   66MOL0     H 8906   9.968   8.040   0.467  2.9467 -0.4280 -0.3675
   66MOL0     H 8907   9.418   8.581   0.653  2.7443  1.6932 -0.8233
   66MOL0     H 8908   9.277   8.555   0.837  1.7468  1.1217 -1.0086
   66MOL0     H 8909   9.301   8.722   0.890 -1.0813  2.2055 -0.1755
   66MOL0     H 8910   9.134   8.659   0.856 -1.2634 -1.5636 -2.0160
   67MOL0     O 8911   5.666   0.607   5.655 -0.2294  0.5095 -0.5819
   67MOL0     C 8912   5.759   0.614   5.739 -0.1792 -0.0931  0.5241
   67MOL0     O 8913   5.889   0.629   5.703  0.5817  0.5030  0.4106
   67MOL0     C 8914   5.914   0.638   5.564  0.7074 -0.9773  0.0968
   67MOL0     C 8915   5.965   0.757   5.501  1.1777  0.3844  0.0214
   67MOL0     C 8916   6.003   0.761   5.367  0.0945  0.5130  0.6285
   67MOL0     C 8917   5.986   0.645   5.290  0.7690 -0.6059  0.1870
   67MOL0     O 8918   6.023   0.636   5.158  0.1118 -0.1896  0.4193
   67MOL0     C 8919   6.105   0.739   5.095  0.5451 -0.0933  0.6560
   67MOL0     C 8920   6.074   0.742   4.938 -0.2833  0.4965  0.2204
   67MOL0     C 8921   5.931   0.795   4.919  0.6932  0.0204  0.0511
   67MOL0     C 8922   5.909   0.945   4.902  0.3642  0.1054 -0.8353
   67MOL0     C 8923   5.783   0.987   4.823  0.4499 -0.5216 -0.7175
   67MOL0     C 8924   5.654   0.929   4.889  0.8564 -0.6906 -0.2333
   67MOL0     C 8925   5.530   1.004   4.848  0.5480  0.1508 -0.8026
   67MOL0     C 8926   5.411   0.915   4.862  0.1597 -0.1774  0.2058
   67MOL0     N 8927   5.392   0.876   5.003 -0.0223 -0.0922  0.5513
   67MOL0     C 8928   5.392   0.750   5.060  0.6163 -0.8264  0.1362
   67MOL0     C 8929   5.345   0.763   5.187 -0.3609 -0.0778 -0.6279
   67MOL0     C 8930   5.301   0.659   5.276  0.3892  0.1041 -0.0994
   67MOL0     C 8931   5.415   0.633   5.372  1.1619 -0.3231  0.3893
   67MOL0     C 8932   5.531   0.553   5.300  0.1403 -0.7649 -0.5325
   67MOL0     C 8933   5.495   0.414   5.260 -0.8435  0.4678 -0.2734
   67MOL0     O 8934   5.447   0.411   5.128  0.2219  0.5574 -0.5519
   67MOL0     C 8935   5.461   0.286   5.069  1.0625  0.8892 -0.2517
   67MOL0     C 8936   5.340   0.224   5.032  0.4295 -0.8508 -0.3693
   67MOL0     C 8937   5.338   0.103   4.968 -0.1672 -0.2532 -0.1329
   67MOL0     C 8938   5.465   0.037   4.951 -0.5138 -0.2836  0.0392
   67MOL0     C 8939   5.461  -0.080   4.869 -0.4944 -0.4412 -0.8477
   67MOL0     O 8940   5.341  -0.135   4.840  1.0545  0.4730  0.1755
   67MOL0     C 8941   5.321  -0.272   4.809  0.5224  0.8726 -0.8837
   67MOL0     C 8942   5.405  -0.372   4.861  0.0002  0.3328 -0.1605
   67MOL0     C 8943   5.389  -0.506   4.824  0.0239 -0.7019 -0.2548
   67MOL0     C 8944   5.292  -0.549   4.739  1.0397 -0.3118  0.4508
   67MOL0     O 8945   5.260  -0.680   4.723 -0.4399  0.7099  0.8357
   67MOL0     C 8946   5.308  -0.722   4.595 -0.0476 -0.0981  0.7157
   67MOL0     C 8947   5.314  -0.876   4.604  0.4279 -0.6268 -0.5320
   67MOL0     C 8948   5.173  -0.929   4.608 -0.0049 -0.5100 -0.6292
   67MOL0     C 8949   5.174  -1.079   4.633 -0.3188 -0.5520 -0.6436
   67MOL0     C 8950   5.036  -1.133   4.623  0.0003 -0.6328 -0.7582
   67MOL0     C 8951   5.036  -1.289   4.634 -0.0111 -0.0614 -0.9185
   67MOL0     C 8952   4.890  -1.330   4.627 -0.7089 -0.3778  0.0109
   67MOL0     C 8953   4.887  -1.481   4.651  0.2584 -0.4170  0.4744
   67MOL0    Cl 8954   4.715  -1.519   4.685 -0.2892 -0.2675 -0.1791
   67MOL0     C 8955   5.208  -0.448   4.680 -0.2432 -0.0945 -0.6084
   67MOL0     C 8956   5.222  -0.315   4.718  0.5130  0.2044  0.6208
   67MOL0     O 8957   5.566  -0.116   4.823  0.2820 -0.0056  0.4619
   67MOL0     C 8958   5.582   0.098   4.980 -0.1358  0.5682  0.0075
   67MOL0     C 8959   5.578   0.228   5.038 -1.2158 -0.2592 -1.0202
   67MOL0     N 8960   5.355   0.898   5.214  0.2543 -0.2979 -0.7766
   67MOL0     N 8961   5.370   0.960   5.104 -0.1197 -0.5512  0.2507
   67MOL0     C 8962   5.939   0.523   5.351  0.4929 -1.0121  0.0395
   67MOL0     C 8963   5.898   0.524   5.493 -0.3553 -0.3224 -0.0306
   67MOL0     C 8964   5.734   0.581   5.876 -0.8359 -0.1954  0.4974
   67MOL0     C 8965   5.840   0.522   5.949  0.1830 -1.0081  0.3619
   67MOL0     C 8966   5.821   0.489   6.083 -0.5849 -0.5886  0.0784
   67MOL0     C 8967   5.700   0.516   6.151 -0.0257  1.6842  1.4071
   67MOL0     O 8968   5.681   0.472   6.277 -1.2863  0.0657  0.0234
   67MOL0     C 8969   5.754   0.556   6.363  0.0824 -0.1321 -0.0711
   67MOL0     C 8970   5.674   0.550   6.493  0.5180  0.5039 -0.1363
   67MOL0     C 8971   5.542   0.623   6.494 -0.1418 -0.6247 -0.1023
   67MOL0     C 8972   5.549   0.774   6.514 -0.2497  0.8607  0.4833
   67MOL0     C 8973   5.585   0.846   6.393  0.3784 -0.4161 -0.2993
   67MOL0     C 8974   5.608   0.916   6.289 -1.1076  1.3711 -0.2171
   67MOL0     C 8975   5.597   0.577   6.076  0.4268  0.7809 -0.5461
   67MOL0     C 8976   5.614   0.615   5.943  0.6009  0.0455 -0.4090
   67MOL0     C 8977   5.498   0.690   5.876 -1.1807 -0.4046 -1.1309
   67MOL0     H 8978   5.982   0.843   5.565 -1.4986  0.5578  0.6497
   67MOL0     H 8979   6.061   0.843   5.326 -0.3006 -1.1257 -3.8124
   67MOL0     H 8980   6.093   0.839   5.139  3.3687 -0.2505  2.0307
   67MOL0     H 8981   6.212   0.717   5.105  0.3490 -1.6944 -0.4101
   67MOL0     H 8982   6.087   0.644   4.892  2.8851  2.3721 -3.4685
   67MOL0     H 8983   6.141   0.813   4.890 -2.6915  2.2455 -0.7292
   67MOL0     H 8984   5.862   0.752   4.993 -0.0940  1.5447  0.2397
   67MOL0     H 8985   5.898   0.768   4.818  1.5766  2.4001 -0.9401
   67MOL0     H 8986   5.909   0.984   5.004 -0.8398 -4.6016  1.2434
   67MOL0     H 8987   5.998   0.986   4.854  2.7333 -2.4600  1.0519
   67MOL0     H 8988   5.778   1.093   4.800 -1.5621 -0.9241 -2.3935
   67MOL0     H 8989   5.804   0.944   4.725  1.5212  0.0711 -0.7596
   67MOL0     H 8990   5.643   0.825   4.859  2.6166 -0.2547 -2.6975
   67MOL0     H 8991   5.660   0.943   4.998 -0.1174 -1.9078 -0.0021
   67MOL0     H 8992   5.531   1.025   4.740 -0.5726 -3.2480 -1.6060
   67MOL0     H 8993   5.533   1.096   4.908  3.2095 -0.1403 -0.3888
   67MOL0     H 8994   5.320   0.965   4.829  0.4542 -1.2748 -2.6292
   67MOL0     H 8995   5.420   0.826   4.798 -0.2330 -0.5514  0.6660
   67MOL0     H 8996   5.409   0.662   4.998 -0.4672 -1.6243  0.9502
   67MOL0     H 8997   5.207   0.688   5.325  1.3184  0.0998  1.7803
   67MOL0     H 8998   5.273   0.566   5.226  0.6315 -2.0714  3.4728
   67MOL0     H 8999   5.456   0.727   5.411 -0.5855  0.7643 -0.2473
   67MOL0     H 9000   5.374   0.574   5.454 -1.0991 -2.6843 -2.2434
   67MOL0     H 9001   5.624   0.555   5.358 -0.7338  4.4215  1.2493
   67MOL0     H 9002   5.558   0.614   5.213 -2.8134  0.7137 -0.5493
   67MOL0     H 9003   5.431   0.365   5.333  2.8361 -2.0443  1.5842
   67MOL0     H 9004   5.589   0.358   5.265 -0.1472  1.4648 -1.6257
   67MOL0     H 9005   5.247   0.280   5.031 -0.3848 -2.1423  0.6604
   67MOL0     H 9006   5.245   0.057   4.935 -1.9895  1.2465  2.5604
   67MOL0     H 9007   5.472  -0.350   4.944 -2.5739 -0.9999  2.4569
   67MOL0     H 9008   5.445  -0.589   4.865  1.4615  0.5854  0.4795
   67MOL0     H 9009   5.232  -0.699   4.520 -3.1007  1.4923  4.0187
   67MOL0     H 9010   5.408  -0.688   4.566 -0.5848  0.3160 -0.7489
   67MOL0     H 9011   5.368  -0.914   4.517  0.0282  0.3040 -1.2005
   67MOL0     H 9012   5.372  -0.905   4.693 -0.1051  0.8141  0.3256
   67MOL0     H 9013   5.108  -0.876   4.678  2.2622  1.3347  0.2148
   67MOL0     H 9014   5.123  -0.918   4.511 -1.4218  1.6049  0.2819
   67MOL0     H 9015   5.205  -1.103   4.735 -0.3745 -3.2810 -1.1744
   67MOL0     H 9016   5.243  -1.127   4.563  2.1584 -0.2229  1.4444
   67MOL0     H 9017   4.992  -1.123   4.523 -1.2899  0.4580 -0.1115
   67MOL0     H 9018   4.971  -1.096   4.702 -0.0118 -0.0813 -1.0189
   67MOL0     H 9019   5.100  -1.342   4.563  0.8336  0.9504 -0.9463
   67MOL0     H 9020   5.084  -1.323   4.726  1.4290 -3.4436 -2.7430
   67MOL0     H 9021   4.847  -1.306   4.529 -0.2522  0.0300 -0.0918
   67MOL0     H 9022   4.832  -1.291   4.711  0.7101  1.2349  0.2877
   67MOL0     H 9023   4.905  -1.529   4.554  0.7042 -1.0346  0.8580
   67MOL0     H 9024   4.957  -1.514   4.729 -1.5311  4.3304  4.6013
   67MOL0     H 9025   5.133  -0.482   4.610  0.5112 -1.4321 -0.7914
   67MOL0     H 9026   5.158  -0.239   4.674  3.6506  0.6288 -3.9181
   67MOL0     H 9027   5.680   0.059   4.954 -0.0334  1.0548 -0.3570
   67MOL0     H 9028   5.663   0.292   5.062  1.5041 -3.1211 -2.2973
   67MOL0     H 9029   5.938   0.430   5.295  2.5322 -1.0104 -0.0588
   67MOL0     H 9030   5.859   0.437   5.546  0.5960  0.1112  1.4639
   67MOL0     H 9031   5.936   0.513   5.900 -0.0598  0.8649 -0.5421
   67MOL0     H 9032   5.894   0.421   6.127 -2.1984 -2.5879 -0.1822
   67MOL0     H 9033   5.767   0.657   6.322  4.2115 -1.6493 -3.1144
   67MOL0     H 9034   5.856   0.516   6.370  1.2450  2.5998  0.0051
   67MOL0     H 9035   5.741   0.594   6.568  0.8337 -1.1713  0.6021
   67MOL0     H 9036   5.658   0.444   6.513  2.2557 -0.2313 -2.2624
   67MOL0     H 9037   5.494   0.579   6.581 -1.1839  1.7071  0.5679
   67MOL0     H 9038   5.482   0.592   6.408 -0.5751 -1.0926  0.3671
   67MOL0     H 9039   5.446   0.808   6.532 -1.2876 -2.4240  1.5231
   67MOL0     H 9040   5.622   0.798   6.591  0.2030  0.4697  0.1846
   67MOL0     H 9041   5.642   0.978   6.209  0.7957  0.8630  0.1480
   67MOL0     H 9042   5.507   0.608   6.127 -1.4766  0.7283 -3.6396
   67MOL0     H 9043   5.439   0.626   5.810 -1.8102  1.3932 -2.4227
   67MOL0     H 9044   5.418   0.729   5.940 -0.1381 -0.9127  0.5459
   67MOL0     H 9045   5.550   0.769   5.819  2.2704 -1.8310 -0.2023
   68MOL0     O 9046   7.505   0.530   7.199 -0.4956 -1.1441 -0.1647
   68MOL0     C 9047   7.511   0.601   7.302  0.2239 -0.0753  0.2834
   68MOL0     O 9048   7.611   0.680   7.333  0.5145 -0.0068 -0.1382
   68MOL0     C 9049   7.715   0.702   7.242  0.1343  0.4171 -0.2112
   68MOL0     C 9050   7.841   0.653   7.259 -0.2741 -0.3490 -0.3671
   68MOL0     C 9051   7.932   0.669   7.155 -0.1733 -0.5508 -1.1313
   68MOL0     C 9052   7.907   0.757   7.051 -1.0023 -0.0405  0.5924
   68MOL0     O 9053   8.004   0.772   6.946 -0.5943  0.5918 -0.0606
   68MOL0     C 9054   8.138   0.740   6.977 -0.0055  0.0667 -0.8779
   68MOL0     C 9055   8.193   0.827   7.082 -0.4317  0.0718 -0.6625
   68MOL0     C 9056   8.229   0.973   7.045 -0.1406 -0.2976  0.9531
   68MOL0     C 9057   8.324   0.974   6.929  0.7813 -0.4176 -0.0217
   68MOL0     C 9058   8.316   1.118   6.873 -0.5920 -0.5868  0.6807
   68MOL0     C 9059   8.388   1.129   6.736 -1.1693  0.1352 -0.1918
   68MOL0     C 9060   8.377   1.270   6.676 -0.5123 -0.1855 -0.2695
   68MOL0     C 9061   8.465   1.280   6.544  0.3699  0.4407 -0.2578
   68MOL0     N 9062   8.611   1.280   6.588  0.8027  0.1840 -0.0333
   68MOL0     C 9063   8.690   1.395   6.600  0.1359 -0.2220 -0.0004
   68MOL0     C 9064   8.818   1.349   6.609 -0.4583  0.6960 -0.2685
   68MOL0     C 9065   8.936   1.448   6.590 -0.4608  0.6566 -0.1762
   68MOL0     C 9066   9.009   1.425   6.460 -0.0194  0.0847 -0.4234
   68MOL0     C 9067   9.121   1.317   6.465 -0.5165 -0.1457  0.7949
   68MOL0     C 9068   9.251   1.353   6.543  0.6365 -1.0148 -0.6858
   68MOL0     O 9069   9.325   1.235   6.544  0.3152  0.2421 -0.2642
   68MOL0     C 9070   9.428   1.223   6.633 -0.0209 -0.3769  0.3974
   68MOL0     C 9071   9.545   1.161   6.589 -0.5526 -0.4476 -0.1632
   68MOL0     C 9072   9.647   1.126   6.687  0.1409 -0.8049  0.4518
   68MOL0     C 9073   9.630   1.161   6.822 -0.1669 -0.8310 -0.5337
   68MOL0     C 9074   9.737   1.140   6.920 -0.4838  0.3433  0.1053
   68MOL0     O 9075   9.857   1.119   6.878 -0.2746  0.1681  0.5249
   68MOL0     C 9076   9.948   1.047   6.957  0.7813 -0.5485  0.1968
   68MOL0     C 9077   9.936   0.913   6.981 -0.1554 -1.3151  0.4149
   68MOL0     C 9078  10.047   0.834   7.021 -0.0053  0.1607 -0.4817
   68MOL0     C 9079  10.169   0.896   7.067  0.6597  0.4977  0.7507
   68MOL0     O 9080  10.274   0.809   7.085 -0.2194  0.5391  0.4465
   68MOL0     C 9081  10.408   0.853   7.070  0.4786  0.4581 -0.3206
   68MOL0     C 9082  10.471   0.814   6.934  0.2230 -0.4233  0.0387
   68MOL0     C 9083  10.413   0.878   6.813  0.4257 -0.7925  0.0280
   68MOL0     C 9084  10.473   1.012   6.770 -0.4793  0.1315 -0.3368
   68MOL0     C 9085  10.394   1.064   6.657 -0.0421 -0.1400  0.6843
   68MOL0     C 9086  10.251   1.120   6.686  0.0283 -0.9871  0.4855
   68MOL0     C 9087  10.178   1.184   6.571  0.3267 -0.1399  0.7121
   68MOL0     C 9088  10.037   1.230   6.603  0.9339 -1.0180  0.0927
   68MOL0    Cl 9089   9.996   1.330   6.473  0.0873  0.0138  0.0012
   68MOL0     C 9090  10.173   1.038   7.060  0.8544 -0.0562 -0.6651
   68MOL0     C 9091  10.063   1.107   7.004 -0.0589  0.2164  0.5225
   68MOL0     O 9092   9.705   1.154   7.041  0.1679 -0.8903  0.2007
   68MOL0     C 9093   9.523   1.232   6.865 -0.4291 -0.6133  0.2622
   68MOL0     C 9094   9.425   1.262   6.770 -0.7768 -0.3995 -0.6021
   68MOL0     N 9095   8.817   1.206   6.604 -0.8282 -0.9198  0.1989
   68MOL0     N 9096   8.692   1.172   6.593 -0.7117  0.8457 -0.2919
   68MOL0     C 9097   7.786   0.828   7.043  0.0915 -0.8688  0.1271
   68MOL0     C 9098   7.690   0.789   7.136  0.3502 -0.2038  0.7496
   68MOL0     C 9099   7.392   0.610   7.387  0.2572 -0.7040 -1.1805
   68MOL0     C 9100   7.402   0.691   7.506 -0.8541  0.2039  0.6198
   68MOL0     C 9101   7.300   0.703   7.602 -0.3396 -0.1460 -0.3948
   68MOL0     C 9102   7.174   0.653   7.582  0.0370  0.2114  0.3424
   68MOL0     O 9103   7.082   0.676   7.681 -0.7896  0.0473  0.3131
   68MOL0     C 9104   6.989   0.577   7.714 -0.1717 -0.0024 -0.1140
   68MOL0     C 9105   6.861   0.628   7.759  0.8043 -0.1831  0.3639
   68MOL0     C 9106   6.861   0.695   7.897  0.4470  0.3338 -1.2448
   68MOL0     C 9107   6.742   0.774   7.920 -0.3784 -0.3488 -0.7271
   68MOL0     C 9108   6.709   0.808   8.057  0.8098  0.0658 -0.5017
   68MOL0     C 9109   6.669   0.822   8.164  0.2964 -0.1211 -0.2294
   68MOL0     C 9110   7.149   0.588   7.462 -0.9488  0.5351  0.0389
   68MOL0     C 9111   7.260   0.564   7.369 -0.2806  0.0214  0.1763
   68MOL0     C 9112   7.223   0.485   7.242  0.3403  0.6726 -0.2423
   68MOL0     H 9113   7.876   0.587   7.338  1.5615 -0.4826 -1.2238
   68MOL0     H 9114   8.020   0.607   7.164 -0.1549 -0.2690  1.1942
   68MOL0     H 9115   8.139   0.636   7.009 -3.1161  0.0544 -0.4966
   68MOL0     H 9116   8.194   0.737   6.883  1.0973 -0.1600 -0.2247
   68MOL0     H 9117   8.286   0.774   7.102  0.8222  0.9888 -3.5096
   68MOL0     H 9118   8.131   0.821   7.172  0.1600  0.0975 -0.2493
   68MOL0     H 9119   8.274   1.011   7.137  0.3253 -1.1752  1.0950
   68MOL0     H 9120   8.131   1.019   7.030 -0.0648 -0.4853 -0.2251
   68MOL0     H 9121   8.423   0.974   6.976 -0.0194  1.7166  1.8995
   68MOL0     H 9122   8.303   0.897   6.854 -2.0079 -0.3027  0.5074
   68MOL0     H 9123   8.211   1.133   6.847 -0.2720 -1.6052 -1.3619
   68MOL0     H 9124   8.348   1.199   6.940  0.8607 -0.9284  0.4230
   68MOL0     H 9125   8.491   1.095   6.745 -0.3085  1.2792 -4.0282
   68MOL0     H 9126   8.345   1.054   6.668  1.0655 -2.5051  1.0933
   68MOL0     H 9127   8.410   1.345   6.748 -0.3236  1.2342 -1.7660
   68MOL0     H 9128   8.272   1.292   6.654  0.0236  1.0143 -1.8496
   68MOL0     H 9129   8.446   1.194   6.479  0.5004  0.5548 -0.4479
   68MOL0     H 9130   8.427   1.367   6.489 -0.5655  1.9371  2.5162
   68MOL0     H 9131   8.667   1.501   6.594  0.3071  0.0813  3.0218
   68MOL0     H 9132   8.896   1.550   6.593 -0.8601  0.7241 -3.4399
   68MOL0     H 9133   9.013   1.433   6.666 -0.0938  0.7438 -0.5289
   68MOL0     H 9134   8.935   1.411   6.380  0.8563  4.6234 -2.3306
   68MOL0     H 9135   9.054   1.520   6.430  1.4039 -0.4135  0.0859
   68MOL0     H 9136   9.150   1.304   6.360  0.9245  1.3929  0.9563
   68MOL0     H 9137   9.087   1.217   6.493 -1.9729 -0.3897 -1.6069
   68MOL0     H 9138   9.228   1.397   6.641  3.3697  0.0810 -0.4438
   68MOL0     H 9139   9.300   1.430   6.483 -1.5444  0.1905 -1.0059
   68MOL0     H 9140   9.553   1.137   6.484  1.7240  0.7324 -0.3331
   68MOL0     H 9141   9.735   1.075   6.649  1.0819 -2.3053  4.2092
   68MOL0     H 9142   9.845   0.864   6.946 -1.6641  1.1944  0.5952
   68MOL0     H 9143  10.050   0.725   7.029 -2.1105  0.0836 -0.0398
   68MOL0     H 9144  10.433   0.959   7.082 -1.0107  1.0644 -2.1592
   68MOL0     H 9145  10.462   0.806   7.152  2.7889 -1.2217 -2.6568
   68MOL0     H 9146  10.577   0.841   6.943  0.1783 -0.7904  2.1529
   68MOL0     H 9147  10.451   0.707   6.922 -1.8960 -0.0883  0.2322
   68MOL0     H 9148  10.405   0.804   6.733 -1.6927 -1.0059  0.3792
   68MOL0     H 9149  10.308   0.901   6.834  0.7096  2.4255 -1.4524
   68MOL0     H 9150  10.572   1.001   6.725 -0.4568  1.6693 -0.7151
   68MOL0     H 9151  10.482   1.097   6.839 -1.6577  0.8235 -0.9888
   68MOL0     H 9152  10.401   0.992   6.575 -4.2289  1.0806 -0.9690
   68MOL0     H 9153  10.448   1.151   6.618  3.2701 -2.9848 -1.7915
   68MOL0     H 9154  10.189   1.032   6.709 -0.0982 -1.4135 -1.3392
   68MOL0     H 9155  10.247   1.176   6.780 -1.2761  1.2553 -0.8290
   68MOL0     H 9156  10.174   1.103   6.497  2.9830 -0.7353  1.1182
   68MOL0     H 9157  10.244   1.262   6.531  1.2108 -0.4269  1.5746
   68MOL0     H 9158   9.964   1.149   6.608 -3.8327  2.8180 -0.6762
   68MOL0     H 9159  10.022   1.294   6.691 -2.0090  1.4609 -1.9957
   68MOL0     H 9160  10.256   1.095   7.100 -0.7671  0.7919  1.7482
   68MOL0     H 9161  10.059   1.213   6.981 -2.5129  0.5494  2.0700
   68MOL0     H 9162   9.507   1.278   6.962 -0.2467 -0.0286  0.0190
   68MOL0     H 9163   9.344   1.318   6.815 -1.6729 -2.1469  0.0607
   68MOL0     H 9164   7.755   0.888   6.958  0.2695 -0.3404  0.4304
   68MOL0     H 9165   7.590   0.830   7.146 -0.3048 -1.3825 -0.5830
   68MOL0     H 9166   7.492   0.737   7.544 -1.4882  1.3245  0.8199
   68MOL0     H 9167   7.317   0.756   7.695 -0.7092  1.4087 -1.1757
   68MOL0     H 9168   7.042   0.511   7.783 -2.1952  1.2293  2.8558
   68MOL0     H 9169   6.976   0.520   7.622 -1.0309  0.6889 -0.4369
   68MOL0     H 9170   6.792   0.544   7.747  0.6032  0.1917 -1.3172
   68MOL0     H 9171   6.822   0.699   7.686  0.0818 -0.9162  0.0133
   68MOL0     H 9172   6.953   0.752   7.912 -1.4732  3.9828 -2.0779
   68MOL0     H 9173   6.873   0.621   7.977  1.3689  2.2688  0.5032
   68MOL0     H 9174   6.759   0.873   7.878  0.3568  0.3592  1.1902
   68MOL0     H 9175   6.654   0.722   7.879  0.5307 -2.1805 -0.4406
   68MOL0     H 9176   6.657   0.835   8.270  2.1077  1.3339 -0.1510
   68MOL0     H 9177   7.049   0.558   7.431 -0.1179 -1.5281 -0.8180
   68MOL0     H 9178   7.303   0.438   7.184 -0.9252 -0.5286 -1.0880
   68MOL0     H 9179   7.169   0.395   7.271  2.5069  0.0227  2.1363
   68MOL0     H 9180   7.158   0.542   7.176 -1.0266 -0.3450  0.1854
   69MOL0     O 9181   2.762   0.365   3.175  0.0102  0.1809 -0.4509
   69MOL0     C 9182   2.725   0.307   3.273  0.3983  1.6196  0.8172
   69MOL0     O 9183   2.795   0.293   3.386 -0.0121 -0.5167  0.3627
   69MOL0     C 9184   2.930   0.337   3.380 -0.1569  1.5133  1.1066
   69MOL0     C 9185   3.017   0.268   3.300  0.1490 -0.6683 -0.7634
   69MOL0     C 9186   3.154   0.280   3.324 -0.6171 -0.1584 -0.3075
   69MOL0     C 9187   3.204   0.384   3.416  0.2128 -0.4284 -0.0755
   69MOL0     O 9188   3.331   0.416   3.433 -0.5001  0.1561 -0.2557
   69MOL0     C 9189   3.422   0.356   3.342  0.0230  0.3004  0.1926
   69MOL0     C 9190   3.480   0.225   3.392  0.7569  0.6251 -0.0181
   69MOL0     C 9191   3.563   0.248   3.522  0.8641  0.1426  0.1998
   69MOL0     C 9192   3.709   0.271   3.491 -0.7402 -0.1605 -0.5603
   69MOL0     C 9193   3.809   0.294   3.599  0.4633 -0.3102 -1.1145
   69MOL0     C 9194   3.812   0.192   3.723  0.4313  0.7485 -0.4671
   69MOL0     C 9195   3.878   0.262   3.840 -0.2226  0.3455  0.6385
   69MOL0     C 9196   4.031   0.281   3.808 -0.1363  0.5854 -0.2075
   69MOL0     N 9197   4.105   0.304   3.929  0.9137 -0.4986  0.2199
   69MOL0     C 9198   4.098   0.419   4.003  0.5142  0.5292  0.0530
   69MOL0     C 9199   4.210   0.421   4.090 -0.0248  0.3981  0.4259
   69MOL0     C 9200   4.244   0.522   4.193 -0.3747 -0.0044  0.1656
   69MOL0     C 9201   4.207   0.466   4.335  0.1773  0.1099  0.2572
   69MOL0     C 9202   4.052   0.495   4.355  0.0940  1.0169 -0.4143
   69MOL0     C 9203   4.012   0.464   4.503  0.3594  0.1894 -0.0898
   69MOL0     O 9204   4.007   0.327   4.540 -0.8590  0.4901  0.8289
   69MOL0     C 9205   3.898   0.251   4.510  0.1485 -0.7948  0.0308
   69MOL0     C 9206   3.926   0.134   4.436 -0.2542  1.2423  1.1064
   69MOL0     C 9207   3.816   0.062   4.378  0.5778 -0.0799  0.3642
   69MOL0     C 9208   3.692   0.095   4.416 -0.2951  0.3542  0.1403
   69MOL0     C 9209   3.583   0.002   4.377  0.5728 -0.6341  0.0911
   69MOL0     O 9210   3.497  -0.033   4.478 -0.1587  0.5318  0.7572
   69MOL0     C 9211   3.392  -0.118   4.447 -0.3437  0.6090 -0.2322
   69MOL0     C 9212   3.337  -0.155   4.324  0.2041 -0.8046 -0.3309
   69MOL0     C 9213   3.232  -0.238   4.317 -0.7688  0.4198  0.2936
   69MOL0     C 9214   3.174  -0.296   4.429  0.0413 -0.1130  0.4542
   69MOL0     O 9215   3.073  -0.381   4.426  1.0079  0.9179  0.6451
   69MOL0     C 9216   3.030  -0.427   4.290 -0.9573  0.4368 -0.2931
   69MOL0     C 9217   2.933  -0.544   4.295  0.4050  0.7768 -0.2475
   69MOL0     C 9218   2.809  -0.552   4.388 -0.0416  0.7606 -0.6570
   69MOL0     C 9219   2.684  -0.604   4.320  0.2297 -0.2508 -0.6820
   69MOL0     C 9220   2.566  -0.571   4.399 -0.0385  0.5126 -0.0311
   69MOL0     C 9221   2.426  -0.622   4.334  0.8269  0.4861  0.0060
   69MOL0     C 9222   2.429  -0.771   4.293  0.6723 -0.0906 -0.5576
   69MOL0     C 9223   2.300  -0.853   4.269 -0.0035 -0.1802 -0.7407
   69MOL0    Cl 9224   2.196  -0.777   4.142  0.3758 -0.3239  0.1469
   69MOL0     C 9225   3.224  -0.270   4.557 -0.5030 -0.0399  0.3974
   69MOL0     C 9226   3.331  -0.180   4.566  0.7453 -0.3296  0.1684
   69MOL0     O 9227   3.570  -0.023   4.255  0.1699  0.7429 -0.0948
   69MOL0     C 9228   3.664   0.206   4.497  0.6246 -0.0643 -0.8401
   69MOL0     C 9229   3.766   0.290   4.539 -0.5450  0.1038 -0.0010
   69MOL0     N 9230   4.285   0.312   4.056  0.2960  0.0063 -0.4706
   69MOL0     N 9231   4.224   0.247   3.962 -0.3526  0.1963  0.3378
   69MOL0     C 9232   3.107   0.459   3.485  0.0614  0.1022  1.1936
   69MOL0     C 9233   2.974   0.432   3.463  0.2812  0.3609 -0.9063
   69MOL0     C 9234   2.586   0.273   3.269  0.4232  0.5158 -0.5882
   69MOL0     C 9235   2.518   0.274   3.387 -0.8140  0.7835 -0.0472
   69MOL0     C 9236   2.383   0.240   3.397 -0.9203 -0.3476 -0.6630
   69MOL0     C 9237   2.306   0.204   3.293 -0.3027 -0.2333 -0.0748
   69MOL0     O 9238   2.172   0.169   3.296 -0.2533  0.1199  0.3793
   69MOL0     C 9239   2.094   0.222   3.405 -0.9427 -0.6213  0.7915
   69MOL0     C 9240   1.947   0.266   3.361 -0.2861  1.0780 -0.0334
   69MOL0     C 9241   1.845   0.263   3.471 -0.2725 -0.5321 -0.3924
   69MOL0     C 9242   1.713   0.314   3.405  0.3585 -0.3447 -0.4753
   69MOL0     C 9243   1.607   0.313   3.512 -0.5904 -1.0504  0.8856
   69MOL0     C 9244   1.526   0.314   3.601  1.0773 -0.2665  0.3870
   69MOL0     C 9245   2.380   0.193   3.171  1.3036  0.4527  0.0888
   69MOL0     C 9246   2.515   0.230   3.155 -0.7405  0.8532 -0.3225
   69MOL0     C 9247   2.563   0.244   3.008  0.2227 -0.0579  0.5740
   69MOL0     H 9248   2.983   0.190   3.233  0.9856 -0.7357 -1.1261
   69MOL0     H 9249   3.214   0.213   3.264  1.1840  1.6366 -0.6428
   69MOL0     H 9250   3.374   0.346   3.245  0.5118  0.4234 -0.0678
   69MOL0     H 9251   3.503   0.430   3.331 -1.0391  1.6770  1.1879
   69MOL0     H 9252   3.539   0.179   3.312 -1.1667 -1.6166 -0.2536
   69MOL0     H 9253   3.396   0.159   3.414  1.3878  0.5509  2.5130
   69MOL0     H 9254   3.561   0.149   3.568 -0.8033 -1.1250 -2.3583
   69MOL0     H 9255   3.527   0.333   3.581 -0.5427 -1.4963  1.8364
   69MOL0     H 9256   3.748   0.188   3.432  1.5476 -2.4793  3.7419
   69MOL0     H 9257   3.721   0.352   3.419  0.0996  0.7284  0.5193
   69MOL0     H 9258   3.906   0.307   3.552  1.3609  2.4436  1.2327
   69MOL0     H 9259   3.770   0.386   3.644 -1.0768 -0.9347 -1.0908
   69MOL0     H 9260   3.707   0.176   3.753  0.4178  0.5409 -0.6237
   69MOL0     H 9261   3.850   0.097   3.684 -0.2554 -0.1611  0.9890
   69MOL0     H 9262   3.877   0.216   3.939  2.5756 -0.4085  0.3801
   69MOL0     H 9263   3.836   0.361   3.862 -0.0050  1.0114 -1.5945
   69MOL0     H 9264   4.078   0.194   3.761 -2.0564  0.0838 -1.3212
   69MOL0     H 9265   4.043   0.358   3.732 -5.7663 -3.2963 -6.1264
   69MOL0     H 9266   4.025   0.498   3.991  0.3893  0.4914  0.5604
   69MOL0     H 9267   4.348   0.554   4.197  0.1692 -1.3354 -1.7694
   69MOL0     H 9268   4.181   0.611   4.185 -0.5857  0.0786  2.1822
   69MOL0     H 9269   4.241   0.365   4.356  0.7827  0.0725 -0.7981
   69MOL0     H 9270   4.262   0.529   4.406  0.6486 -0.3537  0.3061
   69MOL0     H 9271   3.994   0.426   4.293 -2.6109  0.2460  2.6723
   69MOL0     H 9272   4.030   0.599   4.333 -0.9882  1.5865  2.7832
   69MOL0     H 9273   3.908   0.498   4.512  0.7727  1.3404  0.5248
   69MOL0     H 9274   4.066   0.522   4.578 -0.4735 -0.4475  1.0276
   69MOL0     H 9275   4.027   0.113   4.403 -1.0118  0.7950 -1.1610
   69MOL0     H 9276   3.842  -0.011   4.302  0.9366 -3.4437  3.4381
   69MOL0     H 9277   3.373  -0.134   4.225 -0.9950  2.0751 -0.2397
   69MOL0     H 9278   3.192  -0.264   4.220 -0.3047  0.1569  0.1693
   69MOL0     H 9279   2.978  -0.344   4.242 -1.7370  0.6211  0.8398
   69MOL0     H 9280   3.116  -0.454   4.227  1.0977  4.7574  0.2862
   69MOL0     H 9281   2.895  -0.540   4.192 -0.1167 -1.9559 -0.2353
   69MOL0     H 9282   2.991  -0.636   4.297  0.0481  0.5604  0.4964
   69MOL0     H 9283   2.831  -0.605   4.481 -0.9559 -2.0636 -1.9501
   69MOL0     H 9284   2.793  -0.446   4.408  0.1197  0.9790 -1.6315
   69MOL0     H 9285   2.699  -0.709   4.294  1.0006  0.3842 -3.0732
   69MOL0     H 9286   2.674  -0.561   4.219  2.1877  3.0628  0.3767
   69MOL0     H 9287   2.564  -0.462   4.410 -0.2432  0.4891  0.1604
   69MOL0     H 9288   2.567  -0.610   4.501  1.5459  1.5495  0.3821
   69MOL0     H 9289   2.350  -0.602   4.410 -0.6683 -1.8552 -0.7833
   69MOL0     H 9290   2.397  -0.560   4.248  2.4034  2.2021  0.6262
   69MOL0     H 9291   2.496  -0.823   4.363 -0.3694  3.2396  3.3511
   69MOL0     H 9292   2.482  -0.762   4.198  0.7603 -0.9541 -0.5945
   69MOL0     H 9293   2.347  -0.941   4.225  0.4601 -0.4679  0.2904
   69MOL0     H 9294   2.243  -0.879   4.359  1.8146 -0.2966  0.4406
   69MOL0     H 9295   3.186  -0.317   4.647  2.4130  0.4318  1.9957
   69MOL0     H 9296   3.361  -0.143   4.663  0.4038  0.8569 -0.1684
   69MOL0     H 9297   3.562   0.230   4.525  1.7384  0.1810  3.6669
   69MOL0     H 9298   3.756   0.376   4.604  1.4978  0.4305 -0.0579
   69MOL0     H 9299   3.139   0.531   3.560 -1.7856  0.9351  1.2508
   69MOL0     H 9300   2.889   0.473   3.516  1.0736  1.7486 -0.6407
   69MOL0     H 9301   2.571   0.311   3.474  0.7849 -0.8082 -0.2657
   69MOL0     H 9302   2.343   0.241   3.499  0.9402 -3.3491  0.2151
   69MOL0     H 9303   2.146   0.308   3.448  0.5861 -0.6233 -0.9376
   69MOL0     H 9304   2.073   0.152   3.486  1.2603 -1.4462  0.7369
   69MOL0     H 9305   1.906   0.199   3.285  0.4427 -0.4394  0.8556
   69MOL0     H 9306   1.950   0.367   3.320  1.5348  0.9702 -0.2321
   69MOL0     H 9307   1.884   0.321   3.555 -3.8246 -0.9202  1.7076
   69MOL0     H 9308   1.831   0.162   3.509  0.3411 -0.1712  0.8377
   69MOL0     H 9309   1.718   0.417   3.366  3.1313 -0.6176 -1.0125
   69MOL0     H 9310   1.671   0.254   3.323  0.9237 -0.4075 -0.7231
   69MOL0     H 9311   1.448   0.306   3.674 -0.4232  0.1702 -1.0843
   69MOL0     H 9312   2.316   0.167   3.087  0.9791 -0.4031  0.5806
   69MOL0     H 9313   2.668   0.223   2.983  0.1326  1.9885 -1.9939
   69MOL0     H 9314   2.505   0.173   2.948 -0.1199  0.8998 -0.2441
   69MOL0     H 9315   2.543   0.344   2.969 -1.5828 -1.3252 -2.0101
   70MOL0     O 9316   9.315  10.127   8.371  0.3727 -0.5620 -0.1561
   70MOL0     C 9317   9.270  10.118   8.484  0.1436 -1.1047 -0.2991
   70MOL0     O 9318   9.337  10.088   8.587  0.4036 -0.6654 -0.4992
   70MOL0     C 9319   9.464  10.048   8.587  0.2873 -0.0855 -0.2476
   70MOL0     C 9320   9.500   9.922   8.645 -0.7305 -0.1466 -0.6475
   70MOL0     C 9321   9.638   9.903   8.676 -0.5641  0.1297 -0.3130
   70MOL0     C 9322   9.738  10.004   8.655 -0.4512 -1.3738 -0.4570
   70MOL0     O 9323   9.876   9.991   8.669  0.2392 -0.3616  0.2110
   70MOL0     C 9324   9.937   9.902   8.765  0.6864 -0.5879 -0.9596
   70MOL0     C 9325  10.081   9.889   8.719  0.0201  0.6491  0.3092
   70MOL0     C 9326  10.160   9.792   8.801 -0.3046  0.2398 -0.0160
   70MOL0     C 9327  10.109   9.636   8.792 -0.6444  0.2211  0.8792
   70MOL0     C 9328  10.223   9.540   8.840  0.0243 -0.2630 -0.1880
   70MOL0     C 9329  10.174   9.401   8.842  0.3763 -0.2662  0.4299
   70MOL0     C 9330  10.282   9.308   8.905 -0.2237  1.2375 -0.2152
   70MOL0     C 9331  10.210   9.176   8.948 -0.5879  0.2269  0.2859
   70MOL0     N 9332  10.282   9.114   9.062  0.1052 -0.1502  0.0197
   70MOL0     C 9333  10.375   9.019   9.038  0.7884 -0.7243 -0.3038
   70MOL0     C 9334  10.404   8.979   9.161  0.7345  1.3156 -0.0181
   70MOL0     C 9335  10.482   8.856   9.202  0.5378  0.1391 -0.6719
   70MOL0     C 9336  10.630   8.872   9.155 -0.1141 -0.6549 -0.2017
   70MOL0     C 9337  10.700   9.000   9.183 -1.0253 -0.6730  0.8215
   70MOL0     C 9338  10.843   9.009   9.108 -0.0204  0.8264 -0.7085
   70MOL0     O 9339  10.838   8.961   8.968  0.7062  0.5979 -0.7456
   70MOL0     C 9340  10.800   9.043   8.866  0.2012 -0.5352  0.1101
   70MOL0     C 9341  10.763   9.181   8.886 -0.3126  0.6416  0.9988
   70MOL0     C 9342  10.743   9.262   8.784  0.0040 -0.1859  0.2761
   70MOL0     C 9343  10.754   9.221   8.651 -0.1478 -0.7161  0.4896
   70MOL0     C 9344  10.719   9.317   8.537 -0.2080 -0.1369  0.1126
   70MOL0     O 9345  10.704   9.256   8.409 -0.3667  0.4673  0.2649
   70MOL0     C 9346  10.703   9.338   8.303  0.0437  0.6042  0.2536
   70MOL0     C 9347  10.774   9.462   8.289 -1.0937  0.4733 -0.6192
   70MOL0     C 9348  10.756   9.549   8.178 -0.6493  0.4631 -0.6533
   70MOL0     C 9349  10.662   9.508   8.085  0.5826 -0.6095 -0.2788
   70MOL0     O 9350  10.629   9.593   7.984 -0.3839 -0.2727  0.4709
   70MOL0     C 9351  10.493   9.637   7.968  0.2433 -0.5611 -0.8379
   70MOL0     C 9352  10.495   9.747   7.853  0.3758 -0.0271 -0.0520
   70MOL0     C 9353  10.362   9.808   7.829  0.1820 -0.6686 -0.5105
   70MOL0     C 9354  10.242   9.719   7.843 -0.4322 -1.4273  0.3561
   70MOL0     C 9355  10.111   9.805   7.809 -0.6624  0.7719 -0.4186
   70MOL0     C 9356  10.111   9.891   7.688 -0.6171  0.0775 -0.3235
   70MOL0     C 9357   9.960   9.914   7.641 -0.7556  0.6883 -0.1191
   70MOL0     C 9358   9.966  10.005   7.528 -0.1593  0.1762  0.1756
   70MOL0    Cl 9359   9.824   9.981   7.428  0.1721 -0.1797  0.7340
   70MOL0     C 9360  10.603   9.381   8.094  0.7810 -1.3820  0.3812
   70MOL0     C 9361  10.621   9.300   8.197 -0.9632 -0.0577 -0.6489
   70MOL0     O 9362  10.672   9.430   8.567 -0.7005  0.6328 -0.3290
   70MOL0     C 9363  10.815   9.098   8.635  0.2099 -0.0881 -0.5469
   70MOL0     C 9364  10.832   9.005   8.735  0.2981  0.7088 -1.1262
   70MOL0     N 9365  10.330   9.048   9.256  0.4817 -0.4052  0.0222
   70MOL0     N 9366  10.254   9.129   9.188 -0.1920 -0.6127 -0.3616
   70MOL0     C 9367   9.699  10.124   8.603 -0.2785  0.7293  1.1236
   70MOL0     C 9368   9.567  10.143   8.565  0.3488  1.3245 -0.5003
   70MOL0     C 9369   9.135  10.180   8.502  0.4483 -0.8764  0.6486
   70MOL0     C 9370   9.113  10.262   8.612 -0.1701  0.7177  0.4779
   70MOL0     C 9371   8.988  10.332   8.618 -0.1004 -0.0540 -0.3410
   70MOL0     C 9372   8.886  10.319   8.532  0.3125  0.6118 -0.8824
   70MOL0     O 9373   8.753  10.353   8.543  0.4754  0.0148  0.0902
   70MOL0     C 9374   8.706  10.444   8.642 -0.0209  0.3188  0.5196
   70MOL0     C 9375   8.553  10.434   8.634 -0.4717  0.3445 -0.0936
   70MOL0     C 9376   8.492  10.559   8.702  0.0625  0.3880  0.8121
   70MOL0     C 9377   8.340  10.573   8.678 -0.0617  1.2963  0.0724
   70MOL0     C 9378   8.315  10.622   8.543  0.5817 -0.8983  1.0440
   70MOL0     C 9379   8.270  10.671   8.440 -1.1137  0.3699  0.7594
   70MOL0     C 9380   8.915  10.236   8.425  0.9330 -0.5086 -0.1991
   70MOL0     C 9381   9.033  10.170   8.405  0.2494  0.0090 -0.7682
   70MOL0     C 9382   9.042  10.082   8.282 -0.7345  0.4699  0.7292
   70MOL0     H 9383   9.433   9.844   8.680 -0.6411  1.3680  3.4311
   70MOL0     H 9384   9.665   9.807   8.720  1.3009  2.0093  3.0151
   70MOL0     H 9385   9.942   9.957   8.859  2.1563 -1.5703 -0.4210
   70MOL0     H 9386   9.885   9.805   8.774  2.7004 -1.7847 -1.6345
   70MOL0     H 9387  10.132   9.984   8.703  1.3238 -0.0943 -0.0358
   70MOL0     H 9388  10.070   9.854   8.616 -0.8810  0.5562  0.4248
   70MOL0     H 9389  10.149   9.811   8.908 -2.0383  2.4431 -0.5191
   70MOL0     H 9390  10.264   9.815   8.776 -1.0131  1.8249 -1.7550
   70MOL0     H 9391  10.020   9.631   8.856  0.1139 -2.5284  1.8556
   70MOL0     H 9392  10.068   9.595   8.699 -1.7595  2.8901  0.1100
   70MOL0     H 9393  10.299   9.562   8.765 -1.3410 -1.5981 -2.0460
   70MOL0     H 9394  10.276   9.553   8.935 -0.4827  0.5319 -0.0014
   70MOL0     H 9395  10.079   9.393   8.896 -0.8962  1.3781 -1.4137
   70MOL0     H 9396  10.164   9.374   8.737 -2.4196  3.4059 -0.4715
   70MOL0     H 9397  10.333   9.351   8.992 -1.8644  1.0068  0.9096
   70MOL0     H 9398  10.346   9.272   8.824 -0.0814 -2.0362  1.1830
   70MOL0     H 9399  10.114   9.199   8.996 -0.5290 -0.4574  0.7540
   70MOL0     H 9400  10.193   9.111   8.861  1.0654  1.5329 -1.0632
   70MOL0     H 9401  10.429   8.987   8.949  1.3249  0.3485 -0.3771
   70MOL0     H 9402  10.467   8.844   9.310 -1.2372 -0.4098 -0.9478
   70MOL0     H 9403  10.448   8.766   9.150 -0.1070  0.1013 -0.2000
   70MOL0     H 9404  10.694   8.794   9.197  2.0601  0.9701 -0.3021
   70MOL0     H 9405  10.627   8.844   9.050  0.5525 -1.3686 -0.0429
   70MOL0     H 9406  10.698   9.011   9.292  0.4993  1.4806  0.6820
   70MOL0     H 9407  10.641   9.084   9.146  2.2863  1.4894  0.0376
   70MOL0     H 9408  10.909   8.937   9.157  2.3233  2.3513 -1.4584
   70MOL0     H 9409  10.876   9.113   9.121  0.2463  0.6530  0.0355
   70MOL0     H 9410  10.733   9.207   8.987 -1.9935  1.7228  0.2841
   70MOL0     H 9411  10.720   9.366   8.807  1.1894 -0.2567  1.9291
   70MOL0     H 9412  10.829   9.500   8.374 -3.1022  0.6694  0.6611
   70MOL0     H 9413  10.808   9.644   8.165  1.8844 -0.9281 -1.1587
   70MOL0     H 9414  10.415   9.562   7.955 -1.3094  0.3543  2.3911
   70MOL0     H 9415  10.471   9.700   8.054  0.9387  1.5299 -2.0877
   70MOL0     H 9416  10.566   9.827   7.874 -2.0019  1.7180  1.8837
   70MOL0     H 9417  10.542   9.700   7.767 -0.5589 -2.2632  0.5749
   70MOL0     H 9418  10.347   9.900   7.886  0.7850 -1.1184  0.3989
   70MOL0     H 9419  10.351   9.834   7.724 -1.9482 -3.3782 -1.0761
   70MOL0     H 9420  10.238   9.691   7.949 -0.2111  0.0414  0.7728
   70MOL0     H 9421  10.239   9.635   7.773  0.1622 -1.6909  0.6470
   70MOL0     H 9422  10.092   9.862   7.900  0.4246 -0.6310  0.7335
   70MOL0     H 9423  10.034   9.727   7.811  0.9969 -1.0114  2.6714
   70MOL0     H 9424  10.151   9.992   7.705 -3.6841  1.1013  1.6475
   70MOL0     H 9425  10.168   9.841   7.609  1.2287  0.5941  0.6189
   70MOL0     H 9426   9.891   9.949   7.719 -1.0029  0.4995 -0.2493
   70MOL0     H 9427   9.917   9.822   7.600 -1.9039  0.4640  1.4948
   70MOL0     H 9428   9.978  10.106   7.568 -0.1551  1.1503 -2.1475
   70MOL0     H 9429  10.041   9.981   7.452 -1.8950  0.3624 -1.6587
   70MOL0     H 9430  10.531   9.356   8.017 -1.1476 -0.8243  1.9186
   70MOL0     H 9431  10.567   9.207   8.211 -1.7040  0.4625  0.0371
   70MOL0     H 9432  10.840   9.069   8.533 -0.3306  1.7758 -1.2370
   70MOL0     H 9433  10.851   8.902   8.707  0.1313 -0.1001  1.4517
   70MOL0     H 9434   9.780  10.195   8.612  1.5674 -0.7253 -2.2058
   70MOL0     H 9435   9.534  10.245   8.553 -1.8024  1.2482  3.1719
   70MOL0     H 9436   9.187  10.279   8.690  0.8995  1.5299 -0.6668
   70MOL0     H 9437   8.976  10.403   8.699  1.7094 -0.7064  0.5761
   70MOL0     H 9438   8.738  10.543   8.606 -1.9917  0.0553 -2.2681
   70MOL0     H 9439   8.745  10.427   8.743  0.9007  0.0564  0.1297
   70MOL0     H 9440   8.512  10.345   8.681 -0.5267 -0.6277 -1.9203
   70MOL0     H 9441   8.510  10.440   8.534 -2.3487 -0.1336  0.6439
   70MOL0     H 9442   8.538  10.641   8.645  2.9674  0.3331  2.8814
   70MOL0     H 9443   8.517  10.567   8.808  1.5471  1.6963  0.3984
   70MOL0     H 9444   8.293  10.474   8.682 -0.3875  1.0897 -4.0813
   70MOL0     H 9445   8.292  10.642   8.747 -0.1002  1.3716 -0.0281
   70MOL0     H 9446   8.228  10.723   8.356  1.0339 -0.5705 -1.0013
   70MOL0     H 9447   8.837  10.213   8.352  0.8213  1.6849 -0.8681
   70MOL0     H 9448   9.069  10.145   8.197 -1.2368  2.2365  1.8275
   70MOL0     H 9449   9.115  10.002   8.300 -0.1309  1.6028  4.0398
   70MOL0     H 9450   8.946  10.032   8.261 -1.1720  2.3730 -2.4882
   71MOL0     O 9451   8.797   3.708   5.749 -0.1283 -0.2580  0.1310
   71MOL0     C 9452   8.838   3.808   5.694 -0.5058  0.1886 -0.0782
   71MOL0     O 9453   8.841   3.938   5.753 -0.3662 -0.4545 -0.1504
   71MOL0     C 9454   8.811   3.962   5.879 -0.2209  0.7188 -0.1557
   71MOL0     C 9455   8.886   3.948   5.993 -0.4248 -1.0834 -0.4161
   71MOL0     C 9456   8.833   3.998   6.112 -0.3439 -0.4631 -0.0518
   71MOL0     C 9457   8.706   4.055   6.117  0.9013 -0.1811  0.3336
   71MOL0     O 9458   8.660   4.096   6.235 -0.0113 -0.4593 -0.0024
   71MOL0     C 9459   8.602   3.980   6.311 -0.3005  0.0270  0.3196
   71MOL0     C 9460   8.466   4.016   6.368  0.0891  0.0615 -0.3636
   71MOL0     C 9461   8.355   4.013   6.262  0.0740  1.2350  0.0696
   71MOL0     C 9462   8.255   4.118   6.288 -0.9955  0.5410 -0.1640
   71MOL0     C 9463   8.135   4.061   6.376 -0.7671 -0.0487 -0.2789
   71MOL0     C 9464   8.000   4.121   6.361 -0.0502  0.3441 -0.1032
   71MOL0     C 9465   7.949   4.172   6.488 -0.0457  0.6040 -0.3623
   71MOL0     C 9466   7.900   4.066   6.589  0.1277  0.0967 -0.0790
   71MOL0     N 9467   7.844   4.124   6.711  0.0069 -0.2281  0.0591
   71MOL0     C 9468   7.916   4.201   6.800 -0.4186 -0.4595  0.0888
   71MOL0     C 9469   7.825   4.223   6.900  0.2232  0.7135  0.1721
   71MOL0     C 9470   7.832   4.296   7.029 -0.8395 -0.3876 -0.7530
   71MOL0     C 9471   7.860   4.449   7.008  0.1015 -0.1915  0.0172
   71MOL0     C 9472   7.881   4.502   7.149 -0.0330 -0.5769 -1.0408
   71MOL0     C 9473   7.906   4.653   7.165  0.4670 -0.1390 -0.0085
   71MOL0     O 9474   7.810   4.727   7.098  0.2506  0.0481 -0.3048
   71MOL0     C 9475   7.773   4.851   7.149  0.3875 -0.2510 -0.1947
   71MOL0     C 9476   7.849   4.925   7.240 -0.1289 -0.3266 -0.3696
   71MOL0     C 9477   7.813   5.054   7.276 -1.1445  0.2907  0.3228
   71MOL0     C 9478   7.686   5.105   7.243  0.3308  0.3749  0.1611
   71MOL0     C 9479   7.647   5.235   7.278  0.4226  0.5677 -0.0451
   71MOL0     O 9480   7.546   5.286   7.219  0.2197 -0.4114  0.8040
   71MOL0     C 9481   7.510   5.423   7.233 -0.3019 -0.2808 -0.0313
   71MOL0     C 9482   7.376   5.441   7.229  1.2152  1.1901  0.7569
   71MOL0     C 9483   7.319   5.574   7.220 -0.9490 -0.3508 -0.1265
   71MOL0     C 9484   7.401   5.686   7.243 -0.1444  0.0553  0.4521
   71MOL0     O 9485   7.343   5.807   7.230 -0.4641  0.6890 -0.0394
   71MOL0     C 9486   7.428   5.924   7.240  0.2939 -0.4170  0.2410
   71MOL0     C 9487   7.353   6.052   7.241 -0.6565 -0.8092  0.0788
   71MOL0     C 9488   7.432   6.187   7.269 -0.0430  0.3851 -0.4015
   71MOL0     C 9489   7.350   6.314   7.237 -0.0905 -0.1876 -0.9671
   71MOL0     C 9490   7.420   6.445   7.262 -0.1184 -0.0912  0.8050
   71MOL0     C 9491   7.331   6.568   7.223 -0.3612  0.1019  0.3126
   71MOL0     C 9492   7.413   6.697   7.252  0.4009  0.6158 -0.1170
   71MOL0     C 9493   7.334   6.820   7.220  0.7269  0.2569 -0.3023
   71MOL0    Cl 9494   7.419   6.979   7.248 -0.4926 -0.0240 -0.0212
   71MOL0     C 9495   7.541   5.655   7.247  0.0385  0.6534  0.3901
   71MOL0     C 9496   7.595   5.532   7.229  0.2246  0.8652 -1.1532
   71MOL0     O 9497   7.733   5.297   7.346  0.5927 -0.0577  0.0933
   71MOL0     C 9498   7.604   5.021   7.155 -0.6376 -0.6461 -0.1770
   71MOL0     C 9499   7.651   4.895   7.109 -0.0412 -0.6506  0.0129
   71MOL0     N 9500   7.705   4.165   6.872  0.1091 -0.4250  0.8988
   71MOL0     N 9501   7.720   4.108   6.762  0.8125 -0.0199  0.2955
   71MOL0     C 9502   8.631   4.070   6.003 -0.1704  0.0061  0.3154
   71MOL0     C 9503   8.685   4.019   5.887  0.5937 -0.5117  0.5886
   71MOL0     C 9504   8.891   3.813   5.549  0.1428  1.1712 -0.5856
   71MOL0     C 9505   8.910   3.939   5.485  1.0757 -0.2625  0.0431
   71MOL0     C 9506   8.946   3.952   5.348  0.0846 -0.9573 -0.2704
   71MOL0     C 9507   8.967   3.836   5.265 -0.4039  0.7648 -1.2711
   71MOL0     O 9508   9.003   3.830   5.133 -0.2077  0.4008  0.4709
   71MOL0     C 9509   9.010   3.955   5.069  0.3686  0.3341 -0.4713
   71MOL0     C 9510   9.059   3.958   4.928  0.4073  0.3517  0.4595
   71MOL0     C 9511   8.977   3.851   4.849 -1.1401  0.3554  0.3436
   71MOL0     C 9512   9.005   3.856   4.696  0.7140  0.5502 -1.1182
   71MOL0     C 9513   9.149   3.882   4.655 -0.0530 -0.5163  1.0744
   71MOL0     C 9514   9.251   3.919   4.601  0.2550  0.5316  0.1798
   71MOL0     C 9515   8.953   3.713   5.333  0.1236  0.0741 -0.5864
   71MOL0     C 9516   8.918   3.699   5.469 -0.1318 -1.1700  0.3842
   71MOL0     C 9517   8.926   3.558   5.520  0.8932  0.1668 -0.9244
   71MOL0     H 9518   8.989   3.914   5.997  0.8744  2.3464 -1.1761
   71MOL0     H 9519   8.895   3.996   6.200  0.2909 -0.5405 -0.4953
   71MOL0     H 9520   8.583   3.891   6.250 -1.9141  2.3348 -2.8843
   71MOL0     H 9521   8.669   3.967   6.396 -0.7907 -4.3130  0.2368
   71MOL0     H 9522   8.475   4.111   6.422  0.5370 -0.2105  0.0570
   71MOL0     H 9523   8.429   3.946   6.443 -2.5886  0.8832 -0.8304
   71MOL0     H 9524   8.315   3.911   6.250 -0.1741  1.3305  0.0716
   71MOL0     H 9525   8.416   4.041   6.176  0.0062 -0.8026 -0.6936
   71MOL0     H 9526   8.306   4.210   6.315  0.9828 -0.2556 -0.9880
   71MOL0     H 9527   8.210   4.141   6.190 -0.3424 -0.8200 -0.8166
   71MOL0     H 9528   8.131   3.953   6.363  0.3295 -0.1246 -0.0551
   71MOL0     H 9529   8.179   4.086   6.473 -2.2105 -2.8722  1.2192
   71MOL0     H 9530   8.013   4.203   6.289  1.3233  1.4347  1.3167
   71MOL0     H 9531   7.920   4.057   6.325 -2.1501  2.2826  0.8395
   71MOL0     H 9532   7.874   4.250   6.475 -0.8273 -0.5804 -4.0077
   71MOL0     H 9533   8.031   4.227   6.535  1.4909 -2.1406  0.3487
   71MOL0     H 9534   7.819   4.016   6.537 -2.3878  2.6402  1.1026
   71MOL0     H 9535   7.983   3.999   6.613 -0.2725 -0.4235 -0.1523
   71MOL0     H 9536   8.019   4.236   6.792 -0.0409 -1.6566 -0.5414
   71MOL0     H 9537   7.737   4.276   7.081 -0.0315 -0.9565  0.5817
   71MOL0     H 9538   7.901   4.255   7.104 -2.2550 -1.6233 -0.0530
   71MOL0     H 9539   7.951   4.469   6.952  0.7948 -0.5272  0.9934
   71MOL0     H 9540   7.779   4.508   6.964  1.1169  2.6492  1.6796
   71MOL0     H 9541   7.961   4.445   7.197 -1.0580 -1.5448 -0.4303
   71MOL0     H 9542   7.790   4.495   7.208 -0.2480 -0.2457 -1.3333
   71MOL0     H 9543   8.004   4.678   7.125 -0.8868  5.0935 -0.7281
   71MOL0     H 9544   7.903   4.671   7.273 -2.4884 -3.6997  0.7263
   71MOL0     H 9545   7.946   4.890   7.274  0.2967  2.0329  1.0660
   71MOL0     H 9546   7.890   5.110   7.330 -1.5307  0.7432  0.4090
   71MOL0     H 9547   7.314   5.352   7.219 -0.2452  2.3975 -2.7002
   71MOL0     H 9548   7.213   5.588   7.206 -0.5351  0.7762 -2.5237
   71MOL0     H 9549   7.474   5.913   7.338 -0.9727 -2.9606  0.6359
   71MOL0     H 9550   7.496   5.940   7.155  2.0826  1.0590  1.8515
   71MOL0     H 9551   7.301   6.057   7.145 -0.6555  2.2597  0.1163
   71MOL0     H 9552   7.276   6.035   7.316 -0.7613 -4.8048 -0.7517
   71MOL0     H 9553   7.462   6.185   7.374 -2.4022 -0.1959  0.3361
   71MOL0     H 9554   7.525   6.182   7.213  1.0608  1.7041  1.2390
   71MOL0     H 9555   7.273   6.293   7.312  1.5859 -1.9826  0.3651
   71MOL0     H 9556   7.315   6.322   7.134  0.1366  0.8471 -0.9728
   71MOL0     H 9557   7.516   6.452   7.211 -0.1488 -0.4299  0.7007
   71MOL0     H 9558   7.438   6.444   7.370  1.8393  0.1741  0.5289
   71MOL0     H 9559   7.316   6.577   7.115 -1.5590 -3.9305 -0.0481
   71MOL0     H 9560   7.234   6.550   7.271  0.7129 -2.7318  1.7024
   71MOL0     H 9561   7.511   6.695   7.204  1.1059  0.1481  1.2912
   71MOL0     H 9562   7.429   6.706   7.360 -2.3896  3.6889  0.2006
   71MOL0     H 9563   7.291   6.816   7.119  0.3969 -0.1531 -0.1466
   71MOL0     H 9564   7.253   6.816   7.294 -1.5846 -1.2309 -2.7009
   71MOL0     H 9565   7.608   5.741   7.245  1.9503 -0.7526  0.1237
   71MOL0     H 9566   7.704   5.527   7.235  0.1743 -3.6222 -0.4900
   71MOL0     H 9567   7.506   5.054   7.122 -0.2886 -0.0253 -0.6164
   71MOL0     H 9568   7.590   4.845   7.034 -0.4340  1.1491 -0.9131
   71MOL0     H 9569   8.529   4.106   6.009  0.2435  1.7194 -1.8369
   71MOL0     H 9570   8.628   4.046   5.799 -2.1948 -0.2130  2.3566
   71MOL0     H 9571   8.877   4.021   5.548 -0.3666 -3.0493  3.2744
   71MOL0     H 9572   8.960   4.053   5.313 -3.6696  0.0257  0.5915
   71MOL0     H 9573   9.083   4.009   5.129  0.5908 -0.0557 -0.3893
   71MOL0     H 9574   8.916   4.011   5.079  1.4813  2.4464 -1.0729
   71MOL0     H 9575   9.165   3.938   4.909  0.4759 -0.1694  1.3575
   71MOL0     H 9576   9.042   4.059   4.889  1.0227  0.2274 -0.1640
   71MOL0     H 9577   8.871   3.870   4.866 -1.3885 -1.1298  0.5352
   71MOL0     H 9578   9.013   3.755   4.886  1.6082  1.4210  0.6463
   71MOL0     H 9579   8.963   3.760   4.664 -0.0063 -0.4957  2.5552
   71MOL0     H 9580   8.937   3.930   4.653 -1.1295  0.0943  0.8652
   71MOL0     H 9581   9.346   3.937   4.555  1.0500 -1.7578  0.7772
   71MOL0     H 9582   8.987   3.634   5.266  0.5937  0.6520 -1.0509
   71MOL0     H 9583   8.834   3.513   5.561  0.6936  1.5890  0.2974
   71MOL0     H 9584   8.963   3.488   5.445  1.4766 -3.0582  2.1301
   71MOL0     H 9585   8.996   3.547   5.603  2.0059  0.1409 -1.8471
   72MOL0     O 9586   9.748   8.848   0.621  0.9680 -0.2892 -0.8762
   72MOL0     C 9587   9.675   8.922   0.562 -0.7006  0.3779  0.6043
   72MOL0     O 9588   9.589   9.020   0.614  0.1076 -0.5755  0.6637
   72MOL0     C 9589   9.608   9.058   0.739 -0.4355 -0.5977  0.6750
   72MOL0     C 9590   9.665   9.177   0.768 -0.5341 -0.7332 -0.1320
   72MOL0     C 9591   9.692   9.204   0.905  0.1393  0.1040 -0.2305
   72MOL0     C 9592   9.650   9.114   1.007 -0.4514 -0.0143  0.5538
   72MOL0     O 9593   9.680   9.113   1.143  0.2532  0.1718  0.8144
   72MOL0     C 9594   9.722   9.236   1.202  0.2807 -0.3239  0.4904
   72MOL0     C 9595   9.758   9.205   1.346  0.3256  0.7691 -0.9460
   72MOL0     C 9596   9.794   9.346   1.410 -0.4977 -0.0490  0.8507
   72MOL0     C 9597   9.801   9.340   1.560 -0.0182  0.2497  0.6139
   72MOL0     C 9598   9.833   9.477   1.625  0.2748 -0.1129 -0.3022
   72MOL0     C 9599   9.970   9.526   1.579 -0.8853  0.3139 -0.0778
   72MOL0     C 9600  10.091   9.434   1.623  0.4902 -0.3348  0.9736
   72MOL0     C 9601  10.227   9.483   1.557  0.0555 -0.7597  0.2564
   72MOL0     N 9602  10.307   9.579   1.632  0.2714 -0.4018  0.6789
   72MOL0     C 9603  10.414   9.554   1.714  1.0355 -0.5710  0.9321
   72MOL0     C 9604  10.455   9.673   1.757  0.1941 -0.9028 -0.7700
   72MOL0     C 9605  10.554   9.687   1.867  0.1009 -0.4948 -0.0006
   72MOL0     C 9606  10.675   9.773   1.820 -0.3130  0.3922 -0.4546
   72MOL0     C 9607  10.758   9.800   1.943 -0.3527 -0.5080  0.5456
   72MOL0     C 9608  10.879   9.878   1.891  0.5622 -0.5079  0.9787
   72MOL0     O 9609  10.945   9.908   2.011 -0.0709 -0.0497 -0.2707
   72MOL0     C 9610  10.997  10.035   2.023  0.4741  0.0294 -0.4204
   72MOL0     C 9611  10.950  10.127   2.120 -0.1114 -1.0214  0.1223
   72MOL0     C 9612  11.001  10.263   2.131 -0.6407  0.7223  0.5551
   72MOL0     C 9613  11.095  10.313   2.039 -0.5452  0.5777  0.1733
   72MOL0     C 9614  11.136  10.454   2.042  0.7950  0.0582  0.4962
   72MOL0     O 9615  11.239  10.495   1.963 -0.3210  0.7854  0.2032
   72MOL0     C 9616  11.273  10.631   1.939  0.4906  0.4121 -0.4298
   72MOL0     C 9617  11.191  10.744   1.946 -0.9928 -0.6359  0.6645
   72MOL0     C 9618  11.247  10.869   1.921 -0.2478 -0.0873  0.9253
   72MOL0     C 9619  11.386  10.881   1.894  1.0722 -1.2472 -0.5829
   72MOL0     O 9620  11.426  11.008   1.875  0.4836 -1.1253 -0.0164
   72MOL0     C 9621  11.564  11.040   1.859 -0.4411 -0.2679  0.6067
   72MOL0     C 9622  11.569  11.190   1.812  1.0503 -0.2704  0.1165
   72MOL0     C 9623  11.705  11.231   1.758  0.7081  0.1996  0.0512
   72MOL0     C 9624  11.818  11.220   1.863  0.5566  0.4635 -0.3009
   72MOL0     C 9625  11.952  11.263   1.795  0.8590  0.0834 -0.2484
   72MOL0     C 9626  12.064  11.217   1.883 -0.1667 -0.6416  0.0663
   72MOL0     C 9627  12.203  11.284   1.852 -0.4893 -0.5981  0.3166
   72MOL0     C 9628  12.298  11.258   1.966 -0.1193  0.6656  0.3045
   72MOL0    Cl 9629  12.311  11.083   2.012  0.6688 -0.3714  0.1538
   72MOL0     C 9630  11.463  10.774   1.882  0.1629 -0.5544  0.6268
   72MOL0     C 9631  11.416  10.644   1.902  0.4188  0.5249  0.3680
   72MOL0     O 9632  11.074  10.529   2.118  0.5325 -0.2564  0.6786
   72MOL0     C 9633  11.160  10.215   1.966  0.4325 -0.0448  0.4598
   72MOL0     C 9634  11.105  10.091   1.944 -0.8010  0.7008  0.8071
   72MOL0     N 9635  10.367   9.770   1.708 -0.8110 -0.1740  0.1301
   72MOL0     N 9636  10.275   9.710   1.646 -0.9158 -0.1642 -0.4203
   72MOL0     C 9637   9.579   8.997   0.964  0.5759 -1.0716  0.8234
   72MOL0     C 9638   9.562   8.965   0.828  0.7638 -0.8258  0.2232
   72MOL0     C 9639   9.690   8.918   0.411 -0.0069  0.0202 -0.4813
   72MOL0     C 9640   9.790   8.844   0.348 -0.6771  0.2275  0.1702
   72MOL0     C 9641   9.807   8.822   0.211  0.4915 -0.4281 -1.1716
   72MOL0     C 9642   9.709   8.879   0.125 -1.4289 -0.4962 -0.9147
   72MOL0     O 9643   9.716   8.870  -0.010 -0.9580  0.7200 -0.3710
   72MOL0     C 9644   9.594   8.868  -0.086  0.8428  0.1867  0.6838
   72MOL0     C 9645   9.504   8.744  -0.069  0.0616  0.0295  0.2202
   72MOL0     C 9646   9.555   8.636  -0.173  0.4168  0.3986 -0.1087
   72MOL0     C 9647   9.453   8.637  -0.296 -0.6054 -1.3063  0.5775
   72MOL0     C 9648   9.515   8.577  -0.418 -1.0861  1.2094  1.3791
   72MOL0     C 9649   9.574   8.545  -0.520 -1.0490 -0.7941  0.3249
   72MOL0     C 9650   9.609   8.961   0.187 -0.1616  0.6117  0.1370
   72MOL0     C 9651   9.594   8.982   0.325  0.0848 -0.1249  0.6022
   72MOL0     C 9652   9.493   9.085   0.369 -0.6539 -0.3108 -0.5243
   72MOL0     H 9653   9.698   9.249   0.694  0.9215 -1.9968 -0.7642
   72MOL0     H 9654   9.746   9.295   0.926 -0.0298  0.3224 -0.7424
   72MOL0     H 9655   9.810   9.271   1.148  0.4531 -1.3080  0.1016
   72MOL0     H 9656   9.639   9.307   1.193 -0.4985 -0.7508  3.3611
   72MOL0     H 9657   9.842   9.136   1.352 -1.0117 -0.9784 -1.5342
   72MOL0     H 9658   9.677   9.162   1.406 -0.9898  2.9841 -1.0173
   72MOL0     H 9659   9.721   9.426   1.392 -0.6384 -0.6896 -1.9532
   72MOL0     H 9660   9.892   9.378   1.375 -1.5290  0.7510 -1.5501
   72MOL0     H 9661   9.704   9.304   1.595  0.4474  1.1994  3.0432
   72MOL0     H 9662   9.880   9.268   1.581  0.9854  0.7025 -1.3225
   72MOL0     H 9663   9.757   9.548   1.590  0.3293 -0.7046 -1.6670
   72MOL0     H 9664   9.837   9.467   1.734 -0.2886  0.3039 -0.2397
   72MOL0     H 9665   9.985   9.539   1.472  5.6834 -2.1022  0.0934
   72MOL0     H 9666   9.975   9.624   1.629 -0.3303  0.1095  0.2675
   72MOL0     H 9667  10.074   9.335   1.580 -1.7944  0.9847 -1.4544
   72MOL0     H 9668  10.111   9.424   1.730  2.8613 -1.1850  0.5222
   72MOL0     H 9669  10.293   9.397   1.540  0.4276 -0.4981  0.3617
   72MOL0     H 9670  10.217   9.530   1.458  2.9863  1.7104  0.9727
   72MOL0     H 9671  10.462   9.459   1.733 -1.3152 -1.6967  1.6716
   72MOL0     H 9672  10.505   9.727   1.956  0.6220 -0.0589  0.1006
   72MOL0     H 9673  10.599   9.589   1.888 -0.8866 -0.7172  1.2016
   72MOL0     H 9674  10.736   9.737   1.738 -0.1806  3.2326 -1.7361
   72MOL0     H 9675  10.642   9.872   1.787 -0.7688  0.8127  1.1573
   72MOL0     H 9676  10.798   9.706   1.984  2.3431 -0.0221 -0.7409
   72MOL0     H 9677  10.707   9.855   2.022  2.3827  0.0709  2.0563
   72MOL0     H 9678  10.849   9.964   1.831 -2.5809  0.1041  3.1562
   72MOL0     H 9679  10.954   9.827   1.830  0.7051  1.1848 -0.3555
   72MOL0     H 9680  10.862  10.096   2.176 -0.2756 -0.4713  0.1812
   72MOL0     H 9681  10.951  10.319   2.210 -0.5156  2.7822 -0.7619
   72MOL0     H 9682  11.086  10.741   1.970 -1.3525 -0.7525 -0.7852
   72MOL0     H 9683  11.188  10.960   1.925 -0.8261 -0.3996 -0.0032
   72MOL0     H 9684  11.619  11.013   1.949 -0.4796 -1.6143  0.2573
   72MOL0     H 9685  11.615  10.975   1.787  3.2425  0.6661  2.1363
   72MOL0     H 9686  11.499  11.214   1.732 -0.1165 -0.9246  0.9236
   72MOL0     H 9687  11.549  11.254   1.899  0.9193 -0.8870  0.5447
   72MOL0     H 9688  11.727  11.180   1.664  1.5598 -2.1303  1.4272
   72MOL0     H 9689  11.697  11.338   1.736  0.0808  0.0571 -0.4226
   72MOL0     H 9690  11.824  11.117   1.900  2.2248  0.4589 -0.5429
   72MOL0     H 9691  11.787  11.276   1.951  0.4333 -0.0964  0.0165
   72MOL0     H 9692  11.961  11.372   1.803  3.5050 -0.1880  1.9551
   72MOL0     H 9693  11.972  11.234   1.692  0.1474  0.4410 -0.4930
   72MOL0     H 9694  12.041  11.243   1.986 -1.4765 -0.6941 -0.1937
   72MOL0     H 9695  12.079  11.109   1.880  0.7436 -0.6100  2.2028
   72MOL0     H 9696  12.203  11.392   1.835  2.1293 -0.5560  0.1916
   72MOL0     H 9697  12.235  11.226   1.765 -0.6674 -2.8019  1.6145
   72MOL0     H 9698  12.396  11.302   1.946 -0.0281  0.0400 -0.7158
   72MOL0     H 9699  12.263  11.315   2.052 -1.6340 -0.4621  0.4812
   72MOL0     H 9700  11.567  10.779   1.855  0.2958  1.2226  1.3357
   72MOL0     H 9701  11.474  10.557   1.873  2.1772  1.6827  0.2513
   72MOL0     H 9702  11.237  10.263   1.905  2.1459 -1.5720  1.3073
   72MOL0     H 9703  11.150  10.028   1.867  0.0574  1.7869  0.4026
   72MOL0     H 9704   9.550   8.925   1.040  1.5582  0.6341  2.9450
   72MOL0     H 9705   9.534   8.868   0.789 -5.0742  1.1530 -1.4135
   72MOL0     H 9706   9.855   8.804   0.425  1.4943  4.2630  0.7109
   72MOL0     H 9707   9.897   8.778   0.169  2.8905  3.9430 -1.2764
   72MOL0     H 9708   9.620   8.861  -0.192  1.8064  1.1401  0.8398
   72MOL0     H 9709   9.529   8.953  -0.066 -0.0419 -1.0491  3.6279
   72MOL0     H 9710   9.399   8.772  -0.079 -0.2821 -0.7537  1.4142
   72MOL0     H 9711   9.522   8.703   0.031 -0.6441  0.6644  0.6122
   72MOL0     H 9712   9.548   8.537  -0.128  0.4473  0.9316  1.0908
   72MOL0     H 9713   9.661   8.650  -0.195  0.5801  2.2800  1.5380
   72MOL0     H 9714   9.371   8.579  -0.254 -0.4508 -0.6999  1.7643
   72MOL0     H 9715   9.408   8.736  -0.309  0.6398 -0.4097  2.4742
   72MOL0     H 9716   9.619   8.535  -0.616  0.3665 -0.3971  0.9170
   72MOL0     H 9717   9.534   9.009   0.124 -2.0804 -3.2826 -0.8623
   72MOL0     H 9718   9.549   9.170   0.408  2.4737 -2.7638  0.7898
   72MOL0     H 9719   9.424   9.119   0.291 -0.7519  0.3160 -0.1716
   72MOL0     H 9720   9.430   9.044   0.449  1.0481  2.8703  2.7606
   73MOL0     O 9721   2.813  10.375   6.910  0.1870  0.0561 -0.1770
   73MOL0     C 9722   2.879  10.475   6.928  0.1083 -0.0859 -0.6651
   73MOL0     O 9723   2.842  10.582   7.001  0.4050  0.0208 -0.0685
   73MOL0     C 9724   2.709  10.585   7.029 -0.1004 -0.2856 -0.8456
   73MOL0     C 9725   2.660  10.551   7.158  0.7319 -0.2145  0.8775
   73MOL0     C 9726   2.522  10.574   7.190  0.4107 -0.5393  0.0172
   73MOL0     C 9727   2.430  10.634   7.093 -0.3166  0.0301 -0.4165
   73MOL0     O 9728   2.307  10.668   7.141  0.1494 -0.7705 -0.6460
   73MOL0     C 9729   2.188  10.675   7.058 -0.1659 -0.2578 -0.2668
   73MOL0     C 9730   2.110  10.800   7.108  0.0519  1.0063 -0.5936
   73MOL0     C 9731   1.998  10.839   7.017  0.1592 -0.1503  0.6164
   73MOL0     C 9732   1.912  10.935   7.105  0.0568 -0.1877 -0.1963
   73MOL0     C 9733   1.786  10.977   7.034  0.3351 -0.5371 -0.5431
   73MOL0     C 9734   1.701  11.054   7.132 -0.4774 -0.0455  0.0354
   73MOL0     C 9735   1.576  11.111   7.050  0.1158 -0.1921 -0.7464
   73MOL0     C 9736   1.482  10.999   6.992  0.3628 -0.7753  0.5562
   73MOL0     N 9737   1.415  10.939   7.106 -0.5195  0.6388  0.2338
   73MOL0     C 9738   1.305  10.991   7.175  0.6444  0.4334  0.1501
   73MOL0     C 9739   1.287  10.908   7.281  0.1141 -0.7241 -0.1558
   73MOL0     C 9740   1.162  10.930   7.363  0.9924  0.5718  0.1499
   73MOL0     C 9741   1.042  10.838   7.325 -1.4381  0.3388  0.0397
   73MOL0     C 9742   0.946  10.809   7.444 -0.1206  0.7053 -0.3070
   73MOL0     C 9743   0.852  10.702   7.386  0.4984 -0.0015 -0.1639
   73MOL0     O 9744   0.826  10.606   7.495  0.3565 -0.3731 -0.6866
   73MOL0     C 9745   0.753  10.496   7.461 -0.3311 -0.4924 -0.5964
   73MOL0     C 9746   0.735  10.409   7.566  0.0752  0.2217 -0.1933
   73MOL0     C 9747   0.654  10.297   7.548 -0.3055  0.3299 -0.4542
   73MOL0     C 9748   0.585  10.266   7.426 -0.2058 -0.8970 -0.5656
   73MOL0     C 9749   0.505  10.145   7.408 -0.3040 -0.5087 -0.3760
   73MOL0     O 9750   0.424  10.143   7.305  0.3680  0.1100 -0.8623
   73MOL0     C 9751   0.365  10.032   7.256  0.7490  0.1652  0.2809
   73MOL0     C 9752   0.361   9.899   7.302 -0.0944 -0.2786  0.0812
   73MOL0     C 9753   0.285   9.797   7.244 -0.0893  0.4299  0.0320
   73MOL0     C 9754   0.229   9.821   7.112  0.4197 -0.3952  0.2468
   73MOL0     O 9755   0.149   9.730   7.054 -0.1489  0.1662  0.8393
   73MOL0     C 9756   0.143   9.732   6.907  0.4888  0.2672  0.1410
   73MOL0     C 9757   0.117   9.585   6.869 -0.2291 -0.3357  0.5939
   73MOL0     C 9758  -0.020   9.528   6.902  0.8860  0.3460  0.5834
   73MOL0     C 9759  -0.013   9.383   6.860 -0.8785 -0.0634 -0.4416
   73MOL0     C 9760  -0.142   9.305   6.877  0.8313 -0.1364  0.1015
   73MOL0     C 9761  -0.116   9.162   6.812 -0.3964  0.2708 -0.2020
   73MOL0     C 9762  -0.242   9.074   6.823 -0.7048 -0.2972 -0.8635
   73MOL0     C 9763  -0.230   8.997   6.960 -0.4832 -0.1313  1.6530
   73MOL0    Cl 9764  -0.370   8.900   6.988 -0.3072  0.4994 -0.3150
   73MOL0     C 9765   0.246   9.950   7.058 -0.1092 -0.9833  0.4634
   73MOL0     C 9766   0.308  10.063   7.129  0.0838  0.2404  0.7625
   73MOL0     O 9767   0.502  10.064   7.499  0.1124 -0.2740 -1.0894
   73MOL0     C 9768   0.609  10.344   7.322  0.0917  0.0647 -0.6180
   73MOL0     C 9769   0.691  10.461   7.337  0.4474 -0.4943  0.0019
   73MOL0     N 9770   1.380  10.804   7.288 -0.2374 -0.6369  0.2641
   73MOL0     N 9771   1.459  10.829   7.178 -0.1501  0.3400  0.1865
   73MOL0     C 9772   2.488  10.655   6.966  0.4801 -0.5860 -1.3517
   73MOL0     C 9773   2.620  10.622   6.934  0.3376 -0.9677 -0.2533
   73MOL0     C 9774   3.021  10.497   6.883 -0.2125 -0.2415  0.4893
   73MOL0     C 9775   3.112  10.552   6.973 -0.5673 -0.2766  1.0332
   73MOL0     C 9776   3.248  10.547   6.950  0.6084 -0.6917 -0.1513
   73MOL0     C 9777   3.294  10.493   6.825 -0.8842 -1.2822  0.0548
   73MOL0     O 9778   3.431  10.466   6.811  0.6290 -0.2838 -0.6477
   73MOL0     C 9779   3.478  10.364   6.730  0.3189  1.1296  0.2385
   73MOL0     C 9780   3.439  10.229   6.781 -0.3227 -0.5132  0.8278
   73MOL0     C 9781   3.441  10.206   6.931 -0.2043  0.3157  0.2822
   73MOL0     C 9782   3.583  10.196   6.985 -0.1884  0.3275 -0.3554
   73MOL0     C 9783   3.657  10.315   6.985  1.3734  0.3956 -0.7408
   73MOL0     C 9784   3.732  10.407   6.975 -0.5910 -0.3471  0.2104
   73MOL0     C 9785   3.195  10.448   6.739 -0.3000 -0.3004  0.2903
   73MOL0     C 9786   3.060  10.457   6.760  0.3602 -0.1320  0.0551
   73MOL0     C 9787   2.961  10.423   6.652 -0.6628 -0.5323  0.8140
   73MOL0     H 9788   2.719  10.507   7.238  2.1058  1.3320  0.7591
   73MOL0     H 9789   2.504  10.543   7.293  2.3559  1.6665  1.1065
   73MOL0     H 9790   2.204  10.683   6.950 -1.2380 -1.2727 -0.5193
   73MOL0     H 9791   2.123  10.590   7.081 -1.1285 -0.5135 -3.4602
   73MOL0     H 9792   2.171  10.891   7.116 -3.3664  3.6077 -1.7409
   73MOL0     H 9793   2.082  10.767   7.209  2.2369 -1.7689 -0.7775
   73MOL0     H 9794   1.941  10.753   6.981 -0.5284  1.5831 -2.9302
   73MOL0     H 9795   2.027  10.892   6.925 -1.4139  1.9449  1.2572
   73MOL0     H 9796   1.881  10.880   7.194 -1.9707 -0.0919 -0.8067
   73MOL0     H 9797   1.966  11.021   7.148 -0.9059 -1.2087  3.3874
   73MOL0     H 9798   1.800  11.036   6.944  0.4152 -2.0003 -1.5237
   73MOL0     H 9799   1.739  10.885   6.998 -0.0071  0.6777 -3.4690
   73MOL0     H 9800   1.682  10.996   7.223  3.9890 -1.9921 -0.0356
   73MOL0     H 9801   1.751  11.144   7.166 -0.6606  1.3012 -2.9486
   73MOL0     H 9802   1.617  11.177   6.973  3.5740 -0.3608  0.7834
   73MOL0     H 9803   1.519  11.174   7.119 -1.1454  0.7130 -2.5227
   73MOL0     H 9804   1.407  11.039   6.923 -0.5195 -1.2178  1.2310
   73MOL0     H 9805   1.538  10.915   6.950 -0.0843 -0.6709 -0.2679
   73MOL0     H 9806   1.236  11.075   7.164  1.7715  1.7452  2.3087
   73MOL0     H 9807   1.197  10.897   7.461 -1.2946 -1.7796  0.2809
   73MOL0     H 9808   1.132  11.034   7.378  3.7552  1.3701  0.7451
   73MOL0     H 9809   1.013  10.880   7.228  1.6244  1.3925 -0.5408
   73MOL0     H 9810   1.101  10.746   7.315 -0.2842  1.3131 -3.9237
   73MOL0     H 9811   0.888  10.900   7.463 -0.3891  0.6869 -1.0006
   73MOL0     H 9812   1.005  10.784   7.532  0.1191  0.7305 -0.4582
   73MOL0     H 9813   0.900  10.652   7.302 -0.7588  1.0152 -1.5284
   73MOL0     H 9814   0.760  10.744   7.346  0.7961  1.1010  0.2882
   73MOL0     H 9815   0.782  10.432   7.661  0.6310 -2.0917  0.1659
   73MOL0     H 9816   0.645  10.216   7.620  0.5568  1.9899  1.6491
   73MOL0     H 9817   0.419   9.871   7.390  0.2075  0.4597  0.1210
   73MOL0     H 9818   0.275   9.700   7.292  2.2659  1.6943  3.4297
   73MOL0     H 9819   0.070   9.803   6.867  1.0359 -0.5385 -2.4791
   73MOL0     H 9820   0.241   9.754   6.865  1.0221 -0.5409  0.9210
   73MOL0     H 9821   0.136   9.573   6.762  0.9942  0.8225  0.6609
   73MOL0     H 9822   0.193   9.517   6.909 -1.1018 -2.5680 -1.3054
   73MOL0     H 9823  -0.041   9.535   7.010  2.0139  3.1084  0.7057
   73MOL0     H 9824  -0.104   9.578   6.854 -0.2870 -1.5282  0.5625
   73MOL0     H 9825   0.059   9.323   6.917  0.6264  1.0377 -1.1147
   73MOL0     H 9826   0.017   9.369   6.755 -2.5673 -1.1331 -0.8288
   73MOL0     H 9827  -0.224   9.356   6.824  1.9167  0.1540 -1.3734
   73MOL0     H 9828  -0.164   9.306   6.984  1.8036  0.7040  0.3138
   73MOL0     H 9829  -0.092   9.174   6.706  1.0249  2.4929  0.2794
   73MOL0     H 9830  -0.030   9.113   6.859 -0.5654 -1.0817 -1.2653
   73MOL0     H 9831  -0.244   8.993   6.750  1.0204 -2.9170  1.7412
   73MOL0     H 9832  -0.336   9.129   6.824 -0.4139  0.3055  1.6373
   73MOL0     H 9833  -0.140   8.935   6.960 -0.7825 -0.5747  1.7913
   73MOL0     H 9834  -0.226   9.075   7.036 -1.6325  1.1212  0.4875
   73MOL0     H 9835   0.208   9.972   6.959  1.6356 -1.9408 -0.4687
   73MOL0     H 9836   0.293  10.164   7.092 -0.2208 -0.3497 -0.7908
   73MOL0     H 9837   0.555  10.324   7.230 -1.3880  0.3834  0.1492
   73MOL0     H 9838   0.680  10.524   7.249 -0.7623 -1.1934 -0.3593
   73MOL0     H 9839   2.423  10.694   6.888  0.5343  0.1443 -1.0457
   73MOL0     H 9840   2.645  10.654   6.834 -0.0950  1.0921  0.2530
   73MOL0     H 9841   3.088  10.597   7.068 -3.3500  1.7352 -0.4673
   73MOL0     H 9842   3.328  10.577   7.017  3.5698 -5.6647 -0.9496
   73MOL0     H 9843   3.588  10.366   6.728  0.3979 -0.9241  0.3457
   73MOL0     H 9844   3.441  10.359   6.627  6.2260 -3.6246 -2.2950
   73MOL0     H 9845   3.505  10.153   6.739  0.7170  0.8251 -0.0553
   73MOL0     H 9846   3.339  10.199   6.750  0.1625 -1.0171 -0.2679
   73MOL0     H 9847   3.394  10.110   6.953  2.8998 -1.1638  0.9984
   73MOL0     H 9848   3.379  10.283   6.977 -2.0335 -0.6382 -0.4845
   73MOL0     H 9849   3.567  10.150   7.083  1.1263  1.6743  0.5441
   73MOL0     H 9850   3.647  10.122   6.935  1.1706 -0.6400  2.5680
   73MOL0     H 9851   3.802  10.487   6.988  2.1466 -2.3504 -1.4193
   73MOL0     H 9852   3.229  10.418   6.641 -0.6319  2.5086 -0.7853
   73MOL0     H 9853   2.943  10.316   6.650 -0.7759 -0.4997 -0.1855
   73MOL0     H 9854   2.862  10.469   6.660 -0.5505 -0.2916  0.8416
   73MOL0     H 9855   3.007  10.451   6.557 -0.4850  1.7976  1.5110
   74MOL0     O 9856   6.578   1.758   3.142  0.3232 -0.3598  0.3329
   74MOL0     C 9857   6.499   1.665   3.123  0.4461  1.5681  0.1132
   74MOL0     O 9858   6.454   1.574   3.219  0.1839  0.5680  0.0699
   74MOL0     C 9859   6.507   1.575   3.342  1.2530  0.0297 -0.5339
   74MOL0     C 9860   6.479   1.684   3.415 -0.7601 -1.0564 -0.7386
   74MOL0     C 9861   6.523   1.689   3.545  0.7936  1.0687 -0.3267
   74MOL0     C 9862   6.581   1.577   3.606 -0.2465  0.6707 -0.4653
   74MOL0     O 9863   6.618   1.592   3.744  0.1950  0.0242  0.3423
   74MOL0     C 9864   6.660   1.485   3.812 -0.1916 -0.0451  0.1183
   74MOL0     C 9865   6.716   1.532   3.947  0.6978 -0.0942 -0.1312
   74MOL0     C 9866   6.843   1.609   3.933 -0.8620  0.1588 -0.4658
   74MOL0     C 9867   6.864   1.707   4.051 -0.5622  0.6078  0.2870
   74MOL0     C 9868   7.002   1.779   4.039 -0.5463 -0.2250 -0.6972
   74MOL0     C 9869   7.028   1.862   4.176 -0.8617  0.2079 -0.2692
   74MOL0     C 9870   6.922   1.960   4.211  0.1378 -0.4282  0.0674
   74MOL0     C 9871   6.898   2.071   4.111  0.7406 -1.1686  0.0770
   74MOL0     N 9872   6.807   2.180   4.158  0.3328  0.0399 -0.4590
   74MOL0     C 9873   6.844   2.292   4.219 -0.9004  0.3852 -0.9860
   74MOL0     C 9874   6.739   2.344   4.282 -0.4672 -0.6162  0.3936
   74MOL0     C 9875   6.736   2.465   4.363  0.4586 -0.6703 -0.3165
   74MOL0     C 9876   6.725   2.455   4.519  0.7263  0.1003  1.0785
   74MOL0     C 9877   6.736   2.595   4.580 -0.0783 -0.9354 -0.1172
   74MOL0     C 9878   6.683   2.605   4.727 -0.1808 -0.1984  0.9735
   74MOL0     O 9879   6.608   2.725   4.747 -0.1582 -0.1872  0.5750
   74MOL0     C 9880   6.470   2.717   4.738  0.7408  0.1661 -0.3686
   74MOL0     C 9881   6.400   2.763   4.853 -0.7114 -0.4349  0.3026
   74MOL0     C 9882   6.268   2.725   4.882 -0.6007  0.9592  0.4464
   74MOL0     C 9883   6.202   2.640   4.788  0.8091 -0.2154 -0.1603
   74MOL0     C 9884   6.065   2.591   4.817 -0.2233  0.6542 -0.0285
   74MOL0     O 9885   6.005   2.513   4.728 -0.1969  0.2708  0.1880
   74MOL0     C 9886   5.872   2.472   4.733  0.6549 -0.3103  0.3125
   74MOL0     C 9887   5.758   2.544   4.773 -0.2308 -0.6106 -0.0225
   74MOL0     C 9888   5.634   2.491   4.787 -0.5699 -0.2397  0.0099
   74MOL0     C 9889   5.612   2.349   4.778  0.2265  0.0855 -0.6381
   74MOL0     O 9890   5.479   2.309   4.802 -0.2457  0.4015 -1.2716
   74MOL0     C 9891   5.458   2.169   4.820  0.0427  0.6436 -0.2947
   74MOL0     C 9892   5.440   2.110   4.677 -0.7667 -0.0881  0.4093
   74MOL0     C 9893   5.332   2.010   4.675  0.2370 -0.0891  0.2903
   74MOL0     C 9894   5.370   1.885   4.768  0.4700  0.4853  0.6325
   74MOL0     C 9895   5.251   1.789   4.766  1.0478  1.1853  0.4777
   74MOL0     C 9896   5.112   1.829   4.806  0.1086 -0.0534  0.4005
   74MOL0     C 9897   4.992   1.741   4.762 -0.0888 -0.0518  0.1117
   74MOL0     C 9898   4.969   1.736   4.616 -0.1291 -0.4099  0.4730
   74MOL0    Cl 9899   4.957   1.879   4.515 -0.2037 -0.0235  0.6625
   74MOL0     C 9900   5.728   2.278   4.751 -0.2676 -0.5766  0.0701
   74MOL0     C 9901   5.848   2.334   4.717  0.0733 -0.0335  0.1338
   74MOL0     O 9902   6.023   2.623   4.927  0.5692 -0.4557 -0.4265
   74MOL0     C 9903   6.266   2.610   4.661  0.7965 -0.1434 -1.3373
   74MOL0     C 9904   6.392   2.649   4.642 -0.0259 -0.4481 -0.1025
   74MOL0     N 9905   6.634   2.265   4.250  0.0013 -0.1376 -0.7535
   74MOL0     N 9906   6.680   2.168   4.178 -0.3089 -0.0977 -0.6801
   74MOL0     C 9907   6.617   1.464   3.525 -0.2679  0.1035  1.3936
   74MOL0     C 9908   6.569   1.463   3.393 -0.1600 -0.1256  0.6456
   74MOL0     C 9909   6.443   1.681   2.982  0.2926 -0.1169  0.5734
   74MOL0     C 9910   6.526   1.736   2.879  0.2342  0.7480  0.1309
   74MOL0     C 9911   6.472   1.765   2.757  0.4922 -1.0987  0.4762
   74MOL0     C 9912   6.336   1.743   2.719  0.3138  0.1887 -1.1622
   74MOL0     O 9913   6.304   1.753   2.585 -0.0995  0.2504  0.0669
   74MOL0     C 9914   6.247   1.634   2.520 -1.1193  0.5444 -0.9668
   74MOL0     C 9915   6.110   1.655   2.448 -0.7535  0.1516 -0.6315
   74MOL0     C 9916   6.136   1.681   2.296  1.0996 -0.7248 -0.7363
   74MOL0     C 9917   5.995   1.717   2.225 -0.7385 -0.5162  0.1166
   74MOL0     C 9918   6.018   1.732   2.082  0.0123  0.0571  1.8137
   74MOL0     C 9919   6.049   1.741   1.959 -0.5778  0.2242 -0.5685
   74MOL0     C 9920   6.262   1.680   2.814  0.2440  0.3479 -0.2590
   74MOL0     C 9921   6.311   1.651   2.944 -0.7028  0.4640 -1.0315
   74MOL0     C 9922   6.216   1.592   3.048  1.2894  0.0670  0.4018
   74MOL0     H 9923   6.432   1.772   3.373  0.0789 -0.1065  0.2346
   74MOL0     H 9924   6.506   1.768   3.618  1.7519  1.8217 -0.8926
   74MOL0     H 9925   6.575   1.419   3.829 -1.0357  1.1646  0.7534
   74MOL0     H 9926   6.745   1.431   3.768  0.9167  1.2363  0.5885
   74MOL0     H 9927   6.732   1.452   4.020 -3.7209 -0.1670  1.0149
   74MOL0     H 9928   6.633   1.591   3.986 -0.0768 -1.0732 -0.2568
   74MOL0     H 9929   6.839   1.680   3.850  0.6701 -0.7133 -1.3338
   74MOL0     H 9930   6.928   1.545   3.906 -0.3815  1.4251 -2.1141
   74MOL0     H 9931   6.781   1.778   4.063 -1.1016  0.3156 -1.4168
   74MOL0     H 9932   6.873   1.645   4.140 -2.4578  0.1953  0.2248
   74MOL0     H 9933   7.085   1.709   4.027 -0.2104 -1.2122  4.7059
   74MOL0     H 9934   7.002   1.835   3.946  0.4662  0.2007 -0.4604
   74MOL0     H 9935   7.049   1.804   4.266  0.4832 -2.9627 -2.4672
   74MOL0     H 9936   7.121   1.916   4.154 -1.2763  0.3422 -1.8160
   74MOL0     H 9937   6.942   2.003   4.309 -0.0881 -0.6735  0.2246
   74MOL0     H 9938   6.823   1.914   4.220 -2.3352  3.9900 -1.7131
   74MOL0     H 9939   6.986   2.128   4.079 -2.3546  2.8099 -2.1225
   74MOL0     H 9940   6.843   2.039   4.022 -0.8073  0.7765  0.2806
   74MOL0     H 9941   6.944   2.333   4.226 -1.3000  2.3220 -4.6203
   74MOL0     H 9942   6.806   2.546   4.343  0.5575 -0.5578  0.4517
   74MOL0     H 9943   6.642   2.508   4.327  0.2113 -0.6539  0.3251
   74MOL0     H 9944   6.626   2.417   4.542 -0.1142 -0.1042 -2.3268
   74MOL0     H 9945   6.804   2.395   4.564  1.3043  2.1862  3.0317
   74MOL0     H 9946   6.678   2.662   4.516 -0.1445  0.0578  0.9475
   74MOL0     H 9947   6.840   2.630   4.585 -0.5686  0.5362  0.1706
   74MOL0     H 9948   6.761   2.600   4.804 -0.5979 -5.5297  1.4680
   74MOL0     H 9949   6.618   2.519   4.747  1.4311 -1.7496 -0.2079
   74MOL0     H 9950   6.441   2.812   4.940  1.5658  0.2445 -1.0406
   74MOL0     H 9951   6.215   2.766   4.967  1.1865 -0.2521  2.2409
   74MOL0     H 9952   5.771   2.651   4.790  2.2957 -1.0487  1.2453
   74MOL0     H 9953   5.560   2.567   4.810 -0.7033 -0.3643 -0.0003
   74MOL0     H 9954   5.542   2.130   4.878 -0.6033 -0.0939  0.1758
   74MOL0     H 9955   5.367   2.160   4.880  0.4943 -1.7976  0.1468
   74MOL0     H 9956   5.422   2.192   4.606  4.0967  4.7271  3.9764
   74MOL0     H 9957   5.537   2.070   4.648 -0.8464 -0.7625  1.0562
   74MOL0     H 9958   5.246   2.062   4.719  0.9081  1.0837  0.2422
   74MOL0     H 9959   5.292   1.979   4.578 -1.8366  1.7433  0.4869
   74MOL0     H 9960   5.387   1.925   4.869  1.0089  0.6034  0.4942
   74MOL0     H 9961   5.460   1.837   4.730  2.8016  2.4746  3.2382
   74MOL0     H 9962   5.275   1.716   4.843 -0.8146  2.0600  1.9558
   74MOL0     H 9963   5.242   1.750   4.664 -0.0467 -0.1953  1.0792
   74MOL0     H 9964   5.100   1.838   4.915 -1.2401 -0.0991  0.2748
   74MOL0     H 9965   5.093   1.932   4.773 -2.0101  0.1495  1.9686
   74MOL0     H 9966   4.898   1.771   4.810  1.1496  3.1601  0.7741
   74MOL0     H 9967   5.011   1.637   4.791 -1.3277 -0.7555 -1.4290
   74MOL0     H 9968   5.029   1.660   4.565 -2.0721 -0.1641 -2.3904
   74MOL0     H 9969   4.872   1.686   4.629 -0.8429  1.0645  1.0403
   74MOL0     H 9970   5.735   2.169   4.756 -1.2233 -0.7808 -2.0921
   74MOL0     H 9971   5.925   2.263   4.690  0.8855  0.2598  1.5548
   74MOL0     H 9972   6.229   2.546   4.581 -0.2406  0.4505 -1.3448
   74MOL0     H 9973   6.437   2.611   4.552  0.7568 -1.0139  0.5168
   74MOL0     H 9974   6.681   1.380   3.550 -2.3836 -3.0342 -2.5373
   74MOL0     H 9975   6.583   1.371   3.336  0.5923  0.1944  0.3038
   74MOL0     H 9976   6.631   1.759   2.895  0.6399 -1.7867  1.8458
   74MOL0     H 9977   6.529   1.834   2.696 -2.5392  2.1932  0.9820
   74MOL0     H 9978   6.226   1.560   2.598  0.0318  1.9393  0.7441
   74MOL0     H 9979   6.325   1.604   2.450 -1.9616 -0.5221 -1.4731
   74MOL0     H 9980   6.071   1.748   2.490 -0.8309  0.3492 -1.1350
   74MOL0     H 9981   6.038   1.574   2.462  2.5178 -2.8480  0.6842
   74MOL0     H 9982   6.174   1.589   2.251 -3.7014 -2.7048 -1.4012
   74MOL0     H 9983   6.209   1.762   2.290  1.3474 -1.0072 -5.4114
   74MOL0     H 9984   5.919   1.642   2.249 -1.4318  0.8526  2.5799
   74MOL0     H 9985   5.971   1.812   2.275 -0.1348  1.2035 -2.6565
   74MOL0     H 9986   6.084   1.757   1.859  2.4332  3.1319  0.7497
   74MOL0     H 9987   6.159   1.649   2.795  0.4106  0.0888 -0.7640
   74MOL0     H 9988   6.118   1.587   3.000  2.8762  1.8115 -3.5391
   74MOL0     H 9989   6.242   1.487   3.060  3.0507  0.5837  1.4791
   74MOL0     H 9990   6.206   1.649   3.141 -1.5079 -2.5430  1.8456
   75MOL0     O 9991   4.233   6.226   6.785  0.1472  0.7028  0.4705
   75MOL0     C 9992   4.210   6.302   6.878  0.5423 -0.1843  0.1090
   75MOL0     O 9993   4.264   6.430   6.889  0.0293 -0.4380 -0.3057
   75MOL0     C 9994   4.310   6.498   6.782  0.8094 -0.1428 -0.2471
   75MOL0     C 9995   4.256   6.514   6.656 -0.1248  0.7449 -0.3726
   75MOL0     C 9996   4.327   6.568   6.550 -0.1607 -0.4501  0.1289
   75MOL0     C 9997   4.462   6.618   6.580  0.0845  1.0270  0.3663
   75MOL0     O 9998   4.530   6.674   6.475 -0.3156  0.3345 -0.2171
   75MOL0     C 9999   4.636   6.585   6.425 -0.0377 -0.1674 -1.2445
   75MOL0     C10000   4.690   6.663   6.301 -1.1263 -0.5091  0.3695
   75MOL0     C10001   4.809   6.591   6.242 -0.1355  0.9258 -0.6224
   75MOL0     C10002   4.847   6.630   6.106  0.3619  0.0612  0.2506
   75MOL0     C10003   4.966   6.558   6.047 -0.3042  0.6738  0.5668
   75MOL0     C10004   5.030   6.615   5.921 -0.2783  0.3266 -0.4706
   75MOL0     C10005   4.936   6.639   5.805 -1.0525 -0.3714  0.1875
   75MOL0     C10006   4.998   6.724   5.690 -1.2496 -0.0538  1.2683
   75MOL0     N10007   4.898   6.736   5.581 -0.5953  0.3750 -0.4416
   75MOL0     C10008   4.770   6.779   5.598 -0.5315 -0.0469  0.2606
   75MOL0     C10009   4.722   6.785   5.467 -0.0833  0.4967  0.2663
   75MOL0     C10010   4.579   6.802   5.432  0.5167 -0.3582 -0.0251
   75MOL0     C10011   4.519   6.925   5.511 -0.8309 -0.1866 -0.0600
   75MOL0     C10012   4.441   7.022   5.412  0.3769 -0.1889 -0.2000
   75MOL0     C10013   4.302   6.969   5.365  0.7569  0.7228 -0.9296
   75MOL0     O10014   4.251   6.876   5.462 -0.5931 -0.2260  0.8222
   75MOL0     C10015   4.181   6.924   5.570 -0.2165  0.6588 -0.2499
   75MOL0     C10016   4.082   6.845   5.622 -0.2482  0.2177  0.2813
   75MOL0     C10017   3.976   6.893   5.692  1.0723  0.7190 -0.4501
   75MOL0     C10018   3.974   7.025   5.730  0.1781  1.0000 -0.0305
   75MOL0     C10019   3.864   7.077   5.816 -0.2584 -0.0455 -0.5057
   75MOL0     O10020   3.885   7.202   5.868  0.4115  0.7635 -0.4166
   75MOL0     C10021   3.796   7.235   5.968  0.0349  0.3807 -0.6375
   75MOL0     C10022   3.814   7.182   6.099  0.1855 -0.4402  0.5552
   75MOL0     C10023   3.723   7.211   6.205  0.1778 -0.2858  0.2479
   75MOL0     C10024   3.610   7.281   6.185  1.1284 -0.5588 -1.1329
   75MOL0     O10025   3.522   7.293   6.292 -0.0987 -0.9296  0.0912
   75MOL0     C10026   3.433   7.408   6.296  0.1696  0.0069  0.1949
   75MOL0     C10027   3.331   7.402   6.410 -0.2725  0.2298 -0.2200
   75MOL0     C10028   3.217   7.500   6.387 -0.1526  0.0256  0.2015
   75MOL0     C10029   3.109   7.511   6.493 -0.6489  0.0894  0.0008
   75MOL0     C10030   3.006   7.627   6.468 -0.5767 -0.9861 -0.1512
   75MOL0     C10031   2.894   7.632   6.586 -1.3558 -0.3078  0.3458
   75MOL0     C10032   2.815   7.504   6.597  0.2090  0.3782  0.0262
   75MOL0     C10033   2.684   7.525   6.671 -0.6124  0.3523  0.2229
   75MOL0    Cl10034   2.696   7.594   6.839 -0.0364 -0.2540 -0.0868
   75MOL0     C10035   3.595   7.338   6.054 -0.2750  0.8214 -0.0757
   75MOL0     C10036   3.683   7.313   5.947  0.5606 -0.2362  0.4767
   75MOL0     O10037   3.770   7.004   5.837  0.4620 -0.3736  0.2899
   75MOL0     C10038   4.080   7.112   5.695  0.5039  0.3481 -0.0142
   75MOL0     C10039   4.183   7.060   5.612  0.3077  0.0136  0.4515
   75MOL0     N10040   4.810   6.735   5.377 -0.2975 -0.4355 -0.0297
   75MOL0     N10041   4.919   6.713   5.443 -0.5876 -0.0442  0.1202
   75MOL0     C10042   4.519   6.608   6.708 -0.6303  0.1616  0.3238
   75MOL0     C10043   4.441   6.544   6.803 -0.0575  0.3973 -0.4313
   75MOL0     C10044   4.137   6.244   6.999  0.2875  0.3706  0.3686
   75MOL0     C10045   4.188   6.280   7.125 -0.0056  0.6659 -0.4100
   75MOL0     C10046   4.115   6.228   7.237 -0.1258  0.3157  0.0357
   75MOL0     C10047   4.019   6.142   7.231  0.5371  0.0758  0.2416
   75MOL0     O10048   3.943   6.116   7.348  0.0502 -0.1035 -0.0658
   75MOL0     C10049   3.931   5.963   7.361 -0.1773 -0.1646  0.1302
   75MOL0     C10050   3.870   5.925   7.495  0.4806 -0.2680 -0.1181
   75MOL0     C10051   3.727   5.967   7.527 -0.1760 -0.5669  0.0825
   75MOL0     C10052   3.623   5.864   7.474 -0.7058  0.0678 -0.3464
   75MOL0     C10053   3.610   5.755   7.572  0.1326  0.1476  0.6669
   75MOL0     C10054   3.609   5.656   7.646  0.3878  0.3129 -0.0157
   75MOL0     C10055   3.964   6.105   7.107 -0.0794 -0.8364  0.2703
   75MOL0     C10056   4.027   6.157   6.988 -0.0569  0.7381 -0.3694
   75MOL0     C10057   3.973   6.116   6.853 -0.9094 -0.4092 -0.5147
   75MOL0     H10058   4.154   6.483   6.635  0.5106 -1.1270 -0.8833
   75MOL0     H10059   4.275   6.596   6.458 -1.7124  0.4566  1.2273
   75MOL0     H10060   4.713   6.574   6.503  0.1715  1.9030 -1.0997
   75MOL0     H10061   4.595   6.491   6.387 -1.0047  0.3469 -1.5167
   75MOL0     H10062   4.734   6.755   6.340 -0.2763 -0.9840  0.5815
   75MOL0     H10063   4.607   6.678   6.232  1.1579 -2.2362 -3.0167
   75MOL0     H10064   4.806   6.483   6.254 -2.1305  1.2086  2.4291
   75MOL0     H10065   4.896   6.617   6.304  0.8610 -0.1681 -1.5111
   75MOL0     H10066   4.760   6.609   6.042  1.4605 -3.2959 -0.3585
   75MOL0     H10067   4.871   6.736   6.095 -3.7768  1.0208 -1.3892
   75MOL0     H10068   5.049   6.544   6.117  0.6303 -1.7245 -0.8814
   75MOL0     H10069   4.949   6.453   6.023  1.8012  0.5546 -0.7516
   75MOL0     H10070   5.074   6.706   5.964  3.1196 -1.5465  0.4436
   75MOL0     H10071   5.116   6.550   5.899 -1.3371 -1.3566  0.1709
   75MOL0     H10072   4.849   6.696   5.839 -0.7621 -0.0682  0.4255
   75MOL0     H10073   4.897   6.549   5.757 -0.3302 -2.2952  2.9593
   75MOL0     H10074   5.029   6.824   5.723 -1.6841  1.0280 -1.3244
   75MOL0     H10075   5.085   6.668   5.655 -1.4686  0.2558  0.2007
   75MOL0     H10076   4.707   6.794   5.685  0.5284  2.9433  0.6490
   75MOL0     H10077   4.579   6.807   5.323 -1.7289 -3.2148 -0.2642
   75MOL0     H10078   4.524   6.712   5.460 -0.8709  0.4668 -0.0275
   75MOL0     H10079   4.477   6.907   5.610  2.6914  2.8517  2.2433
   75MOL0     H10080   4.599   6.992   5.543 -0.8110 -0.0660 -0.3509
   75MOL0     H10081   4.505   7.051   5.328  1.1798  0.9095  0.7554
   75MOL0     H10082   4.420   7.120   5.455 -1.6886 -0.1112 -1.2507
   75MOL0     H10083   4.318   6.921   5.268  1.1908 -2.4626  0.5946
   75MOL0     H10084   4.226   7.047   5.356 -1.2294 -0.9508  0.3471
   75MOL0     H10085   4.080   6.743   5.586  1.4991  0.8527 -1.8753
   75MOL0     H10086   3.904   6.816   5.719 -0.7771  2.4250 -0.2876
   75MOL0     H10087   3.902   7.121   6.117  1.0022  0.6593  0.3757
   75MOL0     H10088   3.742   7.174   6.306 -2.5317 -1.4386  0.4241
   75MOL0     H10089   3.491   7.500   6.285 -0.9152  0.6455 -0.3618
   75MOL0     H10090   3.382   7.393   6.200 -1.8734  0.2151  1.1925
   75MOL0     H10091   3.289   7.301   6.424  0.2527  0.3853  3.1834
   75MOL0     H10092   3.387   7.427   6.500  3.3171 -1.5231 -1.7434
   75MOL0     H10093   3.259   7.597   6.361 -1.1690  0.9742  1.9062
   75MOL0     H10094   3.163   7.448   6.307 -0.5773 -3.8134  2.7206
   75MOL0     H10095   3.153   7.518   6.593 -0.8391  0.2533  0.0743
   75MOL0     H10096   3.055   7.415   6.493 -1.6578  0.6278  0.9780
   75MOL0     H10097   2.966   7.615   6.368 -1.7611 -0.8834  0.2978
   75MOL0     H10098   3.063   7.721   6.467 -2.8638  0.4883 -0.2051
   75MOL0     H10099   2.946   7.668   6.675  3.9769  1.6471 -3.0887
   75MOL0     H10100   2.831   7.717   6.556  2.1070  2.1896 -0.4325
   75MOL0     H10101   2.884   7.431   6.642 -0.1339 -2.2292 -3.2922
   75MOL0     H10102   2.791   7.485   6.492 -0.9845  1.6533  0.0465
   75MOL0     H10103   2.623   7.591   6.609 -0.9788  0.8305  1.0631
   75MOL0     H10104   2.628   7.431   6.674 -0.9345  0.5446  0.3168
   75MOL0     H10105   3.511   7.403   6.032  1.3987  2.4363 -2.0498
   75MOL0     H10106   3.676   7.371   5.855 -0.9905 -2.0439 -0.6125
   75MOL0     H10107   4.090   7.215   5.725  2.2112  0.3743 -0.5862
   75MOL0     H10108   4.246   7.133   5.562  1.5288 -1.0753  0.3279
   75MOL0     H10109   4.619   6.642   6.734 -1.1747  0.8900  1.5702
   75MOL0     H10110   4.479   6.520   6.902 -0.7291 -1.6801 -0.6264
   75MOL0     H10111   4.273   6.344   7.142  0.4433 -0.2357  0.9964
   75MOL0     H10112   4.145   6.249   7.339 -1.4330  1.1169  0.2856
   75MOL0     H10113   4.034   5.926   7.347  0.5043  1.7477 -0.1582
   75MOL0     H10114   3.867   5.909   7.290 -3.4543 -0.0363  2.7790
   75MOL0     H10115   3.925   5.980   7.572 -1.1064 -0.3664  1.1457
   75MOL0     H10116   3.876   5.816   7.496 -1.8237 -0.4671  1.9280
   75MOL0     H10117   3.720   6.069   7.486  2.9484  0.3628  1.5052
   75MOL0     H10118   3.712   5.976   7.635  1.9080  2.7178  0.2464
   75MOL0     H10119   3.526   5.913   7.464 -1.5645 -2.0474 -4.3753
   75MOL0     H10120   3.651   5.824   7.377 -1.4256  0.3390 -0.6706
   75MOL0     H10121   3.617   5.562   7.696  1.8197  1.1183  1.3546
   75MOL0     H10122   3.870   6.052   7.093 -1.4829  1.7864 -0.9264
   75MOL0     H10123   4.040   6.038   6.816  1.3878  0.1239  2.1613
   75MOL0     H10124   3.874   6.071   6.861  0.0262 -2.2592  4.0641
   75MOL0     H10125   3.969   6.209   6.795 -1.3760 -0.0163  0.1390
   76MOL0     O10126   4.687   2.146   1.426 -0.9212  0.4726  0.3621
   76MOL0     C10127   4.611   2.098   1.347  0.9269  0.0254  0.4953
   76MOL0     O10128   4.598   2.143   1.215  0.7050 -0.7871  0.4970
   76MOL0     C10129   4.672   2.247   1.162  0.2401 -0.5043 -0.0755
   76MOL0     C10130   4.685   2.237   1.020  0.0511  0.6510  0.6418
   76MOL0     C10131   4.739   2.342   0.946  0.1311  0.5506 -0.6551
   76MOL0     C10132   4.802   2.445   1.010 -0.0722 -0.9689 -0.0522
   76MOL0     O10133   4.849   2.556   0.939 -0.4344 -0.2406  0.1445
   76MOL0     C10134   4.981   2.609   0.968  0.1101  0.2002 -0.4259
   76MOL0     C10135   5.014   2.674   0.840  0.2528 -0.9989 -0.3694
   76MOL0     C10136   5.157   2.649   0.814 -0.1040  0.1916 -0.0476
   76MOL0     C10137   5.201   2.706   0.678  0.6685 -0.7578 -0.0274
   76MOL0     C10138   5.334   2.652   0.643 -0.1993 -0.0082 -0.3911
   76MOL0     C10139   5.370   2.685   0.502 -0.7550 -0.2115 -0.1964
   76MOL0     C10140   5.454   2.559   0.449 -0.5484  0.4605  0.3951
   76MOL0     C10141   5.520   2.575   0.308 -0.9078 -0.2462 -0.5549
   76MOL0     N10142   5.410   2.582   0.213  0.1679  0.2191  1.0863
   76MOL0     C10143   5.370   2.470   0.147 -0.1260  0.5704  0.2224
   76MOL0     C10144   5.267   2.517   0.073 -0.2030  0.1950 -0.7815
   76MOL0     C10145   5.201   2.428  -0.039 -0.5714 -0.0627  0.0356
   76MOL0     C10146   5.095   2.515  -0.118 -0.2713 -0.2033  0.0920
   76MOL0     C10147   5.038   2.433  -0.235  0.6543 -0.2054 -0.7447
   76MOL0     C10148   5.096   2.471  -0.372  1.1461  0.1840  0.2580
   76MOL0     O10149   5.231   2.431  -0.412  0.5523 -0.2457  0.7284
   76MOL0     C10150   5.271   2.313  -0.459 -0.0578  0.0331 -0.1504
   76MOL0     C10151   5.399   2.309  -0.513  0.3946  0.3950  0.5670
   76MOL0     C10152   5.434   2.207  -0.591 -0.4817  0.9575 -0.8993
   76MOL0     C10153   5.365   2.085  -0.583 -0.1361  0.2652 -0.8482
   76MOL0     C10154   5.421   1.963  -0.655 -0.3804 -0.4361  0.1348
   76MOL0     O10155   5.545   1.974  -0.706 -0.6059 -0.2761 -0.3651
   76MOL0     C10156   5.614   1.859  -0.754 -0.2866 -0.5572 -0.3853
   76MOL0     C10157   5.642   1.749  -0.675 -0.2742  0.8128  0.3921
   76MOL0     C10158   5.715   1.646  -0.732  0.4151 -0.7305  0.0517
   76MOL0     C10159   5.758   1.647  -0.871 -0.5750  1.2130 -0.3221
   76MOL0     O10160   5.845   1.545  -0.901  0.0096  0.0631 -0.3186
   76MOL0     C10161   5.945   1.559  -1.010 -0.1943 -0.0901  0.4681
   76MOL0     C10162   6.051   1.445  -1.020  0.5971 -1.0428  0.4949
   76MOL0     C10163   5.962   1.314  -1.015  0.4672 -0.3074  1.0351
   76MOL0     C10164   6.077   1.206  -1.021  0.1526  0.5331  0.2035
   76MOL0     C10165   6.021   1.062  -1.025  0.6076  0.5443  0.3482
   76MOL0     C10166   5.960   1.020  -1.157  0.2594  0.2823  0.0548
   76MOL0     C10167   5.933   0.871  -1.177 -0.4288 -0.8326 -0.2328
   76MOL0     C10168   5.948   0.834  -1.329  0.3165 -0.4760  0.7680
   76MOL0    Cl10169   5.932   0.656  -1.346 -0.2796 -0.0014  0.2066
   76MOL0     C10170   5.718   1.750  -0.952  0.8581  0.6124  0.2390
   76MOL0     C10171   5.649   1.860  -0.888 -0.2449  0.3889  0.1456
   76MOL0     O10172   5.349   1.865  -0.648  0.0102  0.1111  0.1425
   76MOL0     C10173   5.243   2.079  -0.507 -0.6027 -0.0196 -0.2903
   76MOL0     C10174   5.190   2.194  -0.450  0.2790 -0.1301  0.0465
   76MOL0     N10175   5.256   2.656   0.085  0.6258  0.6771 -0.8373
   76MOL0     N10176   5.341   2.697   0.173  0.3146  0.1017 -0.1390
   76MOL0     C10177   4.802   2.451   1.149 -0.2722  0.8484  0.7243
   76MOL0     C10178   4.734   2.354   1.227 -0.3298 -0.4015 -0.7180
   76MOL0     C10179   4.525   1.982   1.377 -0.4966 -0.0228 -0.0338
   76MOL0     C10180   4.447   1.929   1.278 -0.1348 -0.1506  0.3109
   76MOL0     C10181   4.377   1.814   1.308  0.6651 -1.1579 -0.1226
   76MOL0     C10182   4.391   1.743   1.428  0.2151 -0.0627 -0.0600
   76MOL0     O10183   4.323   1.630   1.466  0.7639  0.1192 -0.0395
   76MOL0     C10184   4.227   1.562   1.381 -0.2709  0.1496 -0.3191
   76MOL0     C10185   4.179   1.430   1.454 -0.2672 -1.6627  0.0823
   76MOL0     C10186   4.101   1.469   1.585 -0.5677  0.1078 -0.8096
   76MOL0     C10187   3.969   1.544   1.538  0.0523  0.1127 -0.5969
   76MOL0     C10188   3.895   1.489   1.422 -0.9087  0.3997  0.4028
   76MOL0     C10189   3.824   1.431   1.339 -0.7163  0.5845 -0.1674
   76MOL0     C10190   4.463   1.799   1.526 -0.1052 -0.3937  0.2883
   76MOL0     C10191   4.536   1.914   1.506  0.0635 -0.1009 -0.0147
   76MOL0     C10192   4.609   1.964   1.622 -0.0980 -0.4724 -0.8420
   76MOL0     H10193   4.634   2.154   0.970  0.9113 -0.0586  0.9186
   76MOL0     H10194   4.733   2.331   0.838 -4.1142 -1.2892 -0.4547
   76MOL0     H10195   4.982   2.679   1.052  1.0123 -2.6263  2.0721
   76MOL0     H10196   5.047   2.529   1.000  0.3674  0.1725 -1.0267
   76MOL0     H10197   5.006   2.783   0.849  1.8615 -0.9061  0.3471
   76MOL0     H10198   4.960   2.636   0.753 -0.3376  2.6084 -1.7722
   76MOL0     H10199   5.176   2.542   0.805  0.8325  0.1059  2.3008
   76MOL0     H10200   5.227   2.690   0.887  1.0454 -1.8499  0.0472
   76MOL0     H10201   5.123   2.673   0.608  0.0560 -0.9893  0.7572
   76MOL0     H10202   5.195   2.815   0.680  0.5356 -0.7517 -0.5576
   76MOL0     H10203   5.407   2.687   0.717  1.6456 -1.4605 -1.4154
   76MOL0     H10204   5.318   2.544   0.649 -1.4053  0.1510 -0.4780
   76MOL0     H10205   5.280   2.700   0.442 -3.2090  2.5742  3.7011
   76MOL0     H10206   5.430   2.776   0.503 -0.5447 -0.3163 -1.5355
   76MOL0     H10207   5.391   2.470   0.447 -0.0626  0.1173  0.0737
   76MOL0     H10208   5.534   2.544   0.522 -0.1112  0.7717 -0.0091
   76MOL0     H10209   5.596   2.654   0.314  2.8883 -3.6038  0.7910
   76MOL0     H10210   5.585   2.488   0.292  0.3531  0.4820  0.3833
   76MOL0     H10211   5.411   2.369   0.150 -1.2006  0.1417  1.4158
   76MOL0     H10212   5.271   2.406  -0.120 -1.1731  0.8942 -0.7674
   76MOL0     H10213   5.146   2.339  -0.007 -3.1912 -0.3749 -4.4025
   76MOL0     H10214   5.018   2.540  -0.045  1.3961 -0.4955  2.0543
   76MOL0     H10215   5.138   2.612  -0.144  2.5518 -0.6197  2.7054
   76MOL0     H10216   4.932   2.462  -0.234  0.2803 -1.4655 -1.0994
   76MOL0     H10217   5.032   2.327  -0.206 -1.7239 -0.3964 -1.6353
   76MOL0     H10218   5.078   2.574  -0.403 -1.5015 -0.4989 -0.7660
   76MOL0     H10219   5.037   2.411  -0.442  0.0060 -1.9184  2.8691
   76MOL0     H10220   5.457   2.400  -0.520  2.3056 -0.8972 -1.3893
   76MOL0     H10221   5.523   2.229  -0.650 -1.1678  2.5390 -1.3888
   76MOL0     H10222   5.602   1.764  -0.575 -0.3190 -1.4034  0.7595
   76MOL0     H10223   5.758   1.576  -0.661 -0.5312 -1.6034 -0.2163
   76MOL0     H10224   5.900   1.583  -1.106 -3.2434 -3.2160  0.9132
   76MOL0     H10225   6.014   1.643  -1.005 -0.2438 -0.1160  2.3279
   76MOL0     H10226   6.100   1.451  -1.118 -0.7506  1.5191 -0.1005
   76MOL0     H10227   6.131   1.456  -0.947 -1.1721  1.7160  2.1612
   76MOL0     H10228   5.900   1.303  -0.926 -0.1580 -0.8674  0.5452
   76MOL0     H10229   5.907   1.310  -1.110  3.7232  1.5113 -1.1522
   76MOL0     H10230   6.135   1.205  -0.929 -3.5695 -3.3659  2.8849
   76MOL0     H10231   6.141   1.213  -1.109 -2.3763 -0.7201 -1.8927
   76MOL0     H10232   5.948   1.051  -0.944  1.6713  1.3929  1.4583
   76MOL0     H10233   6.103   0.999  -0.988  0.6989  0.4699  0.0225
   76MOL0     H10234   5.863   1.067  -1.170 -1.1091 -2.2564  0.4971
   76MOL0     H10235   6.030   1.062  -1.231 -2.0739 -0.1301 -2.5638
   76MOL0     H10236   5.846   0.834  -1.121  1.9791 -0.7557  4.0217
   76MOL0     H10237   6.012   0.809  -1.133  0.2837  1.7637  2.4758
   76MOL0     H10238   5.881   0.887  -1.397  1.7520 -1.7832 -1.8317
   76MOL0     H10239   6.046   0.871  -1.360  0.1787  1.2778  2.2487
   76MOL0     H10240   5.742   1.741  -1.057 -1.8121  0.2927 -0.3980
   76MOL0     H10241   5.611   1.943  -0.948 -4.1386 -0.0092  1.7770
   76MOL0     H10242   5.175   1.995  -0.499 -1.4591  0.7345  0.6247
   76MOL0     H10243   5.108   2.201  -0.378  0.2740  1.3829 -0.0705
   76MOL0     H10244   4.839   2.543   1.194  1.1996 -0.1981  1.7367
   76MOL0     H10245   4.729   2.372   1.334  0.6285 -2.0378 -0.3608
   76MOL0     H10246   4.437   1.965   1.176 -0.0369 -1.7152 -0.2816
   76MOL0     H10247   4.311   1.774   1.231  0.0833  0.0580 -0.2762
   76MOL0     H10248   4.277   1.535   1.287 -1.3066  1.2498 -1.2348
   76MOL0     H10249   4.132   1.612   1.360 -1.0351 -2.0980 -2.8808
   76MOL0     H10250   4.273   1.383   1.485  0.1112 -0.3696  0.9716
   76MOL0     H10251   4.125   1.353   1.397 -0.6918 -1.5689  0.3537
   76MOL0     H10252   4.165   1.521   1.657  0.1937 -1.0751 -0.5966
   76MOL0     H10253   4.064   1.377   1.631  0.2920  0.8497  1.4845
   76MOL0     H10254   3.903   1.550   1.624  0.9915  0.0017  0.1466
   76MOL0     H10255   3.986   1.651   1.517 -0.1616  0.4878  1.0615
   76MOL0     H10256   3.768   1.370   1.271  1.3700 -1.1970 -0.3955
   76MOL0     H10257   4.456   1.751   1.623 -1.7575  0.3839  0.5991
   76MOL0     H10258   4.716   1.980   1.611 -0.0280  0.7483  1.1169
   76MOL0     H10259   4.567   2.056   1.663 -0.0580 -1.8584  2.6464
   76MOL0     H10260   4.606   1.890   1.703  0.0914 -0.4856 -0.8462
   77MOL0     O10261  11.262   0.420   3.708 -0.4741 -0.0682  0.2110
   77MOL0     C10262  11.230   0.316   3.764  0.6312  1.0824 -0.0467
   77MOL0     O10263  11.110   0.241   3.734  0.1461  0.5060  0.1097
   77MOL0     C10264  11.000   0.297   3.667 -0.3461 -0.6812  0.0804
   77MOL0     C10265  10.881   0.232   3.695 -1.2656 -0.4304  0.5564
   77MOL0     C10266  10.762   0.278   3.648  0.1186 -0.1826  0.0093
   77MOL0     C10267  10.748   0.389   3.560  0.5827 -0.4418  0.3072
   77MOL0     O10268  10.624   0.423   3.512 -0.1678 -0.2820 -0.5039
   77MOL0     C10269  10.613   0.537   3.427 -0.6836 -0.1045 -0.1081
   77MOL0     C10270  10.461   0.570   3.403  0.2066 -0.1720 -0.4043
   77MOL0     C10271  10.373   0.444   3.364  0.9406 -0.5030 -0.4293
   77MOL0     C10272  10.433   0.364   3.254 -0.3750 -0.5720  0.8238
   77MOL0     C10273  10.326   0.283   3.175 -0.9099  1.2100 -0.4182
   77MOL0     C10274  10.289   0.162   3.259  0.6720 -0.0535  0.4491
   77MOL0     C10275  10.199   0.060   3.184  0.1110  0.0854 -0.0815
   77MOL0     C10276  10.145  -0.051   3.277 -1.5558 -0.0630  0.4284
   77MOL0     N10277  10.255  -0.145   3.329 -0.5904 -0.2306 -0.1466
   77MOL0     C10278  10.309  -0.249   3.260  0.1988  0.9856  0.0676
   77MOL0     C10279  10.407  -0.290   3.341  0.0441  0.2882 -1.0915
   77MOL0     C10280  10.510  -0.394   3.320 -0.7070  0.2030 -0.0498
   77MOL0     C10281  10.645  -0.337   3.347  0.0753 -0.1233 -0.2654
   77MOL0     C10282  10.753  -0.427   3.292  0.3030 -0.2919 -0.6721
   77MOL0     C10283  10.886  -0.402   3.363  0.3233  0.0392 -0.2834
   77MOL0     O10284  10.882  -0.465   3.492  0.3441  0.1430  0.7017
   77MOL0     C10285  10.995  -0.478   3.575 -0.3694 -0.8369  0.1298
   77MOL0     C10286  11.117  -0.416   3.551  0.2384 -0.0726  0.5030
   77MOL0     C10287  11.220  -0.402   3.641  0.1646  0.8079 -0.1507
   77MOL0     C10288  11.205  -0.468   3.768 -1.0960 -0.0345  0.0720
   77MOL0     C10289  11.317  -0.464   3.854  0.9021 -0.7906 -0.5721
   77MOL0     O10290  11.424  -0.391   3.805  0.1486 -0.1397  0.3434
   77MOL0     C10291  11.535  -0.382   3.880  0.0941  0.5412  0.3220
   77MOL0     C10292  11.564  -0.279   3.962 -1.2911  0.6181 -0.2689
   77MOL0     C10293  11.688  -0.284   4.039 -0.1080  0.5640  0.3098
   77MOL0     C10294  11.783  -0.383   4.014  0.1773 -0.4349 -0.0901
   77MOL0     O10295  11.901  -0.405   4.087  0.6144  0.4198  0.3970
   77MOL0     C10296  11.911  -0.350   4.220 -0.4270 -0.2851 -0.4412
   77MOL0     C10297  11.984  -0.456   4.308 -0.1654 -0.0853  0.9347
   77MOL0     C10298  12.054  -0.387   4.424 -0.2700 -0.0933  0.0861
   77MOL0     C10299  12.126  -0.492   4.505  0.6103  0.7487  0.0122
   77MOL0     C10300  12.180  -0.426   4.630  0.1189  0.1038  0.6394
   77MOL0     C10301  12.087  -0.380   4.744  0.2831  0.3307  0.4514
   77MOL0     C10302  12.167  -0.307   4.845 -0.1323 -0.4123 -0.1552
   77MOL0     C10303  12.242  -0.400   4.942  0.7535 -0.0131 -0.6845
   77MOL0    Cl10304  12.136  -0.504   5.048  0.7474 -0.4001 -0.1619
   77MOL0     C10305  11.762  -0.478   3.921  0.7381 -0.1381  1.1951
   77MOL0     C10306  11.637  -0.475   3.846  0.2559 -0.3832  1.3026
   77MOL0     O10307  11.312  -0.534   3.960 -0.0439 -0.8186  0.2895
   77MOL0     C10308  11.081  -0.528   3.798 -0.2757 -0.4620  0.1335
   77MOL0     C10309  10.981  -0.534   3.699  0.3561 -0.3798  0.2012
   77MOL0     N10310  10.406  -0.215   3.456 -0.7333 -0.1285  0.3165
   77MOL0     N10311  10.314  -0.134   3.449  0.4234  0.0469 -0.5954
   77MOL0     C10312  10.871   0.453   3.530 -0.3528 -0.0120 -0.1695
   77MOL0     C10313  10.995   0.413   3.586 -0.2462 -0.2715 -0.3349
   77MOL0     C10314  11.312   0.270   3.880 -1.1422  0.0361  0.3090
   77MOL0     C10315  11.454   0.281   3.866  0.4497  0.1010  0.5156
   77MOL0     C10316  11.540   0.241   3.967  0.3682  0.4733  0.5021
   77MOL0     C10317  11.489   0.188   4.093 -0.2940  0.9228  0.3554
   77MOL0     O10318  11.558   0.142   4.203  1.0602  0.3086 -0.0887
   77MOL0     C10319  11.703   0.128   4.195  1.0150  0.9424 -0.1452
   77MOL0     C10320  11.773   0.114   4.342 -0.2672  0.1193  0.1081
   77MOL0     C10321  11.916   0.068   4.336  0.4640 -0.4417 -0.1469
   77MOL0     C10322  11.962  -0.004   4.461 -0.0231  0.5253  0.2519
   77MOL0     C10323  12.109  -0.032   4.466  0.3969 -0.2821 -0.2777
   77MOL0     C10324  12.226  -0.060   4.477 -0.3242 -0.0905  0.3689
   77MOL0     C10325  11.353   0.175   4.099 -0.5068 -0.0607 -0.2128
   77MOL0     C10326  11.265   0.218   4.003  0.2570  0.6680  0.5911
   77MOL0     C10327  11.121   0.204   4.032  0.4375  0.0421  0.3799
   77MOL0     H10328  10.895   0.150   3.765  0.1873 -0.5673  0.1358
   77MOL0     H10329  10.687   0.216   3.695  2.7700 -3.8195 -0.1287
   77MOL0     H10330  10.674   0.624   3.453  0.4975 -0.6925 -0.8124
   77MOL0     H10331  10.658   0.512   3.331 -0.5283  2.0878 -0.6414
   77MOL0     H10332  10.451   0.656   3.336 -0.5005  0.3409  0.3327
   77MOL0     H10333  10.426   0.605   3.501  0.2102 -2.5146  0.4999
   77MOL0     H10334  10.282   0.485   3.320  1.2484 -0.2176 -0.7995
   77MOL0     H10335  10.339   0.381   3.447  0.3337  0.5276  0.1326
   77MOL0     H10336  10.476   0.430   3.179 -4.8700  0.5791 -1.0615
   77MOL0     H10337  10.519   0.307   3.292 -0.1455 -0.9775 -0.2716
   77MOL0     H10338  10.243   0.349   3.147 -1.3765  1.4620  1.4363
   77MOL0     H10339  10.376   0.260   3.080 -0.4492 -0.8462  0.2688
   77MOL0     H10340  10.388   0.121   3.282 -0.5389 -2.6348  1.4727
   77MOL0     H10341  10.235   0.191   3.350 -0.2612  1.2988 -0.4959
   77MOL0     H10342  10.262   0.003   3.114 -0.9586  1.9890 -2.7887
   77MOL0     H10343  10.115   0.109   3.135 -1.8902 -0.1385  2.9014
   77MOL0     H10344  10.098  -0.021   3.371 -1.0864 -3.0374  1.7194
   77MOL0     H10345  10.082  -0.123   3.223 -1.3147 -1.2771  1.7000
   77MOL0     H10346  10.290  -0.294   3.163  0.3154 -1.8169  1.2754
   77MOL0     H10347  10.481  -0.484   3.375  1.3259  0.4412  1.5441
   77MOL0     H10348  10.504  -0.417   3.214  3.3683  0.5194 -0.4909
   77MOL0     H10349  10.658  -0.232   3.319 -0.3019  0.6074  2.0696
   77MOL0     H10350  10.642  -0.339   3.457 -1.4426 -0.9619 -0.2890
   77MOL0     H10351  10.753  -0.393   3.188  0.0609  0.0039 -0.5766
   77MOL0     H10352  10.731  -0.533   3.306  1.3207 -0.7830 -2.4575
   77MOL0     H10353  10.906  -0.295   3.369  1.6944 -0.0714 -2.2240
   77MOL0     H10354  10.970  -0.442   3.306 -1.2927 -3.1800 -0.6672
   77MOL0     H10355  11.116  -0.359   3.459 -3.3986 -1.3605 -0.4394
   77MOL0     H10356  11.302  -0.338   3.610  1.5987 -1.6140 -1.7365
   77MOL0     H10357  11.479  -0.213   3.978 -2.7759 -0.6522 -2.3762
   77MOL0     H10358  11.716  -0.206   4.110 -1.4668  1.4321 -0.0626
   77MOL0     H10359  11.974  -0.260   4.217  1.4589 -1.5356 -0.4485
   77MOL0     H10360  11.814  -0.330   4.267  0.6532 -2.3295  2.9804
   77MOL0     H10361  11.917  -0.537   4.339 -0.2011  1.1454  4.5673
   77MOL0     H10362  12.054  -0.512   4.245 -0.4261  0.3846  0.2118
   77MOL0     H10363  12.112  -0.302   4.387  3.6381 -1.9670  1.3105
   77MOL0     H10364  11.976  -0.345   4.488 -1.7870 -1.3596 -0.8533
   77MOL0     H10365  12.206  -0.541   4.449 -0.1441  0.2178 -0.6228
   77MOL0     H10366  12.051  -0.567   4.533  0.0927  0.4341 -2.0480
   77MOL0     H10367  12.241  -0.341   4.599 -1.0271 -0.2169 -2.8970
   77MOL0     H10368  12.251  -0.499   4.672  1.9258  1.5969  0.3172
   77MOL0     H10369  12.014  -0.307   4.707  1.6083  2.3198  1.6135
   77MOL0     H10370  12.035  -0.466   4.787 -2.3329  1.8841  0.5957
   77MOL0     H10371  12.100  -0.242   4.902 -1.5062 -1.1775 -0.8377
   77MOL0     H10372  12.243  -0.243   4.799 -2.3234  1.4585 -1.4172
   77MOL0     H10373  12.314  -0.472   4.902  3.1652  0.2788  2.7172
   77MOL0     H10374  12.292  -0.331   5.010 -0.1605 -0.7188  0.7435
   77MOL0     H10375  11.828  -0.564   3.910 -2.1917 -2.2129 -2.1102
   77MOL0     H10376  11.621  -0.555   3.775  0.5100  0.1099  0.6732
   77MOL0     H10377  11.068  -0.581   3.892 -0.6084 -2.2743 -0.8904
   77MOL0     H10378  10.880  -0.565   3.726  0.3044 -0.1083  0.3309
   77MOL0     H10379  10.880   0.538   3.463  1.6990 -1.8814 -2.4688
   77MOL0     H10380  11.079   0.474   3.556 -2.3315  1.5114 -3.0780
   77MOL0     H10381  11.502   0.305   3.772 -0.0990 -3.9044 -0.9761
   77MOL0     H10382  11.646   0.248   3.948  0.3401  0.3062  0.2749
   77MOL0     H10383  11.751   0.209   4.140  0.4409  0.9726 -0.6086
   77MOL0     H10384  11.724   0.042   4.130  0.1701  2.8189 -3.0679
   77MOL0     H10385  11.716   0.038   4.395 -1.5251  0.1601 -1.1431
   77MOL0     H10386  11.756   0.208   4.397 -0.0764  1.1066 -1.4520
   77MOL0     H10387  11.975   0.160   4.327 -1.1162  0.3833 -3.1872
   77MOL0     H10388  11.942   0.007   4.249 -1.9665 -1.4114 -0.2822
   77MOL0     H10389  11.946   0.071   4.540 -1.3202  1.8761 -1.2329
   77MOL0     H10390  11.899  -0.092   4.475  0.5357 -0.0541 -0.7867
   77MOL0     H10391  12.331  -0.084   4.482 -0.3641 -0.4635 -0.4999
   77MOL0     H10392  11.309   0.133   4.189  1.1071 -0.0544  0.6135
   77MOL0     H10393  11.088   0.218   4.136 -3.4843 -2.1198 -0.3457
   77MOL0     H10394  11.069   0.284   3.979 -0.3768 -0.9007 -0.2919
   77MOL0     H10395  11.083   0.107   3.996 -1.8283  1.5480 -1.6396
   78MOL0     O10396   1.683   7.505   7.747  0.2928  0.2489  0.5079
   78MOL0     C10397   1.752   7.605   7.762 -0.0882  1.0061 -0.4522
   78MOL0     O10398   1.712   7.736   7.761  0.4480  0.1234 -0.3998
   78MOL0     C10399   1.600   7.792   7.699  0.0169 -0.1298  0.0623
   78MOL0     C10400   1.478   7.729   7.672 -0.0703  0.0094 -0.8365
   78MOL0     C10401   1.370   7.802   7.626 -0.1787  0.1836 -0.3490
   78MOL0     C10402   1.380   7.941   7.617 -0.3329 -0.0959 -0.3455
   78MOL0     O10403   1.281   8.026   7.571  0.9998 -0.5625 -0.4145
   78MOL0     C10404   1.139   7.974   7.545 -0.6343 -0.2351  0.3512
   78MOL0     C10405   1.120   7.918   7.403  0.3894 -0.4862  0.5967
   78MOL0     C10406   0.988   7.851   7.358  0.9283  0.1266  0.4148
   78MOL0     C10407   0.886   7.938   7.298 -0.2669 -0.3753 -0.3381
   78MOL0     C10408   0.768   7.869   7.256  0.5955  0.8359  0.1120
   78MOL0     C10409   0.659   7.889   7.372  0.8866  0.2671 -0.6055
   78MOL0     C10410   0.574   8.016   7.372 -0.4683 -0.4243 -0.5188
   78MOL0     C10411   0.456   8.009   7.462 -0.4270 -0.8188 -0.1073
   78MOL0     N10412   0.336   7.952   7.417  0.4088  0.0933  0.8587
   78MOL0     C10413   0.286   7.961   7.285  0.1125 -0.3835 -0.2918
   78MOL0     C10414   0.162   7.918   7.300 -0.0296 -0.6555  0.5861
   78MOL0     C10415   0.054   7.906   7.189  0.4984  0.7123  0.2304
   78MOL0     C10416   0.013   8.044   7.145  0.2343  1.0398 -0.1327
   78MOL0     C10417  -0.054   8.136   7.245 -0.6118  0.2818  0.8391
   78MOL0     C10418  -0.120   8.247   7.161  0.1352  0.0102  0.1950
   78MOL0     O10419  -0.027   8.316   7.083 -0.2017 -0.5414 -0.6142
   78MOL0     C10420  -0.085   8.398   6.989  0.0232  0.5505  0.2537
   78MOL0     C10421  -0.009   8.429   6.874  0.0535 -0.1819  0.4859
   78MOL0     C10422  -0.063   8.496   6.773  0.4097 -0.5054 -0.0381
   78MOL0     C10423  -0.195   8.553   6.773  0.1778  0.0795 -0.3525
   78MOL0     C10424  -0.244   8.629   6.658  0.3959  0.7682 -0.1291
   78MOL0     O10425  -0.360   8.703   6.662 -0.2324  0.2509  0.3701
   78MOL0     C10426  -0.407   8.743   6.540  0.3565  1.3511  0.3422
   78MOL0     C10427  -0.452   8.881   6.535 -0.3767 -0.0673 -0.4026
   78MOL0     C10428  -0.524   8.932   6.432 -0.5070 -0.2488 -0.0217
   78MOL0     C10429  -0.557   8.858   6.319 -0.9535 -0.1786  0.1217
   78MOL0     O10430  -0.612   8.912   6.210 -0.4646  0.5303  0.6159
   78MOL0     C10431  -0.661   9.049   6.213 -0.0956  0.3426  0.3016
   78MOL0     C10432  -0.720   9.077   6.075 -0.1040 -0.0148 -0.4102
   78MOL0     C10433  -0.766   9.228   6.084  0.0549  0.0596 -0.6653
   78MOL0     C10434  -0.827   9.283   5.952 -0.2689  0.6330 -0.8494
   78MOL0     C10435  -0.836   9.435   5.956  0.3865  0.4058  0.3514
   78MOL0     C10436  -0.909   9.479   5.821  0.3411 -0.9050 -0.1811
   78MOL0     C10437  -0.833   9.480   5.695  0.9377 -0.1400  0.5820
   78MOL0     C10438  -0.891   9.560   5.588  0.8289  0.3152 -0.2030
   78MOL0    Cl10439  -0.894   9.740   5.604 -0.4396 -0.4185 -0.2791
   78MOL0     C10440  -0.521   8.722   6.318 -0.0468 -0.0507  0.1764
   78MOL0     C10441  -0.452   8.662   6.424 -0.4950  0.7054  0.2589
   78MOL0     O10442  -0.168   8.636   6.562 -0.1338 -0.7846  0.2062
   78MOL0     C10443  -0.264   8.529   6.887 -0.3730 -0.7228 -0.7471
   78MOL0     C10444  -0.221   8.452   6.997 -0.4499  0.2436  0.0095
   78MOL0     N10445   0.133   7.895   7.429 -0.3776 -0.0931  0.6777
   78MOL0     N10446   0.234   7.926   7.504 -0.4345  0.5318 -0.1774
   78MOL0     C10447   1.511   7.997   7.626 -0.1260 -0.5540  0.1449
   78MOL0     C10448   1.618   7.919   7.667  0.6148 -1.5185  1.2125
   78MOL0     C10449   1.894   7.581   7.786 -0.3205 -0.5917 -0.1414
   78MOL0     C10450   1.951   7.670   7.871  0.7845 -0.9499 -0.2287
   78MOL0     C10451   2.071   7.652   7.918 -0.5712 -0.0700 -0.2218
   78MOL0     C10452   2.151   7.549   7.880  0.2705 -0.2299 -0.0966
   78MOL0     O10453   2.282   7.536   7.910 -0.0469  0.0804  0.5526
   78MOL0     C10454   2.300   7.505   8.044  0.2491 -0.1278  0.4760
   78MOL0     C10455   2.425   7.425   8.052 -0.8752  0.5729  0.8267
   78MOL0     C10456   2.558   7.491   8.015  0.1170 -0.2766 -1.0202
   78MOL0     C10457   2.574   7.638   8.071  0.3280  0.0571  0.1493
   78MOL0     C10458   2.712   7.663   8.134 -0.6736 -0.5948  0.5548
   78MOL0     C10459   2.811   7.673   8.207 -0.5609  0.1650  0.8052
   78MOL0     C10460   2.100   7.452   7.790 -0.1322  1.0777  0.4762
   78MOL0     C10461   1.972   7.470   7.738  0.4171 -0.6638  0.9086
   78MOL0     C10462   1.934   7.382   7.618  0.5359  0.3749 -0.0761
   78MOL0     H10463   1.475   7.621   7.689  0.9359  0.1736  0.6229
   78MOL0     H10464   1.277   7.750   7.603 -2.6412  2.7179  2.9651
   78MOL0     H10465   1.130   7.894   7.618 -0.0137 -1.6343 -1.0424
   78MOL0     H10466   1.071   8.059   7.556  1.1290  1.4193 -0.7946
   78MOL0     H10467   1.204   7.849   7.394  0.6480 -0.1980  0.7572
   78MOL0     H10468   1.140   8.011   7.348  1.3472 -0.0877  1.5814
   78MOL0     H10469   0.943   7.800   7.444  0.4037  0.2157  0.1935
   78MOL0     H10470   1.019   7.779   7.281 -0.7183 -2.1717  1.7583
   78MOL0     H10471   0.858   8.025   7.359  1.8427  0.5897 -0.6741
   78MOL0     H10472   0.939   7.983   7.213  4.1037 -0.8825  1.8402
   78MOL0     H10473   0.725   7.906   7.163  2.7646  1.7661 -0.5785
   78MOL0     H10474   0.788   7.762   7.247 -1.5252  0.1292  2.4433
   78MOL0     H10475   0.595   7.804   7.346  3.0951 -1.2809 -1.3135
   78MOL0     H10476   0.703   7.855   7.466  0.0096 -1.5015 -0.7795
   78MOL0     H10477   0.543   8.043   7.271 -1.1937  0.6075 -0.0336
   78MOL0     H10478   0.632   8.093   7.423  0.0647  2.0074 -4.4023
   78MOL0     H10479   0.490   7.949   7.547 -3.2358 -1.3637  0.7224
   78MOL0     H10480   0.430   8.110   7.495  1.7419  0.4307 -1.9225
   78MOL0     H10481   0.331   7.992   7.191  0.2885  0.0303 -0.0743
   78MOL0     H10482   0.095   7.843   7.109  0.0056 -0.3222  0.7773
   78MOL0     H10483  -0.033   7.850   7.223 -0.9893 -0.0961 -4.1572
   78MOL0     H10484   0.105   8.100   7.127 -0.3797  2.6704  1.4861
   78MOL0     H10485  -0.049   8.031   7.056 -2.7885  0.1096  1.9320
   78MOL0     H10486   0.026   8.189   7.297  0.1797  1.0582 -1.0870
   78MOL0     H10487  -0.135   8.099   7.309 -2.5708 -1.3985 -2.3619
   78MOL0     H10488  -0.163   8.323   7.226  0.2772  0.6575 -0.4581
   78MOL0     H10489  -0.208   8.206   7.110 -1.1974 -0.0964  2.4159
   78MOL0     H10490   0.090   8.385   6.861 -0.8364 -1.9755 -0.5675
   78MOL0     H10491  -0.010   8.494   6.678  1.7785 -0.6659  0.7169
   78MOL0     H10492  -0.423   8.939   6.622 -1.3693 -0.8336  0.4736
   78MOL0     H10493  -0.543   9.038   6.442  0.5989  0.0439 -0.8308
   78MOL0     H10494  -0.731   9.064   6.296 -0.2079  0.1687  0.2383
   78MOL0     H10495  -0.581   9.123   6.220 -0.0283  0.5450 -1.9144
   78MOL0     H10496  -0.654   9.059   5.990 -2.3500  0.4900 -2.3681
   78MOL0     H10497  -0.804   9.006   6.070  0.3093 -0.6557  1.0970
   78MOL0     H10498  -0.828   9.246   6.172 -2.9818 -2.5032 -2.0463
   78MOL0     H10499  -0.681   9.288   6.116 -0.0557 -0.9422  1.6746
   78MOL0     H10500  -0.923   9.231   5.944 -0.0364  0.1250 -0.3929
   78MOL0     H10501  -0.759   9.258   5.870 -2.4691  4.1314 -4.1076
   78MOL0     H10502  -0.737   9.480   5.971  1.8056 -1.5041 -2.4571
   78MOL0     H10503  -0.905   9.468   6.035 -0.8265  0.3517 -0.6465
   78MOL0     H10504  -1.000   9.418   5.818 -0.8815  0.8381  0.1313
   78MOL0     H10505  -0.945   9.579   5.847  1.7101  0.1256 -1.9851
   78MOL0     H10506  -0.828   9.378   5.656 -0.5690  0.3702 -1.1053
   78MOL0     H10507  -0.732   9.514   5.720  0.6593  0.4011  0.9930
   78MOL0     H10508  -0.832   9.531   5.500  4.5425 -0.5828  2.3266
   78MOL0     H10509  -0.996   9.529   5.591  0.8220  0.3494  2.7503
   78MOL0     H10510  -0.553   8.660   6.235  1.5039 -2.7829  1.4711
   78MOL0     H10511  -0.418   8.559   6.422 -0.8576  0.5239  1.7952
   78MOL0     H10512  -0.361   8.578   6.892 -0.0307 -0.1377  0.8013
   78MOL0     H10513  -0.282   8.461   7.086 -0.5873  2.3505 -0.2588
   78MOL0     H10514   1.538   8.101   7.610  0.9553 -1.0102 -1.1680
   78MOL0     H10515   1.717   7.962   7.677  0.8505 -2.0570  1.2290
   78MOL0     H10516   1.884   7.747   7.907  1.8153 -0.5397  0.8906
   78MOL0     H10517   2.099   7.722   7.997  1.1757  1.2834 -1.9491
   78MOL0     H10518   2.223   7.447   8.096 -2.1313  1.9158 -0.5776
   78MOL0     H10519   2.314   7.599   8.098 -0.6762 -0.0702  0.6277
   78MOL0     H10520   2.413   7.335   7.991  1.5009 -0.2605  1.4492
   78MOL0     H10521   2.436   7.385   8.154 -1.8469  2.2251  1.6075
   78MOL0     H10522   2.572   7.484   7.907 -2.1865  0.7062 -1.4350
   78MOL0     H10523   2.634   7.425   8.056 -0.2031 -0.6797 -1.0726
   78MOL0     H10524   2.567   7.699   7.981  1.4396  2.3301  1.5024
   78MOL0     H10525   2.506   7.666   8.153 -1.2725 -2.7370 -0.0673
   78MOL0     H10526   2.896   7.686   8.271 -0.2807 -1.3293  0.7724
   78MOL0     H10527   2.168   7.378   7.749 -1.6963 -1.9783  2.9236
   78MOL0     H10528   1.948   7.276   7.641  0.8577  0.5666  0.6631
   78MOL0     H10529   1.832   7.400   7.584  1.2378  2.4645 -1.2512
   78MOL0     H10530   1.993   7.405   7.529  1.8462  0.1574  0.7063
   79MOL0     O10531   4.040   4.047   9.537  0.1593 -0.5761  0.0068
   79MOL0     C10532   4.071   4.111   9.633  0.5563  0.1442  0.1688
   79MOL0     O10533   4.194   4.115   9.694 -0.3777  0.6378 -0.2055
   79MOL0     C10534   4.298   4.049   9.631  0.0015  1.0437  0.4396
   79MOL0     C10535   4.347   3.934   9.690 -0.0699  0.2169  0.1584
   79MOL0     C10536   4.440   3.859   9.626 -0.1202  0.0732 -0.3035
   79MOL0     C10537   4.498   3.897   9.503  0.4223  0.0494  1.1150
   79MOL0     O10538   4.597   3.822   9.444 -0.3896 -0.6911 -0.1749
   79MOL0     C10539   4.681   3.727   9.514 -0.2580  0.1753  0.3936
   79MOL0     C10540   4.814   3.736   9.441  0.9419  0.8792 -0.3812
   79MOL0     C10541   4.895   3.597   9.449  0.2456 -0.0746 -0.2539
   79MOL0     C10542   4.880   3.496   9.559  0.0501  0.5195 -0.7585
   79MOL0     C10543   4.951   3.363   9.531 -0.0224 -0.3851  0.4972
   79MOL0     C10544   4.913   3.268   9.646 -0.1219  0.4133  0.1305
   79MOL0     C10545   4.973   3.129   9.630 -0.5093  0.6950  0.3804
   79MOL0     C10546   4.959   3.038   9.748  0.0749 -0.0848 -0.5548
   79MOL0     N10547   5.087   3.023   9.823 -0.0066 -0.7347 -0.6061
   79MOL0     C10548   5.163   3.126   9.873  0.1742 -0.1001 -1.2372
   79MOL0     C10549   5.281   3.066   9.916 -0.7434  0.0009 -0.2054
   79MOL0     C10550   5.407   3.135   9.953  0.0966  0.4572 -0.6460
   79MOL0     C10551   5.429   3.162  10.103 -1.0392 -0.4471  0.6976
   79MOL0     C10552   5.580   3.147  10.145 -0.0175  0.0768  0.2620
   79MOL0     C10553   5.574   3.153  10.297 -0.0331 -0.4316  0.0574
   79MOL0     O10554   5.706   3.122  10.337 -0.0736 -0.2476  0.0016
   79MOL0     C10555   5.768   3.006  10.334 -0.0653  0.0744 -0.4218
   79MOL0     C10556   5.910   3.007  10.345 -0.3536 -0.1752  0.1051
   79MOL0     C10557   5.975   2.887  10.343 -0.1444  1.0656 -0.3442
   79MOL0     C10558   5.907   2.764  10.328 -0.1828 -0.4348  0.3395
   79MOL0     C10559   5.983   2.637  10.312 -0.5723 -0.0352  0.4036
   79MOL0     O10560   5.904   2.517  10.310 -0.4121 -0.8012  0.6456
   79MOL0     C10561   5.972   2.410  10.268  0.5532 -0.2919  0.5499
   79MOL0     C10562   6.083   2.347  10.339  0.5322 -0.3910  0.7224
   79MOL0     C10563   6.136   2.223  10.286  0.0987  0.1008  0.3735
   79MOL0     C10564   6.068   2.158  10.186 -0.3377  0.0000  0.1532
   79MOL0     O10565   6.102   2.038  10.138 -0.0149  0.4545  0.0377
   79MOL0     C10566   6.060   1.927  10.226  0.2019 -0.0375 -0.3943
   79MOL0     C10567   6.040   1.800  10.153 -0.4471 -0.0766  0.0061
   79MOL0     C10568   5.935   1.826  10.042 -0.0790  0.0844  0.2679
   79MOL0     C10569   5.787   1.831  10.078  1.0240 -1.2633 -1.0566
   79MOL0     C10570   5.699   1.874   9.954  0.6845 -0.1125 -0.3065
   79MOL0     C10571   5.562   1.851   9.993  0.9158 -0.1767 -0.3103
   79MOL0     C10572   5.478   1.911   9.891  0.1668 -0.7704  0.4062
   79MOL0     C10573   5.333   1.940   9.928 -0.1098 -0.8356  0.4851
   79MOL0    Cl10574   5.323   2.089  10.030  0.2997  0.2171 -0.2068
   79MOL0     C10575   5.951   2.217  10.131  0.0356  0.4610  0.8784
   79MOL0     C10576   5.901   2.337  10.166 -0.0167  0.0175 -0.2361
   79MOL0     O10577   6.106   2.637  10.285  0.3289 -0.0847  0.3183
   79MOL0     C10578   5.770   2.759  10.320  0.7458  0.5705  0.6108
   79MOL0     C10579   5.697   2.882  10.315  0.4046  0.1790  0.1414
   79MOL0     N10580   5.268   2.933   9.886 -0.9161 -0.2367  0.3167
   79MOL0     N10581   5.153   2.906   9.839 -0.2985 -0.2878  0.8579
   79MOL0     C10582   4.456   4.016   9.446  0.9706 -0.1359 -1.0637
   79MOL0     C10583   4.362   4.096   9.512 -1.2158  0.1187  0.8036
   79MOL0     C10584   3.973   4.179   9.712  0.9717  0.3634  0.1466
   79MOL0     C10585   3.847   4.112   9.724  0.0226  0.0008 -1.1572
   79MOL0     C10586   3.738   4.166   9.797 -0.5982  0.2431 -0.0379
   79MOL0     C10587   3.752   4.307   9.843  1.2343 -0.0386  0.1507
   79MOL0     O10588   3.657   4.375   9.914  0.8325 -0.1184 -0.5667
   79MOL0     C10589   3.529   4.320   9.928  0.2058 -0.5849  0.4295
   79MOL0     C10590   3.436   4.424   9.996 -0.1512  0.2107 -0.7422
   79MOL0     C10591   3.281   4.412   9.982  0.8069  0.2898 -0.0863
   79MOL0     C10592   3.209   4.347  10.105  0.4444  0.5146 -0.3969
   79MOL0     C10593   3.216   4.416  10.232 -0.0335  0.1700 -0.8960
   79MOL0     C10594   3.244   4.462  10.344  0.2997 -0.5183 -0.3845
   79MOL0     C10595   3.883   4.364   9.833  0.6267  0.6205  0.5769
   79MOL0     C10596   3.994   4.305   9.776 -0.5181  0.0848  0.0006
   79MOL0     C10597   4.126   4.381   9.781 -0.7858 -0.5138  0.6231
   79MOL0     H10598   4.297   3.893   9.778  1.4916  0.8560  1.4031
   79MOL0     H10599   4.468   3.769   9.680  0.9125  0.4619 -0.1776
   79MOL0     H10600   4.697   3.740   9.621  1.4008 -0.6823  0.2853
   79MOL0     H10601   4.642   3.625   9.504 -0.8117  0.4003  0.1952
   79MOL0     H10602   4.867   3.817   9.491  2.0375 -0.2956  0.4267
   79MOL0     H10603   4.798   3.770   9.338 -1.0286 -2.8617 -1.5139
   79MOL0     H10604   4.999   3.631   9.451 -0.8503  4.0889 -2.1295
   79MOL0     H10605   4.876   3.545   9.355  1.5871  0.8560 -1.0667
   79MOL0     H10606   4.921   3.545   9.648  0.0634 -1.7177  0.5287
   79MOL0     H10607   4.773   3.488   9.579 -0.1573  1.3964 -1.4372
   79MOL0     H10608   4.913   3.331   9.434  1.9715  3.9235 -2.0233
   79MOL0     H10609   5.060   3.369   9.533 -0.0835  2.3343 -0.2084
   79MOL0     H10610   4.959   3.302   9.738 -1.4330 -0.8657  1.3113
   79MOL0     H10611   4.806   3.265   9.669 -0.0738  1.3904  0.5139
   79MOL0     H10612   5.081   3.135   9.616 -0.5588  2.7927  0.4978
   79MOL0     H10613   4.924   3.084   9.543  2.1744 -0.9383 -0.3865
   79MOL0     H10614   4.885   3.078   9.818 -2.3722 -0.4413 -2.8018
   79MOL0     H10615   4.910   2.943   9.725  1.5840 -0.3841 -2.8196
   79MOL0     H10616   5.145   3.233   9.872 -0.1433 -0.0736 -4.6134
   79MOL0     H10617   5.486   3.078   9.903 -1.0336  0.4816 -2.5379
   79MOL0     H10618   5.410   3.234   9.906 -2.7612  1.1114  0.3527
   79MOL0     H10619   5.408   3.267  10.123 -1.7992 -0.5192  0.3018
   79MOL0     H10620   5.360   3.092  10.153 -2.2282 -1.8247 -2.6046
   79MOL0     H10621   5.639   3.231  10.106  0.5858  1.2002  3.2556
   79MOL0     H10622   5.615   3.051  10.107 -2.0388 -1.1296  1.3325
   79MOL0     H10623   5.492   3.092  10.335  1.9618 -1.4290  3.0553
   79MOL0     H10624   5.552   3.256  10.328  0.7084 -0.4032  0.5094
   79MOL0     H10625   5.967   3.098  10.362  0.8103 -0.7295 -0.7126
   79MOL0     H10626   6.084   2.894  10.345 -0.2172  2.6065  1.3758
   79MOL0     H10627   6.122   2.397  10.427  3.4184  1.4292 -1.3955
   79MOL0     H10628   6.220   2.166  10.323 -0.3231 -3.4918 -3.4162
   79MOL0     H10629   6.135   1.915  10.305  1.1830  0.5478 -1.2145
   79MOL0     H10630   5.961   1.952  10.265 -0.7376 -2.8974 -0.6861
   79MOL0     H10631   6.135   1.764  10.113 -0.1796  1.3130 -0.6777
   79MOL0     H10632   5.994   1.735  10.227 -2.2019  2.5850  1.4411
   79MOL0     H10633   5.956   1.924   9.998 -4.2931  0.3858 -1.5361
   79MOL0     H10634   5.948   1.750   9.965 -2.4130  0.4920 -0.6055
   79MOL0     H10635   5.786   1.903  10.161 -1.5692 -0.1850 -1.9239
   79MOL0     H10636   5.751   1.733  10.110  0.3687 -0.3436  1.2458
   79MOL0     H10637   5.719   1.816   9.864 -0.2323 -1.6584  0.4297
   79MOL0     H10638   5.725   1.973   9.917 -0.9900 -0.5607 -2.9736
   79MOL0     H10639   5.553   1.744  10.014 -0.1919 -0.0307  0.0502
   79MOL0     H10640   5.544   1.890  10.093  3.1347  0.0089  0.0567
   79MOL0     H10641   5.486   1.846   9.803  0.6882  2.8213 -2.4341
   79MOL0     H10642   5.525   2.000   9.848  2.0221 -1.9198 -0.0669
   79MOL0     H10643   5.265   1.959   9.844 -1.6926  1.1448  2.0850
   79MOL0     H10644   5.291   1.852   9.978  2.1240 -1.2432  1.7742
   79MOL0     H10645   5.897   2.157  10.058  2.3265  1.0456 -1.4760
   79MOL0     H10646   5.803   2.372  10.135  0.2676 -0.6771 -2.0083
   79MOL0     H10647   5.713   2.667  10.326  2.3558 -0.5132  0.1042
   79MOL0     H10648   5.593   2.862  10.290  0.7036 -0.0443 -0.9539
   79MOL0     H10649   4.515   4.060   9.366  2.7474  1.0491  0.8081
   79MOL0     H10650   4.333   4.194   9.476 -0.2621  0.5445  1.1580
   79MOL0     H10651   3.818   4.009   9.704  0.2295 -1.2694  3.7072
   79MOL0     H10652   3.641   4.119   9.801 -0.7023  0.3806 -0.6766
   79MOL0     H10653   3.527   4.222   9.977 -0.9604 -0.3508  0.8868
   79MOL0     H10654   3.490   4.302   9.827  1.2646 -1.3452  0.1373
   79MOL0     H10655   3.462   4.528   9.970 -0.3141  0.1638 -1.0959
   79MOL0     H10656   3.465   4.415  10.101 -1.2739  0.1284 -0.4277
   79MOL0     H10657   3.256   4.357   9.891  0.8900 -2.0461  1.2321
   79MOL0     H10658   3.236   4.512   9.976 -0.3634 -0.2791 -1.0183
   79MOL0     H10659   3.104   4.329  10.084  0.4913  1.0816 -1.1401
   79MOL0     H10660   3.257   4.250  10.123 -0.9403  0.1452  1.6818
   79MOL0     H10661   3.271   4.491  10.444 -0.4201 -1.5610  0.1387
   79MOL0     H10662   3.897   4.464   9.872 -1.7250  1.0807  0.3571
   79MOL0     H10663   4.187   4.339   9.862  1.8572  0.9734 -0.4715
   79MOL0     H10664   4.185   4.367   9.690  0.2430  0.2940  1.1401
   79MOL0     H10665   4.117   4.489   9.788  1.5760  0.0445 -2.5782
   80MOL0     O10666   0.676   3.316   3.774  0.7678 -0.3238  0.1375
   80MOL0     C10667   0.705   3.421   3.718 -0.7029  0.0813 -0.0618
   80MOL0     O10668   0.826   3.446   3.649 -0.2415 -0.4733 -0.5355
   80MOL0     C10669   0.931   3.356   3.660 -0.0414 -0.3807  0.1731
   80MOL0     C10670   0.978   3.305   3.785  0.1946 -0.9312 -0.3968
   80MOL0     C10671   1.086   3.220   3.793 -1.2340 -0.1851  0.5334
   80MOL0     C10672   1.173   3.200   3.685 -0.5965  0.0697  0.7558
   80MOL0     O10673   1.303   3.149   3.681  1.3128  0.7064  0.7781
   80MOL0     C10674   1.356   3.062   3.788  0.7052 -0.3208 -0.3304
   80MOL0     C10675   1.411   2.932   3.729 -0.4343 -0.1953  0.4618
   80MOL0     C10676   1.482   2.850   3.831 -0.0280  0.5261  0.1794
   80MOL0     C10677   1.533   2.722   3.774 -0.5724 -0.5045 -0.1462
   80MOL0     C10678   1.667   2.685   3.827 -0.3263  0.4037  0.4883
   80MOL0     C10679   1.780   2.766   3.760 -0.5962  0.6747  0.4631
   80MOL0     C10680   1.914   2.681   3.729 -0.3121 -0.2042  0.2103
   80MOL0     C10681   2.022   2.777   3.716  0.1642  0.2287 -0.2398
   80MOL0     N10682   2.154   2.718   3.690  0.5270 -0.8104  0.8834
   80MOL0     C10683   2.214   2.619   3.764 -1.0851 -0.2599 -0.6262
   80MOL0     C10684   2.320   2.588   3.682 -0.4751  0.7533  0.7165
   80MOL0     C10685   2.432   2.488   3.714 -0.2796 -0.8410  0.0277
   80MOL0     C10686   2.572   2.545   3.696  0.1109  0.0692  0.3973
   80MOL0     C10687   2.668   2.436   3.677 -0.7585  0.0146 -0.1159
   80MOL0     C10688   2.804   2.500   3.676  0.0142  0.1487  0.2860
   80MOL0     O10689   2.910   2.399   3.653  0.1126 -0.0894 -0.3296
   80MOL0     C10690   2.928   2.348   3.524  0.8503  0.5816 -0.1782
   80MOL0     C10691   2.859   2.396   3.405 -0.2497  0.0144  0.2852
   80MOL0     C10692   2.875   2.339   3.284 -0.1560  0.6754 -0.0348
   80MOL0     C10693   2.960   2.224   3.269 -0.5255 -0.1527 -0.7966
   80MOL0     C10694   2.974   2.160   3.139 -1.3781 -0.2479  1.1513
   80MOL0     O10695   3.079   2.064   3.122  0.0850  0.1404 -0.6643
   80MOL0     C10696   3.110   2.028   2.997 -0.3901 -0.0613  0.0254
   80MOL0     C10697   3.019   1.987   2.900  0.2483  0.9355  0.6010
   80MOL0     C10698   3.048   1.959   2.767  0.3615 -0.4478  0.1126
   80MOL0     C10699   3.177   1.971   2.722 -0.5830 -0.5363  0.9663
   80MOL0     O10700   3.211   1.962   2.590  0.4910 -0.4807  0.3511
   80MOL0     C10701   3.138   1.878   2.500 -0.3793 -0.1045 -0.7241
   80MOL0     C10702   3.246   1.830   2.402  0.7572  0.2155 -0.2040
   80MOL0     C10703   3.305   1.937   2.306  0.6986 -0.1588  0.4743
   80MOL0     C10704   3.192   2.007   2.226  0.0611 -0.1140 -0.2319
   80MOL0     C10705   3.245   2.042   2.086 -0.7754 -0.7567  0.3895
   80MOL0     C10706   3.127   2.057   1.996 -0.3898  0.5894 -0.1685
   80MOL0     C10707   3.164   2.116   1.863 -0.9864 -0.6031 -0.2927
   80MOL0     C10708   3.286   2.059   1.796 -0.4151 -0.3046  0.3310
   80MOL0    Cl10709   3.262   1.890   1.734 -0.0350  0.1604  0.0065
   80MOL0     C10710   3.274   2.010   2.819  0.7605 -0.3060  0.7461
   80MOL0     C10711   3.239   2.040   2.955 -0.5173  1.8832 -0.3261
   80MOL0     O10712   2.917   2.212   3.041 -0.5616 -0.4097 -0.2508
   80MOL0     C10713   3.027   2.173   3.386 -0.2732 -0.0053 -0.0048
   80MOL0     C10714   3.015   2.238   3.510  0.2470  0.1014 -0.3419
   80MOL0     N10715   2.312   2.636   3.562  0.5119 -0.5026  0.8822
   80MOL0     N10716   2.222   2.722   3.567  0.4428  0.3430  0.3916
   80MOL0     C10717   1.128   3.242   3.565 -0.1548  0.1710 -0.0006
   80MOL0     C10718   1.014   3.310   3.548 -0.0335 -0.6643  0.2418
   80MOL0     C10719   0.602   3.524   3.712  0.2010 -0.0934  1.0632
   80MOL0     C10720   0.467   3.488   3.696 -0.3047 -0.6862 -0.0709
   80MOL0     C10721   0.369   3.589   3.674 -0.6932 -0.5290 -0.3013
   80MOL0     C10722   0.403   3.730   3.680 -0.0305  0.0281  0.3397
   80MOL0     O10723   0.320   3.832   3.643 -0.3154 -0.6287 -0.2202
   80MOL0     C10724   0.199   3.805   3.579  0.2479  0.7691  0.1059
   80MOL0     C10725   0.077   3.805   3.677  0.6028 -0.1882 -0.0578
   80MOL0     C10726  -0.046   3.732   3.614 -0.1024  0.2228 -0.6366
   80MOL0     C10727  -0.179   3.778   3.669  0.2401  0.4188 -0.1233
   80MOL0     C10728  -0.217   3.923   3.650  0.6056 -0.0783 -0.2063
   80MOL0     C10729  -0.242   4.043   3.649  0.2266 -0.2962 -0.1411
   80MOL0     C10730   0.539   3.770   3.699  0.7946  0.3261  0.0188
   80MOL0     C10731   0.636   3.667   3.717 -0.4522  0.1943 -0.0677
   80MOL0     C10732   0.782   3.720   3.730  0.1464 -0.0550  0.0362
   80MOL0     H10733   0.921   3.329   3.874 -1.2944  0.6633 -1.7243
   80MOL0     H10734   1.109   3.186   3.893 -3.3792  0.8525  1.4367
   80MOL0     H10735   1.427   3.115   3.851 -0.9754  1.6169  0.0522
   80MOL0     H10736   1.282   3.029   3.862  2.0927 -2.3144  0.2450
   80MOL0     H10737   1.469   2.959   3.641 -3.2150 -1.9400 -2.0819
   80MOL0     H10738   1.324   2.876   3.693  0.3194 -1.0106 -0.0951
   80MOL0     H10739   1.410   2.810   3.903 -2.3843  1.4773 -1.5420
   80MOL0     H10740   1.563   2.903   3.882 -0.0341 -0.2123  0.9947
   80MOL0     H10741   1.467   2.638   3.800  0.0622 -0.5389  1.4443
   80MOL0     H10742   1.538   2.728   3.665  0.8307 -0.8821 -0.1130
   80MOL0     H10743   1.664   2.702   3.935 -0.3618  4.2198  0.0468
   80MOL0     H10744   1.672   2.577   3.810 -0.2078  0.0227  2.7194
   80MOL0     H10745   1.743   2.812   3.668 -0.3459 -0.6091 -0.3018
   80MOL0     H10746   1.823   2.848   3.819 -0.5098  1.8994 -1.2210
   80MOL0     H10747   1.892   2.616   3.644 -1.3764 -2.0755  1.8327
   80MOL0     H10748   1.943   2.608   3.805 -0.5662 -2.4235 -1.6973
   80MOL0     H10749   2.002   2.841   3.629  0.2379  0.6055  0.0223
   80MOL0     H10750   2.037   2.830   3.810  0.7944 -2.8916  1.5647
   80MOL0     H10751   2.192   2.582   3.864  1.0484  0.6221  0.2191
   80MOL0     H10752   2.428   2.448   3.815  1.1074  1.4707  1.0851
   80MOL0     H10753   2.414   2.408   3.642  0.5069 -2.1049  1.2067
   80MOL0     H10754   2.572   2.616   3.614 -0.8350 -0.3469  0.0129
   80MOL0     H10755   2.597   2.611   3.780 -2.0454  2.2760 -0.5739
   80MOL0     H10756   2.655   2.374   3.588 -2.7339  0.7465 -0.3815
   80MOL0     H10757   2.672   2.371   3.764  2.8493  0.1059 -0.0574
   80MOL0     H10758   2.819   2.555   3.769 -0.7516 -0.1852  0.6200
   80MOL0     H10759   2.819   2.578   3.600  2.8010  1.5527  2.1109
   80MOL0     H10760   2.785   2.476   3.415  0.3531  0.4184  1.8052
   80MOL0     H10761   2.828   2.372   3.192 -0.8537 -0.9456 -0.2934
   80MOL0     H10762   2.919   1.983   2.942  1.2150 -2.5110  2.9930
   80MOL0     H10763   2.957   1.937   2.713 -0.3688  3.6300 -0.6327
   80MOL0     H10764   3.082   1.796   2.545 -1.3025  0.8431 -0.0962
   80MOL0     H10765   3.064   1.941   2.450  0.4236  0.9497 -0.6383
   80MOL0     H10766   3.324   1.786   2.465  1.7402 -2.7286 -3.2320
   80MOL0     H10767   3.177   1.760   2.354 -0.2608 -1.4008  3.2573
   80MOL0     H10768   3.352   2.009   2.373  0.8990 -3.0897  3.7883
   80MOL0     H10769   3.385   1.899   2.242  0.8272 -0.1540  0.6331
   80MOL0     H10770   3.166   2.106   2.262 -0.1488  0.0268 -0.7553
   80MOL0     H10771   3.115   1.930   2.219 -0.0692 -0.3680  2.7904
   80MOL0     H10772   3.295   1.951   2.051 -2.9459 -1.7394 -0.3362
   80MOL0     H10773   3.303   2.134   2.077  0.9502 -1.9355 -1.6073
   80MOL0     H10774   3.085   1.961   1.963  1.0785  0.7690 -2.9311
   80MOL0     H10775   3.045   2.110   2.044 -2.0047 -0.6080 -1.4570
   80MOL0     H10776   3.192   2.221   1.869  2.8265 -1.4241 -1.4097
   80MOL0     H10777   3.075   2.124   1.798 -0.5125  2.2383 -0.7256
   80MOL0     H10778   3.317   2.112   1.705  0.4786 -0.2747  0.6408
   80MOL0     H10779   3.377   2.067   1.856  0.4566 -0.8441 -0.8662
   80MOL0     H10780   3.374   2.026   2.778 -0.4903  1.6711 -1.8377
   80MOL0     H10781   3.324   2.071   3.014 -0.2376  1.5309 -0.5416
   80MOL0     H10782   3.088   2.084   3.377 -0.0702  0.0890  0.4181
   80MOL0     H10783   3.072   2.199   3.594 -1.5745  2.9579  2.5016
   80MOL0     H10784   1.188   3.206   3.482 -1.4753 -1.0703 -0.4479
   80MOL0     H10785   0.981   3.337   3.448 -1.9058  0.1907  1.0501
   80MOL0     H10786   0.445   3.382   3.704 -1.9629 -0.3001  0.8297
   80MOL0     H10787   0.271   3.548   3.649 -0.1821 -2.4546  0.7278
   80MOL0     H10788   0.181   3.713   3.524 -3.1030  1.5114 -0.2772
   80MOL0     H10789   0.185   3.886   3.507  0.0981  0.3596 -0.3231
   80MOL0     H10790   0.060   3.912   3.694 -2.0091 -0.8885  2.6459
   80MOL0     H10791   0.088   3.746   3.769 -2.6161 -1.4048 -0.3280
   80MOL0     H10792  -0.041   3.626   3.641 -0.3079  0.4819  0.5087
   80MOL0     H10793  -0.063   3.750   3.508 -2.5560  0.5846 -0.2462
   80MOL0     H10794  -0.253   3.714   3.619  0.1339  0.4100  0.0414
   80MOL0     H10795  -0.178   3.764   3.778 -0.5724  0.1664 -0.1370
   80MOL0     H10796  -0.289   4.140   3.653 -2.1450 -1.3989  0.1161
   80MOL0     H10797   0.556   3.877   3.700  2.2424  0.1750 -1.7890
   80MOL0     H10798   0.791   3.821   3.771 -1.4835 -0.0243  0.3722
   80MOL0     H10799   0.844   3.653   3.790  0.9359 -1.0277 -1.7837
   80MOL0     H10800   0.828   3.724   3.631 -3.1909  2.1434 -1.6160
   81MOL0     O10801  11.168   2.687   3.549  0.6183 -0.4980  0.1152
   81MOL0     C10802  11.197   2.804   3.587  0.3263  0.4077 -0.1260
   81MOL0     O10803  11.305   2.842   3.654 -0.6503 -0.0856 -0.4412
   81MOL0     C10804  11.397   2.743   3.693  0.2738 -0.7510  0.1441
   81MOL0     C10805  11.363   2.622   3.762  1.0163 -0.0764 -0.1843
   81MOL0     C10806  11.455   2.531   3.778  0.1458  0.0628 -0.2577
   81MOL0     C10807  11.595   2.553   3.759  0.3025 -0.2807 -0.7014
   81MOL0     O10808  11.689   2.461   3.788  0.0813  0.1180 -0.8229
   81MOL0     C10809  11.687   2.359   3.691  0.2263 -0.2887  0.7831
   81MOL0     C10810  11.817   2.287   3.720 -0.5985  0.6712  0.2269
   81MOL0     C10811  11.801   2.152   3.651  0.7674 -0.5492  0.7967
   81MOL0     C10812  11.904   2.050   3.665 -0.1490  0.2689  0.1397
   81MOL0     C10813  11.866   1.935   3.760 -0.3779  0.0006  0.5517
   81MOL0     C10814  11.994   1.842   3.776 -0.0495 -0.1323 -0.0484
   81MOL0     C10815  11.960   1.720   3.869  0.3586 -0.0132  0.4000
   81MOL0     C10816  12.074   1.625   3.873  0.0028 -0.8190  0.6754
   81MOL0     N10817  12.124   1.593   3.735 -0.3040 -1.0187  0.3650
   81MOL0     C10818  12.055   1.566   3.612 -0.6540 -0.7387  0.1448
   81MOL0     C10819  12.155   1.547   3.521  0.0737 -0.2468  0.5771
   81MOL0     C10820  12.128   1.519   3.378 -0.6356 -0.2289 -0.4575
   81MOL0     C10821  12.125   1.646   3.285 -0.3002 -0.2670 -0.7965
   81MOL0     C10822  12.247   1.740   3.283 -0.3979  1.6982  0.2034
   81MOL0     C10823  12.372   1.668   3.239 -0.3968 -0.2667  0.1350
   81MOL0     O10824  12.362   1.632   3.101  0.0777  0.5716 -0.0293
   81MOL0     C10825  12.467   1.555   3.049 -0.2484 -0.5656  0.7646
   81MOL0     C10826  12.565   1.477   3.116  0.1031 -0.0258  0.9913
   81MOL0     C10827  12.665   1.403   3.051  0.1949  0.6185 -0.0970
   81MOL0     C10828  12.674   1.401   2.905  0.5426  0.2881 -0.0119
   81MOL0     C10829  12.763   1.308   2.825 -0.0122  0.7031 -0.7497
   81MOL0     O10830  12.808   1.195   2.894  0.4503  0.4145 -0.4576
   81MOL0     C10831  12.874   1.110   2.809  0.2144  0.1458 -0.2986
   81MOL0     C10832  13.015   1.104   2.817  0.2698  0.2164 -0.3532
   81MOL0     C10833  13.082   1.004   2.753  0.1379  0.8059 -0.7851
   81MOL0     C10834  13.023   0.914   2.668 -0.4084 -0.6737  0.1940
   81MOL0     O10835  13.105   0.830   2.598 -0.8645  0.1933 -0.3769
   81MOL0     C10836  13.061   0.752   2.487  0.1407  0.3725 -0.2281
   81MOL0     C10837  13.175   0.676   2.426  0.0163 -0.5163  0.0620
   81MOL0     C10838  13.276   0.615   2.539 -0.7856 -0.5355  0.6218
   81MOL0     C10839  13.370   0.517   2.479 -0.4645  0.6820  0.7738
   81MOL0     C10840  13.298   0.379   2.501 -0.6280  0.7868  0.3456
   81MOL0     C10841  13.412   0.281   2.520 -0.0567 -0.0811 -0.0874
   81MOL0     C10842  13.373   0.136   2.488 -0.4481  0.2952 -0.5351
   81MOL0     C10843  13.288   0.072   2.586  0.0605 -0.6784  1.4501
   81MOL0    Cl10844  13.174  -0.024   2.514 -0.5373  0.2537  1.0708
   81MOL0     C10845  12.890   0.931   2.646  0.9401  0.1899  0.6129
   81MOL0     C10846  12.811   1.024   2.723 -0.2368 -0.6170  1.3153
   81MOL0     O10847  12.780   1.339   2.702 -0.6067 -0.1181 -1.4552
   81MOL0     C10848  12.577   1.483   2.844  0.1492  0.7513 -1.4983
   81MOL0     C10849  12.488   1.567   2.912 -0.6267  0.4032 -0.4400
   81MOL0     N10850  12.278   1.572   3.583  0.3845  0.0827  0.3431
   81MOL0     N10851  12.257   1.604   3.713 -0.2375  0.2732 -0.2848
   81MOL0     C10852  11.633   2.680   3.710 -0.8653 -0.3911  0.1031
   81MOL0     C10853  11.537   2.786   3.693  0.0726 -0.0532  0.1431
   81MOL0     C10854  11.088   2.904   3.557 -0.8801  1.0830 -0.0518
   81MOL0     C10855  10.961   2.861   3.575 -0.0283  0.6071 -0.3510
   81MOL0     C10856  10.860   2.949   3.557  0.7436  0.3628  1.0737
   81MOL0     C10857  10.873   3.072   3.509 -0.2068  0.1857 -0.2297
   81MOL0     O10858  10.776   3.161   3.482 -0.1002 -0.3948  0.0493
   81MOL0     C10859  10.636   3.135   3.497  0.0242  0.1201  0.5322
   81MOL0     C10860  10.540   3.253   3.495 -0.1857 -0.1246  0.6421
   81MOL0     C10861  10.525   3.290   3.349 -0.3844  0.1025 -0.8900
   81MOL0     C10862  10.402   3.375   3.319 -0.3249 -0.4097 -1.0491
   81MOL0     C10863  10.426   3.517   3.360  0.4307 -0.2471 -0.2776
   81MOL0     C10864  10.435   3.630   3.381  0.6093 -0.3653  0.6555
   81MOL0     C10865  11.006   3.116   3.485  0.8195 -1.1516  0.4087
   81MOL0     C10866  11.117   3.034   3.516 -0.9551  0.3303  0.4584
   81MOL0     C10867  11.255   3.094   3.507  1.3182  0.1939  0.2789
   81MOL0     H10868  11.260   2.606   3.792  0.2265  2.8824 -0.9975
   81MOL0     H10869  11.420   2.443   3.830  0.1408  0.9048  1.2058
   81MOL0     H10870  11.597   2.298   3.700 -0.4468  0.5824  0.1323
   81MOL0     H10871  11.690   2.398   3.589 -1.4581  0.0423  0.8433
   81MOL0     H10872  11.838   2.282   3.827  0.1287  1.0188  0.1076
   81MOL0     H10873  11.905   2.326   3.668 -0.0634  3.5183  2.9331
   81MOL0     H10874  11.783   2.164   3.543 -0.4044 -0.0205  1.0317
   81MOL0     H10875  11.707   2.115   3.692  0.3577  0.4933  0.8337
   81MOL0     H10876  11.928   2.006   3.568 -3.1661  0.2420 -0.6797
   81MOL0     H10877  11.992   2.106   3.698  0.6872  0.9259 -2.9290
   81MOL0     H10878  11.826   1.980   3.852  2.9358 -1.1916  2.7734
   81MOL0     H10879  11.783   1.881   3.715 -0.7426  1.7984 -1.0717
   81MOL0     H10880  12.017   1.806   3.675 -1.5728  0.0865 -0.5125
   81MOL0     H10881  12.073   1.898   3.825 -1.7855  0.4903  2.1691
   81MOL0     H10882  11.870   1.670   3.831  1.1659 -1.5621  0.4575
   81MOL0     H10883  11.936   1.741   3.973 -2.3275 -0.9445  0.0518
   81MOL0     H10884  12.150   1.677   3.932 -1.4500  2.9807 -0.4973
   81MOL0     H10885  12.045   1.533   3.924 -2.6458 -1.3495 -1.5337
   81MOL0     H10886  11.949   1.563   3.587 -0.0142  2.4261 -4.1673
   81MOL0     H10887  12.205   1.451   3.342  0.8264  0.3053  1.4919
   81MOL0     H10888  12.026   1.480   3.375 -0.1250 -1.8962  1.4816
   81MOL0     H10889  12.096   1.610   3.186  1.4516 -1.7319 -0.8411
   81MOL0     H10890  12.052   1.716   3.327 -1.5073 -2.5871  1.2471
   81MOL0     H10891  12.270   1.788   3.379  1.8014 -2.7312  2.2391
   81MOL0     H10892  12.228   1.819   3.210 -2.7744 -1.8180 -3.3902
   81MOL0     H10893  12.384   1.582   3.306 -0.8851  1.3800  2.4766
   81MOL0     H10894  12.458   1.734   3.252 -0.6092 -0.3523  2.5425
   81MOL0     H10895  12.554   1.467   3.224 -0.4021 -0.3559  0.9097
   81MOL0     H10896  12.714   1.331   3.116  2.0916 -0.3407 -2.4521
   81MOL0     H10897  13.052   1.171   2.895 -3.8351  1.1605  1.0514
   81MOL0     H10898  13.190   1.002   2.761  0.1917 -1.3887 -1.5489
   81MOL0     H10899  12.976   0.687   2.514  0.9513 -0.7566 -0.3379
   81MOL0     H10900  13.021   0.833   2.426  2.7378  3.5864  2.0415
   81MOL0     H10901  13.129   0.598   2.364  1.3338  0.5714 -2.4372
   81MOL0     H10902  13.225   0.738   2.351  0.4126  1.2439  1.7012
   81MOL0     H10903  13.332   0.704   2.569  0.9968  0.1688 -3.9149
   81MOL0     H10904  13.213   0.583   2.622  0.7149  0.6189  2.2707
   81MOL0     H10905  13.469   0.528   2.525 -0.1445 -0.5095  0.4059
   81MOL0     H10906  13.382   0.533   2.371 -0.3665 -5.0433 -0.3716
   81MOL0     H10907  13.234   0.349   2.417  1.6754 -1.3667 -0.7734
   81MOL0     H10908  13.249   0.385   2.599  1.3434  1.2745  1.3479
   81MOL0     H10909  13.503   0.299   2.462  0.9556 -5.3068 -0.5595
   81MOL0     H10910  13.443   0.290   2.624 -0.0942 -1.9353  0.1053
   81MOL0     H10911  13.467   0.080   2.480 -0.2265  0.3283  1.4421
   81MOL0     H10912  13.329   0.129   2.388  0.6139 -1.4821 -0.9335
   81MOL0     H10913  13.344   0.001   2.648  3.3474  2.5343  2.4696
   81MOL0     H10914  13.226   0.137   2.649 -1.7645 -1.2858  0.3452
   81MOL0     H10915  12.850   0.860   2.574  3.0427 -2.1590  1.5784
   81MOL0     H10916  12.703   1.034   2.715  0.0100  0.9607 -1.4815
   81MOL0     H10917  12.567   1.469   2.736 -1.9748 -0.9318 -1.1447
   81MOL0     H10918  12.419   1.614   2.842 -3.2373 -2.5615 -0.0671
   81MOL0     H10919  11.734   2.715   3.689 -1.4128 -0.9087 -4.3111
   81MOL0     H10920  11.563   2.888   3.668 -2.3820  0.4576 -0.6681
   81MOL0     H10921  10.942   2.763   3.617  2.1320  1.1043  2.0175
   81MOL0     H10922  10.764   2.922   3.601 -0.4218 -0.3779 -1.7223
   81MOL0     H10923  10.616   3.084   3.592  0.4052  1.9397  1.6484
   81MOL0     H10924  10.607   3.068   3.415 -2.1934  1.9970 -0.3345
   81MOL0     H10925  10.586   3.338   3.546  0.3331  1.5724 -2.4561
   81MOL0     H10926  10.443   3.234   3.543  0.0122  1.0953  1.5677
   81MOL0     H10927  10.515   3.208   3.277 -1.8124  0.5469 -1.2163
   81MOL0     H10928  10.617   3.349   3.339 -1.7079  2.3528 -0.5617
   81MOL0     H10929  10.386   3.379   3.211  0.9312 -0.4402 -1.2499
   81MOL0     H10930  10.319   3.333   3.378  0.3417  0.9784  0.9951
   81MOL0     H10931  10.443   3.736   3.395 -1.1378 -0.0984 -0.0542
   81MOL0     H10932  11.022   3.217   3.449 -0.2066 -1.1534 -0.0990
   81MOL0     H10933  11.301   3.130   3.599 -0.2947 -0.5596  1.4080
   81MOL0     H10934  11.320   3.015   3.468  3.0064  1.3613  0.5916
   81MOL0     H10935  11.253   3.174   3.432 -1.5159 -0.1663 -0.1405
   82MOL0     O10936   1.660   7.398   8.328 -0.3522 -0.0669  0.5157
   82MOL0     C10937   1.684   7.381   8.207 -0.2463 -0.4528  0.3048
   82MOL0     O10938   1.811   7.364   8.156  0.0422  0.4938  0.1598
   82MOL0     C10939   1.929   7.390   8.225  0.4993 -0.2114  0.5765
   82MOL0     C10940   2.012   7.295   8.284 -0.2799  0.9046 -0.0334
   82MOL0     C10941   2.127   7.319   8.361  0.6627  0.7150 -0.1426
   82MOL0     C10942   2.165   7.451   8.380 -0.4841 -0.2743 -0.8871
   82MOL0     O10943   2.290   7.498   8.427  0.6097  0.8652 -0.0247
   82MOL0     C10944   2.355   7.419   8.532  0.5771 -0.2772  0.7806
   82MOL0     C10945   2.501   7.388   8.473 -0.1712  0.5375  0.4703
   82MOL0     C10946   2.613   7.338   8.566 -0.5093  0.6524  0.2071
   82MOL0     C10947   2.753   7.354   8.495 -0.2553  0.0396 -0.3916
   82MOL0     C10948   2.874   7.281   8.570  0.6923 -0.3647  0.8277
   82MOL0     C10949   2.991   7.259   8.470 -0.4998  0.3696  0.5772
   82MOL0     C10950   3.065   7.391   8.439  0.3856 -0.4890  0.0452
   82MOL0     C10951   3.171   7.377   8.340  0.1896 -0.5436  1.1843
   82MOL0     N10952   3.124   7.306   8.226 -0.0350  0.2776  0.3059
   82MOL0     C10953   3.039   7.353   8.132 -0.3241  0.1269 -0.3255
   82MOL0     C10954   3.013   7.258   8.048 -0.5546 -0.1959  0.1199
   82MOL0     C10955   2.928   7.271   7.928  0.6229 -0.2307 -0.5654
   82MOL0     C10956   2.956   7.168   7.818 -0.2568  0.1619 -0.1356
   82MOL0     C10957   2.890   7.036   7.860 -0.6010  0.0380 -0.6025
   82MOL0     C10958   2.735   7.036   7.857 -0.2401 -0.1276  0.2914
   82MOL0     O10959   2.673   7.096   7.966  0.2018  0.2019 -0.3701
   82MOL0     C10960   2.651   7.017   8.072  0.2668 -0.1684  0.3521
   82MOL0     C10961   2.546   6.932   8.094  0.0247 -0.6762  1.4828
   82MOL0     C10962   2.543   6.839   8.204 -0.5653  0.9564 -0.4179
   82MOL0     C10963   2.643   6.826   8.296 -1.2569 -0.0810 -0.4251
   82MOL0     C10964   2.633   6.731   8.408  0.0381 -0.8247 -0.3583
   82MOL0     O10965   2.515   6.665   8.430 -0.0750 -0.3857 -0.0150
   82MOL0     C10966   2.505   6.579   8.533  1.4284  0.5641 -0.7948
   82MOL0     C10967   2.601   6.474   8.566  0.7237  0.0622  0.4620
   82MOL0     C10968   2.578   6.381   8.672 -0.4340 -1.3289 -0.5624
   82MOL0     C10969   2.461   6.395   8.750 -0.6187 -0.9172  0.0494
   82MOL0     O10970   2.432   6.305   8.846 -0.1344  0.5920  0.0538
   82MOL0     C10971   2.398   6.175   8.793 -0.5636  0.2668 -0.6101
   82MOL0     C10972   2.493   6.075   8.855 -0.2547  0.2927 -0.3360
   82MOL0     C10973   2.472   5.951   8.771 -0.8993 -0.5816 -0.9986
   82MOL0     C10974   2.585   5.857   8.814 -0.9132  0.2995  0.6468
   82MOL0     C10975   2.564   5.716   8.750  0.1789  0.2455  1.0966
   82MOL0     C10976   2.609   5.696   8.606 -1.0882 -0.6435  0.2477
   82MOL0     C10977   2.654   5.543   8.588  0.1917  0.4344  0.8868
   82MOL0     C10978   2.730   5.505   8.462  0.1867  0.3336 -0.5612
   82MOL0    Cl10979   2.625   5.520   8.313  0.4277 -0.2424  0.1155
   82MOL0     C10980   2.361   6.484   8.706 -0.2167 -0.5131 -0.9894
   82MOL0     C10981   2.381   6.578   8.600 -0.3506  0.2715  0.1612
   82MOL0     O10982   2.732   6.723   8.478  0.5534 -0.0795  0.0040
   82MOL0     C10983   2.755   6.909   8.270 -0.3846  0.5763 -0.1833
   82MOL0     C10984   2.754   7.002   8.163  0.5366  0.2354  0.3310
   82MOL0     N10985   3.081   7.143   8.093  0.4785  1.1259  0.8190
   82MOL0     N10986   3.153   7.172   8.194 -0.6229  0.1983 -0.6035
   82MOL0     C10987   2.081   7.548   8.329  0.0823 -0.1202 -0.0238
   82MOL0     C10988   1.961   7.519   8.265  0.8363 -0.2412 -0.2119
   82MOL0     C10989   1.568   7.358   8.116 -0.1636 -0.8498 -0.3177
   82MOL0     C10990   1.437   7.415   8.160 -0.3383  0.2553 -0.1728
   82MOL0     C10991   1.327   7.416   8.076 -0.0878 -1.0123 -0.7393
   82MOL0     C10992   1.338   7.377   7.941  0.6872  0.0784  0.4555
   82MOL0     O10993   1.222   7.353   7.870 -0.1386  0.3527 -0.0471
   82MOL0     C10994   1.226   7.351   7.724  0.4953  0.4273  0.7559
   82MOL0     C10995   1.200   7.206   7.669 -0.5021 -0.1708  0.4169
   82MOL0     C10996   1.171   7.190   7.517  1.1406 -0.2900  0.3689
   82MOL0     C10997   1.120   7.044   7.485  0.3209 -1.2276 -0.5540
   82MOL0     C10998   1.070   7.045   7.349 -0.6184  0.6333  0.3963
   82MOL0     C10999   1.026   7.069   7.240  0.7141  0.3749 -0.6100
   82MOL0     C11000   1.458   7.319   7.898 -0.3790 -0.3071 -0.5032
   82MOL0     C11001   1.570   7.303   7.987  0.5093  0.6588  0.2185
   82MOL0     C11002   1.692   7.249   7.923 -0.0104 -0.2573  0.1731
   82MOL0     H11003   1.991   7.192   8.257  0.4213  0.3078  1.6072
   82MOL0     H11004   2.192   7.240   8.398  1.7187  1.2706 -0.7580
   82MOL0     H11005   2.352   7.485   8.620 -1.4534  2.0167 -0.8843
   82MOL0     H11006   2.300   7.329   8.561  1.3650 -0.3426  2.1948
   82MOL0     H11007   2.539   7.484   8.437  1.2147 -0.2679 -0.2836
   82MOL0     H11008   2.496   7.317   8.390  0.9246 -0.9654  1.6268
   82MOL0     H11009   2.602   7.231   8.587 -1.4262  1.2676  3.5144
   82MOL0     H11010   2.613   7.389   8.663  0.6703 -2.5241  2.0142
   82MOL0     H11011   2.737   7.323   8.391  2.4827 -0.1574 -0.8205
   82MOL0     H11012   2.771   7.461   8.482 -0.3844  0.5418  2.8010
   82MOL0     H11013   2.900   7.339   8.659 -3.8346  2.1653  0.8091
   82MOL0     H11014   2.833   7.188   8.611 -2.0314 -0.9875 -2.8130
   82MOL0     H11015   3.062   7.178   8.490 -2.7152 -1.8392 -0.1138
   82MOL0     H11016   2.940   7.229   8.378  1.3699 -1.3120  0.0086
   82MOL0     H11017   3.108   7.418   8.536 -0.3798 -1.4515  0.6712
   82MOL0     H11018   2.993   7.470   8.413 -0.2717 -0.2798  2.2795
   82MOL0     H11019   3.220   7.469   8.305 -3.4915  0.9727 -0.4714
   82MOL0     H11020   3.251   7.321   8.390  2.4928 -0.0344 -1.6434
   82MOL0     H11021   3.001   7.455   8.125  1.7698  0.9945  0.2555
   82MOL0     H11022   2.825   7.284   7.963  1.2586  2.7690  0.5084
   82MOL0     H11023   2.949   7.371   7.887 -1.3004  0.8794  0.9468
   82MOL0     H11024   2.926   7.204   7.720  0.9891 -1.3764 -1.1221
   82MOL0     H11025   3.064   7.152   7.810  0.0778  2.3823 -0.7237
   82MOL0     H11026   2.934   6.999   7.953 -1.2128 -0.7761 -0.6222
   82MOL0     H11027   2.931   6.960   7.793  3.6403  0.9887  0.6164
   82MOL0     H11028   2.691   6.937   7.840 -1.5385  0.3774  0.6073
   82MOL0     H11029   2.708   7.094   7.768  2.3815 -0.2702 -0.6876
   82MOL0     H11030   2.461   6.936   8.027  2.8043  1.4909 -2.3932
   82MOL0     H11031   2.455   6.778   8.225 -0.2575  0.0931 -1.5599
   82MOL0     H11032   2.683   6.464   8.496  0.4538 -1.3380  0.3231
   82MOL0     H11033   2.644   6.297   8.690  0.9151 -0.7777 -2.6007
   82MOL0     H11034   2.295   6.154   8.825 -0.5724 -1.0149 -1.4207
   82MOL0     H11035   2.402   6.163   8.685  2.4197 -0.4544 -0.4834
   82MOL0     H11036   2.596   6.111   8.845 -0.0728 -0.5475 -1.7280
   82MOL0     H11037   2.468   6.055   8.960  3.9480  1.0103  0.9924
   82MOL0     H11038   2.372   5.911   8.790 -1.0712  0.3996  0.2841
   82MOL0     H11039   2.490   5.958   8.663  1.1130 -0.6585 -0.7129
   82MOL0     H11040   2.576   5.835   8.921  0.7003  0.7398  0.8998
   82MOL0     H11041   2.684   5.895   8.788 -0.9821 -0.5913 -1.0426
   82MOL0     H11042   2.468   5.666   8.763  0.6969 -0.7469  1.1531
   82MOL0     H11043   2.634   5.657   8.810  1.3049  0.9223  0.4828
   82MOL0     H11044   2.530   5.729   8.537  0.3254  0.0911 -1.0927
   82MOL0     H11045   2.697   5.757   8.584  0.2668 -1.3598  3.1817
   82MOL0     H11046   2.567   5.477   8.592  0.3723  0.2124  1.2872
   82MOL0     H11047   2.728   5.517   8.664 -0.0922  2.7296  2.0414
   82MOL0     H11048   2.809   5.578   8.440 -0.6450  1.9941  1.5453
   82MOL0     H11049   2.778   5.407   8.466 -1.2575 -0.3920 -0.6653
   82MOL0     H11050   2.270   6.503   8.763 -0.1957 -2.5252 -0.2035
   82MOL0     H11051   2.314   6.660   8.576 -0.9697 -0.8995 -2.4392
   82MOL0     H11052   2.843   6.918   8.333 -2.0946  0.2656  2.4087
   82MOL0     H11053   2.843   7.060   8.142  2.7631 -1.5104  3.8370
   82MOL0     H11054   2.105   7.654   8.328 -2.2491  0.4556  0.6775
   82MOL0     H11055   1.897   7.596   8.223 -0.9733 -2.8477 -2.5286
   82MOL0     H11056   1.431   7.442   8.265 -0.4774  1.1728 -0.4070
   82MOL0     H11057   1.237   7.464   8.112  0.0376 -2.9817  2.5502
   82MOL0     H11058   1.321   7.378   7.676 -0.6733  3.7633  0.0918
   82MOL0     H11059   1.150   7.421   7.691 -0.3389 -0.2144  1.2781
   82MOL0     H11060   1.116   7.174   7.730 -1.1506 -0.8366 -0.7962
   82MOL0     H11061   1.275   7.130   7.691  0.3429  0.7444  0.7851
   82MOL0     H11062   1.256   7.217   7.454 -1.6025  2.4026 -2.5058
   82MOL0     H11063   1.091   7.263   7.500  2.2589  1.6816  2.9107
   82MOL0     H11064   1.200   6.971   7.501  1.7295  0.4129  0.2345
   82MOL0     H11065   1.039   7.018   7.554  1.2476  1.7790  1.9114
   82MOL0     H11066   0.990   7.098   7.143 -0.6547 -0.6015 -0.4132
   82MOL0     H11067   1.468   7.279   7.798  1.9378  2.8871 -1.6744
   82MOL0     H11068   1.657   7.182   7.844 -2.6986  1.7018 -0.4241
   82MOL0     H11069   1.761   7.327   7.889 -0.0840 -0.7345 -1.1259
   82MOL0     H11070   1.741   7.191   8.002 -1.6606 -2.3031 -0.2224
   83MOL0     O11071   9.769   9.086   1.791  0.2035  0.7823  0.2829
   83MOL0     C11072   9.826   8.986   1.831  0.1037 -0.5306  0.0234
   83MOL0     O11073   9.800   8.848   1.789 -0.8749 -0.5118  0.5212
   83MOL0     C11074   9.669   8.824   1.735  0.1809 -1.1703  0.3729
   83MOL0     C11075   9.638   8.722   1.638  0.6325 -0.2461 -1.2725
   83MOL0     C11076   9.505   8.694   1.606 -0.3752  0.3262  0.2553
   83MOL0     C11077   9.399   8.744   1.680 -1.7114 -1.2769 -0.3875
   83MOL0     O11078   9.270   8.703   1.666 -0.1366 -0.2158  0.6343
   83MOL0     C11079   9.201   8.761   1.555 -0.5261  0.6956 -0.0017
   83MOL0     C11080   9.081   8.671   1.530 -0.5549  0.5232  0.7598
   83MOL0     C11081   9.009   8.694   1.406  0.3916  0.3052  0.9481
   83MOL0     C11082   8.974   8.844   1.386  0.1256 -0.6154 -0.2062
   83MOL0     C11083   8.936   8.881   1.235 -0.1415 -0.2952 -0.6226
   83MOL0     C11084   8.821   8.795   1.185  0.7967  0.7824 -0.3584
   83MOL0     C11085   8.687   8.856   1.239 -0.2912 -0.4011 -0.8524
   83MOL0     C11086   8.570   8.758   1.218  0.0202  0.1283  0.2928
   83MOL0     N11087   8.575   8.637   1.314 -1.2283 -0.4947 -0.1872
   83MOL0     C11088   8.566   8.641   1.454 -0.0925  0.5363  0.6607
   83MOL0     C11089   8.599   8.517   1.501  0.6499 -0.2076 -0.0914
   83MOL0     C11090   8.617   8.465   1.638  0.3012  0.0495  0.7104
   83MOL0     C11091   8.772   8.450   1.681  0.1624 -0.2997  0.2628
   83MOL0     C11092   8.778   8.386   1.820 -1.0293  0.0266 -0.3483
   83MOL0     C11093   8.914   8.334   1.863 -1.4579 -0.3489  1.1360
   83MOL0     O11094   8.893   8.245   1.966 -0.1422 -0.0207 -0.2265
   83MOL0     C11095   9.005   8.198   2.030  0.4735  0.5981 -0.4473
   83MOL0     C11096   9.073   8.083   1.973  0.3166 -0.3498  0.1647
   83MOL0     C11097   9.177   8.032   2.036 -0.2264 -0.8495 -0.3239
   83MOL0     C11098   9.212   8.082   2.168 -0.4882  0.2518  0.6862
   83MOL0     C11099   9.297   8.009   2.261  0.1830  0.0713 -0.2351
   83MOL0     O11100   9.330   8.076   2.378  0.3232 -0.5310 -0.3768
   83MOL0     C11101   9.408   8.010   2.473  0.4473 -0.9387 -0.1713
   83MOL0     C11102   9.382   8.027   2.611 -0.4692  0.1723  0.9981
   83MOL0     C11103   9.452   7.943   2.701  0.3867 -0.2631 -0.0072
   83MOL0     C11104   9.556   7.869   2.660  0.8414  0.4969  0.2839
   83MOL0     O11105   9.620   7.794   2.755 -0.8934  0.7331  0.3784
   83MOL0     C11106   9.681   7.675   2.703 -0.2200  0.4398  0.4764
   83MOL0     C11107   9.685   7.563   2.804 -0.0812 -0.0724  0.9837
   83MOL0     C11108   9.698   7.429   2.723 -0.3459  0.2665 -0.3575
   83MOL0     C11109   9.759   7.331   2.825 -0.8252 -0.9563  0.2345
   83MOL0     C11110   9.811   7.196   2.789 -0.5136  0.3521  0.5982
   83MOL0     C11111   9.732   7.110   2.679 -0.4105 -0.5643  0.3600
   83MOL0     C11112   9.807   6.977   2.637 -0.0797  0.0441  0.5248
   83MOL0     C11113   9.757   6.936   2.495  0.3482  0.7445 -0.4538
   83MOL0    Cl11114   9.580   6.885   2.482  0.1503  0.2050 -0.7708
   83MOL0     C11115   9.599   7.883   2.526 -1.1706 -0.9771  0.0076
   83MOL0     C11116   9.524   7.957   2.430  0.7115 -0.2171 -0.7146
   83MOL0     O11117   9.340   7.893   2.232 -0.6069  0.4864 -0.2805
   83MOL0     C11118   9.158   8.202   2.213  0.0983  0.1514  0.4345
   83MOL0     C11119   9.053   8.260   2.143 -0.6521  0.9030 -0.4950
   83MOL0     N11120   8.611   8.442   1.383 -0.0589  0.2748  0.6918
   83MOL0     N11121   8.579   8.508   1.277 -0.3516 -0.0245  0.1828
   83MOL0     C11122   9.426   8.839   1.773 -0.1172  0.6772  1.0451
   83MOL0     C11123   9.559   8.881   1.803  0.1107 -0.8937  0.2305
   83MOL0     C11124   9.928   8.992   1.940 -0.2263  0.8309 -1.2392
   83MOL0     C11125   9.975   8.868   1.980 -0.5908  0.1768  0.2649
   83MOL0     C11126  10.096   8.857   2.059  0.2420 -0.7125  0.5989
   83MOL0     C11127  10.164   8.972   2.099  0.0887 -0.0050 -0.2030
   83MOL0     O11128  10.261   8.975   2.186 -0.3917 -0.0259  0.7885
   83MOL0     C11129  10.342   8.858   2.210 -0.4506 -0.5270  0.3986
   83MOL0     C11130  10.422   8.877   2.336 -0.4039 -0.3951 -0.2003
   83MOL0     C11131  10.339   8.861   2.461 -0.1998  0.3500  0.3162
   83MOL0     C11132  10.337   8.710   2.509  0.3057 -0.7942  0.2239
   83MOL0     C11133  10.242   8.688   2.622 -0.8409 -0.3130  0.5251
   83MOL0     C11134  10.171   8.668   2.716 -0.2634  0.5699  0.7133
   83MOL0     C11135  10.109   9.095   2.063 -0.4914  0.3554 -0.6477
   83MOL0     C11136   9.992   9.105   1.987 -0.1562 -0.7188  0.8964
   83MOL0     C11137   9.944   9.240   1.946 -0.7531 -0.0932 -0.1780
   83MOL0     H11138   9.725   8.667   1.604  0.8226 -0.3362 -0.6502
   83MOL0     H11139   9.487   8.616   1.533 -2.8671 -0.5383  1.6640
   83MOL0     H11140   9.168   8.860   1.587 -0.2868  0.1745  1.9735
   83MOL0     H11141   9.257   8.771   1.462  1.5772  2.3544  1.3742
   83MOL0     H11142   9.015   8.686   1.617 -1.5363  1.5035 -0.1188
   83MOL0     H11143   9.106   8.565   1.523 -0.6649  0.4174  1.8110
   83MOL0     H11144   8.915   8.638   1.410  0.7876 -0.3372  1.3212
   83MOL0     H11145   9.064   8.655   1.320 -1.1052 -0.7637  0.4407
   83MOL0     H11146   8.893   8.874   1.453  3.1985  3.0628  2.3584
   83MOL0     H11147   9.056   8.904   1.426 -0.3354 -1.4849  2.2691
   83MOL0     H11148   8.897   8.983   1.222 -2.3191 -1.3207 -3.2204
   83MOL0     H11149   9.028   8.869   1.177 -1.0679 -0.1880 -2.1649
   83MOL0     H11150   8.826   8.789   1.076  2.9414  1.7148 -0.3604
   83MOL0     H11151   8.831   8.695   1.227  1.5497  1.0748  0.1944
   83MOL0     H11152   8.656   8.952   1.197 -1.3135 -0.9771 -1.4359
   83MOL0     H11153   8.704   8.861   1.347  3.2099 -2.7182 -1.1329
   83MOL0     H11154   8.477   8.814   1.229 -1.3727 -1.6080 -2.0248
   83MOL0     H11155   8.575   8.722   1.115  3.3243  0.2318  0.2812
   83MOL0     H11156   8.557   8.732   1.513  1.1476  1.9664 -1.2357
   83MOL0     H11157   8.558   8.516   1.714  0.3341  0.3258  0.5526
   83MOL0     H11158   8.585   8.360   1.632  0.5457  0.0399 -2.0081
   83MOL0     H11159   8.830   8.384   1.616  1.0846  0.8634 -0.1359
   83MOL0     H11160   8.811   8.551   1.697  1.4114 -0.6985 -0.1539
   83MOL0     H11161   8.714   8.297   1.828  2.9337 -3.0651 -0.3853
   83MOL0     H11162   8.753   8.466   1.890 -1.1907  0.6825 -1.1370
   83MOL0     H11163   8.976   8.418   1.894 -1.0466  0.3158 -1.2466
   83MOL0     H11164   8.956   8.285   1.774 -1.8227  1.7952 -0.2725
   83MOL0     H11165   9.044   8.042   1.877 -0.3415 -0.0911  0.2450
   83MOL0     H11166   9.218   7.938   2.000  1.3171 -0.3023 -0.0650
   83MOL0     H11167   9.299   8.092   2.637  1.0119  2.4742  0.2712
   83MOL0     H11168   9.415   7.925   2.801 -1.0574 -0.1806 -0.5029
   83MOL0     H11169   9.610   7.646   2.624  0.8938  2.1519 -1.2371
   83MOL0     H11170   9.780   7.684   2.658 -1.2388  0.5396 -1.9067
   83MOL0     H11171   9.771   7.584   2.869  1.9591 -0.5344 -1.3946
   83MOL0     H11172   9.594   7.580   2.862 -1.5175  2.6659 -1.7212
   83MOL0     H11173   9.601   7.394   2.686 -0.2558 -0.2040 -0.1539
   83MOL0     H11174   9.761   7.458   2.638 -0.5552  3.9835  0.5525
   83MOL0     H11175   9.690   7.330   2.910  1.0399  0.1908  1.8475
   83MOL0     H11176   9.846   7.373   2.876 -1.5982 -1.6083  2.1580
   83MOL0     H11177   9.818   7.135   2.880 -0.6116  1.0651  1.0921
   83MOL0     H11178   9.913   7.215   2.754 -0.0855  3.7139  3.2219
   83MOL0     H11179   9.639   7.080   2.728  0.5740 -1.9781  1.4471
   83MOL0     H11180   9.708   7.178   2.597 -0.8822 -2.4353 -1.1019
   83MOL0     H11181   9.777   6.902   2.712  0.5020 -2.2585 -1.4293
   83MOL0     H11182   9.916   6.980   2.628 -0.0757  1.2139  0.7902
   83MOL0     H11183   9.788   7.014   2.425  3.1792 -0.3905 -0.6088
   83MOL0     H11184   9.809   6.845   2.464 -2.5125 -0.3506 -2.5130
   83MOL0     H11185   9.690   7.834   2.493 -2.4730 -2.5792 -1.3785
   83MOL0     H11186   9.555   7.964   2.326 -1.2485 -0.4260 -1.3468
   83MOL0     H11187   9.203   8.250   2.299  0.7499 -0.0993  0.2391
   83MOL0     H11188   8.996   8.342   2.185  0.2941  0.4366  1.8395
   83MOL0     H11189   9.348   8.886   1.832 -0.4233 -1.0127  2.0303
   83MOL0     H11190   9.577   8.968   1.866 -1.2665 -0.3516 -0.0920
   83MOL0     H11191   9.928   8.773   1.959 -1.7630  0.9274 -0.6399
   83MOL0     H11192  10.110   8.764   2.112 -3.2104 -1.4572  0.4110
   83MOL0     H11193  10.410   8.838   2.127  2.0735  4.2588  0.9985
   83MOL0     H11194  10.288   8.762   2.212 -0.3687 -0.5711  1.7981
   83MOL0     H11195  10.470   8.975   2.337  0.7488 -0.9509  0.4198
   83MOL0     H11196  10.499   8.801   2.349  0.6269  0.6159 -0.2920
   83MOL0     H11197  10.236   8.891   2.442 -0.6372 -2.6780 -3.2105
   83MOL0     H11198  10.376   8.933   2.535 -2.1804  0.6810  1.0229
   83MOL0     H11199  10.296   8.658   2.421 -0.7051  1.0654 -0.4515
   83MOL0     H11200  10.441   8.681   2.528  0.8272  2.3765  3.1834
   83MOL0     H11201  10.110   8.647   2.802  0.3541 -0.5674  0.9064
   83MOL0     H11202  10.162   9.182   2.102 -1.2027 -0.1018  1.4324
   83MOL0     H11203   9.839   9.252   1.971 -0.6285  0.3790  0.1282
   83MOL0     H11204  10.000   9.327   1.982  0.8774 -1.2550  0.2309
   83MOL0     H11205   9.975   9.244   1.841  2.7813  0.4987  0.7456
   84MOL0     O11206   1.951   6.569   1.369  0.0860  0.4976 -0.4576
   84MOL0     C11207   2.063   6.611   1.399  0.8747 -0.0640 -0.1485
   84MOL0     O11208   2.140   6.693   1.327  0.1772 -0.3208 -0.0209
   84MOL0     C11209   2.097   6.776   1.234 -0.6639  0.1191  0.0264
   84MOL0     C11210   2.204   6.814   1.143 -0.2360  0.0882 -0.7760
   84MOL0     C11211   2.162   6.895   1.039 -0.1016 -0.2979  0.2044
   84MOL0     C11212   2.027   6.932   1.013  0.4457 -0.2973 -0.2514
   84MOL0     O11213   1.975   7.012   0.919 -0.0250 -0.9414 -0.3084
   84MOL0     C11214   2.043   7.023   0.800 -0.1049 -0.5997  0.1874
   84MOL0     C11215   1.961   7.077   0.682  0.5198 -0.5250 -0.7264
   84MOL0     C11216   1.895   7.214   0.718  0.2122  0.6172 -0.3120
   84MOL0     C11217   1.800   7.248   0.606 -0.0714  0.0439  0.5950
   84MOL0     C11218   1.743   7.397   0.619 -0.8359  0.3882 -0.6222
   84MOL0     C11219   1.836   7.495   0.555  0.1816 -0.1159 -1.1969
   84MOL0     C11220   1.844   7.489   0.397  0.3772  0.3920  0.3477
   84MOL0     C11221   1.889   7.623   0.332 -0.1651 -0.2196 -0.3557
   84MOL0     N11222   1.866   7.635   0.185 -0.5227  0.3894  0.4751
   84MOL0     C11223   1.879   7.755   0.122 -0.2525  0.4392  0.6012
   84MOL0     C11224   1.851   7.727  -0.005  0.2550 -0.5568 -0.3968
   84MOL0     C11225   1.823   7.828  -0.118  0.1188 -0.2122 -0.2377
   84MOL0     C11226   1.940   7.857  -0.211  0.6945 -0.1395  0.6033
   84MOL0     C11227   2.074   7.880  -0.145 -0.7247  0.0473 -0.1116
   84MOL0     C11228   2.195   7.891  -0.249 -0.1051  0.7226 -0.3632
   84MOL0     O11229   2.170   7.986  -0.347 -0.6924 -0.1453  0.7873
   84MOL0     C11230   2.151   8.118  -0.321  0.3577  0.3631 -0.7850
   84MOL0     C11231   2.083   8.198  -0.416 -0.2541 -0.2146  0.1145
   84MOL0     C11232   2.076   8.331  -0.390 -0.0311 -0.3314 -0.0241
   84MOL0     C11233   2.140   8.398  -0.280  0.5335 -1.0347 -0.5577
   84MOL0     C11234   2.130   8.544  -0.262  0.0954  0.0141  0.6677
   84MOL0     O11235   2.191   8.588  -0.155  0.7731  0.4311  1.0172
   84MOL0     C11236   2.156   8.714  -0.114  0.1188 -0.5924 -0.4385
   84MOL0     C11237   2.053   8.730  -0.031  0.6061  0.3290 -0.0275
   84MOL0     C11238   2.019   8.857   0.011  0.5053  1.4054  0.2797
   84MOL0     C11239   2.073   8.967  -0.043 -0.3832 -0.1444  0.3474
   84MOL0     O11240   2.021   9.088   0.003  0.5545 -0.3187  0.3256
   84MOL0     C11241   2.066   9.215  -0.048  0.3007 -0.4678  0.1790
   84MOL0     C11242   2.010   9.319   0.048 -0.6246 -0.4151  0.6272
   84MOL0     C11243   1.855   9.338   0.007  0.8423 -0.6498  0.3838
   84MOL0     C11244   1.776   9.398   0.132 -1.5016  0.1033  0.4054
   84MOL0     C11245   1.623   9.403   0.126  1.5512  0.0028  0.2889
   84MOL0     C11246   1.551   9.265   0.117 -0.6236 -0.2957 -0.6070
   84MOL0     C11247   1.407   9.265   0.055 -0.1522 -0.4557  0.3767
   84MOL0     C11248   1.329   9.148   0.093  0.4951 -0.3805 -1.0703
   84MOL0    Cl11249   1.157   9.179   0.081 -0.2183 -0.5609 -0.1538
   84MOL0     C11250   2.185   8.956  -0.130  0.4549  0.0866 -0.1032
   84MOL0     C11251   2.232   8.825  -0.166 -0.7110 -0.5665  1.0885
   84MOL0     O11252   2.085   8.611  -0.348  0.4771  0.3666 -0.3488
   84MOL0     C11253   2.209   8.322  -0.192 -0.0437 -0.5689 -0.2508
   84MOL0     C11254   2.211   8.179  -0.209  0.1777 -1.3580  0.0243
   84MOL0     N11255   1.828   7.587  -0.019 -0.2962 -1.0250  0.5459
   84MOL0     N11256   1.837   7.534   0.095  0.0335 -0.0214  0.4887
   84MOL0     C11257   1.928   6.912   1.111 -0.7954  0.5870 -0.3417
   84MOL0     C11258   1.962   6.824   1.222  1.1963 -0.9645 -0.1749
   84MOL0     C11259   2.110   6.581   1.540  0.1912  0.5986 -0.5174
   84MOL0     C11260   2.220   6.646   1.592 -1.0501 -0.5396 -0.7304
   84MOL0     C11261   2.280   6.613   1.718 -0.2657 -2.0573  0.4815
   84MOL0     C11262   2.235   6.509   1.788  0.1453  0.4401 -0.4408
   84MOL0     O11263   2.285   6.471   1.910 -0.0028 -0.0714  0.0659
   84MOL0     C11264   2.310   6.559   2.018 -0.3492 -0.6068  0.3462
   84MOL0     C11265   2.330   6.481   2.148  0.2192  1.6102 -0.6861
   84MOL0     C11266   2.214   6.378   2.160  0.0582 -0.1768 -0.1215
   84MOL0     C11267   2.256   6.266   2.250 -0.3822 -0.2119  0.0237
   84MOL0     C11268   2.135   6.211   2.316 -1.5456  0.2095 -0.3461
   84MOL0     C11269   2.048   6.156   2.379  0.3846 -0.5194  0.3517
   84MOL0     C11270   2.133   6.435   1.734 -0.2357  0.3082 -0.0046
   84MOL0     C11271   2.071   6.470   1.606  0.5325  0.5036  0.5359
   84MOL0     C11272   1.957   6.362   1.578  0.1537 -0.5654  0.4864
   84MOL0     H11273   2.306   6.778   1.153  0.0070  0.3764 -2.1357
   84MOL0     H11274   2.242   6.921   0.970  1.5183 -0.5642  1.9241
   84MOL0     H11275   2.131   7.086   0.819 -1.2536  0.7135  1.3700
   84MOL0     H11276   2.066   6.919   0.778 -0.3930 -1.6879  4.2197
   84MOL0     H11277   1.891   6.996   0.660  0.2194 -1.0534  1.8750
   84MOL0     H11278   2.028   7.101   0.599  2.0637 -3.2535 -0.4050
   84MOL0     H11279   1.967   7.294   0.735 -0.9387  0.9257  4.4727
   84MOL0     H11280   1.837   7.214   0.811  0.2568  2.3162 -0.2652
   84MOL0     H11281   1.856   7.233   0.513  2.1245  1.2965  1.6543
   84MOL0     H11282   1.720   7.173   0.614  1.7373 -2.2336 -1.1517
   84MOL0     H11283   1.642   7.411   0.581 -1.0696  2.7742  0.7201
   84MOL0     H11284   1.732   7.415   0.727  1.1057  0.8752 -0.4708
   84MOL0     H11285   1.793   7.594   0.577 -0.3994 -0.8949  1.4272
   84MOL0     H11286   1.935   7.489   0.601 -0.5857  2.1210  1.0098
   84MOL0     H11287   1.755   7.459   0.342  1.1581 -0.0832 -0.6845
   84MOL0     H11288   1.920   7.414   0.374 -2.1928 -2.2440  0.0306
   84MOL0     H11289   1.826   7.707   0.362  0.9222  0.2690  0.6247
   84MOL0     H11290   1.996   7.639   0.349 -0.4304  2.4024 -0.7408
   84MOL0     H11291   1.900   7.853   0.162 -1.4297 -0.0294  2.5369
   84MOL0     H11292   1.738   7.785  -0.174 -0.1057  0.6854 -0.5996
   84MOL0     H11293   1.782   7.919  -0.074 -2.1788 -0.8354 -0.8990
   84MOL0     H11294   1.943   7.770  -0.276  0.1262  1.0292 -1.0543
   84MOL0     H11295   1.917   7.948  -0.269  1.0609  0.8243  1.9216
   84MOL0     H11296   2.098   7.805  -0.069  1.3675  2.4308  1.7847
   84MOL0     H11297   2.069   7.982  -0.106 -1.4626  0.6975 -1.8197
   84MOL0     H11298   2.216   7.795  -0.297  0.8772 -1.1605  3.4628
   84MOL0     H11299   2.287   7.919  -0.198 -1.1810  3.5146  0.2174
   84MOL0     H11300   2.039   8.146  -0.500 -0.1759  0.1225 -0.1398
   84MOL0     H11301   2.014   8.392  -0.455  1.8820  0.3960 -1.2375
   84MOL0     H11302   2.002   8.638  -0.004  3.9907 -1.7152 -0.0215
   84MOL0     H11303   1.934   8.860   0.078 -1.7973  1.6975 -2.4579
   84MOL0     H11304   2.175   9.221  -0.050  0.2815  0.3855  1.0440
   84MOL0     H11305   2.039   9.233  -0.152 -1.0904 -1.1544  0.3965
   84MOL0     H11306   2.021   9.297   0.154  1.2371  1.7230  0.9435
   84MOL0     H11307   2.070   9.407   0.024  1.1687 -1.9220 -0.7283
   84MOL0     H11308   1.848   9.410  -0.076 -3.6057  0.4072  1.4469
   84MOL0     H11309   1.811   9.242  -0.022 -0.4357 -1.3390  4.1258
   84MOL0     H11310   1.828   9.495   0.138  3.1277 -1.9812 -1.2294
   84MOL0     H11311   1.818   9.352   0.222 -0.4723  0.2424  0.0148
   84MOL0     H11312   1.593   9.472   0.046  0.0880  0.6117  1.3186
   84MOL0     H11313   1.581   9.443   0.219 -1.5947 -0.0642 -0.9949
   84MOL0     H11314   1.609   9.195   0.056 -1.0754  1.1305 -2.8157
   84MOL0     H11315   1.532   9.234   0.220  0.1212  3.6147  0.9202
   84MOL0     H11316   1.416   9.257  -0.054  4.6381  1.9380  0.3525
   84MOL0     H11317   1.354   9.357   0.083 -1.8059 -1.0135 -0.7131
   84MOL0     H11318   1.349   9.064   0.025 -1.0202  0.4071 -2.5642
   84MOL0     H11319   1.354   9.109   0.192 -0.7625 -1.3390 -1.1177
   84MOL0     H11320   2.247   9.041  -0.158  0.8643 -0.2936 -0.3723
   84MOL0     H11321   2.317   8.821  -0.234 -1.3544 -4.1878  0.2785
   84MOL0     H11322   2.266   8.359  -0.108  1.4665  0.8757 -1.8300
   84MOL0     H11323   2.262   8.127  -0.128 -0.3074  0.5843  1.6518
   84MOL0     H11324   1.826   6.946   1.103 -0.5413  1.9361  1.3727
   84MOL0     H11325   1.884   6.795   1.291  0.6004  2.6290  0.8995
   84MOL0     H11326   2.249   6.732   1.532 -2.1752  0.8873  0.6622
   84MOL0     H11327   2.358   6.677   1.757  0.0029 -1.7483 -0.5303
   84MOL0     H11328   2.220   6.620   2.030 -0.2218 -0.0151 -1.4750
   84MOL0     H11329   2.394   6.628   2.008 -2.5810  2.5201  1.2492
   84MOL0     H11330   2.337   6.555   2.228 -0.9311  2.7684 -1.6026
   84MOL0     H11331   2.422   6.422   2.141  0.5454  2.0591 -0.2202
   84MOL0     H11332   2.184   6.335   2.064 -0.1396  1.6816 -0.9269
   84MOL0     H11333   2.129   6.435   2.199 -0.0806 -1.3886  1.4705
   84MOL0     H11334   2.317   6.197   2.191 -1.6045 -1.5776  0.3094
   84MOL0     H11335   2.320   6.299   2.332  1.3775 -0.1389 -1.3239
   84MOL0     H11336   1.962   6.100   2.412  0.2331 -1.3585 -1.3468
   84MOL0     H11337   2.100   6.348   1.789  1.1137  0.5232  1.2271
   84MOL0     H11338   1.859   6.411   1.588  1.2445  2.0274 -0.6520
   84MOL0     H11339   1.961   6.327   1.474  0.9371  2.6614 -0.7004
   84MOL0     H11340   1.948   6.271   1.636 -4.7295 -0.4890  0.3074
   85MOL0     O11341   8.497   0.596   7.054  0.2061 -0.2236  0.0580
   85MOL0     C11342   8.398   0.529   7.074 -0.3598 -0.6598 -1.0742
   85MOL0     O11343   8.316   0.471   6.981  0.1252  0.6110  0.3769
   85MOL0     C11344   8.350   0.455   6.848 -0.0662 -0.0139  0.2919
   85MOL0     C11345   8.486   0.451   6.806  1.2427 -0.0627 -0.1412
   85MOL0     C11346   8.509   0.441   6.667  0.4167 -0.4399 -0.5100
   85MOL0     C11347   8.406   0.419   6.577 -1.5445  0.4372 -1.2807
   85MOL0     O11348   8.423   0.424   6.441  0.1025  1.1218  0.2963
   85MOL0     C11349   8.543   0.362   6.384  0.3616 -0.1276 -0.5786
   85MOL0     C11350   8.516   0.210   6.393 -0.7854  0.3956  0.2836
   85MOL0     C11351   8.386   0.151   6.330 -0.1806 -0.1067  0.0531
   85MOL0     C11352   8.382  -0.001   6.333  0.1195  1.1050  1.0329
   85MOL0     C11353   8.277  -0.077   6.252 -0.6394 -1.1226 -0.2063
   85MOL0     C11354   8.137  -0.030   6.286 -0.2187 -0.6173  0.0019
   85MOL0     C11355   8.026  -0.105   6.223 -0.2351 -0.0889 -0.6127
   85MOL0     C11356   8.043  -0.147   6.069 -0.1205  0.3195  1.2344
   85MOL0     N11357   7.914  -0.181   6.012  0.9035  0.4407 -0.5047
   85MOL0     C11358   7.886  -0.309   5.960  0.9413 -1.0749 -0.0894
   85MOL0     C11359   7.767  -0.291   5.908 -0.3126  0.4399  1.2114
   85MOL0     C11360   7.694  -0.393   5.828  0.6428 -0.4220  0.4612
   85MOL0     C11361   7.733  -0.397   5.683  0.2575 -1.2439 -0.1633
   85MOL0     C11362   7.645  -0.503   5.609 -0.8941 -0.9647 -0.4252
   85MOL0     C11363   7.579  -0.459   5.476 -0.0491 -0.7748 -0.4106
   85MOL0     O11364   7.670  -0.402   5.381 -0.2130 -0.3091 -0.1639
   85MOL0     C11365   7.695  -0.457   5.261 -0.7789  0.1269  0.1442
   85MOL0     C11366   7.799  -0.390   5.191 -1.2578 -0.0767 -0.4747
   85MOL0     C11367   7.843  -0.439   5.071 -0.2869 -0.1822 -0.4057
   85MOL0     C11368   7.786  -0.558   5.012  1.2463 -0.7841  0.0373
   85MOL0     C11369   7.823  -0.605   4.874  0.4209  0.0115 -0.3804
   85MOL0     O11370   7.748  -0.706   4.817  0.0220 -0.7949  0.0828
   85MOL0     C11371   7.778  -0.747   4.686  0.2928  0.1085 -0.1437
   85MOL0     C11372   7.818  -0.672   4.571 -0.9853 -0.5023  1.4905
   85MOL0     C11373   7.837  -0.742   4.443  0.8419  0.1658 -0.3524
   85MOL0     C11374   7.791  -0.871   4.429  0.5068  0.1124  1.6779
   85MOL0     O11375   7.791  -0.941   4.314  0.0969  0.6137 -0.2467
   85MOL0     C11376   7.699  -0.896   4.216  1.8835 -0.3342  0.8106
   85MOL0     C11377   7.551  -0.911   4.232  0.1134 -0.1701 -0.1522
   85MOL0     C11378   7.497  -1.042   4.272 -0.3090 -0.2469  0.7452
   85MOL0     C11379   7.380  -1.014   4.360  0.3160 -0.7802 -1.0522
   85MOL0     C11380   7.257  -0.949   4.288 -0.1679 -1.1042 -0.5628
   85MOL0     C11381   7.128  -0.977   4.373  0.0301 -0.1967  0.6717
   85MOL0     C11382   7.067  -1.107   4.318  1.0115  0.1822 -0.1332
   85MOL0     C11383   6.954  -1.150   4.403  0.2323  0.3991  0.3719
   85MOL0    Cl11384   6.820  -1.042   4.379  0.0869  0.1773  0.2882
   85MOL0     C11385   7.742  -0.948   4.536 -0.1781  0.6839 -0.5178
   85MOL0     C11386   7.741  -0.885   4.659 -0.2799 -0.2345 -0.0514
   85MOL0     O11387   7.923  -0.550   4.833  0.3320 -0.3834 -0.1245
   85MOL0     C11388   7.676  -0.614   5.072 -0.4073  0.5452  0.0245
   85MOL0     C11389   7.632  -0.570   5.202 -0.7125  0.0287 -0.4735
   85MOL0     N11390   7.731  -0.154   5.917  0.7090 -0.1177  0.6299
   85MOL0     N11391   7.820  -0.090   5.985  0.1457 -0.4951 -0.0168
   85MOL0     C11392   8.277   0.420   6.620  0.3914 -0.0621  0.2669
   85MOL0     C11393   8.237   0.434   6.758 -0.1414  0.4576  0.3549
   85MOL0     C11394   8.366   0.490   7.222 -0.6089  0.0476  0.0552
   85MOL0     C11395   8.420   0.566   7.319  0.4376 -0.0595  0.2078
   85MOL0     C11396   8.392   0.552   7.451 -0.2423  0.4031 -0.1904
   85MOL0     C11397   8.301   0.454   7.483  0.4621  1.0024  1.1339
   85MOL0     O11398   8.256   0.456   7.617  0.0624 -0.2302  0.3516
   85MOL0     C11399   8.327   0.372   7.704 -0.3768  0.9637 -0.2950
   85MOL0     C11400   8.225   0.267   7.752 -0.3481 -0.5314  0.4187
   85MOL0     C11401   8.158   0.318   7.874  0.2043  0.3690  1.0155
   85MOL0     C11402   8.017   0.257   7.889  0.4370  0.5051 -0.2568
   85MOL0     C11403   8.025   0.126   7.957  0.5965  0.0504  0.1528
   85MOL0     C11404   8.031   0.012   8.003  0.2814 -1.3892  0.4507
   85MOL0     C11405   8.248   0.365   7.388 -0.1883  0.3843 -0.5741
   85MOL0     C11406   8.282   0.382   7.255 -0.5748 -0.1199 -0.4908
   85MOL0     C11407   8.228   0.279   7.159  0.7903  0.4650  0.6552
   85MOL0     H11408   8.569   0.472   6.872  0.6888 -0.8871  0.8464
   85MOL0     H11409   8.612   0.458   6.635 -0.3922 -2.0321 -4.6006
   85MOL0     H11410   8.545   0.389   6.278 -1.3877  2.2452 -0.0819
   85MOL0     H11411   8.632   0.394   6.438 -0.9701  0.0879  1.5922
   85MOL0     H11412   8.509   0.172   6.495 -1.0045 -1.5486 -0.4141
   85MOL0     H11413   8.598   0.154   6.347  2.0984  2.9727  1.9131
   85MOL0     H11414   8.376   0.191   6.229  2.2744 -1.0177 -0.6322
   85MOL0     H11415   8.304   0.184   6.395  0.1656 -0.7293  0.8228
   85MOL0     H11416   8.477  -0.045   6.300 -1.6541 -1.4129 -1.1685
   85MOL0     H11417   8.382  -0.046   6.432  2.3947 -4.3733 -1.0937
   85MOL0     H11418   8.283  -0.065   6.144 -0.8269  1.0143 -0.0276
   85MOL0     H11419   8.298  -0.181   6.279  1.5759 -0.2598  1.8380
   85MOL0     H11420   8.116  -0.016   6.393 -1.6384  0.2314 -0.3669
   85MOL0     H11421   8.131   0.068   6.239 -0.2970 -0.2803  0.6983
   85MOL0     H11422   7.937  -0.043   6.237  0.6250  0.6226  2.3631
   85MOL0     H11423   8.016  -0.200   6.277  0.1674  0.7092  0.9216
   85MOL0     H11424   8.089  -0.070   6.006  0.1231 -2.0998 -1.7712
   85MOL0     H11425   8.109  -0.234   6.063 -1.0099 -0.2571 -2.1441
   85MOL0     H11426   7.949  -0.395   5.941  1.9395 -0.4252  0.1973
   85MOL0     H11427   7.708  -0.488   5.881 -1.3800 -0.3647  1.2014
   85MOL0     H11428   7.588  -0.367   5.825  1.0581  1.2980 -0.5648
   85MOL0     H11429   7.713  -0.300   5.635 -2.6100 -1.1368  1.0607
   85MOL0     H11430   7.839  -0.420   5.675  0.6552 -0.3598  1.9768
   85MOL0     H11431   7.569  -0.546   5.674 -1.4008  0.4739 -0.0471
   85MOL0     H11432   7.712  -0.587   5.588 -0.9739 -1.3341  0.7361
   85MOL0     H11433   7.515  -0.378   5.512  2.9819  2.4295 -1.6823
   85MOL0     H11434   7.530  -0.551   5.443  0.0174 -0.9880  0.0732
   85MOL0     H11435   7.855  -0.308   5.234 -2.3165  0.8669 -0.8464
   85MOL0     H11436   7.924  -0.388   5.020  0.7836 -0.2106  1.1987
   85MOL0     H11437   7.838  -0.566   4.582  0.8305 -0.7690  1.0804
   85MOL0     H11438   7.873  -0.687   4.357  0.1315 -0.9991 -1.4143
   85MOL0     H11439   7.719  -0.793   4.187  0.6876 -0.4220 -0.4379
   85MOL0     H11440   7.715  -0.956   4.126 -0.5344 -1.7235  1.2029
   85MOL0     H11441   7.529  -0.831   4.304  2.8800 -0.5754  1.2502
   85MOL0     H11442   7.511  -0.882   4.134  4.3345 -0.9140 -2.3209
   85MOL0     H11443   7.481  -1.100   4.181  1.8044 -1.9436  1.3720
   85MOL0     H11444   7.570  -1.101   4.329  1.6448 -1.0549 -2.3592
   85MOL0     H11445   7.405  -0.954   4.448 -0.1133 -1.2964 -0.5663
   85MOL0     H11446   7.352  -1.114   4.396  1.4923 -1.0435 -0.8125
   85MOL0     H11447   7.252  -0.993   4.189 -1.1130 -0.0128 -1.0242
   85MOL0     H11448   7.271  -0.842   4.274  2.4332 -1.6553 -2.9065
   85MOL0     H11449   7.159  -0.977   4.478  2.4833 -3.7550  0.1380
   85MOL0     H11450   7.059  -0.896   4.347  0.8886 -0.2059 -1.8739
   85MOL0     H11451   7.142  -1.186   4.320  1.0162  0.0752 -2.5778
   85MOL0     H11452   7.027  -1.105   4.217  1.6793 -5.5133 -0.8334
   85MOL0     H11453   6.935  -1.252   4.371  3.1970  0.6940 -2.9942
   85MOL0     H11454   6.989  -1.152   4.507  0.0216  1.7594  0.4914
   85MOL0     H11455   7.727  -1.054   4.518  1.5833  0.7616 -3.0472
   85MOL0     H11456   7.702  -0.938   4.745  1.3166 -0.1872  0.7396
   85MOL0     H11457   7.626  -0.701   5.031  1.7629  1.0108 -4.1502
   85MOL0     H11458   7.549  -0.620   5.250  0.8739 -3.1522 -0.7688
   85MOL0     H11459   8.200   0.385   6.551  0.6129 -2.6733  1.2295
   85MOL0     H11460   8.138   0.423   6.801  1.2744 -1.1940  3.5536
   85MOL0     H11461   8.483   0.645   7.283  0.7879 -0.5728 -0.3199
   85MOL0     H11462   8.420   0.628   7.523 -1.1077  3.1818 -2.6211
   85MOL0     H11463   8.382   0.425   7.782 -1.0626  1.8392 -0.4002
   85MOL0     H11464   8.409   0.330   7.645 -0.4567 -2.8387  1.9293
   85MOL0     H11465   8.262   0.170   7.787  1.4339  1.2490  3.9532
   85MOL0     H11466   8.151   0.246   7.674 -1.1591 -1.5577  1.4299
   85MOL0     H11467   8.143   0.426   7.865  0.2594  0.4276  1.5809
   85MOL0     H11468   8.225   0.311   7.960 -0.0017  5.2724  1.8592
   85MOL0     H11469   7.953   0.316   7.955 -3.0895 -3.5151  0.3353
   85MOL0     H11470   7.961   0.260   7.795  0.2290  1.6692 -0.1055
   85MOL0     H11471   8.024  -0.085   8.047  2.1757 -0.9076  1.9329
   85MOL0     H11472   8.177   0.289   7.418 -0.5118 -0.3626 -3.0182
   85MOL0     H11473   8.176   0.196   7.207 -0.3443  0.5824 -0.3432
   85MOL0     H11474   8.153   0.321   7.091  0.1350 -0.2061  0.9476
   85MOL0     H11475   8.308   0.239   7.097  0.2558 -1.0031  0.8703
   86MOL0     O11476  10.350   5.916   7.368  0.3745  0.1813  0.3997
   86MOL0     C11477  10.337   5.870   7.252  0.5372 -0.2338 -0.2923
   86MOL0     O11478  10.435   5.866   7.161 -1.0881 -1.2190 -0.2663
   86MOL0     C11479  10.552   5.933   7.189 -0.3846  0.2354 -0.0302
   86MOL0     C11480  10.675   5.871   7.176 -0.3667  0.5156  0.1597
   86MOL0     C11481  10.799   5.932   7.194  0.5017 -0.7518  0.2903
   86MOL0     C11482  10.809   6.065   7.226  0.2125 -1.1535  0.3492
   86MOL0     O11483  10.930   6.124   7.219 -0.4427 -0.0551  0.9350
   86MOL0     C11484  10.964   6.214   7.331  0.4203  0.0420 -0.7827
   86MOL0     C11485  11.122   6.238   7.311  0.2230  0.4678 -0.3803
   86MOL0     C11486  11.173   6.303   7.436  0.1493 -0.1276  0.6212
   86MOL0     C11487  11.121   6.449   7.450  0.5108 -0.1975 -0.0923
   86MOL0     C11488  11.162   6.503   7.588  0.7288 -0.0125  0.3990
   86MOL0     C11489  11.111   6.646   7.614 -1.6599 -0.2493  0.0429
   86MOL0     C11490  11.198   6.704   7.729 -0.2504 -0.4481 -0.3995
   86MOL0     C11491  11.144   6.841   7.763  0.4024 -0.2105 -0.0115
   86MOL0     N11492  11.235   6.916   7.841 -0.5677 -0.2589 -0.5070
   86MOL0     C11493  11.285   6.896   7.965 -1.1144  0.4403  0.7648
   86MOL0     C11494  11.361   7.004   7.997  0.2396 -0.5840 -0.7414
   86MOL0     C11495  11.428   7.019   8.127 -0.2498  0.4497  0.6243
   86MOL0     C11496  11.572   7.056   8.099 -0.6687 -0.4693  0.3622
   86MOL0     C11497  11.678   7.008   8.200 -0.4521 -0.4315  0.5045
   86MOL0     C11498  11.657   7.087   8.329  0.4015  0.1314  0.7830
   86MOL0     O11499  11.656   7.227   8.295 -0.0654 -0.4573 -0.3651
   86MOL0     C11500  11.685   7.318   8.398 -0.3983 -1.0126  0.0269
   86MOL0     C11501  11.729   7.291   8.530  0.8651 -0.0915  0.4914
   86MOL0     C11502  11.762   7.393   8.614  0.4734 -0.1140 -0.1507
   86MOL0     C11503  11.774   7.528   8.578  0.0188 -0.0765  0.5275
   86MOL0     C11504  11.832   7.629   8.670 -0.7450  0.3531 -0.1328
   86MOL0     O11505  11.896   7.741   8.619  0.1323  0.3734  0.1938
   86MOL0     C11506  11.968   7.814   8.719 -0.4618  0.3476  0.2829
   86MOL0     C11507  12.087   7.751   8.769  0.5664 -0.2971 -0.5792
   86MOL0     C11508  12.163   7.824   8.867 -0.0517  0.3440  0.2961
   86MOL0     C11509  12.122   7.952   8.904 -0.4100 -1.1138 -0.0680
   86MOL0     O11510  12.190   8.039   8.987 -0.4380 -0.9759  0.7007
   86MOL0     C11511  12.328   8.002   9.020  0.3218 -0.8833  0.2900
   86MOL0     C11512  12.390   8.112   9.110  0.3680 -0.0638  0.5566
   86MOL0     C11513  12.375   8.255   9.054 -0.6341  0.2963  0.9074
   86MOL0     C11514  12.450   8.297   8.916 -0.7388  0.3412  0.2718
   86MOL0     C11515  12.391   8.430   8.858 -1.4476  0.0897 -1.0105
   86MOL0     C11516  12.476   8.478   8.739 -0.2218  0.8382  0.1171
   86MOL0     C11517  12.410   8.592   8.656  0.1721  0.1923 -0.2380
   86MOL0     C11518  12.498   8.647   8.536  0.4640 -0.1430 -0.3227
   86MOL0    Cl11519  12.538   8.526   8.407 -0.1076 -0.0041 -0.2658
   86MOL0     C11520  12.002   8.010   8.862  0.3626 -0.6450  0.0022
   86MOL0     C11521  11.931   7.941   8.758  0.6614 -0.0718  0.0548
   86MOL0     O11522  11.835   7.597   8.790  0.3193 -0.1426 -1.0351
   86MOL0     C11523  11.737   7.556   8.444 -0.4766  0.4827 -0.6046
   86MOL0     C11524  11.701   7.456   8.348  0.1323  0.0839 -0.5932
   86MOL0     N11525  11.358   7.089   7.884  0.4025  0.7255  0.7772
   86MOL0     N11526  11.293   7.021   7.792 -0.4672 -0.6025  0.4314
   86MOL0     C11527  10.685   6.129   7.256  0.3426  0.0985 -0.5683
   86MOL0     C11528  10.559   6.063   7.241 -0.2115  1.4797 -0.1256
   86MOL0     C11529  10.198   5.829   7.209  0.2539 -0.6811 -0.0494
   86MOL0     C11530  10.181   5.787   7.077  0.9233  0.0344 -0.2263
   86MOL0     C11531  10.057   5.740   7.027  0.0893  0.9097 -0.9156
   86MOL0     C11532   9.949   5.730   7.111 -0.7279 -0.4967  0.1522
   86MOL0     O11533   9.834   5.668   7.070 -0.4228 -0.8683 -0.3429
   86MOL0     C11534   9.764   5.728   6.956 -0.0998  0.1823  0.1257
   86MOL0     C11535   9.643   5.805   7.002  0.0598 -0.5891 -0.9689
   86MOL0     C11536   9.647   5.954   6.983 -0.0124 -0.6856  0.7293
   86MOL0     C11537   9.515   6.014   7.052 -0.4788  0.4725 -0.5530
   86MOL0     C11538   9.401   6.020   6.956 -0.5276 -0.8943 -0.0378
   86MOL0     C11539   9.297   6.051   6.884  0.1795 -0.1916 -0.7247
   86MOL0     C11540   9.961   5.770   7.239 -0.0404 -0.7435  0.4214
   86MOL0     C11541  10.078   5.828   7.292  0.8884  0.1988 -0.5012
   86MOL0     C11542  10.073   5.869   7.438  1.6587  0.0495  0.5521
   86MOL0     H11543  10.670   5.769   7.139 -3.1408 -0.6365  3.1681
   86MOL0     H11544  10.888   5.878   7.163 -1.4362 -3.7630 -0.4367
   86MOL0     H11545  10.914   6.309   7.311 -1.1939 -0.1500  1.8879
   86MOL0     H11546  10.940   6.174   7.430  1.2945  3.2519  0.8786
   86MOL0     H11547  11.149   6.297   7.222  3.1044 -0.2213 -0.0719
   86MOL0     H11548  11.173   6.142   7.297  0.6924  1.0729 -3.9456
   86MOL0     H11549  11.282   6.299   7.432  0.0937 -0.7831 -2.1842
   86MOL0     H11550  11.141   6.241   7.520 -2.5114 -0.2846 -0.4025
   86MOL0     H11551  11.154   6.505   7.362 -1.9487  0.7746 -0.4723
   86MOL0     H11552  11.012   6.455   7.449  0.5749  1.8435  0.5162
   86MOL0     H11553  11.150   6.431   7.669 -0.5933 -1.4608 -1.0044
   86MOL0     H11554  11.271   6.506   7.583  0.6857 -0.2916 -1.7122
   86MOL0     H11555  11.127   6.709   7.526  0.2362  0.5634  0.9175
   86MOL0     H11556  11.004   6.637   7.636 -1.7018 -2.8727 -0.8481
   86MOL0     H11557  11.302   6.714   7.694 -0.8669  0.0156 -2.2309
   86MOL0     H11558  11.198   6.631   7.810 -0.5726 -0.0150 -0.0072
   86MOL0     H11559  11.120   6.892   7.669 -6.6100 -2.3179  0.0270
   86MOL0     H11560  11.049   6.841   7.818 -0.3873  1.6936 -1.2802
   86MOL0     H11561  11.264   6.809   8.027 -1.2392  0.1513  0.3249
   86MOL0     H11562  11.376   7.083   8.199 -1.0317 -0.5023  0.9413
   86MOL0     H11563  11.431   6.925   8.184  0.4704  1.7468  2.8380
   86MOL0     H11564  11.611   7.008   8.008 -1.1549 -0.4388  0.1332
   86MOL0     H11565  11.583   7.163   8.078 -0.6280  0.4336  4.2273
   86MOL0     H11566  11.779   7.020   8.159 -0.1835 -2.6371  0.3894
   86MOL0     H11567  11.655   6.902   8.219 -2.9300 -0.6390 -2.6914
   86MOL0     H11568  11.736   7.046   8.391 -0.4365  0.2285  1.9434
   86MOL0     H11569  11.557   7.065   8.368 -0.3959  3.7928  1.1423
   86MOL0     H11570  11.720   7.195   8.580 -0.5590 -0.2011  0.0835
   86MOL0     H11571  11.791   7.375   8.717 -0.7562  0.0305  0.2387
   86MOL0     H11572  12.128   7.659   8.731  0.0147  0.8781 -4.4674
   86MOL0     H11573  12.252   7.778   8.910 -1.2925 -0.7116  1.8507
   86MOL0     H11574  12.323   7.903   9.067  1.4012 -1.0294  0.1401
   86MOL0     H11575  12.389   7.993   8.929 -2.4440 -6.5582 -1.5273
   86MOL0     H11576  12.335   8.106   9.205  1.8415  0.3855  1.4652
   86MOL0     H11577  12.493   8.087   9.135  1.7037  2.3823 -2.0361
   86MOL0     H11578  12.269   8.276   9.041 -0.6449 -0.7957 -1.1176
   86MOL0     H11579  12.399   8.330   9.130  2.7649  0.1787  0.1015
   86MOL0     H11580  12.449   8.209   8.852  0.4698  0.7084 -0.2659
   86MOL0     H11581  12.554   8.327   8.926 -1.7625  3.9183  2.0993
   86MOL0     H11582  12.393   8.507   8.936  0.6468 -2.1802  1.3769
   86MOL0     H11583  12.288   8.422   8.824 -0.7833  1.2564 -3.5194
   86MOL0     H11584  12.572   8.515   8.777  1.3474 -1.9920 -0.8117
   86MOL0     H11585  12.504   8.397   8.672  4.0773  1.1598  1.2224
   86MOL0     H11586  12.393   8.687   8.707  2.4837  0.6623 -0.2180
   86MOL0     H11587  12.318   8.549   8.615  0.9178 -1.9085  0.1858
   86MOL0     H11588  12.437   8.725   8.490 -0.9138 -0.9583  0.0767
   86MOL0     H11589  12.584   8.705   8.572 -0.7321 -0.3660  3.2940
   86MOL0     H11590  11.972   8.108   8.896  0.6291 -0.7632  0.5754
   86MOL0     H11591  11.849   7.991   8.708 -0.3956 -0.0852  1.6966
   86MOL0     H11592  11.740   7.655   8.400 -3.1485  1.9462  2.1765
   86MOL0     H11593  11.663   7.482   8.250 -2.1184 -0.4695  0.0729
   86MOL0     H11594  10.696   6.230   7.294 -2.3100  1.3875 -2.8766
   86MOL0     H11595  10.472   6.122   7.269 -1.0672  0.2429 -0.1065
   86MOL0     H11596  10.252   5.787   6.995  0.9212  0.4275 -0.2281
   86MOL0     H11597  10.042   5.726   6.921 -1.4289  0.8130 -0.7044
   86MOL0     H11598   9.730   5.653   6.885 -0.8857  1.5572 -1.0207
   86MOL0     H11599   9.820   5.792   6.887 -4.7660  1.6327 -2.7876
   86MOL0     H11600   9.628   5.790   7.109 -1.9049 -0.4292 -1.1919
   86MOL0     H11601   9.552   5.776   6.948 -0.1474  1.8817 -2.0757
   86MOL0     H11602   9.648   5.975   6.875 -2.5548 -1.2868  0.5355
   86MOL0     H11603   9.736   6.002   7.026  0.8295 -0.7460 -0.8605
   86MOL0     H11604   9.482   5.957   7.139 -1.7316 -1.3145 -2.0857
   86MOL0     H11605   9.532   6.115   7.090  0.1494 -0.2381  1.1472
   86MOL0     H11606   9.213   6.056   6.819 -0.7350 -2.9816  0.1058
   86MOL0     H11607   9.876   5.773   7.307 -0.8873  1.2671 -0.6215
   86MOL0     H11608   9.970   5.880   7.472  1.1031 -1.6139 -0.4448
   86MOL0     H11609  10.121   5.804   7.512  1.1918 -2.8385 -1.4947
   86MOL0     H11610  10.110   5.971   7.450  2.3415 -0.4179  3.0943
   87MOL0     O11611   2.334  11.101   8.688  0.2948 -1.2425  0.3290
   87MOL0     C11612   2.356  11.056   8.800 -0.0656 -0.6955 -0.8264
   87MOL0     O11613   2.471  11.085   8.874 -0.2420  0.3899  0.1382
   87MOL0     C11614   2.552  11.187   8.837  0.8795  1.2697  0.5449
   87MOL0     C11615   2.503  11.321   8.834  0.6427 -0.5393 -1.3015
   87MOL0     C11616   2.594  11.433   8.824  0.3844 -0.3373 -0.4500
   87MOL0     C11617   2.736  11.408   8.813  0.7290 -0.4024 -0.0475
   87MOL0     O11618   2.815  11.510   8.760  1.2468  0.5741  0.6673
   87MOL0     C11619   2.819  11.529   8.618  0.5404  0.1336  0.0636
   87MOL0     C11620   2.855  11.678   8.577 -0.4000 -0.1952  0.0437
   87MOL0     C11621   3.001  11.711   8.621  0.3697 -0.5317 -0.6547
   87MOL0     C11622   3.054  11.829   8.545  0.6296  0.9380 -0.3625
   87MOL0     C11623   3.208  11.859   8.580  0.5488 -0.1714  0.3798
   87MOL0     C11624   3.233  11.897   8.722 -0.1798 -0.3548 -0.2519
   87MOL0     C11625   3.149  12.011   8.779  0.3708  0.9657 -0.5596
   87MOL0     C11626   3.158  12.143   8.710  0.9093  0.5432 -0.9384
   87MOL0     N11627   3.283  12.222   8.721 -0.1114 -0.3886 -0.5823
   87MOL0     C11628   3.340  12.259   8.834  0.2786  0.1397  0.4915
   87MOL0     C11629   3.468  12.308   8.801  0.5433  1.0585  0.0907
   87MOL0     C11630   3.569  12.373   8.899  0.3329  0.2865 -0.4570
   87MOL0     C11631   3.643  12.275   9.002  0.7475  0.1128  0.8759
   87MOL0     C11632   3.748  12.190   8.933 -0.2366 -0.6235  0.0843
   87MOL0     C11633   3.877  12.273   8.890  0.4966 -0.1093  0.8224
   87MOL0     O11634   3.922  12.365   8.987  0.0268 -0.0990  0.8977
   87MOL0     C11635   3.997  12.470   8.951 -0.2253 -0.2223 -0.4842
   87MOL0     C11636   4.032  12.503   8.822 -0.7193 -0.5941 -0.3349
   87MOL0     C11637   4.121  12.613   8.797 -0.6201 -0.5789 -0.0176
   87MOL0     C11638   4.160  12.700   8.904  0.0181  0.4970  0.5591
   87MOL0     C11639   4.238  12.823   8.878  0.8283 -0.2167 -0.4903
   87MOL0     O11640   4.314  12.884   8.973 -0.0927  0.3522 -0.8946
   87MOL0     C11641   4.392  12.986   8.950  0.5074 -0.7430  0.0106
   87MOL0     C11642   4.526  12.979   8.981 -0.1552 -0.2480 -0.2810
   87MOL0     C11643   4.610  13.092   8.963  0.2268 -0.0807  0.3978
   87MOL0     C11644   4.561  13.210   8.909 -0.4523  0.5755 -0.6600
   87MOL0     O11645   4.653  13.307   8.886  0.1051  0.9078 -0.3477
   87MOL0     C11646   4.626  13.425   8.801 -0.8343  0.2299 -0.1259
   87MOL0     C11647   4.726  13.528   8.848  0.5040 -0.1727 -0.0685
   87MOL0     C11648   4.677  13.657   8.790  0.0565  0.6370  0.2913
   87MOL0     C11649   4.769  13.768   8.831 -0.8793  0.4933 -0.2850
   87MOL0     C11650   4.711  13.905   8.783  0.1262  0.0400 -0.1824
   87MOL0     C11651   4.806  14.023   8.799 -0.9954 -0.3159 -0.0610
   87MOL0     C11652   4.898  14.026   8.676  0.0090  0.1655 -0.3540
   87MOL0     C11653   5.000  14.143   8.673  0.1782  0.5730  0.8822
   87MOL0    Cl11654   5.128  14.117   8.783 -0.3237  0.6977 -0.0374
   87MOL0     C11655   4.429  13.215   8.864  0.0480 -0.2315  0.6254
   87MOL0     C11656   4.350  13.096   8.883 -0.0617  0.3772  0.4638
   87MOL0     O11657   4.240  12.866   8.759  0.3353 -0.0809 -0.0169
   87MOL0     C11658   4.122  12.657   9.034  0.0729  0.1447 -0.2409
   87MOL0     C11659   4.045  12.544   9.064  0.2857 -0.7674 -0.3183
   87MOL0     N11660   3.482  12.291   8.662 -0.4505 -0.5283 -0.0175
   87MOL0     N11661   3.371  12.244   8.621  1.0096  0.2615  0.1638
   87MOL0     C11662   2.774  11.278   8.812  0.1467  0.2807 -0.2604
   87MOL0     C11663   2.686  11.168   8.826 -0.2785 -0.1352 -0.8069
   87MOL0     C11664   2.244  10.992   8.880 -0.9135  0.2853  0.4515
   87MOL0     C11665   2.261  10.989   9.023  0.7384 -0.7323 -0.0379
   87MOL0     C11666   2.165  10.922   9.101 -0.4145  0.4550  1.8592
   87MOL0     C11667   2.048  10.859   9.048  0.2344  0.1167  0.0377
   87MOL0     O11668   1.967  10.797   9.135 -1.0119  1.1004 -0.6310
   87MOL0     C11669   1.887  10.685   9.086 -0.4692  0.6319  0.1970
   87MOL0     C11670   1.784  10.636   9.192  0.0275 -0.1571  0.2502
   87MOL0     C11671   1.671  10.739   9.205  0.0080 -1.0956 -0.8247
   87MOL0     C11672   1.570  10.728   9.089  0.2679  0.4521  0.1028
   87MOL0     C11673   1.494  10.600   9.083 -0.4168 -0.5137 -0.2717
   87MOL0     C11674   1.437  10.498   9.087  0.5800  0.1643 -0.4884
   87MOL0     C11675   2.037  10.873   8.902 -0.7469  0.2320  0.1486
   87MOL0     C11676   2.136  10.928   8.822  0.3387  0.1856  0.3573
   87MOL0     C11677   2.105  10.891   8.671 -1.0122 -0.6945 -0.5691
   87MOL0     H11678   2.396  11.339   8.835  0.7534  0.4725 -3.1774
   87MOL0     H11679   2.562  11.537   8.828  3.3500  0.6561  0.1917
   87MOL0     H11680   2.901  11.464   8.584  1.5026  1.2986  0.1051
   87MOL0     H11681   2.719  11.514   8.578  0.6427  0.9502 -0.5012
   87MOL0     H11682   2.789  11.750   8.626 -1.1382 -0.7971 -0.0315
   87MOL0     H11683   2.845  11.693   8.469  1.4459  1.4668  0.0516
   87MOL0     H11684   3.075  11.631   8.610  2.1499 -0.1579  5.2955
   87MOL0     H11685   3.001  11.741   8.726  2.6149 -2.1457 -0.1212
   87MOL0     H11686   3.057  11.799   8.440  1.9134  1.9595 -0.6510
   87MOL0     H11687   2.990  11.917   8.552  0.4679  0.8613 -0.8754
   87MOL0     H11688   3.263  11.765   8.569  1.3625  0.3512 -0.0767
   87MOL0     H11689   3.254  11.938   8.521  2.0802  2.6454  4.8215
   87MOL0     H11690   3.214  11.811   8.787  0.5774 -0.6877 -0.4671
   87MOL0     H11691   3.333  11.938   8.735  0.9211 -2.6374 -0.9686
   87MOL0     H11692   3.178  12.018   8.884  1.0121 -0.7504 -0.5947
   87MOL0     H11693   3.045  11.977   8.772  0.5123  0.1978  0.7787
   87MOL0     H11694   3.128  12.129   8.606  1.3809  0.0221 -1.0104
   87MOL0     H11695   3.077  12.197   8.761  1.9178 -0.6008  2.0957
   87MOL0     H11696   3.304  12.242   8.935 -0.9746  0.2920  0.0869
   87MOL0     H11697   3.635  12.426   8.831  1.0908 -0.8183 -0.5971
   87MOL0     H11698   3.517  12.454   8.952 -0.0631  0.3843 -0.9872
   87MOL0     H11699   3.684  12.335   9.083 -2.1700  1.0363  1.8019
   87MOL0     H11700   3.575  12.201   9.046  0.7968 -2.5311 -3.0085
   87MOL0     H11701   3.705  12.154   8.839  1.3821 -0.1348 -0.8867
   87MOL0     H11702   3.783  12.110   8.999  1.3121  1.5558  2.0570
   87MOL0     H11703   3.841  12.320   8.797 -2.8182 -0.8505  1.5834
   87MOL0     H11704   3.956  12.206   8.855  0.8276  0.6123  0.1466
   87MOL0     H11705   4.014  12.456   8.725  0.3087  2.7169 -2.2894
   87MOL0     H11706   4.157  12.626   8.696  4.2833  0.9452  1.6218
   87MOL0     H11707   4.568  12.895   9.036  1.2868 -1.6548 -3.2863
   87MOL0     H11708   4.716  13.084   8.984  0.5210 -0.0868 -0.9818
   87MOL0     H11709   4.635  13.413   8.692 -0.9429 -1.9283  0.0597
   87MOL0     H11710   4.521  13.447   8.820 -1.0363 -2.1710  1.9823
   87MOL0     H11711   4.739  13.518   8.956  0.7875 -0.5410 -0.1336
   87MOL0     H11712   4.826  13.503   8.811 -0.1734 -2.3175 -0.6124
   87MOL0     H11713   4.697  13.651   8.682  2.3108  2.1531  0.5606
   87MOL0     H11714   4.571  13.668   8.814  0.0180 -2.1579  1.8169
   87MOL0     H11715   4.867  13.750   8.786 -3.0338 -1.3262 -4.8183
   87MOL0     H11716   4.773  13.772   8.941  0.0964 -2.4950 -0.1263
   87MOL0     H11717   4.629  13.929   8.850 -0.0265  2.7613 -1.2076
   87MOL0     H11718   4.661  13.903   8.686 -0.3636  4.2341 -0.2097
   87MOL0     H11719   4.748  14.116   8.794  0.1853  0.4035 -0.8427
   87MOL0     H11720   4.860  14.026   8.894 -0.5603 -2.2240 -0.2047
   87MOL0     H11721   4.832  14.040   8.590  0.1195  2.2719 -0.1478
   87MOL0     H11722   4.948  13.929   8.679  0.9528  0.5909  3.8975
   87MOL0     H11723   5.041  14.154   8.572 -0.9922  3.9155  0.6501
   87MOL0     H11724   4.949  14.240   8.687 -0.6076  0.2439  0.3979
   87MOL0     H11725   4.389  13.305   8.818  1.4649 -0.7820 -1.8671
   87MOL0     H11726   4.250  13.097   8.840  0.6152 -0.1427 -1.2459
   87MOL0     H11727   4.141  12.724   9.117 -1.5943 -1.1170  1.2246
   87MOL0     H11728   4.001  12.522   9.161  2.5363 -2.9620  0.2975
   87MOL0     H11729   2.874  11.240   8.791 -0.9719 -3.0808 -0.0932
   87MOL0     H11730   2.724  11.070   8.851 -2.3356 -0.2550  2.5233
   87MOL0     H11731   2.340  11.044   9.074  0.5456  1.5601 -2.0380
   87MOL0     H11732   2.179  10.914   9.208  0.2842  0.4800  1.7773
   87MOL0     H11733   1.958  10.605   9.061  0.9559  1.5626  1.1584
   87MOL0     H11734   1.825  10.716   9.002 -1.6704  0.1173  0.8759
   87MOL0     H11735   1.840  10.611   9.282 -1.2502  1.2934  1.5127
   87MOL0     H11736   1.741  10.541   9.159 -3.5555  0.7381  1.8347
   87MOL0     H11737   1.700  10.842   9.223  0.0683 -1.5132  1.8811
   87MOL0     H11738   1.622  10.713   9.299  0.1541  1.2174 -0.0524
   87MOL0     H11739   1.501  10.813   9.096  1.4078  1.5791 -1.7008
   87MOL0     H11740   1.612  10.758   8.993 -0.2701  0.8577 -0.0120
   87MOL0     H11741   1.358  10.426   9.098 -0.0376  0.4464 -2.7342
   87MOL0     H11742   1.951  10.823   8.859 -0.0126 -0.0337 -1.0801
   87MOL0     H11743   2.201  10.891   8.617  1.8178  0.0248  3.9106
   87MOL0     H11744   2.059  10.792   8.666  0.6988 -1.4776 -3.6495
   87MOL0     H11745   2.043  10.971   8.631  0.3032  0.5769 -0.1735
   88MOL0     O11746  10.915   7.815   6.425 -0.2294 -0.0161 -0.1030
   88MOL0     C11747  10.964   7.707   6.409 -0.6005 -0.0144 -0.5427
   88MOL0     O11748  10.897   7.590   6.368 -0.0252  0.0285 -0.3473
   88MOL0     C11749  10.779   7.592   6.299  0.3031  1.3021  0.0577
   88MOL0     C11750  10.739   7.683   6.195 -0.4165  0.4931 -1.0323
   88MOL0     C11751  10.617   7.669   6.130  0.1235  0.1646 -0.3755
   88MOL0     C11752  10.528   7.573   6.171 -0.2921  0.5064 -0.2858
   88MOL0     O11753  10.404   7.583   6.112  0.0404  0.5803 -0.5036
   88MOL0     C11754  10.295   7.528   6.184  1.2037 -0.5820 -0.9925
   88MOL0     C11755  10.270   7.392   6.123  0.1135  0.1344 -0.0677
   88MOL0     C11756  10.122   7.356   6.123 -0.3237 -0.5556  0.6470
   88MOL0     C11757  10.099   7.220   6.053  0.0272  0.2479 -0.4295
   88MOL0     C11758   9.956   7.169   6.075  0.7016  0.0657  0.6147
   88MOL0     C11759   9.851   7.279   6.117 -0.1514 -0.4513  0.4235
   88MOL0     C11760   9.705   7.237   6.119  0.1477  0.3011 -0.5462
   88MOL0     C11761   9.687   7.152   6.240 -0.7036 -0.6991  0.0867
   88MOL0     N11762   9.668   7.006   6.218 -0.9413  0.3040 -0.1035
   88MOL0     C11763   9.548   6.953   6.203  0.6419 -0.0397  0.6860
   88MOL0     C11764   9.575   6.824   6.198  0.0448  1.0663 -0.2640
   88MOL0     C11765   9.478   6.715   6.167 -0.7597 -1.4086  0.8995
   88MOL0     C11766   9.537   6.575   6.210 -0.8039  0.5540 -0.1896
   88MOL0     C11767   9.432   6.457   6.193  0.0630 -0.1727  0.8135
   88MOL0     C11768   9.494   6.331   6.223  0.3506 -0.1447  0.5318
   88MOL0     O11769   9.405   6.227   6.188  0.3666  0.2828  0.1053
   88MOL0     C11770   9.429   6.099   6.240  0.0004  0.4946 -0.3425
   88MOL0     C11771   9.329   6.001   6.212  0.3187 -0.4372 -0.2595
   88MOL0     C11772   9.341   5.871   6.261  0.9715 -0.6675  0.0207
   88MOL0     C11773   9.446   5.830   6.335  0.8738 -0.5074 -0.6240
   88MOL0     C11774   9.465   5.691   6.387  1.0199 -0.6173  0.1024
   88MOL0     O11775   9.556   5.663   6.484  0.5815  0.5545  0.7346
   88MOL0     C11776   9.580   5.532   6.509  0.0295  0.5112  0.4735
   88MOL0     C11777   9.662   5.467   6.419 -0.2043  0.1641 -0.0346
   88MOL0     C11778   9.685   5.330   6.447  0.2874 -0.5945 -0.6625
   88MOL0     C11779   9.635   5.270   6.560 -0.6539 -1.1909 -0.1548
   88MOL0     O11780   9.653   5.132   6.560 -1.4145 -0.1015 -0.5318
   88MOL0     C11781   9.592   5.057   6.661  0.1721  0.5084 -0.7239
   88MOL0     C11782   9.666   4.932   6.679 -0.0794  0.0622 -0.3961
   88MOL0     C11783   9.586   4.804   6.662 -0.1828 -0.1868 -0.2778
   88MOL0     C11784   9.461   4.786   6.753 -0.0623 -0.9406  0.2462
   88MOL0     C11785   9.506   4.740   6.899 -0.8388 -0.5460 -0.0765
   88MOL0     C11786   9.593   4.612   6.891 -0.3103 -0.0337 -1.0924
   88MOL0     C11787   9.633   4.563   7.030 -0.2970 -0.2363  0.0455
   88MOL0     C11788   9.735   4.656   7.092  0.1180  0.0640 -0.9085
   88MOL0    Cl11789   9.901   4.613   7.060 -0.0515 -0.0008  0.5711
   88MOL0     C11790   9.567   5.347   6.657  0.7384  0.2005 -0.5701
   88MOL0     C11791   9.544   5.473   6.627 -0.5885 -0.9236 -0.8809
   88MOL0     O11792   9.381   5.617   6.329  0.1742 -0.2088 -0.2284
   88MOL0     C11793   9.542   5.931   6.366 -0.2272 -1.0422  0.5410
   88MOL0     C11794   9.537   6.065   6.317  0.3978  0.7775  0.1108
   88MOL0     N11795   9.710   6.803   6.206  0.2476  0.2259 -1.1173
   88MOL0     N11796   9.761   6.919   6.211  0.5308  0.0387 -0.7459
   88MOL0     C11797  10.561   7.478   6.274 -0.2445  0.1274 -0.1931
   88MOL0     C11798  10.691   7.485   6.332  0.1847  0.5676 -0.5244
   88MOL0     C11799  11.107   7.704   6.456 -0.8840 -0.8376  0.1900
   88MOL0     C11800  11.129   7.767   6.582  0.1102  0.4467  0.4817
   88MOL0     C11801  11.254   7.776   6.633 -0.3480 -0.2546  0.2071
   88MOL0     C11802  11.372   7.745   6.548  0.1331  0.4524 -0.4082
   88MOL0     O11803  11.499   7.770   6.580  0.5850 -0.6277 -0.1634
   88MOL0     C11804  11.582   7.649   6.585  0.2249 -0.0720  0.1549
   88MOL0     C11805  11.590   7.577   6.723 -0.2799  0.5876  0.0742
   88MOL0     C11806  11.697   7.618   6.821 -0.4135  0.1712 -0.1141
   88MOL0     C11807  11.677   7.565   6.956 -0.2650  0.9296  0.1781
   88MOL0     C11808  11.772   7.625   7.046  0.6003 -0.0064 -0.1409
   88MOL0     C11809  11.861   7.675   7.113 -0.6173 -0.2212  0.0672
   88MOL0     C11810  11.356   7.686   6.424  0.6021  0.2149 -0.0210
   88MOL0     C11811  11.218   7.657   6.387  0.7109 -0.4072  0.4126
   88MOL0     C11812  11.184   7.583   6.265 -0.3964  0.7563  0.9445
   88MOL0     H11813  10.818   7.754   6.171  1.9120 -2.4566 -2.8522
   88MOL0     H11814  10.579   7.744   6.062  0.0602 -0.4634 -1.0443
   88MOL0     H11815  10.299   7.535   6.293 -3.2473  2.3165 -0.7639
   88MOL0     H11816  10.204   7.587   6.174  0.8116 -0.2470  2.9531
   88MOL0     H11817  10.331   7.323   6.183  1.5480  0.4299 -1.1189
   88MOL0     H11818  10.298   7.387   6.017 -0.8422  0.2127 -0.3321
   88MOL0     H11819  10.068   7.432   6.066 -0.2550 -0.6593  0.4412
   88MOL0     H11820  10.095   7.354   6.229  2.0283 -0.9511  1.3045
   88MOL0     H11821  10.111   7.238   5.946  2.9865 -3.0516 -0.8296
   88MOL0     H11822  10.163   7.135   6.078 -0.0822  0.1487 -0.4837
   88MOL0     H11823   9.913   7.107   5.995 -2.7593  0.7614  1.7431
   88MOL0     H11824   9.972   7.102   6.160  0.9882  1.5550  1.7822
   88MOL0     H11825   9.885   7.319   6.214  1.6385 -1.8176  0.4017
   88MOL0     H11826   9.844   7.361   6.045  1.0931 -1.7819 -1.2599
   88MOL0     H11827   9.688   7.171   6.034  1.5255 -0.6093 -0.1515
   88MOL0     H11828   9.633   7.319   6.115  0.8766  0.9242 -1.8587
   88MOL0     H11829   9.772   7.163   6.307  1.6467  0.2736 -2.8442
   88MOL0     H11830   9.602   7.200   6.290 -0.9371 -1.4964  0.4717
   88MOL0     H11831   9.447   6.992   6.197  0.1676 -1.3013  0.0367
   88MOL0     H11832   9.382   6.739   6.213 -0.4008  1.3661  0.4222
   88MOL0     H11833   9.460   6.710   6.060  0.1995  0.2328  0.6224
   88MOL0     H11834   9.628   6.554   6.153 -1.5303  2.1586 -2.0125
   88MOL0     H11835   9.577   6.575   6.312  0.4724 -1.7751 -0.6054
   88MOL0     H11836   9.401   6.445   6.089 -1.3589  3.9577  0.5765
   88MOL0     H11837   9.345   6.480   6.256 -0.7080 -0.5729 -0.0809
   88MOL0     H11838   9.527   6.329   6.328 -1.2671 -1.9815  1.0585
   88MOL0     H11839   9.576   6.319   6.152 -1.0652 -1.9884 -0.8959
   88MOL0     H11840   9.250   6.034   6.145  0.9216  1.0697 -0.2676
   88MOL0     H11841   9.253   5.809   6.247  1.1561 -0.7607 -0.7982
   88MOL0     H11842   9.705   5.528   6.340  2.7463 -0.9759  0.5746
   88MOL0     H11843   9.729   5.286   6.359 -0.1625  1.9484 -2.2690
   88MOL0     H11844   9.591   5.103   6.760  0.3235 -1.0555  0.0318
   88MOL0     H11845   9.492   5.032   6.626 -0.4048  0.5112  0.8477
   88MOL0     H11846   9.763   4.923   6.630  0.2343 -0.2179  0.2677
   88MOL0     H11847   9.690   4.931   6.786 -2.4947  0.3434  0.2146
   88MOL0     H11848   9.547   4.804   6.560 -2.3950 -0.1793  0.5006
   88MOL0     H11849   9.653   4.719   6.672 -1.2230 -1.0950 -0.7922
   88MOL0     H11850   9.405   4.702   6.712 -1.4761  0.9010 -1.8388
   88MOL0     H11851   9.393   4.871   6.752  2.2269  1.0339  1.5012
   88MOL0     H11852   9.418   4.720   6.961  0.5452  1.2168  2.6196
   88MOL0     H11853   9.560   4.825   6.942 -1.4146 -0.0654 -0.2802
   88MOL0     H11854   9.541   4.528   6.843  1.8714 -2.1412  0.0130
   88MOL0     H11855   9.687   4.633   6.839 -0.0432 -0.7632 -0.9122
   88MOL0     H11856   9.680   4.465   7.030 -0.0919 -0.3458 -4.7088
   88MOL0     H11857   9.535   4.554   7.078 -2.3868  2.9981 -3.0528
   88MOL0     H11858   9.727   4.754   7.045  1.0590 -0.6644 -2.6979
   88MOL0     H11859   9.719   4.656   7.201  0.9594 -3.9054 -0.6163
   88MOL0     H11860   9.510   5.301   6.737  0.3544  1.9686  0.2140
   88MOL0     H11861   9.498   5.551   6.686  0.2521  1.4048 -3.0796
   88MOL0     H11862   9.635   5.913   6.419  2.0736  0.3496 -2.6602
   88MOL0     H11863   9.619   6.131   6.345 -0.9325  3.3639 -1.7308
   88MOL0     H11864  10.486   7.410   6.313 -0.1336  0.7883  1.2067
   88MOL0     H11865  10.719   7.407   6.403 -3.1111 -0.5746 -0.2883
   88MOL0     H11866  11.049   7.795   6.650  2.0596  1.9165  2.2685
   88MOL0     H11867  11.267   7.806   6.736  0.7183  0.2745 -0.0681
   88MOL0     H11868  11.682   7.675   6.547  0.9424  0.2353  2.1295
   88MOL0     H11869  11.552   7.578   6.508 -1.5156  1.9485 -1.1267
   88MOL0     H11870  11.605   7.469   6.714  0.4568  0.8222 -2.2257
   88MOL0     H11871  11.497   7.591   6.777  0.9204  2.6633  1.7454
   88MOL0     H11872  11.683   7.726   6.826 -2.0436 -0.0345  3.9656
   88MOL0     H11873  11.799   7.604   6.785 -0.6081 -0.7443 -0.3577
   88MOL0     H11874  11.584   7.590   7.007  0.2923  0.1243  1.6607
   88MOL0     H11875  11.687   7.457   6.971 -2.7179  0.6944  0.5367
   88MOL0     H11876  11.932   7.718   7.180  0.9450  0.8902 -2.2001
   88MOL0     H11877  11.434   7.655   6.356  1.0179  1.7984 -0.3101
   88MOL0     H11878  11.107   7.506   6.274  0.1705 -0.1218 -1.1732
   88MOL0     H11879  11.137   7.646   6.189  0.1229 -0.3328 -0.3237
   88MOL0     H11880  11.275   7.542   6.219 -1.7257  1.4916 -2.5737
   89MOL0     O11881   5.741   4.130   9.868  0.1975 -0.2145 -0.6950
   89MOL0     C11882   5.671   4.061   9.790  0.2363 -0.6246  0.5429
   89MOL0     O11883   5.668   4.084   9.653  0.4095 -0.0963 -0.3252
   89MOL0     C11884   5.735   4.178   9.589 -0.0847 -1.1133  1.6872
   89MOL0     C11885   5.860   4.246   9.626  0.4422 -0.1967 -0.3996
   89MOL0     C11886   5.920   4.341   9.552 -0.2734 -0.7639  0.2127
   89MOL0     C11887   5.853   4.385   9.430  0.1548  1.3099 -0.4733
   89MOL0     O11888   5.894   4.492   9.366  0.2316 -0.9975 -0.7317
   89MOL0     C11889   5.957   4.458   9.237 -0.3220  0.1281 -0.2991
   89MOL0     C11890   6.104   4.494   9.250 -0.3385 -0.2342 -0.4632
   89MOL0     C11891   6.184   4.414   9.145  0.9053  0.0655 -0.7986
   89MOL0     C11892   6.333   4.451   9.172 -0.1217  0.0404 -0.0093
   89MOL0     C11893   6.417   4.385   9.065  0.1136  1.0166  0.9654
   89MOL0     C11894   6.554   4.349   9.126  0.4017 -0.4950  0.3634
   89MOL0     C11895   6.651   4.266   9.043  0.4070  0.8194  0.2497
   89MOL0     C11896   6.762   4.356   8.979 -0.3367  0.3878 -0.4590
   89MOL0     N11897   6.721   4.381   8.841 -0.0303  0.4080 -0.0823
   89MOL0     C11898   6.667   4.496   8.800 -0.1218 -0.5760  0.2469
   89MOL0     C11899   6.646   4.476   8.667  0.2131  0.0975 -0.9932
   89MOL0     C11900   6.570   4.576   8.581  0.3970  0.2216 -0.7973
   89MOL0     C11901   6.418   4.582   8.612  0.6799  0.5387  0.1032
   89MOL0     C11902   6.365   4.445   8.578  0.0030  0.3455 -0.5171
   89MOL0     C11903   6.220   4.442   8.629  0.2000 -1.0533 -0.1706
   89MOL0     O11904   6.157   4.317   8.609  0.5670  0.6024  0.4949
   89MOL0     C11905   6.099   4.272   8.726  0.4217  0.0239 -1.1623
   89MOL0     C11906   6.010   4.344   8.807 -0.9287 -0.0061  0.1511
   89MOL0     C11907   5.952   4.283   8.912 -0.9402  0.6966  0.9507
   89MOL0     C11908   5.950   4.141   8.931 -0.2036 -1.1258 -0.1610
   89MOL0     C11909   5.889   4.075   9.043 -0.1687 -0.7951 -0.3572
   89MOL0     O11910   5.938   3.959   9.077 -0.0097 -0.2460 -0.2704
   89MOL0     C11911   5.982   3.940   9.209  0.1730  0.9180 -0.3191
   89MOL0     C11912   6.017   4.043   9.289  0.0181 -0.5330  0.3345
   89MOL0     C11913   6.036   4.021   9.419  0.6281 -1.3119  0.1779
   89MOL0     C11914   6.027   3.899   9.474  0.0343 -0.4460  0.0338
   89MOL0     O11915   6.072   3.882   9.611 -0.1547 -0.2825  0.2736
   89MOL0     C11916   6.025   3.973   9.708  0.2681 -0.1337  0.8359
   89MOL0     C11917   6.030   3.920   9.847 -0.8967 -1.2825 -0.4011
   89MOL0     C11918   5.980   3.779   9.859  0.8440  0.3173 -0.2513
   89MOL0     C11919   5.952   3.770  10.007 -0.2289 -0.2122 -0.4273
   89MOL0     C11920   5.905   3.627  10.041 -0.7033  0.7366  0.4658
   89MOL0     C11921   5.879   3.599  10.180 -0.8895 -0.7382  0.0299
   89MOL0     C11922   5.999   3.631  10.265  1.8929  0.9644  0.2427
   89MOL0     C11923   6.001   3.541  10.389  0.8007  0.4919 -0.2477
   89MOL0    Cl11924   5.862   3.574  10.499  0.3194 -0.0544 -0.1059
   89MOL0     C11925   6.019   3.785   9.385  0.2256  0.5757  0.5107
   89MOL0     C11926   5.988   3.813   9.261 -0.8750  0.5407 -0.2341
   89MOL0     O11927   5.807   4.135   9.111 -0.7288  0.2054 -0.6935
   89MOL0     C11928   6.037   4.064   8.850  0.4674 -0.8788  0.0320
   89MOL0     C11929   6.118   4.132   8.756 -0.2135  1.0093 -0.8415
   89MOL0     N11930   6.705   4.353   8.641 -0.2343  0.8285 -0.1127
   89MOL0     N11931   6.748   4.294   8.741  0.4827 -0.1918 -0.4683
   89MOL0     C11932   5.744   4.311   9.388 -0.6068 -0.1715  0.4259
   89MOL0     C11933   5.673   4.210   9.458  0.2326 -1.1318 -0.4076
   89MOL0     C11934   5.576   3.954   9.840  0.1908  0.5100  0.2387
   89MOL0     C11935   5.522   3.857   9.745 -1.1243 -0.3018  0.2889
   89MOL0     C11936   5.465   3.738   9.779  0.5614  1.0223 -0.0682
   89MOL0     C11937   5.426   3.706   9.913 -0.3735 -0.2974 -0.0626
   89MOL0     O11938   5.374   3.588   9.961 -0.3339  0.7071 -0.1123
   89MOL0     C11939   5.320   3.565  10.096  0.9586  0.1127 -0.2915
   89MOL0     C11940   5.182   3.647  10.135 -0.1858  0.8178 -0.2442
   89MOL0     C11941   5.065   3.607  10.043 -0.6019  0.2178 -0.4256
   89MOL0     C11942   5.006   3.468  10.052 -0.6059 -1.0741 -1.2538
   89MOL0     C11943   4.894   3.461   9.960 -0.1068  0.5064  0.0033
   89MOL0     C11944   4.792   3.463   9.896  0.3870  0.9539 -0.9146
   89MOL0     C11945   5.473   3.799  10.003  0.1425  0.3178 -1.0331
   89MOL0     C11946   5.551   3.918   9.977  2.1781  0.2349 -0.7618
   89MOL0     C11947   5.612   3.993  10.092 -0.0202  0.2945  0.3682
   89MOL0     H11948   5.894   4.234   9.729 -1.5630 -0.1958  0.3092
   89MOL0     H11949   6.004   4.392   9.599  0.3212  0.4879 -2.0619
   89MOL0     H11950   5.954   4.350   9.219  3.5074  0.0388 -1.3425
   89MOL0     H11951   5.907   4.512   9.156 -2.9585 -0.4793  0.8129
   89MOL0     H11952   6.134   4.465   9.352  0.9020  0.8140 -0.5081
   89MOL0     H11953   6.123   4.601   9.247 -2.4679  0.2815  1.3856
   89MOL0     H11954   6.173   4.461   9.047  0.8934  1.6936 -0.0603
   89MOL0     H11955   6.159   4.309   9.160 -2.4138  1.1206  2.6679
   89MOL0     H11956   6.344   4.559   9.179  3.5133 -0.2990  1.3512
   89MOL0     H11957   6.360   4.411   9.270 -4.4167 -2.2224  0.4855
   89MOL0     H11958   6.383   4.289   9.024  3.2267  0.1570  0.1081
   89MOL0     H11959   6.432   4.443   8.974  1.9920 -0.4720  0.2456
   89MOL0     H11960   6.591   4.445   9.163  2.3728 -0.4788 -1.4995
   89MOL0     H11961   6.536   4.282   9.212  2.2248  2.4946  3.3049
   89MOL0     H11962   6.612   4.202   8.963  3.2197  0.8540 -1.2718
   89MOL0     H11963   6.695   4.193   9.112 -1.6689  0.0128  0.8015
   89MOL0     H11964   6.780   4.452   9.028  6.3015 -0.6627 -0.0196
   89MOL0     H11965   6.852   4.294   8.986 -3.1127 -3.8981  1.6165
   89MOL0     H11966   6.644   4.589   8.852  0.3196  0.4566 -1.3387
   89MOL0     H11967   6.606   4.679   8.589 -0.1420  0.3268  0.4791
   89MOL0     H11968   6.592   4.543   8.479  0.5484  1.4313 -1.1739
   89MOL0     H11969   6.411   4.591   8.721  1.3931 -3.4255  0.6212
   89MOL0     H11970   6.368   4.669   8.568  0.8759  0.8981  0.5720
   89MOL0     H11971   6.416   4.360   8.623  0.7266  1.8997  1.7606
   89MOL0     H11972   6.370   4.426   8.470 -3.9203  0.0527 -0.8176
   89MOL0     H11973   6.160   4.526   8.592  0.3659 -0.7328  0.2791
   89MOL0     H11974   6.241   4.466   8.733  2.7097  0.9011 -1.0158
   89MOL0     H11975   5.974   4.444   8.785  1.2178  0.3939 -1.9475
   89MOL0     H11976   5.904   4.354   8.979 -0.6247  1.9147 -0.0772
   89MOL0     H11977   6.044   4.137   9.242 -1.4515 -1.0280 -1.5993
   89MOL0     H11978   6.053   4.111   9.477  1.9394  0.1798 -2.3589
   89MOL0     H11979   6.082   4.065   9.693 -0.5868  0.0220 -1.9690
   89MOL0     H11980   5.924   4.005   9.681  1.2350  2.9244  0.4716
   89MOL0     H11981   6.134   3.917   9.882 -0.5924 -2.3941 -1.3271
   89MOL0     H11982   5.979   3.991   9.913  0.9205  1.0067 -1.2886
   89MOL0     H11983   5.890   3.768   9.798  0.0713  1.2232  0.6760
   89MOL0     H11984   6.053   3.704   9.826 -0.5879 -1.9063  1.3530
   89MOL0     H11985   5.872   3.837  10.039  0.6459  0.1918  1.0106
   89MOL0     H11986   6.045   3.792  10.060 -0.8987 -0.0247  0.7033
   89MOL0     H11987   5.992   3.566  10.015 -0.9484  1.1597 -1.4846
   89MOL0     H11988   5.817   3.597   9.982 -3.1244  1.7650  3.3075
   89MOL0     H11989   5.799   3.662  10.219  0.7210  2.5462 -1.5282
   89MOL0     H11990   5.864   3.491  10.178 -2.3730 -0.5722  1.0356
   89MOL0     H11991   5.981   3.732  10.304 -0.6028  1.4259 -1.8111
   89MOL0     H11992   6.090   3.624  10.205  0.6274 -0.9415 -1.5805
   89MOL0     H11993   5.979   3.437  10.365 -1.2349  0.6995  0.5219
   89MOL0     H11994   6.099   3.558  10.434  0.6748 -0.4261  0.3942
   89MOL0     H11995   6.033   3.684   9.421 -0.2475 -0.6622 -2.4980
   89MOL0     H11996   5.974   3.728   9.196  1.1729  0.7624 -1.0648
   89MOL0     H11997   6.051   3.958   8.865  0.3811 -1.5263 -3.6011
   89MOL0     H11998   6.191   4.069   8.707 -1.7134 -1.1890 -0.3981
   89MOL0     H11999   5.695   4.334   9.294 -2.5916 -1.5307  1.0398
   89MOL0     H12000   5.579   4.166   9.426 -1.1888  0.9285  0.6667
   89MOL0     H12001   5.527   3.869   9.638 -3.1926  1.1717  0.3067
   89MOL0     H12002   5.444   3.670   9.697 -2.3284  0.1357  1.2723
   89MOL0     H12003   5.394   3.593  10.171 -0.0480 -0.3688  0.9187
   89MOL0     H12004   5.307   3.458  10.114  0.1687 -1.3262 -6.7622
   89MOL0     H12005   5.204   3.754  10.132 -0.1036  0.7922 -0.6244
   89MOL0     H12006   5.164   3.635  10.242 -0.8052  3.2991  0.0004
   89MOL0     H12007   5.108   3.609   9.942  1.7093  0.6550  0.5287
   89MOL0     H12008   4.977   3.672  10.047 -1.2892 -0.7584  1.3808
   89MOL0     H12009   5.079   3.388  10.039  1.3085  0.6540 -1.5799
   89MOL0     H12010   4.962   3.441  10.148 -2.5458 -3.4714 -2.6968
   89MOL0     H12011   4.700   3.448   9.843 -0.5115  1.9489  0.2930
   89MOL0     H12012   5.458   3.779  10.109  2.6178 -1.0550 -0.8534
   89MOL0     H12013   5.590   3.947  10.189  1.4660  0.5818  0.8624
   89MOL0     H12014   5.721   3.992  10.083  0.4197 -2.0193  3.8090
   89MOL0     H12015   5.589   4.100  10.099  1.9335  0.6732  2.2733
   90MOL0     O12016   9.092   9.053   8.947 -0.1005  0.9819 -0.1801
   90MOL0     C12017   9.110   8.972   8.858  0.5779  0.3235  0.3195
   90MOL0     O12018   9.208   8.971   8.761 -0.5530  0.0148  0.2417
   90MOL0     C12019   9.304   9.058   8.768  0.3796 -0.1210  0.1280
   90MOL0     C12020   9.378   9.098   8.885 -0.6409  0.2383 -0.4072
   90MOL0     C12021   9.461   9.208   8.879 -0.1247  0.5903  0.9810
   90MOL0     C12022   9.478   9.276   8.753  0.5088  0.3061  0.8873
   90MOL0     O12023   9.542   9.394   8.740  0.6315  0.9207  0.3878
   90MOL0     C12024   9.666   9.395   8.814 -0.0213 -0.9802 -0.9894
   90MOL0     C12025   9.753   9.505   8.739  0.3179  0.4324  0.0306
   90MOL0     C12026   9.788   9.445   8.596 -0.1020  0.1653 -0.2662
   90MOL0     C12027   9.858   9.307   8.590  0.9930  0.1982 -0.7217
   90MOL0     C12028   9.906   9.273   8.449  0.0905  1.2470 -1.4468
   90MOL0     C12029   9.796   9.270   8.341 -0.1623  0.6805 -0.2262
   90MOL0     C12030   9.855   9.186   8.221  0.0429  0.6599 -0.3477
   90MOL0     C12031   9.763   9.183   8.088 -0.0771 -0.7231 -0.4710
   90MOL0     N12032   9.774   9.302   8.005 -0.4705 -0.3351 -0.3736
   90MOL0     C12033   9.717   9.331   7.883 -0.8870  1.1273 -0.4043
   90MOL0     C12034   9.772   9.438   7.841 -0.5390 -0.9328  0.1166
   90MOL0     C12035   9.777   9.498   7.697 -0.5782  0.6341  1.6865
   90MOL0     C12036   9.665   9.443   7.606 -0.2304  0.4395  0.0174
   90MOL0     C12037   9.664   9.516   7.471 -0.4727  0.3366  0.2856
   90MOL0     C12038   9.555   9.457   7.381 -0.6506  0.2933  0.0171
   90MOL0     O12039   9.423   9.491   7.428  0.4628  0.4314  0.0434
   90MOL0     C12040   9.313   9.443   7.349  0.3094 -1.0927 -0.1209
   90MOL0     C12041   9.305   9.376   7.230  0.0841  0.4606  0.4832
   90MOL0     C12042   9.180   9.345   7.171  0.2036 -0.2350 -0.0848
   90MOL0     C12043   9.054   9.364   7.239 -0.5763  0.4343  0.0800
   90MOL0     C12044   8.924   9.315   7.194  0.8961  0.0171 -0.1958
   90MOL0     O12045   8.921   9.256   7.074 -0.4778  0.3403  0.1672
   90MOL0     C12046   8.807   9.248   7.000 -0.4225  0.2356  0.8338
   90MOL0     C12047   8.789   9.316   6.879 -0.0600 -0.7451 -0.1451
   90MOL0     C12048   8.675   9.309   6.810  0.6268 -0.3410  0.5650
   90MOL0     C12049   8.564   9.245   6.861  0.8713 -0.3739 -0.1207
   90MOL0     O12050   8.444   9.234   6.786  0.5960  0.8239  0.1633
   90MOL0     C12051   8.456   9.266   6.650 -0.9986 -0.1742 -0.6799
   90MOL0     C12052   8.329   9.237   6.581  0.2163  0.6582  0.7147
   90MOL0     C12053   8.337   9.226   6.427  0.2845 -0.3085 -0.2302
   90MOL0     C12054   8.332   9.369   6.363  0.3813  0.6753  0.7679
   90MOL0     C12055   8.283   9.364   6.226 -0.6053  0.1947  0.2412
   90MOL0     C12056   8.393   9.351   6.116  1.3138 -0.6585  1.0742
   90MOL0     C12057   8.336   9.386   5.972  0.5656  0.5919 -0.4700
   90MOL0     C12058   8.198   9.323   5.942 -0.0533  0.0864  0.2872
   90MOL0    Cl12059   8.168   9.403   5.784 -0.1419  0.0675 -0.7600
   90MOL0     C12060   8.581   9.171   6.981  0.2376 -1.1139  0.1194
   90MOL0     C12061   8.702   9.171   7.046 -0.2997  0.3758 -0.4073
   90MOL0     O12062   8.824   9.361   7.245  0.5082 -0.4504 -0.6168
   90MOL0     C12063   9.068   9.419   7.363  0.0191 -0.4328  0.7066
   90MOL0     C12064   9.194   9.465   7.413  0.5219  0.2558 -0.1233
   90MOL0     N12065   9.853   9.484   7.945 -0.3629  0.2613  0.7936
   90MOL0     N12066   9.862   9.406   8.041  0.5590  0.0250  0.2979
   90MOL0     C12067   9.395   9.239   8.644  0.4448 -0.1203 -0.1068
   90MOL0     C12068   9.308   9.135   8.645 -0.0704  0.6382  0.1448
   90MOL0     C12069   9.007   8.875   8.826  0.1748  0.0774 -0.3158
   90MOL0     C12070   8.950   8.810   8.939  0.3292  0.4120  0.6376
   90MOL0     C12071   8.875   8.690   8.933  0.6155 -0.2480 -0.8347
   90MOL0     C12072   8.852   8.629   8.811  0.3022  1.1277  1.0526
   90MOL0     O12073   8.779   8.510   8.823 -0.3467  0.1904 -0.1645
   90MOL0     C12074   8.787   8.422   8.707 -0.9564 -0.0557 -0.0394
   90MOL0     C12075   8.651   8.406   8.634 -0.0493  0.7176  0.8076
   90MOL0     C12076   8.615   8.517   8.536 -0.2135  0.0923  0.1105
   90MOL0     C12077   8.489   8.492   8.464  0.1651 -0.4749 -0.1113
   90MOL0     C12078   8.454   8.595   8.359 -0.5465  0.3011 -0.4306
   90MOL0     C12079   8.413   8.686   8.293  0.0534 -0.2410  0.4584
   90MOL0     C12080   8.897   8.699   8.691 -0.3127  0.9030 -0.8839
   90MOL0     C12081   8.977   8.820   8.700 -0.2900 -0.3765  0.3246
   90MOL0     C12082   9.003   8.894   8.569 -0.5633 -1.0157  0.3443
   90MOL0     H12083   9.344   9.039   8.970  1.1439 -3.1696 -1.8589
   90MOL0     H12084   9.511   9.254   8.963  0.3989  0.4349  0.7572
   90MOL0     H12085   9.646   9.434   8.914 -0.5775 -2.2687 -0.5719
   90MOL0     H12086   9.725   9.304   8.819  1.5430  0.0383 -0.3342
   90MOL0     H12087   9.840   9.523   8.803  1.3053 -3.3549  0.0289
   90MOL0     H12088   9.689   9.593   8.735  0.8105  0.8801  1.4586
   90MOL0     H12089   9.866   9.507   8.552  0.6004  0.7475  1.7101
   90MOL0     H12090   9.698   9.444   8.534  1.1165 -0.2893 -2.0937
   90MOL0     H12091   9.946   9.313   8.655  0.4813  0.7872 -0.0630
   90MOL0     H12092   9.792   9.228   8.625  2.7013 -0.6572  0.7445
   90MOL0     H12093   9.989   9.339   8.424  4.1178 -2.9260 -0.2912
   90MOL0     H12094   9.954   9.175   8.448 -0.2273  1.0242 -4.3501
   90MOL0     H12095   9.712   9.216   8.385 -1.1060  1.9030 -0.4670
   90MOL0     H12096   9.767   9.366   8.296 -2.0685 -0.3047 -1.2104
   90MOL0     H12097   9.871   9.084   8.255 -2.0798 -0.3611 -2.1363
   90MOL0     H12098   9.956   9.213   8.189 -0.4729 -0.2893 -3.0393
   90MOL0     H12099   9.798   9.099   8.026 -0.4957 -1.8650  0.8053
   90MOL0     H12100   9.658   9.172   8.114  0.2134 -0.5082  0.8562
   90MOL0     H12101   9.671   9.254   7.821 -1.2166 -0.4983  1.7559
   90MOL0     H12102   9.771   9.608   7.695  1.9661  0.8129  1.6818
   90MOL0     H12103   9.864   9.457   7.646 -0.3012  0.0988  2.5662
   90MOL0     H12104   9.693   9.343   7.571  4.9777  1.9620 -1.1699
   90MOL0     H12105   9.566   9.440   7.651 -0.5995 -3.3672 -0.7234
   90MOL0     H12106   9.762   9.506   7.422  0.2840  3.1147  1.0325
   90MOL0     H12107   9.640   9.617   7.504 -0.0287 -0.2677  2.6040
   90MOL0     H12108   9.563   9.350   7.361 -2.8089  0.0454  0.1763
   90MOL0     H12109   9.560   9.499   7.280 -2.8475 -0.1420 -0.3343
   90MOL0     H12110   9.404   9.374   7.185  0.5643  1.8679  1.4345
   90MOL0     H12111   9.170   9.303   7.071 -0.8223  0.0910 -0.1271
   90MOL0     H12112   8.872   9.376   6.843 -0.7355 -0.8751 -2.0429
   90MOL0     H12113   8.663   9.372   6.722  1.3800  0.8668  1.2887
   90MOL0     H12114   8.484   9.367   6.620  1.3981 -0.7333 -0.5091
   90MOL0     H12115   8.528   9.204   6.597 -1.6213  1.3490 -3.4947
   90MOL0     H12116   8.298   9.141   6.622 -2.8588  2.2696  2.5461
   90MOL0     H12117   8.251   9.312   6.600 -0.5410 -0.4611  2.1678
   90MOL0     H12118   8.418   9.164   6.387 -0.2587 -1.6983  0.7531
   90MOL0     H12119   8.253   9.165   6.395  0.5748 -0.0267 -1.5989
   90MOL0     H12120   8.429   9.416   6.384  0.4379  1.4241 -1.0028
   90MOL0     H12121   8.263   9.429   6.423  0.2298  0.8385  0.4260
   90MOL0     H12122   8.225   9.453   6.198 -1.6352 -0.8549 -1.1079
   90MOL0     H12123   8.214   9.280   6.211 -2.4377  2.1225 -3.7380
   90MOL0     H12124   8.475   9.419   6.141  1.6533 -0.2644 -0.9479
   90MOL0     H12125   8.435   9.250   6.122  1.7822 -0.6173 -0.8781
   90MOL0     H12126   8.414   9.362   5.900 -1.1929 -3.0859 -1.3649
   90MOL0     H12127   8.337   9.496   5.970 -0.3375  0.6720  1.4054
   90MOL0     H12128   8.208   9.216   5.921 -0.0289  0.5820 -2.6333
   90MOL0     H12129   8.120   9.351   6.013 -2.4877 -0.7952 -1.8814
   90MOL0     H12130   8.499   9.113   7.023 -1.3105  0.1887 -0.9670
   90MOL0     H12131   8.725   9.120   7.140 -1.5619  1.5873  0.5873
   90MOL0     H12132   8.982   9.443   7.426 -0.8514 -1.8704  0.1147
   90MOL0     H12133   9.185   9.517   7.508  1.8465  0.3937 -0.0638
   90MOL0     H12134   9.404   9.299   8.554 -0.5118  1.3046  0.7200
   90MOL0     H12135   9.242   9.118   8.560 -1.1527  0.3107  1.0280
   90MOL0     H12136   8.974   8.852   9.036  2.8263 -2.0958  1.2253
   90MOL0     H12137   8.833   8.644   9.022  0.7558 -0.3808 -0.8375
   90MOL0     H12138   8.815   8.320   8.735 -1.3261 -0.2115 -0.2366
   90MOL0     H12139   8.858   8.448   8.627  0.3058 -0.5063  0.9039
   90MOL0     H12140   8.575   8.410   8.712  0.9986  3.9247  1.8081
   90MOL0     H12141   8.646   8.309   8.583 -0.9175  1.3121 -0.2937
   90MOL0     H12142   8.700   8.525   8.469  0.0420  0.1473  0.4357
   90MOL0     H12143   8.610   8.614   8.588 -0.1313  0.8528 -1.2629
   90MOL0     H12144   8.484   8.392   8.419  0.5068  0.0358 -1.3223
   90MOL0     H12145   8.409   8.504   8.537 -2.7617 -0.6240 -3.0484
   90MOL0     H12146   8.404   8.773   8.231  1.6189 -1.1190 -1.0743
   90MOL0     H12147   8.867   8.674   8.590  1.5996  1.7856 -1.7192
   90MOL0     H12148   8.950   8.843   8.488 -1.0818 -0.1454  0.1279
   90MOL0     H12149   8.966   8.996   8.577 -0.3749 -0.8070 -1.2264
   90MOL0     H12150   9.109   8.900   8.541 -0.5325 -0.3194  0.6045
   91MOL0     O12151   6.698   5.488   2.055 -0.4682  1.0829 -0.3713
   91MOL0     C12152   6.789   5.565   2.105  0.2357  0.0213 -0.1205
   91MOL0     O12153   6.801   5.699   2.064 -0.0034  0.3547 -0.3275
   91MOL0     C12154   6.734   5.747   1.957  0.7867  0.2603  0.0931
   91MOL0     C12155   6.610   5.805   1.972 -0.3259 -0.4126 -0.5166
   91MOL0     C12156   6.540   5.858   1.869 -0.2988 -0.5095  0.0657
   91MOL0     C12157   6.589   5.844   1.734 -0.1954  0.8088  0.0959
   91MOL0     O12158   6.526   5.898   1.626  0.5000 -0.2734 -0.6146
   91MOL0     C12159   6.390   5.940   1.647 -0.2945 -0.5384 -0.1396
   91MOL0     C12160   6.398   6.099   1.632  0.1066  0.1001  1.0183
   91MOL0     C12161   6.252   6.171   1.652 -0.1721  0.4644  1.0487
   91MOL0     C12162   6.290   6.315   1.680  0.0395 -0.4763 -1.1175
   91MOL0     C12163   6.169   6.396   1.724  1.3489 -1.1766  0.3938
   91MOL0     C12164   6.220   6.543   1.753  1.0592 -0.0885  0.3778
   91MOL0     C12165   6.097   6.630   1.783 -0.0070  0.3063 -0.4169
   91MOL0     C12166   6.136   6.772   1.824 -0.2708 -0.0729 -0.2781
   91MOL0     N12167   6.181   6.855   1.714 -0.4816 -0.0121  0.5895
   91MOL0     C12168   6.099   6.916   1.630 -0.1274 -0.4210  0.4961
   91MOL0     C12169   6.166   7.017   1.572  0.6153  0.4219  0.3308
   91MOL0     C12170   6.107   7.100   1.460  1.2672  0.0781 -1.0898
   91MOL0     C12171   6.182   7.235   1.449 -0.4317 -0.3330 -0.3702
   91MOL0     C12172   6.312   7.235   1.370 -0.6471 -0.0205  0.9808
   91MOL0     C12173   6.294   7.208   1.219  0.1978  0.0153 -0.2561
   91MOL0     O12174   6.240   7.321   1.140  0.1552 -0.7333  0.1806
   91MOL0     C12175   6.318   7.391   1.050 -1.4002 -0.4932 -0.0964
   91MOL0     C12176   6.465   7.412   1.068 -0.9776 -0.1873  0.6134
   91MOL0     C12177   6.526   7.480   0.964 -0.5745  0.4427  0.4559
   91MOL0     C12178   6.466   7.520   0.843  0.3287 -0.4098 -0.2337
   91MOL0     C12179   6.553   7.580   0.740  0.1409 -0.1778  0.5426
   91MOL0     O12180   6.690   7.578   0.752 -0.7326 -0.0469  0.0311
   91MOL0     C12181   6.771   7.649   0.670  0.1597 -1.1760 -0.1029
   91MOL0     C12182   6.754   7.671   0.527  1.0199 -0.4437 -0.2673
   91MOL0     C12183   6.850   7.731   0.440 -0.1078 -0.0703  0.9982
   91MOL0     C12184   6.964   7.782   0.507  0.1116 -0.0086  0.6404
   91MOL0     O12185   7.070   7.841   0.428  0.8547  0.3925 -0.2627
   91MOL0     C12186   7.122   7.961   0.472  0.2027 -0.2921  0.0807
   91MOL0     C12187   7.270   7.944   0.514 -0.6891  0.2232 -0.0395
   91MOL0     C12188   7.329   8.066   0.565  0.5385 -1.1384 -0.7213
   91MOL0     C12189   7.483   8.063   0.569  0.1362 -0.0499 -0.0501
   91MOL0     C12190   7.541   8.198   0.613 -0.8967  0.0875  0.4808
   91MOL0     C12191   7.688   8.214   0.569 -0.8810  1.1448 -0.7533
   91MOL0     C12192   7.774   8.128   0.665 -0.0400  0.1743  0.3674
   91MOL0     C12193   7.907   8.087   0.598 -0.9986  0.5229  0.8159
   91MOL0    Cl12194   8.024   8.226   0.611  0.0019 -0.5134 -0.4982
   91MOL0     C12195   6.974   7.765   0.644 -0.1410  1.3949 -0.8430
   91MOL0     C12196   6.883   7.705   0.728  0.1986  0.5498 -0.2923
   91MOL0     O12197   6.486   7.645   0.653 -0.2425  0.2913  0.2524
   91MOL0     C12198   6.331   7.507   0.827 -0.0459  0.2621 -0.1497
   91MOL0     C12199   6.257   7.441   0.932 -0.2664 -0.0324  0.0441
   91MOL0     N12200   6.296   7.006   1.614 -0.7181 -0.1250 -0.1339
   91MOL0     N12201   6.297   6.914   1.708 -0.0090  0.9320  0.8336
   91MOL0     C12202   6.715   5.794   1.719  0.7707  0.2613  0.5749
   91MOL0     C12203   6.784   5.740   1.837 -0.5061  0.1617  0.6586
   91MOL0     C12204   6.872   5.518   2.221  0.2840  0.7390 -0.3356
   91MOL0     C12205   6.891   5.376   2.221  0.1009 -0.0256 -0.5939
   91MOL0     C12206   6.958   5.315   2.325 -0.1770 -0.5848  1.0024
   91MOL0     C12207   7.026   5.391   2.417 -0.0128  0.8003 -0.8506
   91MOL0     O12208   7.109   5.322   2.503 -0.5113 -0.4342 -0.1301
   91MOL0     C12209   7.095   5.346   2.646  0.7191  0.5185 -0.1627
   91MOL0     C12210   6.958   5.295   2.702 -0.8702 -0.0567  0.3082
   91MOL0     C12211   6.968   5.141   2.703  0.2518  1.0017  1.1983
   91MOL0     C12212   6.830   5.068   2.727  0.3652  0.1330  0.9484
   91MOL0     C12213   6.752   5.081   2.600 -0.4464 -0.2896 -0.2619
   91MOL0     C12214   6.697   5.101   2.494 -0.3016 -0.3077  0.2878
   91MOL0     C12215   7.006   5.527   2.418  0.5717 -0.1226 -0.5653
   91MOL0     C12216   6.935   5.596   2.319 -0.0354 -0.4853  0.8904
   91MOL0     C12217   6.906   5.749   2.322  0.8240 -0.2516 -0.0946
   91MOL0     H12218   6.553   5.804   2.065  0.0866 -0.7024 -0.2683
   91MOL0     H12219   6.436   5.877   1.893 -0.6825 -1.2725 -0.9101
   91MOL0     H12220   6.329   5.897   1.567  1.9779 -2.8851 -0.7444
   91MOL0     H12221   6.340   5.900   1.736  1.6489  0.8058  1.6295
   91MOL0     H12222   6.450   6.127   1.540  4.2021 -0.7848  2.8641
   91MOL0     H12223   6.468   6.126   1.711 -0.0938 -0.9058  1.5528
   91MOL0     H12224   6.190   6.136   1.736 -4.0057  3.2368 -0.3690
   91MOL0     H12225   6.186   6.166   1.565 -1.0469  1.8107  1.6044
   91MOL0     H12226   6.367   6.335   1.756 -2.3950  1.7789  0.9412
   91MOL0     H12227   6.328   6.359   1.588  2.1112 -1.5714 -0.8620
   91MOL0     H12228   6.093   6.388   1.645  3.3991  1.3544 -2.0774
   91MOL0     H12229   6.120   6.367   1.818 -3.0572  0.0069 -1.2495
   91MOL0     H12230   6.294   6.535   1.833  3.2396 -2.5575 -1.6957
   91MOL0     H12231   6.266   6.579   1.660  0.9667 -2.2588 -0.5826
   91MOL0     H12232   6.046   6.585   1.869 -1.0256  2.5940  0.2625
   91MOL0     H12233   6.023   6.636   1.702 -3.3451  1.9944  2.4597
   91MOL0     H12234   6.050   6.820   1.873 -0.8349 -4.0349  3.1885
   91MOL0     H12235   6.214   6.770   1.901 -2.4275  1.9061  2.1543
   91MOL0     H12236   5.998   6.890   1.600  0.5296  0.7035 -3.1575
   91MOL0     H12237   6.115   7.046   1.365 -0.5545 -1.5319 -0.3934
   91MOL0     H12238   5.999   7.110   1.477  1.5245  0.5966  0.3768
   91MOL0     H12239   6.115   7.306   1.400 -0.1283 -0.5300 -1.0860
   91MOL0     H12240   6.189   7.261   1.555  0.5344 -2.2399  0.0940
   91MOL0     H12241   6.386   7.166   1.412  1.0589  1.6972  0.9351
   91MOL0     H12242   6.359   7.334   1.376 -1.5923  0.4925  0.1889
   91MOL0     H12243   6.236   7.117   1.199  2.9980 -2.1697  1.0039
   91MOL0     H12244   6.392   7.172   1.188  0.2412 -1.0330  1.0231
   91MOL0     H12245   6.520   7.386   1.158 -1.3664 -4.7740 -0.2473
   91MOL0     H12246   6.633   7.495   0.973  0.2362 -2.6631 -1.9827
   91MOL0     H12247   6.671   7.621   0.476  1.8783 -0.3571 -1.8271
   91MOL0     H12248   6.847   7.736   0.331  3.6357 -0.4306  0.7235
   91MOL0     H12249   7.115   8.047   0.405 -1.4088 -0.0063  0.5652
   91MOL0     H12250   7.082   7.997   0.568 -0.0545  0.4318 -0.2910
   91MOL0     H12251   7.282   7.860   0.583  4.3039 -0.3079 -1.1920
   91MOL0     H12252   7.330   7.923   0.425  0.0753 -3.1801  1.1419
   91MOL0     H12253   7.286   8.157   0.522 -2.7626 -0.3917  3.5282
   91MOL0     H12254   7.300   8.089   0.668 -0.4726  1.8898 -1.5652
   91MOL0     H12255   7.507   8.029   0.468  0.9512 -0.9215  0.4223
   91MOL0     H12256   7.523   7.983   0.633  3.1928  1.6603  0.3479
   91MOL0     H12257   7.543   8.198   0.723 -0.4821  0.6861  0.4734
   91MOL0     H12258   7.487   8.280   0.566 -1.5657 -0.1538  0.8142
   91MOL0     H12259   7.700   8.180   0.466 -3.0496  1.1770 -1.0749
   91MOL0     H12260   7.725   8.317   0.569  3.3151 -0.1587  0.0302
   91MOL0     H12261   7.724   8.037   0.699 -0.6900  0.9025  1.3980
   91MOL0     H12262   7.802   8.186   0.753  0.3314 -2.1875  1.8995
   91MOL0     H12263   7.946   8.002   0.655 -0.7756  0.7291  0.9751
   91MOL0     H12264   7.889   8.062   0.493 -2.8310  0.1805  1.1821
   91MOL0     H12265   7.061   7.802   0.697 -0.1891 -0.1487  0.3684
   91MOL0     H12266   6.894   7.699   0.835  3.2281 -1.0002 -0.5854
   91MOL0     H12267   6.267   7.530   0.742 -0.7910  0.4850  0.4592
   91MOL0     H12268   6.150   7.429   0.915  0.1003 -2.8540 -0.7864
   91MOL0     H12269   6.773   5.779   1.629  2.3329 -1.6181  1.8054
   91MOL0     H12270   6.876   5.689   1.812 -0.6760  0.6455 -1.0480
   91MOL0     H12271   6.861   5.312   2.138  2.9693 -1.2777 -0.8143
   91MOL0     H12272   6.957   5.206   2.319 -4.1859 -0.6626 -3.1557
   91MOL0     H12273   7.102   5.454   2.663 -0.2932  0.6009 -0.2448
   91MOL0     H12274   7.175   5.308   2.710  0.4506  1.1246  0.5463
   91MOL0     H12275   6.868   5.327   2.649  0.1178  1.6893 -0.4149
   91MOL0     H12276   6.961   5.338   2.802  0.2509 -0.0400  0.2855
   91MOL0     H12277   7.030   5.095   2.780  1.3560  2.7013  1.3631
   91MOL0     H12278   7.008   5.100   2.609 -2.7770 -1.6187  0.8922
   91MOL0     H12279   6.844   4.961   2.746 -0.7781  0.2695  2.7994
   91MOL0     H12280   6.777   5.119   2.808  0.4539  3.7023 -1.0082
   91MOL0     H12281   6.648   5.103   2.398  0.9169 -0.8883 -0.3656
   91MOL0     H12282   7.050   5.601   2.484  0.1701  2.1630 -2.6791
   91MOL0     H12283   6.801   5.773   2.302  1.5005  1.9446 -1.4600
   91MOL0     H12284   6.937   5.799   2.414 -3.1813  1.3186  0.6156
   91MOL0     H12285   6.960   5.795   2.238 -2.1442  0.7288 -1.6131
   92MOL0     O12286   4.273   5.991   5.822  0.3421  0.2836 -0.3414
   92MOL0     C12287   4.221   6.012   5.922  0.5374 -0.2690 -0.2895
   92MOL0     O12288   4.238   5.940   6.032 -0.2947  0.4719 -0.6425
   92MOL0     C12289   4.295   5.821   6.028 -0.5488  0.2608 -0.4538
   92MOL0     C12290   4.436   5.806   6.015 -0.4431  0.3696  0.6343
   92MOL0     C12291   4.500   5.683   6.022  0.4206  0.0433 -0.2186
   92MOL0     C12292   4.426   5.562   6.046  0.8234 -0.3569 -0.2420
   92MOL0     O12293   4.471   5.436   6.072  0.3268 -0.4593  0.1804
   92MOL0     C12294   4.604   5.391   6.058 -0.1450 -1.0542  0.2949
   92MOL0     C12295   4.628   5.351   5.919  0.5263 -0.1198 -0.1922
   92MOL0     C12296   4.768   5.303   5.909 -0.4176 -0.4741 -0.3334
   92MOL0     C12297   4.809   5.247   5.780 -0.4291  0.0346  0.2524
   92MOL0     C12298   4.955   5.189   5.776 -0.4371  0.5665  0.1927
   92MOL0     C12299   4.998   5.158   5.629  0.0454  0.1505  0.6094
   92MOL0     C12300   5.115   5.056   5.617 -0.0443 -0.3546  0.5805
   92MOL0     C12301   5.076   4.920   5.665 -0.4570  0.7083 -0.1813
   92MOL0     N12302   4.995   4.837   5.577  0.3260 -0.1524  0.5747
   92MOL0     C12303   5.017   4.713   5.547  0.0476  0.2529 -0.0296
   92MOL0     C12304   4.899   4.664   5.495 -0.5650 -0.3780  0.1448
   92MOL0     C12305   4.875   4.520   5.473  0.2247  0.0227 -0.5008
   92MOL0     C12306   4.769   4.486   5.585 -1.0485  0.1736 -0.0814
   92MOL0     C12307   4.633   4.518   5.543  0.4966 -0.0735 -0.0404
   92MOL0     C12308   4.536   4.440   5.633 -0.8557  0.5113  0.1085
   92MOL0     O12309   4.400   4.490   5.622 -0.6442  0.2683  0.1080
   92MOL0     C12310   4.300   4.427   5.692  0.4429 -0.3069 -0.2401
   92MOL0     C12311   4.321   4.321   5.778 -0.2400  0.7706  0.3699
   92MOL0     C12312   4.215   4.252   5.836 -0.5510 -0.0447  0.3217
   92MOL0     C12313   4.088   4.316   5.841  0.1489 -0.3208  0.4800
   92MOL0     C12314   3.969   4.267   5.914  0.0194  0.1247 -0.3473
   92MOL0     O12315   3.864   4.357   5.939  0.1853 -0.7186  0.2311
   92MOL0     C12316   3.732   4.307   5.951 -0.3043 -0.2900  0.2607
   92MOL0     C12317   3.689   4.183   5.914 -0.6356  1.1988 -0.1267
   92MOL0     C12318   3.557   4.140   5.919  0.3656 -0.1378  0.2256
   92MOL0     C12319   3.452   4.223   5.959 -0.1234  0.2902  0.7904
   92MOL0     O12320   3.322   4.180   5.946  0.4397 -0.6356  0.0046
   92MOL0     C12321   3.218   4.277   5.962  0.3117 -0.6080  1.5380
   92MOL0     C12322   3.079   4.228   5.914 -0.4876 -0.1681  0.1777
   92MOL0     C12323   2.951   4.305   5.955  0.1153 -0.5902  0.2050
   92MOL0     C12324   2.964   4.457   5.920 -0.4971  1.1564 -0.3936
   92MOL0     C12325   2.831   4.525   5.966  0.7411  0.6691  1.0493
   92MOL0     C12326   2.819   4.669   5.897  0.9313 -1.0709  1.4508
   92MOL0     C12327   2.740   4.683   5.766  0.7473  0.3756  1.3065
   92MOL0     C12328   2.827   4.652   5.642  0.3888  0.0301 -0.2860
   92MOL0    Cl12329   2.706   4.633   5.508  0.0610  0.1959  0.8715
   92MOL0     C12330   3.495   4.355   6.002 -0.0693 -0.1230 -0.4294
   92MOL0     C12331   3.627   4.396   5.997 -0.4215 -0.1218 -0.3202
   92MOL0     O12332   3.978   4.148   5.943 -0.1942  0.1413  0.5305
   92MOL0     C12333   4.065   4.426   5.751 -0.2209 -0.1796 -0.2445
   92MOL0     C12334   4.163   4.475   5.667 -0.8040 -0.4611 -0.6609
   92MOL0     N12335   4.811   4.770   5.490  0.7878  0.4288 -1.1769
   92MOL0     N12336   4.866   4.871   5.535 -0.3711 -0.0861 -0.4862
   92MOL0     C12337   4.286   5.576   6.062  0.1893  0.2780  0.0626
   92MOL0     C12338   4.224   5.703   6.057 -0.5491  0.4220  0.0072
   92MOL0     C12339   4.133   6.135   5.934 -0.8593 -1.0207  0.6239
   92MOL0     C12340   4.129   6.228   5.828  0.5447  0.3313 -0.7974
   92MOL0     C12341   4.034   6.332   5.827 -0.0731  0.2999 -0.8667
   92MOL0     C12342   3.950   6.351   5.931 -0.7134 -0.3543  0.0767
   92MOL0     O12343   3.874   6.466   5.937 -0.2950  0.2193 -0.2772
   92MOL0     C12344   3.841   6.546   5.817  0.1734 -0.7922  0.0306
   92MOL0     C12345   3.699   6.594   5.834  0.3707  0.9054  0.7506
   92MOL0     C12346   3.690   6.667   5.967 -0.1771 -0.1069  0.5339
   92MOL0     C12347   3.552   6.732   5.979  0.0630  0.2383 -1.1606
   92MOL0     C12348   3.551   6.832   6.090 -0.2015  0.2744 -0.0735
   92MOL0     C12349   3.535   6.910   6.182 -0.8748 -0.8948 -0.3419
   92MOL0     C12350   3.957   6.265   6.041 -0.3839  0.9881  0.7669
   92MOL0     C12351   4.044   6.156   6.036 -0.2557  0.7454  0.2237
   92MOL0     C12352   4.014   6.051   6.148  0.1039 -0.6198  0.5839
   92MOL0     H12353   4.487   5.892   5.973 -0.1304 -0.5833 -1.0456
   92MOL0     H12354   4.607   5.662   6.021  0.1291 -1.5353 -0.7513
   92MOL0     H12355   4.682   5.466   6.075  0.7072 -1.8580 -0.0104
   92MOL0     H12356   4.623   5.296   6.108  1.6733 -0.0849  1.5953
   92MOL0     H12357   4.609   5.434   5.850  1.5910  0.4320  0.1718
   92MOL0     H12358   4.564   5.264   5.897  0.9266 -0.1324 -1.3849
   92MOL0     H12359   4.780   5.221   5.980 -4.7781 -0.5238  0.6163
   92MOL0     H12360   4.836   5.382   5.941  1.4944 -1.9106 -0.6553
   92MOL0     H12361   4.739   5.168   5.752  0.7986 -1.0363  0.0811
   92MOL0     H12362   4.802   5.325   5.703  3.5798 -1.8426 -2.3640
   92MOL0     H12363   5.024   5.253   5.831 -2.9085  3.4649  0.1995
   92MOL0     H12364   4.956   5.096   5.832  1.2429  0.6740  0.3754
   92MOL0     H12365   4.921   5.110   5.567  1.9216  0.3645 -2.0939
   92MOL0     H12366   5.021   5.251   5.578 -1.3626  0.7291  0.9880
   92MOL0     H12367   5.206   5.082   5.672 -0.1784 -0.6278  0.9368
   92MOL0     H12368   5.134   5.060   5.510 -2.7161  0.2702  0.0441
   92MOL0     H12369   5.165   4.869   5.704  0.3506  3.0544  1.2685
   92MOL0     H12370   5.010   4.939   5.751  0.8994  1.0840  0.8096
   92MOL0     H12371   5.105   4.658   5.579 -0.0561  0.8883  1.4168
   92MOL0     H12372   4.827   4.500   5.377 -1.1129 -0.0548  0.1667
   92MOL0     H12373   4.959   4.452   5.491 -0.8998 -1.0540  0.9064
   92MOL0     H12374   4.780   4.382   5.618  2.2227 -0.2593 -2.1141
   92MOL0     H12375   4.799   4.549   5.669  0.8767 -1.1005  0.2311
   92MOL0     H12376   4.617   4.484   5.441  0.7382 -0.2582 -0.0173
   92MOL0     H12377   4.621   4.626   5.555 -0.0575 -0.3088  1.9920
   92MOL0     H12378   4.571   4.464   5.734  1.2323 -1.1221 -0.1399
   92MOL0     H12379   4.553   4.333   5.615  0.3322  0.9326 -1.5802
   92MOL0     H12380   4.419   4.276   5.791  0.0151 -0.5622 -4.3060
   92MOL0     H12381   4.233   4.165   5.899 -1.4275 -0.6383 -0.2176
   92MOL0     H12382   3.758   4.112   5.871 -1.6988  0.2666 -0.3346
   92MOL0     H12383   3.524   4.046   5.877 -2.2308  1.8503 -2.6677
   92MOL0     H12384   3.212   4.301   6.068  0.4405  0.5229  1.3039
   92MOL0     H12385   3.244   4.373   5.917  0.8462 -1.8559 -1.0536
   92MOL0     H12386   3.083   4.228   5.805  0.1374  3.1048  0.1143
   92MOL0     H12387   3.078   4.124   5.949 -0.2664 -1.0140 -2.1634
   92MOL0     H12388   2.865   4.254   5.911 -0.2990 -2.2611  2.7684
   92MOL0     H12389   2.940   4.304   6.064 -1.2084 -4.8117  0.2053
   92MOL0     H12390   2.982   4.456   5.812  2.1101 -2.6793 -0.1226
   92MOL0     H12391   3.054   4.503   5.964 -0.3077  2.3560 -1.9412
   92MOL0     H12392   2.821   4.526   6.074 -4.8508  0.6785  0.8014
   92MOL0     H12393   2.747   4.463   5.933  1.5398  0.3767 -0.5870
   92MOL0     H12394   2.771   4.737   5.967 -1.0284 -2.0960  1.1796
   92MOL0     H12395   2.913   4.714   5.865  0.6569 -3.9045 -4.8045
   92MOL0     H12396   2.715   4.790   5.758 -2.4773 -0.2095  1.9749
   92MOL0     H12397   2.645   4.630   5.768  1.1311 -0.4307 -0.4158
   92MOL0     H12398   2.895   4.734   5.615  1.9879 -0.6992  1.3209
   92MOL0     H12399   2.890   4.563   5.648  1.7525  1.0795  2.0505
   92MOL0     H12400   3.430   4.439   6.026 -0.0827 -0.0675 -0.6606
   92MOL0     H12401   3.653   4.499   6.018  3.4303 -0.6088 -1.8541
   92MOL0     H12402   3.976   4.487   5.737 -0.5397 -1.0147 -2.1584
   92MOL0     H12403   4.138   4.553   5.596 -1.5426 -0.3578 -0.2968
   92MOL0     H12404   4.225   5.486   6.070  2.2065 -1.2381 -0.6655
   92MOL0     H12405   4.117   5.701   6.073 -0.3765 -1.7916  1.3663
   92MOL0     H12406   4.183   6.215   5.734 -0.0703 -1.8066 -0.9065
   92MOL0     H12407   4.039   6.390   5.736 -0.4244  3.3498  0.9247
   92MOL0     H12408   3.837   6.486   5.725 -0.3443  0.2411 -0.6378
   92MOL0     H12409   3.906   6.633   5.809  0.6894 -0.5812  4.3329
   92MOL0     H12410   3.632   6.510   5.815 -0.7332  1.5912  1.5368
   92MOL0     H12411   3.688   6.666   5.753  0.0859  0.8188  0.7132
   92MOL0     H12412   3.768   6.742   5.982 -2.3685  1.7967  3.7155
   92MOL0     H12413   3.703   6.600   6.053  0.2450  2.1735  2.3292
   92MOL0     H12414   3.520   6.774   5.883 -0.1950 -0.0055 -1.1829
   92MOL0     H12415   3.487   6.652   6.016  1.9573 -0.3769  1.0867
   92MOL0     H12416   3.507   6.992   6.245 -2.6246 -1.3997 -0.3944
   92MOL0     H12417   3.894   6.291   6.126  1.5703  0.3496  2.4784
   92MOL0     H12418   4.107   6.025   6.201  1.8384 -0.0880 -2.0353
   92MOL0     H12419   3.937   6.096   6.211  0.7176  1.7868 -0.2915
   92MOL0     H12420   3.959   5.965   6.110 -4.7090  2.0169  0.8784
   93MOL0     O12421   9.978  10.096   9.860  0.4164 -0.4629 -0.8041
   93MOL0     C12422  10.087  10.043   9.834  0.2511  1.4344 -0.0128
   93MOL0     O12423  10.193  10.104   9.780 -0.1044  0.1804  0.1233
   93MOL0     C12424  10.170  10.227   9.710 -0.1588 -0.3492 -0.2181
   93MOL0     C12425  10.260  10.338   9.737  1.1982  0.0375 -0.8832
   93MOL0     C12426  10.249  10.462   9.658  0.3652  0.0356 -1.3810
   93MOL0     C12427  10.150  10.474   9.564  0.5213  0.3738  0.3028
   93MOL0     O12428  10.145  10.598   9.507 -0.0642  0.2510 -0.3111
   93MOL0     C12429  10.055  10.620   9.397  0.0072 -0.7280  0.2276
   93MOL0     C12430  10.054  10.771   9.358 -0.2454 -0.9563 -0.2154
   93MOL0     C12431  10.011  10.816   9.217  0.6232  0.2470  0.4162
   93MOL0     C12432   9.909  10.720   9.152 -0.2098  0.2052  0.5940
   93MOL0     C12433   9.923  10.716   9.006 -0.3816 -0.4335  0.4698
   93MOL0     C12434   9.802  10.637   8.952 -0.7060 -0.4597  0.1998
   93MOL0     C12435   9.829  10.599   8.808 -0.1724  0.5049 -0.6331
   93MOL0     C12436   9.739  10.482   8.755 -0.3713  0.1341 -0.5404
   93MOL0     N12437   9.595  10.510   8.716  0.0735  0.3462  0.2122
   93MOL0     C12438   9.565  10.554   8.589 -0.7054  0.0454  0.1301
   93MOL0     C12439   9.430  10.544   8.588  0.5939 -0.3409 -0.0130
   93MOL0     C12440   9.332  10.591   8.486  0.7248  0.3865  1.0026
   93MOL0     C12441   9.341  10.500   8.360 -0.1196 -0.5259  0.4904
   93MOL0     C12442   9.239  10.518   8.247  0.2636 -0.3539  0.9082
   93MOL0     C12443   9.256  10.409   8.136  0.0014 -0.1828 -0.4527
   93MOL0     O12444   9.183  10.450   8.020 -0.6566 -0.7038 -0.5955
   93MOL0     C12445   9.173  10.344   7.930  0.3724 -0.2965 -0.7241
   93MOL0     C12446   9.079  10.358   7.825 -0.3480 -0.0305  0.1637
   93MOL0     C12447   9.061  10.251   7.734 -0.0561  0.1051  0.0739
   93MOL0     C12448   9.128  10.131   7.746 -0.2445 -0.0749 -0.2533
   93MOL0     C12449   9.100  10.027   7.651  0.4159 -0.4066  0.4330
   93MOL0     O12450   9.027  10.064   7.548  0.2158 -0.0284  0.2207
   93MOL0     C12451   9.008   9.981   7.438 -0.0327  0.4623 -0.4630
   93MOL0     C12452   8.986   9.841   7.429  0.2855  0.1760 -0.7929
   93MOL0     C12453   8.992   9.774   7.305  0.2711 -0.5163 -0.2824
   93MOL0     C12454   8.986   9.839   7.185 -0.2585  0.2383  0.0962
   93MOL0     O12455   8.982   9.766   7.069  0.1474  0.1197  0.1821
   93MOL0     C12456   8.987   9.829   6.935 -0.4701  0.3498 -0.8036
   93MOL0     C12457   8.845   9.849   6.891 -0.5533  0.3927 -0.2396
   93MOL0     C12458   8.752   9.726   6.911  0.1646  0.5458 -0.4396
   93MOL0     C12459   8.604   9.756   6.911 -1.4161  0.4160 -0.1811
   93MOL0     C12460   8.512   9.620   6.896  0.3770  0.3171 -0.5284
   93MOL0     C12461   8.364   9.664   6.912 -1.2712  0.0246  0.9178
   93MOL0     C12462   8.267   9.548   6.928  0.4303  0.0992 -0.2846
   93MOL0     C12463   8.121   9.590   6.910 -0.2020 -1.0074 -0.1346
   93MOL0    Cl12464   8.077   9.750   6.967  0.2678 -0.2680 -0.2799
   93MOL0     C12465   9.004   9.974   7.192 -0.3274 -0.0531 -0.3464
   93MOL0     C12466   9.003  10.049   7.314 -0.1349 -0.2000 -0.2476
   93MOL0     O12467   9.164   9.926   7.664 -0.2236 -0.0686 -0.9346
   93MOL0     C12468   9.231  10.126   7.841  0.0784 -0.0465 -0.9950
   93MOL0     C12469   9.259  10.234   7.923  0.9769  0.1477  0.4823
   93MOL0     N12470   9.387  10.472   8.704 -0.1264 -0.6480  0.7273
   93MOL0     N12471   9.491  10.452   8.779 -0.3464  0.1934  0.5455
   93MOL0     C12472  10.057  10.365   9.542  0.1437 -0.5840  0.4611
   93MOL0     C12473  10.071  10.246   9.611  0.3546  0.7261  1.3680
   93MOL0     C12474  10.113   9.901   9.865 -0.5549 -0.7284 -0.5419
   93MOL0     C12475  10.199   9.822   9.781  1.0664  0.9639  0.0829
   93MOL0     C12476  10.209   9.684   9.799  0.3983  1.0826 -0.0048
   93MOL0     C12477  10.127   9.617   9.881 -0.4613  0.9034 -0.2121
   93MOL0     O12478  10.127   9.481   9.890 -0.4521  0.4596 -0.4856
   93MOL0     C12479  10.142   9.410  10.014  0.0666  0.4317 -0.3162
   93MOL0     C12480  10.283   9.406  10.076 -0.3693  0.2360 -0.8644
   93MOL0     C12481  10.390   9.352   9.982  0.1282  0.4989 -0.4942
   93MOL0     C12482  10.531   9.348  10.047  0.1386 -0.2934 -0.0329
   93MOL0     C12483  10.618   9.278   9.952  0.5864  0.1139 -0.9374
   93MOL0     C12484  10.703   9.217   9.890  0.0411  0.1068 -0.2872
   93MOL0     C12485  10.054   9.692   9.964 -1.1953  0.9937  0.4526
   93MOL0     C12486  10.042   9.829   9.960 -0.3051 -0.7247  0.9186
   93MOL0     C12487   9.941   9.894  10.057 -1.1687  0.1890  0.3245
   93MOL0     H12488  10.337  10.324   9.812 -1.0433 -0.6480  1.4191
   93MOL0     H12489  10.323  10.536   9.686 -1.9109  1.4065  1.5684
   93MOL0     H12490  10.100  10.560   9.318  2.0903 -0.0680  0.8403
   93MOL0     H12491   9.952  10.588   9.414  0.2395 -0.3969  2.6744
   93MOL0     H12492  10.149  10.824   9.371 -0.4337 -0.7923  0.5337
   93MOL0     H12493   9.986  10.824   9.426  3.1307 -1.1467  3.7279
   93MOL0     H12494  10.098  10.818   9.151 -0.4832  1.7579 -1.0729
   93MOL0     H12495   9.965  10.915   9.213  2.8306  1.3276  0.2828
   93MOL0     H12496   9.927  10.615   9.176 -2.2421  0.0061  1.4539
   93MOL0     H12497   9.805  10.750   9.167 -1.2065 -0.9706 -2.8791
   93MOL0     H12498   9.938  10.819   8.974  3.2510  0.0566  3.1106
   93MOL0     H12499  10.014  10.656   8.989  1.8189  2.6176  0.6475
   93MOL0     H12500   9.789  10.548   9.014 -0.5238 -1.8256 -1.6379
   93MOL0     H12501   9.717  10.706   8.954 -0.1381  0.2815 -0.6442
   93MOL0     H12502   9.929  10.554   8.802 -0.3363 -0.1404  1.0113
   93MOL0     H12503   9.831  10.686   8.742 -1.5702  1.1963  0.1985
   93MOL0     H12504   9.797  10.448   8.668  1.2135  2.0986 -0.3137
   93MOL0     H12505   9.747  10.409   8.836 -0.0548  0.3737 -0.3540
   93MOL0     H12506   9.633  10.603   8.521 -0.7060 -1.6224 -1.1162
   93MOL0     H12507   9.230  10.589   8.527  0.3972  0.5404  0.2117
   93MOL0     H12508   9.362  10.695   8.470  0.8444  0.0102 -1.6106
   93MOL0     H12509   9.441  10.511   8.316 -0.8296 -0.2737 -1.1610
   93MOL0     H12510   9.333  10.401   8.405  0.8518 -1.3897 -1.1156
   93MOL0     H12511   9.261  10.615   8.201 -1.2259 -1.6039 -2.8083
   93MOL0     H12512   9.140  10.518   8.293  1.4231 -1.1763  3.6173
   93MOL0     H12513   9.201  10.321   8.171  2.4229 -1.5541  0.0956
   93MOL0     H12514   9.361  10.390   8.112 -0.7556 -0.1122 -4.4496
   93MOL0     H12515   9.028  10.453   7.830 -0.4165  0.2741 -3.7945
   93MOL0     H12516   8.985  10.268   7.659 -1.4089 -0.6759  1.2420
   93MOL0     H12517   8.973   9.784   7.520 -1.5641  0.1048 -1.0716
   93MOL0     H12518   9.003   9.666   7.298  0.6161 -0.5354  0.4819
   93MOL0     H12519   9.048   9.919   6.937  2.2444 -1.3478  1.6941
   93MOL0     H12520   9.036   9.771   6.857  2.7813  0.2607  1.1272
   93MOL0     H12521   8.798   9.943   6.924 -1.8090  0.4491 -2.0985
   93MOL0     H12522   8.857   9.860   6.783 -1.6607 -5.0052 -1.1494
   93MOL0     H12523   8.777   9.664   6.824  0.5367  1.9185 -1.3481
   93MOL0     H12524   8.777   9.669   7.001  1.6703  1.4542 -0.2647
   93MOL0     H12525   8.578   9.832   6.836  0.3700 -3.3483 -5.1838
   93MOL0     H12526   8.584   9.795   7.011  0.6499  0.6802  0.1736
   93MOL0     H12527   8.536   9.547   6.974 -0.7541  1.9946  1.4884
   93MOL0     H12528   8.523   9.567   6.801  1.2055 -1.6594  0.6190
   93MOL0     H12529   8.350   9.727   7.000 -0.4789  2.1816 -0.3898
   93MOL0     H12530   8.342   9.721   6.821 -0.0157 -0.7405  0.1060
   93MOL0     H12531   8.281   9.515   7.031  0.2413 -0.0236 -0.2982
   93MOL0     H12532   8.295   9.467   6.860  2.5799 -0.1853  0.8394
   93MOL0     H12533   8.089   9.584   6.805 -2.0679 -0.5248  0.3702
   93MOL0     H12534   8.057   9.519   6.964 -4.2270  0.3224 -2.7157
   93MOL0     H12535   9.016  10.032   7.101  1.8656 -1.0943 -0.8089
   93MOL0     H12536   8.999  10.157   7.312 -3.8064 -0.1569  1.6426
   93MOL0     H12537   9.296  10.039   7.847 -0.0563 -0.1258 -0.6394
   93MOL0     H12538   9.353  10.218   7.976  0.7472  3.1011  2.0554
   93MOL0     H12539   9.982  10.372   9.464  0.9420 -2.1095 -0.4997
   93MOL0     H12540   9.997  10.173   9.579 -1.1888  2.6071  0.4361
   93MOL0     H12541  10.244   9.872   9.696 -2.4746  0.9743 -1.9927
   93MOL0     H12542  10.264   9.626   9.726 -0.7460 -0.5289  0.3531
   93MOL0     H12543  10.104   9.309   9.995 -0.2747  0.5842 -0.4428
   93MOL0     H12544  10.070   9.440  10.090  0.0283  1.1674 -0.6380
   93MOL0     H12545  10.287   9.340  10.164  2.2226  2.3288  0.7380
   93MOL0     H12546  10.300   9.508  10.111  1.8390  0.5288 -2.6368
   93MOL0     H12547  10.407   9.418   9.897  1.7888  3.4427  1.9047
   93MOL0     H12548  10.358   9.252   9.952 -0.7507  0.6284 -0.0016
   93MOL0     H12549  10.577   9.446  10.060  1.5923 -0.9394 -0.1349
   93MOL0     H12550  10.540   9.291  10.140 -0.9441 -0.0376  0.2476
   93MOL0     H12551  10.782   9.164   9.841  2.2302  0.7357  2.3242
   93MOL0     H12552   9.987   9.645  10.035 -2.0360 -1.9794 -2.1007
   93MOL0     H12553   9.848   9.885  10.000 -0.5498  1.0263 -0.8794
   93MOL0     H12554   9.928   9.849  10.155 -4.5021  1.2705  0.5118
   93MOL0     H12555   9.982   9.995  10.069  1.5260 -0.5414 -1.6837
   94MOL0     O12556   2.102  11.127  10.526  0.4244  0.0056 -0.3158
   94MOL0     C12557   1.990  11.173  10.493 -0.0402 -0.4810  0.4546
   94MOL0     O12558   1.918  11.251  10.584 -0.2724 -0.2213 -0.1228
   94MOL0     C12559   1.942  11.211  10.714  0.6818  0.0437  0.3480
   94MOL0     C12560   1.872  11.113  10.774  0.1898  0.6162  0.1852
   94MOL0     C12561   1.900  11.076  10.908  0.0278  1.5181 -0.2414
   94MOL0     C12562   2.009  11.138  10.981  0.3073  0.7043  1.0567
   94MOL0     O12563   2.043  11.115  11.117 -0.7165  0.1733  0.3535
   94MOL0     C12564   1.956  11.063  11.214  0.7227 -0.4699  0.4820
   94MOL0     C12565   1.983  11.102  11.355  0.3287 -0.3386  0.7145
   94MOL0     C12566   2.006  11.249  11.391 -0.0385  0.2408 -0.2454
   94MOL0     C12567   1.999  11.263  11.541 -0.2594  0.7463 -1.2741
   94MOL0     C12568   2.036  11.410  11.589  0.5897 -0.7553  1.0743
   94MOL0     C12569   1.928  11.520  11.550  0.1020  0.2948  0.3125
   94MOL0     C12570   1.779  11.490  11.582 -0.9577  0.1791 -0.6301
   94MOL0     C12571   1.759  11.445  11.720 -0.1178 -0.0231  0.0105
   94MOL0     N12572   1.810  11.546  11.808 -0.9606 -0.4250 -0.5406
   94MOL0     C12573   1.746  11.670  11.817 -0.2130  0.7084 -0.1416
   94MOL0     C12574   1.817  11.738  11.913  0.5701  0.8979  0.3487
   94MOL0     C12575   1.806  11.886  11.920 -0.0816  0.0776  0.1800
   94MOL0     C12576   1.659  11.935  11.954  0.5442  1.0832 -0.2286
   94MOL0     C12577   1.645  12.083  12.002  0.5750  0.6141  1.4462
   94MOL0     C12578   1.707  12.185  11.907 -0.4015  0.1722  0.9375
   94MOL0     O12579   1.846  12.177  11.898 -0.3981 -0.1656  0.4831
   94MOL0     C12580   1.918  12.279  11.849 -0.5085  1.2663 -0.7298
   94MOL0     C12581   1.869  12.394  11.784  0.0712 -0.8033  0.1930
   94MOL0     C12582   1.958  12.477  11.718 -1.1793 -0.0281  0.2936
   94MOL0     C12583   2.095  12.442  11.698  0.3798 -0.1067 -0.1589
   94MOL0     C12584   2.184  12.532  11.617  0.1396  0.6236 -0.6244
   94MOL0     O12585   2.125  12.630  11.546 -0.4307 -0.5601  0.3392
   94MOL0     C12586   2.196  12.710  11.468 -0.3753  0.0050  0.5495
   94MOL0     C12587   2.263  12.655  11.359 -0.6500  0.1390  0.0588
   94MOL0     C12588   2.339  12.734  11.261 -0.1394  0.8525  0.7048
   94MOL0     C12589   2.343  12.866  11.276  0.4214 -0.0752 -0.7944
   94MOL0     O12590   2.410  12.947  11.191 -1.7886  0.0637 -0.1609
   94MOL0     C12591   2.495  12.890  11.092  0.1335 -0.3140  0.3437
   94MOL0     C12592   2.559  13.009  11.022 -0.8222 -0.0396  0.8118
   94MOL0     C12593   2.655  13.088  11.112 -0.6140  0.8954 -0.2187
   94MOL0     C12594   2.711  13.210  11.039  0.8377 -0.1547 -0.1873
   94MOL0     C12595   2.818  13.274  11.125  0.4514 -0.6887 -0.1092
   94MOL0     C12596   2.865  13.405  11.056 -0.7172 -0.4301 -0.0132
   94MOL0     C12597   2.953  13.473  11.157 -0.0187 -0.0565  0.5812
   94MOL0     C12598   3.061  13.561  11.077  1.3089 -1.4429  0.2277
   94MOL0    Cl12599   3.182  13.481  10.975  0.2520 -0.2170  0.1414
   94MOL0     C12600   2.282  12.926  11.388 -0.7593 -0.1928  0.3165
   94MOL0     C12601   2.215  12.848  11.489 -0.3221 -0.6131  0.2954
   94MOL0     O12602   2.304  12.518  11.621 -0.0610  0.1710  0.6328
   94MOL0     C12603   2.140  12.328  11.777  1.3137  0.1385  0.4870
   94MOL0     C12604   2.052  12.246  11.844  0.3504 -0.2509  0.5262
   94MOL0     N12605   1.909  11.653  11.955  0.0152  0.2957 -1.0187
   94MOL0     N12606   1.905  11.539  11.904  0.5826  0.7544  0.4177
   94MOL0     C12607   2.074  11.235  10.915 -0.0841  0.0146 -0.2963
   94MOL0     C12608   2.042  11.273  10.789 -0.8352 -0.6657  0.3032
   94MOL0     C12609   1.962  11.180  10.342 -0.5261  1.0512 -0.6135
   94MOL0     C12610   2.075  11.158  10.253 -0.5048  0.2818 -0.2845
   94MOL0     C12611   2.051  11.141  10.121 -0.6693 -0.0910  0.1413
   94MOL0     C12612   1.929  11.147  10.062  0.3821 -1.1093 -0.7864
   94MOL0     O12613   1.913  11.134   9.925 -0.0667 -0.1204 -0.7123
   94MOL0     C12614   1.833  11.021   9.893  0.4784 -0.2591 -0.5100
   94MOL0     C12615   1.924  10.919   9.847  0.2257 -0.5802 -0.3053
   94MOL0     C12616   1.861  10.805   9.773  0.1085  0.1154  0.4853
   94MOL0     C12617   1.767  10.834   9.655  0.2721  0.5307 -0.1803
   94MOL0     C12618   1.828  10.914   9.554 -0.1244 -0.2446 -0.5845
   94MOL0     C12619   1.870  10.972   9.456  0.0237  0.2056  0.1554
   94MOL0     C12620   1.829  11.185  10.147  0.7607  0.9539 -0.8354
   94MOL0     C12621   1.836  11.187  10.285 -0.5357  0.5400  0.3044
   94MOL0     C12622   1.715  11.194  10.377  0.6185  0.6694  1.1081
   94MOL0     H12623   1.810  11.053  10.710 -0.8733  1.4356  0.4207
   94MOL0     H12624   1.836  10.994  10.939  1.6504 -0.7095 -2.4862
   94MOL0     H12625   1.860  11.106  11.186  0.6322 -2.2257 -2.2346
   94MOL0     H12626   1.947  10.954  11.214  0.1889 -0.4319 -0.4660
   94MOL0     H12627   2.081  11.059  11.378  0.5672 -0.4925 -0.5411
   94MOL0     H12628   1.898  11.067  11.414 -0.2664  1.2897  0.8543
   94MOL0     H12629   1.943  11.312  11.329  2.1983  0.2894 -2.6512
   94MOL0     H12630   2.107  11.282  11.364 -0.7838  1.3300 -1.8312
   94MOL0     H12631   1.902  11.231  11.580 -0.1374  0.5185 -1.1581
   94MOL0     H12632   2.071  11.199  11.593 -2.8045 -0.5113  0.9487
   94MOL0     H12633   2.039  11.412  11.699 -2.8329  0.6151  1.2787
   94MOL0     H12634   2.128  11.448  11.544 -0.0897  2.1868  1.9377
   94MOL0     H12635   1.972  11.609  11.595  1.2958  0.4601 -1.0920
   94MOL0     H12636   1.926  11.544  11.443  1.0453  0.4899  0.3255
   94MOL0     H12637   1.741  11.417  11.510 -3.3647 -1.1188  1.7741
   94MOL0     H12638   1.721  11.580  11.560 -2.2879 -0.3227  0.6579
   94MOL0     H12639   1.656  11.412  11.733 -0.0305 -0.4400 -0.3341
   94MOL0     H12640   1.819  11.355  11.735  1.3102  1.0203  0.9669
   94MOL0     H12641   1.663  11.707  11.757 -1.5636 -2.2848 -0.3436
   94MOL0     H12642   1.856  11.932  12.005 -2.5050 -1.6348  2.7214
   94MOL0     H12643   1.849  11.938  11.834 -3.8363  0.8693 -1.4121
   94MOL0     H12644   1.601  11.932  11.862  0.2882  0.3521 -0.0534
   94MOL0     H12645   1.624  11.859  12.026  0.7037  1.4581  0.2537
   94MOL0     H12646   1.688  12.098  12.102  0.0401  0.3147  1.7246
   94MOL0     H12647   1.541  12.118  12.005  0.5983  0.6240  2.5796
   94MOL0     H12648   1.667  12.284  11.934 -1.7696 -0.5540  1.6752
   94MOL0     H12649   1.664  12.158  11.810  2.8118 -2.0618 -0.0302
   94MOL0     H12650   1.764  12.418  11.770  0.1913 -0.5205 -0.2555
   94MOL0     H12651   1.909  12.565  11.679 -1.9352 -0.2598  0.7075
   94MOL0     H12652   2.264  12.548  11.340  1.4018  0.4817 -2.3819
   94MOL0     H12653   2.394  12.687  11.180 -1.5243  0.7048 -0.1881
   94MOL0     H12654   2.572  12.823  11.130 -1.5773 -2.0781  0.8645
   94MOL0     H12655   2.437  12.838  11.015  0.6540  1.4528 -1.3205
   94MOL0     H12656   2.614  12.997  10.928 -2.5757  3.3519 -0.8383
   94MOL0     H12657   2.470  13.062  10.989 -0.3706  0.3198  0.1456
   94MOL0     H12658   2.600  13.106  11.204 -1.6187  2.2024 -1.0372
   94MOL0     H12659   2.736  13.018  11.135  1.7651  4.4129  3.2579
   94MOL0     H12660   2.635  13.289  11.030  0.0112 -1.0588 -1.4242
   94MOL0     H12661   2.748  13.190  10.939  0.5537 -0.3040 -0.2632
   94MOL0     H12662   2.898  13.203  11.148 -1.5354 -2.7268  0.8148
   94MOL0     H12663   2.779  13.306  11.222  0.7227 -0.1079 -0.1869
   94MOL0     H12664   2.913  13.391  10.959  1.2748  2.1053  0.4796
   94MOL0     H12665   2.778  13.465  11.029 -0.1026 -0.3828 -2.1018
   94MOL0     H12666   2.992  13.398  11.227 -1.3290 -0.6084  0.7502
   94MOL0     H12667   2.893  13.545  11.214  1.6735  1.3701  0.6528
   94MOL0     H12668   2.995  13.625  11.017  1.6418  2.3104  3.5144
   94MOL0     H12669   3.114  13.625  11.148  0.4322 -0.1865 -0.2033
   94MOL0     H12670   2.297  13.033  11.399  1.1249 -0.2740 -0.9658
   94MOL0     H12671   2.177  12.900  11.577 -0.0864 -1.9325  1.2237
   94MOL0     H12672   2.245  12.300  11.765  1.6062  2.0994 -2.9116
   94MOL0     H12673   2.081  12.150  11.887 -0.6498  0.5303  3.1948
   94MOL0     H12674   2.161  11.284  10.959  0.9013  0.0094 -2.1299
   94MOL0     H12675   2.109  11.343  10.741 -1.1173  1.1280  2.3886
   94MOL0     H12676   2.176  11.157  10.294  0.6337 -1.7116 -2.8220
   94MOL0     H12677   2.135  11.129  10.053 -0.9869  2.4852 -0.8427
   94MOL0     H12678   1.770  11.066   9.816  0.5247  0.8011  0.0428
   94MOL0     H12679   1.772  10.982   9.976  2.8081 -1.6321  0.6622
   94MOL0     H12680   1.975  10.877   9.935 -1.0995 -0.1150  0.7288
   94MOL0     H12681   2.002  10.968   9.789  0.7171  1.7472  2.1455
   94MOL0     H12682   1.794  10.757   9.846  1.6272 -1.1315  1.1007
   94MOL0     H12683   1.937  10.732   9.744 -2.6903 -2.8180 -0.1218
   94MOL0     H12684   1.724  10.744   9.609  1.0622 -0.5310  1.0580
   94MOL0     H12685   1.682  10.889   9.695 -0.6994 -0.9086 -0.1913
   94MOL0     H12686   1.906  11.010   9.363  1.4023 -0.8916  0.2087
   94MOL0     H12687   1.731  11.175  10.102 -0.3877 -3.1870  1.9671
   94MOL0     H12688   1.622  11.196  10.319 -0.1156 -1.8750  2.0581
   94MOL0     H12689   1.722  11.110  10.447  1.2725 -1.2453 -1.1398
   94MOL0     H12690   1.717  11.286  10.437  0.7616  0.6500  1.1351
   95MOL0     O12691   2.799   0.536   0.604  0.2854  0.8748  0.3956
   95MOL0     C12692   2.908   0.590   0.579  0.6836 -0.2865  0.4382
   95MOL0     O12693   2.944   0.628   0.454  0.4494 -0.0201 -0.2489
   95MOL0     C12694   2.839   0.638   0.368  0.4819 -0.0699  1.0319
   95MOL0     C12695   2.828   0.550   0.268 -0.2008 -0.6051  0.7802
   95MOL0     C12696   2.715   0.545   0.174 -0.7270  0.5844 -0.0924
   95MOL0     C12697   2.616   0.638   0.196  0.5625  0.3168  0.6249
   95MOL0     O12698   2.513   0.659   0.105  0.5674  0.0951  0.5649
   95MOL0     C12699   2.555   0.672  -0.032 -0.1516 -1.1105 -0.4155
   95MOL0     C12700   2.446   0.737  -0.122 -0.3856  0.0653 -0.7301
   95MOL0     C12701   2.321   0.656  -0.156 -0.8643 -0.8766  0.3647
   95MOL0     C12702   2.233   0.624  -0.039  0.2228  1.0370 -0.2915
   95MOL0     C12703   2.090   0.597  -0.085  1.0284 -0.8991 -0.9056
   95MOL0     C12704   1.998   0.607   0.036  0.0541  0.1755  0.1746
   95MOL0     C12705   1.854   0.551   0.004  0.0073  0.7455 -1.0213
   95MOL0     C12706   1.854   0.395   0.022 -0.1357  0.2973  0.7489
   95MOL0     N12707   1.738   0.343  -0.047  1.0670  0.2823  0.4448
   95MOL0     C12708   1.733   0.281  -0.170  0.9968  0.0348 -0.4508
   95MOL0     C12709   1.603   0.259  -0.195  0.2451 -0.1560  0.3478
   95MOL0     C12710   1.538   0.202  -0.310 -0.0266  0.7651 -0.0587
   95MOL0     C12711   1.386   0.185  -0.309  0.9895  0.2795  0.0748
   95MOL0     C12712   1.336   0.145  -0.445  0.5680 -0.0155 -0.9149
   95MOL0     C12713   1.182   0.126  -0.461 -0.2114 -0.2815 -0.6497
   95MOL0     O12714   1.142   0.171  -0.597 -0.0800 -0.1815 -0.0536
   95MOL0     C12715   1.182   0.097  -0.704 -0.3238  0.3570 -0.2984
   95MOL0     C12716   1.222   0.167  -0.812 -0.5455  0.6739  1.0940
   95MOL0     C12717   1.299   0.100  -0.914 -0.2257  0.9998 -0.0698
   95MOL0     C12718   1.316  -0.044  -0.916 -0.3951  0.7934 -1.2069
   95MOL0     C12719   1.398  -0.110  -1.018  0.1651 -0.8721  0.5843
   95MOL0     O12720   1.433  -0.035  -1.130  0.2553 -0.1476  0.3522
   95MOL0     C12721   1.452  -0.095  -1.253  0.0565  0.7417 -0.1082
   95MOL0     C12722   1.399  -0.223  -1.291  0.0414  0.1991  0.9468
   95MOL0     C12723   1.419  -0.274  -1.421 -0.4005  0.0217 -0.1167
   95MOL0     C12724   1.474  -0.190  -1.519 -0.2528  0.5143 -0.2262
   95MOL0     O12725   1.490  -0.233  -1.648  0.3539  0.6136 -0.4395
   95MOL0     C12726   1.452  -0.362  -1.689  0.5963  0.1852 -0.3087
   95MOL0     C12727   1.500  -0.364  -1.829  0.6700  0.0279  0.0602
   95MOL0     C12728   1.410  -0.453  -1.922  0.2212 -0.3021  0.2161
   95MOL0     C12729   1.448  -0.424  -2.067  1.4023  0.1896  0.7125
   95MOL0     C12730   1.360  -0.488  -2.177  1.2042  0.1784 -0.2431
   95MOL0     C12731   1.213  -0.457  -2.164  0.0724  0.8216 -0.1427
   95MOL0     C12732   1.137  -0.535  -2.283 -0.4127 -0.1770  0.1758
   95MOL0     C12733   1.086  -0.675  -2.258 -0.0107 -0.0110 -0.3981
   95MOL0    Cl12734   0.933  -0.645  -2.161  0.2297  0.1758  0.1058
   95MOL0     C12735   1.511  -0.065  -1.489 -0.3372 -0.3389  0.1164
   95MOL0     C12736   1.506  -0.013  -1.358 -0.6860  0.0822 -0.3094
   95MOL0     O12737   1.415  -0.233  -1.008 -0.9240 -0.0421  0.3979
   95MOL0     C12738   1.257  -0.108  -0.802 -0.8663  0.4299 -0.0627
   95MOL0     C12739   1.199  -0.037  -0.700  0.0747  0.3815  0.4835
   95MOL0     N12740   1.540   0.293  -0.077 -0.7992  0.5520  0.5062
   95MOL0     N12741   1.616   0.353   0.002 -0.5565 -0.3303 -0.3285
   95MOL0     C12742   2.633   0.734   0.301 -0.6723  0.3087  0.1863
   95MOL0     C12743   2.738   0.729   0.389  0.1272  0.9939 -0.2437
   95MOL0     C12744   2.990   0.628   0.692 -0.3648 -0.1006 -0.2249
   95MOL0     C12745   3.101   0.713   0.669  0.5872 -0.2746  0.3259
   95MOL0     C12746   3.182   0.763   0.768  0.2813  0.0484  0.9206
   95MOL0     C12747   3.161   0.732   0.903  0.5597  0.6122 -0.5005
   95MOL0     O12748   3.234   0.804   0.991 -0.6187 -0.0330  0.5728
   95MOL0     C12749   3.180   0.830   1.124 -0.0073  0.4991 -0.1815
   95MOL0     C12750   3.075   0.941   1.109 -0.0330  0.0320  0.2499
   95MOL0     C12751   3.121   1.078   1.055  0.2765  0.8494  0.7384
   95MOL0     C12752   2.997   1.168   1.026  0.2257 -0.0172  0.0471
   95MOL0     C12753   3.039   1.276   0.927  0.7082  0.0991 -0.3198
   95MOL0     C12754   3.078   1.349   0.843  0.7455  0.5502 -0.3331
   95MOL0     C12755   3.056   0.637   0.934  0.0347  0.8071 -0.5390
   95MOL0     C12756   2.974   0.590   0.829  0.0442 -0.1121  0.0119
   95MOL0     C12757   2.855   0.504   0.882  0.0570  0.1057  0.0931
   95MOL0     H12758   2.914   0.485   0.257  0.4487  0.4859 -1.2361
   95MOL0     H12759   2.706   0.477   0.090  1.3496  1.9757 -1.5697
   95MOL0     H12760   2.641   0.740  -0.033  1.6926 -3.2993  0.0710
   95MOL0     H12761   2.582   0.571  -0.064 -2.0808 -1.3373 -1.4347
   95MOL0     H12762   2.500   0.750  -0.217  0.0777  0.8611 -0.3697
   95MOL0     H12763   2.405   0.835  -0.096 -1.8380 -0.4357 -1.0240
   95MOL0     H12764   2.353   0.567  -0.211  0.3675  0.7165 -1.6308
   95MOL0     H12765   2.259   0.707  -0.230  1.0867 -0.1577 -0.8568
   95MOL0     H12766   2.272   0.530   0.002 -0.3520  0.0097 -1.9714
   95MOL0     H12767   2.242   0.707   0.031  2.5964  0.0722  0.6329
   95MOL0     H12768   2.053   0.664  -0.163  0.0994  0.3414  0.5506
   95MOL0     H12769   2.090   0.508  -0.149  0.4207  0.5947 -3.1040
   95MOL0     H12770   2.034   0.564   0.129  0.0915  0.7268  0.4176
   95MOL0     H12771   1.999   0.715   0.053 -1.8001  0.3565 -0.5567
   95MOL0     H12772   1.824   0.554  -0.101 -0.3124 -2.2429 -1.0926
   95MOL0     H12773   1.780   0.601   0.067 -2.2046 -0.8904 -2.1917
   95MOL0     H12774   1.952   0.360  -0.013 -0.8876  1.7111 -3.3376
   95MOL0     H12775   1.838   0.366   0.126  0.0182  0.3913  0.7997
   95MOL0     H12776   1.813   0.263  -0.241 -0.3460 -2.7386 -1.4137
   95MOL0     H12777   1.560   0.262  -0.399 -1.7557  0.9396 -0.4012
   95MOL0     H12778   1.584   0.104  -0.328  2.9003  1.5016  2.5618
   95MOL0     H12779   1.369   0.105  -0.237 -1.2937 -0.3656 -1.0822
   95MOL0     H12780   1.332   0.275  -0.277 -0.6340 -1.2961  2.0453
   95MOL0     H12781   1.382   0.053  -0.482 -0.1793  0.9496 -4.5711
   95MOL0     H12782   1.369   0.216  -0.521 -1.5546 -2.1483 -4.0669
   95MOL0     H12783   1.135   0.181  -0.379  3.9292 -0.0734  1.8445
   95MOL0     H12784   1.146   0.025  -0.440 -2.2809  0.8123  1.5423
   95MOL0     H12785   1.213   0.275  -0.820  3.5358  1.0320 -1.6950
   95MOL0     H12786   1.353   0.162  -0.984  3.9823 -0.4955  1.5041
   95MOL0     H12787   1.338  -0.285  -1.226  1.3209 -1.7647  0.3556
   95MOL0     H12788   1.374  -0.368  -1.453 -0.6738  0.4485 -1.0202
   95MOL0     H12789   1.509  -0.437  -1.633 -0.1758  0.6165  1.0913
   95MOL0     H12790   1.347  -0.390  -1.691  0.1417  1.7130  0.6691
   95MOL0     H12791   1.484  -0.264  -1.871  0.1564 -0.1144 -0.0963
   95MOL0     H12792   1.602  -0.399  -1.848  0.5962 -0.3971  0.4479
   95MOL0     H12793   1.424  -0.558  -1.895 -1.2532 -0.7632 -0.6975
   95MOL0     H12794   1.311  -0.410  -1.904  0.6513  1.6889 -1.8355
   95MOL0     H12795   1.549  -0.462  -2.081  0.6561 -1.4042 -0.7295
   95MOL0     H12796   1.450  -0.315  -2.076  0.9468  0.2400  1.1387
   95MOL0     H12797   1.373  -0.597  -2.172  0.4442 -0.1494 -3.4334
   95MOL0     H12798   1.390  -0.456  -2.277 -3.3504 -1.0905 -2.2907
   95MOL0     H12799   1.182  -0.485  -2.063 -0.5006  1.5115 -0.1228
   95MOL0     H12800   1.202  -0.349  -2.175  4.0045  1.4506  0.4453
   95MOL0     H12801   1.189  -0.545  -2.379 -0.3002 -2.8230  0.4337
   95MOL0     H12802   1.055  -0.468  -2.311  0.8042  1.3490  0.1376
   95MOL0     H12803   1.063  -0.733  -2.348  0.4539 -3.3806  1.4807
   95MOL0     H12804   1.167  -0.728  -2.208  1.1633  1.7236 -0.3691
   95MOL0     H12805   1.543   0.006  -1.565 -1.7464  1.6072  1.2530
   95MOL0     H12806   1.533   0.088  -1.329 -2.1592  0.9974 -1.9562
   95MOL0     H12807   1.278  -0.214  -0.788 -0.0783  0.4957 -0.7103
   95MOL0     H12808   1.166  -0.085  -0.608  1.5787 -0.4156  0.6347
   95MOL0     H12809   2.554   0.807   0.313 -2.9462 -2.2068  1.3337
   95MOL0     H12810   2.733   0.806   0.467  0.9747  2.6199 -1.7289
   95MOL0     H12811   3.111   0.757   0.571 -4.2690 -0.9435 -0.7388
   95MOL0     H12812   3.240   0.851   0.743  1.0358 -1.1754 -2.0510
   95MOL0     H12813   3.253   0.871   1.194  0.9556  0.7191 -1.2822
   95MOL0     H12814   3.140   0.743   1.178 -3.6998  2.1909  0.0642
   95MOL0     H12815   3.034   0.970   1.206 -1.7955  2.5338 -1.1556
   95MOL0     H12816   2.987   0.899   1.060 -1.2872  2.2566  0.4766
   95MOL0     H12817   3.179   1.065   0.963 -1.6931 -1.4680 -0.2774
   95MOL0     H12818   3.179   1.122   1.137  2.6553  1.2959 -1.0612
   95MOL0     H12819   2.922   1.114   0.968 -2.3392  3.6013 -0.2995
   95MOL0     H12820   2.935   1.205   1.109 -3.1633 -3.0053 -0.8581
   95MOL0     H12821   3.088   1.412   0.757  0.6289 -0.1933 -0.9102
   95MOL0     H12822   3.040   0.609   1.038  0.0597  1.8243 -0.2586
   95MOL0     H12823   2.758   0.531   0.840 -1.0816 -0.2829  2.3146
   95MOL0     H12824   2.875   0.398   0.863 -0.6917 -0.0060 -0.0781
   95MOL0     H12825   2.860   0.516   0.990  2.6025 -3.6029  0.5893
   96MOL0     O12826   2.070   4.025   2.760 -0.7815 -0.2376  0.4433
   96MOL0     C12827   2.045   4.128   2.820 -0.3197  0.1306 -0.2852
   96MOL0     O12828   1.918   4.180   2.845 -0.4734  0.4418  0.3909
   96MOL0     C12829   1.818   4.116   2.784  0.6952  0.0744  0.3041
   96MOL0     C12830   1.813   4.133   2.644 -0.3924  0.9007  0.3822
   96MOL0     C12831   1.704   4.065   2.578  0.4563 -0.2562  0.1469
   96MOL0     C12832   1.613   3.985   2.646 -0.6025  0.1850  0.7020
   96MOL0     O12833   1.500   3.929   2.589  0.3061 -0.3766  0.4718
   96MOL0     C12834   1.424   4.019   2.499 -0.1841 -0.1264 -0.7025
   96MOL0     C12835   1.280   3.986   2.486  1.1297 -0.1900 -0.2046
   96MOL0     C12836   1.189   4.082   2.401  0.4505  0.1601 -0.2989
   96MOL0     C12837   1.223   4.086   2.247 -0.1563  0.4740  0.4126
   96MOL0     C12838   1.200   3.955   2.173 -0.0546  0.1805 -0.1969
   96MOL0     C12839   1.218   3.965   2.026  0.0498  0.1825  0.0875
   96MOL0     C12840   1.102   4.040   1.948 -0.6233 -1.0605 -0.9034
   96MOL0     C12841   1.141   4.056   1.805  0.4588  0.4406 -0.5305
   96MOL0     N12842   1.038   4.126   1.732  0.0164  0.1125 -0.6844
   96MOL0     C12843   1.030   4.260   1.712 -0.1520  0.0446 -0.1771
   96MOL0     C12844   0.922   4.277   1.643  1.1377 -0.8457  0.4351
   96MOL0     C12845   0.855   4.405   1.602  0.6535 -0.5391 -0.1655
   96MOL0     C12846   0.925   4.487   1.492 -0.3222 -0.5053  0.5110
   96MOL0     C12847   0.851   4.486   1.358  0.4679  0.7414  0.5014
   96MOL0     C12848   0.728   4.589   1.359  0.1587  0.7623 -0.0490
   96MOL0     O12849   0.771   4.724   1.383 -0.6720  0.2262 -0.1246
   96MOL0     C12850   0.692   4.836   1.378 -0.0744  0.2868  0.6495
   96MOL0     C12851   0.559   4.833   1.384 -0.2600 -0.4242  0.5061
   96MOL0     C12852   0.475   4.945   1.387 -0.9065 -0.1367 -0.1071
   96MOL0     C12853   0.537   5.069   1.369 -1.1389 -0.1846  0.3947
   96MOL0     C12854   0.459   5.189   1.359  0.0328 -0.1857 -0.3444
   96MOL0     O12855   0.341   5.183   1.424  0.8371 -0.4603 -0.3840
   96MOL0     C12856   0.279   5.302   1.451 -0.1076 -0.7412 -0.1774
   96MOL0     C12857   0.235   5.387   1.348  0.0612 -0.3365 -0.2722
   96MOL0     C12858   0.158   5.503   1.375 -0.0796  0.9231 -0.0349
   96MOL0     C12859   0.130   5.539   1.512  0.4262  0.4012  0.5739
   96MOL0     O12860   0.061   5.643   1.574  1.2695  0.0924  0.3772
   96MOL0     C12861  -0.005   5.740   1.489  0.2472  0.0999  0.0978
   96MOL0     C12862  -0.100   5.835   1.565 -0.5059  0.4191 -0.5213
   96MOL0     C12863  -0.193   5.758   1.664  0.1094  0.1885 -0.0918
   96MOL0     C12864  -0.302   5.841   1.739  0.6712  0.0589 -0.8476
   96MOL0     C12865  -0.248   5.951   1.829 -0.0697  0.4173  0.5440
   96MOL0     C12866  -0.181   5.909   1.958 -1.2597 -0.2741 -0.1249
   96MOL0     C12867  -0.163   6.021   2.064  0.6337  0.1321  0.1285
   96MOL0     C12868  -0.101   5.977   2.199  0.2256  0.2909  0.9389
   96MOL0    Cl12869  -0.230   5.869   2.270  0.1781  0.1208  0.2696
   96MOL0     C12870   0.181   5.456   1.614  0.3329 -1.0415 -0.1730
   96MOL0     C12871   0.249   5.346   1.582 -0.2225  0.6431 -1.0361
   96MOL0     O12872   0.500   5.283   1.289 -0.5331 -0.1814 -0.5776
   96MOL0     C12873   0.682   5.073   1.352 -0.5126  0.2201 -0.9981
   96MOL0     C12874   0.760   4.955   1.364  0.4227 -0.5355 -0.1606
   96MOL0     N12875   0.865   4.157   1.617  0.0551  0.9376  0.7754
   96MOL0     N12876   0.933   4.063   1.676 -0.2624  0.6812 -0.5588
   96MOL0     C12877   1.627   3.962   2.779 -1.5239 -0.2257 -0.1551
   96MOL0     C12878   1.729   4.034   2.851 -0.4824  0.0417  0.1855
   96MOL0     C12879   2.153   4.214   2.866  1.1027  0.1354 -0.5239
   96MOL0     C12880   2.132   4.350   2.831 -0.0697 -0.4184  0.5996
   96MOL0     C12881   2.206   4.447   2.887 -0.3097  0.9241 -0.6276
   96MOL0     C12882   2.291   4.407   2.988 -1.0505  1.0516 -0.1932
   96MOL0     O12883   2.349   4.506   3.065  0.5666  0.0714  0.1509
   96MOL0     C12884   2.394   4.637   3.019 -1.1682 -0.3407 -0.3685
   96MOL0     C12885   2.496   4.638   2.902  0.4601  0.0230  0.5608
   96MOL0     C12886   2.562   4.779   2.893 -0.0759  0.2529 -0.0677
   96MOL0     C12887   2.475   4.906   2.882 -0.7929 -0.1398  0.1520
   96MOL0     C12888   2.396   4.900   2.773 -0.1503  1.5652  0.4710
   96MOL0     C12889   2.313   4.872   2.683  0.4066  0.4904  0.0435
   96MOL0     C12890   2.320   4.274   3.014  0.1441 -0.3772 -0.7187
   96MOL0     C12891   2.259   4.171   2.947  0.1202 -0.6423  0.6862
   96MOL0     C12892   2.285   4.026   2.975 -0.4241  0.2113 -0.1180
   96MOL0     H12893   1.891   4.187   2.591 -0.1311 -0.3384 -0.5225
   96MOL0     H12894   1.687   4.096   2.475 -2.7009  4.1771  1.6901
   96MOL0     H12895   1.420   4.126   2.519 -0.2068  0.0727 -1.7027
   96MOL0     H12896   1.464   4.015   2.397 -2.2337 -0.9245 -1.5520
   96MOL0     H12897   1.241   3.988   2.588 -1.5090  1.6016 -1.1343
   96MOL0     H12898   1.264   3.887   2.443 -0.5369 -1.1072  2.3256
   96MOL0     H12899   1.186   4.185   2.436 -0.9658  0.5240 -1.3994
   96MOL0     H12900   1.092   4.032   2.405  1.7902 -2.6575 -0.0275
   96MOL0     H12901   1.151   4.155   2.201 -0.4642 -0.3046 -0.3000
   96MOL0     H12902   1.324   4.121   2.223  0.0558 -0.7548 -0.5472
   96MOL0     H12903   1.277   3.885   2.204  0.6127  1.4632  1.1942
   96MOL0     H12904   1.100   3.927   2.205 -0.0935 -0.8189 -1.1524
   96MOL0     H12905   1.317   4.000   1.997 -0.1443  0.1592 -0.6392
   96MOL0     H12906   1.211   3.860   1.995 -0.4253 -0.5603  2.5600
   96MOL0     H12907   1.078   4.138   1.992  2.2364 -0.4475 -0.5253
   96MOL0     H12908   1.019   3.970   1.963 -1.0277 -0.3313  0.4829
   96MOL0     H12909   1.234   4.114   1.803 -0.0866  2.0759  4.7606
   96MOL0     H12910   1.158   3.953   1.771  4.5254  0.6000  0.4661
   96MOL0     H12911   1.103   4.328   1.754  1.4327 -1.3339 -0.5494
   96MOL0     H12912   0.755   4.375   1.569 -0.5775  1.7573  1.2450
   96MOL0     H12913   0.842   4.459   1.696  0.1254 -3.4037  1.5316
   96MOL0     H12914   0.923   4.593   1.517  0.5735 -0.1331 -0.8475
   96MOL0     H12915   1.024   4.441   1.477 -1.9980 -4.7364  1.0755
   96MOL0     H12916   0.812   4.384   1.351  0.4128  0.8047 -0.1784
   96MOL0     H12917   0.919   4.495   1.273  1.0859 -0.1854  0.8840
   96MOL0     H12918   0.654   4.554   1.431 -1.5623  2.2932 -1.0064
   96MOL0     H12919   0.674   4.588   1.264  0.0974  1.3382 -0.0213
   96MOL0     H12920   0.510   4.737   1.398  0.3707 -1.5257 -3.5723
   96MOL0     H12921   0.368   4.930   1.388 -0.9971  0.4102  1.9243
   96MOL0     H12922   0.253   5.366   1.243 -1.4034  0.4143 -0.7017
   96MOL0     H12923   0.140   5.579   1.299  0.2827 -0.9974 -2.1756
   96MOL0     H12924   0.071   5.801   1.440 -2.0478  0.4739 -3.3519
   96MOL0     H12925  -0.062   5.691   1.410  0.6237  2.1269 -1.5001
   96MOL0     H12926  -0.039   5.893   1.635 -1.5745 -1.3984  2.0818
   96MOL0     H12927  -0.148   5.906   1.497  1.0460  1.5874 -0.4353
   96MOL0     H12928  -0.234   5.690   1.588 -0.0751 -0.7745  0.8431
   96MOL0     H12929  -0.143   5.700   1.742  2.3182 -0.5763 -1.9681
   96MOL0     H12930  -0.364   5.774   1.800  0.3136  0.1051 -1.1563
   96MOL0     H12931  -0.368   5.894   1.670 -1.1453  0.8634  1.3603
   96MOL0     H12932  -0.333   6.011   1.863  0.8967  1.7112  0.7645
   96MOL0     H12933  -0.177   6.017   1.778 -0.3310 -1.0673 -1.8622
   96MOL0     H12934  -0.235   5.820   1.991  3.3610 -2.6842  1.8491
   96MOL0     H12935  -0.081   5.865   1.948 -2.1502 -2.3285 -0.2743
   96MOL0     H12936  -0.258   6.063   2.099 -0.4772  1.1446 -3.6337
   96MOL0     H12937  -0.099   6.105   2.032 -0.8030  0.3572 -2.4330
   96MOL0     H12938  -0.005   5.925   2.194 -1.0015 -2.0200 -2.2714
   96MOL0     H12939  -0.085   6.054   2.275  1.2861 -0.3700  1.3952
   96MOL0     H12940   0.161   5.485   1.716 -0.0337 -0.8353 -0.2999
   96MOL0     H12941   0.289   5.288   1.664  2.2329  1.5136 -1.5390
   96MOL0     H12942   0.729   5.169   1.335  0.0201  0.1198 -0.1553
   96MOL0     H12943   0.868   4.955   1.351  0.3128  0.4051 -1.2971
   96MOL0     H12944   1.560   3.906   2.843 -0.6159  0.0449  1.0628
   96MOL0     H12945   1.727   4.012   2.958 -0.5250 -1.0439 -0.0273
   96MOL0     H12946   2.056   4.389   2.763 -0.9773  0.9369  2.3186
   96MOL0     H12947   2.192   4.554   2.872 -0.9436  0.8530 -0.5692
   96MOL0     H12948   2.444   4.671   3.110 -0.1548 -1.2282 -0.5765
   96MOL0     H12949   2.313   4.704   2.988  2.1851  2.9235 -3.0557
   96MOL0     H12950   2.454   4.617   2.803 -0.2542  0.4014  0.7715
   96MOL0     H12951   2.572   4.562   2.921  1.0558  0.1106 -1.2781
   96MOL0     H12952   2.626   4.787   2.804  2.0714  1.4234  1.4964
   96MOL0     H12953   2.635   4.780   2.974 -0.3548  1.5912  0.1859
   96MOL0     H12954   2.411   4.920   2.970 -2.4934  0.2259 -1.0889
   96MOL0     H12955   2.538   4.995   2.873 -0.8062 -0.0952  0.4792
   96MOL0     H12956   2.253   4.821   2.610  3.9996 -4.1956 -0.1807
   96MOL0     H12957   2.388   4.258   3.097 -1.3288 -1.7240  0.2818
   96MOL0     H12958   2.321   4.018   3.078 -1.7284 -0.9407  0.2653
   96MOL0     H12959   2.200   3.958   2.973  1.5766 -2.5620  1.3500
   96MOL0     H12960   2.360   3.987   2.905 -0.4240 -0.6861  0.3707
   97MOL0     O12961   4.188   0.686   7.950 -0.6206  0.8525  0.4724
   97MOL0     C12962   4.242   0.574   7.945 -0.2017 -0.1690  0.2850
   97MOL0     O12963   4.272   0.498   8.053  0.0755 -0.0694  0.2138
   97MOL0     C12964   4.214   0.515   8.178  0.0554 -0.2496 -0.3226
   97MOL0     C12965   4.191   0.401   8.255  0.8066  1.0322 -0.1727
   97MOL0     C12966   4.134   0.419   8.385  0.4554  0.8949  0.5243
   97MOL0     C12967   4.114   0.542   8.441 -0.0179 -0.3374  0.3299
   97MOL0     O12968   4.034   0.574   8.549  0.6970 -0.3733  0.1673
   97MOL0     C12969   3.967   0.480   8.628  0.6083 -0.0870 -0.3749
   97MOL0     C12970   3.816   0.488   8.596 -0.1613  0.1496 -0.6055
   97MOL0     C12971   3.782   0.502   8.449  0.0607 -0.2556 -0.3948
   97MOL0     C12972   3.629   0.527   8.423 -0.3679  0.6876 -0.6008
   97MOL0     C12973   3.584   0.459   8.287  0.1303 -0.5391  0.2656
   97MOL0     C12974   3.674   0.505   8.165  0.8265 -0.5895  0.0190
   97MOL0     C12975   3.669   0.654   8.131  0.3930 -0.2524  0.8704
   97MOL0     C12976   3.743   0.683   7.996  0.3698 -0.0813 -0.1692
   97MOL0     N12977   3.654   0.683   7.876  0.0395  0.7379 -0.1898
   97MOL0     C12978   3.543   0.759   7.857 -0.3591 -0.9397 -0.2911
   97MOL0     C12979   3.479   0.704   7.754  0.3492  0.3842 -0.3050
   97MOL0     C12980   3.360   0.746   7.687  0.2736 -0.7154  0.7864
   97MOL0     C12981   3.396   0.842   7.568 -0.7597 -0.0328  0.5294
   97MOL0     C12982   3.510   0.801   7.467 -0.0546 -0.3348 -0.1095
   97MOL0     C12983   3.656   0.838   7.510 -0.3062  0.3195 -0.4910
   97MOL0     O12984   3.676   0.979   7.534 -0.6376 -0.4068 -0.4106
   97MOL0     C12985   3.777   1.016   7.618 -0.2736  0.5784  0.2447
   97MOL0     C12986   3.765   1.144   7.654 -0.5082  0.0004  0.9905
   97MOL0     C12987   3.866   1.205   7.729 -0.3902 -0.3740  0.8353
   97MOL0     C12988   3.981   1.136   7.783  0.0465  0.0981  0.7425
   97MOL0     C12989   4.083   1.197   7.873  1.2982 -0.1880  1.2141
   97MOL0     O12990   4.199   1.130   7.883 -0.8956  0.3192 -0.1310
   97MOL0     C12991   4.309   1.193   7.939 -0.0898  0.2014 -0.3168
   97MOL0     C12992   4.366   1.311   7.884 -0.1122  0.3570 -0.1408
   97MOL0     C12993   4.482   1.363   7.942 -0.0192 -0.4584  0.0159
   97MOL0     C12994   4.541   1.306   8.059  1.6645  1.0068  0.1788
   97MOL0     O12995   4.632   1.388   8.124 -0.4370 -0.1814  0.3376
   97MOL0     C12996   4.718   1.331   8.216 -0.2762 -0.9596  0.5692
   97MOL0     C12997   4.797   1.459   8.266 -0.0943  0.6994  0.2258
   97MOL0     C12998   4.882   1.531   8.161 -0.0792  0.3223  0.5410
   97MOL0     C12999   4.938   1.657   8.222 -0.2756 -0.5159  0.1811
   97MOL0     C13000   5.048   1.712   8.129  0.1042 -0.3326 -1.0249
   97MOL0     C13001   5.060   1.862   8.158 -0.0279 -0.3359  0.3215
   97MOL0     C13002   5.156   1.914   8.053  0.3480 -0.0841 -0.8154
   97MOL0     C13003   5.134   2.057   8.027  0.2442  0.2913 -0.0078
   97MOL0    Cl13004   5.272   2.105   7.924  0.5738  0.4380 -0.0374
   97MOL0     C13005   4.491   1.181   8.097  0.1121  0.0102  0.1872
   97MOL0     C13006   4.367   1.126   8.049  0.0390 -0.5061 -0.5285
   97MOL0     O13007   4.064   1.311   7.913  0.3512  0.1931 -0.1214
   97MOL0     C13008   3.989   1.004   7.741 -0.7103 -0.7473 -0.0676
   97MOL0     C13009   3.889   0.943   7.666 -0.1242  0.4666 -0.8131
   97MOL0     N13010   3.547   0.589   7.712  0.2154 -1.3079 -0.7586
   97MOL0     N13011   3.655   0.577   7.788  0.0049 -0.5019 -0.5064
   97MOL0     C13012   4.160   0.647   8.368  0.4813 -0.6311 -0.0601
   97MOL0     C13013   4.205   0.639   8.236  0.1611  0.6429 -0.6593
   97MOL0     C13014   4.300   0.518   7.817  0.3280 -1.0965 -0.0451
   97MOL0     C13015   4.419   0.439   7.829  0.5490  0.4490 -0.2537
   97MOL0     C13016   4.478   0.395   7.717 -0.3955  0.2089  0.9737
   97MOL0     C13017   4.420   0.410   7.592  0.8287  0.9311 -0.0562
   97MOL0     O13018   4.469   0.319   7.502  0.5478 -0.1118  0.6291
   97MOL0     C13019   4.472   0.349   7.359 -0.2220 -0.4920  0.3445
   97MOL0     C13020   4.576   0.463   7.333 -0.3839  0.8710  0.1081
   97MOL0     C13021   4.594   0.500   7.183 -0.4702  0.7563  0.3114
   97MOL0     C13022   4.722   0.583   7.145 -0.3154 -0.0043 -0.5562
   97MOL0     C13023   4.837   0.516   7.189  0.5347  0.7733  0.0254
   97MOL0     C13024   4.940   0.463   7.214 -0.4929 -0.1529 -0.6231
   97MOL0     C13025   4.312   0.501   7.568  0.0707 -0.0616  0.3076
   97MOL0     C13026   4.254   0.558   7.688 -0.6433  0.2858  0.6141
   97MOL0     C13027   4.128   0.645   7.660  0.0752 -0.2886 -0.7881
   97MOL0     H13028   4.198   0.309   8.198 -2.4558  2.8485 -4.0621
   97MOL0     H13029   4.089   0.336   8.438  2.9464 -1.1404 -0.3616
   97MOL0     H13030   4.001   0.377   8.610 -2.3616 -1.0493 -0.9478
   97MOL0     H13031   3.996   0.498   8.732 -0.8571 -1.3217  0.2922
   97MOL0     H13032   3.784   0.580   8.645  1.8583 -0.0643  1.3018
   97MOL0     H13033   3.759   0.405   8.640  0.5200  0.8926  1.8331
   97MOL0     H13034   3.815   0.409   8.403 -0.8285 -1.3449  1.1203
   97MOL0     H13035   3.834   0.589   8.406 -3.1052  2.7285  1.2750
   97MOL0     H13036   3.569   0.494   8.508 -1.4218  4.7177  0.3915
   97MOL0     H13037   3.602   0.631   8.406  1.0908  0.9442 -1.5311
   97MOL0     H13038   3.579   0.350   8.297 -0.1778 -0.6215 -0.6691
   97MOL0     H13039   3.481   0.495   8.280  1.0104  2.3142  0.5254
   97MOL0     H13040   3.776   0.470   8.184  2.2692  2.2742 -1.6488
   97MOL0     H13041   3.649   0.445   8.077  1.9378  1.5661 -1.8865
   97MOL0     H13042   3.726   0.705   8.209  0.6464 -1.1574  1.2860
   97MOL0     H13043   3.572   0.702   8.115  0.6700 -0.8804 -4.7010
   97MOL0     H13044   3.789   0.781   8.013  1.8912 -0.6965 -0.5830
   97MOL0     H13045   3.825   0.612   7.980  1.7712  1.3762  0.2470
   97MOL0     H13046   3.518   0.850   7.912  1.0083  0.3910 -1.7627
   97MOL0     H13047   3.305   0.663   7.640 -1.2615  0.8805 -0.3855
   97MOL0     H13048   3.291   0.792   7.759 -1.8425 -2.5407  0.0406
   97MOL0     H13049   3.306   0.868   7.512 -0.2959 -0.2495 -0.3460
   97MOL0     H13050   3.436   0.933   7.613 -0.2738  0.4936 -0.9162
   97MOL0     H13051   3.478   0.836   7.368 -3.4080 -1.6766  0.3620
   97MOL0     H13052   3.505   0.692   7.476 -2.1801 -0.1143  5.6280
   97MOL0     H13053   3.733   0.806   7.439  0.4029 -1.5102  1.0205
   97MOL0     H13054   3.676   0.769   7.592 -2.0095  0.1670 -0.1606
   97MOL0     H13055   3.680   1.205   7.627 -0.0413  0.9992  1.6902
   97MOL0     H13056   3.862   1.308   7.764  1.4271 -0.3513  1.0882
   97MOL0     H13057   4.331   1.352   7.790  3.2920 -1.4651 -2.3878
   97MOL0     H13058   4.524   1.455   7.902  1.2874 -0.7569  0.6550
   97MOL0     H13059   4.661   1.285   8.298 -0.4861  2.1400  2.3107
   97MOL0     H13060   4.787   1.258   8.171 -1.8020 -1.6518 -0.7713
   97MOL0     H13061   4.724   1.532   8.301 -0.7898 -1.3737  3.4629
   97MOL0     H13062   4.858   1.428   8.352 -2.6318 -2.7869  0.9664
   97MOL0     H13063   4.960   1.461   8.129 -2.8755 -2.8832  0.0904
   97MOL0     H13064   4.817   1.559   8.078 -0.1778  1.3864  0.9584
   97MOL0     H13065   4.973   1.631   8.322 -3.7817 -1.7214  1.2426
   97MOL0     H13066   4.854   1.727   8.223 -1.4527 -1.8448  2.4329
   97MOL0     H13067   5.021   1.699   8.024 -1.7412 -3.3173 -0.2909
   97MOL0     H13068   5.145   1.661   8.131 -0.6256 -1.7572 -0.6035
   97MOL0     H13069   4.963   1.912   8.150 -0.1229 -0.5837 -0.0675
   97MOL0     H13070   5.108   1.886   8.254 -1.5509  2.3835  0.4965
   97MOL0     H13071   5.142   1.855   7.962 -0.2833  0.4313 -1.0593
   97MOL0     H13072   5.255   1.904   8.099 -0.5117 -0.9081  0.9570
   97MOL0     H13073   5.033   2.074   7.987  0.1389 -0.6785 -0.1611
   97MOL0     H13074   5.141   2.113   8.121  3.3586  1.0834 -0.6081
   97MOL0     H13075   4.534   1.126   8.179 -1.1399  0.1880  0.9965
   97MOL0     H13076   4.326   1.034   8.088  4.9621 -3.2319 -1.0386
   97MOL0     H13077   4.065   0.935   7.775  0.0461 -0.5868 -1.3841
   97MOL0     H13078   3.887   0.841   7.629 -0.9915 -0.2332  1.0178
   97MOL0     H13079   4.144   0.750   8.399 -1.5531 -1.3737  1.6548
   97MOL0     H13080   4.240   0.724   8.179  1.4253 -0.1813 -1.1429
   97MOL0     H13081   4.466   0.407   7.921  1.6795  0.7091 -0.7281
   97MOL0     H13082   4.575   0.347   7.715  0.3496  1.4462 -3.0346
   97MOL0     H13083   4.372   0.377   7.323  0.4126 -0.5460 -1.5847
   97MOL0     H13084   4.501   0.264   7.297  0.8571  0.8780 -1.1289
   97MOL0     H13085   4.672   0.440   7.381  0.0807  1.6219 -0.4272
   97MOL0     H13086   4.535   0.552   7.381  0.2831  1.5004 -0.4513
   97MOL0     H13087   4.506   0.555   7.149 -1.6768 -1.8640 -1.0464
   97MOL0     H13088   4.597   0.407   7.125  2.1204  2.2477 -2.2267
   97MOL0     H13089   4.735   0.588   7.037  1.7580 -1.4246 -0.4394
   97MOL0     H13090   4.721   0.681   7.193  3.9077 -0.4513  0.9072
   97MOL0     H13091   5.039   0.424   7.204 -0.3136  0.7045 -2.4908
   97MOL0     H13092   4.270   0.531   7.473 -1.3794  1.7572  1.4318
   97MOL0     H13093   4.132   0.663   7.552 -1.1562 -2.6383 -1.2848
   97MOL0     H13094   4.042   0.583   7.687  0.6237 -1.2444 -1.1881
   97MOL0     H13095   4.131   0.739   7.717  1.3940 -1.1973  0.7301
   98MOL0     O13096   4.065   2.852   7.353 -0.2800  0.8445 -0.0008
   98MOL0     C13097   4.003   2.878   7.247 -0.5359  0.7618  0.3060
   98MOL0     O13098   3.867   2.883   7.239  0.7703  0.5927 -0.6367
   98MOL0     C13099   3.788   2.830   7.344 -0.0969 -0.9529 -1.1053
   98MOL0     C13100   3.654   2.876   7.320  0.2637 -0.1784 -0.4776
   98MOL0     C13101   3.563   2.845   7.425  0.2013  0.4089  0.3894
   98MOL0     C13102   3.601   2.757   7.532 -0.7653  0.2263  0.3676
   98MOL0     O13103   3.499   2.716   7.609  0.4836 -0.6109 -0.1829
   98MOL0     C13104   3.494   2.579   7.636  1.0228  0.3627 -0.8625
   98MOL0     C13105   3.349   2.541   7.675  0.1569 -0.3522  0.0571
   98MOL0     C13106   3.319   2.543   7.825 -0.1057  0.7576 -0.0545
   98MOL0     C13107   3.192   2.600   7.871 -0.1571 -0.6761  0.0208
   98MOL0     C13108   3.063   2.517   7.828  0.2643  0.1972  0.2912
   98MOL0     C13109   2.937   2.606   7.870 -0.0719 -0.7420  0.3458
   98MOL0     C13110   2.814   2.568   7.793 -0.0523  0.1714  0.9100
   98MOL0     C13111   2.822   2.603   7.638 -0.1536 -0.2418 -0.1587
   98MOL0     N13112   2.867   2.748   7.612  0.5115 -1.1364 -0.1172
   98MOL0     C13113   2.985   2.797   7.609  0.5409 -0.5598 -0.2488
   98MOL0     C13114   2.972   2.918   7.550 -0.5838 -0.5110 -0.3231
   98MOL0     C13115   3.081   3.015   7.544 -0.6870  0.3592 -0.3431
   98MOL0     C13116   3.184   2.981   7.447 -0.1416 -0.2616  0.2149
   98MOL0     C13117   3.145   3.035   7.303  0.2429 -0.3846  1.0301
   98MOL0     C13118   3.261   3.004   7.201  0.4376 -0.1118 -1.0900
   98MOL0     O13119   3.363   3.089   7.232  0.1569 -0.3318 -0.2898
   98MOL0     C13120   3.455   3.140   7.143 -0.6291  1.0346  0.9261
   98MOL0     C13121   3.545   3.238   7.191 -0.3475 -0.4085 -0.1248
   98MOL0     C13122   3.631   3.303   7.101 -0.7244 -0.1546  0.3014
   98MOL0     C13123   3.647   3.260   6.969 -0.5897  0.8098 -0.1534
   98MOL0     C13124   3.756   3.317   6.879 -0.8217  1.4045  0.7820
   98MOL0     O13125   3.791   3.244   6.772  0.2219  0.1929  0.2424
   98MOL0     C13126   3.867   3.291   6.665  0.2381 -0.5989 -0.3918
   98MOL0     C13127   3.868   3.198   6.564  0.0805  0.6679  0.1015
   98MOL0     C13128   3.920   3.225   6.438 -0.5019 -0.4636  0.3060
   98MOL0     C13129   3.983   3.353   6.407  0.6431 -0.2541  0.4927
   98MOL0     O13130   4.028   3.407   6.292 -0.2916 -1.0766  0.4169
   98MOL0     C13131   4.023   3.325   6.175  0.7060  0.0600 -0.4103
   98MOL0     C13132   3.874   3.311   6.129  0.2559  0.0709  0.3266
   98MOL0     C13133   3.848   3.224   5.999 -0.7692 -0.2191 -0.2509
   98MOL0     C13134   3.876   3.080   6.033 -0.3908  0.0772  0.2298
   98MOL0     C13135   3.996   3.030   5.933  0.0285  0.1763  0.3759
   98MOL0     C13136   4.015   2.879   5.928 -0.2101  0.3948 -0.2930
   98MOL0     C13137   4.156   2.822   5.883  0.4370  0.1659 -0.3539
   98MOL0     C13138   4.159   2.673   5.850 -0.3197  0.3984 -0.0745
   98MOL0    Cl13139   4.075   2.646   5.705  0.1625 -0.3129  0.0987
   98MOL0     C13140   3.991   3.446   6.511 -0.1466  0.6548  0.6416
   98MOL0     C13141   3.935   3.415   6.640  0.0423  0.1877  0.8247
   98MOL0     O13142   3.804   3.425   6.905 -0.4214 -0.3045 -0.2702
   98MOL0     C13143   3.566   3.156   6.921  0.0384 -0.2598  0.0105
   98MOL0     C13144   3.474   3.097   7.012 -0.2511 -0.0203 -0.1933
   98MOL0     N13145   2.841   2.943   7.523  0.8961  0.0527 -0.9134
   98MOL0     N13146   2.784   2.843   7.564  1.5325 -1.2861 -0.6325
   98MOL0     C13147   3.727   2.702   7.545  0.4772  0.3191 -0.4082
   98MOL0     C13148   3.822   2.743   7.454 -0.8934 -0.5271 -0.2793
   98MOL0     C13149   4.085   2.920   7.125  0.3693 -0.5731 -0.2996
   98MOL0     C13150   4.017   2.981   7.013 -0.0413  1.2850 -0.5434
   98MOL0     C13151   4.093   3.044   6.904 -0.3793  0.8747  0.0122
   98MOL0     C13152   4.235   3.025   6.899 -1.2723 -0.4765  0.1628
   98MOL0     O13153   4.323   3.083   6.805  0.1815 -0.1211  0.3647
   98MOL0     C13154   4.254   3.154   6.699  1.0476 -0.7361 -0.5124
   98MOL0     C13155   4.353   3.209   6.602  0.1671 -0.4591  0.2206
   98MOL0     C13156   4.382   3.094   6.497 -0.0062 -0.5380  0.1384
   98MOL0     C13157   4.479   3.116   6.390  0.0352 -0.1850  0.1138
   98MOL0     C13158   4.605   3.162   6.440 -0.8460 -0.1281 -0.2215
   98MOL0     C13159   4.710   3.208   6.487 -0.7228 -0.2729  0.7596
   98MOL0     C13160   4.294   2.954   7.003 -0.3262  0.0717  0.5577
   98MOL0     C13161   4.227   2.911   7.123 -0.6364  0.6447  0.7594
   98MOL0     C13162   4.311   2.847   7.228  0.1230  0.4348 -0.7276
   98MOL0     H13163   3.622   2.946   7.243  0.8428  4.1511  2.7932
   98MOL0     H13164   3.457   2.867   7.425 -0.0849 -0.8267 -0.9953
   98MOL0     H13165   3.526   2.525   7.546 -1.4231  0.0344 -1.5869
   98MOL0     H13166   3.558   2.543   7.717  2.3213  0.0417 -1.9874
   98MOL0     H13167   3.333   2.441   7.633  0.2129 -0.2355 -0.2465
   98MOL0     H13168   3.281   2.614   7.631  1.2129  0.0818 -0.9211
   98MOL0     H13169   3.396   2.611   7.862  2.8324 -1.5584 -1.5652
   98MOL0     H13170   3.331   2.441   7.863 -1.8983  0.8353  0.8755
   98MOL0     H13171   3.182   2.598   7.980 -3.2637  2.6829 -0.0058
   98MOL0     H13172   3.179   2.703   7.837 -0.9385 -0.7004  0.2184
   98MOL0     H13173   3.059   2.499   7.720 -0.7838  1.4602  0.0958
   98MOL0     H13174   3.067   2.419   7.875 -0.0938  0.8272  1.6955
   98MOL0     H13175   2.923   2.598   7.978  0.1519 -1.1397  0.3500
   98MOL0     H13176   2.961   2.711   7.851  0.1254 -1.0559 -1.2525
   98MOL0     H13177   2.737   2.628   7.841 -3.2719 -0.2436 -3.1349
   98MOL0     H13178   2.783   2.465   7.811 -0.8343 -0.0357 -1.2684
   98MOL0     H13179   2.905   2.541   7.600  0.4974  0.6718 -0.2709
   98MOL0     H13180   2.725   2.590   7.589 -0.5569 -1.2838  0.8736
   98MOL0     H13181   3.080   2.762   7.649  0.5737  0.2682  0.4258
   98MOL0     H13182   3.049   3.117   7.521  1.2788  1.8051  2.7248
   98MOL0     H13183   3.126   3.024   7.643  0.5631  1.3328 -0.9688
   98MOL0     H13184   3.279   3.024   7.481  0.0451  0.7003 -1.4160
   98MOL0     H13185   3.204   2.874   7.444 -1.5759 -0.5629  0.5563
   98MOL0     H13186   3.122   3.142   7.304 -1.0909 -0.6571  2.2045
   98MOL0     H13187   3.051   2.996   7.263  0.1296  2.0934 -1.4689
   98MOL0     H13188   3.228   3.041   7.103  0.6606  1.8211 -0.4698
   98MOL0     H13189   3.290   2.899   7.192 -1.3572 -0.7018 -0.3751
   98MOL0     H13190   3.535   3.266   7.295  3.8247  1.4575 -0.0044
   98MOL0     H13191   3.679   3.380   7.161 -0.8833 -2.7831  4.1050
   98MOL0     H13192   3.813   3.105   6.572  0.6115  0.2270 -1.0686
   98MOL0     H13193   3.931   3.137   6.375 -0.6655 -0.1163 -0.2192
   98MOL0     H13194   4.078   3.366   6.091 -0.3720 -0.9729 -1.6607
   98MOL0     H13195   4.073   3.228   6.186 -0.6321 -0.7780 -1.4780
   98MOL0     H13196   3.809   3.274   6.209  1.8706 -0.5373  1.4139
   98MOL0     H13197   3.832   3.406   6.095  2.1530 -0.1887 -3.1870
   98MOL0     H13198   3.746   3.236   5.960 -2.0510 -1.4641  2.4810
   98MOL0     H13199   3.912   3.272   5.924 -0.6869  4.7753  2.6287
   98MOL0     H13200   3.784   3.022   6.026  0.1961 -0.9713  0.9358
   98MOL0     H13201   3.911   3.061   6.135 -0.3820 -2.5992 -0.1948
   98MOL0     H13202   4.089   3.079   5.961  0.4758  0.0560 -0.8222
   98MOL0     H13203   3.975   3.048   5.827 -0.5344  0.1024  0.4714
   98MOL0     H13204   4.004   2.853   6.033  0.1428  0.6678 -0.1842
   98MOL0     H13205   3.937   2.831   5.869  0.8886 -3.1103  0.9102
   98MOL0     H13206   4.219   2.854   5.967  0.6682  3.5270 -1.6326
   98MOL0     H13207   4.195   2.879   5.798 -3.2501  0.0865 -2.2855
   98MOL0     H13208   4.265   2.651   5.834  0.1406  1.8927  0.7360
   98MOL0     H13209   4.113   2.625   5.937 -0.3200  0.8331  0.1707
   98MOL0     H13210   4.031   3.544   6.487 -1.2866  0.7351 -1.1694
   98MOL0     H13211   3.933   3.485   6.723 -1.9460  1.2552 -0.0746
   98MOL0     H13212   3.588   3.112   6.824 -1.7472  1.3841 -1.1971
   98MOL0     H13213   3.412   3.010   6.997 -1.1960  0.4079  1.0179
   98MOL0     H13214   3.750   2.637   7.629 -1.0329 -0.8835 -0.8721
   98MOL0     H13215   3.920   2.696   7.465 -0.6212 -0.1961 -1.1632
   98MOL0     H13216   3.913   3.013   7.017  0.5019  3.8536 -3.1546
   98MOL0     H13217   4.042   3.089   6.819 -0.0625 -0.5124 -0.9308
   98MOL0     H13218   4.205   3.230   6.761  0.3572 -0.3458 -1.5153
   98MOL0     H13219   4.183   3.094   6.642 -0.2519 -0.3973  0.6910
   98MOL0     H13220   4.449   3.229   6.649 -0.1332 -0.6474  0.9261
   98MOL0     H13221   4.309   3.290   6.543  2.6854  2.2895  1.9131
   98MOL0     H13222   4.291   3.064   6.444 -0.2688  0.5742 -0.0664
   98MOL0     H13223   4.416   3.010   6.558  0.1254  0.6231  1.7494
   98MOL0     H13224   4.499   3.027   6.329  0.4137  0.3015 -0.4792
   98MOL0     H13225   4.441   3.191   6.320 -3.9584 -2.6058 -0.5888
   98MOL0     H13226   4.805   3.231   6.530 -0.5987  1.7895 -0.4807
   98MOL0     H13227   4.401   2.937   6.996 -0.3432  0.7068 -2.4274
   98MOL0     H13228   4.302   2.915   7.313 -0.7601  0.8022 -1.1029
   98MOL0     H13229   4.272   2.753   7.266  0.3632 -0.5468 -2.7633
   98MOL0     H13230   4.417   2.839   7.201 -0.1646  1.5501 -2.4019
   99MOL0     O13231   3.007   5.906   4.714  0.0325 -0.3441  0.1350
   99MOL0     C13232   2.904   5.963   4.661 -1.7908  0.3458 -0.0520
   99MOL0     O13233   2.924   6.037   4.560 -0.1307 -0.3977  0.8206
   99MOL0     C13234   3.049   6.069   4.507  0.0670 -0.3560  0.0825
   99MOL0     C13235   3.097   5.985   4.407 -0.1211  0.3719 -0.4344
   99MOL0     C13236   3.217   6.009   4.345  0.5483  0.3175 -0.7125
   99MOL0     C13237   3.285   6.127   4.391 -1.9857  0.0967  0.2038
   99MOL0     O13238   3.420   6.136   4.350  0.4889 -0.2109  0.8720
   99MOL0     C13239   3.451   6.253   4.272 -1.1618 -0.4785  0.6426
   99MOL0     C13240   3.602   6.278   4.282  0.1508  0.2061 -0.2176
   99MOL0     C13241   3.693   6.161   4.240  0.7304 -0.5159 -0.3946
   99MOL0     C13242   3.825   6.160   4.310 -0.3868 -0.4650 -0.5574
   99MOL0     C13243   3.935   6.264   4.286 -0.6834  0.1656  0.4309
   99MOL0     C13244   3.993   6.280   4.139  0.3823  0.2899 -0.8530
   99MOL0     C13245   4.114   6.379   4.141 -0.4543 -0.9114 -0.2335
   99MOL0     C13246   4.204   6.346   4.020  0.5744 -0.3602  0.3134
   99MOL0     N13247   4.139   6.353   3.892 -0.5652  0.2147  0.3827
   99MOL0     C13248   4.089   6.463   3.830  0.6449  0.6344 -0.3117
   99MOL0     C13249   4.057   6.419   3.710 -0.0356 -0.4826 -0.0593
   99MOL0     C13250   3.994   6.503   3.603 -0.3901 -0.1618 -0.4389
   99MOL0     C13251   3.881   6.601   3.649 -0.3926 -0.1489  0.2748
   99MOL0     C13252   3.857   6.709   3.554  0.7467  0.7906 -0.7819
   99MOL0     C13253   3.814   6.649   3.416  0.1595  0.6052  0.4397
   99MOL0     O13254   3.763   6.752   3.329 -0.1837  0.1998  0.3791
   99MOL0     C13255   3.839   6.857   3.306  0.2711  0.2707 -0.2823
   99MOL0     C13256   3.979   6.850   3.301 -0.0631  0.1123 -0.5166
   99MOL0     C13257   4.062   6.964   3.292  0.2521 -0.0771  0.0830
   99MOL0     C13258   4.000   7.086   3.271 -0.1337 -0.2335  0.0465
   99MOL0     C13259   4.094   7.199   3.242  0.2531  0.1321 -0.1176
   99MOL0     O13260   4.225   7.180   3.237 -0.3915  0.2972 -0.1760
   99MOL0     C13261   4.299   7.292   3.226  0.2464  0.6296 -0.3844
   99MOL0     C13262   4.398   7.289   3.132 -0.6076 -0.7156  0.4710
   99MOL0     C13263   4.490   7.402   3.134 -1.0121  0.5691  0.2057
   99MOL0     C13264   4.482   7.510   3.230  0.2630 -0.9352  0.3080
   99MOL0     O13265   4.568   7.624   3.244  0.5137  0.2903 -0.0624
   99MOL0     C13266   4.708   7.593   3.246 -0.7913 -0.4617  0.2046
   99MOL0     C13267   4.781   7.727   3.215 -0.3819  0.0445  0.0925
   99MOL0     C13268   4.748   7.776   3.075 -0.2817  0.2907  0.0976
   99MOL0     C13269   4.811   7.687   2.968  0.4988 -0.7584  0.7321
   99MOL0     C13270   4.781   7.744   2.825 -0.2810 -0.4592  0.5663
   99MOL0     C13271   4.876   7.855   2.772  0.8273  0.5530  1.0271
   99MOL0     C13272   5.016   7.782   2.751 -0.2131 -0.1372  0.0996
   99MOL0     C13273   5.113   7.862   2.664 -0.2947 -0.3449  0.1150
   99MOL0    Cl13274   5.072   7.837   2.490 -0.5502 -0.0275 -0.4164
   99MOL0     C13275   4.378   7.503   3.316 -0.3447  0.0285 -0.4595
   99MOL0     C13276   4.303   7.388   3.321 -0.1922 -0.5086 -0.4360
   99MOL0     O13277   4.031   7.308   3.256  0.1111 -0.0560  0.2914
   99MOL0     C13278   3.861   7.093   3.262 -0.8277  0.7005 -0.1563
   99MOL0     C13279   3.779   6.982   3.278 -0.2172 -0.0887  0.6488
   99MOL0     N13280   4.063   6.285   3.700 -0.1078 -0.3171  0.6066
   99MOL0     N13281   4.120   6.244   3.803  0.1494  0.5589 -0.3998
   99MOL0     C13282   3.240   6.210   4.496  0.1019  0.1712 -0.3803
   99MOL0     C13283   3.120   6.182   4.546  0.9235  0.4382 -0.3410
   99MOL0     C13284   2.772   5.935   4.726  0.2097  0.8373 -1.0484
   99MOL0     C13285   2.652   5.989   4.667 -0.4059 -0.8875 -0.3252
   99MOL0     C13286   2.529   5.983   4.727 -0.2122 -0.3356  0.2592
   99MOL0     C13287   2.511   5.916   4.846 -0.3523 -0.8852 -0.6349
   99MOL0     O13288   2.392   5.913   4.913 -0.0429 -0.2431  0.5213
   99MOL0     C13289   2.276   5.964   4.858  1.4576 -0.1637  0.5310
   99MOL0     C13290   2.151   5.929   4.956 -0.4456  0.0482 -0.0883
   99MOL0     C13291   2.035   6.030   4.955  0.8322  0.2534  0.7417
   99MOL0     C13292   1.995   6.068   4.806 -0.3770 -0.3709  0.3807
   99MOL0     C13293   1.885   6.172   4.804 -0.3681 -0.1900  0.4849
   99MOL0     C13294   1.810   6.266   4.789 -0.9504 -0.7330  0.8922
   99MOL0     C13295   2.621   5.859   4.903 -0.2550  0.0881  0.0263
   99MOL0     C13296   2.746   5.868   4.850  0.2267  0.2990 -0.2120
   99MOL0     C13297   2.851   5.807   4.942 -0.3653 -0.2721 -0.4014
   99MOL0     H13298   3.026   5.910   4.375 -0.6473  1.4754 -2.0110
   99MOL0     H13299   3.262   5.955   4.263  0.3113  0.3084 -0.8369
   99MOL0     H13300   3.422   6.239   4.167  1.8492  0.3751 -0.4006
   99MOL0     H13301   3.392   6.331   4.320 -3.4014 -0.0784 -2.4514
   99MOL0     H13302   3.612   6.287   4.391 -0.5552 -4.7765  0.5032
   99MOL0     H13303   3.640   6.365   4.229  2.1654 -0.9629 -0.8018
   99MOL0     H13304   3.723   6.165   4.135 -0.3778  3.7169 -0.7668
   99MOL0     H13305   3.641   6.068   4.263  0.1489  0.1580  1.1412
   99MOL0     H13306   3.801   6.141   4.415 -0.0018  3.5936  0.3964
   99MOL0     H13307   3.865   6.062   4.280  2.3484 -0.2668  1.9992
   99MOL0     H13308   3.893   6.359   4.320 -1.1924 -0.6721  2.2815
   99MOL0     H13309   4.014   6.242   4.359 -1.9985  0.3028  1.9418
   99MOL0     H13310   4.035   6.187   4.099  0.7324 -0.3127  0.8646
   99MOL0     H13311   3.919   6.311   4.064 -0.8801  2.6784  1.2243
   99MOL0     H13312   4.177   6.359   4.229 -1.8791  0.3111  1.1241
   99MOL0     H13313   4.088   6.485   4.149 -0.5851 -0.7096 -2.6482
   99MOL0     H13314   4.291   6.411   4.031  0.3312 -0.0499  0.4333
   99MOL0     H13315   4.235   6.243   4.041 -1.0732 -0.6964  1.3377
   99MOL0     H13316   4.080   6.554   3.888  0.0849 -0.3494  1.2137
   99MOL0     H13317   4.073   6.562   3.557  1.4312 -1.4518  0.8884
   99MOL0     H13318   3.952   6.436   3.528  0.4520  2.8282 -3.8374
   99MOL0     H13319   3.784   6.551   3.664 -0.7059  0.1835 -0.6107
   99MOL0     H13320   3.904   6.652   3.742 -0.1178  1.5520 -0.6932
   99MOL0     H13321   3.941   6.777   3.535  1.8987 -0.3318  0.1050
   99MOL0     H13322   3.765   6.762   3.582  1.0482  2.4232 -2.6490
   99MOL0     H13323   3.738   6.571   3.429 -0.6916  1.5522  1.3791
   99MOL0     H13324   3.904   6.597   3.383 -0.5551  0.3297 -1.1738
   99MOL0     H13325   4.027   6.753   3.310  0.9400  0.5011 -1.5270
   99MOL0     H13326   4.168   6.946   3.285 -0.2299 -3.1630 -0.6913
   99MOL0     H13327   4.421   7.207   3.065  3.3545  0.4176  0.1852
   99MOL0     H13328   4.561   7.408   3.053  0.3960 -2.3911  1.1171
   99MOL0     H13329   4.742   7.556   3.343 -0.0176 -1.0092 -0.2751
   99MOL0     H13330   4.734   7.518   3.171  1.4418 -0.0781  0.5512
   99MOL0     H13331   4.736   7.799   3.284 -0.1232 -1.9819  2.5488
   99MOL0     H13332   4.889   7.722   3.224 -0.2781  1.0449 -0.5036
   99MOL0     H13333   4.639   7.776   3.066 -0.4262  0.1685  1.5773
   99MOL0     H13334   4.793   7.875   3.058 -1.0040  0.4674 -0.9458
   99MOL0     H13335   4.781   7.582   2.975 -0.9472 -0.2739  2.3491
   99MOL0     H13336   4.918   7.681   2.988  0.2268 -4.4310  1.7364
   99MOL0     H13337   4.676   7.777   2.824 -1.4756 -3.8098 -2.3465
   99MOL0     H13338   4.785   7.658   2.759  2.5705  1.0876 -1.4589
   99MOL0     H13339   4.827   7.884   2.679 -1.2482 -1.4520  1.4133
   99MOL0     H13340   4.874   7.941   2.840  0.2738  2.1445 -0.9142
   99MOL0     H13341   5.010   7.692   2.690  0.5029  1.4152 -2.4053
   99MOL0     H13342   5.059   7.757   2.849  0.2793  0.0338 -0.0685
   99MOL0     H13343   5.109   7.965   2.698  3.4966 -0.2388  0.7200
   99MOL0     H13344   5.217   7.831   2.680 -0.1583  0.9335  2.0006
   99MOL0     H13345   4.378   7.585   3.387  0.5699  2.1665 -2.7665
   99MOL0     H13346   4.231   7.385   3.403  0.4868  1.2166  0.2759
   99MOL0     H13347   3.817   7.186   3.228  1.0653  0.2927 -4.2504
   99MOL0     H13348   3.670   6.989   3.283 -0.0882  1.5931  3.2447
   99MOL0     H13349   3.291   6.291   4.547  2.1549 -1.1015 -0.2485
   99MOL0     H13350   3.061   6.250   4.607 -3.5280 -1.2790 -2.2955
   99MOL0     H13351   2.650   6.043   4.573 -0.1998 -2.2061 -1.1076
   99MOL0     H13352   2.449   6.039   4.679 -0.4748  2.4138  3.5138
   99MOL0     H13353   2.267   5.921   4.758 -1.0815 -3.0620  1.8661
   99MOL0     H13354   2.269   6.073   4.853 -0.7806 -0.3021 -0.4695
   99MOL0     H13355   2.186   5.927   5.060  2.0970  2.5891 -0.7897
   99MOL0     H13356   2.121   5.824   4.943  1.6941 -1.1845  3.4735
   99MOL0     H13357   2.055   6.120   5.014  1.1168 -0.7281  2.2223
   99MOL0     H13358   1.944   5.982   4.995  0.2502 -0.6507 -1.5314
   99MOL0     H13359   2.075   6.114   4.749 -1.2874  2.5131  1.2818
   99MOL0     H13360   1.950   5.982   4.756 -0.2022 -0.2666  0.0463
   99MOL0     H13361   1.738   6.345   4.782 -0.2808 -0.2498 -0.9944
   99MOL0     H13362   2.616   5.807   4.998  2.5038 -0.0038  0.2163
   99MOL0     H13363   2.832   5.800   5.050 -0.4411  0.3484 -0.3722
   99MOL0     H13364   2.859   5.702   4.911 -1.9329  0.0604 -2.1193
   99MOL0     H13365   2.946   5.860   4.937 -2.2765  3.5332  0.0740
  100MOL0     O13366   2.060   7.477  10.295 -0.2039 -0.0364 -0.2423
  100MOL0     C13367   2.158   7.529  10.241 -0.2227  0.7971  0.6937
  100MOL0     O13368   2.285   7.505  10.280  0.7407  0.5642  0.5471
  100MOL0     C13369   2.329   7.410  10.367  0.1759 -0.4595 -0.6294
  100MOL0     C13370   2.423   7.318  10.318 -0.2628 -0.6748 -0.1135
  100MOL0     C13371   2.466   7.218  10.398  0.3131 -0.7391  0.0151
  100MOL0     C13372   2.410   7.199  10.528  0.0168  0.0611 -0.4963
  100MOL0     O13373   2.460   7.107  10.606 -0.6936  0.2161 -0.1675
  100MOL0     C13374   2.586   7.136  10.655 -0.1520  0.1807 -1.0780
  100MOL0     C13375   2.601   7.067  10.792  1.1027 -0.9926 -0.3723
  100MOL0     C13376   2.556   7.159  10.904  0.7299  0.0061 -0.8572
  100MOL0     C13377   2.588   7.101  11.039 -0.1968  0.6709 -0.6899
  100MOL0     C13378   2.741   7.090  11.062  0.0538 -0.9890  1.0540
  100MOL0     C13379   2.772   7.076  11.206  1.0284  0.0871  0.7773
  100MOL0     C13380   2.777   6.927  11.241 -0.9676 -0.0908 -0.3131
  100MOL0     C13381   2.924   6.862  11.213 -0.0356 -0.4166 -0.6516
  100MOL0     N13382   2.911   6.720  11.224 -0.5637  0.0917  0.1079
  100MOL0     C13383   2.840   6.636  11.314 -0.2706 -0.6996  0.1159
  100MOL0     C13384   2.896   6.517  11.307  0.0007  0.3731  0.2831
  100MOL0     C13385   2.856   6.405  11.403 -0.5652  1.3426  0.8800
  100MOL0     C13386   2.835   6.271  11.321  0.5881 -0.5954  0.1555
  100MOL0     C13387   2.949   6.176  11.326 -1.5100  0.6538  0.1889
  100MOL0     C13388   3.068   6.220  11.255 -0.1676 -0.4354  0.5994
  100MOL0     O13389   3.171   6.126  11.288  1.0529  0.0412  0.2610
  100MOL0     C13390   3.305   6.135  11.280 -0.2329 -0.0650  0.7254
  100MOL0     C13391   3.370   6.257  11.253 -0.3686 -0.3368  0.3901
  100MOL0     C13392   3.506   6.269  11.273 -0.1085  0.7518 -0.4696
  100MOL0     C13393   3.579   6.151  11.312 -0.6882 -0.0301  0.2973
  100MOL0     C13394   3.727   6.156  11.349 -0.3004  0.1406  0.6338
  100MOL0     O13395   3.791   6.275  11.362 -0.5097  0.6149 -0.6057
  100MOL0     C13396   3.926   6.270  11.370  0.3587  0.1795 -0.4088
  100MOL0     C13397   4.000   6.203  11.273  0.0964  1.7072 -0.3160
  100MOL0     C13398   4.132   6.171  11.292  0.7977  0.1919  0.0180
  100MOL0     C13399   4.203   6.194  11.406  0.1691 -0.2590 -0.1401
  100MOL0     O13400   4.324   6.125  11.428  1.2957 -0.9157  0.3083
  100MOL0     C13401   4.420   6.173  11.516 -0.5923  0.1308 -0.6196
  100MOL0     C13402   4.485   6.305  11.474 -0.3628 -0.1387 -0.5876
  100MOL0     C13403   4.572   6.298  11.351  0.0148  0.5368  0.1203
  100MOL0     C13404   4.496   6.349  11.229  0.0666  0.6986  0.2391
  100MOL0     C13405   4.591   6.317  11.104 -0.2688  0.7241 -0.3729
  100MOL0     C13406   4.539   6.369  10.972  0.2185 -0.3550 -0.1411
  100MOL0     C13407   4.625   6.313  10.850  0.1244 -0.1401 -0.1051
  100MOL0     C13408   4.744   6.402  10.824 -0.1005 -0.4981  0.4612
  100MOL0    Cl13409   4.693   6.547  10.730 -0.0788 -0.4209 -0.1107
  100MOL0     C13410   4.138   6.269  11.511  0.9885  0.3160  0.2304
  100MOL0     C13411   4.003   6.302  11.495 -0.0448  0.6125 -0.6034
  100MOL0     O13412   3.784   6.044  11.364  0.2888 -0.0288  0.1337
  100MOL0     C13413   3.515   6.023  11.324  0.3943 -0.4384  1.1413
  100MOL0     C13414   3.373   6.020  11.315 -0.8048  0.2890 -0.0521
  100MOL0     N13415   2.990   6.520  11.203 -0.0251  0.9945  0.2277
  100MOL0     N13416   3.000   6.636  11.157  0.4062 -0.0692  0.6098
  100MOL0     C13417   2.308   7.285  10.568  0.6965  0.1756  0.3999
  100MOL0     C13418   2.279   7.401  10.492 -0.1757  0.1886 -0.9932
  100MOL0     C13419   2.124   7.622  10.132 -0.0824 -0.6562 -0.6099
  100MOL0     C13420   2.221   7.639  10.039  0.7178 -0.7795  0.3125
  100MOL0     C13421   2.211   7.730   9.930 -0.0101 -0.3374 -0.0308
  100MOL0     C13422   2.109   7.826   9.918  0.3123 -0.2728  0.2212
  100MOL0     O13423   2.106   7.922   9.815 -0.4816 -0.1979 -0.4245
  100MOL0     C13424   2.220   7.969   9.740  1.5780  0.7701 -0.2472
  100MOL0     C13425   2.328   8.039   9.827 -0.0328  0.1721 -0.1989
  100MOL0     C13426   2.285   8.168   9.887 -0.2916  0.6607 -0.4591
  100MOL0     C13427   2.200   8.250   9.783  0.1255 -1.1139  0.5408
  100MOL0     C13428   2.213   8.395   9.821  0.5967  0.0189 -0.2011
  100MOL0     C13429   2.218   8.513   9.846 -1.3621  0.1343  0.5871
  100MOL0     C13430   2.011   7.804  10.007 -0.7290 -0.9362 -0.2154
  100MOL0     C13431   2.010   7.706  10.118 -0.6774 -0.2985  0.7333
  100MOL0     C13432   1.911   7.713  10.224 -0.5587 -0.2479 -0.1121
  100MOL0     H13433   2.475   7.333  10.224 -0.2187  2.5571  0.3290
  100MOL0     H13434   2.546   7.152  10.365  0.6798 -1.4734  2.1908
  100MOL0     H13435   2.659   7.094  10.586  0.0743  2.0471 -2.0240
  100MOL0     H13436   2.616   7.240  10.674 -1.0771 -0.0443  2.2321
  100MOL0     H13437   2.706   7.037  10.795  1.6881  0.9353 -0.2404
  100MOL0     H13438   2.546   6.973  10.798  0.4754 -0.6687 -0.9557
  100MOL0     H13439   2.452   7.194  10.895  0.9591  0.6645 -1.0436
  100MOL0     H13440   2.614   7.252  10.901  2.1678 -0.8679 -0.9053
  100MOL0     H13441   2.529   7.158  11.111  1.2934 -0.3532  1.4586
  100MOL0     H13442   2.547   7.001  11.054  1.0215  0.4365  1.6130
  100MOL0     H13443   2.781   7.015  10.994 -0.2251 -0.3130  0.1161
  100MOL0     H13444   2.784   7.186  11.031  0.6213 -1.2877  0.9101
  100MOL0     H13445   2.876   7.107  11.219  1.0136 -0.1368  1.4708
  100MOL0     H13446   2.703   7.121  11.278  1.2553 -0.9579  1.6844
  100MOL0     H13447   2.706   6.865  11.186 -0.3588 -0.1576 -1.0313
  100MOL0     H13448   2.763   6.918  11.349 -4.4433  1.1153 -0.5199
  100MOL0     H13449   2.948   6.889  11.110 -0.7505 -0.8259 -0.9275
  100MOL0     H13450   3.000   6.899  11.282 -1.0617  1.3868 -0.4101
  100MOL0     H13451   2.764   6.680  11.379  0.2230  0.7403 -0.2326
  100MOL0     H13452   2.925   6.401  11.487  0.8576 -0.5550 -0.2848
  100MOL0     H13453   2.754   6.424  11.437 -1.4589 -1.5944  0.1042
  100MOL0     H13454   2.758   6.227  11.385 -1.5524  0.8115 -1.3167
  100MOL0     H13455   2.795   6.286  11.220 -1.5554  0.2708  1.0768
  100MOL0     H13456   2.919   6.078  11.289  1.5952 -0.2739 -0.1471
  100MOL0     H13457   2.981   6.157  11.429  1.0619 -2.7928 -1.0541
  100MOL0     H13458   3.106   6.310  11.305  1.4055 -1.6241  1.6478
  100MOL0     H13459   3.044   6.226  11.149  0.2796 -0.2928  0.5037
  100MOL0     H13460   3.312   6.342  11.218 -2.4090 -1.7180  0.2421
  100MOL0     H13461   3.561   6.360  11.252  3.1011 -1.2780 -1.6547
  100MOL0     H13462   3.957   6.162  11.183 -1.1743 -2.0337  1.7666
  100MOL0     H13463   4.164   6.129  11.197 -3.5427  1.9007 -2.4873
  100MOL0     H13464   4.389   6.166  11.621  1.8059  1.4537  0.2702
  100MOL0     H13465   4.493   6.092  11.512 -2.2019 -1.3558 -1.1177
  100MOL0     H13466   4.403   6.375  11.459  2.9759  4.1498 -0.7814
  100MOL0     H13467   4.531   6.357  11.559 -3.8537  4.9793 -1.4164
  100MOL0     H13468   4.647   6.377  11.361 -0.8839  1.6736 -1.6167
  100MOL0     H13469   4.602   6.200  11.314  1.6281  1.0079  0.1042
  100MOL0     H13470   4.464   6.454  11.227  1.5962  1.1955 -0.4948
  100MOL0     H13471   4.407   6.288  11.213  0.9591 -1.1872  1.9542
  100MOL0     H13472   4.606   6.210  11.092 -3.1806  0.3717 -1.6628
  100MOL0     H13473   4.688   6.364  11.121 -0.6099  0.8799  1.3261
  100MOL0     H13474   4.433   6.345  10.957  0.4764 -0.2336 -2.6777
  100MOL0     H13475   4.551   6.477  10.978  3.0944 -0.4572 -2.1169
  100MOL0     H13476   4.562   6.298  10.761  1.3177  0.2467 -1.0516
  100MOL0     H13477   4.662   6.215  10.880  2.3973  1.0998  1.4054
  100MOL0     H13478   4.806   6.437  10.907  1.6915  0.1453 -1.0606
  100MOL0     H13479   4.803   6.335  10.760 -0.6150  0.4501 -1.0546
  100MOL0     H13480   4.190   6.305  11.598 -0.4743  0.7134  0.9682
  100MOL0     H13481   3.957   6.356  11.576  1.5254 -2.3174  2.4668
  100MOL0     H13482   3.577   5.934  11.327  1.1911  0.0020 -0.8439
  100MOL0     H13483   3.315   5.928  11.306  2.0302 -1.8867  2.0378
  100MOL0     H13484   2.252   7.284  10.661  0.5811  1.6989  0.3621
  100MOL0     H13485   2.217   7.475  10.542  3.0353  0.9902  2.2161
  100MOL0     H13486   2.304   7.569  10.034 -0.6377 -2.4054 -0.3455
  100MOL0     H13487   2.291   7.726   9.857  0.4991  0.7168  0.4596
  100MOL0     H13488   2.189   8.018   9.648  0.9452 -3.4682 -2.5714
  100MOL0     H13489   2.263   7.878   9.698 -3.4521 -2.0268 -0.1215
  100MOL0     H13490   2.421   8.060   9.774 -0.0655  3.5562  0.8219
  100MOL0     H13491   2.361   7.982   9.914  2.3602  0.1969 -1.0269
  100MOL0     H13492   2.379   8.217   9.913 -0.7379  1.9548 -1.1742
  100MOL0     H13493   2.222   8.153   9.975  1.9741  1.4125  1.4049
  100MOL0     H13494   2.241   8.248   9.681  0.4153 -0.1552  0.6297
  100MOL0     H13495   2.102   8.211   9.755 -2.0208  2.8187  1.9674
  100MOL0     H13496   2.241   8.617   9.856 -0.1121 -0.3718  5.1608
  100MOL0     H13497   1.920   7.860   9.987 -0.7082 -0.8123  0.0236
  100MOL0     H13498   1.835   7.635  10.216 -2.3210  1.1952  1.6387
  100MOL0     H13499   1.957   7.696  10.321 -0.6804  0.7009  0.1212
  100MOL0     H13500   1.854   7.806  10.230  0.1618  0.4094 -2.2046
  101MOL0     O13501   3.652  10.089   9.196  0.5607 -0.0357  0.1558
  101MOL0     C13502   3.650  10.200   9.241  1.2339  0.4053 -0.0795
  101MOL0     O13503   3.760  10.265   9.283  0.7560 -0.7710  0.0779
  101MOL0     C13504   3.883  10.222   9.259  0.3260 -0.7352  0.5305
  101MOL0     C13505   3.958  10.246   9.140 -0.6049 -0.1273  0.0829
  101MOL0     C13506   4.079  10.186   9.108  0.4412  0.0670  0.0649
  101MOL0     C13507   4.129  10.084   9.193 -0.3229 -0.1757  0.2002
  101MOL0     O13508   4.258  10.025   9.179  0.1674 -0.2632  0.4626
  101MOL0     C13509   4.360  10.082   9.097 -0.8753  0.1124  0.2555
  101MOL0     C13510   4.453   9.966   9.074  0.0144  0.2971  0.1662
  101MOL0     C13511   4.572  10.005   9.000  0.0206  0.7269  0.0539
  101MOL0     C13512   4.660  10.113   9.086  0.1600 -0.6302  0.6274
  101MOL0     C13513   4.806  10.125   9.045  0.4386 -0.7175  0.1913
  101MOL0     C13514   4.907  10.219   9.119  0.0185  0.0053  0.0954
  101MOL0     C13515   4.959  10.142   9.244  0.7070  0.5305 -0.4328
  101MOL0     C13516   5.078  10.224   9.314  0.2984  0.1816  0.8450
  101MOL0     N13517   5.026  10.322   9.412 -0.4448 -0.2996  0.7031
  101MOL0     C13518   5.054  10.329   9.547 -0.2715  0.9932 -0.1019
  101MOL0     C13519   5.029  10.451   9.586 -0.5796  0.3525 -0.6370
  101MOL0     C13520   5.055  10.511   9.725 -0.8174  0.9505  0.1888
  101MOL0     C13521   4.953  10.471   9.837  0.7527 -0.1461  0.8031
  101MOL0     C13522   4.801  10.444   9.794 -0.5884 -0.0945  0.1439
  101MOL0     C13523   4.714  10.453   9.914  1.5378  1.2367  0.6897
  101MOL0     O13524   4.583  10.400   9.877 -0.3322  0.0880  0.1217
  101MOL0     C13525   4.545  10.293   9.959 -0.9347 -0.2339 -0.6719
  101MOL0     C13526   4.629  10.179   9.977  0.0773  0.3791  0.3460
  101MOL0     C13527   4.583  10.067  10.042 -0.1612  0.0492 -0.4435
  101MOL0     C13528   4.456  10.070  10.113 -1.3341  0.7882 -0.1336
  101MOL0     C13529   4.419   9.957  10.195  0.3411 -0.4551 -0.1750
  101MOL0     O13530   4.346   9.987  10.296  0.1309  0.0179 -0.3291
  101MOL0     C13531   4.294   9.889  10.376 -0.6173 -0.3228 -0.8113
  101MOL0     C13532   4.354   9.851  10.499  0.1761 -1.0355  0.2212
  101MOL0     C13533   4.299   9.746  10.574  0.0587  0.5793  1.4407
  101MOL0     C13534   4.180   9.677  10.532  0.8721 -0.0753 -1.0667
  101MOL0     O13535   4.113   9.576  10.607  0.0584 -0.4543  0.9135
  101MOL0     C13536   4.198   9.455  10.609 -0.5977  0.0121 -0.1274
  101MOL0     C13537   4.144   9.361  10.715  0.1291  0.0772 -0.5485
  101MOL0     C13538   4.117   9.431  10.851  0.1168 -0.1220 -0.1450
  101MOL0     C13539   3.964   9.434  10.875 -0.2540 -0.8145 -0.1836
  101MOL0     C13540   3.940   9.549  10.979 -0.3165  0.0744  0.2824
  101MOL0     C13541   3.784   9.557  11.013  0.2707 -0.4473  0.4173
  101MOL0     C13542   3.738   9.666  11.113 -0.6255 -0.0580 -0.1035
  101MOL0     C13543   3.769   9.812  11.067  0.0171 -0.3932 -0.6282
  101MOL0    Cl13544   3.707   9.930  11.200  0.6012  0.0983 -0.0851
  101MOL0     C13545   4.126   9.709  10.410 -0.8565  0.1962  0.0947
  101MOL0     C13546   4.182   9.824  10.344  0.1085  0.1577  0.5274
  101MOL0     O13547   4.456   9.847  10.154  0.2128 -0.2885 -0.2259
  101MOL0     C13548   4.379  10.181  10.097  0.1703  0.1107  1.0912
  101MOL0     C13549   4.426  10.288  10.026  0.7385 -0.6872 -0.8315
  101MOL0     N13550   4.966  10.516   9.479  0.3161  0.1205 -0.7351
  101MOL0     N13551   4.969  10.437   9.374  0.5116  0.1089  0.6621
  101MOL0     C13552   4.055  10.056   9.307 -0.6007  0.1404  0.1834
  101MOL0     C13553   3.937  10.123   9.344 -0.5517 -0.2367 -0.2236
  101MOL0     C13554   3.522  10.279   9.260 -0.0914 -0.0129 -0.6780
  101MOL0     C13555   3.522  10.388   9.346 -0.2671  1.1163  0.6860
  101MOL0     C13556   3.403  10.451   9.384 -0.2728 -0.3513 -0.4304
  101MOL0     C13557   3.285  10.424   9.323  0.6115 -0.9019 -0.2082
  101MOL0     O13558   3.162  10.479   9.362 -0.2510 -0.1293 -0.6623
  101MOL0     C13559   3.117  10.446   9.494 -0.0983  0.0698 -0.0708
  101MOL0     C13560   3.004  10.337   9.496  0.4700 -0.3504  0.7592
  101MOL0     C13561   3.069  10.203   9.491 -0.1038  0.5714  0.7790
  101MOL0     C13562   2.982  10.075   9.477 -0.3431  0.1707 -0.4911
  101MOL0     C13563   3.067   9.959   9.497 -0.1934  0.3103  0.5631
  101MOL0     C13564   3.138   9.861   9.515  0.0385  0.2956  0.9472
  101MOL0     C13565   3.290  10.327   9.225  0.0965 -0.3925  0.5657
  101MOL0     C13566   3.401  10.243   9.202  0.2727  0.6767  0.4708
  101MOL0     C13567   3.393  10.142   9.092  0.8890  0.1984 -0.0191
  101MOL0     H13568   3.918  10.325   9.078  0.0245  0.7587  0.7834
  101MOL0     H13569   4.145  10.209   9.025  1.4812 -0.5674  0.6838
  101MOL0     H13570   4.318  10.121   9.003 -2.1413 -0.4198  0.5757
  101MOL0     H13571   4.411  10.165   9.146 -1.9700  1.7238 -1.1840
  101MOL0     H13572   4.398   9.886   9.024 -2.6030  2.0973 -0.0362
  101MOL0     H13573   4.481   9.922   9.170  0.5867  0.5047  0.0975
  101MOL0     H13574   4.541  10.040   8.901  0.2784 -1.0907 -0.7064
  101MOL0     H13575   4.622   9.908   8.995 -2.6627 -0.9147  2.3210
  101MOL0     H13576   4.610  10.206   9.060  2.1708  0.5248  0.6886
  101MOL0     H13577   4.654  10.097   9.194  3.3342  1.2935  1.2065
  101MOL0     H13578   4.849  10.027   9.022  2.3335  0.5720 -2.3427
  101MOL0     H13579   4.798  10.172   8.946  1.8047  1.2438  0.9395
  101MOL0     H13580   4.993  10.246   9.057 -1.1205  4.0242 -0.0356
  101MOL0     H13581   4.856  10.314   9.136  1.4175  0.8802 -0.3511
  101MOL0     H13582   4.990  10.041   9.216 -1.8915 -1.4370  2.9177
  101MOL0     H13583   4.879  10.129   9.318  0.5736 -0.7367 -0.7744
  101MOL0     H13584   5.141  10.156   9.373  0.8101  0.7034  0.9151
  101MOL0     H13585   5.147  10.271   9.244 -0.6515  0.7061  0.2485
  101MOL0     H13586   5.087  10.241   9.602 -1.6031  0.1375 -0.6312
  101MOL0     H13587   5.160  10.487   9.743 -0.4078 -0.8283 -3.5817
  101MOL0     H13588   5.044  10.620   9.719 -0.8120  0.8805 -1.9220
  101MOL0     H13589   4.987  10.373   9.871  3.5794 -0.6236 -2.8026
  101MOL0     H13590   4.946  10.548   9.915 -1.7644  1.7337 -1.1006
  101MOL0     H13591   4.785  10.348   9.744 -1.8755 -1.0292  2.2320
  101MOL0     H13592   4.755  10.520   9.730 -3.2826  1.0502  3.1910
  101MOL0     H13593   4.701  10.559   9.941  2.8111  1.6062 -0.0547
  101MOL0     H13594   4.756  10.403  10.002  0.0868  0.2146  0.8414
  101MOL0     H13595   4.721  10.171   9.920 -0.4455  0.9007 -0.5841
  101MOL0     H13596   4.643   9.977  10.051  1.3003  1.0037 -0.3029
  101MOL0     H13597   4.444   9.885  10.549 -1.3859  0.8200  1.9698
  101MOL0     H13598   4.342   9.711  10.667  1.7973  0.7667  0.7665
  101MOL0     H13599   4.207   9.407  10.511  0.0732  0.7791 -0.4588
  101MOL0     H13600   4.304   9.474  10.629  0.0918  0.7906 -3.8133
  101MOL0     H13601   4.061   9.299  10.680  0.4583 -0.7793  0.1568
  101MOL0     H13602   4.224   9.290  10.736  0.6762  0.9577  0.4337
  101MOL0     H13603   4.171   9.373  10.927  0.4376 -2.9535 -2.3358
  101MOL0     H13604   4.168   9.527  10.845  1.1044 -0.6911 -3.3920
  101MOL0     H13605   3.939   9.337  10.919 -0.9168 -0.7046 -0.3053
  101MOL0     H13606   3.912   9.453  10.781  2.9814  1.0575 -1.7610
  101MOL0     H13607   3.977   9.644  10.939 -0.9107  0.1686 -0.0688
  101MOL0     H13608   4.002   9.537  11.068  0.2801 -1.7339 -0.3533
  101MOL0     H13609   3.727   9.575  10.922  1.4741 -0.0149 -0.2837
  101MOL0     H13610   3.750   9.461  11.052  1.4899 -0.8382  0.5495
  101MOL0     H13611   3.778   9.649  11.213 -1.0063  2.4977  0.5552
  101MOL0     H13612   3.630   9.655  11.130 -0.5004 -1.6117 -0.1144
  101MOL0     H13613   3.878   9.816  11.056 -0.1998  1.3398 -3.1478
  101MOL0     H13614   3.717   9.818  10.971 -1.4397 -1.2855  0.0663
  101MOL0     H13615   4.042   9.652  10.371 -3.0740  1.6959  2.3715
  101MOL0     H13616   4.134   9.851  10.250  2.4438 -2.7143 -1.6910
  101MOL0     H13617   4.291  10.178  10.161  1.0591 -2.7553  2.3162
  101MOL0     H13618   4.373  10.382  10.023  1.6461 -0.1292 -0.0574
  101MOL0     H13619   4.101   9.977   9.366 -2.1795 -0.3817  0.7610
  101MOL0     H13620   3.883  10.083   9.430 -1.8809  0.5028 -0.6893
  101MOL0     H13621   3.620  10.419   9.381  0.2258  0.4602 -0.0908
  101MOL0     H13622   3.400  10.532   9.456 -2.3765 -2.0155  1.5013
  101MOL0     H13623   3.077  10.535   9.543  4.0522  1.2300  1.6567
  101MOL0     H13624   3.198  10.412   9.560 -1.5072 -2.6547  0.3874
  101MOL0     H13625   2.947  10.349   9.403  0.1243  0.9954  1.1214
  101MOL0     H13626   2.933  10.347   9.579  0.6030  3.4775  0.6039
  101MOL0     H13627   3.121  10.204   9.587  2.3150  0.6121 -0.4740
  101MOL0     H13628   3.138  10.208   9.407 -2.6537 -1.1417 -1.5675
  101MOL0     H13629   2.897  10.079   9.545  0.3280  0.0806  0.3675
  101MOL0     H13630   2.946  10.065   9.373 -2.5493 -1.7106  0.3616
  101MOL0     H13631   3.201   9.775   9.527  3.7579  2.6170 -0.1051
  101MOL0     H13632   3.189  10.323   9.186  0.0542  1.6396  0.3502
  101MOL0     H13633   3.314  10.169   9.021  3.2581  1.8787 -2.1662
  101MOL0     H13634   3.488  10.152   9.039  1.8673 -1.1973  1.3768
  101MOL0     H13635   3.380  10.045   9.142 -0.7610 -0.1120 -0.9821
  102MOL0     O13636   4.206   9.135   3.217 -0.1257  0.3372 -0.6599
  102MOL0     C13637   4.114   9.059   3.237 -1.1680  0.4604  0.5514
  102MOL0     O13638   4.095   8.932   3.164 -0.5756 -0.4382  0.3529
  102MOL0     C13639   4.205   8.900   3.088  0.9073  0.2034 -0.2369
  102MOL0     C13640   4.286   8.796   3.133  0.2044 -0.6075 -0.1254
  102MOL0     C13641   4.412   8.763   3.081  0.1502  0.3814 -0.4475
  102MOL0     C13642   4.471   8.839   2.978 -0.3565 -0.1857  0.3244
  102MOL0     O13643   4.587   8.799   2.917  0.5421 -1.0995 -0.8005
  102MOL0     C13644   4.684   8.726   2.995  0.4786 -0.5096 -0.0078
  102MOL0     C13645   4.822   8.728   2.949 -0.0520 -0.5038 -0.6073
  102MOL0     C13646   4.897   8.868   2.958  0.5166 -1.1146  0.6806
  102MOL0     C13647   5.051   8.856   2.964  0.2670 -0.4203 -0.1781
  102MOL0     C13648   5.096   8.785   2.827 -0.7436 -0.0747 -0.5796
  102MOL0     C13649   5.240   8.810   2.798 -0.8917 -0.3145 -0.8991
  102MOL0     C13650   5.345   8.753   2.895 -0.0505  1.0488 -0.8696
  102MOL0     C13651   5.497   8.767   2.868  0.5493 -0.7192  0.1849
  102MOL0     N13652   5.545   8.695   2.745 -0.2129  0.0710 -0.6162
  102MOL0     C13653   5.515   8.716   2.614 -0.7183 -0.8236  0.0411
  102MOL0     C13654   5.597   8.631   2.541 -0.8407  0.2647  0.1961
  102MOL0     C13655   5.612   8.636   2.403 -0.0412  0.1270  0.2980
  102MOL0     C13656   5.726   8.736   2.360 -0.5932 -1.5566 -0.4822
  102MOL0     C13657   5.747   8.785   2.210  0.4724  0.6990 -0.8291
  102MOL0     C13658   5.655   8.889   2.160  0.0447  0.7605 -0.7369
  102MOL0     O13659   5.711   8.962   2.050 -0.3102  0.3361  0.2627
  102MOL0     C13660   5.633   9.023   1.954 -0.4102  0.3128  0.3440
  102MOL0     C13661   5.495   9.016   1.957 -0.2541  0.5257  0.2496
  102MOL0     C13662   5.425   9.084   1.851  0.4001  0.1047 -0.3266
  102MOL0     C13663   5.485   9.147   1.740  0.3015 -0.2059  0.1376
  102MOL0     C13664   5.400   9.199   1.627 -0.4352  1.0335 -0.0242
  102MOL0     O13665   5.264   9.159   1.635 -0.0826  0.6313 -0.0219
  102MOL0     C13666   5.165   9.204   1.549  0.6309  0.2330  0.2362
  102MOL0     C13667   5.055   9.124   1.541 -0.9796  0.1606  0.8020
  102MOL0     C13668   4.938   9.156   1.471  0.3588 -0.7868 -0.0825
  102MOL0     C13669   4.933   9.276   1.401 -0.8493 -0.3215 -0.1999
  102MOL0     O13670   4.817   9.314   1.335 -0.7100 -0.2380 -0.2703
  102MOL0     C13671   4.846   9.367   1.204 -0.2846 -0.1677  0.6871
  102MOL0     C13672   4.761   9.285   1.105  0.2917 -0.4344 -0.1628
  102MOL0     C13673   4.612   9.292   1.143 -0.0062 -0.2708  0.1728
  102MOL0     C13674   4.566   9.432   1.105 -0.2089  0.3469 -0.3670
  102MOL0     C13675   4.415   9.430   1.066  0.2151  0.3977 -0.2300
  102MOL0     C13676   4.372   9.561   1.006  0.2245 -0.2450 -0.9781
  102MOL0     C13677   4.396   9.682   1.103  0.1745  0.4803  0.3900
  102MOL0     C13678   4.347   9.817   1.049  0.3767 -0.0817  0.5886
  102MOL0    Cl13679   4.404   9.955   1.150 -0.3134 -0.0425  0.3388
  102MOL0     C13680   5.047   9.363   1.412 -0.2446  0.2425  0.4304
  102MOL0     C13681   5.165   9.334   1.489 -0.2300  0.4510 -0.0836
  102MOL0     O13682   5.453   9.264   1.539  0.7606 -0.9022  0.1824
  102MOL0     C13683   5.623   9.168   1.754 -0.2736  0.5211  0.6567
  102MOL0     C13684   5.692   9.109   1.859  0.5397  0.1971 -0.0590
  102MOL0     N13685   5.661   8.554   2.632 -0.4153  0.4006  0.3628
  102MOL0     N13686   5.641   8.598   2.759  0.0748  0.7650  0.6646
  102MOL0     C13687   4.389   8.940   2.923 -0.6662 -0.1756 -0.2844
  102MOL0     C13688   4.256   8.964   2.979  0.1866 -0.3297  0.7487
  102MOL0     C13689   4.003   9.102   3.314 -0.1393 -0.7707  0.1510
  102MOL0     C13690   3.873   9.052   3.283 -0.4337  0.6873 -0.1642
  102MOL0     C13691   3.764   9.081   3.362  0.5488 -0.1965  0.4004
  102MOL0     C13692   3.770   9.161   3.472  0.1859  0.6994  0.7921
  102MOL0     O13693   3.650   9.198   3.532  0.1465  0.3730 -0.5118
  102MOL0     C13694   3.651   9.309   3.622  0.1179 -0.2516 -0.3002
  102MOL0     C13695   3.520   9.373   3.637  0.4264 -0.4147 -0.2550
  102MOL0     C13696   3.462   9.420   3.512 -0.4759  0.2411  0.1555
  102MOL0     C13697   3.314   9.456   3.532 -0.6955  0.1102 -0.6306
  102MOL0     C13698   3.302   9.554   3.643  0.1894 -0.9535  0.5319
  102MOL0     C13699   3.300   9.647   3.720  0.2452  0.1316 -0.9199
  102MOL0     C13700   3.900   9.200   3.511  0.7154  0.2029 -0.1484
  102MOL0     C13701   4.016   9.180   3.430  0.0630 -0.0185  0.0191
  102MOL0     C13702   4.155   9.223   3.497  0.1908  0.4278 -0.6153
  102MOL0     H13703   4.252   8.731   3.212  0.2505  0.7970  1.0860
  102MOL0     H13704   4.445   8.680   3.142 -2.7593 -0.5920 -0.0014
  102MOL0     H13705   4.687   8.757   3.100  1.4934 -2.8417  0.7267
  102MOL0     H13706   4.654   8.621   3.001  2.2069 -0.9682  2.8175
  102MOL0     H13707   4.832   8.679   2.851 -0.3771 -1.1600 -0.3144
  102MOL0     H13708   4.880   8.669   3.021 -1.8145  3.4316  4.6668
  102MOL0     H13709   4.855   8.921   3.043 -0.4123 -0.1543 -0.3487
  102MOL0     H13710   4.876   8.928   2.869  0.1358 -0.3793  1.2604
  102MOL0     H13711   5.101   8.953   2.968  0.3277 -0.4588 -0.0114
  102MOL0     H13712   5.082   8.803   3.055  1.3941  0.3162 -0.1035
  102MOL0     H13713   5.062   8.682   2.837 -2.4196  0.6012  1.4058
  102MOL0     H13714   5.052   8.847   2.749 -2.7125 -0.2868  0.3094
  102MOL0     H13715   5.254   8.770   2.697 -0.0944  0.3062 -1.0513
  102MOL0     H13716   5.263   8.917   2.791 -0.7492 -0.4380 -2.7219
  102MOL0     H13717   5.328   8.646   2.907 -0.0677  1.1607  0.2339
  102MOL0     H13718   5.328   8.793   2.996 -1.5543  1.7420 -1.3699
  102MOL0     H13719   5.525   8.872   2.873 -2.4044  0.1189  1.3948
  102MOL0     H13720   5.550   8.732   2.957  2.7550  3.0684  0.5616
  102MOL0     H13721   5.447   8.797   2.586  0.5961  0.1727 -0.3848
  102MOL0     H13722   5.641   8.533   2.379 -0.7247  0.2755 -1.3126
  102MOL0     H13723   5.518   8.648   2.347  0.3968 -1.9188 -0.9904
  102MOL0     H13724   5.714   8.830   2.416 -1.2550 -1.0262 -1.4818
  102MOL0     H13725   5.818   8.691   2.398 -0.2642  0.9005  1.9352
  102MOL0     H13726   5.752   8.696   2.146 -0.9593 -0.4331  0.5494
  102MOL0     H13727   5.850   8.822   2.214  1.7391 -2.5950  0.7797
  102MOL0     H13728   5.629   8.956   2.242  1.7362 -0.2480  0.6900
  102MOL0     H13729   5.569   8.830   2.124  0.6723 -1.0438  0.5859
  102MOL0     H13730   5.441   8.957   2.030 -0.7949 -0.3404 -0.8030
  102MOL0     H13731   5.318   9.070   1.862  0.1024  2.6685  0.8152
  102MOL0     H13732   5.041   9.036   1.603  2.6042  0.1256  1.7357
  102MOL0     H13733   4.856   9.085   1.465  2.0630 -3.4618  3.8385
  102MOL0     H13734   4.838   9.476   1.197  2.6349  0.0623 -0.4029
  102MOL0     H13735   4.948   9.340   1.176  0.5536  1.0482  2.3561
  102MOL0     H13736   4.779   9.327   1.005 -1.7367  0.0534 -0.3592
  102MOL0     H13737   4.800   9.183   1.109 -0.2838 -0.6752 -0.5794
  102MOL0     H13738   4.567   9.212   1.083 -0.6057 -0.8286  1.3240
  102MOL0     H13739   4.583   9.275   1.247 -2.0947  0.2000 -0.2947
  102MOL0     H13740   4.626   9.471   1.023 -0.3523  0.9023 -0.2149
  102MOL0     H13741   4.592   9.504   1.183  0.0260  1.6717 -1.6137
  102MOL0     H13742   4.357   9.397   1.153 -1.5214  1.2992 -0.9940
  102MOL0     H13743   4.402   9.351   0.992 -1.3028 -2.2494  2.6278
  102MOL0     H13744   4.415   9.566   0.906 -0.3453 -2.5721 -1.3766
  102MOL0     H13745   4.263   9.550   0.994  0.1984 -0.3611 -0.6463
  102MOL0     H13746   4.502   9.691   1.130  0.6061  3.3669 -1.7149
  102MOL0     H13747   4.336   9.679   1.194 -0.0228  0.9436  0.2792
  102MOL0     H13748   4.384   9.827   0.946 -0.4972  0.3535  0.3020
  102MOL0     H13749   4.238   9.809   1.049  0.5275 -4.5037 -0.6602
  102MOL0     H13750   5.034   9.461   1.366  1.1792  0.8951  1.3630
  102MOL0     H13751   5.249   9.402   1.500  0.1416  0.0583 -0.4451
  102MOL0     H13752   5.690   9.213   1.681  0.0865  0.3555  0.8797
  102MOL0     H13753   5.801   9.105   1.863  0.4789 -0.4809  1.3976
  102MOL0     H13754   4.423   8.977   2.826  1.5009  0.2024  0.5636
  102MOL0     H13755   4.183   9.033   2.936  0.1766 -1.3039 -0.8745
  102MOL0     H13756   3.877   8.994   3.191  0.6685  1.4713 -0.6377
  102MOL0     H13757   3.667   9.038   3.338  0.1903 -1.0361  3.1218
  102MOL0     H13758   3.727   9.382   3.591  0.5264 -0.3106  0.5278
  102MOL0     H13759   3.684   9.281   3.722 -0.4053 -1.8448 -0.5408
  102MOL0     H13760   3.537   9.452   3.710  0.9305 -1.3654  0.6809
  102MOL0     H13761   3.454   9.299   3.683 -0.6377  2.9135  4.2300
  102MOL0     H13762   3.477   9.354   3.426  1.0708  0.5358  0.1714
  102MOL0     H13763   3.504   9.517   3.487 -1.1368  0.6657  0.6755
  102MOL0     H13764   3.276   9.496   3.438 -1.5045 -1.3037 -0.9372
  102MOL0     H13765   3.242   9.377   3.557  1.4018 -0.9009  3.1374
  102MOL0     H13766   3.296   9.726   3.791  0.2496 -2.1200  1.7561
  102MOL0     H13767   3.914   9.243   3.610 -0.3415  0.4781 -0.1008
  102MOL0     H13768   4.239   9.154   3.483  1.2064  1.7913 -1.5593
  102MOL0     H13769   4.192   9.317   3.455  0.6743  1.8177  2.6266
  102MOL0     H13770   4.145   9.234   3.605  0.7037 -1.0022 -0.3953
  103MOL0     O13771   6.030   5.320   5.837 -0.3318 -1.0916 -0.4801
  103MOL0     C13772   6.147   5.336   5.877  0.5858 -0.9988 -0.3273
  103MOL0     O13773   6.234   5.426   5.823  0.0886  0.2545  0.5963
  103MOL0     C13774   6.210   5.499   5.713 -0.2153  0.0956 -0.1246
  103MOL0     C13775   6.130   5.617   5.719 -0.3511 -1.0356  0.1285
  103MOL0     C13776   6.108   5.692   5.605  0.7375 -0.5468 -0.3096
  103MOL0     C13777   6.165   5.653   5.480 -0.3150  1.0536 -0.3648
  103MOL0     O13778   6.157   5.729   5.374  0.5627  0.0647  0.4938
  103MOL0     C13779   6.069   5.845   5.360 -0.3196 -0.4704  0.2217
  103MOL0     C13780   6.052   5.891   5.215 -0.5460 -0.0839  0.7189
  103MOL0     C13781   6.180   5.966   5.163 -0.2275 -0.3436  0.2205
  103MOL0     C13782   6.139   6.049   5.041  0.3587  0.6433  1.4042
  103MOL0     C13783   6.247   6.116   4.963 -0.6962  0.4672  0.2074
  103MOL0     C13784   6.348   6.021   4.908  0.8492  0.3350  0.0997
  103MOL0     C13785   6.301   5.910   4.806 -0.0624  0.1143 -0.1302
  103MOL0     C13786   6.239   5.978   4.677 -0.0884  0.7467  0.6018
  103MOL0     N13787   6.189   5.881   4.581  0.0911  0.3100  0.8413
  103MOL0     C13788   6.251   5.849   4.464 -0.2723 -0.1952 -0.2723
  103MOL0     C13789   6.180   5.757   4.391  0.4091 -0.1094 -0.0337
  103MOL0     C13790   6.216   5.690   4.259 -0.8510 -1.2156  0.1471
  103MOL0     C13791   6.284   5.558   4.281 -0.7165  0.6417 -0.8405
  103MOL0     C13792   6.207   5.446   4.347 -0.1453 -0.4377 -0.0214
  103MOL0     C13793   6.074   5.404   4.294 -0.1489  0.1406  0.2124
  103MOL0     O13794   6.105   5.319   4.182 -0.0144  0.2906  0.2431
  103MOL0     C13795   6.018   5.286   4.079 -0.1922 -0.7874 -0.5150
  103MOL0     C13796   5.901   5.352   4.056  0.1241 -0.9270  0.7523
  103MOL0     C13797   5.803   5.309   3.955  0.7048 -0.2096 -1.1741
  103MOL0     C13798   5.827   5.196   3.876  0.5735  0.5221 -0.7041
  103MOL0     C13799   5.730   5.156   3.779  0.8708  0.6282  0.5698
  103MOL0     O13800   5.666   5.259   3.723  0.2656  0.1201  0.4879
  103MOL0     C13801   5.667   5.263   3.581  0.1922  0.1213  0.0531
  103MOL0     C13802   5.571   5.336   3.509 -0.3349  0.6085 -0.0621
  103MOL0     C13803   5.570   5.358   3.366  0.6213  1.0823 -0.6314
  103MOL0     C13804   5.673   5.308   3.285 -0.1607  0.1591 -0.2548
  103MOL0     O13805   5.673   5.348   3.154  0.0586  0.6590 -0.2088
  103MOL0     C13806   5.795   5.397   3.102  0.2750 -0.2448 -0.1398
  103MOL0     C13807   5.787   5.553   3.103  0.3229 -0.2435 -0.2834
  103MOL0     C13808   5.906   5.635   3.078  0.7551  0.5913  0.6336
  103MOL0     C13809   5.897   5.784   3.111  0.1824 -1.0492 -0.2150
  103MOL0     C13810   6.013   5.866   3.044  0.0607  0.0106 -0.0609
  103MOL0     C13811   6.152   5.845   3.116 -0.7436  0.3419  0.7057
  103MOL0     C13812   6.169   5.921   3.238  0.5388 -0.5163 -0.4424
  103MOL0     C13813   6.311   5.896   3.285  0.2270  0.5558  0.5809
  103MOL0    Cl13814   6.348   5.713   3.311  0.2199  0.4172  0.1651
  103MOL0     C13815   5.765   5.233   3.346  0.5603  0.7295  0.1338
  103MOL0     C13816   5.767   5.222   3.490  0.2496 -0.3068  0.5380
  103MOL0     O13817   5.743   5.043   3.728  0.5067  0.8866 -0.5948
  103MOL0     C13818   5.951   5.126   3.903 -0.3103  0.0161  0.0561
  103MOL0     C13819   6.038   5.170   4.003 -0.2955  0.2575 -0.1951
  103MOL0     N13820   6.064   5.733   4.462  0.3006 -0.3870 -0.0282
  103MOL0     N13821   6.073   5.799   4.579 -1.3246 -0.5708  0.1133
  103MOL0     C13822   6.238   5.532   5.471  0.3863  0.1729  0.4421
  103MOL0     C13823   6.257   5.450   5.584  0.0315  0.1592 -0.2054
  103MOL0     C13824   6.206   5.255   5.995  1.2332 -0.3270  0.6236
  103MOL0     C13825   6.113   5.157   6.042 -0.6425 -0.6721  0.2292
  103MOL0     C13826   6.144   5.071   6.148 -0.0437  0.5770  0.2892
  103MOL0     C13827   6.269   5.084   6.207  1.0176 -0.0192 -0.1803
  103MOL0     O13828   6.290   4.997   6.308 -0.7100 -0.9127 -0.1312
  103MOL0     C13829   6.407   5.003   6.386  0.1222 -1.0030  0.3502
  103MOL0     C13830   6.422   4.902   6.503 -0.0531  0.3992 -0.5668
  103MOL0     C13831   6.416   4.760   6.438 -0.0228 -0.0775  0.2121
  103MOL0     C13832   6.475   4.659   6.533 -0.9658 -0.4431  0.9784
  103MOL0     C13833   6.471   4.523   6.483 -1.3915  0.3222  0.2627
  103MOL0     C13834   6.469   4.406   6.453 -0.0802 -0.1068 -0.0732
  103MOL0     C13835   6.359   5.178   6.159 -0.2751 -0.0604  0.0841
  103MOL0     C13836   6.328   5.269   6.059  0.6003 -0.4089  0.6091
  103MOL0     C13837   6.439   5.369   6.022 -0.0465 -0.1156  1.0859
  103MOL0     H13838   6.088   5.648   5.814 -0.5640 -3.8588  1.0372
  103MOL0     H13839   6.048   5.782   5.607  1.6185  0.3177 -4.3058
  103MOL0     H13840   5.972   5.825   5.406 -0.0319  2.2518  2.2442
  103MOL0     H13841   6.130   5.918   5.413  0.5905  1.1717 -2.8395
  103MOL0     H13842   5.970   5.962   5.201  0.4750  0.5353 -3.6814
  103MOL0     H13843   6.026   5.805   5.153 -0.9154  0.3094  0.3136
  103MOL0     H13844   6.252   5.896   5.120 -0.4662 -1.8682  2.1610
  103MOL0     H13845   6.224   6.034   5.237  2.4589 -0.8151 -0.8341
  103MOL0     H13846   6.098   5.968   4.979  2.8196  0.1764  0.2654
  103MOL0     H13847   6.061   6.122   5.064  0.6137  1.0679  0.9365
  103MOL0     H13848   6.207   6.183   4.885 -3.0787 -0.4083  0.5857
  103MOL0     H13849   6.311   6.185   5.019  0.3280  2.4926 -3.1695
  103MOL0     H13850   6.426   6.078   4.856 -0.1325  0.7048 -1.0029
  103MOL0     H13851   6.394   5.966   4.991 -0.1962 -0.4246  0.1869
  103MOL0     H13852   6.223   5.851   4.855  2.7904  0.0539  5.0584
  103MOL0     H13853   6.371   5.837   4.764 -0.0641  0.7557 -1.2846
  103MOL0     H13854   6.145   6.033   4.691  0.9752  4.9315 -4.9713
  103MOL0     H13855   6.322   6.027   4.627  0.0088 -1.8239 -2.0341
  103MOL0     H13856   6.350   5.886   4.440 -0.7739  1.7058  0.4186
  103MOL0     H13857   6.137   5.678   4.185  1.5084 -4.0390 -2.1761
  103MOL0     H13858   6.283   5.759   4.206 -0.0438 -1.7350  0.4750
  103MOL0     H13859   6.313   5.514   4.185 -1.5598  0.4388 -1.0098
  103MOL0     H13860   6.370   5.571   4.347 -2.6044  1.6059  1.5646
  103MOL0     H13861   6.195   5.481   4.450  1.5916  3.1739 -0.8666
  103MOL0     H13862   6.279   5.364   4.354  1.2309  0.7551  0.3290
  103MOL0     H13863   6.028   5.500   4.268 -0.2123  0.0533 -0.0000
  103MOL0     H13864   6.013   5.348   4.365  0.0157  0.3218  0.4989
  103MOL0     H13865   5.875   5.443   4.109  1.8200  0.5816 -0.8504
  103MOL0     H13866   5.708   5.360   3.949  0.2857 -1.0083 -1.4361
  103MOL0     H13867   5.481   5.368   3.562 -0.7183 -0.5745  0.0223
  103MOL0     H13868   5.493   5.417   3.317  0.7176  0.2389 -1.8441
  103MOL0     H13869   5.880   5.377   3.167  0.3876  1.6112  0.3303
  103MOL0     H13870   5.811   5.361   3.000 -1.8992 -2.1407  0.0997
  103MOL0     H13871   5.718   5.583   3.023 -0.2837  0.1990  0.4029
  103MOL0     H13872   5.737   5.583   3.196 -1.2729 -0.5520 -0.9937
  103MOL0     H13873   5.980   5.584   3.140  2.0954  2.1455  0.3788
  103MOL0     H13874   5.917   5.631   2.969 -0.8540 -0.2903  0.4767
  103MOL0     H13875   5.902   5.791   3.220  0.7413  0.2741 -0.3079
  103MOL0     H13876   5.804   5.834   3.083  0.5878  0.4631  1.0383
  103MOL0     H13877   5.993   5.973   3.048  1.6246  0.3135  1.3387
  103MOL0     H13878   6.025   5.840   2.939  2.2390 -0.5387  0.2742
  103MOL0     H13879   6.170   5.739   3.136 -0.3197 -0.1327 -1.7823
  103MOL0     H13880   6.226   5.877   3.042 -1.5107  0.1143 -0.1930
  103MOL0     H13881   6.089   5.909   3.311  1.3210 -0.3927  0.4508
  103MOL0     H13882   6.152   6.027   3.218  0.5381  0.3516  3.4221
  103MOL0     H13883   6.381   5.937   3.212  0.5737 -0.2406  0.4582
  103MOL0     H13884   6.330   5.952   3.377 -4.1540 -0.4267  2.3621
  103MOL0     H13885   5.841   5.194   3.280 -0.3517  2.2970 -1.9548
  103MOL0     H13886   5.858   5.178   3.529 -0.0924 -1.0873  0.4717
  103MOL0     H13887   5.967   5.049   3.829 -0.5488 -0.7533  0.7961
  103MOL0     H13888   6.120   5.106   4.033 -0.8455 -0.2091  0.3665
  103MOL0     H13889   6.285   5.507   5.377 -1.0682 -2.1094  0.2330
  103MOL0     H13890   6.315   5.361   5.564 -0.0181  0.0341  0.1845
  103MOL0     H13891   6.012   5.143   6.004 -0.5942  0.6229 -0.4265
  103MOL0     H13892   6.062   5.011   6.187  0.7692 -1.0263 -0.4026
  103MOL0     H13893   6.422   5.103   6.426  0.3271 -1.8184  2.4440
  103MOL0     H13894   6.488   4.992   6.313 -0.5923 -0.7386 -0.4983
  103MOL0     H13895   6.335   4.916   6.568 -0.4266 -0.4234 -0.8725
  103MOL0     H13896   6.512   4.920   6.561  1.2173 -3.0373 -1.1861
  103MOL0     H13897   6.479   4.766   6.349  0.3939 -0.3447  0.4867
  103MOL0     H13898   6.311   4.735   6.417  0.7914 -0.9893 -3.3770
  103MOL0     H13899   6.581   4.677   6.548 -0.2639 -1.0927 -2.3678
  103MOL0     H13900   6.414   4.664   6.624 -0.3551  0.1972  1.3614
  103MOL0     H13901   6.481   4.300   6.442  0.5686  0.0987 -1.6999
  103MOL0     H13902   6.457   5.187   6.204 -0.4805  1.5252  0.2760
  103MOL0     H13903   6.403   5.472   6.018  1.5010  0.4202  0.2051
  103MOL0     H13904   6.511   5.371   6.104 -2.1334 -1.7063  3.1431
  103MOL0     H13905   6.491   5.337   5.932 -1.8361 -1.7007  0.5397
  104MOL0     O13906  10.774   4.351   8.955  0.3157  0.3629  0.4353
  104MOL0     C13907  10.819   4.251   8.903  0.7579  0.5548  0.3758
  104MOL0     O13908  10.746   4.176   8.819 -0.1166 -0.0455  0.2156
  104MOL0     C13909  10.635   4.235   8.757 -0.4273  0.1836  0.2145
  104MOL0     C13910  10.617   4.223   8.615  0.5979  0.3098 -0.5569
  104MOL0     C13911  10.504   4.284   8.551 -0.1350  0.4378 -1.3523
  104MOL0     C13912  10.420   4.370   8.629  0.8943 -0.2941  0.2961
  104MOL0     O13913  10.321   4.445   8.562  0.1670 -0.1869 -0.0278
  104MOL0     C13914  10.203   4.476   8.631 -0.6799 -0.6102 -0.2679
  104MOL0     C13915  10.115   4.549   8.535 -0.2606  0.1739  0.4863
  104MOL0     C13916   9.977   4.595   8.595  0.1138  0.1627  0.0983
  104MOL0     C13917   9.973   4.741   8.631  0.1891  0.3910  0.4694
  104MOL0     C13918   9.825   4.791   8.678 -0.0934  0.1426  1.0003
  104MOL0     C13919   9.843   4.928   8.742 -0.0902 -0.1359 -0.0471
  104MOL0     C13920   9.833   5.037   8.626 -0.2694 -0.5072 -0.5890
  104MOL0     C13921   9.873   5.174   8.688 -0.3167 -0.2444  0.1150
  104MOL0     N13922   9.870   5.286   8.593 -0.0340 -0.2625 -0.6515
  104MOL0     C13923   9.948   5.297   8.480  0.1301  0.2433  1.2818
  104MOL0     C13924   9.925   5.419   8.423  0.3796 -0.1196 -0.4184
  104MOL0     C13925   9.981   5.483   8.294  0.1789 -0.3083 -0.2128
  104MOL0     C13926  10.113   5.416   8.253  0.1845 -1.2858 -1.1558
  104MOL0     C13927  10.226   5.456   8.347 -0.3098 -0.3260 -0.6446
  104MOL0     C13928  10.293   5.599   8.346  0.4675  0.2308  0.0766
  104MOL0     O13929  10.222   5.689   8.425 -0.6796  0.2993 -0.0747
  104MOL0     C13930  10.280   5.815   8.455 -0.1026 -0.4765  0.1958
  104MOL0     C13931  10.198   5.929   8.455  0.4853 -0.0985 -0.4322
  104MOL0     C13932  10.243   6.046   8.520  0.3307  0.3735  0.2961
  104MOL0     C13933  10.372   6.063   8.564  0.2470  0.7387 -0.6561
  104MOL0     C13934  10.431   6.187   8.608  0.2885  0.6667 -0.4217
  104MOL0     O13935  10.353   6.295   8.603 -0.0449  0.2359 -0.7814
  104MOL0     C13936  10.417   6.410   8.631 -0.3914 -0.1474  0.3679
  104MOL0     C13937  10.463   6.491   8.522  0.2295  0.1236  0.3880
  104MOL0     C13938  10.520   6.620   8.539  0.4269  0.2052 -0.5929
  104MOL0     C13939  10.524   6.665   8.673 -0.4746 -0.5212 -0.5478
  104MOL0     O13940  10.590   6.778   8.705 -0.4482 -0.6110  0.8146
  104MOL0     C13941  10.515   6.898   8.677  0.7309 -0.7000  0.0155
  104MOL0     C13942  10.616   7.002   8.630 -0.4307  0.1229  0.0751
  104MOL0     C13943  10.584   7.153   8.657 -0.2495 -0.0164 -0.7147
  104MOL0     C13944  10.503   7.224   8.552 -0.2549  0.4108  0.0104
  104MOL0     C13945  10.357   7.166   8.530 -1.2276 -0.1553 -0.1136
  104MOL0     C13946  10.283   7.190   8.657  1.2480 -0.1679 -0.1592
  104MOL0     C13947  10.125   7.188   8.647 -0.1504  0.3441  0.7187
  104MOL0     C13948  10.056   7.201   8.787 -0.1716 -0.1115 -0.0600
  104MOL0    Cl13949   9.875   7.192   8.796 -0.5020 -0.0409  0.2273
  104MOL0     C13950  10.470   6.591   8.775 -0.5734 -0.1732  0.2200
  104MOL0     C13951  10.416   6.464   8.764 -0.0226 -0.3645 -0.7160
  104MOL0     O13952  10.544   6.181   8.662 -1.0091  0.4840 -0.6665
  104MOL0     C13953  10.461   5.949   8.546  0.1117 -0.8512  0.1404
  104MOL0     C13954  10.417   5.828   8.497 -0.2049 -0.3257 -0.2084
  104MOL0     N13955   9.829   5.471   8.505  0.4377  0.4072 -0.2277
  104MOL0     N13956   9.794   5.400   8.603 -0.6627  0.2748 -0.1981
  104MOL0     C13957  10.430   4.373   8.767  0.5718  0.4064  1.1265
  104MOL0     C13958  10.535   4.292   8.829 -1.4051  0.2092 -0.7448
  104MOL0     C13959  10.952   4.216   8.957  0.2754  0.7827 -0.4556
  104MOL0     C13960  10.980   4.240   9.096 -0.7516  0.3375  0.1867
  104MOL0     C13961  11.113   4.227   9.144 -0.1778 -0.3025 -0.0491
  104MOL0     C13962  11.213   4.187   9.051  0.4691 -0.2612 -0.0151
  104MOL0     O13963  11.337   4.133   9.079 -0.5867  0.0418  0.2114
  104MOL0     C13964  11.363   4.104   9.212 -0.0758  0.0804 -1.0737
  104MOL0     C13965  11.509   4.081   9.236 -0.4256  0.0932  0.2269
  104MOL0     C13966  11.587   4.213   9.216 -0.1605  0.0719 -0.4172
  104MOL0     C13967  11.738   4.194   9.237  0.6618  0.4101 -0.3450
  104MOL0     C13968  11.807   4.110   9.133  0.0801 -0.0443 -0.7696
  104MOL0     C13969  11.856   4.051   9.041  0.1318  0.0733  0.0869
  104MOL0     C13970  11.188   4.172   8.920  0.9375 -0.1484  0.3853
  104MOL0     C13971  11.055   4.186   8.869 -0.5776 -0.0782  0.7050
  104MOL0     C13972  11.023   4.147   8.721  0.4006  0.1431  0.7556
  104MOL0     H13973  10.685   4.161   8.556  1.6573  1.7242 -0.8730
  104MOL0     H13974  10.487   4.280   8.444 -2.0316  0.7034 -1.1077
  104MOL0     H13975  10.146   4.390   8.667 -1.5227  0.5374  1.2611
  104MOL0     H13976  10.227   4.536   8.719  0.0946  0.9872 -1.5062
  104MOL0     H13977  10.091   4.476   8.457  1.1314  0.5614 -0.3372
  104MOL0     H13978  10.162   4.632   8.483 -0.8997  0.3271  0.1427
  104MOL0     H13979   9.947   4.533   8.680 -0.9253 -0.8870 -0.9773
  104MOL0     H13980   9.903   4.565   8.519 -0.1015 -0.8895  0.7024
  104MOL0     H13981  10.036   4.741   8.720  0.4712 -0.3688  0.2826
  104MOL0     H13982  10.010   4.812   8.556 -2.1550  2.3302  1.0222
  104MOL0     H13983   9.764   4.803   8.588 -2.7404 -0.9628  2.5389
  104MOL0     H13984   9.763   4.725   8.739  1.0690 -1.1767  0.7948
  104MOL0     H13985   9.762   4.944   8.814  2.4714 -0.8928  3.2740
  104MOL0     H13986   9.933   4.926   8.805 -0.4960 -0.3349  0.5336
  104MOL0     H13987   9.726   5.049   8.603 -0.4878  1.0349  0.9724
  104MOL0     H13988   9.878   5.003   8.533  1.1659 -0.2983 -0.0018
  104MOL0     H13989   9.795   5.187   8.763  0.5365  0.1731  0.9425
  104MOL0     H13990   9.964   5.174   8.748 -1.0561 -3.1872  1.4083
  104MOL0     H13991  10.008   5.220   8.431 -1.7061  0.2534 -1.1325
  104MOL0     H13992   9.919   5.461   8.207  1.6600  1.0786 -1.6842
  104MOL0     H13993   9.999   5.590   8.310  2.9056 -0.8782  1.0773
  104MOL0     H13994  10.104   5.307   8.249 -1.1626 -1.1641 -2.0456
  104MOL0     H13995  10.140   5.448   8.152 -0.1144  0.0661 -0.8263
  104MOL0     H13996  10.304   5.379   8.349 -1.6135 -1.7118  2.0175
  104MOL0     H13997  10.198   5.452   8.453  0.0144  1.1235 -0.4852
  104MOL0     H13998  10.300   5.625   8.240 -0.5781 -3.1980 -0.9378
  104MOL0     H13999  10.396   5.588   8.382  1.5014  3.0396 -1.6624
  104MOL0     H14000  10.094   5.917   8.426 -0.1461  1.9697  0.7267
  104MOL0     H14001  10.175   6.130   8.526  1.5155  1.3995 -0.2530
  104MOL0     H14002  10.449   6.453   8.421  0.6199  2.6379 -0.6799
  104MOL0     H14003  10.563   6.661   8.448  1.3021 -4.3781 -2.5458
  104MOL0     H14004  10.444   6.891   8.595  0.2994 -1.0731  0.4160
  104MOL0     H14005  10.451   6.943   8.754 -2.1183 -1.3723 -1.8071
  104MOL0     H14006  10.712   6.982   8.680 -1.4281  0.0123  2.0407
  104MOL0     H14007  10.639   6.994   8.523  0.9398  1.1956  0.2572
  104MOL0     H14008  10.534   7.156   8.754 -1.1012 -2.3887 -1.0346
  104MOL0     H14009  10.681   7.204   8.657 -1.1694  2.2185  3.3317
  104MOL0     H14010  10.555   7.206   8.458  0.6886 -0.3038  0.6530
  104MOL0     H14011  10.490   7.332   8.566  0.9314  0.7530 -1.3294
  104MOL0     H14012  10.364   7.058   8.512  1.2574 -0.3159  1.3059
  104MOL0     H14013  10.310   7.228   8.453  2.5817  5.8875  1.7349
  104MOL0     H14014  10.299   7.117   8.736  1.3281 -0.1244 -0.1362
  104MOL0     H14015  10.301   7.285   8.709  0.4712 -1.4172  2.5726
  104MOL0     H14016  10.104   7.088   8.606  1.8608  0.6692 -1.2779
  104MOL0     H14017  10.100   7.261   8.570 -0.8226 -3.3856 -2.9706
  104MOL0     H14018  10.084   7.124   8.859 -0.5696  1.2242  1.5910
  104MOL0     H14019  10.084   7.293   8.838 -1.1556  0.7424 -1.0157
  104MOL0     H14020  10.481   6.627   8.877 -2.8045  2.1689 -0.2561
  104MOL0     H14021  10.399   6.412   8.858 -1.1286 -0.6476 -1.0632
  104MOL0     H14022  10.567   5.965   8.565 -0.1477 -0.6795  1.6287
  104MOL0     H14023  10.485   5.743   8.494 -1.2686 -1.3284  1.7367
  104MOL0     H14024  10.345   4.412   8.822  0.9050 -0.9432  2.6575
  104MOL0     H14025  10.525   4.272   8.935 -2.2909  1.1898 -0.6196
  104MOL0     H14026  10.896   4.276   9.154  0.0415  0.5788  1.2357
  104MOL0     H14027  11.141   4.250   9.246  1.9136 -1.6776 -0.2411
  104MOL0     H14028  11.305   4.020   9.253 -1.4016  0.7412 -1.5383
  104MOL0     H14029  11.332   4.185   9.278  0.5323  1.2860 -2.2423
  104MOL0     H14030  11.556   4.000   9.180 -0.3382 -0.3451  0.9200
  104MOL0     H14031  11.519   4.064   9.344 -1.7024 -0.3686  0.2939
  104MOL0     H14032  11.551   4.286   9.289 -1.1570 -1.2152  0.4397
  104MOL0     H14033  11.563   4.234   9.112 -1.4676  0.7533 -0.0010
  104MOL0     H14034  11.776   4.297   9.242  0.1141  0.6123 -0.2374
  104MOL0     H14035  11.756   4.147   9.335  0.2661 -0.1033 -0.5189
  104MOL0     H14036  11.904   4.010   8.954  4.1399  0.5580  1.8487
  104MOL0     H14037  11.262   4.154   8.843 -1.5093  1.3709 -2.5381
  104MOL0     H14038  11.019   4.037   8.723 -0.0146  0.0976 -1.1246
  104MOL0     H14039  10.939   4.203   8.678 -1.8004 -1.0955  3.1355
  104MOL0     H14040  11.105   4.180   8.657  0.8238  3.0109  2.6149
  105MOL0     O14041   4.913   1.838   1.876  0.8190 -0.6861 -0.2242
  105MOL0     C14042   4.940   1.835   1.999  0.2409 -0.6880 -0.2080
  105MOL0     O14043   4.854   1.884   2.090 -0.6317 -0.0860  0.0546
  105MOL0     C14044   4.722   1.913   2.041 -0.1442  0.2001 -0.6309
  105MOL0     C14045   4.681   2.044   2.046  0.3325  0.0895  0.5370
  105MOL0     C14046   4.549   2.084   2.005 -0.1023  0.5721 -0.6066
  105MOL0     C14047   4.472   1.981   1.949  0.1283  0.0360 -0.1903
  105MOL0     O14048   4.341   2.006   1.902 -0.5703  0.2529 -0.3356
  105MOL0     C14049   4.303   2.139   1.860 -0.4600 -0.8020  1.2937
  105MOL0     C14050   4.160   2.119   1.789  0.6745  0.5451  0.8404
  105MOL0     C14051   4.158   2.042   1.651 -0.3369 -0.6003  0.6326
  105MOL0     C14052   4.010   2.012   1.604 -0.0843 -0.1047  0.3801
  105MOL0     C14053   3.967   2.077   1.473  0.3431  0.6722 -0.6823
  105MOL0     C14054   3.967   2.240   1.473 -0.1325  0.1118  0.5629
  105MOL0     C14055   3.855   2.302   1.559 -0.0599 -0.3264 -0.6813
  105MOL0     C14056   3.716   2.300   1.502 -0.9640  0.0677  0.5506
  105MOL0     N14057   3.718   2.355   1.364 -0.7891 -0.7115  0.3494
  105MOL0     C14058   3.687   2.492   1.332 -1.2451 -0.6730  0.0911
  105MOL0     C14059   3.680   2.497   1.193  0.5324  0.3309 -0.2126
  105MOL0     C14060   3.664   2.624   1.114 -0.3081  0.2373  0.0345
  105MOL0     C14061   3.572   2.580   0.995 -0.5481 -0.5093  0.5777
  105MOL0     C14062   3.431   2.521   1.021 -0.4701 -0.1066 -0.3919
  105MOL0     C14063   3.378   2.499   0.882  0.0378  0.2454 -0.2238
  105MOL0     O14064   3.457   2.407   0.798  0.1303 -0.2498 -0.1586
  105MOL0     C14065   3.443   2.275   0.830 -0.2391 -0.1602  0.5827
  105MOL0     C14066   3.545   2.206   0.890  0.2114  0.0409 -0.4982
  105MOL0     C14067   3.543   2.068   0.892  0.4665 -0.3766 -0.6745
  105MOL0     C14068   3.430   2.000   0.868  0.5484  0.1666 -0.0598
  105MOL0     C14069   3.411   1.865   0.907  0.1301  0.8746  1.0041
  105MOL0     O14070   3.529   1.787   0.914 -0.1039 -0.1379 -0.1074
  105MOL0     C14071   3.534   1.653   0.928  0.0711  0.0453  0.0584
  105MOL0     C14072   3.669   1.611   0.960  0.4236 -0.3412 -1.1424
  105MOL0     C14073   3.703   1.475   0.953  0.3840  0.5701  0.1675
  105MOL0     C14074   3.597   1.375   0.960  0.6818 -0.1459  0.1820
  105MOL0     O14075   3.629   1.239   0.966 -0.8408  0.2292  0.7387
  105MOL0     C14076   3.526   1.148   0.963  1.0176 -0.6061 -0.4041
  105MOL0     C14077   3.576   0.998   0.967 -0.2839  0.1003 -0.2058
  105MOL0     C14078   3.664   0.965   0.848 -0.4194  0.0958 -0.5389
  105MOL0     C14079   3.803   0.922   0.888 -0.3754  0.6561  0.1462
  105MOL0     C14080   3.876   0.831   0.792  0.4083  0.0405 -0.0741
  105MOL0     C14081   3.931   0.903   0.667  0.0848  0.9352  0.5221
  105MOL0     C14082   4.024   0.809   0.590  0.6606 -0.4656 -0.7357
  105MOL0     C14083   4.101   0.885   0.477 -0.3257  0.2770  0.1154
  105MOL0    Cl14084   4.217   0.998   0.546 -0.4587  0.4855 -0.1485
  105MOL0     C14085   3.470   1.422   0.937 -0.6444  0.6902  0.1390
  105MOL0     C14086   3.431   1.553   0.923  0.5956  0.0974  0.8864
  105MOL0     O14087   3.295   1.820   0.911  0.1338  0.2006  0.1633
  105MOL0     C14088   3.321   2.069   0.810 -0.3126  0.2197  0.3002
  105MOL0     C14089   3.327   2.210   0.786 -0.0576 -0.1785 -0.1234
  105MOL0     N14090   3.699   2.373   1.145  0.1124 -0.2781 -0.2843
  105MOL0     N14091   3.729   2.292   1.244 -0.2767  0.2123 -0.3967
  105MOL0     C14092   4.516   1.848   1.949 -0.2842  0.2191 -1.4539
  105MOL0     C14093   4.639   1.811   2.005 -0.2141  0.9274  0.3645
  105MOL0     C14094   5.070   1.788   2.046  0.0147 -0.6867  0.8133
  105MOL0     C14095   5.091   1.773   2.180 -0.0134  0.4662 -0.2641
  105MOL0     C14096   5.208   1.715   2.230  0.2416 -0.5688  0.4356
  105MOL0     C14097   5.305   1.670   2.144 -0.2281  0.2043  0.3759
  105MOL0     O14098   5.426   1.610   2.169 -0.5421 -0.2172  0.1070
  105MOL0     C14099   5.492   1.636   2.300 -0.5582  0.8050  0.2464
  105MOL0     C14100   5.641   1.687   2.280 -0.8860 -0.2966 -0.5343
  105MOL0     C14101   5.654   1.812   2.196  0.2458  0.1107 -0.1868
  105MOL0     C14102   5.586   1.937   2.247 -0.7766 -0.7104  0.0438
  105MOL0     C14103   5.623   1.985   2.379 -0.0401 -0.0636 -0.4123
  105MOL0     C14104   5.637   2.025   2.496 -0.5382  0.3430  0.0581
  105MOL0     C14105   5.296   1.695   2.007  0.4705  0.3830  0.2623
  105MOL0     C14106   5.183   1.763   1.955 -0.3056  0.1510  0.4043
  105MOL0     C14107   5.182   1.798   1.802  0.0116  0.3217 -0.5797
  105MOL0     H14108   4.755   2.120   2.070 -1.3174  2.3423 -1.0482
  105MOL0     H14109   4.524   2.189   1.997 -0.6832  0.2987 -3.5027
  105MOL0     H14110   4.299   2.212   1.942 -0.0048  1.5334 -0.6654
  105MOL0     H14111   4.376   2.172   1.786  0.4792 -1.1455  2.0527
  105MOL0     H14112   4.119   2.219   1.767  0.2388 -0.4119 -3.6401
  105MOL0     H14113   4.096   2.071   1.863 -0.6556  1.7437  0.5119
  105MOL0     H14114   4.214   1.949   1.666 -0.3024 -0.4814  1.2820
  105MOL0     H14115   4.215   2.085   1.568  0.1185 -3.2392 -0.5251
  105MOL0     H14116   4.005   1.903   1.589 -2.5761 -0.1793  1.2873
  105MOL0     H14117   3.935   2.041   1.678  1.7057  2.9210  1.1597
  105MOL0     H14118   4.024   2.031   1.392 -0.7693 -1.7933 -0.1609
  105MOL0     H14119   3.867   2.035   1.460 -0.3559  0.9611  2.6641
  105MOL0     H14120   4.065   2.279   1.502  0.1045  1.1539 -1.4519
  105MOL0     H14121   3.970   2.284   1.373  0.1268  2.6968  1.6143
  105MOL0     H14122   3.887   2.406   1.564  2.6029 -1.1085 -0.3069
  105MOL0     H14123   3.859   2.248   1.655 -0.3210  1.2740  0.2583
  105MOL0     H14124   3.680   2.197   1.494  1.4882 -0.9019  1.2745
  105MOL0     H14125   3.655   2.352   1.576 -0.9013 -1.7937  1.9804
  105MOL0     H14126   3.676   2.577   1.399 -2.2480  0.7949 -1.8418
  105MOL0     H14127   3.631   2.711   1.171 -1.4124  1.2103 -1.9992
  105MOL0     H14128   3.758   2.654   1.067  1.0533 -1.2042  1.6792
  105MOL0     H14129   3.565   2.671   0.934  1.3265 -0.2176  0.7508
  105MOL0     H14130   3.627   2.506   0.935 -1.9946 -2.5303  1.6174
  105MOL0     H14131   3.364   2.592   1.071 -0.7403 -1.1869  0.8345
  105MOL0     H14132   3.427   2.425   1.073  4.7966  0.0906  1.0097
  105MOL0     H14133   3.374   2.596   0.831 -0.0750  0.2210 -0.2615
  105MOL0     H14134   3.277   2.458   0.888 -0.6210  1.8625 -0.0226
  105MOL0     H14135   3.635   2.249   0.934  0.2098 -0.6433  0.1833
  105MOL0     H14136   3.622   2.013   0.941  0.2716 -2.4942 -2.5925
  105MOL0     H14137   3.743   1.686   0.984 -0.7573  0.1456  1.1999
  105MOL0     H14138   3.808   1.447   0.951 -0.0224 -1.1993  1.3133
  105MOL0     H14139   3.456   1.166   1.046  0.2359 -1.9185 -0.7466
  105MOL0     H14140   3.465   1.156   0.873 -0.7700  2.1209  0.9178
  105MOL0     H14141   3.634   0.986   1.059  1.4598 -0.7505 -1.3594
  105MOL0     H14142   3.499   0.920   0.967  0.0008 -0.1960 -1.4831
  105MOL0     H14143   3.600   0.887   0.804  1.8956 -0.5718 -2.9605
  105MOL0     H14144   3.663   1.050   0.780  1.7990 -0.1428 -0.9265
  105MOL0     H14145   3.794   0.865   0.981  0.9137 -1.6097 -1.0180
  105MOL0     H14146   3.864   1.012   0.903 -0.7873  1.2229 -1.3937
  105MOL0     H14147   3.810   0.749   0.760 -0.1736  0.7577 -0.7467
  105MOL0     H14148   3.959   0.786   0.848  1.6763  2.1237 -0.2076
  105MOL0     H14149   3.853   0.923   0.593  2.5031 -1.5771 -3.0116
  105MOL0     H14150   3.977   0.997   0.699  0.6246  0.7314  0.3505
  105MOL0     H14151   3.966   0.725   0.550  0.9906 -0.2530 -1.6856
  105MOL0     H14152   4.097   0.758   0.654  0.3276 -1.4384 -1.1143
  105MOL0     H14153   4.159   0.807   0.427 -1.2483 -1.5142  1.7000
  105MOL0     H14154   4.036   0.926   0.399 -1.8720 -0.7778  0.7796
  105MOL0     H14155   3.390   1.348   0.925  0.8356 -0.7032 -1.6340
  105MOL0     H14156   3.330   1.576   0.889  0.9813  0.1591 -0.2574
  105MOL0     H14157   3.227   2.021   0.788 -0.7008  0.8728  0.5062
  105MOL0     H14158   3.246   2.253   0.728  1.4118  0.6062 -1.7058
  105MOL0     H14159   4.458   1.762   1.915 -0.6989 -0.1810  0.2039
  105MOL0     H14160   4.653   1.704   2.004  0.9380  1.0700 -0.4015
  105MOL0     H14161   5.017   1.808   2.251  2.5946  1.9236  1.9193
  105MOL0     H14162   5.225   1.702   2.336  1.4890  2.1240  0.6634
  105MOL0     H14163   5.503   1.551   2.369 -0.0840 -0.1265 -0.9286
  105MOL0     H14164   5.440   1.714   2.355  0.2100  1.7015 -0.2746
  105MOL0     H14165   5.698   1.608   2.230 -0.5579 -0.6868  0.4402
  105MOL0     H14166   5.686   1.714   2.376 -0.1004  3.2070 -1.7216
  105MOL0     H14167   5.610   1.795   2.097  1.5435 -0.5569 -0.6704
  105MOL0     H14168   5.762   1.823   2.192  0.0949  1.7762 -0.4271
  105MOL0     H14169   5.611   2.015   2.175  0.7272 -1.8513 -0.7218
  105MOL0     H14170   5.477   1.928   2.254 -1.3133  2.7301 -1.9419
  105MOL0     H14171   5.672   2.048   2.594  0.4381  0.2515 -0.2468
  105MOL0     H14172   5.380   1.668   1.944  0.8360 -0.1283  0.9535
  105MOL0     H14173   5.095   1.754   1.752 -0.1567  0.5313 -0.4738
  105MOL0     H14174   5.169   1.906   1.798 -2.1310  0.2295  1.4857
  105MOL0     H14175   5.274   1.773   1.748  1.8220 -1.0527  2.7727
  106MOL0     O14176   1.293   7.173  10.199  0.5681 -0.5745  0.0391
  106MOL0     C14177   1.261   7.161  10.319  0.0844 -1.3160 -0.3695
  106MOL0     O14178   1.314   7.066  10.396 -0.1092 -0.3471  0.5470
  106MOL0     C14179   1.341   6.940  10.337 -0.4776  0.4894 -0.2536
  106MOL0     C14180   1.437   6.861  10.406  0.6712 -0.2420 -0.4276
  106MOL0     C14181   1.464   6.731  10.375 -0.0987 -0.4759 -0.3627
  106MOL0     C14182   1.397   6.673  10.257  0.0909  0.0026 -0.7705
  106MOL0     O14183   1.423   6.549  10.213 -0.3932  0.5396  0.3825
  106MOL0     C14184   1.545   6.490  10.255  0.4289  0.3542 -0.3906
  106MOL0     C14185   1.573   6.364  10.167  0.0148 -1.0956 -0.2421
  106MOL0     C14186   1.630   6.404  10.041  0.0323 -0.3116 -0.3811
  106MOL0     C14187   1.533   6.503   9.950  0.8193 -0.3866  0.0250
  106MOL0     C14188   1.598   6.517   9.818  0.9772  0.3440  0.0980
  106MOL0     C14189   1.516   6.607   9.734  0.4789  0.9263 -0.1666
  106MOL0     C14190   1.518   6.765   9.762 -0.4970  0.6734  0.0710
  106MOL0     C14191   1.392   6.832   9.699  0.5296 -0.2759  0.4411
  106MOL0     N14192   1.261   6.780   9.745  0.8444 -0.0221  0.4253
  106MOL0     C14193   1.195   6.818   9.862 -0.6186 -0.8163 -0.7414
  106MOL0     C14194   1.082   6.737   9.868  0.2758 -0.4875  0.3427
  106MOL0     C14195   0.972   6.721   9.968  0.8270 -0.2344  0.8175
  106MOL0     C14196   0.848   6.791   9.907  0.0745  0.0710 -0.2223
  106MOL0     C14197   0.715   6.760   9.977 -0.9107  0.5245 -0.4077
  106MOL0     C14198   0.712   6.820  10.118  0.9112  0.1023  0.0349
  106MOL0     O14199   0.697   6.963  10.106  0.0438 -0.2668 -0.4762
  106MOL0     C14200   0.583   7.034  10.132  0.4379  1.0080  0.5313
  106MOL0     C14201   0.586   7.175  10.160  0.7063 -0.0257 -0.5043
  106MOL0     C14202   0.479   7.244  10.215  0.5295  0.2565 -0.0946
  106MOL0     C14203   0.355   7.178  10.230  0.0482  0.9530  0.3304
  106MOL0     C14204   0.237   7.235  10.294  0.7269 -0.1740  0.6703
  106MOL0     O14205   0.248   7.369  10.324  0.8292  0.4983  0.5930
  106MOL0     C14206   0.146   7.450  10.372  0.3943  0.1130 -0.0357
  106MOL0     C14207   0.009   7.437  10.342 -0.7924 -0.5855 -0.6877
  106MOL0     C14208  -0.093   7.528  10.377  0.0297  0.9510 -1.2068
  106MOL0     C14209  -0.056   7.641  10.447  0.5498 -0.0564  0.0547
  106MOL0     O14210  -0.135   7.742  10.482  0.7214 -0.1362 -0.2650
  106MOL0     C14211  -0.270   7.752  10.431  0.3408  0.1313  0.2228
  106MOL0     C14212  -0.382   7.680  10.505 -0.3571  0.4857 -0.0680
  106MOL0     C14213  -0.371   7.696  10.663 -0.1798 -0.2564 -0.1418
  106MOL0     C14214  -0.414   7.841  10.701 -0.2587 -0.3402  0.1266
  106MOL0     C14215  -0.407   7.869  10.849 -0.4860  0.7837 -0.3036
  106MOL0     C14216  -0.262   7.908  10.887 -0.4823  0.0523 -0.3513
  106MOL0     C14217  -0.241   7.957  11.036  0.0898 -0.3708  0.4793
  106MOL0     C14218  -0.307   7.860  11.141  0.0114 -1.1361  0.0929
  106MOL0    Cl14219  -0.219   7.889  11.300 -0.1324 -0.5436  0.0491
  106MOL0     C14220   0.072   7.654  10.500 -0.6950 -0.9544  1.3236
  106MOL0     C14221   0.173   7.563  10.452  0.1903 -0.1168 -0.6566
  106MOL0     O14222   0.145   7.163  10.324 -1.1543  0.4656 -0.4723
  106MOL0     C14223   0.350   7.044  10.186  0.6519  0.1888  0.9294
  106MOL0     C14224   0.459   6.972  10.133 -0.1460 -0.0816 -0.6825
  106MOL0     N14225   1.074   6.657   9.743 -0.1272  0.4240 -1.0357
  106MOL0     N14226   1.186   6.681   9.683  0.9368 -0.4031 -0.8573
  106MOL0     C14227   1.301   6.755  10.189  0.4734 -1.3195 -1.2485
  106MOL0     C14228   1.269   6.882  10.231 -0.3253  0.1540  0.0823
  106MOL0     C14229   1.188   7.267  10.400  0.7843 -0.4240 -0.5957
  106MOL0     C14230   1.187   7.261  10.541  0.1401 -0.0628 -0.7436
  106MOL0     C14231   1.115   7.355  10.612 -0.3062 -0.8611  0.1627
  106MOL0     C14232   1.022   7.438  10.551 -0.4565 -0.2248 -0.0162
  106MOL0     O14233   0.956   7.543  10.606 -0.1424  0.2007  0.2135
  106MOL0     C14234   0.960   7.582  10.747 -0.5078  0.5887 -0.8753
  106MOL0     C14235   0.833   7.649  10.787  0.4559 -0.0406  0.2975
  106MOL0     C14236   0.855   7.728  10.920 -0.2378  0.8064  0.2081
  106MOL0     C14237   0.729   7.773  10.985 -0.1523 -0.1161  0.3027
  106MOL0     C14238   0.757   7.851  11.107 -0.9350  0.7866 -0.4819
  106MOL0     C14239   0.790   7.902  11.212  0.3076 -0.5075  0.5410
  106MOL0     C14240   1.015   7.435  10.412  0.5022  0.1779 -0.9617
  106MOL0     C14241   1.094   7.350  10.334  0.1699  0.0917  0.3212
  106MOL0     C14242   1.061   7.351  10.190 -0.1386 -0.2819 -0.0106
  106MOL0     H14243   1.487   6.897  10.495 -2.3635 -1.3474  1.9227
  106MOL0     H14244   1.540   6.684  10.435 -0.4512  1.0728  1.3814
  106MOL0     H14245   1.633   6.555  10.266 -0.3094  0.9069  4.3400
  106MOL0     H14246   1.521   6.448  10.353 -0.4345 -0.0037 -0.7506
  106MOL0     H14247   1.480   6.308  10.155 -1.6071  0.9782  1.6747
  106MOL0     H14248   1.653   6.303  10.209  1.2714 -0.0156 -0.9491
  106MOL0     H14249   1.654   6.321   9.974  1.7890 -0.2547  0.1051
  106MOL0     H14250   1.725   6.455  10.061 -1.8157  3.2864  0.1581
  106MOL0     H14251   1.427   6.477   9.951  0.5399  0.5159  2.4351
  106MOL0     H14252   1.542   6.602   9.995  2.6693 -1.1853  1.5660
  106MOL0     H14253   1.693   6.569   9.828  1.6158 -1.0477  1.5499
  106MOL0     H14254   1.619   6.422   9.768 -1.6405 -1.5863  2.3716
  106MOL0     H14255   1.556   6.589   9.634 -2.5660 -1.2646 -1.1403
  106MOL0     H14256   1.414   6.568   9.733  1.0249 -0.5887  0.0378
  106MOL0     H14257   1.607   6.811   9.718  0.5098 -2.5054 -1.5005
  106MOL0     H14258   1.517   6.787   9.869  1.3471  4.3833 -0.5109
  106MOL0     H14259   1.389   6.936   9.733 -0.9905  0.2731 -1.2243
  106MOL0     H14260   1.389   6.838   9.590  1.9905  0.6688  0.4301
  106MOL0     H14261   1.225   6.897   9.929 -0.2250 -0.8883 -0.8306
  106MOL0     H14262   0.958   6.615   9.991  1.8417 -0.3232  1.1062
  106MOL0     H14263   1.011   6.774  10.056  2.7311  0.2438 -0.2468
  106MOL0     H14264   0.853   6.900   9.899  2.0663  0.0195 -0.1276
  106MOL0     H14265   0.838   6.757   9.804 -3.0078  0.9205 -0.3008
  106MOL0     H14266   0.715   6.652   9.994 -2.1485  0.9518  3.0108
  106MOL0     H14267   0.621   6.788   9.929 -2.9311  0.3226  3.0918
  106MOL0     H14268   0.800   6.790  10.175  0.0125 -1.2376  0.7770
  106MOL0     H14269   0.630   6.768  10.168  0.2046 -1.3699 -2.4363
  106MOL0     H14270   0.675   7.237  10.151 -0.5474  1.7051 -1.6309
  106MOL0     H14271   0.473   7.346  10.253 -2.5414  0.1204  0.0241
  106MOL0     H14272  -0.016   7.352  10.280  1.1074 -0.3489 -1.8886
  106MOL0     H14273  -0.199   7.521  10.354 -0.6268  0.4084  1.6439
  106MOL0     H14274  -0.294   7.859  10.426 -3.8262 -0.6939 -1.4674
  106MOL0     H14275  -0.278   7.718  10.327 -0.8495  1.9272 -0.3268
  106MOL0     H14276  -0.480   7.715  10.471 -0.2463  1.1173  0.2463
  106MOL0     H14277  -0.359   7.576  10.480  0.0023  0.2864  1.0436
  106MOL0     H14278  -0.444   7.632  10.713 -0.9106  0.6991  0.0624
  106MOL0     H14279  -0.268   7.674  10.694 -0.6235 -1.5544  0.4626
  106MOL0     H14280  -0.519   7.854  10.674 -0.9916 -0.8059  2.5364
  106MOL0     H14281  -0.358   7.920  10.650 -2.5164  1.3023  0.1007
  106MOL0     H14282  -0.441   7.780  10.904  1.6628 -0.5917 -1.0599
  106MOL0     H14283  -0.468   7.957  10.867  0.4757  2.1046 -2.9653
  106MOL0     H14284  -0.194   7.824  10.873  2.0550  0.9895  4.1931
  106MOL0     H14285  -0.220   7.991  10.829 -1.7073 -0.0608 -1.4294
  106MOL0     H14286  -0.293   8.053  11.034  1.9711  0.7072  0.9600
  106MOL0     H14287  -0.136   7.979  11.057 -0.0408 -0.2445  1.0156
  106MOL0     H14288  -0.412   7.883  11.160  0.4964 -1.3303  3.8696
  106MOL0     H14289  -0.303   7.757  11.104 -1.3066 -2.5409  3.4655
  106MOL0     H14290   0.091   7.744  10.558  1.2464 -1.7672  2.0298
  106MOL0     H14291   0.273   7.580  10.492 -1.3765  2.7057  2.6629
  106MOL0     H14292   0.254   6.992  10.184  0.5053  0.4159 -2.1899
  106MOL0     H14293   0.455   6.868  10.104  1.8719 -0.1769 -0.7985
  106MOL0     H14294   1.232   6.706  10.122 -4.4430 -0.9213  2.8933
  106MOL0     H14295   1.208   6.950  10.173 -0.5103 -0.2153 -0.1605
  106MOL0     H14296   1.239   7.176  10.585  0.8566 -0.8081 -2.9175
  106MOL0     H14297   1.130   7.371  10.718  3.4116 -0.6543 -0.2666
  106MOL0     H14298   1.049   7.640  10.770  0.2249  0.3458 -2.8817
  106MOL0     H14299   0.964   7.493  10.811 -0.7889  0.1561 -1.4466
  106MOL0     H14300   0.753   7.574  10.787  1.8179 -1.5364  0.8830
  106MOL0     H14301   0.802   7.714  10.704  4.5486 -0.4939 -1.8712
  106MOL0     H14302   0.911   7.819  10.897 -0.6689  0.6978 -1.3792
  106MOL0     H14303   0.913   7.664  10.988 -1.1591 -1.4942 -1.0370
  106MOL0     H14304   0.672   7.837  10.917  0.6398 -1.1282 -1.3703
  106MOL0     H14305   0.673   7.684  11.014 -2.9573  1.1200 -0.9725
  106MOL0     H14306   0.821   7.949  11.302 -2.6680  0.1404  1.3269
  106MOL0     H14307   0.924   7.476  10.369 -1.7294 -1.3559  1.8893
  106MOL0     H14308   1.139   7.398  10.129  0.0669  2.6819  2.2754
  106MOL0     H14309   1.036   7.251  10.156  0.6227 -1.5825  2.9220
  106MOL0     H14310   0.978   7.420  10.176 -0.6842 -1.1060 -0.9048
  107MOL0     O14311   5.305   9.686   1.506  0.4253 -0.1675  0.0067
  107MOL0     C14312   5.422   9.683   1.472 -0.7191  0.4079 -0.0543
  107MOL0     O14313   5.474   9.622   1.359  0.2040 -0.7359  0.0769
  107MOL0     C14314   5.383   9.583   1.262  0.6376  0.0724 -0.5268
  107MOL0     C14315   5.277   9.651   1.209  0.3776 -1.2298 -0.2603
  107MOL0     C14316   5.220   9.606   1.092 -0.4351 -0.3524 -0.0741
  107MOL0     C14317   5.258   9.484   1.036  0.3322  0.7416 -0.4890
  107MOL0     O14318   5.185   9.422   0.934  0.0304  0.4958 -0.0943
  107MOL0     C14319   5.208   9.292   0.904  0.0863 -0.8918 -0.8105
  107MOL0     C14320   5.114   9.250   0.791 -0.1740  1.3409 -0.6550
  107MOL0     C14321   4.961   9.256   0.832  0.4266  0.5406 -0.5650
  107MOL0     C14322   4.861   9.237   0.715  0.3487  1.4761  0.3912
  107MOL0     C14323   4.717   9.254   0.764  1.9321  0.2060  0.3570
  107MOL0     C14324   4.615   9.247   0.647 -0.4630  0.4935 -0.4052
  107MOL0     C14325   4.480   9.318   0.681 -0.7664  0.0034 -0.8921
  107MOL0     C14326   4.396   9.322   0.563  0.7646 -0.3305 -0.8776
  107MOL0     N14327   4.268   9.388   0.592  0.6842  0.3269  0.3672
  107MOL0     C14328   4.248   9.523   0.599 -0.6913 -0.4127  1.3094
  107MOL0     C14329   4.118   9.542   0.631 -0.1565  0.4884  0.6413
  107MOL0     C14330   4.045   9.672   0.654  0.5718 -0.5795 -1.0449
  107MOL0     C14331   4.039   9.718   0.801  0.1257 -0.0487 -1.0302
  107MOL0     C14332   3.899   9.685   0.870  0.2769  0.2050 -0.1896
  107MOL0     C14333   3.905   9.718   1.020 -0.2378  0.0624 -0.0395
  107MOL0     O14334   4.016   9.657   1.088  0.1096  0.5261  0.0670
  107MOL0     C14335   4.005   9.535   1.151  0.6933 -0.1913 -0.2224
  107MOL0     C14336   4.012   9.534   1.288  0.1788 -0.3694 -1.0124
  107MOL0     C14337   4.004   9.407   1.355 -0.1917 -1.3975  0.1896
  107MOL0     C14338   4.001   9.292   1.285  0.2069  0.3713 -0.4146
  107MOL0     C14339   3.996   9.166   1.376  0.2607 -1.1336  0.1616
  107MOL0     O14340   3.961   9.177   1.503 -0.0237 -0.1961 -0.4760
  107MOL0     C14341   3.960   9.067   1.581 -0.2616 -0.5976  0.1415
  107MOL0     C14342   3.857   9.049   1.678 -0.4793 -0.3457 -0.2745
  107MOL0     C14343   3.862   8.947   1.769  0.5918  0.6376  0.4326
  107MOL0     C14344   3.958   8.851   1.758  0.2562  0.1851 -0.5115
  107MOL0     O14345   3.941   8.742   1.827  0.2024  0.4875 -0.3235
  107MOL0     C14346   3.995   8.736   1.957 -0.5880  0.3164  0.2006
  107MOL0     C14347   3.958   8.839   2.055  0.1972  0.7494  0.2684
  107MOL0     C14348   3.986   8.795   2.200  0.3290  0.4813  0.8574
  107MOL0     C14349   4.128   8.764   2.248 -0.1059 -0.0736  0.9348
  107MOL0     C14350   4.142   8.704   2.386 -0.2965  0.4318 -0.2896
  107MOL0     C14351   4.287   8.675   2.445 -0.4124  0.3438 -0.0719
  107MOL0     C14352   4.294   8.631   2.591  0.2861  0.4368 -0.1085
  107MOL0     C14353   4.268   8.482   2.619 -0.0118 -0.0416 -0.1005
  107MOL0    Cl14354   4.374   8.390   2.508 -0.3205  0.1854 -0.0859
  107MOL0     C14355   4.070   8.866   1.679 -0.1073  0.5623  1.2836
  107MOL0     C14356   4.071   8.981   1.587 -0.3048  0.9403  0.8391
  107MOL0     O14357   4.016   9.066   1.317 -0.0844  0.2962 -0.0375
  107MOL0     C14358   4.009   9.283   1.145 -0.6102  0.2135  0.5483
  107MOL0     C14359   4.012   9.408   1.079  0.0224  0.3514  0.1385
  107MOL0     N14360   4.067   9.417   0.635 -0.3151  0.3528  0.2757
  107MOL0     N14361   4.148   9.324   0.607  0.2564 -0.1484 -0.6613
  107MOL0     C14362   5.353   9.409   1.102 -0.3722 -0.5612  0.1585
  107MOL0     C14363   5.419   9.459   1.210 -0.2016 -0.2507  0.0823
  107MOL0     C14364   5.528   9.749   1.562 -0.1199  0.3619  1.2361
  107MOL0     C14365   5.482   9.857   1.630  0.1393  0.2315 -0.7642
  107MOL0     C14366   5.564   9.927   1.715  0.0192 -0.1838  0.2789
  107MOL0     C14367   5.693   9.883   1.732 -0.3819 -0.0951  0.4482
  107MOL0     O14368   5.774   9.963   1.813 -0.3100 -0.4418  0.8170
  107MOL0     C14369   5.744  10.097   1.853 -0.4303 -0.3966 -0.2693
  107MOL0     C14370   5.871  10.184   1.892  0.3496  0.5227 -0.3047
  107MOL0     C14371   5.892  10.206   2.040 -0.4275  0.0852  0.4923
  107MOL0     C14372   5.999  10.307   2.070 -0.2474  0.9168  0.4265
  107MOL0     C14373   6.007  10.340   2.213 -0.2157 -1.1571 -0.6861
  107MOL0     C14374   6.024  10.375   2.327 -0.3258 -0.7192 -0.0919
  107MOL0     C14375   5.739   9.775   1.665 -0.2111 -0.1269  0.9655
  107MOL0     C14376   5.656   9.700   1.582  0.6279 -0.4256 -0.5284
  107MOL0     C14377   5.725   9.589   1.513 -0.5386 -0.8384  1.2573
  107MOL0     H14378   5.238   9.736   1.264  0.1426 -2.7735  2.1079
  107MOL0     H14379   5.132   9.659   1.059 -0.8934  0.0483  1.6942
  107MOL0     H14380   5.311   9.283   0.869 -0.9969 -2.5136 -3.8970
  107MOL0     H14381   5.192   9.234   0.995  3.2391  0.0937  0.5115
  107MOL0     H14382   5.149   9.149   0.766  3.9031  1.9955  1.6114
  107MOL0     H14383   5.134   9.306   0.700 -1.5060  1.7794 -0.6918
  107MOL0     H14384   4.941   9.357   0.869  0.7662  0.3973  0.0117
  107MOL0     H14385   4.941   9.185   0.913 -0.4764 -0.7631 -1.8613
  107MOL0     H14386   4.892   9.323   0.654 -2.2152  3.1464  1.2977
  107MOL0     H14387   4.880   9.149   0.653 -0.7321  3.0361 -2.3147
  107MOL0     H14388   4.691   9.174   0.834  1.3443  0.7063  0.7160
  107MOL0     H14389   4.697   9.357   0.798 -2.4032  0.2470 -1.6392
  107MOL0     H14390   4.652   9.304   0.561 -1.5590 -0.8109 -1.8006
  107MOL0     H14391   4.599   9.144   0.616 -1.6488  1.1828 -2.3059
  107MOL0     H14392   4.501   9.421   0.710  2.4196 -0.7875  0.1326
  107MOL0     H14393   4.447   9.253   0.763 -1.2304  1.9190  0.5177
  107MOL0     H14394   4.450   9.377   0.485  3.1866 -1.4593 -0.1122
  107MOL0     H14395   4.378   9.221   0.527  0.7183 -0.2090 -1.1956
  107MOL0     H14396   4.319   9.605   0.595 -0.5549 -0.5468 -2.8566
  107MOL0     H14397   4.096   9.740   0.584 -1.7830 -0.9852 -3.3114
  107MOL0     H14398   3.946   9.658   0.611  0.5924 -0.2000 -1.2256
  107MOL0     H14399   4.123   9.664   0.845  1.9658  3.9545  0.8604
  107MOL0     H14400   4.067   9.821   0.824  1.2994 -0.5400 -0.1769
  107MOL0     H14401   3.874   9.580   0.855 -2.1580  0.7031 -0.0699
  107MOL0     H14402   3.810   9.734   0.829 -2.0144 -0.3123  3.6724
  107MOL0     H14403   3.811   9.692   1.070 -1.4349  2.0092 -1.1191
  107MOL0     H14404   3.917   9.826   1.033  1.1134 -0.2091  1.1173
  107MOL0     H14405   4.005   9.632   1.335 -2.6271 -2.3459  3.2842
  107MOL0     H14406   3.987   9.404   1.462 -2.2569  1.7556  0.0777
  107MOL0     H14407   3.785   9.128   1.697 -2.0627 -1.6357 -0.6951
  107MOL0     H14408   3.774   8.949   1.833 -1.7082 -1.2309 -2.3518
  107MOL0     H14409   3.974   8.643   2.010  2.1172 -0.7012 -0.3082
  107MOL0     H14410   4.104   8.725   1.945 -0.8427  0.3538 -2.9015
  107MOL0     H14411   4.011   8.932   2.029  0.0320  1.1493  1.2955
  107MOL0     H14412   3.852   8.865   2.052  0.4307  1.6726 -1.6862
  107MOL0     H14413   3.955   8.881   2.260 -0.8666  5.0574 -5.3724
  107MOL0     H14414   3.920   8.710   2.217 -0.5408  0.9650 -0.0026
  107MOL0     H14415   4.189   8.853   2.228 -0.8672 -0.3631 -3.6913
  107MOL0     H14416   4.176   8.687   2.188 -0.9914 -0.2984  0.4966
  107MOL0     H14417   4.081   8.614   2.378  0.7029 -0.1311 -2.0111
  107MOL0     H14418   4.083   8.762   2.459 -0.9235 -3.0437  2.2222
  107MOL0     H14419   4.329   8.597   2.381  2.8207  2.6658 -0.9953
  107MOL0     H14420   4.343   8.767   2.426  1.4698 -0.5958  0.7431
  107MOL0     H14421   4.245   8.698   2.663  0.3015  1.9130 -1.4001
  107MOL0     H14422   4.402   8.643   2.606 -0.1640  1.9289  2.5379
  107MOL0     H14423   4.288   8.460   2.725 -2.0520 -2.4431 -0.1410
  107MOL0     H14424   4.167   8.449   2.594  1.0641 -3.3107 -0.5163
  107MOL0     H14425   4.142   8.785   1.683 -3.0349 -2.3100  0.6906
  107MOL0     H14426   4.164   8.985   1.532  0.1954 -0.2970  1.5494
  107MOL0     H14427   4.010   9.188   1.093 -2.3212  1.7657 -2.6266
  107MOL0     H14428   4.017   9.408   0.970  1.3568 -1.3336  0.1614
  107MOL0     H14429   5.371   9.307   1.069 -2.3609 -0.2112 -2.3021
  107MOL0     H14430   5.494   9.409   1.272 -1.0633  0.8336  2.1059
  107MOL0     H14431   5.380   9.894   1.624 -0.9870 -1.7916  2.6178
  107MOL0     H14432   5.513   9.994   1.783 -0.6668 -0.3643 -0.0553
  107MOL0     H14433   5.680  10.081   1.941 -2.1952 -0.6807 -1.5483
  107MOL0     H14434   5.682  10.157   1.786 -1.6375  0.7166  1.7357
  107MOL0     H14435   5.864  10.284   1.849  0.6431  2.0652  2.8959
  107MOL0     H14436   5.958  10.132   1.851 -0.0694  1.0023 -1.8780
  107MOL0     H14437   5.928  10.112   2.083 -0.5259 -0.6773 -1.0474
  107MOL0     H14438   5.794  10.237   2.078 -2.4051 -3.0108 -1.6308
  107MOL0     H14439   6.096  10.260   2.047  0.5286  1.9833  1.3786
  107MOL0     H14440   5.992  10.398   2.010 -2.8289 -0.0695 -0.9197
  107MOL0     H14441   6.045  10.419   2.423  0.5921 -0.3178 -0.4667
  107MOL0     H14442   5.841   9.741   1.681 -0.2568 -1.2720 -0.8384
  107MOL0     H14443   5.746   9.619   1.410 -2.3698  1.3335  1.4397
  107MOL0     H14444   5.827   9.575   1.551 -0.2542 -2.0975  0.1098
  107MOL0     H14445   5.660   9.502   1.522 -2.8161  0.0549 -3.3871
  108MOL0     O14446   9.753   6.417   0.282 -0.4184 -0.4668 -0.4878
  108MOL0     C14447   9.693   6.425   0.386 -0.1632  0.5544 -0.8826
  108MOL0     O14448   9.619   6.530   0.429 -0.2155  0.1523  0.4697
  108MOL0     C14449   9.593   6.646   0.357 -0.6260  0.5050 -0.6851
  108MOL0     C14450   9.472   6.721   0.384  0.3423  0.4896  0.3824
  108MOL0     C14451   9.457   6.839   0.315  1.4017 -0.9027 -0.3633
  108MOL0     C14452   9.540   6.895   0.220  0.0520  0.7721 -0.0113
  108MOL0     O14453   9.535   7.006   0.137 -0.2592 -0.0472  0.1882
  108MOL0     C14454   9.424   7.097   0.150  0.3088 -0.1395 -0.2730
  108MOL0     C14455   9.445   7.203   0.037  0.6409 -0.6073  0.7900
  108MOL0     C14456   9.318   7.265  -0.011  0.4084  0.0997  0.5586
  108MOL0     C14457   9.339   7.377  -0.102 -1.1401 -0.5188 -0.1290
  108MOL0     C14458   9.218   7.463  -0.141 -0.2509 -0.6300  1.3973
  108MOL0     C14459   9.263   7.562  -0.245 -1.2101 -0.5399  0.0159
  108MOL0     C14460   9.133   7.618  -0.303  0.3830  0.8233  1.0907
  108MOL0     C14461   9.167   7.745  -0.380 -1.6151  0.4482 -0.8172
  108MOL0     N14462   9.041   7.817  -0.408 -0.0086  0.2836 -0.5026
  108MOL0     C14463   9.041   7.955  -0.405 -0.2480  0.4429 -0.5585
  108MOL0     C14464   8.911   7.985  -0.427  0.4640  0.9895 -0.0979
  108MOL0     C14465   8.852   8.120  -0.447  0.3706 -0.2099  1.0042
  108MOL0     C14466   8.858   8.183  -0.590 -0.4239  0.6009 -0.4515
  108MOL0     C14467   8.741   8.282  -0.627 -0.1470 -0.9433 -0.4549
  108MOL0     C14468   8.716   8.401  -0.522  0.0117 -0.0794 -0.5630
  108MOL0     O14469   8.610   8.478  -0.573  0.5941  0.0012 -0.3023
  108MOL0     C14470   8.616   8.553  -0.691  0.3473  0.3642  0.7615
  108MOL0     C14471   8.491   8.610  -0.738  0.3267  0.4699 -0.1857
  108MOL0     C14472   8.500   8.693  -0.854 -0.1429 -0.6575  0.3965
  108MOL0     C14473   8.629   8.728  -0.908  0.6644 -0.4997 -0.2986
  108MOL0     C14474   8.632   8.824  -1.028 -0.2145  0.0792 -1.2990
  108MOL0     O14475   8.734   8.916  -1.023  0.5975 -1.0651  0.4862
  108MOL0     C14476   8.717   9.023  -1.122 -1.0363  0.0439 -0.5202
  108MOL0     C14477   8.595   9.105  -1.129 -1.0565  0.0010  0.4313
  108MOL0     C14478   8.584   9.193  -1.237  0.7589 -0.0191 -0.3377
  108MOL0     C14479   8.686   9.221  -1.331 -0.1115  1.0269  0.3737
  108MOL0     O14480   8.680   9.301  -1.445  0.1898  0.5535  0.0826
  108MOL0     C14481   8.554   9.351  -1.479 -0.0229 -0.4025  0.7806
  108MOL0     C14482   8.585   9.437  -1.603 -0.5105 -0.6354  0.4925
  108MOL0     C14483   8.630   9.346  -1.725  0.3943  0.1851  0.1145
  108MOL0     C14484   8.703   9.441  -1.831 -0.2717 -0.5954  0.3787
  108MOL0     C14485   8.782   9.381  -1.943  0.0397  0.1492 -0.5916
  108MOL0     C14486   8.890   9.480  -1.987  0.1270 -0.0328  1.2098
  108MOL0     C14487   8.973   9.420  -2.105  0.2715 -0.5882 -0.5859
  108MOL0     C14488   9.036   9.537  -2.184 -1.0004 -0.5040 -0.4663
  108MOL0    Cl14489   8.915   9.611  -2.298 -0.3356  0.4544  0.6180
  108MOL0     C14490   8.810   9.158  -1.302  0.1779  0.7159 -0.0986
  108MOL0     C14491   8.824   9.054  -1.206 -0.2510  0.2264 -0.6748
  108MOL0     O14492   8.541   8.819  -1.103 -0.0925 -0.0141  0.4202
  108MOL0     C14493   8.742   8.675  -0.858  0.5087  0.0806  0.1129
  108MOL0     C14494   8.738   8.591  -0.749 -0.1030  0.0369  0.0281
  108MOL0     N14495   8.842   7.873  -0.462 -0.4097 -0.2048  0.2360
  108MOL0     N14496   8.921   7.770  -0.441 -0.0414  0.1148 -0.7904
  108MOL0     C14497   9.659   6.827   0.196  0.1622 -0.2477 -0.2282
  108MOL0     C14498   9.688   6.707   0.271  0.4294  0.2514  0.3671
  108MOL0     C14499   9.714   6.308   0.472  0.7438 -0.4375  0.2904
  108MOL0     C14500   9.761   6.193   0.410  0.0485  0.6866  0.1109
  108MOL0     C14501   9.791   6.079   0.493  0.2013  0.6842  0.8010
  108MOL0     C14502   9.775   6.086   0.636  0.3219 -0.2098  0.0731
  108MOL0     O14503   9.793   5.983   0.717 -0.8416  0.3885  0.2548
  108MOL0     C14504   9.905   5.892   0.691  0.2516  0.0091  0.4604
  108MOL0     C14505   9.918   5.802   0.807 -0.3470  0.0972 -0.7549
  108MOL0     C14506   9.779   5.780   0.870  0.1631  0.3132 -0.3086
  108MOL0     C14507   9.791   5.695   1.004 -0.0443  0.3227 -0.5929
  108MOL0     C14508   9.656   5.656   1.044  0.5302 -0.6395  0.1029
  108MOL0     C14509   9.558   5.616   1.098  0.2619  1.0604 -0.0369
  108MOL0     C14510   9.716   6.198   0.687 -0.6243  0.2137  0.0420
  108MOL0     C14511   9.684   6.310   0.610 -0.9097  0.6947 -1.3145
  108MOL0     C14512   9.640   6.432   0.687  0.1115  0.2618  0.5142
  108MOL0     H14513   9.396   6.679   0.449  1.5373 -3.7355 -0.6177
  108MOL0     H14514   9.366   6.896   0.330 -0.9657 -3.1110 -4.6243
  108MOL0     H14515   9.337   7.032   0.135  2.4855 -2.9806 -1.5163
  108MOL0     H14516   9.417   7.146   0.247  1.9911  0.6292 -0.5015
  108MOL0     H14517   9.491   7.160  -0.053 -1.3733  2.5483 -1.9734
  108MOL0     H14518   9.518   7.276   0.072  1.3195 -0.5833 -0.5714
  108MOL0     H14519   9.257   7.297   0.074 -1.9064  1.2009 -1.3922
  108MOL0     H14520   9.259   7.194  -0.070 -0.2189 -0.6089  1.9851
  108MOL0     H14521   9.412   7.447  -0.060  0.3476 -2.4690  0.7290
  108MOL0     H14522   9.381   7.353  -0.199 -2.8952  3.3598 -2.0750
  108MOL0     H14523   9.154   7.392  -0.194  2.2803 -0.9594 -1.4861
  108MOL0     H14524   9.171   7.517  -0.058 -0.1300  1.2939  0.2686
  108MOL0     H14525   9.321   7.646  -0.207 -1.1944 -0.0673 -1.0158
  108MOL0     H14526   9.330   7.509  -0.314  1.1560 -0.5705  2.1690
  108MOL0     H14527   9.060   7.636  -0.224 -1.2830 -0.9622  0.0389
  108MOL0     H14528   9.080   7.551  -0.371 -1.8454 -0.2308  3.6772
  108MOL0     H14529   9.236   7.809  -0.324  0.9690 -3.1480  0.4102
  108MOL0     H14530   9.213   7.718  -0.475 -1.0625  2.0653 -1.0439
  108MOL0     H14531   9.122   8.028  -0.408 -1.5262  1.9358 -0.0940
  108MOL0     H14532   8.749   8.118  -0.411  0.1630 -0.7261  0.4010
  108MOL0     H14533   8.898   8.197  -0.383 -1.5324  3.5779 -1.7616
  108MOL0     H14534   8.952   8.240  -0.595  0.7383 -1.3333 -3.0068
  108MOL0     H14535   8.872   8.107  -0.668 -1.6392 -1.3629  1.1277
  108MOL0     H14536   8.651   8.223  -0.648  0.1182 -1.9943  1.1735
  108MOL0     H14537   8.770   8.334  -0.719  4.0551  0.7775  1.5817
  108MOL0     H14538   8.799   8.466  -0.493  0.0268  0.3280 -1.4876
  108MOL0     H14539   8.686   8.347  -0.432  2.8960 -2.1624 -0.7394
  108MOL0     H14540   8.400   8.594  -0.680 -1.8710  0.4793 -3.3766
  108MOL0     H14541   8.414   8.751  -0.886  1.4513  1.0593 -0.9618
  108MOL0     H14542   8.505   9.087  -1.071 -3.7060  1.8200 -2.7715
  108MOL0     H14543   8.484   9.232  -1.257  0.5539  1.4028  2.8541
  108MOL0     H14544   8.488   9.265  -1.497  1.9824 -1.9505  0.4439
  108MOL0     H14545   8.501   9.410  -1.404  1.1493 -1.2784  2.3648
  108MOL0     H14546   8.489   9.485  -1.627  0.1890  1.9105  2.3451
  108MOL0     H14547   8.667   9.508  -1.588 -1.2100  1.0897 -2.6892
  108MOL0     H14548   8.701   9.269  -1.695 -0.0568  0.3528  1.6913
  108MOL0     H14549   8.540   9.303  -1.770 -1.1020 -0.0888  3.1005
  108MOL0     H14550   8.758   9.520  -1.779 -0.5160 -1.1482  1.4976
  108MOL0     H14551   8.621   9.496  -1.878 -0.2177 -0.7747  0.0765
  108MOL0     H14552   8.717   9.353  -2.027  1.3657 -2.3522 -0.8595
  108MOL0     H14553   8.822   9.287  -1.905  0.1297  0.2842 -0.3496
  108MOL0     H14554   8.844   9.569  -2.032 -0.0809 -0.5969  0.2803
  108MOL0     H14555   8.950   9.523  -1.906  0.9289 -0.9873  1.1355
  108MOL0     H14556   8.904   9.366  -2.171  1.0583 -2.6121  0.1469
  108MOL0     H14557   9.046   9.350  -2.064  1.0485 -0.9573 -2.4958
  108MOL0     H14558   9.058   9.613  -2.109 -0.4323 -1.4787  0.3735
  108MOL0     H14559   9.119   9.488  -2.236  0.7525  0.0746  1.6806
  108MOL0     H14560   8.898   9.181  -1.361  0.1619  4.6130  1.1089
  108MOL0     H14561   8.911   8.994  -1.184  1.7860  2.2658 -2.5993
  108MOL0     H14562   8.840   8.707  -0.891 -1.0599  1.5542 -3.7109
  108MOL0     H14563   8.835   8.553  -0.719  0.1932  1.1979  0.6169
  108MOL0     H14564   9.729   6.864   0.122 -2.9455  0.2655 -3.1249
  108MOL0     H14565   9.786   6.663   0.249  0.4067  0.6498 -0.5765
  108MOL0     H14566   9.773   6.176   0.303  1.8161 -2.0888  0.6471
  108MOL0     H14567   9.835   5.987   0.456  1.8390  1.4130  0.8176
  108MOL0     H14568   9.996   5.952   0.686 -1.3077  2.5563  0.5485
  108MOL0     H14569   9.886   5.830   0.604 -0.4000  2.6173 -1.3773
  108MOL0     H14570   9.981   5.866   0.870 -0.3445  1.0063 -1.6584
  108MOL0     H14571   9.962   5.705   0.784  2.7691  1.4171 -1.0040
  108MOL0     H14572   9.702   5.728   0.813 -0.9589 -1.1096  2.3249
  108MOL0     H14573   9.735   5.873   0.906 -2.0080  0.3636 -2.8162
  108MOL0     H14574   9.865   5.616   1.004  1.4160  1.6436 -0.4695
  108MOL0     H14575   9.824   5.766   1.080  1.5110  0.2220 -1.1482
  108MOL0     H14576   9.462   5.586   1.134  1.3954 -0.5014  1.8568
  108MOL0     H14577   9.693   6.210   0.793 -1.4788  0.2842 -0.1401
  108MOL0     H14578   9.533   6.449   0.670  0.2518  1.2539  0.5889
  108MOL0     H14579   9.652   6.417   0.795 -1.3327  1.2447  0.8397
  108MOL0     H14580   9.693   6.523   0.660 -2.0580  2.3964  2.8502
  109MOL0     O14581  11.069   6.213  11.409 -0.4478  0.0489 -0.1904
  109MOL0     C14582  11.136   6.214  11.516  0.7681  1.0068  0.0852
  109MOL0     O14583  11.186   6.322  11.590 -0.2192  0.4633  0.7233
  109MOL0     C14584  11.183   6.441  11.537 -0.5628  0.4375  0.5209
  109MOL0     C14585  11.275   6.531  11.578 -0.2877 -0.2900 -0.2662
  109MOL0     C14586  11.268   6.659  11.538  0.1237  0.2388 -0.7775
  109MOL0     C14587  11.157   6.710  11.464  0.0645  0.7457 -1.1558
  109MOL0     O14588  11.147   6.839  11.427  0.0466  0.6738 -0.6922
  109MOL0     C14589  11.261   6.916  11.443  0.1357 -0.8905 -0.3575
  109MOL0     C14590  11.243   7.059  11.387 -0.1603 -0.3847 -0.3830
  109MOL0     C14591  11.106   7.108  11.428 -0.5781 -0.3215  0.2593
  109MOL0     C14592  11.094   7.257  11.395 -0.8953  0.2678 -0.1928
  109MOL0     C14593  10.951   7.316  11.406  1.1091  0.2450 -0.1968
  109MOL0     C14594  10.951   7.443  11.328 -0.0576 -0.3383  0.9846
  109MOL0     C14595  10.824   7.520  11.350 -0.3478 -0.5146 -0.4632
  109MOL0     C14596  10.826   7.629  11.240  0.0274 -0.2257  0.0717
  109MOL0     N14597  10.803   7.590  11.100 -0.1683 -0.4022 -0.0947
  109MOL0     C14598  10.678   7.563  11.044  0.4180 -0.6022  0.7298
  109MOL0     C14599  10.712   7.523  10.919 -0.9321  0.3051  0.4757
  109MOL0     C14600  10.599   7.516  10.819  0.7834  0.4005  0.1122
  109MOL0     C14601  10.637   7.441  10.692  0.4521  1.1211  0.3800
  109MOL0     C14602  10.710   7.524  10.589 -0.5033 -0.8927  0.8660
  109MOL0     C14603  10.830   7.453  10.511 -1.0478  0.5145  1.0676
  109MOL0     O14604  10.795   7.326  10.460 -0.3151 -0.5525  0.2336
  109MOL0     C14605  10.888   7.248  10.399  0.0789  1.0484 -0.1328
  109MOL0     C14606  11.021   7.285  10.379  0.2728  0.5708 -0.7333
  109MOL0     C14607  11.111   7.203  10.327 -0.8910 -0.3717 -0.1964
  109MOL0     C14608  11.072   7.083  10.276 -0.2208  0.1610 -0.8828
  109MOL0     C14609  11.168   7.002  10.196 -0.3771 -0.0476  0.1145
  109MOL0     O14610  11.289   7.055  10.150 -0.3290 -0.3147  0.2914
  109MOL0     C14611  11.383   6.968  10.102  0.5300  1.0193 -0.1680
  109MOL0     C14612  11.416   6.842  10.165 -0.7203 -0.1961 -0.7450
  109MOL0     C14613  11.524   6.770  10.132  0.3969  0.2263  0.3756
  109MOL0     C14614  11.604   6.800  10.020 -0.2831  0.8977 -1.1394
  109MOL0     O14615  11.712   6.720   9.967  0.1758 -0.6959 -0.6181
  109MOL0     C14616  11.760   6.604  10.033 -0.2063  0.8311 -0.1218
  109MOL0     C14617  11.802   6.499   9.938  0.1610 -0.6253  0.0385
  109MOL0     C14618  11.940   6.511   9.879  0.7425 -0.5233 -0.3318
  109MOL0     C14619  11.975   6.406   9.771 -0.4840  0.3274 -0.7174
  109MOL0     C14620  12.124   6.371   9.751  0.1075  0.8661  0.4035
  109MOL0     C14621  12.177   6.452   9.634 -0.4498 -0.9221 -0.7743
  109MOL0     C14622  12.314   6.402   9.600 -0.7059 -0.2208 -0.0535
  109MOL0     C14623  12.343   6.448   9.463  0.6921 -0.0063 -0.2788
  109MOL0    Cl14624  12.498   6.378   9.397 -0.0618  0.0012  0.1550
  109MOL0     C14625  11.569   6.919   9.950 -0.2020 -0.0336  0.7608
  109MOL0     C14626  11.462   7.000   9.988 -0.4985 -0.7480  0.2742
  109MOL0     O14627  11.130   6.890  10.181 -0.6512 -0.1597  0.2387
  109MOL0     C14628  10.939   7.035  10.290  0.0760 -0.1534 -0.2162
  109MOL0     C14629  10.849   7.116  10.366  0.2215 -0.1973 -0.8130
  109MOL0     N14630  10.851   7.538  10.891  0.0539 -0.3501  0.5341
  109MOL0     N14631  10.899   7.593  11.002 -0.3529  0.3375  0.2562
  109MOL0     C14632  11.051   6.623  11.435 -0.3263 -0.1302 -0.3691
  109MOL0     C14633  11.071   6.489  11.468 -0.6316  0.1575 -0.1519
  109MOL0     C14634  11.176   6.084  11.573 -0.0852 -0.3447 -0.3530
  109MOL0     C14635  11.249   6.084  11.693  0.3100 -0.6137 -0.9546
  109MOL0     C14636  11.299   5.967  11.746  0.6455 -0.1719  0.3447
  109MOL0     C14637  11.286   5.849  11.677 -0.7091  1.0525 -0.5322
  109MOL0     O14638  11.356   5.734  11.721 -0.2620 -0.4218  0.6135
  109MOL0     C14639  11.442   5.734  11.837  0.6934  0.3313  0.9337
  109MOL0     C14640  11.517   5.598  11.849 -1.0893  0.4774 -0.5852
  109MOL0     C14641  11.591   5.554  11.717  0.9626  0.2190  0.0972
  109MOL0     C14642  11.659   5.662  11.642  0.0387 -0.8795  0.7535
  109MOL0     C14643  11.731   5.613  11.528 -0.4712  1.0382 -0.1765
  109MOL0     C14644  11.796   5.578  11.432  0.4704  1.2156 -0.2768
  109MOL0     C14645  11.207   5.841  11.569  0.7905 -0.3143  0.3157
  109MOL0     C14646  11.154   5.960  11.515 -0.0851  1.2191  0.0582
  109MOL0     C14647  11.052   5.935  11.394 -0.5912 -0.3900  0.9780
  109MOL0     H14648  11.361   6.507  11.641  1.0687  2.1731 -1.0452
  109MOL0     H14649  11.349   6.718  11.579  0.4570  2.1977 -3.8876
  109MOL0     H14650  11.293   6.911  11.548 -1.1327  0.5992  0.1397
  109MOL0     H14651  11.348   6.876  11.390  1.3683  0.4632  0.5235
  109MOL0     H14652  11.272   7.052  11.281  2.3513  0.7595  0.1686
  109MOL0     H14653  11.326   7.107  11.439  2.7955 -3.1650 -2.1485
  109MOL0     H14654  11.106   7.093  11.536  1.9645  0.1112  0.3713
  109MOL0     H14655  11.017   7.064  11.382 -0.5441  0.6252 -0.7770
  109MOL0     H14656  11.160   7.321  11.454 -2.1426  3.1373 -1.7184
  109MOL0     H14657  11.133   7.264  11.293  0.7288 -3.4134  0.0196
  109MOL0     H14658  10.879   7.242  11.369  0.4974  0.8724 -0.3003
  109MOL0     H14659  10.938   7.323  11.514  1.6685  0.8766 -0.1653
  109MOL0     H14660  11.028   7.515  11.359 -1.2742  0.7003  1.7154
  109MOL0     H14661  10.957   7.423  11.220  2.0897  0.1901  0.9671
  109MOL0     H14662  10.821   7.551  11.455  1.2464 -0.0242 -0.5407
  109MOL0     H14663  10.732   7.463  11.332 -0.1985 -0.3337 -1.8703
  109MOL0     H14664  10.755   7.707  11.268  0.9721  0.0809  1.7802
  109MOL0     H14665  10.918   7.687  11.240 -0.6344  0.8499  0.5930
  109MOL0     H14666  10.582   7.554  11.094 -2.4007  2.3723 -3.5488
  109MOL0     H14667  10.525   7.458  10.873  0.0440  1.7581  0.5932
  109MOL0     H14668  10.559   7.612  10.784  0.0240 -0.2049 -0.7324
  109MOL0     H14669  10.699   7.353  10.710 -1.6442 -0.6654 -0.6356
  109MOL0     H14670  10.546   7.399  10.649  1.2085 -1.6285  1.2648
  109MOL0     H14671  10.752   7.617  10.629  1.8958 -1.6924  0.3281
  109MOL0     H14672  10.633   7.546  10.515  1.4466  3.0916 -0.2363
  109MOL0     H14673  10.918   7.459  10.576  1.9301 -2.3446 -2.2583
  109MOL0     H14674  10.871   7.515  10.431 -2.0889  0.5122  0.5178
  109MOL0     H14675  11.054   7.386  10.403 -1.1237  0.5064  1.7077
  109MOL0     H14676  11.215   7.233  10.333 -1.1227  0.0986  2.9122
  109MOL0     H14677  11.353   6.807  10.247 -0.2935 -0.6247 -0.5908
  109MOL0     H14678  11.551   6.683  10.190  1.3532  0.2898  0.0455
  109MOL0     H14679  11.830   6.621  10.116 -1.9941 -1.1933  1.9211
  109MOL0     H14680  11.679   6.549  10.081  0.3050 -0.7937 -1.0776
  109MOL0     H14681  11.795   6.408  10.000  0.0048 -1.0704 -0.6234
  109MOL0     H14682  11.725   6.490   9.861  1.0155  1.2879 -1.0825
  109MOL0     H14683  11.933   6.610   9.833  0.2415 -1.6539 -2.8243
  109MOL0     H14684  12.021   6.500   9.952 -0.1166 -0.7003  0.6144
  109MOL0     H14685  11.930   6.417   9.672 -1.2712 -1.5345 -0.5992
  109MOL0     H14686  11.935   6.314   9.816  1.6007 -0.1444  0.2654
  109MOL0     H14687  12.124   6.265   9.725 -1.2412  1.3407 -1.7989
  109MOL0     H14688  12.188   6.391   9.838 -2.1155 -0.7965  2.5594
  109MOL0     H14689  12.104   6.443   9.553 -0.4272  1.6782 -1.1653
  109MOL0     H14690  12.186   6.560   9.650 -1.9407 -1.1609  2.4882
  109MOL0     H14691  12.309   6.293   9.590 -0.9831 -0.3539  1.3453
  109MOL0     H14692  12.393   6.429   9.670 -1.4249  0.2219  0.6127
  109MOL0     H14693  12.267   6.405   9.398 -0.9690  0.4756  1.2817
  109MOL0     H14694  12.340   6.558   9.455 -1.5214  0.3522  3.5368
  109MOL0     H14695  11.621   6.947   9.858  0.5369  0.4132  1.3057
  109MOL0     H14696  11.437   7.088   9.930  0.4372 -1.1810 -0.8260
  109MOL0     H14697  10.909   6.939  10.250  0.5839 -0.3128 -0.2131
  109MOL0     H14698  10.747   7.083  10.385  0.2491 -0.4461 -1.0738
  109MOL0     H14699  10.964   6.654  11.379 -0.4176  0.8630  0.3048
  109MOL0     H14700  10.987   6.429  11.433 -3.2447  3.4907 -0.1743
  109MOL0     H14701  11.268   6.172  11.753  1.2911 -1.6791  0.3797
  109MOL0     H14702  11.344   5.969  11.844 -1.8982 -3.9616  1.8369
  109MOL0     H14703  11.387   5.739  11.931  2.6425 -1.8192  2.2901
  109MOL0     H14704  11.523   5.807  11.826  3.5863 -2.9720 -2.2426
  109MOL0     H14705  11.447   5.522  11.885  2.6751 -2.3918  1.2759
  109MOL0     H14706  11.587   5.624  11.929 -2.0241  1.7137 -0.1210
  109MOL0     H14707  11.519   5.495  11.660 -2.7308  0.3169  4.1534
  109MOL0     H14708  11.666   5.483  11.754 -2.8125 -4.2451  0.1603
  109MOL0     H14709  11.581   5.737  11.624  0.8749 -0.1816 -0.0877
  109MOL0     H14710  11.728   5.699  11.718 -1.4124  1.5580  1.0028
  109MOL0     H14711  11.843   5.525  11.351  0.6050 -0.4793  0.8560
  109MOL0     H14712  11.183   5.745  11.524 -3.5544  1.4026 -1.5972
  109MOL0     H14713  10.957   5.975  11.430 -0.7625 -1.1394  1.3666
  109MOL0     H14714  11.084   5.982  11.301  0.6415 -1.6503  0.7260
  109MOL0     H14715  11.036   5.833  11.360  0.8064  0.2687 -1.9848
  110MOL0     O14716   5.600  11.136   0.212  0.6577 -0.1765 -0.2843
  110MOL0     C14717   5.496  11.211   0.206 -0.0872 -0.1169  0.1464
  110MOL0     O14718   5.371  11.179   0.165 -0.1664  0.0947  0.1404
  110MOL0     C14719   5.357  11.060   0.103  0.0002 -0.3731  0.8438
  110MOL0     C14720   5.298  10.952   0.169 -0.3873 -0.1956 -0.4432
  110MOL0     C14721   5.306  10.812   0.124 -0.1893  0.3745 -0.4033
  110MOL0     C14722   5.349  10.798  -0.004 -0.1741  0.3608 -0.1054
  110MOL0     O14723   5.364  10.665  -0.051  0.7671 -0.3630  0.3085
  110MOL0     C14724   5.467  10.634  -0.139  0.2204 -0.2011  1.0900
  110MOL0     C14725   5.529  10.507  -0.095 -0.5450 -0.0639  0.5065
  110MOL0     C14726   5.599  10.528   0.037 -0.2632  0.0377 -1.0499
  110MOL0     C14727   5.661  10.402   0.112  0.4743 -0.1994  0.1804
  110MOL0     C14728   5.788  10.346   0.058 -0.2349  0.4049 -0.9140
  110MOL0     C14729   5.906  10.439   0.083  0.3094 -0.5394 -0.3023
  110MOL0     C14730   6.039  10.387   0.021  0.3254 -0.1624 -0.4407
  110MOL0     C14731   6.167  10.451   0.079 -0.0025 -0.2714 -0.0626
  110MOL0     N14732   6.204  10.590   0.052  0.8920 -0.0252  0.1312
  110MOL0     C14733   6.139  10.673  -0.040 -1.0319  0.3824  0.4829
  110MOL0     C14734   6.184  10.795  -0.008 -0.3401  0.8708 -0.1709
  110MOL0     C14735   6.120  10.916  -0.068  0.0371  0.0692 -0.6682
  110MOL0     C14736   6.041  11.006   0.028  0.2972 -0.8662 -1.2532
  110MOL0     C14737   5.889  10.995   0.029 -0.6165 -0.1694 -0.3476
  110MOL0     C14738   5.826  11.021  -0.115 -0.3613 -0.9923 -0.0242
  110MOL0     O14739   5.807  10.896  -0.180 -0.9586  0.7764  0.4995
  110MOL0     C14740   5.787  10.894  -0.317 -0.3110 -0.6820 -0.3429
  110MOL0     C14741   5.701  10.991  -0.369 -0.7709 -0.8411  1.3857
  110MOL0     C14742   5.684  10.997  -0.505 -0.4123 -0.4385  1.3174
  110MOL0     C14743   5.729  10.888  -0.582 -0.5766 -0.7058 -0.5977
  110MOL0     C14744   5.703  10.877  -0.727  0.4122 -0.2899 -0.4738
  110MOL0     O14745   5.723  10.756  -0.783 -0.2094 -0.8758 -0.8097
  110MOL0     C14746   5.729  10.749  -0.922  1.0300  0.2102  0.1195
  110MOL0     C14747   5.797  10.831  -1.014  0.9838  1.1281 -1.2546
  110MOL0     C14748   5.758  10.829  -1.148  0.9481  0.0095  1.8494
  110MOL0     C14749   5.684  10.715  -1.201 -1.0295 -0.2369 -0.0463
  110MOL0     O14750   5.680  10.699  -1.340  0.5699 -0.4402  0.0137
  110MOL0     C14751   5.684  10.574  -1.393 -0.7461 -0.3736  0.2726
  110MOL0     C14752   5.807  10.491  -1.360 -0.5300 -0.4855 -0.6546
  110MOL0     C14753   5.819  10.368  -1.451  0.1717  0.0681  0.0601
  110MOL0     C14754   5.883  10.397  -1.592  1.2257  0.0892 -0.0124
  110MOL0     C14755   6.031  10.422  -1.583  0.3148 -0.8625 -0.5118
  110MOL0     C14756   6.102  10.476  -1.702  0.1174  0.3294 -0.1342
  110MOL0     C14757   6.251  10.513  -1.667 -1.1004 -0.3215 -0.6467
  110MOL0     C14758   6.318  10.597  -1.783 -0.4824  0.6933  0.1663
  110MOL0    Cl14759   6.321  10.484  -1.915  0.2664 -0.1519 -0.0371
  110MOL0     C14760   5.629  10.617  -1.110 -0.6572  0.4146  0.0849
  110MOL0     C14761   5.648  10.647  -0.978 -0.0143 -0.0903 -0.2311
  110MOL0     O14762   5.677  10.980  -0.788  0.4306  0.4054  0.1678
  110MOL0     C14763   5.809  10.791  -0.528  0.5646 -0.4651 -0.8564
  110MOL0     C14764   5.846  10.792  -0.398 -0.2101 -0.1395  0.0885
  110MOL0     N14765   6.268  10.789   0.101  0.9724  0.2842  0.0420
  110MOL0     N14766   6.282  10.669   0.132  0.2531 -0.0179  0.7380
  110MOL0     C14767   5.394  10.908  -0.083 -0.8580 -0.0451 -1.3204
  110MOL0     C14768   5.389  11.043  -0.029  0.6191  0.3810  0.7221
  110MOL0     C14769   5.509  11.351   0.254 -0.4437 -0.2988  0.8494
  110MOL0     C14770   5.401  11.408   0.329  0.1703 -0.2777 -0.5645
  110MOL0     C14771   5.403  11.541   0.372  0.1776  0.1296 -0.2657
  110MOL0     C14772   5.517  11.616   0.341  0.4291  0.1279 -0.2841
  110MOL0     O14773   5.540  11.748   0.384  0.2023  1.3064 -0.2354
  110MOL0     C14774   5.434  11.803   0.472 -0.4424 -0.8058 -0.0903
  110MOL0     C14775   5.471  11.949   0.500 -0.6076 -0.6619 -0.3375
  110MOL0     C14776   5.422  12.046   0.392 -0.1640 -0.7151 -0.1645
  110MOL0     C14777   5.487  12.018   0.258  0.6860  0.4205  0.3797
  110MOL0     C14778   5.433  12.113   0.152 -0.5367  0.0407 -1.8929
  110MOL0     C14779   5.374  12.183   0.077  0.8072  0.2376 -0.1619
  110MOL0     C14780   5.621  11.555   0.272  0.0377 -1.2874 -0.1124
  110MOL0     C14781   5.626  11.425   0.231 -0.0110 -0.3465 -1.0734
  110MOL0     C14782   5.759  11.376   0.178  0.1542 -0.1170  0.5046
  110MOL0     H14783   5.276  10.976   0.273  0.9701  2.4719 -0.6855
  110MOL0     H14784   5.272  10.732   0.189 -1.7198  1.8752  0.7757
  110MOL0     H14785   5.424  10.619  -0.238 -1.3185  0.0947  1.6818
  110MOL0     H14786   5.533  10.720  -0.158  0.1680 -0.5049 -0.6189
  110MOL0     H14787   5.607  10.488  -0.170  3.2825  1.7525  3.6590
  110MOL0     H14788   5.455  10.427  -0.106  1.3455 -2.1732  2.1373
  110MOL0     H14789   5.531  10.570   0.112  0.3599  3.6104 -2.2918
  110MOL0     H14790   5.671  10.608   0.016 -0.5711  0.4740 -0.4930
  110MOL0     H14791   5.669  10.428   0.218 -0.4146 -0.1545  0.2490
  110MOL0     H14792   5.581  10.328   0.112 -0.9656  1.2897 -0.6659
  110MOL0     H14793   5.820  10.254   0.108  1.1698 -0.3448 -3.0267
  110MOL0     H14794   5.760  10.326  -0.046 -1.0119 -2.8691 -0.1727
  110MOL0     H14795   5.883  10.539   0.045  0.2802  0.9288  3.2367
  110MOL0     H14796   5.924  10.440   0.191  0.7240 -1.8780 -0.3356
  110MOL0     H14797   6.033  10.400  -0.088 -0.7746 -1.0493 -0.5046
  110MOL0     H14798   6.049  10.278   0.024 -0.0744 -0.1853  0.0402
  110MOL0     H14799   6.166  10.434   0.187 -0.6898  0.5337  0.0658
  110MOL0     H14800   6.249  10.391   0.039  1.5088  3.0918 -2.5275
  110MOL0     H14801   6.067  10.658  -0.119  3.1435 -1.7289 -3.3900
  110MOL0     H14802   6.200  10.965  -0.124  0.7819 -2.1076 -1.6207
  110MOL0     H14803   6.045  10.879  -0.139 -0.4651  1.0850 -0.6753
  110MOL0     H14804   6.076  10.996   0.130  0.4914  3.4708 -0.7391
  110MOL0     H14805   6.067  11.108  -0.000 -2.2330  0.6076  1.2429
  110MOL0     H14806   5.856  11.078   0.091 -0.3560 -1.0646  1.0157
  110MOL0     H14807   5.850  10.909   0.084 -0.4179  0.0580  0.1481
  110MOL0     H14808   5.898  11.085  -0.166  1.1949 -3.2628 -0.8125
  110MOL0     H14809   5.734  11.078  -0.103  1.8053  2.8401 -0.0477
  110MOL0     H14810   5.647  11.071  -0.320 -2.1552 -0.0022 -1.2863
  110MOL0     H14811   5.638  11.076  -0.564 -0.1700  0.7503  2.6595
  110MOL0     H14812   5.862  10.903  -0.965  0.7690  0.9544 -0.7111
  110MOL0     H14813   5.808  10.887  -1.226 -0.2668  0.6936  1.5537
  110MOL0     H14814   5.595  10.522  -1.355 -2.2473 -0.4880 -3.1019
  110MOL0     H14815   5.674  10.585  -1.501  3.6382 -0.7274 -0.3136
  110MOL0     H14816   5.902  10.545  -1.368  1.0080 -2.8874  0.3274
  110MOL0     H14817   5.792  10.461  -1.255  0.8102 -0.0418 -0.3144
  110MOL0     H14818   5.881  10.293  -1.401 -0.2125 -0.8124 -0.7489
  110MOL0     H14819   5.725  10.313  -1.465 -1.2814  1.9323  1.7006
  110MOL0     H14820   5.838  10.486  -1.637  1.3591 -0.0496 -0.4228
  110MOL0     H14821   5.869  10.308  -1.654  1.1161 -0.6217  1.0102
  110MOL0     H14822   6.076  10.336  -1.532  1.0494 -1.1486 -1.6229
  110MOL0     H14823   6.049  10.507  -1.516 -1.0395  0.2039 -1.4534
  110MOL0     H14824   6.090  10.393  -1.771 -4.6727  2.0298 -1.7153
  110MOL0     H14825   6.054  10.569  -1.733 -1.2254 -0.0557  0.7113
  110MOL0     H14826   6.311  10.424  -1.645 -0.8349 -0.2066 -0.9089
  110MOL0     H14827   6.251  10.574  -1.576  1.9545 -1.3136  0.1287
  110MOL0     H14828   6.269  10.690  -1.815  0.7809  1.5752  0.7179
  110MOL0     H14829   6.423  10.613  -1.756 -0.9458 -1.3640  3.9786
  110MOL0     H14830   5.567  10.534  -1.143  0.2684  0.2589 -1.3377
  110MOL0     H14831   5.608  10.573  -0.909 -2.6282 -0.7277 -2.2685
  110MOL0     H14832   5.856  10.710  -0.583  2.8110  1.2293 -1.6156
  110MOL0     H14833   5.913  10.720  -0.352 -0.8088 -0.0945  1.0663
  110MOL0     H14834   5.416  10.897  -0.189 -0.7403  1.7797 -1.5256
  110MOL0     H14835   5.406  11.123  -0.100  2.2789 -0.0904  0.5535
  110MOL0     H14836   5.312  11.350   0.347 -1.0191  1.7744  0.6002
  110MOL0     H14837   5.314  11.574   0.425 -1.1742  1.2904 -3.0645
  110MOL0     H14838   5.447  11.758   0.571  6.2696  1.0304  0.3851
  110MOL0     H14839   5.337  11.799   0.421 -0.8500  3.2196  0.0240
  110MOL0     H14840   5.575  11.958   0.534 -0.5669  2.2794 -0.9848
  110MOL0     H14841   5.419  11.980   0.590 -3.4998  0.6877 -2.3155
  110MOL0     H14842   5.446  12.147   0.425 -0.1410 -0.7996  0.0861
  110MOL0     H14843   5.312  12.042   0.393 -0.2011 -0.2320 -1.4408
  110MOL0     H14844   5.596  12.022   0.273  0.7341  3.0092 -0.1518
  110MOL0     H14845   5.472  11.918   0.216 -1.5934  0.3175  1.2968
  110MOL0     H14846   5.314  12.246   0.015 -1.7787 -2.5610 -0.7187
  110MOL0     H14847   5.706  11.618   0.250 -2.6090  2.2394 -1.0505
  110MOL0     H14848   5.813  11.301   0.237  2.3334 -3.1338 -4.5419
  110MOL0     H14849   5.745  11.333   0.078  2.2222 -2.4535  1.0976
  110MOL0     H14850   5.835  11.453   0.165  1.6897 -1.5349  0.6119
  111MOL0     O14851   7.343   2.616  10.356 -0.3384  0.1619 -0.9884
  111MOL0     C14852   7.258   2.530  10.331  0.2038  0.1170 -0.2367
  111MOL0     O14853   7.204   2.443  10.425 -0.3004  0.2220 -0.7829
  111MOL0     C14854   7.294   2.406  10.532 -0.1240 -0.3623  0.6097
  111MOL0     C14855   7.432   2.362  10.497 -0.1196  0.1121  0.1315
  111MOL0     C14856   7.528   2.349  10.596 -0.0062 -0.5050 -0.0864
  111MOL0     C14857   7.495   2.367  10.730 -0.3498  0.8950  1.5416
  111MOL0     O14858   7.590   2.363  10.822  0.2090 -0.8071  0.4837
  111MOL0     C14859   7.603   2.501  10.871  0.2705 -0.1645 -0.1791
  111MOL0     C14860   7.669   2.503  11.006  0.5872  0.2588 -0.3650
  111MOL0     C14861   7.587   2.422  11.104  0.1079 -0.7247  0.7634
  111MOL0     C14862   7.631   2.471  11.244 -0.0892  0.5204  0.0258
  111MOL0     C14863   7.570   2.379  11.349 -0.8257 -0.1994  0.9927
  111MOL0     C14864   7.424   2.375  11.375 -0.1214 -0.7071  0.9449
  111MOL0     C14865   7.394   2.293  11.500  0.2245 -0.7163 -0.7580
  111MOL0     C14866   7.245   2.282  11.537  0.3256 -0.7391  0.1191
  111MOL0     N14867   7.202   2.413  11.595 -0.7591 -0.0782  0.5344
  111MOL0     C14868   7.128   2.497  11.517  0.6280  1.1325 -0.1214
  111MOL0     C14869   7.130   2.612  11.582  0.1622  0.2450 -0.1497
  111MOL0     C14870   7.056   2.739  11.538 -0.0235 -0.1730 -0.0699
  111MOL0     C14871   6.966   2.803  11.641  0.9490 -0.0769 -0.5145
  111MOL0     C14872   6.826   2.737  11.665  0.7583  0.1594 -0.5840
  111MOL0     C14873   6.718   2.779  11.567  1.0621  0.2515 -0.2903
  111MOL0     O14874   6.753   2.733  11.426 -1.2230 -0.7201  1.1499
  111MOL0     C14875   6.748   2.607  11.384  0.5423  0.2814 -0.2689
  111MOL0     C14876   6.789   2.592  11.252  0.3129 -0.3935 -0.0156
  111MOL0     C14877   6.785   2.462  11.196  0.1293  0.0136 -0.2476
  111MOL0     C14878   6.742   2.347  11.271 -0.0999 -0.6688 -0.4169
  111MOL0     C14879   6.719   2.216  11.200 -1.1285  0.3744 -0.0718
  111MOL0     O14880   6.747   2.206  11.067  0.0101 -0.2700  0.0036
  111MOL0     C14881   6.734   2.080  11.008 -0.7297 -1.3021 -0.3253
  111MOL0     C14882   6.639   2.065  10.910  0.0490  0.2318  1.0250
  111MOL0     C14883   6.633   1.946  10.829  0.3280  0.3044 -0.0325
  111MOL0     C14884   6.717   1.842  10.864  0.0170 -0.2667  0.2262
  111MOL0     O14885   6.701   1.719  10.803 -0.3681 -0.1471 -0.0206
  111MOL0     C14886   6.776   1.703  10.685  0.5169  0.0418  1.0777
  111MOL0     C14887   6.840   1.574  10.673 -0.0407 -1.2693  0.1272
  111MOL0     C14888   6.748   1.457  10.645  0.3933  0.3328 -0.3326
  111MOL0     C14889   6.696   1.453  10.502  0.0437 -0.3805 -0.3650
  111MOL0     C14890   6.635   1.312  10.472 -0.5107  0.3737  0.1578
  111MOL0     C14891   6.499   1.273  10.544 -0.3724  0.1613 -0.2063
  111MOL0     C14892   6.446   1.133  10.513  0.9936 -0.6594  0.0180
  111MOL0     C14893   6.545   1.019  10.535  0.1529  0.4803  0.0744
  111MOL0    Cl14894   6.602   1.013  10.696  0.3336 -0.2674 -0.0678
  111MOL0     C14895   6.815   1.858  10.965 -0.2607  0.2068  0.1172
  111MOL0     C14896   6.833   1.986  11.031 -0.6489 -0.1614 -0.0530
  111MOL0     O14897   6.690   2.118  11.266  0.2209  0.2254  0.1293
  111MOL0     C14898   6.713   2.367  11.410 -0.0448 -0.2482  0.2064
  111MOL0     C14899   6.709   2.500  11.460  0.0504  0.6408 -0.3665
  111MOL0     N14900   7.197   2.599  11.700 -0.4636  0.0568 -0.0511
  111MOL0     N14901   7.236   2.476  11.704 -0.0087 -0.1912 -0.4972
  111MOL0     C14902   7.356   2.385  10.767 -0.1764 -0.0649 -0.2178
  111MOL0     C14903   7.259   2.410  10.668 -0.7333  0.3116 -0.2764
  111MOL0     C14904   7.210   2.511  10.191 -1.1031  0.6141  0.2595
  111MOL0     C14905   7.085   2.453  10.177 -0.1055 -0.2470 -2.1900
  111MOL0     C14906   7.015   2.458  10.058  1.1256 -0.1183  0.3894
  111MOL0     C14907   7.075   2.517   9.948  0.2045 -0.7081 -0.1850
  111MOL0     O14908   7.019   2.525   9.820  0.0090  0.0064 -0.0182
  111MOL0     C14909   6.872   2.493   9.812 -0.1127 -0.1858 -0.1304
  111MOL0     C14910   6.827   2.346   9.791 -0.3126  0.0205 -0.4961
  111MOL0     C14911   6.872   2.290   9.652 -0.5957 -1.1920 -0.1090
  111MOL0     C14912   6.775   2.186   9.613  0.3163  0.0853 -0.6088
  111MOL0     C14913   6.784   2.160   9.473 -0.3605 -0.1513 -0.2811
  111MOL0     C14914   6.796   2.136   9.356 -0.3870  1.5923 -0.0512
  111MOL0     C14915   7.199   2.574   9.959 -0.1699 -0.5151  0.1599
  111MOL0     C14916   7.271   2.565  10.081  1.1655 -0.3465 -0.2996
  111MOL0     C14917   7.399   2.635  10.082 -0.6169 -0.2462 -0.2044
  111MOL0     H14918   7.461   2.354  10.393  2.8336  0.2012  0.8640
  111MOL0     H14919   7.625   2.313  10.564 -0.0240 -0.4321 -0.2281
  111MOL0     H14920   7.662   2.555  10.796  1.7631 -1.9224 -0.3512
  111MOL0     H14921   7.506   2.549  10.879 -0.0303 -0.7989  0.1377
  111MOL0     H14922   7.681   2.609  11.029 -2.4130  0.6440 -0.1693
  111MOL0     H14923   7.772   2.465  10.996  1.4052  2.2834 -0.0997
  111MOL0     H14924   7.613   2.320  11.074 -0.2392 -0.7954  0.7064
  111MOL0     H14925   7.480   2.439  11.092 -0.0778 -2.0005  0.4231
  111MOL0     H14926   7.740   2.468  11.253  0.2250  3.1137 -1.6705
  111MOL0     H14927   7.590   2.572  11.256 -2.5174 -0.4696  0.6440
  111MOL0     H14928   7.598   2.278  11.317 -1.5876  0.1788 -1.0605
  111MOL0     H14929   7.618   2.410  11.442  3.9633  4.1942 -2.3680
  111MOL0     H14930   7.389   2.479  11.382  1.8859  0.5085 -3.6354
  111MOL0     H14931   7.367   2.331  11.293 -0.4212  0.1679  0.6693
  111MOL0     H14932   7.446   2.336  11.586 -0.0863  0.2534 -1.0411
  111MOL0     H14933   7.442   2.199  11.471 -0.5986 -1.4662  0.2674
  111MOL0     H14934   7.187   2.268  11.445 -1.3634  1.6006  0.7424
  111MOL0     H14935   7.219   2.206  11.610 -0.2296 -1.2801 -0.6226
  111MOL0     H14936   7.083   2.475  11.421  4.3481  0.5377 -1.8689
  111MOL0     H14937   7.126   2.820  11.517  1.8863 -2.0412 -1.2523
  111MOL0     H14938   7.005   2.723  11.442 -0.7595 -2.0926  0.5926
  111MOL0     H14939   7.022   2.805  11.735  1.9456 -3.0890 -0.9282
  111MOL0     H14940   6.957   2.897  11.586  3.2285 -1.0118 -2.6631
  111MOL0     H14941   6.790   2.770  11.763 -2.0008  3.4701 -2.4709
  111MOL0     H14942   6.850   2.631  11.653  0.1796 -0.0578  0.1097
  111MOL0     H14943   6.723   2.887  11.556 -0.6183  0.1934 -2.3760
  111MOL0     H14944   6.623   2.730  11.590  2.1137 -0.7264  2.4448
  111MOL0     H14945   6.826   2.677  11.194 -2.1691  1.8904  1.5426
  111MOL0     H14946   6.820   2.441  11.095  2.0804 -0.1738  0.4364
  111MOL0     H14947   6.575   2.148  10.883  2.6907  1.4109 -2.3107
  111MOL0     H14948   6.565   1.928  10.747  1.1083  0.0527 -0.6381
  111MOL0     H14949   6.702   1.715  10.606  1.3072 -2.1631 -0.0693
  111MOL0     H14950   6.850   1.781  10.666 -0.0021 -0.0946 -1.9872
  111MOL0     H14951   6.923   1.589  10.604 -0.7653 -0.9829 -0.7073
  111MOL0     H14952   6.891   1.542  10.765 -1.4434 -1.9933  0.6911
  111MOL0     H14953   6.807   1.365  10.658  2.0484  0.9988 -2.4632
  111MOL0     H14954   6.679   1.465  10.729  1.5234  2.1164  0.5076
  111MOL0     H14955   6.786   1.469  10.442  3.4502  0.9945  4.4867
  111MOL0     H14956   6.626   1.537  10.500  0.9105  0.3611 -0.1973
  111MOL0     H14957   6.713   1.240  10.497 -1.7673  0.1148  3.9414
  111MOL0     H14958   6.625   1.293  10.365  3.4302  1.9007 -0.6625
  111MOL0     H14959   6.511   1.281  10.652 -1.2731 -2.2584  0.1279
  111MOL0     H14960   6.429   1.356  10.527  1.1369  2.7175  4.3418
  111MOL0     H14961   6.400   1.135  10.414  1.6578 -0.3386 -0.2888
  111MOL0     H14962   6.363   1.110  10.581  0.3142  2.9644  0.6139
  111MOL0     H14963   6.492   0.924  10.527  3.4097 -1.8316  3.0807
  111MOL0     H14964   6.637   1.033  10.478  1.5823  3.0385  2.7153
  111MOL0     H14965   6.887   1.780  10.985  2.1120  1.7806 -1.6734
  111MOL0     H14966   6.898   2.015  11.112  0.9548 -1.2656 -0.8898
  111MOL0     H14967   6.665   2.284  11.462 -2.3891  0.8261 -0.1212
  111MOL0     H14968   6.677   2.518  11.562  0.5996  2.3921 -0.4682
  111MOL0     H14969   7.330   2.385  10.872  0.9736 -0.7090  0.0827
  111MOL0     H14970   7.154   2.427  10.692 -0.6372 -0.0485  0.4035
  111MOL0     H14971   7.040   2.409  10.265  2.0313  1.6333 -0.0160
  111MOL0     H14972   6.916   2.420  10.038  1.1265  0.8634 -1.8050
  111MOL0     H14973   6.822   2.551   9.734  0.2330 -2.4399 -2.1321
  111MOL0     H14974   6.815   2.523   9.901 -1.2115 -0.6607 -0.6582
  111MOL0     H14975   6.718   2.339   9.795 -0.5649  1.7836 -2.4772
  111MOL0     H14976   6.874   2.291   9.873  0.2233  1.6166  0.3194
  111MOL0     H14977   6.975   2.251   9.651  1.1556  2.9571  0.2829
  111MOL0     H14978   6.873   2.377   9.586  2.5175 -1.4050 -0.5020
  111MOL0     H14979   6.798   2.093   9.666 -2.5347  0.3638  1.3603
  111MOL0     H14980   6.670   2.211   9.631  0.4524  1.6355 -1.7399
  111MOL0     H14981   6.823   2.130   9.253 -0.6444  1.1587 -0.0960
  111MOL0     H14982   7.233   2.625   9.870  0.0040 -1.1870 -0.1641
  111MOL0     H14983   7.436   2.640   9.979  1.4441  1.2100  0.5528
  111MOL0     H14984   7.390   2.734  10.128  0.5186  0.2407 -1.0085
  111MOL0     H14985   7.477   2.583  10.139 -0.0912  0.6746 -0.0672
  112MOL0     O14986   5.432   9.744   3.742 -0.0891  1.4640  0.2224
  112MOL0     C14987   5.465   9.844   3.799  0.7362 -0.4418  0.4677
  112MOL0     O14988   5.570   9.863   3.889  0.9658  0.1748  0.4482
  112MOL0     C14989   5.663   9.767   3.880 -0.9933 -0.9118 -0.0098
  112MOL0     C14990   5.762   9.781   3.777 -0.6071  0.8328 -0.7413
  112MOL0     C14991   5.870   9.696   3.759  0.8800 -0.2715 -0.0849
  112MOL0     C14992   5.892   9.601   3.863 -0.4264  0.5635  1.1643
  112MOL0     O14993   5.989   9.495   3.854  0.0996  0.0930  0.3982
  112MOL0     C14994   6.106   9.518   3.770  0.6814  0.9781  0.3433
  112MOL0     C14995   6.071   9.471   3.625  0.1295  0.0273 -0.4602
  112MOL0     C14996   6.020   9.329   3.610 -0.3053 -0.7507  0.6965
  112MOL0     C14997   6.033   9.277   3.467 -0.4783  0.0013  0.7839
  112MOL0     C14998   6.007   9.128   3.469 -0.3400  0.8472  0.4133
  112MOL0     C14999   6.028   9.066   3.330 -0.5804  0.4415 -0.3404
  112MOL0     C15000   6.174   9.056   3.293 -0.6317  0.0080 -1.0441
  112MOL0     C15001   6.220   8.912   3.272  0.1944 -0.6149  0.0367
  112MOL0     N15002   6.372   8.908   3.283 -0.3124  0.5827 -0.3898
  112MOL0     C15003   6.443   8.819   3.371  0.5648  0.5655  0.5263
  112MOL0     C15004   6.555   8.882   3.396 -0.5671 -0.0811  0.1821
  112MOL0     C15005   6.649   8.837   3.507 -0.0814 -0.0081 -0.4560
  112MOL0     C15006   6.598   8.791   3.644 -0.1244 -0.5515  0.8750
  112MOL0     C15007   6.501   8.891   3.713 -0.1003 -0.2911  0.1875
  112MOL0     C15008   6.459   8.835   3.845  1.7894 -0.8509 -0.8288
  112MOL0     O15009   6.405   8.705   3.823 -0.6448  0.1646  0.7106
  112MOL0     C15010   6.280   8.705   3.757 -0.0850  0.2312 -0.1591
  112MOL0     C15011   6.256   8.575   3.697  0.6215  0.5334  0.5610
  112MOL0     C15012   6.134   8.547   3.638  1.8529  0.2005 -0.2654
  112MOL0     C15013   6.031   8.644   3.639 -0.2640  0.8630 -0.3696
  112MOL0     C15014   5.899   8.610   3.600 -0.2113  0.2589  0.0715
  112MOL0     O15015   5.836   8.712   3.536  0.2284  0.4629 -0.6466
  112MOL0     C15016   5.717   8.694   3.467 -0.6485  0.0257  0.3218
  112MOL0     C15017   5.623   8.804   3.458 -0.0289 -0.1407  0.7987
  112MOL0     C15018   5.503   8.794   3.386 -0.2727  0.0165  0.2347
  112MOL0     C15019   5.463   8.672   3.332 -0.7751 -0.1779  0.4847
  112MOL0     O15020   5.337   8.674   3.281 -0.2313 -0.3809  0.2522
  112MOL0     C15021   5.274   8.551   3.273  0.1030  0.9541  0.0320
  112MOL0     C15022   5.124   8.580   3.250 -0.5180 -0.1247  0.9688
  112MOL0     C15023   5.029   8.479   3.309  1.1779 -0.2569  0.5552
  112MOL0     C15024   4.883   8.520   3.305  0.5580 -1.0593  0.8732
  112MOL0     C15025   4.805   8.402   3.370 -0.4592  1.0110  0.1899
  112MOL0     C15026   4.655   8.424   3.391  0.5674  0.1945  0.6429
  112MOL0     C15027   4.587   8.301   3.458 -0.4136  1.0949 -0.4131
  112MOL0     C15028   4.598   8.177   3.369  0.9571  0.7715 -0.5226
  112MOL0    Cl15029   4.474   8.054   3.415  0.0356 -0.1670 -0.0964
  112MOL0     C15030   5.555   8.568   3.332 -0.6952  0.3047 -0.5051
  112MOL0     C15031   5.682   8.576   3.394 -0.5521 -0.1525  0.8754
  112MOL0     O15032   5.858   8.494   3.614  0.4815 -0.1124  0.0089
  112MOL0     C15033   6.061   8.767   3.699  0.7499  0.0446 -0.1906
  112MOL0     C15034   6.181   8.804   3.750 -0.5236  0.0152  0.0725
  112MOL0     N15035   6.566   8.995   3.314 -0.2886 -0.3716 -0.0985
  112MOL0     N15036   6.454   9.008   3.248 -0.1431  0.3527  0.0773
  112MOL0     C15037   5.796   9.590   3.974  0.7924  0.6062  1.6953
  112MOL0     C15038   5.687   9.669   3.980 -0.2325  0.6309 -0.0863
  112MOL0     C15039   5.373   9.956   3.772  0.4661 -0.2189  0.3979
  112MOL0     C15040   5.343  10.049   3.876 -0.6443  0.7198  0.1031
  112MOL0     C15041   5.249  10.156   3.865 -0.1476 -0.0173  0.6365
  112MOL0     C15042   5.197  10.186   3.733  0.5529  0.0860 -0.5563
  112MOL0     O15043   5.117  10.294   3.728  0.5110 -0.5132  0.8048
  112MOL0     C15044   5.046  10.342   3.846  1.0020  0.3254 -0.3238
  112MOL0     C15045   4.937  10.452   3.808  1.1428  0.0373  0.2086
  112MOL0     C15046   4.988  10.548   3.705  0.1934 -0.2158  1.2835
  112MOL0     C15047   4.875  10.621   3.630  0.7541  0.0206 -0.4337
  112MOL0     C15048   4.821  10.727   3.716  1.5022  0.5941  0.2039
  112MOL0     C15049   4.779  10.821   3.776  0.0506 -0.2062 -0.1843
  112MOL0     C15050   5.229  10.100   3.628 -0.6053  0.0133 -0.2368
  112MOL0     C15051   5.309   9.982   3.643  0.7125 -0.4036  0.6416
  112MOL0     C15052   5.321   9.887   3.525  0.0344 -0.0661 -0.3825
  112MOL0     H15053   5.747   9.867   3.713 -0.8137  1.0217 -0.4393
  112MOL0     H15054   5.943   9.717   3.682  0.2786 -3.3082 -1.6483
  112MOL0     H15055   6.148   9.619   3.767 -0.0370  1.2692 -0.1507
  112MOL0     H15056   6.184   9.455   3.813 -1.4394 -0.8587  1.7041
  112MOL0     H15057   6.166   9.489   3.576  0.0887  1.0274 -0.1860
  112MOL0     H15058   6.006   9.539   3.569  1.4767 -0.3280 -2.5621
  112MOL0     H15059   5.919   9.319   3.652 -1.4060 -0.6324 -1.7914
  112MOL0     H15060   6.091   9.265   3.664  0.3050 -0.0780  0.7134
  112MOL0     H15061   5.961   9.320   3.396  1.4620  2.0407 -0.0791
  112MOL0     H15062   6.136   9.299   3.437 -0.9412  0.4878 -0.5452
  112MOL0     H15063   6.076   9.080   3.539  2.0225 -2.0696 -3.4534
  112MOL0     H15064   5.912   9.114   3.521 -1.3421  1.5058 -1.1685
  112MOL0     H15065   5.976   8.970   3.327 -1.3647  0.7553  1.4269
  112MOL0     H15066   5.986   9.133   3.254  2.4492  3.3968  0.3265
  112MOL0     H15067   6.241   9.098   3.369 -0.0946  0.1791 -1.6054
  112MOL0     H15068   6.196   9.113   3.202  1.6304 -2.0497 -1.8830
  112MOL0     H15069   6.164   8.835   3.327 -0.4946  0.8156  1.4145
  112MOL0     H15070   6.191   8.888   3.169  1.6833 -1.8522 -0.1245
  112MOL0     H15071   6.412   8.724   3.414 -2.1825  1.9755  1.8840
  112MOL0     H15072   6.717   8.759   3.469  0.5563  1.0140 -1.4740
  112MOL0     H15073   6.712   8.923   3.529  0.5331 -0.5195 -0.1963
  112MOL0     H15074   6.562   8.688   3.634  1.3208 -1.0123  0.1659
  112MOL0     H15075   6.678   8.793   3.718  0.7571  0.1927 -0.0750
  112MOL0     H15076   6.415   8.921   3.652 -1.2684 -0.7169  1.5816
  112MOL0     H15077   6.555   8.982   3.739  1.0126 -0.7330 -0.4776
  112MOL0     H15078   6.385   8.905   3.884 -0.0681 -2.8669 -0.5586
  112MOL0     H15079   6.541   8.827   3.917 -0.0063  2.1721  1.8429
  112MOL0     H15080   6.335   8.501   3.695  1.2937  1.0901  3.0615
  112MOL0     H15081   6.112   8.455   3.584  1.6913 -0.8119  1.4591
  112MOL0     H15082   5.651   8.897   3.507 -0.3397 -0.2353  1.1602
  112MOL0     H15083   5.440   8.880   3.367 -2.7181 -1.5619  0.6701
  112MOL0     H15084   5.315   8.485   3.196  1.3005 -1.7361  2.7855
  112MOL0     H15085   5.291   8.496   3.366 -3.0017  0.7808  0.6100
  112MOL0     H15086   5.105   8.670   3.309  0.6170 -0.9170  2.6181
  112MOL0     H15087   5.101   8.607   3.147 -0.0159 -0.9952  0.6196
  112MOL0     H15088   5.034   8.392   3.242 -1.9833  0.2097 -0.4159
  112MOL0     H15089   5.064   8.447   3.408  0.3254 -1.7532  0.3997
  112MOL0     H15090   4.848   8.532   3.201 -2.1279  0.5406  1.8583
  112MOL0     H15091   4.864   8.612   3.360 -0.3663 -1.2057  0.8216
  112MOL0     H15092   4.856   8.396   3.466  2.9867  1.1038 -1.4897
  112MOL0     H15093   4.824   8.306   3.322 -1.6922  0.6159  0.4515
  112MOL0     H15094   4.642   8.515   3.449 -4.9213  0.4369 -0.4710
  112MOL0     H15095   4.604   8.451   3.298 -0.2495  1.9220  1.5415
  112MOL0     H15096   4.480   8.319   3.468 -0.9767 -2.7701  3.0383
  112MOL0     H15097   4.630   8.284   3.557 -0.6960  1.9626 -0.1328
  112MOL0     H15098   4.576   8.205   3.265  0.6966 -0.9346 -0.9663
  112MOL0     H15099   4.695   8.127   3.377  0.4151 -0.1166  0.9287
  112MOL0     H15100   5.515   8.473   3.299 -3.4675  1.6958 -1.4514
  112MOL0     H15101   5.728   8.479   3.407 -0.3261 -0.2332 -0.4458
  112MOL0     H15102   5.982   8.841   3.694 -1.6675 -2.3331  0.8056
  112MOL0     H15103   6.186   8.894   3.811  0.1458  1.0665 -1.4671
  112MOL0     H15104   5.819   9.518   4.052  1.1171 -0.4008  0.7077
  112MOL0     H15105   5.616   9.662   4.062 -1.9115  0.4640 -1.4955
  112MOL0     H15106   5.394  10.029   3.970  0.6156  0.4585 -0.6089
  112MOL0     H15107   5.240  10.212   3.958 -1.4190  0.2045  0.3981
  112MOL0     H15108   5.115  10.390   3.917  2.8466  0.7300 -2.2630
  112MOL0     H15109   4.997  10.255   3.891  0.1411  0.6339 -0.6503
  112MOL0     H15110   4.903  10.502   3.899  0.9410  2.3177 -1.0630
  112MOL0     H15111   4.854  10.395   3.767  2.0587 -2.7151  1.8746
  112MOL0     H15112   5.043  10.499   3.624  1.4835  0.7127  1.5718
  112MOL0     H15113   5.060  10.610   3.758  3.3305 -2.7445  0.2724
  112MOL0     H15114   4.905  10.664   3.534  0.6893 -0.1499 -0.5288
  112MOL0     H15115   4.791  10.554   3.613  1.4606 -0.5903 -1.5948
  112MOL0     H15116   4.737  10.891   3.846 -0.1173 -1.8440  1.4222
  112MOL0     H15117   5.187  10.121   3.530  0.1859  0.7316 -0.4415
  112MOL0     H15118   5.263   9.928   3.442 -0.1330 -2.1867 -1.3699
  112MOL0     H15119   5.427   9.876   3.501  0.4827  1.5630  0.7067
  112MOL0     H15120   5.279   9.790   3.553 -2.7837  1.3085  0.4678
  113MOL0     O15121   7.800  11.273   7.430  0.4082  1.3322  0.6185
  113MOL0     C15122   7.841  11.329   7.526  1.5072 -0.4794  0.1067
  113MOL0     O15123   7.959  11.400   7.530  0.9235  0.0729 -0.5235
  113MOL0     C15124   8.065  11.384   7.448 -0.6659 -0.3418 -0.3671
  113MOL0     C15125   8.182  11.472   7.447  1.2202  0.8789 -0.0351
  113MOL0     C15126   8.295  11.451   7.371 -0.1995  0.4906  0.1428
  113MOL0     C15127   8.299  11.348   7.281  0.1635  0.2265 -0.6352
  113MOL0     O15128   8.419  11.319   7.216 -0.4829  0.0461 -0.2511
  113MOL0     C15129   8.430  11.207   7.123  0.1603  0.1764 -0.0070
  113MOL0     C15130   8.581  11.186   7.111  0.2137  0.7218  0.1351
  113MOL0     C15131   8.627  11.043   7.067 -0.0802  1.4853  0.2726
  113MOL0     C15132   8.778  11.047   7.061 -0.5263 -0.5146  0.2162
  113MOL0     C15133   8.820  10.912   7.005 -0.4559 -0.1526 -0.1560
  113MOL0     C15134   8.815  10.814   7.118 -0.9086  0.2510  0.1181
  113MOL0     C15135   8.834  10.678   7.052  0.5071  0.3096  0.5405
  113MOL0     C15136   8.958  10.654   6.968 -0.9596  0.5087  0.3117
  113MOL0     N15137   9.008  10.515   6.962 -0.2670 -0.3779 -0.4178
  113MOL0     C15138   8.977  10.427   6.862  0.1046 -0.0217  0.8592
  113MOL0     C15139   9.055  10.313   6.882 -0.7825 -0.5821 -0.3308
  113MOL0     C15140   9.079  10.197   6.797  0.0535 -0.9067 -0.6008
  113MOL0     C15141   9.205  10.213   6.711  0.2397 -0.9060 -0.1954
  113MOL0     C15142   9.228  10.094   6.619 -0.1260  0.0448 -0.7466
  113MOL0     C15143   9.301   9.980   6.691  0.5919  0.3937 -0.2865
  113MOL0     O15144   9.258   9.847   6.661 -0.0931 -0.4749  0.3202
  113MOL0     C15145   9.314   9.744   6.729 -0.3348  0.5723  0.2075
  113MOL0     C15146   9.422   9.767   6.820  0.9551 -0.2843  0.4514
  113MOL0     C15147   9.485   9.658   6.868 -0.4302  0.2201 -1.2236
  113MOL0     C15148   9.449   9.525   6.847  0.1886 -0.3351  0.0509
  113MOL0     C15149   9.522   9.408   6.893 -0.1383 -0.2651  0.8238
  113MOL0     O15150   9.647   9.428   6.952 -0.5128 -0.2950  0.5775
  113MOL0     C15151   9.718   9.339   7.024 -0.4426  0.5482  0.2733
  113MOL0     C15152   9.839   9.385   7.074 -0.3559  0.0908 -0.5770
  113MOL0     C15153   9.926   9.292   7.138 -0.4222 -0.0630 -0.9912
  113MOL0     C15154   9.904   9.157   7.144  0.6434 -0.1597 -0.7865
  113MOL0     O15155   9.997   9.068   7.180  0.2284  0.4499 -0.7792
  113MOL0     C15156  10.070   9.081   7.305  0.2188  0.6138  0.8025
  113MOL0     C15157   9.981   9.106   7.418 -0.9066 -0.4813 -1.1791
  113MOL0     C15158  10.067   9.093   7.548 -0.6487 -0.4361 -0.0468
  113MOL0     C15159   9.975   9.141   7.668 -0.4165 -0.1402 -0.0345
  113MOL0     C15160  10.041   9.128   7.812 -0.3056  0.2191 -0.6861
  113MOL0     C15161  10.130   9.249   7.831  0.4326 -0.4110  0.0882
  113MOL0     C15162  10.197   9.265   7.978 -0.0348 -0.0634  0.3996
  113MOL0     C15163  10.290   9.142   8.008  0.2874 -0.4258  0.1188
  113MOL0    Cl15164  10.435   9.146   7.902  0.3435 -0.1921  0.0695
  113MOL0     C15165   9.784   9.107   7.106  0.0413 -0.0672 -0.2882
  113MOL0     C15166   9.688   9.196   7.053 -0.0798  0.4829  0.4756
  113MOL0     O15167   9.459   9.304   6.891 -0.8849  0.1918  0.7544
  113MOL0     C15168   9.333   9.507   6.772  0.4724  0.5291 -0.5836
  113MOL0     C15169   9.272   9.617   6.703  0.0462  0.0525 -0.1390
  113MOL0     N15170   9.122  10.337   7.003  0.5455  0.3110 -0.3799
  113MOL0     N15171   9.088  10.453   7.050  0.2716 -0.4184 -0.4576
  113MOL0     C15172   8.189  11.263   7.273  0.0479 -0.7395  1.0317
  113MOL0     C15173   8.076  11.286   7.350  0.5024  0.7925 -0.4536
  113MOL0     C15174   7.754  11.334   7.649  1.3940  0.0867 -0.1330
  113MOL0     C15175   7.780  11.444   7.739 -0.3695  0.6795 -0.4833
  113MOL0     C15176   7.710  11.454   7.855 -0.0573 -0.3090  0.1964
  113MOL0     C15177   7.596  11.367   7.878 -0.2347  0.1699 -0.3528
  113MOL0     O15178   7.518  11.391   7.993  1.5455  0.4683  1.4133
  113MOL0     C15179   7.516  11.290   8.100  0.0698  0.0533  0.1615
  113MOL0     C15180   7.642  11.280   8.178  0.8735  0.0816  0.0232
  113MOL0     C15181   7.703  11.414   8.223  0.1297  0.2622 -0.0304
  113MOL0     C15182   7.830  11.401   8.300  0.0939  0.7507 -0.4836
  113MOL0     C15183   7.809  11.328   8.425 -0.5657 -0.2216 -0.0049
  113MOL0     C15184   7.793  11.271   8.529  0.8223  0.8455 -0.2776
  113MOL0     C15185   7.567  11.272   7.787 -0.4591  0.5979  0.5940
  113MOL0     C15186   7.648  11.244   7.672  0.2061 -0.6123 -0.0662
  113MOL0     C15187   7.596  11.130   7.591  0.4477  0.7116  0.0639
  113MOL0     H15188   8.161  11.559   7.507 -3.4357  2.0015 -2.7650
  113MOL0     H15189   8.381  11.516   7.370  0.2107 -0.0515 -0.2522
  113MOL0     H15190   8.388  11.118   7.170 -0.2405  2.0815  3.6499
  113MOL0     H15191   8.381  11.230   7.029 -0.0448 -1.6927 -0.3957
  113MOL0     H15192   8.625  11.203   7.210  1.5528 -3.2939  0.4013
  113MOL0     H15193   8.626  11.252   7.036  0.5717 -0.8296 -1.0685
  113MOL0     H15194   8.591  11.028   6.965  0.6501  2.6195 -0.1669
  113MOL0     H15195   8.570  10.979   7.135 -2.7133  2.6059 -0.7429
  113MOL0     H15196   8.813  11.125   6.994 -0.5578 -0.7917 -0.1259
  113MOL0     H15197   8.824  11.079   7.155 -0.2553  2.6678 -0.8850
  113MOL0     H15198   8.749  10.887   6.926 -0.4663 -0.8849  0.0746
  113MOL0     H15199   8.919  10.918   6.959  0.3322 -1.5890  1.2514
  113MOL0     H15200   8.899  10.844   7.181  0.0061 -0.3303 -0.7929
  113MOL0     H15201   8.725  10.793   7.176 -1.0017 -1.1904 -0.5105
  113MOL0     H15202   8.748  10.644   6.994  0.0675  0.7304  0.9349
  113MOL0     H15203   8.856  10.613   7.136  2.1193 -1.4959 -1.1849
  113MOL0     H15204   8.957  10.685   6.864  1.5431  2.3331  0.7465
  113MOL0     H15205   9.047  10.695   7.015  1.3832 -3.5943 -0.0865
  113MOL0     H15206   8.894  10.429   6.793 -0.9900  1.4294  2.1527
  113MOL0     H15207   9.102  10.122   6.874 -1.0828 -0.8281 -0.1679
  113MOL0     H15208   8.985  10.179   6.744 -2.8102  3.3422  2.3475
  113MOL0     H15209   9.196  10.302   6.648  3.7326 -0.6579 -0.5407
  113MOL0     H15210   9.291  10.236   6.775 -1.2005  0.8084  1.2568
  113MOL0     H15211   9.284  10.120   6.529  0.7298  0.5925 -0.0728
  113MOL0     H15212   9.133  10.054   6.583 -0.5591  1.5492 -1.3952
  113MOL0     H15213   9.282   9.972   6.798 -1.5173 -0.1716 -0.6618
  113MOL0     H15214   9.409   9.998   6.678  0.9109 -0.8964  0.4467
  113MOL0     H15215   9.450   9.865   6.856 -1.5999 -0.1570  2.3088
  113MOL0     H15216   9.563   9.671   6.942  0.2369  1.3752 -2.1070
  113MOL0     H15217   9.869   9.483   7.038 -0.7316  1.4889  2.5869
  113MOL0     H15218  10.031   9.316   7.148 -0.4765 -0.3851  0.5363
  113MOL0     H15219  10.119   8.985   7.324  0.2478  0.0302 -1.8855
  113MOL0     H15220  10.144   9.161   7.306 -1.6802  2.4717  0.9752
  113MOL0     H15221   9.931   9.204   7.413 -0.6521 -0.2550  0.3771
  113MOL0     H15222   9.906   9.026   7.424  0.4370 -1.8688 -2.1773
  113MOL0     H15223  10.110   8.994   7.565  0.3994 -0.2806 -1.5585
  113MOL0     H15224  10.156   9.158   7.542  0.1247 -1.5467 -1.0179
  113MOL0     H15225   9.880   9.087   7.665  0.0148 -0.8903 -1.8196
  113MOL0     H15226   9.940   9.244   7.662 -0.4825  0.0729  2.7760
  113MOL0     H15227  10.102   9.037   7.819 -0.5023  0.0860 -0.6973
  113MOL0     H15228   9.966   9.139   7.891  0.8054 -0.5442  0.5300
  113MOL0     H15229  10.212   9.238   7.759 -0.3184 -3.1482 -0.4433
  113MOL0     H15230  10.080   9.345   7.817  1.4400  0.2529  0.8718
  113MOL0     H15231  10.120   9.282   8.054  1.7440  0.6433  2.1331
  113MOL0     H15232  10.253   9.358   7.981  0.8447 -0.5388 -0.6974
  113MOL0     H15233  10.323   9.155   8.111 -0.8974 -1.4422  0.6455
  113MOL0     H15234  10.235   9.048   7.997  1.7072 -1.1445 -1.1719
  113MOL0     H15235   9.758   9.001   7.111  1.2427 -0.3794 -0.3313
  113MOL0     H15236   9.590   9.157   7.026  0.1513 -0.6554  1.2120
  113MOL0     H15237   9.278   9.413   6.772 -0.7983  1.0967  3.0376
  113MOL0     H15238   9.184   9.594   6.644  1.2080  3.2753 -3.4875
  113MOL0     H15239   8.179  11.176   7.208  3.2963  2.0567 -3.7248
  113MOL0     H15240   8.006  11.204   7.366 -0.9489  2.3340  1.7615
  113MOL0     H15241   7.851  11.524   7.723 -0.1372  0.4255 -0.7353
  113MOL0     H15242   7.730  11.544   7.911  0.6451  0.4610 -1.2389
  113MOL0     H15243   7.496  11.191   8.057 -0.4595 -0.2665  1.1001
  113MOL0     H15244   7.437  11.319   8.170  0.0224 -0.7532  0.4587
  113MOL0     H15245   7.716  11.230   8.115  1.8667 -0.7410  1.7707
  113MOL0     H15246   7.604  11.224   8.263 -0.0337  1.0618  0.2860
  113MOL0     H15247   7.629  11.473   8.279 -1.3925 -1.6698  0.1067
  113MOL0     H15248   7.723  11.466   8.129 -0.3301 -0.8563 -0.7668
  113MOL0     H15249   7.891  11.347   8.226  0.0925  0.3222 -0.1763
  113MOL0     H15250   7.877  11.499   8.318  1.8323  0.3467 -2.3817
  113MOL0     H15251   7.779  11.228   8.626 -0.1739 -0.6129 -1.0122
  113MOL0     H15252   7.480  11.208   7.799  1.3787 -1.9540  1.2025
  113MOL0     H15253   7.534  11.170   7.511 -0.2789  1.8747  1.1672
  113MOL0     H15254   7.680  11.070   7.556 -0.2655 -0.5282  0.4219
  113MOL0     H15255   7.535  11.055   7.644  1.2574  0.9164  1.3222
  114MOL0     O15256   7.346   9.145   0.128 -0.4396  0.3469  0.3612
  114MOL0     C15257   7.418   9.098   0.221 -0.2704  0.5518  0.4079
  114MOL0     O15258   7.375   9.017   0.321  1.0757  0.1617 -0.2967
  114MOL0     C15259   7.249   8.953   0.306  0.6164  0.1607 -0.0525
  114MOL0     C15260   7.130   9.031   0.320 -0.7454 -0.3506 -0.6512
  114MOL0     C15261   6.998   8.975   0.311 -0.4088 -0.3378  0.6918
  114MOL0     C15262   6.980   8.839   0.281 -0.5170 -0.1712  0.4578
  114MOL0     O15263   6.849   8.793   0.269  0.5153  0.4753  0.0847
  114MOL0     C15264   6.838   8.651   0.225  0.1251 -0.3614 -0.6380
  114MOL0     C15265   6.690   8.628   0.256 -0.5639 -0.6106  0.5512
  114MOL0     C15266   6.655   8.476   0.241 -0.8086  0.1566  0.2839
  114MOL0     C15267   6.509   8.423   0.242  0.7941  0.1226 -0.7166
  114MOL0     C15268   6.407   8.514   0.172  0.4138 -0.7161  0.0927
  114MOL0     C15269   6.274   8.443   0.155  0.2287  0.1386 -0.1499
  114MOL0     C15270   6.200   8.422   0.291  0.4073  0.4661  0.2918
  114MOL0     C15271   6.068   8.336   0.276 -0.4455 -0.1854  0.8094
  114MOL0     N15272   5.984   8.354   0.393  0.1976  0.5474 -0.3484
  114MOL0     C15273   5.894   8.455   0.420  0.3529 -0.5943 -0.1602
  114MOL0     C15274   5.830   8.429   0.542  0.2097  0.0758  1.1448
  114MOL0     C15275   5.726   8.499   0.619 -0.1052  0.3939 -0.5471
  114MOL0     C15276   5.782   8.633   0.685 -0.1020  0.7696  0.0615
  114MOL0     C15277   5.684   8.702   0.778  0.2335 -0.6523 -0.2422
  114MOL0     C15278   5.553   8.724   0.705  0.2324  0.7442 -0.4344
  114MOL0     O15279   5.480   8.605   0.712  0.8121  0.8316  0.4606
  114MOL0     C15280   5.380   8.578   0.811 -0.5623 -0.4027  0.5064
  114MOL0     C15281   5.268   8.506   0.762  0.4641 -0.4063 -0.3277
  114MOL0     C15282   5.145   8.515   0.837 -0.3679  0.4172  0.0811
  114MOL0     C15283   5.137   8.574   0.965 -0.0909  0.0178  0.0516
  114MOL0     C15284   5.016   8.544   1.053  0.1340 -0.2186 -0.5444
  114MOL0     O15285   4.899   8.503   0.996  0.3858 -0.2477  0.5117
  114MOL0     C15286   4.805   8.421   1.054  0.9503  0.7532 -0.2804
  114MOL0     C15287   4.805   8.372   1.186  0.0355 -0.4654 -1.3449
  114MOL0     C15288   4.696   8.289   1.230 -1.2653  1.1534 -0.3147
  114MOL0     C15289   4.599   8.252   1.141  0.0602  0.2456  0.6191
  114MOL0     O15290   4.501   8.178   1.180  0.4314 -0.2587  0.5448
  114MOL0     C15291   4.549   8.044   1.213 -0.4568 -0.6669 -0.9587
  114MOL0     C15292   4.454   7.931   1.175  0.0891 -0.1376 -0.2917
  114MOL0     C15293   4.489   7.807   1.256 -0.2980  0.0328  0.2796
  114MOL0     C15294   4.390   7.691   1.206 -0.5994 -0.2467 -0.0601
  114MOL0     C15295   4.397   7.567   1.285 -0.6970 -0.7220  1.5586
  114MOL0     C15296   4.521   7.475   1.259  0.3600 -0.1461  0.2314
  114MOL0     C15297   4.553   7.379   1.379  0.5582  0.0028 -0.1889
  114MOL0     C15298   4.459   7.257   1.378 -0.1701 -0.1472 -0.6320
  114MOL0    Cl15299   4.546   7.127   1.304 -0.3399  0.5668 -0.3329
  114MOL0     C15300   4.595   8.305   1.014 -0.5903  0.6071  0.6880
  114MOL0     C15301   4.702   8.374   0.970 -0.2486  0.1440  0.3922
  114MOL0     O15302   5.023   8.564   1.173 -0.4241 -0.0138  0.1774
  114MOL0     C15303   5.262   8.618   1.016 -0.0779  0.2736  0.2411
  114MOL0     C15304   5.376   8.631   0.934  1.1481 -0.7505  0.3443
  114MOL0     N15305   5.878   8.298   0.571  0.3794  0.2574 -0.0110
  114MOL0     N15306   5.972   8.264   0.491  0.0090  0.1832 -0.1176
  114MOL0     C15307   7.103   8.761   0.275  0.1751  1.0689 -0.0219
  114MOL0     C15308   7.230   8.813   0.294  0.7165 -1.0612  0.5546
  114MOL0     C15309   7.552   9.144   0.248 -0.3939 -0.0531  0.3940
  114MOL0     C15310   7.598   9.179   0.377  0.5347 -0.6055 -0.1673
  114MOL0     C15311   7.727   9.226   0.405 -0.4818 -0.0748 -0.0965
  114MOL0     C15312   7.819   9.255   0.302  0.2489 -0.6160  0.3166
  114MOL0     O15313   7.941   9.301   0.326 -0.2684  0.1184 -0.9259
  114MOL0     C15314   8.028   9.198   0.363 -0.1725  0.6783 -0.3336
  114MOL0     C15315   8.043   9.208   0.509 -0.6144 -0.9404 -0.0810
  114MOL0     C15316   8.156   9.108   0.565 -0.7538 -0.5112 -0.1495
  114MOL0     C15317   8.287   9.189   0.608  0.4508 -0.6510 -0.2217
  114MOL0     C15318   8.386   9.200   0.502 -0.4162  1.1516 -0.1979
  114MOL0     C15319   8.470   9.210   0.412  0.3337 -0.6864  0.2927
  114MOL0     C15320   7.766   9.235   0.171 -0.0158  0.0065 -0.4990
  114MOL0     C15321   7.638   9.175   0.147  0.3623 -0.1241 -0.3131
  114MOL0     C15322   7.599   9.168   0.001  0.2423 -0.1713 -0.4268
  114MOL0     H15323   7.138   9.139   0.333 -1.4348 -0.5505  1.8511
  114MOL0     H15324   6.906   9.029   0.331 -0.8904 -0.2629 -1.4718
  114MOL0     H15325   6.864   8.644   0.119  1.7104  0.7909 -0.3559
  114MOL0     H15326   6.888   8.588   0.299  1.1717  3.1094  1.8662
  114MOL0     H15327   6.634   8.695   0.190 -0.2459  1.8833  2.6818
  114MOL0     H15328   6.664   8.667   0.354 -5.7445  2.1723 -1.5605
  114MOL0     H15329   6.716   8.421   0.313 -0.9375 -1.5178 -0.8258
  114MOL0     H15330   6.688   8.441   0.143 -2.6305 -1.7276  0.2883
  114MOL0     H15331   6.508   8.326   0.192  2.2806 -1.5682  2.2378
  114MOL0     H15332   6.486   8.415   0.349  2.1262  1.3063 -0.3016
  114MOL0     H15333   6.389   8.602   0.234 -1.6251 -2.1393  1.6530
  114MOL0     H15334   6.444   8.544   0.074  1.7506  3.2675  1.6169
  114MOL0     H15335   6.212   8.490   0.078  0.8656 -0.5185 -1.0865
  114MOL0     H15336   6.300   8.350   0.103 -0.4998 -0.6325  0.8264
  114MOL0     H15337   6.179   8.519   0.336  0.1576 -1.3415  4.4620
  114MOL0     H15338   6.261   8.368   0.363  0.0848  0.4991  0.5881
  114MOL0     H15339   6.016   8.378   0.189 -0.9873 -0.7708  0.8427
  114MOL0     H15340   6.079   8.232   0.247 -1.6786 -0.3276  0.8057
  114MOL0     H15341   5.883   8.548   0.365 -0.3937 -0.1098  0.7848
  114MOL0     H15342   5.650   8.527   0.544 -2.2259 -0.5241  1.1553
  114MOL0     H15343   5.678   8.424   0.682  2.3610 -1.6530 -0.9483
  114MOL0     H15344   5.877   8.614   0.736 -1.0340  1.2293  2.0236
  114MOL0     H15345   5.816   8.689   0.597  1.0541 -0.0266 -0.0305
  114MOL0     H15346   5.718   8.803   0.803  1.7624 -1.4010  0.8938
  114MOL0     H15347   5.671   8.644   0.870  0.4005  1.1323  0.9591
  114MOL0     H15348   5.569   8.762   0.603 -2.0006 -1.1225 -1.5641
  114MOL0     H15349   5.493   8.802   0.753  0.7223  1.6034 -1.1774
  114MOL0     H15350   5.279   8.452   0.668  0.7191 -0.9953  0.0333
  114MOL0     H15351   5.056   8.481   0.784  1.1735 -1.0726 -1.7130
  114MOL0     H15352   4.866   8.412   1.266 -1.6976  2.3676 -1.3063
  114MOL0     H15353   4.709   8.257   1.333  0.2535 -1.5784 -1.2271
  114MOL0     H15354   4.648   8.029   1.171  0.3768 -0.8044  0.9267
  114MOL0     H15355   4.560   8.033   1.322 -1.5526 -0.1973 -0.7903
  114MOL0     H15356   4.350   7.959   1.196  0.0082 -0.8640  0.3151
  114MOL0     H15357   4.462   7.906   1.069 -1.9949  0.0898 -0.5483
  114MOL0     H15358   4.585   7.769   1.219 -1.2053 -1.7335 -0.3526
  114MOL0     H15359   4.492   7.816   1.365  0.6139 -0.1128  0.2779
  114MOL0     H15360   4.396   7.673   1.098 -0.5840  1.1355 -0.3045
  114MOL0     H15361   4.286   7.721   1.223 -2.6331 -6.3696  0.8880
  114MOL0     H15362   4.301   7.514   1.278 -2.4323  2.2234  1.1156
  114MOL0     H15363   4.424   7.603   1.385  2.7082 -1.5241  1.0570
  114MOL0     H15364   4.514   7.415   1.167 -4.2091  1.5436 -0.7748
  114MOL0     H15365   4.612   7.532   1.240  0.7135 -0.3832  1.2033
  114MOL0     H15366   4.537   7.419   1.480 -2.8807 -3.5478  0.9078
  114MOL0     H15367   4.649   7.330   1.366  0.4132 -0.4439  0.4076
  114MOL0     H15368   4.428   7.222   1.477  0.1032  2.3755  0.4223
  114MOL0     H15369   4.364   7.288   1.334  0.3873  1.0074 -1.0569
  114MOL0     H15370   4.510   8.287   0.949  0.2393  2.2696 -0.9153
  114MOL0     H15371   4.692   8.418   0.871 -1.9636  1.2935  1.0337
  114MOL0     H15372   5.267   8.654   1.118 -2.8740  1.9802 -0.1177
  114MOL0     H15373   5.463   8.683   0.972  0.0426  0.7913  0.8864
  114MOL0     H15374   7.099   8.653   0.264 -0.4108  1.1334 -0.5116
  114MOL0     H15375   7.324   8.759   0.293  3.2339  2.8962 -0.5429
  114MOL0     H15376   7.530   9.172   0.461  1.6417  1.0666  0.9248
  114MOL0     H15377   7.762   9.253   0.504 -2.1569 -1.1241  0.8334
  114MOL0     H15378   8.125   9.207   0.313  0.3131  0.3942  0.5440
  114MOL0     H15379   7.986   9.103   0.330  0.4712 -0.3972  1.7720
  114MOL0     H15380   7.949   9.186   0.560 -0.1536  1.1742  1.8246
  114MOL0     H15381   8.075   9.308   0.540  0.2569 -0.3073 -2.7365
  114MOL0     H15382   8.181   9.022   0.502  2.2193 -2.2646  3.0654
  114MOL0     H15383   8.111   9.068   0.657 -3.6621  1.3909 -0.6078
  114MOL0     H15384   8.266   9.291   0.640 -0.8840 -0.7768 -0.6485
  114MOL0     H15385   8.327   9.142   0.699  1.2863 -0.6202 -0.5633
  114MOL0     H15386   8.541   9.232   0.335  0.4749 -0.2494  0.5473
  114MOL0     H15387   7.834   9.262   0.090  0.1326  1.8235  0.1851
  114MOL0     H15388   7.688   9.187  -0.060  2.1288  2.1204  2.7734
  114MOL0     H15389   7.557   9.068  -0.016 -3.8820  1.5787 -1.7981
  114MOL0     H15390   7.535   9.252  -0.026 -0.3617 -0.8702 -1.2204
  115MOL0     O15391   4.066   1.863  11.455 -0.7007 -0.1283  0.8262
  115MOL0     C15392   4.019   1.895  11.564 -1.6608 -0.2834  1.1679
  115MOL0     O15393   3.983   2.026  11.596 -0.6131 -0.1400 -0.0075
  115MOL0     C15394   4.035   2.128  11.522 -0.3403  0.9843  0.0133
  115MOL0     C15395   4.136   2.199  11.584  0.1271  0.1659 -0.1340
  115MOL0     C15396   4.207   2.299  11.521 -0.1295  0.3632 -0.4972
  115MOL0     C15397   4.161   2.340  11.391 -0.8984 -0.6507  0.0935
  115MOL0     O15398   4.218   2.441  11.317 -0.6311  0.3938  0.2632
  115MOL0     C15399   4.297   2.545  11.386  0.4639 -0.1448 -0.4343
  115MOL0     C15400   4.270   2.681  11.311 -0.1820 -0.0730 -0.4772
  115MOL0     C15401   4.326   2.801  11.391  0.4774 -0.2275 -0.2248
  115MOL0     C15402   4.342   2.926  11.309  0.6010  0.8351  0.0130
  115MOL0     C15403   4.388   3.040  11.401 -1.3003 -0.0867 -0.7956
  115MOL0     C15404   4.432   3.161  11.322  0.6688 -0.1984 -0.0743
  115MOL0     C15405   4.494   3.273  11.415 -0.2810 -0.0749 -0.0537
  115MOL0     C15406   4.536   3.400  11.337  0.3724  0.5797  0.1450
  115MOL0     N15407   4.644   3.377  11.236 -0.5845 -0.0337  0.2950
  115MOL0     C15408   4.627   3.379  11.105  0.0361  0.1161 -1.1932
  115MOL0     C15409   4.745   3.367  11.042 -1.1164  0.0008 -0.1391
  115MOL0     C15410   4.779   3.387  10.891 -0.6138 -0.5837  0.0635
  115MOL0     C15411   4.849   3.257  10.838  0.6151  0.4226  0.1933
  115MOL0     C15412   4.752   3.144  10.822  0.3835 -0.0694 -0.0474
  115MOL0     C15413   4.807   3.004  10.792  0.1620 -1.0222  0.2808
  115MOL0     O15414   4.909   2.963  10.878 -0.1442 -1.1281  0.1411
  115MOL0     C15415   4.866   2.864  10.960  0.3442  0.7695  0.0666
  115MOL0     C15416   4.824   2.905  11.086 -0.8117 -0.4558 -0.1570
  115MOL0     C15417   4.764   2.817  11.171  0.1878  0.4148  1.3625
  115MOL0     C15418   4.737   2.682  11.133  0.1637 -0.2243 -0.1382
  115MOL0     C15419   4.672   2.590  11.228  0.2593 -0.5001  0.0231
  115MOL0     O15420   4.681   2.463  11.192  0.2382 -0.7442 -0.3898
  115MOL0     C15421   4.643   2.364  11.282  0.0923 -0.7778 -0.0425
  115MOL0     C15422   4.717   2.321  11.395 -0.3557 -0.0988 -0.1016
  115MOL0     C15423   4.677   2.218  11.471  0.1562  0.0824  0.1951
  115MOL0     C15424   4.562   2.148  11.436  0.7792 -0.6535 -0.6092
  115MOL0     O15425   4.548   2.027  11.492 -0.0265 -0.0114 -0.4917
  115MOL0     C15426   4.433   1.950  11.479 -0.6605  0.1200  0.5808
  115MOL0     C15427   4.421   1.883  11.614  0.4297 -0.1693  0.3476
  115MOL0     C15428   4.402   1.984  11.733 -0.0832  0.8138 -0.4292
  115MOL0     C15429   4.412   1.910  11.870 -0.2793 -0.6935  0.6954
  115MOL0     C15430   4.284   1.835  11.909 -0.2082  1.2633  0.0644
  115MOL0     C15431   4.299   1.729  12.023  0.2317  0.0543  0.3768
  115MOL0     C15432   4.372   1.789  12.138  0.1978  0.0204 -0.2728
  115MOL0     C15433   4.367   1.685  12.255 -0.6628  0.8622 -0.1655
  115MOL0    Cl15434   4.484   1.736  12.378  0.0208  0.5379 -0.4634
  115MOL0     C15435   4.482   2.194  11.330  0.2289 -0.6905  0.3105
  115MOL0     C15436   4.516   2.306  11.256 -0.3248 -0.8773  0.2244
  115MOL0     O15437   4.616   2.633  11.326 -0.2138  0.6335 -1.1450
  115MOL0     C15438   4.776   2.646  11.009  0.3305  0.3557 -0.2163
  115MOL0     C15439   4.850   2.735  10.926  0.6315 -0.2319  0.2548
  115MOL0     N15440   4.841   3.343  11.146 -0.9406 -0.5741  0.0989
  115MOL0     N15441   4.779   3.343  11.256 -0.2171  0.1803 -0.0404
  115MOL0     C15442   4.076   2.255  11.327 -0.9312 -0.8790 -0.5745
  115MOL0     C15443   4.006   2.152  11.389  0.9158  0.8476  0.3200
  115MOL0     C15444   3.993   1.791  11.667  0.1278  0.0865  0.3155
  115MOL0     C15445   3.972   1.831  11.801 -0.3837 -0.6633  0.1879
  115MOL0     C15446   3.927   1.740  11.896 -0.3434  0.8416 -0.0427
  115MOL0     C15447   3.948   1.605  11.869  0.5391  0.7117  0.7305
  115MOL0     O15448   3.937   1.518  11.978 -0.2327 -0.3350  0.4757
  115MOL0     C15449   3.968   1.377  11.966 -1.0840 -0.7424 -0.0481
  115MOL0     C15450   4.111   1.372  12.016 -0.4246 -0.0918  0.0423
  115MOL0     C15451   4.125   1.418  12.164 -0.4877 -0.5189 -0.8094
  115MOL0     C15452   4.096   1.307  12.265  0.3845 -0.6297 -0.4452
  115MOL0     C15453   4.085   1.370  12.400 -0.6104 -0.0443 -1.1783
  115MOL0     C15454   4.097   1.409  12.514 -0.8636  0.0505 -0.1269
  115MOL0     C15455   3.985   1.560  11.737 -0.7528  1.1931  0.2628
  115MOL0     C15456   3.995   1.651  11.638  0.7414 -1.1516  0.2121
  115MOL0     C15457   4.009   1.594  11.500 -0.7721  0.0349  0.8127
  115MOL0     H15458   4.156   2.170  11.687 -0.7072 -2.8652 -0.7551
  115MOL0     H15459   4.283   2.347  11.582 -2.7997  1.2078  2.4433
  115MOL0     H15460   4.255   2.547  11.487  1.5283 -1.8018  0.0798
  115MOL0     H15461   4.401   2.513  11.394  0.2413 -0.5700  0.9905
  115MOL0     H15462   4.162   2.695  11.307 -0.6341 -2.8206  0.3409
  115MOL0     H15463   4.302   2.692  11.206 -3.2711  0.7024 -1.4374
  115MOL0     H15464   4.414   2.768  11.448  0.7645 -1.6197 -1.4134
  115MOL0     H15465   4.257   2.829  11.472 -0.5772 -3.8864  0.3300
  115MOL0     H15466   4.413   2.905  11.228  0.2630 -0.0002 -0.0735
  115MOL0     H15467   4.247   2.950  11.259  0.6670  1.7845  0.3257
  115MOL0     H15468   4.302   3.072  11.461  1.6462  3.7878  1.8505
  115MOL0     H15469   4.469   3.005  11.465 -0.9757  0.8619 -0.6686
  115MOL0     H15470   4.508   3.127  11.251  0.9677 -0.9084  0.5795
  115MOL0     H15471   4.346   3.214  11.279  0.5842  2.5953  3.0736
  115MOL0     H15472   4.586   3.231  11.458 -0.3069 -2.7770 -2.3398
  115MOL0     H15473   4.424   3.304  11.493 -1.6951 -3.0684  0.0039
  115MOL0     H15474   4.454   3.445  11.280  0.8556  1.1051 -0.1341
  115MOL0     H15475   4.573   3.470  11.412  1.3591  0.7766 -0.5099
  115MOL0     H15476   4.528   3.400  11.064 -0.3411  0.5857 -0.0832
  115MOL0     H15477   4.695   3.406  10.824  0.1047  1.6332 -0.2831
  115MOL0     H15478   4.853   3.467  10.884 -2.5113  1.6653  2.9220
  115MOL0     H15479   4.885   3.284  10.739  0.5594  0.7117  0.2491
  115MOL0     H15480   4.939   3.224  10.890  2.3116 -1.0583 -3.3694
  115MOL0     H15481   4.679   3.178  10.748  1.6539  0.4597 -1.0960
  115MOL0     H15482   4.697   3.136  10.916  2.5480 -2.3543  1.1674
  115MOL0     H15483   4.854   3.014  10.694  0.7605 -0.8772  0.5751
  115MOL0     H15484   4.728   2.931  10.776  1.6867 -2.6262 -0.2631
  115MOL0     H15485   4.853   3.007  11.109 -0.3135  0.4432 -4.0670
  115MOL0     H15486   4.735   2.856  11.268 -2.3345 -0.8468  1.2019
  115MOL0     H15487   4.809   2.370  11.425  0.7537  0.5878 -4.1165
  115MOL0     H15488   4.739   2.175  11.548 -0.2959  0.7698  0.9594
  115MOL0     H15489   4.346   2.007  11.442 -1.5231 -1.9352 -0.7429
  115MOL0     H15490   4.449   1.873  11.403  1.5983 -0.5554  1.6773
  115MOL0     H15491   4.347   1.803  11.614  1.3545 -1.0698 -1.2994
  115MOL0     H15492   4.513   1.825  11.628  1.5409  1.3267 -0.4960
  115MOL0     H15493   4.475   2.066  11.735  0.6782  0.1560  2.0326
  115MOL0     H15494   4.311   2.044  11.727  0.4886  1.5699 -2.5975
  115MOL0     H15495   4.430   1.988  11.945  1.1963  0.3037 -0.6094
  115MOL0     H15496   4.506   1.855  11.869  0.9828  1.3067 -1.0279
  115MOL0     H15497   4.259   1.780  11.818 -1.1215 -1.6184  1.8961
  115MOL0     H15498   4.195   1.896  11.922 -0.2109  1.2098  0.3101
  115MOL0     H15499   4.203   1.686  12.052  0.4837 -1.1348 -0.4850
  115MOL0     H15500   4.355   1.646  11.979  2.0236  1.7332 -0.6693
  115MOL0     H15501   4.325   1.880  12.175 -0.7919 -1.2044  1.6287
  115MOL0     H15502   4.474   1.827  12.123  1.0421 -0.6575  3.0330
  115MOL0     H15503   4.272   1.687  12.311 -1.8214  3.2248 -2.0065
  115MOL0     H15504   4.387   1.586  12.215 -2.8577  1.1142 -2.1526
  115MOL0     H15505   4.387   2.148  11.304 -0.4282  1.3611 -1.2232
  115MOL0     H15506   4.457   2.349  11.176  1.8895  3.0532  0.4701
  115MOL0     H15507   4.766   2.542  10.979 -2.7388  0.7217 -0.8039
  115MOL0     H15508   4.886   2.705  10.828  0.7477 -0.1955  0.2851
  115MOL0     H15509   4.067   2.281  11.222  3.3954  0.7076 -0.7503
  115MOL0     H15510   3.926   2.099  11.339 -0.4692  0.3487  2.9047
  115MOL0     H15511   3.969   1.939  11.814  2.4646 -0.4368 -0.3303
  115MOL0     H15512   3.896   1.780  11.992 -0.2984  3.5558 -1.0473
  115MOL0     H15513   3.957   1.338  11.864 -0.5554 -1.3834  0.1332
  115MOL0     H15514   3.905   1.313  12.029  0.5775 -1.6706  0.7399
  115MOL0     H15515   4.172   1.439  11.954  0.4629 -0.7598  0.1772
  115MOL0     H15516   4.143   1.269  12.002 -2.7612 -0.6353 -2.1070
  115MOL0     H15517   4.064   1.504  12.195  1.1679  0.7906 -1.0788
  115MOL0     H15518   4.231   1.442  12.173 -0.6073 -0.7832  2.4389
  115MOL0     H15519   3.998   1.262  12.247 -0.0009  0.0957 -0.2125
  115MOL0     H15520   4.169   1.226  12.261  2.6898  1.3904 -1.7021
  115MOL0     H15521   4.120   1.440  12.614 -1.4092  0.9426 -0.2684
  115MOL0     H15522   4.007   1.458  11.708  1.1135  1.7685 -0.4745
  115MOL0     H15523   4.114   1.583  11.469 -0.2994  3.1102  1.0384
  115MOL0     H15524   3.963   1.495  11.492  1.0822 -0.9774  1.8207
  115MOL0     H15525   3.957   1.647  11.420  2.8197  0.3520 -1.5578
  116MOL0     O15526   1.718   8.740   7.569  0.1465  0.6392  0.0411
  116MOL0     C15527   1.711   8.615   7.595 -0.5943  0.3044 -0.4363
  116MOL0     O15528   1.785   8.516   7.529 -0.6184  0.4730  0.6807
  116MOL0     C15529   1.864   8.561   7.423 -0.0517 -0.0474  0.4775
  116MOL0     C15530   1.990   8.627   7.444  0.6723  0.4100 -0.1237
  116MOL0     C15531   2.076   8.659   7.337 -0.1236  0.5195  0.1837
  116MOL0     C15532   2.032   8.622   7.208 -0.2636 -0.0754 -0.0283
  116MOL0     O15533   2.111   8.640   7.094 -0.4490  0.1449 -0.3510
  116MOL0     C15534   2.044   8.695   6.981  0.0817  0.5740  0.2885
  116MOL0     C15535   2.144   8.729   6.874 -0.2369  0.1438  0.0045
  116MOL0     C15536   2.245   8.615   6.826 -0.1657 -0.6494 -0.6695
  116MOL0     C15537   2.346   8.669   6.725  0.5125  0.2006  0.1376
  116MOL0     C15538   2.437   8.557   6.671 -0.0928 -0.2512 -0.9710
  116MOL0     C15539   2.522   8.618   6.558  1.6575 -0.6315 -0.8374
  116MOL0     C15540   2.628   8.524   6.505  0.3467 -0.5434 -0.0447
  116MOL0     C15541   2.559   8.412   6.424  0.3735  0.7205  0.6597
  116MOL0     N15542   2.659   8.328   6.360 -0.4303 -0.0006  0.7406
  116MOL0     C15543   2.708   8.206   6.404  0.3622 -0.0407  0.4227
  116MOL0     C15544   2.750   8.128   6.303  0.0925 -0.5712  0.6433
  116MOL0     C15545   2.781   7.980   6.324  0.0231  0.3765  0.2378
  116MOL0     C15546   2.915   7.926   6.291  0.4113  0.9487 -0.8635
  116MOL0     C15547   2.949   7.955   6.143  0.4760 -0.0586 -0.1712
  116MOL0     C15548   3.049   7.851   6.088 -0.4443  0.0304  0.9161
  116MOL0     O15549   3.079   7.891   5.960 -0.0406  0.4414 -0.5689
  116MOL0     C15550   3.145   8.008   5.932 -0.9084  0.6326 -0.0607
  116MOL0     C15551   3.105   8.066   5.814 -0.1199  0.0941  0.5500
  116MOL0     C15552   3.155   8.185   5.778  0.2466 -0.2980  0.2864
  116MOL0     C15553   3.260   8.249   5.850 -0.6885  0.1306  0.0211
  116MOL0     C15554   3.308   8.381   5.815  0.7696  0.3137 -0.5475
  116MOL0     O15555   3.225   8.477   5.768  0.3088 -0.7269  0.8189
  116MOL0     C15556   3.260   8.602   5.716 -0.6216 -0.6683 -0.4949
  116MOL0     C15557   3.398   8.647   5.695  0.0275 -0.8397  0.3191
  116MOL0     C15558   3.433   8.781   5.664  0.6984 -0.8880 -0.4559
  116MOL0     C15559   3.336   8.878   5.648 -0.3904 -0.8160 -0.2285
  116MOL0     O15560   3.373   9.007   5.617 -0.8185  0.1554 -0.3702
  116MOL0     C15561   3.287   9.124   5.625 -0.8554  0.1371  0.5018
  116MOL0     C15562   3.359   9.258   5.606 -0.3899  0.1592  0.6567
  116MOL0     C15563   3.477   9.268   5.495  0.2778 -0.0862  0.0168
  116MOL0     C15564   3.464   9.383   5.407 -0.5656  0.2248  0.0091
  116MOL0     C15565   3.576   9.376   5.307  0.4207  0.1392 -0.2170
  116MOL0     C15566   3.558   9.470   5.182 -0.1555 -0.5109  0.5813
  116MOL0     C15567   3.684   9.462   5.091 -0.8961 -1.3092  0.7784
  116MOL0     C15568   3.679   9.574   4.984  0.1156 -0.1732 -0.9528
  116MOL0    Cl15569   3.700   9.732   5.072  0.0721  0.0436  0.2628
  116MOL0     C15570   3.202   8.841   5.656 -0.0516  0.2430  0.4096
  116MOL0     C15571   3.166   8.709   5.697  0.1194  0.1858 -0.4332
  116MOL0     O15572   3.430   8.390   5.839  0.8216 -0.2138  0.0785
  116MOL0     C15573   3.304   8.190   5.969  0.1594  0.3263  0.2488
  116MOL0     C15574   3.251   8.067   6.010  0.1156 -1.2339  1.1131
  116MOL0     N15575   2.741   8.209   6.190  0.2697  0.4424  0.4329
  116MOL0     N15576   2.690   8.325   6.221  0.3122 -0.3659 -0.0763
  116MOL0     C15577   1.914   8.552   7.199  1.1502 -0.0250  0.9289
  116MOL0     C15578   1.831   8.519   7.297  0.1373  0.4813  0.0620
  116MOL0     C15579   1.623   8.566   7.708 -1.2820  0.2785  0.8898
  116MOL0     C15580   1.674   8.462   7.782  0.1242  0.7176 -0.1494
  116MOL0     C15581   1.595   8.413   7.890  1.2627  0.0953  1.0219
  116MOL0     C15582   1.476   8.483   7.929  0.2337  0.2856  0.1622
  116MOL0     O15583   1.414   8.435   8.038  0.1356  0.0423  0.1211
  116MOL0     C15584   1.311   8.502   8.106 -0.6583 -0.7329 -0.7009
  116MOL0     C15585   1.359   8.641   8.166 -0.7583  0.1620  0.1280
  116MOL0     C15586   1.435   8.625   8.298 -0.3867  0.5727 -0.3369
  116MOL0     C15587   1.492   8.762   8.344 -0.0950 -0.1354  0.4867
  116MOL0     C15588   1.600   8.747   8.446 -0.7690 -1.0243  0.8768
  116MOL0     C15589   1.694   8.739   8.525  0.4250 -0.0096 -0.0420
  116MOL0     C15590   1.426   8.583   7.860 -0.7523  0.4985  0.5581
  116MOL0     C15591   1.501   8.622   7.745  0.9909  0.3657 -0.4201
  116MOL0     C15592   1.434   8.737   7.669 -1.4642  1.2521  0.0687
  116MOL0     H15593   2.036   8.646   7.541  2.1737  1.2692 -0.9767
  116MOL0     H15594   2.175   8.701   7.352  1.0134 -0.4356 -3.5620
  116MOL0     H15595   1.977   8.617   6.944  1.6857 -0.5772 -0.2893
  116MOL0     H15596   1.979   8.780   7.005 -1.7207  0.0307 -2.2863
  116MOL0     H15597   2.212   8.806   6.911  2.9111 -1.3148 -2.3391
  116MOL0     H15598   2.090   8.769   6.788 -0.3267  0.3704  0.1665
  116MOL0     H15599   2.197   8.527   6.783  0.3654  0.1360 -3.0300
  116MOL0     H15600   2.292   8.580   6.919 -0.7158 -0.5773 -0.3618
  116MOL0     H15601   2.288   8.706   6.640  2.1126 -0.6222 -1.3811
  116MOL0     H15602   2.398   8.754   6.770 -0.3002  0.8808 -0.1592
  116MOL0     H15603   2.497   8.529   6.758 -0.8259  3.3211  0.8797
  116MOL0     H15604   2.369   8.479   6.635 -1.4101 -0.0171  0.8950
  116MOL0     H15605   2.458   8.666   6.485 -1.4580 -1.0731  1.3917
  116MOL0     H15606   2.587   8.689   6.611  1.6760 -4.0478  4.5705
  116MOL0     H15607   2.691   8.483   6.585 -2.2540 -1.5807  1.6058
  116MOL0     H15608   2.685   8.579   6.430 -3.4567  0.0841 -2.7520
  116MOL0     H15609   2.508   8.347   6.496 -1.4840  1.3210 -0.0587
  116MOL0     H15610   2.488   8.446   6.348 -0.1866 -0.2993  0.7037
  116MOL0     H15611   2.696   8.162   6.503 -1.7646  1.8509  1.0697
  116MOL0     H15612   2.760   7.956   6.429 -0.1163 -1.8837 -0.2390
  116MOL0     H15613   2.704   7.922   6.274 -2.0047  1.0897  2.3610
  116MOL0     H15614   2.980   7.976   6.363  0.5775 -1.8114  1.0662
  116MOL0     H15615   2.938   7.822   6.314  1.0176  1.7823  2.9122
  116MOL0     H15616   2.983   8.058   6.152  0.7774 -0.1888  0.1896
  116MOL0     H15617   2.854   7.949   6.088 -1.4201  0.2041  2.8372
  116MOL0     H15618   3.030   7.743   6.083  2.4770 -0.6022 -4.4494
  116MOL0     H15619   3.136   7.853   6.154  0.5635 -3.1638 -0.1388
  116MOL0     H15620   3.036   8.027   5.741  1.1302 -1.0776 -0.0552
  116MOL0     H15621   3.125   8.218   5.679 -0.0505  1.2404  0.8651
  116MOL0     H15622   3.490   8.590   5.705  0.4617 -0.6923 -2.1770
  116MOL0     H15623   3.534   8.821   5.660  1.1559 -2.0166 -0.6652
  116MOL0     H15624   3.219   9.117   5.540  0.9513  1.8969 -1.2144
  116MOL0     H15625   3.220   9.120   5.711 -1.9158  1.2345 -0.2463
  116MOL0     H15626   3.279   9.320   5.566 -2.2415 -1.3815  1.8179
  116MOL0     H15627   3.396   9.285   5.705 -1.0211 -0.8903  1.1934
  116MOL0     H15628   3.569   9.295   5.548 -0.5009 -1.1848  2.0757
  116MOL0     H15629   3.493   9.178   5.435 -1.3165  0.3572 -1.1318
  116MOL0     H15630   3.466   9.472   5.471 -0.1840  0.1869  0.0541
  116MOL0     H15631   3.366   9.384   5.360 -1.2525 -0.8520  1.3595
  116MOL0     H15632   3.591   9.276   5.266 -1.0238 -0.2490  0.1331
  116MOL0     H15633   3.669   9.392   5.362 -0.2333  2.0365  0.4017
  116MOL0     H15634   3.467   9.438   5.130 -0.3600  0.1942  0.4939
  116MOL0     H15635   3.541   9.574   5.211 -0.4316 -0.0052 -1.2906
  116MOL0     H15636   3.700   9.362   5.052 -1.5915 -1.9092  1.9769
  116MOL0     H15637   3.766   9.495   5.156 -0.0314  0.8078 -1.2116
  116MOL0     H15638   3.759   9.567   4.910  0.0720  0.3817 -1.0573
  116MOL0     H15639   3.589   9.559   4.923 -0.6858 -1.8071  0.5293
  116MOL0     H15640   3.125   8.915   5.640  0.4259  0.4050 -1.3696
  116MOL0     H15641   3.063   8.710   5.732  0.1227  1.8424 -0.4089
  116MOL0     H15642   3.374   8.253   6.022  0.3904 -1.1110  1.7535
  116MOL0     H15643   3.284   8.024   6.104 -2.3453 -0.9993  2.1715
  116MOL0     H15644   1.878   8.509   7.107 -1.0444  0.2609  1.5983
  116MOL0     H15645   1.740   8.467   7.270 -0.9507  2.3002  0.0439
  116MOL0     H15646   1.766   8.414   7.749 -0.9000 -0.2018 -1.7721
  116MOL0     H15647   1.619   8.321   7.943  0.2591 -0.9539 -0.2719
  116MOL0     H15648   1.273   8.442   8.189 -1.3303  0.9112  0.2331
  116MOL0     H15649   1.222   8.512   8.043  1.2287  1.2297 -3.2973
  116MOL0     H15650   1.273   8.708   8.164 -0.1694  0.9212 -0.4605
  116MOL0     H15651   1.427   8.692   8.098 -0.9968  0.9450  0.4710
  116MOL0     H15652   1.509   8.547   8.274 -1.3740 -0.8357  0.9723
  116MOL0     H15653   1.376   8.577   8.376 -1.1351 -1.0019 -1.8093
  116MOL0     H15654   1.524   8.815   8.253 -1.0142 -2.0257 -1.0218
  116MOL0     H15655   1.413   8.827   8.383  1.0293  2.2111 -0.9097
  116MOL0     H15656   1.777   8.732   8.592 -0.1607  0.0652  0.7058
  116MOL0     H15657   1.330   8.628   7.882 -1.5318  0.9536 -3.1511
  116MOL0     H15658   1.464   8.729   7.564 -1.3330  1.7870  0.0626
  116MOL0     H15659   1.325   8.727   7.669 -1.4244 -0.8658 -3.3419
  116MOL0     H15660   1.467   8.836   7.704 -0.9542  0.4634  1.9590
  117MOL0     O15661   8.051   3.108   9.273 -0.1649 -0.6533 -0.2842
  117MOL0     C15662   8.005   3.051   9.369  0.7586  0.1797  0.2959
  117MOL0     O15663   7.955   2.922   9.370  0.4160  0.3062  0.1844
  117MOL0     C15664   7.947   2.839   9.257 -0.4621  0.3194 -0.1355
  117MOL0     C15665   7.912   2.705   9.288 -0.9870  0.8482  0.2280
  117MOL0     C15666   7.921   2.612   9.181 -0.9896  0.3066 -0.1964
  117MOL0     C15667   7.960   2.650   9.054 -0.5627  0.2581 -0.0541
  117MOL0     O15668   7.964   2.548   8.969 -0.2834  0.1304  1.2134
  117MOL0     C15669   8.084   2.478   8.964 -0.4684 -0.1170  0.2799
  117MOL0     C15670   8.085   2.378   8.858 -0.0355  0.2084 -0.6181
  117MOL0     C15671   8.085   2.434   8.708  0.0210  0.0214 -0.5409
  117MOL0     C15672   7.953   2.404   8.629 -0.3397 -0.3991 -0.3877
  117MOL0     C15673   7.971   2.438   8.474 -0.3913 -0.3509 -1.2875
  117MOL0     C15674   7.866   2.370   8.378 -0.0847 -0.2122  0.0416
  117MOL0     C15675   7.920   2.358   8.239 -0.4475 -0.1904  0.1971
  117MOL0     C15676   7.827   2.282   8.143  0.2633  0.2198 -0.7068
  117MOL0     N15677   7.798   2.147   8.187  0.4017 -0.4118  0.2893
  117MOL0     C15678   7.701   2.104   8.278 -0.3198 -0.8725  1.1491
  117MOL0     C15679   7.717   1.970   8.285  0.1531 -0.0375  0.0356
  117MOL0     C15680   7.640   1.886   8.384  0.0578 -0.5559  0.2816
  117MOL0     C15681   7.718   1.891   8.511 -0.2887  0.4507 -1.0895
  117MOL0     C15682   7.851   1.811   8.520 -0.2448 -0.7342  0.0164
  117MOL0     C15683   7.980   1.893   8.497 -0.1272  0.3298  0.8807
  117MOL0     O15684   7.997   1.987   8.603 -0.5947  0.6067 -0.3336
  117MOL0     C15685   8.128   2.026   8.627  0.5824  0.2521 -0.3441
  117MOL0     C15686   8.163   2.043   8.764 -1.6098  0.2000 -0.3292
  117MOL0     C15687   8.293   2.089   8.793  0.3828 -0.3819  0.3672
  117MOL0     C15688   8.394   2.115   8.689  1.2078  0.4452  0.6134
  117MOL0     C15689   8.525   2.173   8.728  0.0462 -0.2416 -0.2084
  117MOL0     O15690   8.597   2.248   8.633  0.1544  0.4978 -0.3256
  117MOL0     C15691   8.713   2.308   8.686  0.2115 -0.3411 -0.3655
  117MOL0     C15692   8.721   2.390   8.797 -0.5936  0.2790  0.1402
  117MOL0     C15693   8.848   2.425   8.845  0.0684 -0.1643  0.8057
  117MOL0     C15694   8.963   2.397   8.784 -0.0890  0.0628 -0.3077
  117MOL0     O15695   9.079   2.442   8.821 -0.4411 -0.4637 -0.0525
  117MOL0     C15696   9.098   2.578   8.866 -0.0776 -0.5724  0.7655
  117MOL0     C15697   9.245   2.604   8.822 -0.7485  0.6976  0.7333
  117MOL0     C15698   9.290   2.734   8.898 -0.2392 -0.4164 -0.1238
  117MOL0     C15699   9.255   2.858   8.822 -0.7094 -0.1532 -0.6965
  117MOL0     C15700   9.319   2.983   8.884  0.3437  0.3931  0.7578
  117MOL0     C15701   9.331   3.093   8.773 -0.0432  0.5105  0.9675
  117MOL0     C15702   9.201   3.183   8.769 -0.0806 -0.0236  0.1392
  117MOL0     C15703   9.222   3.316   8.701  0.8972 -0.7073 -0.2232
  117MOL0    Cl15704   9.057   3.409   8.716 -0.0498  0.4636 -0.5195
  117MOL0     C15705   8.962   2.310   8.668  0.1782  0.4885 -0.0720
  117MOL0     C15706   8.835   2.265   8.630  0.3766 -0.6343 -0.3093
  117MOL0     O15707   8.562   2.135   8.838 -0.0443 -0.4135 -0.5308
  117MOL0     C15708   8.360   2.083   8.559 -0.0258 -1.3152 -0.0807
  117MOL0     C15709   8.220   2.059   8.528 -0.4400 -0.3473  0.0477
  117MOL0     N15710   7.826   1.930   8.201  0.0161 -0.5792  0.3797
  117MOL0     N15711   7.864   2.039   8.135 -0.3632 -1.3064  0.0470
  117MOL0     C15712   7.977   2.779   9.025  0.0028  0.4418 -0.7086
  117MOL0     C15713   7.990   2.876   9.119  0.7832  0.2432  0.0148
  117MOL0     C15714   8.024   3.116   9.493 -0.4988 -0.0296 -0.2200
  117MOL0     C15715   7.965   3.242   9.516 -0.3006  0.7726 -0.5764
  117MOL0     C15716   7.947   3.293   9.644 -0.2279  0.1420  1.3027
  117MOL0     C15717   8.011   3.227   9.754  0.3134 -0.1546 -0.8295
  117MOL0     O15718   8.014   3.267   9.883 -0.1000 -0.3776  0.2087
  117MOL0     C15719   7.899   3.319   9.947  0.2646 -0.4415 -1.1115
  117MOL0     C15720   7.904   3.464   9.982  0.0349 -0.1819 -0.1322
  117MOL0     C15721   7.959   3.489  10.124  0.6038 -0.4807 -0.1980
  117MOL0     C15722   7.932   3.635  10.152 -0.0688  0.7389 -0.3352
  117MOL0     C15723   8.036   3.672  10.253 -0.0096  0.6087  0.3201
  117MOL0     C15724   8.121   3.710  10.332 -0.2301  0.7678 -0.4308
  117MOL0     C15725   8.090   3.116   9.723 -0.5842  0.8203  0.2784
  117MOL0     C15726   8.089   3.055   9.600  0.0435 -0.2415 -0.2280
  117MOL0     C15727   8.154   2.926   9.599  0.7806  0.5987  1.0537
  117MOL0     H15728   7.891   2.670   9.389  2.5214  0.0601  0.7980
  117MOL0     H15729   7.885   2.511   9.197 -2.2167  0.5957 -0.9835
  117MOL0     H15730   8.158   2.553   8.933 -2.8004  2.6094  0.9421
  117MOL0     H15731   8.108   2.427   9.058  0.0316  0.2465  0.3496
  117MOL0     H15732   7.998   2.313   8.872  2.4890 -3.1472  0.9542
  117MOL0     H15733   8.171   2.311   8.871  0.1749  0.7889  1.2460
  117MOL0     H15734   8.166   2.387   8.652 -1.1840  1.0864 -3.3426
  117MOL0     H15735   8.097   2.543   8.703  1.6345 -0.1423 -0.5874
  117MOL0     H15736   7.932   2.301   8.659 -2.2511  0.2418  0.5925
  117MOL0     H15737   7.861   2.447   8.669 -2.2058 -5.7015  1.9023
  117MOL0     H15738   7.971   2.547   8.462 -3.1206  0.1898  2.0365
  117MOL0     H15739   8.058   2.394   8.425  0.0929  0.0557 -0.8007
  117MOL0     H15740   7.840   2.271   8.415 -2.5167  0.5779  0.6492
  117MOL0     H15741   7.776   2.433   8.384  0.0324 -0.1251  1.0590
  117MOL0     H15742   8.008   2.293   8.248 -1.7058 -2.0260 -0.2342
  117MOL0     H15743   7.946   2.454   8.195  0.2809 -1.2223 -1.7276
  117MOL0     H15744   7.736   2.344   8.141 -0.1880 -0.2948  1.5747
  117MOL0     H15745   7.881   2.281   8.048 -1.8374  1.2600 -2.0063
  117MOL0     H15746   7.631   2.157   8.342  1.5936  3.6893 -0.1155
  117MOL0     H15747   7.539   1.923   8.405  0.6915  0.9069  0.9006
  117MOL0     H15748   7.637   1.783   8.349  1.0656 -0.8696  1.0874
  117MOL0     H15749   7.735   1.995   8.538 -0.8058  0.0929  0.7091
  117MOL0     H15750   7.651   1.856   8.590  1.0086 -0.4883 -0.3786
  117MOL0     H15751   7.842   1.728   8.449 -0.4792 -1.0306  0.3915
  117MOL0     H15752   7.855   1.773   8.622 -1.3867  3.2366  1.7587
  117MOL0     H15753   7.983   1.950   8.403  0.1515 -0.1322  0.6095
  117MOL0     H15754   8.056   1.817   8.480 -0.1447  0.2043  1.3531
  117MOL0     H15755   8.094   2.025   8.845 -1.2584 -1.9680 -0.4289
  117MOL0     H15756   8.324   2.099   8.897  1.4148 -1.5226  0.1957
  117MOL0     H15757   8.630   2.436   8.837 -0.4378 -0.5892  1.5390
  117MOL0     H15758   8.845   2.481   8.938  0.2066 -0.0435  0.7379
  117MOL0     H15759   9.023   2.644   8.823 -0.8455 -2.2588 -0.6206
  117MOL0     H15760   9.083   2.584   8.974 -2.1069  0.4122  0.4734
  117MOL0     H15761   9.322   2.529   8.844 -0.5764  0.8042  0.4999
  117MOL0     H15762   9.248   2.635   8.718 -2.8098 -1.6921 -0.1165
  117MOL0     H15763   9.231   2.746   8.989 -1.1562  0.5967 -0.8255
  117MOL0     H15764   9.399   2.735   8.910  0.0096  2.1936 -1.7096
  117MOL0     H15765   9.147   2.873   8.813 -1.0695 -0.8348  1.8368
  117MOL0     H15766   9.309   2.852   8.727  2.7322 -2.7182  1.1990
  117MOL0     H15767   9.417   2.960   8.927  0.5031  4.0301  2.7440
  117MOL0     H15768   9.257   3.009   8.970 -0.6857 -0.1332  0.1885
  117MOL0     H15769   9.425   3.145   8.797  1.9397 -1.5384 -1.7890
  117MOL0     H15770   9.345   3.063   8.669  0.4070  1.6015  0.7007
  117MOL0     H15771   9.162   3.216   8.866 -1.4128 -0.6353 -0.1777
  117MOL0     H15772   9.118   3.126   8.727 -0.8462 -0.9812  2.7187
  117MOL0     H15773   9.305   3.376   8.741  0.5515  0.8569 -1.7124
  117MOL0     H15774   9.238   3.302   8.594 -1.6691 -2.0103 -0.5101
  117MOL0     H15775   9.059   2.299   8.621  1.4190  0.2339  2.3720
  117MOL0     H15776   8.826   2.190   8.552 -1.6722 -0.8046  0.0361
  117MOL0     H15777   8.426   2.108   8.477 -0.2681  0.0350  0.1069
  117MOL0     H15778   8.189   2.060   8.424  0.1419 -0.7478 -0.1342
  117MOL0     H15779   8.000   2.787   8.919  0.8070 -1.1747 -0.6840
  117MOL0     H15780   8.017   2.977   9.090  2.5369  1.2479  4.3143
  117MOL0     H15781   7.911   3.289   9.434  0.3731  1.4351 -0.6559
  117MOL0     H15782   7.881   3.377   9.659 -0.3078  0.3884 -0.3029
  117MOL0     H15783   7.882   3.269  10.042  1.1344  1.6427  0.2073
  117MOL0     H15784   7.814   3.308   9.879 -0.5096  1.8618 -0.6239
  117MOL0     H15785   7.802   3.503   9.979 -0.2118 -0.7415  0.6523
  117MOL0     H15786   7.968   3.515   9.909  0.2981  1.4889  1.2017
  117MOL0     H15787   8.066   3.468  10.128  0.8750  0.3583 -2.0882
  117MOL0     H15788   7.914   3.426  10.202  2.1611  1.0216  2.0450
  117MOL0     H15789   7.938   3.700  10.065 -2.2092 -1.3566 -2.2072
  117MOL0     H15790   7.831   3.649  10.192  0.6233  0.6547  1.5092
  117MOL0     H15791   8.188   3.750  10.406  0.4893  0.0322 -0.6770
  117MOL0     H15792   8.164   3.077   9.792 -0.5788 -0.6085 -0.4699
  117MOL0     H15793   8.215   2.905   9.687  0.9091  1.7406  1.2452
  117MOL0     H15794   8.078   2.848   9.588 -1.5418  2.5783  2.2845
  117MOL0     H15795   8.229   2.923   9.518 -0.3127 -3.1599 -0.0540
  118MOL0     O15796   3.883  11.272   0.948 -0.1958  0.4885 -0.4550
  118MOL0     C15797   3.828  11.380   0.938 -0.3719  0.0515 -0.7576
  118MOL0     O15798   3.856  11.466   0.841 -0.3256  0.8640 -0.8838
  118MOL0     C15799   3.900  11.417   0.724 -0.0553  0.3062  0.9950
  118MOL0     C15800   4.007  11.499   0.666 -0.0256  0.7154  0.3035
  118MOL0     C15801   4.044  11.479   0.530 -0.4499  0.9127 -0.1871
  118MOL0     C15802   3.962  11.396   0.450  0.0865  0.9663  0.1091
  118MOL0     O15803   3.964  11.382   0.310  0.2119  0.0965 -0.2714
  118MOL0     C15804   3.972  11.496   0.231 -0.2408 -0.5766 -0.3108
  118MOL0     C15805   3.830  11.557   0.249 -0.7068 -0.1351 -0.5932
  118MOL0     C15806   3.818  11.697   0.184  0.9890  0.8714  0.0241
  118MOL0     C15807   3.674  11.743   0.204  0.6373  0.7586  0.0826
  118MOL0     C15808   3.639  11.865   0.120  0.3238 -0.6514  0.0460
  118MOL0     C15809   3.501  11.925   0.166  0.3912 -0.1734 -0.2990
  118MOL0     C15810   3.446  12.038   0.070 -0.2406  0.0258 -0.5168
  118MOL0     C15811   3.523  12.177   0.065 -0.0237  1.0248  0.2945
  118MOL0     N15812   3.551  12.227   0.198 -0.2559  0.1687  0.3921
  118MOL0     C15813   3.468  12.234   0.307  0.1946 -0.1013 -0.1061
  118MOL0     C15814   3.531  12.310   0.397 -0.0491 -0.3689 -0.3947
  118MOL0     C15815   3.481  12.365   0.530 -0.9683 -0.1709  1.1353
  118MOL0     C15816   3.416  12.501   0.493  0.4274 -0.4300 -0.5038
  118MOL0     C15817   3.389  12.562   0.621  0.0928  0.2647  0.1831
  118MOL0     C15818   3.360  12.715   0.635 -0.5724 -0.5791  0.6129
  118MOL0     O15819   3.485  12.790   0.625 -1.0663  0.7587  0.3835
  118MOL0     C15820   3.484  12.929   0.597 -0.6696  0.3514  1.0105
  118MOL0     C15821   3.603  12.992   0.613 -0.7847 -1.5498  0.3189
  118MOL0     C15822   3.608  13.128   0.584  0.6368  0.2482  0.8757
  118MOL0     C15823   3.502  13.195   0.520  0.0125 -0.1393  0.2498
  118MOL0     C15824   3.526  13.332   0.476  0.9534 -0.0437 -0.0692
  118MOL0     O15825   3.643  13.402   0.514  0.1306  0.3736  0.0852
  118MOL0     C15826   3.664  13.523   0.448 -0.6461  0.3009  0.4766
  118MOL0     C15827   3.702  13.634   0.526 -0.9515  0.0627  0.1779
  118MOL0     C15828   3.735  13.757   0.461 -0.4166  0.5618 -0.6209
  118MOL0     C15829   3.725  13.775   0.322 -0.0650 -0.0380 -0.2053
  118MOL0     O15830   3.767  13.885   0.255 -0.3625 -0.5573 -0.0802
  118MOL0     C15831   3.899  13.887   0.200 -0.3912  0.2228 -0.3672
  118MOL0     C15832   3.964  14.029   0.165 -0.6315  0.5970 -0.2684
  118MOL0     C15833   3.899  14.125   0.069  1.0386  0.2994 -0.2550
  118MOL0     C15834   3.926  14.273   0.088 -0.0493  0.4689 -0.0975
  118MOL0     C15835   3.904  14.358  -0.032 -0.2728 -0.3189  0.0248
  118MOL0     C15836   3.981  14.487  -0.028  0.0011  0.0134  0.0084
  118MOL0     C15837   3.954  14.559  -0.161 -0.1296  0.4708 -0.5899
  118MOL0     C15838   4.034  14.683  -0.178  0.1763 -0.1525  0.1659
  118MOL0    Cl15839   3.972  14.777  -0.318  0.4510  0.3817 -0.8225
  118MOL0     C15840   3.686  13.671   0.244  0.6117  0.8944  0.7764
  118MOL0     C15841   3.672  13.541   0.302 -0.1547 -0.1965 -1.0890
  118MOL0     O15842   3.433  13.391   0.422  0.3994  0.1094  0.0061
  118MOL0     C15843   3.389  13.122   0.491 -0.5544  0.0974  0.4705
  118MOL0     C15844   3.377  12.990   0.533 -0.0706  0.1583  0.2180
  118MOL0     N15845   3.660  12.326   0.351  0.4451  0.1533  0.5454
  118MOL0     N15846   3.673  12.275   0.236 -0.3198 -1.4739  0.5766
  118MOL0     C15847   3.877  11.310   0.511  0.7288  0.2408 -0.3381
  118MOL0     C15848   3.839  11.322   0.643  0.6761 -1.2720 -0.0542
  118MOL0     C15849   3.751  11.423   1.048  0.1869 -0.4687  0.1951
  118MOL0     C15850   3.804  11.543   1.106  0.0918  0.0877 -0.7488
  118MOL0     C15851   3.738  11.589   1.218 -0.3494  0.2132 -0.3391
  118MOL0     C15852   3.636  11.530   1.285  0.4402 -0.0932  0.0745
  118MOL0     O15853   3.559  11.586   1.383  0.4306 -0.0125  0.2577
  118MOL0     C15854   3.619  11.698   1.447  0.8783 -0.2047 -0.7180
  118MOL0     C15855   3.542  11.738   1.582  0.9959  0.1608  0.1039
  118MOL0     C15856   3.449  11.864   1.555  0.5427  0.2278 -0.2050
  118MOL0     C15857   3.382  11.899   1.684  1.1083  0.1796 -1.0060
  118MOL0     C15858   3.438  12.015   1.755 -0.9497  0.3717  1.3228
  118MOL0     C15859   3.494  12.107   1.810  0.6920  0.4451  0.8272
  118MOL0     C15860   3.587  11.412   1.229  0.3083  0.3424 -0.5129
  118MOL0     C15861   3.645  11.357   1.108 -0.0596  0.2142 -1.0311
  118MOL0     C15862   3.579  11.240   1.040  0.1125 -0.1825 -0.8811
  118MOL0     H15863   4.050  11.574   0.732  0.5327 -0.5116  1.3726
  118MOL0     H15864   4.131  11.540   0.508 -1.1939  2.0381 -0.0748
  118MOL0     H15865   4.049  11.562   0.273  0.2059 -0.8196 -0.7382
  118MOL0     H15866   3.972  11.474   0.124 -1.1388  2.1352 -0.9671
  118MOL0     H15867   3.801  11.571   0.354  0.6613 -2.2486  0.1310
  118MOL0     H15868   3.752  11.494   0.205 -3.8748  1.7814  1.7383
  118MOL0     H15869   3.833  11.680   0.077 -0.7345  0.4212 -0.1726
  118MOL0     H15870   3.897  11.763   0.222  0.8489 -1.3373  4.9597
  118MOL0     H15871   3.602  11.668   0.171 -0.4617  1.7269  0.2350
  118MOL0     H15872   3.650  11.762   0.309 -1.4030 -1.5602  0.1091
  118MOL0     H15873   3.722  11.936   0.132  1.8637 -2.2301 -0.7400
  118MOL0     H15874   3.635  11.826   0.018 -0.7477 -0.8360  0.1533
  118MOL0     H15875   3.429  11.843   0.167  0.3245 -0.1646 -1.6667
  118MOL0     H15876   3.520  11.964   0.266  1.5820  2.9326 -1.5938
  118MOL0     H15877   3.341  12.055   0.095 -1.4639 -1.3756 -4.1876
  118MOL0     H15878   3.468  12.001  -0.030  1.9468  1.0654 -0.4866
  118MOL0     H15879   3.616  12.173   0.007 -0.2280  1.6672 -0.0830
  118MOL0     H15880   3.456  12.249   0.018 -0.9587  0.2276  0.3567
  118MOL0     H15881   3.366  12.198   0.313 -0.0244  0.1955 -1.5306
  118MOL0     H15882   3.421  12.285   0.574 -1.4378 -1.4882 -1.7072
  118MOL0     H15883   3.569  12.392   0.590  0.8765 -1.0609 -1.0130
  118MOL0     H15884   3.489  12.562   0.441 -0.9374 -0.2110 -2.2516
  118MOL0     H15885   3.328  12.498   0.428  1.5645 -2.4943 -2.0450
  118MOL0     H15886   3.484  12.544   0.674  0.7021  1.5207 -0.4310
  118MOL0     H15887   3.299  12.516   0.662 -0.1787 -1.2196 -1.9237
  118MOL0     H15888   3.307  12.748   0.725  1.6772  3.5636  0.6362
  118MOL0     H15889   3.293  12.736   0.551  0.0658 -0.8801  0.0210
  118MOL0     H15890   3.686  12.938   0.657 -1.7079 -0.1662  4.1803
  118MOL0     H15891   3.701  13.181   0.605  1.0181 -0.2526  0.4738
  118MOL0     H15892   3.723  13.620   0.631 -1.0612  0.9520  0.3238
  118MOL0     H15893   3.763  13.844   0.519  2.8833 -0.5010 -0.4077
  118MOL0     H15894   3.970  13.845   0.272  0.2856 -0.5965 -1.4829
  118MOL0     H15895   3.897  13.821   0.112  1.7874 -0.7875  0.2453
  118MOL0     H15896   3.996  14.087   0.251 -3.0510  1.4052  0.1621
  118MOL0     H15897   4.060  13.999   0.121 -1.5042  2.4433 -3.8960
  118MOL0     H15898   3.908  14.101  -0.038 -3.0633  5.5306 -2.2693
  118MOL0     H15899   3.791  14.116   0.080  0.6534  0.3840 -3.0987
  118MOL0     H15900   4.034  14.283   0.092  0.6756 -4.1843 -2.0344
  118MOL0     H15901   3.879  14.316   0.177 -0.3728  0.1964 -0.1320
  118MOL0     H15902   3.797  14.379  -0.043 -0.4222 -1.7150 -1.5257
  118MOL0     H15903   3.923  14.303  -0.124 -1.5382 -0.8281  0.0445
  118MOL0     H15904   3.947  14.555   0.051  1.7878  0.3895  0.5135
  118MOL0     H15905   4.088  14.474  -0.008  0.4862  4.8314  1.7255
  118MOL0     H15906   3.851  14.595  -0.150 -1.1758 -2.7100  0.9312
  118MOL0     H15907   3.955  14.490  -0.246  0.9697 -2.7581  1.8729
  118MOL0     H15908   4.025  14.745  -0.088 -2.0662 -1.5353  0.9903
  118MOL0     H15909   4.139  14.659  -0.198 -0.2570 -0.6240 -1.7284
  118MOL0     H15910   3.682  13.688   0.137  1.6360  1.3761  0.7999
  118MOL0     H15911   3.637  13.450   0.254 -0.4958 -1.8136  1.9599
  118MOL0     H15912   3.305  13.169   0.442 -0.5881 -0.2161  0.2267
  118MOL0     H15913   3.284  12.940   0.507 -1.0178  2.4693 -1.1217
  118MOL0     H15914   3.814  11.251   0.445 -1.4693  0.3566  1.4972
  118MOL0     H15915   3.751  11.269   0.680  1.4844  0.3719  4.9859
  118MOL0     H15916   3.890  11.598   1.069 -0.3471  0.2842 -1.4880
  118MOL0     H15917   3.786  11.680   1.254  0.5432 -0.8303  1.2581
  118MOL0     H15918   3.625  11.781   1.376 -0.9324 -1.6206 -2.6432
  118MOL0     H15919   3.721  11.686   1.484  0.0229 -2.4682  1.1383
  118MOL0     H15920   3.624  11.754   1.652  2.5014 -3.0524 -0.7575
  118MOL0     H15921   3.472  11.659   1.610  1.9339 -0.3838  1.0104
  118MOL0     H15922   3.371  11.837   1.484 -1.7696  1.0263  1.8750
  118MOL0     H15923   3.504  11.952   1.519 -0.2330  0.5353 -0.6719
  118MOL0     H15924   3.275  11.910   1.666  0.7321 -1.7412 -0.1493
  118MOL0     H15925   3.386  11.814   1.752 -0.1595 -0.3664 -1.5782
  118MOL0     H15926   3.531  12.186   1.872 -0.1107  2.4342 -1.0969
  118MOL0     H15927   3.509  11.359   1.284 -1.7888  0.4247 -3.1811
  118MOL0     H15928   3.476  11.242   1.078  1.4919 -0.4595  3.5068
  118MOL0     H15929   3.562  11.248   0.933  1.5587 -2.7438 -1.4038
  118MOL0     H15930   3.634  11.145   1.048  0.6921  0.1078 -1.3824
  119MOL0     O15931   0.531   0.843   3.632 -0.2460  0.1969 -0.5620
  119MOL0     C15932   0.648   0.803   3.601  0.5398 -0.5836 -0.6724
  119MOL0     O15933   0.756   0.880   3.613  0.4820 -0.9507 -0.6660
  119MOL0     C15934   0.780   0.969   3.718 -0.3399 -0.3819  0.8468
  119MOL0     C15935   0.902   1.049   3.716  0.2675  0.2318  0.3416
  119MOL0     C15936   0.926   1.140   3.820 -0.1915  0.1164 -0.5948
  119MOL0     C15937   0.842   1.168   3.921  1.1112 -0.1073  0.1831
  119MOL0     O15938   0.865   1.252   4.028  0.2910  0.6210  0.2291
  119MOL0     C15939   0.962   1.353   4.013 -0.7227  0.1700  0.1244
  119MOL0     C15940   1.005   1.427   4.139  0.2180 -0.8974 -0.2427
  119MOL0     C15941   0.967   1.366   4.275  0.2862  0.2939 -0.7940
  119MOL0     C15942   1.057   1.402   4.394  0.1344 -0.9006 -0.8187
  119MOL0     C15943   0.982   1.400   4.524  0.0460  0.3992 -0.8110
  119MOL0     C15944   1.070   1.438   4.653  0.6386 -0.6024  0.3385
  119MOL0     C15945   1.135   1.578   4.639  0.1298 -0.3304  0.2833
  119MOL0     C15946   1.215   1.639   4.757  1.1842 -0.4214  0.1210
  119MOL0     N15947   1.342   1.576   4.790 -0.4087  0.1855  0.9208
  119MOL0     C15948   1.460   1.553   4.718 -0.7201  0.4210 -0.3940
  119MOL0     C15949   1.545   1.489   4.799 -0.6727  0.3628  0.1187
  119MOL0     C15950   1.693   1.451   4.773  0.2105  0.1936  0.7360
  119MOL0     C15951   1.734   1.481   4.629  0.1196  0.0288  0.0594
  119MOL0     C15952   1.888   1.459   4.602 -0.3108 -0.5220  0.1733
  119MOL0     C15953   1.975   1.563   4.677  0.2908  0.4977  1.1880
  119MOL0     O15954   2.111   1.552   4.642 -0.6850  0.1312  0.0748
  119MOL0     C15955   2.200   1.565   4.746 -0.4571  0.6048  0.1284
  119MOL0     C15956   2.225   1.683   4.812  0.0757  0.6264  0.7219
  119MOL0     C15957   2.329   1.693   4.901  0.4063  0.8095  1.1022
  119MOL0     C15958   2.411   1.588   4.933 -0.5941 -0.6887  0.2759
  119MOL0     C15959   2.514   1.598   5.036  0.3035 -0.6468  0.0868
  119MOL0     O15960   2.512   1.708   5.111 -0.0977 -0.4351  0.2937
  119MOL0     C15961   2.613   1.748   5.192 -1.4363  0.2530  0.1229
  119MOL0     C15962   2.621   1.703   5.327  0.2726  0.5580  0.6941
  119MOL0     C15963   2.712   1.760   5.419 -1.2052 -0.2781  0.4575
  119MOL0     C15964   2.806   1.855   5.377  0.8620  0.1644  0.2733
  119MOL0     O15965   2.895   1.892   5.472 -0.3724 -0.0560  0.7579
  119MOL0     C15966   3.007   1.979   5.436  0.7011 -0.1228  0.1680
  119MOL0     C15967   3.121   1.917   5.361 -0.7552  0.1329 -0.2000
  119MOL0     C15968   3.201   1.808   5.437  0.7682 -0.4958  0.6104
  119MOL0     C15969   3.197   1.681   5.351 -0.3075  1.1149  0.4367
  119MOL0     C15970   3.049   1.617   5.348 -0.3107 -0.6470  0.3044
  119MOL0     C15971   3.064   1.474   5.293  0.0914  0.3630 -0.2858
  119MOL0     C15972   2.947   1.386   5.296 -0.3571 -0.9004  0.6305
  119MOL0     C15973   2.855   1.421   5.177 -0.5724  0.1994 -0.2265
  119MOL0    Cl15974   2.938   1.375   5.023 -0.3855  0.0710  0.1651
  119MOL0     C15975   2.804   1.899   5.242 -0.4245 -0.2585 -0.4768
  119MOL0     C15976   2.705   1.851   5.151 -0.2365  0.1412  0.0571
  119MOL0     O15977   2.588   1.502   5.054  1.2040 -0.3955 -0.7003
  119MOL0     C15978   2.376   1.468   4.871  1.3297  0.0623 -0.3244
  119MOL0     C15979   2.274   1.453   4.780  0.2801 -0.6725  0.5939
  119MOL0     N15980   1.479   1.478   4.923 -0.6774 -0.0156 -0.9331
  119MOL0     N15981   1.359   1.522   4.912 -0.1064  0.4663  0.0364
  119MOL0     C15982   0.726   1.088   3.928 -0.1914 -1.4972  0.1357
  119MOL0     C15983   0.698   0.998   3.820  0.2423 -0.4363 -1.3922
  119MOL0     C15984   0.654   0.700   3.494  0.4206  0.7036  0.1968
  119MOL0     C15985   0.554   0.711   3.392 -0.2456 -0.3850  0.0046
  119MOL0     C15986   0.542   0.615   3.290 -0.0793 -0.4052 -0.4623
  119MOL0     C15987   0.643   0.511   3.280 -1.2330 -0.3067 -0.0335
  119MOL0     O15988   0.624   0.425   3.174  0.2330  0.4706  0.4559
  119MOL0     C15989   0.660   0.291   3.176  0.1506  0.3245  0.0320
  119MOL0     C15990   0.565   0.217   3.077 -0.4087  0.8006  0.2751
  119MOL0     C15991   0.426   0.203   3.138 -0.6276  1.2479  0.9593
  119MOL0     C15992   0.350   0.130   3.030 -0.2492  0.9713 -0.9185
  119MOL0     C15993   0.214   0.103   3.078  0.5531  0.3527 -0.0421
  119MOL0     C15994   0.103   0.063   3.104  0.0113  0.2322  0.3599
  119MOL0     C15995   0.751   0.513   3.376 -0.1932 -0.2263  0.2000
  119MOL0     C15996   0.756   0.601   3.482 -0.6870  0.3613  0.1503
  119MOL0     C15997   0.873   0.606   3.581 -0.6314  0.1402 -0.8192
  119MOL0     H15998   0.964   1.043   3.627 -2.2600 -1.0896 -1.4893
  119MOL0     H15999   1.014   1.196   3.789  0.3714 -0.0659  0.6151
  119MOL0     H16000   1.052   1.300   3.983 -1.4821  0.2674 -2.5938
  119MOL0     H16001   0.928   1.423   3.936 -0.0941 -0.0867 -0.3846
  119MOL0     H16002   0.956   1.525   4.138 -1.9798 -1.9324 -0.1649
  119MOL0     H16003   1.112   1.448   4.141 -0.2081  1.8105  2.4611
  119MOL0     H16004   0.975   1.257   4.267  0.8273  0.3271 -0.7279
  119MOL0     H16005   0.863   1.385   4.303  0.2202  0.2605 -1.0130
  119MOL0     H16006   1.138   1.329   4.400 -1.2691 -2.4514 -0.0232
  119MOL0     H16007   1.088   1.507   4.384 -2.8565  0.3128  1.3694
  119MOL0     H16008   0.894   1.465   4.516 -0.0504  0.0896 -3.3534
  119MOL0     H16009   0.941   1.300   4.541  1.1965  0.4964  3.7095
  119MOL0     H16010   1.008   1.444   4.743 -1.6399 -0.2323 -1.1963
  119MOL0     H16011   1.151   1.366   4.673  3.5732  2.9445  2.5118
  119MOL0     H16012   1.049   1.641   4.613 -2.5498 -3.7897  0.0029
  119MOL0     H16013   1.196   1.593   4.549 -1.8872  2.5569 -0.7718
  119MOL0     H16014   1.222   1.743   4.723 -2.4033  0.5026  1.7505
  119MOL0     H16015   1.150   1.635   4.845 -0.1403 -2.9927 -0.8718
  119MOL0     H16016   1.468   1.600   4.620 -1.8167  0.8462 -0.2952
  119MOL0     H16017   1.746   1.524   4.833  0.4289 -0.9889  2.0359
  119MOL0     H16018   1.712   1.347   4.800 -1.4521 -0.3799 -0.1263
  119MOL0     H16019   1.673   1.417   4.563  0.6286 -2.7469  2.1175
  119MOL0     H16020   1.709   1.586   4.607  1.7718  0.9478  2.2495
  119MOL0     H16021   1.917   1.468   4.497  2.8360  2.0118  1.1271
  119MOL0     H16022   1.922   1.357   4.623  1.3916  0.3398  1.8180
  119MOL0     H16023   1.972   1.550   4.786  3.7912 -1.6512  1.1787
  119MOL0     H16024   1.935   1.662   4.655  0.6212  0.0687 -1.7396
  119MOL0     H16025   2.177   1.772   4.774  4.3472  2.5691 -0.7163
  119MOL0     H16026   2.347   1.788   4.950  3.2234  0.8428  0.1729
  119MOL0     H16027   2.556   1.618   5.346  2.7699 -2.1942 -2.1140
  119MOL0     H16028   2.716   1.736   5.525  0.4973  0.5189  0.6094
  119MOL0     H16029   2.968   2.069   5.387  2.1651  0.9881  0.9837
  119MOL0     H16030   3.062   2.015   5.523 -0.5858 -2.5731  2.1157
  119MOL0     H16031   3.076   1.878   5.269 -1.8987  1.8114 -0.4058
  119MOL0     H16032   3.181   2.006   5.341 -2.1339  1.7674  2.4381
  119MOL0     H16033   3.303   1.843   5.456  0.7842 -1.7206  3.2078
  119MOL0     H16034   3.167   1.790   5.539 -1.1783  1.9836  0.5002
  119MOL0     H16035   3.271   1.612   5.393 -0.8391  0.4803  0.3607
  119MOL0     H16036   3.227   1.698   5.247 -3.3234 -0.1903 -0.7686
  119MOL0     H16037   2.985   1.680   5.285  1.9597  1.5213  0.0011
  119MOL0     H16038   3.012   1.631   5.450  1.5102 -0.1028  0.9128
  119MOL0     H16039   3.107   1.478   5.192 -0.0663 -1.8293 -0.5029
  119MOL0     H16040   3.134   1.422   5.359  0.5702 -0.3430 -1.3111
  119MOL0     H16041   2.897   1.391   5.393 -0.7285  3.9091  0.4217
  119MOL0     H16042   2.979   1.282   5.279  2.9310  0.6014 -5.5358
  119MOL0     H16043   2.765   1.359   5.181  0.9198 -2.4701 -2.8580
  119MOL0     H16044   2.841   1.529   5.178  4.7415  1.1946  1.9367
  119MOL0     H16045   2.870   1.978   5.209  0.5980 -1.7362 -2.1663
  119MOL0     H16046   2.681   1.889   5.053  1.4444 -3.1574 -1.7937
  119MOL0     H16047   2.436   1.380   4.893  4.7725  2.5330  1.0776
  119MOL0     H16048   2.254   1.365   4.720 -1.9407  0.3125 -0.2105
  119MOL0     H16049   0.665   1.107   4.015  0.6154  3.8692 -0.1619
  119MOL0     H16050   0.616   0.936   3.854  1.3544  0.0463  2.7301
  119MOL0     H16051   0.486   0.795   3.402  1.3855  0.7936  1.9004
  119MOL0     H16052   0.466   0.627   3.213 -0.5689  0.2515  0.1110
  119MOL0     H16053   0.653   0.252   3.278  1.3900  2.3013  0.9204
  119MOL0     H16054   0.766   0.290   3.151  0.0702  1.7797 -0.4630
  119MOL0     H16055   0.605   0.115   3.070  2.3686  1.8384 -0.1988
  119MOL0     H16056   0.559   0.270   2.982 -1.4131  2.1255  1.0365
  119MOL0     H16057   0.387   0.305   3.147  1.4564  2.0592  1.4787
  119MOL0     H16058   0.437   0.150   3.233 -1.0096  0.1095  0.3831
  119MOL0     H16059   0.337   0.178   2.933 -2.8442  0.6986 -0.7717
  119MOL0     H16060   0.413   0.043   3.010  2.9384  2.9875 -0.3836
  119MOL0     H16061   0.005   0.021   3.116 -0.8244  1.8744 -0.4055
  119MOL0     H16062   0.822   0.435   3.351 -1.0577 -1.1995  0.7196
  119MOL0     H16063   0.852   0.621   3.688  2.3241 -2.3025  0.2502
  119MOL0     H16064   0.926   0.510   3.575  1.0742  0.9172  0.7662
  119MOL0     H16065   0.938   0.689   3.550  1.2921 -1.4522 -1.2262
  120MOL0     O16066   7.571   9.271   9.370  0.3246 -0.7003 -0.0210
  120MOL0     C16067   7.509   9.186   9.423 -0.0052 -0.2762 -1.3920
  120MOL0     O16068   7.560   9.092   9.507  1.0326 -1.0994 -0.1834
  120MOL0     C16069   7.688   9.053   9.515 -0.6823 -0.1486  0.1574
  120MOL0     C16070   7.722   8.962   9.622 -0.0551 -0.5951 -0.3347
  120MOL0     C16071   7.855   8.917   9.633 -0.3266  0.6273  0.5774
  120MOL0     C16072   7.961   8.963   9.555  0.4468  0.2390  1.1548
  120MOL0     O16073   8.089   8.927   9.589 -0.1923  0.1292 -0.6380
  120MOL0     C16074   8.108   8.788   9.630  0.4957  0.5774  0.1380
  120MOL0     C16075   8.248   8.756   9.613  0.5576  0.3590 -0.2026
  120MOL0     C16076   8.334   8.853   9.700  1.2035 -0.1853  0.0084
  120MOL0     C16077   8.419   8.795   9.802  0.1923  0.6464  0.2206
  120MOL0     C16078   8.514   8.884   9.890 -0.3281 -1.7093 -0.3264
  120MOL0     C16079   8.659   8.882   9.815  0.4160 -0.6940 -0.9072
  120MOL0     C16080   8.756   8.988   9.866  0.2555  0.4218  0.0661
  120MOL0     C16081   8.872   9.001   9.769  0.4893 -0.2555 -0.4925
  120MOL0     N16082   9.000   9.040   9.828 -0.0912 -0.1558  1.0895
  120MOL0     C16083   9.028   9.167   9.871 -0.5068  0.0590 -0.0405
  120MOL0     C16084   9.154   9.152   9.918 -0.6882  0.6924  0.5248
  120MOL0     C16085   9.232   9.258   9.973  0.1429 -1.3471 -0.3673
  120MOL0     C16086   9.206   9.260  10.126 -0.7076  0.3934 -1.1949
  120MOL0     C16087   9.283   9.357  10.214 -0.4769  1.1395 -1.0142
  120MOL0     C16088   9.246   9.336  10.353  0.7727 -0.8665  0.1160
  120MOL0     O16089   9.315   9.430  10.435  0.0135 -0.2931 -0.0116
  120MOL0     C16090   9.261   9.452  10.558  0.5367 -1.0718  0.8852
  120MOL0     C16091   9.347   9.502  10.658 -0.0703 -0.0828  0.4754
  120MOL0     C16092   9.306   9.521  10.796 -0.0862 -0.4697  0.2264
  120MOL0     C16093   9.178   9.489  10.837 -0.0319  0.4500  0.1444
  120MOL0     C16094   9.120   9.512  10.973 -0.2385 -1.0757  0.3335
  120MOL0     O16095   8.992   9.473  10.986 -0.1587 -0.3764 -0.3911
  120MOL0     C16096   8.945   9.485  11.110  0.5398  0.6973  0.1520
  120MOL0     C16097   8.941   9.397  11.219  0.3556 -0.3347  0.5123
  120MOL0     C16098   8.881   9.422  11.341  0.7027 -0.1543 -0.3576
  120MOL0     C16099   8.817   9.540  11.359  0.0855  0.4750 -0.0031
  120MOL0     O16100   8.758   9.547  11.481  0.3224 -0.0079  0.2905
  120MOL0     C16101   8.786   9.673  11.547 -0.2645  0.2422 -0.1194
  120MOL0     C16102   8.784   9.637  11.698  0.4228  0.8630 -0.8039
  120MOL0     C16103   8.636   9.622  11.748  0.2513  0.4671 -0.3241
  120MOL0     C16104   8.626   9.611  11.903 -0.2215 -0.3299  0.1974
  120MOL0     C16105   8.481   9.621  11.947  0.0937  0.0482  0.7433
  120MOL0     C16106   8.468   9.554  12.087  0.4535  0.0367 -0.2025
  120MOL0     C16107   8.323   9.538  12.142  1.4005 -1.0924 -0.4942
  120MOL0     C16108   8.292   9.661  12.225  0.1772 -0.5468  0.6216
  120MOL0    Cl16109   8.137   9.670  12.319  0.1473  0.0464  0.5910
  120MOL0     C16110   8.814   9.641  11.254 -0.8951  0.6976  0.0392
  120MOL0     C16111   8.881   9.612  11.133 -0.1249  0.0537  0.2080
  120MOL0     O16112   9.188   9.565  11.056  0.0807 -0.3408 -0.5409
  120MOL0     C16113   9.095   9.440  10.731  0.6897 -0.0012  0.2981
  120MOL0     C16114   9.125   9.428  10.600 -0.2794 -0.6989  0.6254
  120MOL0     N16115   9.199   9.023   9.900 -0.1480 -0.8034 -0.2843
  120MOL0     N16116   9.097   8.954   9.858 -0.4875 -0.9090 -0.1534
  120MOL0     C16117   7.934   9.065   9.462 -0.3468 -0.8351 -0.8228
  120MOL0     C16118   7.802   9.112   9.448  0.2206  0.6560 -0.0187
  120MOL0     C16119   7.358   9.214   9.410 -0.2800  0.0192  0.0568
  120MOL0     C16120   7.268   9.176   9.519 -0.1111  0.5452 -0.0013
  120MOL0     C16121   7.134   9.187   9.500  0.6805 -0.4505  0.6324
  120MOL0     C16122   7.076   9.258   9.404  0.1882  0.0705 -0.1290
  120MOL0     O16123   6.941   9.275   9.408 -0.2525  0.5678 -0.4491
  120MOL0     C16124   6.876   9.365   9.319  0.7299 -0.5143 -0.7855
  120MOL0     C16125   6.723   9.360   9.315  0.0261  0.2233 -0.3093
  120MOL0     C16126   6.682   9.382   9.457  0.4769  0.2514 -1.1210
  120MOL0     C16127   6.531   9.408   9.464 -0.2994  0.0997  0.5881
  120MOL0     C16128   6.498   9.428   9.597  0.3944  0.1916  0.5208
  120MOL0     C16129   6.486   9.469   9.708 -0.3532  0.1467 -0.3487
  120MOL0     C16130   7.159   9.304   9.305 -0.1931 -0.2176  1.5004
  120MOL0     C16131   7.297   9.273   9.296 -0.0823 -0.0925 -0.8595
  120MOL0     C16132   7.376   9.323   9.173 -0.3172  1.0365 -0.2624
  120MOL0     H16133   7.638   8.918   9.674  1.0608 -1.9113  0.3967
  120MOL0     H16134   7.869   8.844   9.711 -1.0310  0.5515  0.6451
  120MOL0     H16135   8.088   8.776   9.737  3.2783 -3.8333  0.4218
  120MOL0     H16136   8.044   8.722   9.570  0.1800  0.2150  0.8656
  120MOL0     H16137   8.287   8.766   9.511  2.8401 -1.1640  0.4306
  120MOL0     H16138   8.253   8.651   9.642  1.5042  0.3120 -0.4729
  120MOL0     H16139   8.265   8.922   9.749 -0.0553 -1.4954  0.1240
  120MOL0     H16140   8.403   8.905   9.633  0.0184 -2.6124 -3.3621
  120MOL0     H16141   8.353   8.734   9.864 -0.0353 -1.2702 -1.7886
  120MOL0     H16142   8.475   8.716   9.750 -1.9260 -0.2464 -0.8180
  120MOL0     H16143   8.472   8.980   9.923 -0.1290 -2.2164  1.4709
  120MOL0     H16144   8.533   8.836   9.986  2.9043 -0.4751 -0.2588
  120MOL0     H16145   8.705   8.784   9.830 -3.4803 -2.7270 -1.1582
  120MOL0     H16146   8.646   8.897   9.708  3.7659 -1.1885 -1.4813
  120MOL0     H16147   8.804   8.950   9.957  0.5672 -1.2311 -0.7459
  120MOL0     H16148   8.699   9.080   9.874 -0.0911  0.5400 -2.7333
  120MOL0     H16149   8.900   8.910   9.716  0.3621  0.8832 -2.6186
  120MOL0     H16150   8.851   9.084   9.701 -0.0432  0.4907  0.5454
  120MOL0     H16151   8.960   9.252   9.862 -0.4109  0.0896 -0.5324
  120MOL0     H16152   9.338   9.241   9.952  0.5403 -1.4616  1.5650
  120MOL0     H16153   9.197   9.357   9.943 -0.1042 -0.8093  1.5768
  120MOL0     H16154   9.098   9.275  10.141 -0.4381  0.1320  1.5504
  120MOL0     H16155   9.227   9.159  10.161 -0.2247 -0.7398 -4.4914
  120MOL0     H16156   9.260   9.458  10.180 -1.4463  0.5330 -2.2547
  120MOL0     H16157   9.387   9.332  10.195 -0.6332 -0.9773  0.4582
  120MOL0     H16158   9.271   9.239  10.397  0.0260  0.3591  3.5131
  120MOL0     H16159   9.138   9.348  10.359  0.9787  1.2027  0.2925
  120MOL0     H16160   9.447   9.522  10.620  0.4383 -2.7396  0.2419
  120MOL0     H16161   9.379   9.556  10.868 -0.9334  0.8867  0.4530
  120MOL0     H16162   8.982   9.299  11.194  1.4827 -0.8434  3.9165
  120MOL0     H16163   8.872   9.357  11.427  1.3249  1.0844  0.6795
  120MOL0     H16164   8.884   9.717  11.523  0.2302 -0.2310  0.9869
  120MOL0     H16165   8.709   9.750  11.535  1.0462  1.9684  1.8169
  120MOL0     H16166   8.844   9.550  11.726  2.1151  1.8722 -1.1836
  120MOL0     H16167   8.842   9.710  11.754  3.3806 -3.5316  2.5573
  120MOL0     H16168   8.584   9.716  11.731  0.9818  1.0198  0.3981
  120MOL0     H16169   8.582   9.537  11.704  0.0897 -0.3779  1.4178
  120MOL0     H16170   8.686   9.691  11.947  1.0155 -0.6220 -0.9056
  120MOL0     H16171   8.671   9.519  11.942 -1.1359 -0.1779  1.7167
  120MOL0     H16172   8.408   9.570  11.883 -0.9303 -0.1509  2.0209
  120MOL0     H16173   8.446   9.724  11.937 -0.9619 -0.3264  0.3918
  120MOL0     H16174   8.509   9.453  12.075 -0.2692 -0.1374 -1.3344
  120MOL0     H16175   8.526   9.597  12.169 -0.6426  0.2758  0.4589
  120MOL0     H16176   8.316   9.450  12.206 -2.0505 -0.8930 -0.4389
  120MOL0     H16177   8.248   9.538  12.063 -0.9962  4.4050  1.2464
  120MOL0     H16178   8.376   9.666  12.295  1.8174 -0.7432 -1.2664
  120MOL0     H16179   8.295   9.751  12.162  2.1293 -2.1517 -1.7271
  120MOL0     H16180   8.764   9.737  11.265 -1.3948  0.3076  1.3695
  120MOL0     H16181   8.902   9.689  11.060  1.4393 -0.3387  0.2118
  120MOL0     H16182   8.997   9.402  10.760  0.6272 -1.0365 -1.1620
  120MOL0     H16183   9.058   9.379  10.529 -1.0420 -0.4153  1.1352
  120MOL0     H16184   8.006   9.112   9.396 -1.8098  0.3579 -1.6133
  120MOL0     H16185   7.791   9.190   9.374  1.5722 -0.2273 -1.1993
  120MOL0     H16186   7.302   9.117   9.603 -3.8246 -0.5972  0.8906
  120MOL0     H16187   7.071   9.168   9.587 -0.2406 -0.5704 -0.0509
  120MOL0     H16188   6.894   9.345   9.213 -1.0835  2.3931 -1.7799
  120MOL0     H16189   6.905   9.469   9.335  1.2486 -0.8816  0.7799
  120MOL0     H16190   6.676   9.266   9.285  0.7051 -0.3705  0.4278
  120MOL0     H16191   6.686   9.446   9.260 -0.2746  2.1944  2.6999
  120MOL0     H16192   6.733   9.456   9.519 -1.1957 -0.0745  0.7242
  120MOL0     H16193   6.701   9.289   9.511  2.4267  0.7357 -0.8913
  120MOL0     H16194   6.517   9.503   9.412 -0.8699 -0.1891  0.2088
  120MOL0     H16195   6.471   9.329   9.420 -0.6255 -1.8111  4.0728
  120MOL0     H16196   6.471   9.523   9.799  0.3751  1.3920 -0.9281
  120MOL0     H16197   7.120   9.359   9.220 -0.5859 -0.5229  1.4808
  120MOL0     H16198   7.441   9.403   9.210  0.9626 -1.3178  3.0489
  120MOL0     H16199   7.442   9.244   9.136  3.2306  2.6238  2.1346
  120MOL0     H16200   7.304   9.366   9.104 -1.3442 -0.7554 -0.3712
  121MOL0     O16201   7.481   5.219   1.660 -0.1107  0.2374  1.0630
  121MOL0     C16202   7.570   5.142   1.646 -0.1264 -0.3488 -0.0779
  121MOL0     O16203   7.586   5.046   1.544  0.0944  0.5711 -0.3408
  121MOL0     C16204   7.467   4.985   1.494 -0.1685 -0.3469 -0.4478
  121MOL0     C16205   7.335   5.005   1.532 -0.3838 -0.3713 -0.7098
  121MOL0     C16206   7.233   4.931   1.472  0.9343 -0.6626 -0.4768
  121MOL0     C16207   7.258   4.834   1.369 -0.3599  0.0800 -0.2119
  121MOL0     O16208   7.136   4.781   1.318 -0.0803 -1.1214  0.3705
  121MOL0     C16209   7.142   4.689   1.210  0.0728  1.2084 -0.4626
  121MOL0     C16210   7.079   4.559   1.246 -0.4856 -0.5726 -0.8763
  121MOL0     C16211   6.935   4.584   1.294  0.1183 -0.2959 -0.4387
  121MOL0     C16212   6.880   4.458   1.368  0.3358  0.9808  0.7283
  121MOL0     C16213   6.731   4.457   1.401 -0.9857  0.5008 -0.4386
  121MOL0     C16214   6.699   4.326   1.481 -0.1878 -0.0070  0.0802
  121MOL0     C16215   6.558   4.336   1.543 -0.3970  0.3684 -0.6467
  121MOL0     C16216   6.582   4.352   1.698  0.4376  0.1180  1.1272
  121MOL0     N16217   6.651   4.476   1.728 -0.4109  0.5281  0.4626
  121MOL0     C16218   6.790   4.497   1.766  0.8293  0.3990  0.5649
  121MOL0     C16219   6.813   4.624   1.739  0.2109  0.3249 -0.6424
  121MOL0     C16220   6.927   4.706   1.790  0.1623  0.1683  0.4806
  121MOL0     C16221   7.041   4.694   1.685  0.8440  1.0567  0.3769
  121MOL0     C16222   7.145   4.589   1.720  0.1917 -0.0563  0.6701
  121MOL0     C16223   7.247   4.574   1.607 -0.2841 -0.1120  1.2127
  121MOL0     O16224   7.360   4.489   1.644  0.1803  0.5887  0.3681
  121MOL0     C16225   7.465   4.549   1.709 -0.8607  0.4576 -0.1888
  121MOL0     C16226   7.546   4.456   1.773  0.6474  0.6975 -0.7114
  121MOL0     C16227   7.662   4.494   1.841  0.7623 -0.2991 -0.5942
  121MOL0     C16228   7.697   4.626   1.854  0.0077  0.0658 -0.7502
  121MOL0     C16229   7.812   4.664   1.924  0.2660  0.9169 -0.4427
  121MOL0     O16230   7.867   4.569   2.009  0.3100  0.9897 -0.4636
  121MOL0     C16231   7.968   4.591   2.097  0.2882  0.2685  0.2560
  121MOL0     C16232   7.972   4.500   2.197  0.7313  0.3856 -0.8603
  121MOL0     C16233   8.061   4.509   2.305  0.6150  0.5044  0.2230
  121MOL0     C16234   8.162   4.611   2.300 -1.1722 -0.2480 -0.2100
  121MOL0     O16235   8.278   4.594   2.376  1.0252  0.5819 -0.2477
  121MOL0     C16236   8.316   4.471   2.439 -0.8299  0.3332 -0.6019
  121MOL0     C16237   8.443   4.485   2.522 -0.3609  0.6275  0.4060
  121MOL0     C16238   8.462   4.369   2.618 -0.1864 -0.4039 -0.0550
  121MOL0     C16239   8.577   4.395   2.712 -0.1242  1.0182  0.3083
  121MOL0     C16240   8.626   4.257   2.778 -0.6294 -0.6473 -0.7297
  121MOL0     C16241   8.754   4.276   2.852  0.0818  0.3449  0.6095
  121MOL0     C16242   8.796   4.148   2.927 -0.8849 -0.8528 -0.2182
  121MOL0     C16243   8.882   4.180   3.052  0.1900  0.8848  0.2666
  121MOL0    Cl16244   8.776   4.250   3.186 -0.2685 -0.1907  0.3829
  121MOL0     C16245   8.161   4.703   2.194  0.1389 -0.7176 -0.4176
  121MOL0     C16246   8.059   4.704   2.103  0.7586 -1.6619 -0.2894
  121MOL0     O16247   7.855   4.776   1.913 -0.3405 -0.1844  0.1424
  121MOL0     C16248   7.608   4.721   1.810 -0.1571  0.1856  0.2113
  121MOL0     C16249   7.499   4.676   1.736 -0.4638  0.0049  0.3680
  121MOL0     N16250   6.694   4.688   1.707 -0.1589 -0.2898  0.0934
  121MOL0     N16251   6.600   4.601   1.702  0.1813  0.7631 -0.5965
  121MOL0     C16252   7.394   4.812   1.338  0.0186 -1.0432  0.5150
  121MOL0     C16253   7.493   4.887   1.398 -0.3213 -0.4553 -0.5966
  121MOL0     C16254   7.681   5.161   1.746  1.0046  1.8068  1.1260
  121MOL0     C16255   7.805   5.176   1.692 -0.4670 -0.1496 -0.3439
  121MOL0     C16256   7.916   5.182   1.784  0.2406 -0.8385  1.3208
  121MOL0     C16257   7.903   5.177   1.917  0.1657 -0.7576  0.4507
  121MOL0     O16258   8.011   5.213   1.997  0.3457  0.2327  1.0139
  121MOL0     C16259   8.003   5.338   2.069  0.2593 -0.1138  0.0651
  121MOL0     C16260   7.951   5.295   2.206  0.1465  0.3828 -0.3763
  121MOL0     C16261   7.931   5.425   2.290  1.1967  0.3188  0.0496
  121MOL0     C16262   7.914   5.404   2.448 -0.2623 -0.7425  0.8904
  121MOL0     C16263   7.904   5.528   2.524 -0.2975 -0.5433 -0.0753
  121MOL0     C16264   7.896   5.602   2.622 -0.2057 -0.7021 -0.1648
  121MOL0     C16265   7.774   5.155   1.964 -1.0906  0.1880 -0.3271
  121MOL0     C16266   7.658   5.127   1.887 -0.2762 -0.4115  0.1667
  121MOL0     C16267   7.531   5.098   1.954 -0.4342 -0.3429  0.0742
  121MOL0     H16268   7.296   5.079   1.602 -0.9028  0.4085 -1.7970
  121MOL0     H16269   7.130   4.935   1.507 -0.2997 -2.9588 -3.3768
  121MOL0     H16270   7.077   4.727   1.131 -0.2730  0.4802 -0.5432
  121MOL0     H16271   7.241   4.672   1.166  0.7031 -1.7236  1.7558
  121MOL0     H16272   7.128   4.511   1.332 -0.5455  0.4940 -0.2140
  121MOL0     H16273   7.088   4.496   1.158  1.9487  0.1155 -1.1871
  121MOL0     H16274   6.867   4.603   1.210 -2.0411  2.2422  1.6595
  121MOL0     H16275   6.933   4.664   1.369  0.3632 -1.6714  1.1004
  121MOL0     H16276   6.886   4.372   1.300 -1.5252  0.4643  1.1629
  121MOL0     H16277   6.934   4.433   1.459  0.5743  1.8921  0.8440
  121MOL0     H16278   6.716   4.538   1.473  0.5304 -0.8720  1.5336
  121MOL0     H16279   6.672   4.468   1.309 -0.0995  1.2886 -0.9288
  121MOL0     H16280   6.704   4.244   1.410  1.8500  1.5009 -1.6504
  121MOL0     H16281   6.768   4.317   1.566  3.5872  2.6640 -2.3799
  121MOL0     H16282   6.492   4.250   1.525  1.1445 -1.6864  2.6652
  121MOL0     H16283   6.500   4.421   1.506 -0.2553 -0.2923 -2.5420
  121MOL0     H16284   6.492   4.358   1.760  0.3158 -1.8520  1.1886
  121MOL0     H16285   6.634   4.263   1.735 -0.5509 -1.4164 -0.9697
  121MOL0     H16286   6.857   4.415   1.792  0.1947 -0.7221 -1.1791
  121MOL0     H16287   6.893   4.809   1.800  1.4517  0.5841  0.7784
  121MOL0     H16288   6.958   4.674   1.890 -0.1506  0.4913  0.6858
  121MOL0     H16289   6.996   4.680   1.586  1.3022  1.3756  0.1173
  121MOL0     H16290   7.099   4.786   1.691  1.8894  0.3353  2.0381
  121MOL0     H16291   7.096   4.492   1.734 -0.3944  0.0917 -0.3136
  121MOL0     H16292   7.204   4.619   1.808 -2.6226  0.0243  2.6603
  121MOL0     H16293   7.288   4.671   1.578 -0.6728 -0.4859 -0.7369
  121MOL0     H16294   7.184   4.535   1.527 -1.3764 -1.3737  2.6346
  121MOL0     H16295   7.524   4.352   1.749  1.6687  0.1152  0.6446
  121MOL0     H16296   7.730   4.412   1.865 -0.6841 -1.9608 -1.8952
  121MOL0     H16297   7.902   4.418   2.205  0.4562  0.6401 -0.6174
  121MOL0     H16298   8.064   4.438   2.388  1.6535 -2.6672 -2.3017
  121MOL0     H16299   8.239   4.446   2.512 -0.2517 -0.3575 -0.2111
  121MOL0     H16300   8.319   4.386   2.370  1.4491 -0.4856  0.3968
  121MOL0     H16301   8.522   4.499   2.448 -1.0200  0.3453 -0.3738
  121MOL0     H16302   8.437   4.579   2.577  3.2274  0.3733  1.4938
  121MOL0     H16303   8.372   4.330   2.667  1.3459 -4.0585  0.1864
  121MOL0     H16304   8.486   4.283   2.555  0.7979 -0.6990  0.7086
  121MOL0     H16305   8.542   4.456   2.797  0.1298  0.7159  0.6330
  121MOL0     H16306   8.658   4.451   2.666 -0.5909  0.1169 -1.6937
  121MOL0     H16307   8.641   4.174   2.708 -0.7912 -0.8921 -0.4733
  121MOL0     H16308   8.556   4.235   2.859  2.2499 -1.4807  1.7509
  121MOL0     H16309   8.827   4.315   2.780 -1.8672  3.0424 -0.0582
  121MOL0     H16310   8.737   4.359   2.921 -0.4670 -0.9496  2.0835
  121MOL0     H16311   8.851   4.082   2.859  0.1532 -0.9130  0.6535
  121MOL0     H16312   8.707   4.090   2.955 -1.0844 -0.7520 -0.6348
  121MOL0     H16313   8.931   4.091   3.093  0.9764 -0.2637 -2.8861
  121MOL0     H16314   8.965   4.248   3.034  1.7716 -0.3070  2.5463
  121MOL0     H16315   8.235   4.781   2.183 -0.7314  0.0717 -0.8589
  121MOL0     H16316   8.058   4.777   2.023  0.1983 -2.0148 -0.6109
  121MOL0     H16317   7.612   4.829   1.819 -3.4621  0.3567  0.7509
  121MOL0     H16318   7.425   4.748   1.701 -1.8144 -0.7602  1.4984
  121MOL0     H16319   7.429   4.767   1.245  2.2106  0.8217  0.3450
  121MOL0     H16320   7.592   4.881   1.354  0.2131 -2.3177  0.7485
  121MOL0     H16321   7.820   5.185   1.584 -0.6604  0.0037 -0.3585
  121MOL0     H16322   8.016   5.201   1.746  0.5305 -1.6009  1.6713
  121MOL0     H16323   7.936   5.408   2.017  1.1649 -0.6087 -1.8750
  121MOL0     H16324   8.099   5.391   2.072  0.0624  0.2697 -0.1935
  121MOL0     H16325   8.027   5.231   2.252 -1.0295 -1.1913 -0.5573
  121MOL0     H16326   7.856   5.240   2.208 -0.0784  0.7390  2.2323
  121MOL0     H16327   7.853   5.490   2.252  0.5343 -0.4964 -0.0084
  121MOL0     H16328   8.017   5.493   2.284  0.7229  1.3821  3.1558
  121MOL0     H16329   7.817   5.354   2.456  0.3246 -2.0043  0.2693
  121MOL0     H16330   8.000   5.349   2.487  2.4118  0.9410 -2.1615
  121MOL0     H16331   7.889   5.684   2.691  0.4951 -1.9377  1.4517
  121MOL0     H16332   7.764   5.121   2.067 -0.3912  1.2013  0.0987
  121MOL0     H16333   7.554   5.058   2.053  3.1988 -0.4732 -0.6624
  121MOL0     H16334   7.461   5.179   1.977  1.1947  0.6231  1.9319
  121MOL0     H16335   7.476   5.028   1.891 -0.3581 -0.2225 -0.1290
  122MOL0     O16336   2.396   1.903   9.848 -1.3856  0.6644 -0.3377
  122MOL0     C16337   2.511   1.947   9.808  0.5936  0.0210 -0.0503
  122MOL0     O16338   2.613   1.868   9.765 -0.4169  0.1378 -0.1518
  122MOL0     C16339   2.585   1.746   9.699 -0.6637  0.3840 -0.0452
  122MOL0     C16340   2.456   1.708   9.637 -0.7338  0.0041 -0.1600
  122MOL0     C16341   2.451   1.586   9.558 -0.0995 -0.5070  0.4180
  122MOL0     C16342   2.562   1.512   9.532 -0.0072 -0.2489  0.8653
  122MOL0     O16343   2.548   1.394   9.462  0.0167 -0.4012  0.0451
  122MOL0     C16344   2.599   1.275   9.523  0.3764  1.6457  0.1922
  122MOL0     C16345   2.504   1.156   9.526 -0.7295  0.2770 -0.8740
  122MOL0     C16346   2.569   1.035   9.599 -0.3105 -0.0985  0.6243
  122MOL0     C16347   2.489   0.903   9.575 -0.3527  0.4383  0.0516
  122MOL0     C16348   2.485   0.785   9.683 -0.2515 -0.0405 -0.4877
  122MOL0     C16349   2.629   0.745   9.708 -0.5162  0.7312  0.4638
  122MOL0     C16350   2.642   0.612   9.785 -0.0877  0.6121 -1.0759
  122MOL0     C16351   2.594   0.640   9.929 -1.0609  0.2409 -1.3150
  122MOL0     N16352   2.472   0.567   9.963 -0.3889 -0.0954 -0.1004
  122MOL0     C16353   2.465   0.434   9.986 -0.2325 -0.2865  0.0277
  122MOL0     C16354   2.365   0.409  10.072 -0.7090  0.2258 -0.7602
  122MOL0     C16355   2.345   0.279  10.141 -1.4233  0.0243 -0.0538
  122MOL0     C16356   2.445   0.292  10.262  0.4421 -1.2703  0.1088
  122MOL0     C16357   2.418   0.178  10.365 -0.0934 -0.0594  0.9164
  122MOL0     C16358   2.527   0.183  10.477  0.5545  1.2191  0.2551
  122MOL0     O16359   2.502   0.301  10.559 -0.1571 -0.9834 -0.1421
  122MOL0     C16360   2.554   0.306  10.688  0.2712  0.4088 -1.0204
  122MOL0     C16361   2.523   0.415  10.764  0.0848 -0.5728 -0.5654
  122MOL0     C16362   2.573   0.434  10.902  0.3541  0.7041  1.6240
  122MOL0     C16363   2.672   0.347  10.950  0.8323  0.2894 -0.6793
  122MOL0     C16364   2.716   0.348  11.094  0.2546  0.2588  0.0268
  122MOL0     O16365   2.828   0.276  11.129  0.0343 -0.3681 -0.3258
  122MOL0     C16366   2.854   0.263  11.265  1.1546  0.1073  0.0720
  122MOL0     C16367   2.761   0.235  11.366 -0.7652 -0.1232  0.0592
  122MOL0     C16368   2.794   0.216  11.502  0.1975 -0.4254  0.1678
  122MOL0     C16369   2.927   0.235  11.551 -0.5192 -0.1020  0.8820
  122MOL0     O16370   2.974   0.221  11.676 -0.3329  0.5737  0.7329
  122MOL0     C16371   2.892   0.146  11.777  0.1564 -0.0742  0.4476
  122MOL0     C16372   2.975   0.121  11.907  1.0506  1.0026 -1.5125
  122MOL0     C16373   3.015   0.254  11.974  1.2653  0.2010 -0.8272
  122MOL0     C16374   3.143   0.235  12.041 -0.7679  0.2274  0.0248
  122MOL0     C16375   3.233   0.364  12.022 -0.4100  0.7654 -0.6480
  122MOL0     C16376   3.368   0.358  12.103  0.0585  0.1940  1.0881
  122MOL0     C16377   3.434   0.493  12.094 -0.1376  0.2639  1.3014
  122MOL0     C16378   3.587   0.473  12.089 -0.1242  0.4043  0.0384
  122MOL0    Cl16379   3.640   0.381  12.229 -0.1415  0.1181  0.0033
  122MOL0     C16380   3.016   0.282  11.451  0.0193 -0.4726 -0.4986
  122MOL0     C16381   2.979   0.309  11.315 -1.3366  1.4237 -0.3725
  122MOL0     O16382   2.646   0.409  11.172  0.3743  0.0871 -0.0316
  122MOL0     C16383   2.710   0.239  10.869 -0.3352 -0.1390  0.0576
  122MOL0     C16384   2.648   0.222  10.742 -0.0277 -0.7338  0.7264
  122MOL0     N16385   2.309   0.525  10.098  0.0824 -0.4573 -0.2256
  122MOL0     N16386   2.370   0.622  10.030 -0.1118  0.3798 -0.3691
  122MOL0     C16387   2.691   1.547   9.595  0.5420  0.1651  0.6812
  122MOL0     C16388   2.699   1.658   9.672 -0.0487  0.4888 -0.1861
  122MOL0     C16389   2.532   2.091   9.803 -0.8282 -0.9412  0.7442
  122MOL0     C16390   2.662   2.147   9.821 -0.6695 -0.1214  0.5510
  122MOL0     C16391   2.690   2.287   9.810 -0.4977  0.9908  0.3253
  122MOL0     C16392   2.587   2.374   9.780  0.7805 -0.1894 -0.0270
  122MOL0     O16393   2.623   2.510   9.768 -0.4965 -0.1903 -0.1790
  122MOL0     C16394   2.532   2.617   9.743  0.5175 -0.1925 -0.1879
  122MOL0     C16395   2.599   2.753   9.756  0.2128 -0.4947  0.7219
  122MOL0     C16396   2.509   2.872   9.727 -0.7978 -0.3650  0.1802
  122MOL0     C16397   2.364   2.865   9.783 -0.6830 -0.2219  0.4698
  122MOL0     C16398   2.362   2.844   9.931 -1.5870  0.3868 -0.0696
  122MOL0     C16399   2.357   2.832  10.048 -0.7991 -1.3256  1.0212
  122MOL0     C16400   2.463   2.327   9.750 -0.3601 -0.0702  0.4070
  122MOL0     C16401   2.440   2.189   9.753  0.7591 -0.0141 -0.6580
  122MOL0     C16402   2.307   2.142   9.697  0.3854  0.5693 -0.7987
  122MOL0     H16403   2.366   1.768   9.638 -0.1628  0.9314  2.3935
  122MOL0     H16404   2.355   1.556   9.516  0.3943 -1.4044 -0.0938
  122MOL0     H16405   2.677   1.238   9.456 -2.3311 -0.5596 -1.9951
  122MOL0     H16406   2.639   1.291   9.623 -0.0327  2.7040  0.1940
  122MOL0     H16407   2.467   1.124   9.428 -1.2651  0.3448 -0.6954
  122MOL0     H16408   2.418   1.189   9.585 -1.7458 -2.8249 -0.4131
  122MOL0     H16409   2.564   1.054   9.706 -3.2728  4.6398 -0.0597
  122MOL0     H16410   2.675   1.021   9.573 -0.2639  0.3571  0.5601
  122MOL0     H16411   2.389   0.931   9.542  0.5852  1.8811 -1.7323
  122MOL0     H16412   2.536   0.849   9.493  0.3530  0.0499  0.6919
  122MOL0     H16413   2.434   0.819   9.773  2.1355 -1.8955  1.7647
  122MOL0     H16414   2.433   0.693   9.654  2.6207 -2.6291  1.7636
  122MOL0     H16415   2.683   0.731   9.614 -2.3187 -1.3290 -0.3451
  122MOL0     H16416   2.684   0.818   9.768  1.8928 -1.4955  1.1801
  122MOL0     H16417   2.745   0.575   9.777 -0.4593 -1.1903  1.3653
  122MOL0     H16418   2.586   0.527   9.743 -0.2877 -0.3717  1.0603
  122MOL0     H16419   2.675   0.609   9.996  1.9090  1.1349 -4.2587
  122MOL0     H16420   2.559   0.743   9.944 -2.9493 -0.0355 -3.2556
  122MOL0     H16421   2.545   0.364   9.964  0.5423  0.7257 -0.4522
  122MOL0     H16422   2.243   0.280  10.182 -1.4349 -1.8096  0.0327
  122MOL0     H16423   2.361   0.184  10.090  1.0214  0.5626 -0.4017
  122MOL0     H16424   2.547   0.298  10.223  0.9286 -3.2975  0.9263
  122MOL0     H16425   2.427   0.388  10.310  3.3623  0.7243 -2.4149
  122MOL0     H16426   2.432   0.083  10.312 -0.1997  1.4527 -2.0588
  122MOL0     H16427   2.317   0.186  10.406 -0.6416 -0.5701 -0.2722
  122MOL0     H16428   2.627   0.177  10.433  0.2385  2.8415 -0.7738
  122MOL0     H16429   2.512   0.093  10.537  5.2649 -0.7388 -1.0447
  122MOL0     H16430   2.458   0.491  10.722 -0.6658 -1.6686 -1.4529
  122MOL0     H16431   2.518   0.510  10.955 -0.7198 -0.6248  2.4896
  122MOL0     H16432   2.662   0.200  11.339  0.4529 -4.5875  0.5326
  122MOL0     H16433   2.722   0.176  11.572 -0.8016 -0.0518 -0.6245
  122MOL0     H16434   2.808   0.207  11.811 -0.4255 -2.4561  3.8158
  122MOL0     H16435   2.855   0.055  11.729 -2.5568  2.2886 -2.3940
  122MOL0     H16436   2.922   0.057  11.978 -0.0101  1.1310 -2.1635
  122MOL0     H16437   3.067   0.073  11.871  0.0901 -0.0730 -2.6297
  122MOL0     H16438   3.022   0.333  11.899  2.6154 -0.2789 -1.2363
  122MOL0     H16439   2.942   0.289  12.048  2.2945 -0.0560  0.3433
  122MOL0     H16440   3.193   0.151  11.993  0.3056 -0.0193  1.5056
  122MOL0     H16441   3.126   0.207  12.145  0.6371 -0.3803  0.1088
  122MOL0     H16442   3.172   0.447  12.059 -0.8376 -0.4803  1.5907
  122MOL0     H16443   3.263   0.374  11.917  1.1655  3.5401 -0.0292
  122MOL0     H16444   3.356   0.321  12.205 -0.0275 -1.6787  0.4271
  122MOL0     H16445   3.431   0.286  12.051 -2.0789 -2.0508  1.4410
  122MOL0     H16446   3.408   0.558  12.178 -0.6654  3.4005 -1.1239
  122MOL0     H16447   3.404   0.546  12.003 -2.6697 -0.2162  1.7795
  122MOL0     H16448   3.630   0.413  12.008  0.6258 -0.5393  1.1087
  122MOL0     H16449   3.637   0.570  12.095  1.0182 -0.2508  2.2545
  122MOL0     H16450   3.114   0.315  11.483  0.3013  0.9270 -2.5370
  122MOL0     H16451   3.054   0.364  11.258  0.5536 -0.2289  0.4134
  122MOL0     H16452   2.770   0.154  10.898 -1.9243 -2.6316 -3.2556
  122MOL0     H16453   2.673   0.130  10.689  3.5614 -0.0640  1.0215
  122MOL0     H16454   2.766   1.473   9.568 -1.3395 -2.5068  2.2370
  122MOL0     H16455   2.797   1.681   9.713 -0.2111  0.5506  0.1767
  122MOL0     H16456   2.753   2.090   9.835 -0.1492  0.4380 -0.4107
  122MOL0     H16457   2.789   2.325   9.831 -1.4749  3.5075  0.8687
  122MOL0     H16458   2.453   2.601   9.816 -0.0341  3.2554  0.1213
  122MOL0     H16459   2.488   2.613   9.643  0.7872 -0.2478 -0.3073
  122MOL0     H16460   2.673   2.751   9.676  0.2195 -3.7287  0.6764
  122MOL0     H16461   2.650   2.766   9.852  0.8631 -0.8450  0.4296
  122MOL0     H16462   2.491   2.885   9.619  0.2959 -0.3560 -0.0082
  122MOL0     H16463   2.559   2.964   9.760  0.8380 -0.9583 -0.5272
  122MOL0     H16464   2.302   2.953   9.765  1.7759  1.4668 -0.2259
  122MOL0     H16465   2.319   2.779   9.732  1.6693 -1.2951  0.0823
  122MOL0     H16466   2.360   2.830  10.155 -3.4914 -1.7220  1.1488
  122MOL0     H16467   2.376   2.392   9.743 -0.8432 -0.5231  1.7247
  122MOL0     H16468   2.256   2.219   9.638  1.6801  2.4795  0.4842
  122MOL0     H16469   2.315   2.051   9.636 -2.9561 -0.3279 -0.0985
  122MOL0     H16470   2.239   2.126   9.781  1.4337  0.7262  0.0969
  123MOL0     O16471  10.097   4.918   5.455 -0.2624  0.4125  0.7580
  123MOL0     C16472  10.094   4.937   5.333  0.9418  0.0955  0.5901
  123MOL0     O16473  10.204   4.959   5.250 -1.1131  0.3474  0.3345
  123MOL0     C16474  10.330   4.981   5.324  1.0137  0.4963 -0.2180
  123MOL0     C16475  10.431   4.894   5.306 -1.0491  0.2689  0.2429
  123MOL0     C16476  10.558   4.919   5.356 -0.2365  0.1973  0.0606
  123MOL0     C16477  10.581   5.023   5.453  0.0902  0.2557  0.1955
  123MOL0     O16478  10.701   5.021   5.526 -0.3078  0.3585  0.4888
  123MOL0     C16479  10.704   5.069   5.658 -0.2640  0.8088  0.5252
  123MOL0     C16480  10.853   5.068   5.705  0.2739  0.6416  0.2271
  123MOL0     C16481  10.845   5.076   5.854 -0.2322  0.8623 -0.6279
  123MOL0     C16482  10.976   5.036   5.913 -0.0643  0.0850 -0.1381
  123MOL0     C16483  10.991   5.034   6.068  0.2513  0.2921 -0.3086
  123MOL0     C16484  10.966   5.179   6.124  0.9977  0.4980 -0.0229
  123MOL0     C16485  10.993   5.176   6.281  0.0082 -0.3580  0.4830
  123MOL0     C16486  10.984   5.320   6.340 -0.6228 -0.2240  0.2369
  123MOL0     N16487  10.850   5.378   6.345  0.9172  0.3515 -0.1315
  123MOL0     C16488  10.747   5.317   6.418  0.9048  0.3201  0.5735
  123MOL0     C16489  10.637   5.394   6.387 -0.3364 -0.0289 -0.9938
  123MOL0     C16490  10.510   5.372   6.450 -0.0209  0.3234  0.8224
  123MOL0     C16491  10.422   5.262   6.382 -0.9204  1.1393 -0.6216
  123MOL0     C16492  10.301   5.250   6.477  0.4188 -0.4556 -0.0799
  123MOL0     C16493  10.197   5.150   6.445 -0.4802  0.2457 -0.4093
  123MOL0     O16494  10.167   5.152   6.308 -0.3110 -0.9342  0.7627
  123MOL0     C16495  10.058   5.078   6.268 -0.0584 -0.1589  0.0104
  123MOL0     C16496   9.956   5.022   6.343 -0.5458  0.5538 -0.4866
  123MOL0     C16497   9.836   4.971   6.282  0.3067 -0.0386 -0.2590
  123MOL0     C16498   9.833   4.956   6.141  0.1876 -0.7107 -0.9656
  123MOL0     C16499   9.715   4.891   6.084 -0.4351 -0.2737  0.5209
  123MOL0     O16500   9.712   4.893   5.943 -0.6436  0.6052  0.4453
  123MOL0     C16501   9.616   4.828   5.869  0.2863 -0.0884  0.7002
  123MOL0     C16502   9.535   4.720   5.912 -0.0271  0.0152  0.4439
  123MOL0     C16503   9.435   4.670   5.828  0.6374 -0.0265 -0.0271
  123MOL0     C16504   9.428   4.703   5.692 -0.0277 -0.4782 -0.5319
  123MOL0     O16505   9.335   4.663   5.602  0.4807  0.2833  0.0734
  123MOL0     C16506   9.203   4.641   5.652  0.8384 -1.0320 -1.0710
  123MOL0     C16507   9.116   4.622   5.524 -0.6683  0.2687  0.2261
  123MOL0     C16508   9.108   4.767   5.462  0.4076  1.7632 -0.3796
  123MOL0     C16509   9.034   4.747   5.333  0.2514  0.6305  0.3906
  123MOL0     C16510   9.035   4.862   5.232  0.8100 -0.4838  0.5752
  123MOL0     C16511   9.005   4.828   5.088  0.5338  0.3971 -0.3347
  123MOL0     C16512   9.026   4.953   4.997  0.2312 -0.1993  0.2521
  123MOL0     C16513   9.067   4.920   4.857  0.3715  0.3361  0.3047
  123MOL0    Cl16514   8.917   4.849   4.775  0.5505 -0.2707 -0.1040
  123MOL0     C16515   9.518   4.798   5.654 -0.4807 -0.6028 -0.9968
  123MOL0     C16516   9.605   4.873   5.734 -0.4147  0.5304  0.0031
  123MOL0     O16517   9.623   4.853   6.159 -0.3387 -0.7852 -0.2410
  123MOL0     C16518   9.945   4.992   6.066  0.4189 -1.0632  0.2923
  123MOL0     C16519  10.054   5.065   6.124  0.4112  0.1288 -0.5683
  123MOL0     N16520  10.676   5.490   6.307 -0.2210 -0.5882  0.7460
  123MOL0     N16521  10.796   5.488   6.274 -0.1704  0.4921 -0.5198
  123MOL0     C16522  10.470   5.112   5.467  0.1244 -0.0783  0.5865
  123MOL0     C16523  10.349   5.097   5.399  0.2309 -0.3087 -0.3374
  123MOL0     C16524   9.952   4.905   5.267 -0.2840 -0.6354 -0.0482
  123MOL0     C16525   9.837   4.914   5.351  0.4720  0.4789  0.2838
  123MOL0     C16526   9.711   4.885   5.300  1.2097 -0.1304 -0.1250
  123MOL0     C16527   9.684   4.851   5.172 -0.6045  0.4010 -0.1913
  123MOL0     O16528   9.556   4.839   5.145 -0.1596  0.5655  0.1489
  123MOL0     C16529   9.480   4.957   5.107 -0.1397 -0.0201  0.2139
  123MOL0     C16530   9.467   4.976   4.958 -0.0943  0.3299 -1.2079
  123MOL0     C16531   9.401   5.112   4.915  0.6181 -0.1348  0.9379
  123MOL0     C16532   9.373   5.098   4.758 -0.4357  1.2719 -0.3836
  123MOL0     C16533   9.271   5.199   4.713 -1.4814  0.4821 -0.0583
  123MOL0     C16534   9.191   5.275   4.676 -0.5590  1.0942  0.5017
  123MOL0     C16535   9.795   4.849   5.085 -0.3871  0.1254  0.1149
  123MOL0     C16536   9.930   4.873   5.133  0.4671 -0.4068  0.8309
  123MOL0     C16537  10.045   4.878   5.028  0.9290 -0.0004 -0.7232
  123MOL0     H16538  10.410   4.793   5.274 -0.1579  0.0666  0.2951
  123MOL0     H16539  10.629   4.839   5.335  0.5351 -0.0773  3.2841
  123MOL0     H16540  10.658   5.164   5.686 -2.1565 -0.3682  1.6562
  123MOL0     H16541  10.654   4.988   5.713  0.8930  1.8575  3.3265
  123MOL0     H16542  10.910   5.153   5.667 -3.0469  3.6171  1.2785
  123MOL0     H16543  10.882   4.968   5.672 -1.0087 -0.1005  1.2112
  123MOL0     H16544  10.758   5.019   5.889 -1.1528  1.7337 -1.4520
  123MOL0     H16545  10.819   5.177   5.889 -1.8863 -0.2876  1.8228
  123MOL0     H16546  11.000   4.935   5.878  2.6108  1.6317 -3.3905
  123MOL0     H16547  11.058   5.105   5.891  0.7945 -0.4833  1.1184
  123MOL0     H16548  10.918   4.966   6.113 -0.9626  2.2764  0.8789
  123MOL0     H16549  11.093   5.001   6.087  0.6570  0.5427 -1.8697
  123MOL0     H16550  11.026   5.258   6.079 -0.3924  0.9418 -1.1677
  123MOL0     H16551  10.858   5.195   6.120  0.6503  0.0303  3.6613
  123MOL0     H16552  11.099   5.150   6.293 -0.4642 -1.4650  3.0093
  123MOL0     H16553  10.918   5.116   6.334 -0.7977 -1.2503 -1.5677
  123MOL0     H16554  11.032   5.324   6.438  0.3834 -1.2978 -0.1925
  123MOL0     H16555  11.042   5.386   6.273  0.8632 -0.8366  0.8717
  123MOL0     H16556  10.755   5.221   6.468 -0.6983 -1.5510 -2.4865
  123MOL0     H16557  10.520   5.355   6.558 -2.9443 -2.2425  0.8208
  123MOL0     H16558  10.452   5.465   6.440 -1.7728 -0.7010  0.9456
  123MOL0     H16559  10.386   5.290   6.283 -1.1320  0.1148 -0.8474
  123MOL0     H16560  10.472   5.165   6.377 -1.4566  0.9112 -2.4849
  123MOL0     H16561  10.246   5.344   6.472  2.0707  0.6129  0.8933
  123MOL0     H16562  10.328   5.244   6.583 -1.5114 -3.6111  0.3532
  123MOL0     H16563  10.105   5.168   6.502  0.0765  0.6745  0.3743
  123MOL0     H16564  10.233   5.051   6.475  1.4860  1.4628  1.5572
  123MOL0     H16565   9.949   5.023   6.452  1.8866 -0.4537 -0.2565
  123MOL0     H16566   9.747   4.952   6.340  0.2502  1.1884  0.0757
  123MOL0     H16567   9.544   4.676   6.011 -2.4020 -2.1325 -0.2000
  123MOL0     H16568   9.363   4.603   5.874 -2.0992  1.6908 -1.5469
  123MOL0     H16569   9.193   4.553   5.717 -0.6960  0.3021  0.6008
  123MOL0     H16570   9.176   4.735   5.700  1.2781  0.2352 -3.1792
  123MOL0     H16571   9.169   4.552   5.459  2.2904  2.4948  0.0149
  123MOL0     H16572   9.022   4.574   5.550 -0.6734  0.7226  1.0792
  123MOL0     H16573   9.054   4.839   5.525 -1.4417  0.8954 -0.9062
  123MOL0     H16574   9.205   4.811   5.437  0.8075  0.9992 -0.2210
  123MOL0     H16575   8.931   4.713   5.348 -0.1502  2.2384  1.5880
  123MOL0     H16576   9.097   4.673   5.282 -0.0573  2.2331 -2.5759
  123MOL0     H16577   9.142   4.887   5.224  1.6757 -4.0584 -1.7804
  123MOL0     H16578   8.970   4.942   5.267 -0.9315 -0.9417 -1.4250
  123MOL0     H16579   9.072   4.749   5.055 -1.4103 -1.0293 -1.0327
  123MOL0     H16580   8.897   4.810   5.088 -0.2766  3.4286  4.3577
  123MOL0     H16581   9.110   5.007   5.042  1.7162 -0.4360 -2.0357
  123MOL0     H16582   8.936   5.015   4.991 -0.8996 -1.7567  0.7301
  123MOL0     H16583   9.102   5.004   4.797 -1.7256  0.2814 -1.0913
  123MOL0     H16584   9.151   4.849   4.855  1.2304  1.3111  0.9216
  123MOL0     H16585   9.519   4.822   5.548  0.7339 -0.9563 -1.0754
  123MOL0     H16586   9.676   4.940   5.687 -1.3645  2.5691  1.3134
  123MOL0     H16587   9.949   4.969   5.960 -1.5539 -1.4562  0.2704
  123MOL0     H16588  10.138   5.095   6.063 -0.7903 -1.6683 -3.2946
  123MOL0     H16589  10.479   5.206   5.522  1.4157  0.9401 -1.2420
  123MOL0     H16590  10.272   5.174   5.402 -0.5937 -1.1546  1.5514
  123MOL0     H16591   9.833   4.931   5.458 -1.6043  0.0132  0.3132
  123MOL0     H16592   9.629   4.892   5.370 -2.5614 -3.0868 -3.7258
  123MOL0     H16593   9.533   5.045   5.145  0.2622 -0.4255  0.6107
  123MOL0     H16594   9.378   4.956   5.148 -0.0009 -0.4231  0.5600
  123MOL0     H16595   9.423   4.884   4.917 -1.4217 -0.0342  0.8753
  123MOL0     H16596   9.568   4.987   4.918 -0.4878  1.3829 -1.9573
  123MOL0     H16597   9.472   5.187   4.948  0.8427  0.6689 -1.2513
  123MOL0     H16598   9.304   5.132   4.962  0.3323 -0.0838  0.3439
  123MOL0     H16599   9.466   5.090   4.701  2.0632 -0.4441  3.5022
  123MOL0     H16600   9.329   4.999   4.743  0.0536  0.7918  1.1455
  123MOL0     H16601   9.117   5.321   4.613  0.2203 -0.6554 -1.8252
  123MOL0     H16602   9.762   4.849   4.982  1.6096 -1.0337 -0.5645
  123MOL0     H16603  10.067   4.980   4.994  0.8023  0.2257 -0.1339
  123MOL0     H16604  10.136   4.829   5.064 -0.0096 -0.9722  0.4019
  123MOL0     H16605  10.019   4.824   4.937  0.7340  0.7339 -1.1087
  124MOL0     O16606   6.571   0.424   7.230 -0.1692 -0.6963  0.5176
  124MOL0     C16607   6.624   0.481   7.139  0.6705 -0.8386 -0.2118
  124MOL0     O16608   6.606   0.449   7.004  0.0834 -0.6316  0.4316
  124MOL0     C16609   6.490   0.377   6.978 -0.2747 -0.5638 -0.8055
  124MOL0     C16610   6.359   0.438   6.974 -0.0007 -0.1934  1.2273
  124MOL0     C16611   6.250   0.357   6.941 -0.4522 -0.1577  1.2002
  124MOL0     C16612   6.267   0.221   6.919 -1.2432 -0.1975 -0.7200
  124MOL0     O16613   6.154   0.144   6.927  0.2119  0.3379  0.8473
  124MOL0     C16614   6.157  -0.000   6.891  0.4645 -0.1526  0.7834
  124MOL0     C16615   6.015  -0.040   6.858  0.0049  1.2683 -0.0315
  124MOL0     C16616   6.011  -0.188   6.795  0.2510  0.3648 -0.2387
  124MOL0     C16617   6.006  -0.176   6.634  0.3532 -0.7676 -0.4765
  124MOL0     C16618   5.973  -0.318   6.580 -0.4250  0.5148  0.3256
  124MOL0     C16619   5.936  -0.315   6.435 -0.3201  0.7909 -0.2892
  124MOL0     C16620   5.890  -0.449   6.382 -0.8721  0.8254  0.2638
  124MOL0     C16621   5.866  -0.435   6.232 -0.1580 -0.2580  1.0029
  124MOL0     N16622   5.827  -0.574   6.183 -0.4792  0.2192 -0.0380
  124MOL0     C16623   5.703  -0.627   6.204 -0.6176  0.5435  0.0740
  124MOL0     C16624   5.715  -0.750   6.146  0.0224  0.8590  0.1367
  124MOL0     C16625   5.602  -0.851   6.129 -0.4579  0.7710 -0.7872
  124MOL0     C16626   5.496  -0.801   6.031 -0.0481 -0.0565  0.3931
  124MOL0     C16627   5.565  -0.763   5.897 -0.4779 -0.1823 -0.1088
  124MOL0     C16628   5.466  -0.713   5.792  0.5808 -0.1969  0.3336
  124MOL0     O16629   5.380  -0.835   5.756 -0.6030  0.9198 -0.0544
  124MOL0     C16630   5.250  -0.823   5.734 -0.2872  0.5187 -0.1465
  124MOL0     C16631   5.182  -0.707   5.707  0.4055 -0.3070  1.2915
  124MOL0     C16632   5.048  -0.721   5.663  1.1477 -0.8370 -0.2160
  124MOL0     C16633   4.985  -0.845   5.646 -0.1538  0.0908 -0.5991
  124MOL0     C16634   4.841  -0.872   5.618 -0.4343  0.1233 -0.5335
  124MOL0     O16635   4.746  -0.782   5.656 -0.2097  0.7230 -0.1062
  124MOL0     C16636   4.621  -0.825   5.630  0.2888 -0.2412 -0.7985
  124MOL0     C16637   4.561  -0.812   5.503 -0.2372 -0.2980 -0.6250
  124MOL0     C16638   4.444  -0.878   5.474  0.2146 -0.5493 -0.4399
  124MOL0     C16639   4.383  -0.960   5.576 -0.1686 -0.1006  0.3430
  124MOL0     O16640   4.269  -1.028   5.556 -0.1123 -0.1813 -0.4734
  124MOL0     C16641   4.276  -1.125   5.452 -1.8587  0.3483  1.0604
  124MOL0     C16642   4.380  -1.235   5.454 -0.0817 -0.9090 -0.8492
  124MOL0     C16643   4.384  -1.313   5.573  1.0099 -0.5625 -0.0208
  124MOL0     C16644   4.262  -1.409   5.586 -1.1541 -0.0731 -0.0285
  124MOL0     C16645   4.252  -1.455   5.731  0.0302  0.0436 -0.1664
  124MOL0     C16646   4.155  -1.574   5.742  0.1099 -0.6989 -0.0070
  124MOL0     C16647   4.199  -1.672   5.855  0.5027 -0.9105 -0.4064
  124MOL0     C16648   4.195  -1.609   5.987  0.1894  0.3232 -0.0614
  124MOL0    Cl16649   4.360  -1.530   6.053 -0.3586 -0.4474 -0.1005
  124MOL0     C16650   4.433  -0.948   5.706  0.2936 -0.1180 -0.7861
  124MOL0     C16651   4.562  -0.896   5.733  0.1713  0.1100 -0.3284
  124MOL0     O16652   4.815  -0.981   5.566  0.3147  0.1218 -0.1479
  124MOL0     C16653   5.070  -0.961   5.662  0.0990 -0.5625 -0.3105
  124MOL0     C16654   5.202  -0.948   5.698  0.9481 -0.0083  0.5006
  124MOL0     N16655   5.837  -0.766   6.079 -0.0416 -0.3822  0.0917
  124MOL0     N16656   5.897  -0.652   6.095  0.4462 -0.0498  0.2694
  124MOL0     C16657   6.403   0.168   6.934 -0.1472  0.7790 -0.1942
  124MOL0     C16658   6.507   0.245   6.961  0.8909  0.5288  0.7714
  124MOL0     C16659   6.727   0.590   7.152  0.1081 -0.5367 -0.5186
  124MOL0     C16660   6.759   0.659   7.035 -0.1579  0.0336 -0.3614
  124MOL0     C16661   6.859   0.761   7.034 -0.6297  0.5894  0.0045
  124MOL0     C16662   6.919   0.799   7.156 -0.9161  0.2009  0.1545
  124MOL0     O16663   7.016   0.899   7.141  0.4825  0.5919 -0.0484
  124MOL0     C16664   7.089   0.942   7.259  0.3274  0.4040  0.4640
  124MOL0     C16665   7.193   1.053   7.247 -0.2990 -1.1462 -0.4935
  124MOL0     C16666   7.235   1.102   7.387 -0.7987 -0.1336  0.2256
  124MOL0     C16667   7.385   1.081   7.416 -0.2660  0.1006  0.5387
  124MOL0     C16668   7.470   1.161   7.331  1.6879  0.7716  0.6227
  124MOL0     C16669   7.519   1.256   7.275 -0.4863  0.8715  0.8090
  124MOL0     C16670   6.880   0.735   7.270 -0.3685  0.0039 -0.2540
  124MOL0     C16671   6.785   0.635   7.268 -0.3542 -0.3560 -0.0859
  124MOL0     C16672   6.755   0.577   7.401 -0.6091 -0.1168  0.6246
  124MOL0     H16673   6.339   0.541   7.004 -2.9295  0.4191 -2.1757
  124MOL0     H16674   6.152   0.403   6.931 -0.5375  0.0423  2.7130
  124MOL0     H16675   6.219  -0.018   6.803 -3.0440 -2.1305 -1.5354
  124MOL0     H16676   6.187  -0.044   6.987 -0.0860 -0.1674  0.9512
  124MOL0     H16677   5.966   0.030   6.790 -0.6394 -1.0692 -2.1215
  124MOL0     H16678   5.954  -0.039   6.950 -1.1856 -3.5626 -0.4997
  124MOL0     H16679   5.924  -0.237   6.838  0.2225 -1.0055 -1.7767
  124MOL0     H16680   6.096  -0.243   6.836 -1.0080 -0.8788  0.8016
  124MOL0     H16681   5.924  -0.108   6.608 -1.9973 -3.3822 -0.3219
  124MOL0     H16682   6.101  -0.143   6.591  1.4889 -2.7015  0.4315
  124MOL0     H16683   6.049  -0.389   6.615 -2.3028 -1.6420  0.2415
  124MOL0     H16684   5.882  -0.353   6.629  0.3366 -2.2659 -0.1010
  124MOL0     H16685   5.844  -0.256   6.430 -0.4433  0.7128  0.7653
  124MOL0     H16686   6.007  -0.272   6.364 -0.9593  0.6259 -1.0448
  124MOL0     H16687   5.798  -0.484   6.430 -0.0924 -1.4297  0.2400
  124MOL0     H16688   5.956  -0.534   6.404 -0.7181  0.0316 -2.7839
  124MOL0     H16689   5.781  -0.370   6.207 -0.5080 -0.4087  1.7911
  124MOL0     H16690   5.948  -0.389   6.176  0.8732  0.1170  2.7436
  124MOL0     H16691   5.612  -0.582   6.243  0.2754  1.3128  1.3166
  124MOL0     H16692   5.644  -0.949   6.103 -0.3540  0.4909  0.3807
  124MOL0     H16693   5.547  -0.859   6.223 -0.4680 -0.9590 -0.9086
  124MOL0     H16694   5.418  -0.877   6.021 -2.0810  2.0493 -0.7610
  124MOL0     H16695   5.453  -0.709   6.070 -0.6400  0.6991 -1.9079
  124MOL0     H16696   5.613  -0.853   5.858 -0.5865 -0.8517  1.2426
  124MOL0     H16697   5.640  -0.686   5.910  0.1619 -0.5948 -1.1994
  124MOL0     H16698   5.526  -0.675   5.708 -4.9108  0.5711 -3.7846
  124MOL0     H16699   5.406  -0.633   5.837 -1.0194 -0.7378 -0.7635
  124MOL0     H16700   5.228  -0.609   5.714 -2.7020  1.7053 -2.5482
  124MOL0     H16701   4.992  -0.629   5.648 -0.8570 -1.8593  0.5214
  124MOL0     H16702   4.600  -0.762   5.415 -2.3699  0.3133 -1.2802
  124MOL0     H16703   4.400  -0.855   5.377  0.1057  2.8820  0.2684
  124MOL0     H16704   4.189  -1.186   5.427 -0.7024 -0.9116 -0.0827
  124MOL0     H16705   4.300  -1.077   5.356  3.2117 -1.8448  0.9198
  124MOL0     H16706   4.377  -1.306   5.370 -0.8207 -1.1425 -0.6395
  124MOL0     H16707   4.478  -1.187   5.445  1.2805 -3.1652  0.8931
  124MOL0     H16708   4.471  -1.379   5.585  1.9238  0.5521 -0.3621
  124MOL0     H16709   4.392  -1.246   5.659  0.0888  0.7765 -0.9546
  124MOL0     H16710   4.276  -1.500   5.527 -3.4295  0.2165 -1.1186
  124MOL0     H16711   4.164  -1.363   5.568 -0.9157 -0.5652 -3.1398
  124MOL0     H16712   4.213  -1.382   5.803  0.1211 -2.0089  2.1148
  124MOL0     H16713   4.352  -1.486   5.763  0.0178 -1.9888 -1.8725
  124MOL0     H16714   4.056  -1.529   5.749 -0.3771 -1.3646 -2.0845
  124MOL0     H16715   4.160  -1.630   5.648 -1.6699  1.1742 -1.3145
  124MOL0     H16716   4.298  -1.717   5.848  0.7267 -1.0450  2.4810
  124MOL0     H16717   4.122  -1.749   5.860 -3.0132  2.2723 -0.8963
  124MOL0     H16718   4.117  -1.533   5.980  1.1180  1.1716 -1.9994
  124MOL0     H16719   4.160  -1.682   6.060 -3.1247  2.4394  0.6563
  124MOL0     H16720   4.387  -0.984   5.797  0.2997  2.8949  0.5257
  124MOL0     H16721   4.616  -0.909   5.827 -1.1232 -1.4410  0.2490
  124MOL0     H16722   5.036  -1.064   5.659  0.7294 -0.8960  1.9542
  124MOL0     H16723   5.266  -1.036   5.695  0.0945 -0.6684  1.1620
  124MOL0     H16724   6.420   0.063   6.914 -1.4163  0.6166 -0.5597
  124MOL0     H16725   6.608   0.206   6.953  1.6395  2.6339 -1.0494
  124MOL0     H16726   6.698   0.640   6.947 -1.7162 -2.2087  1.1048
  124MOL0     H16727   6.887   0.807   6.940  3.5030  2.1519  1.7841
  124MOL0     H16728   7.148   0.862   7.303 -0.1438  0.4779  1.2530
  124MOL0     H16729   7.014   0.973   7.332 -0.8292  0.7644 -0.8310
  124MOL0     H16730   7.147   1.140   7.199  0.1662 -0.2335  0.6633
  124MOL0     H16731   7.280   1.033   7.184  1.1062 -0.2765  1.1032
  124MOL0     H16732   7.181   1.051   7.467 -0.9764  2.8189  2.1239
  124MOL0     H16733   7.201   1.205   7.399 -3.2392 -0.9931  1.3200
  124MOL0     H16734   7.418   1.092   7.520  1.6824 -2.3168  0.2666
  124MOL0     H16735   7.412   0.978   7.389 -1.7159  0.0662 -0.9008
  124MOL0     H16736   7.553   1.340   7.219 -3.0715 -0.7362 -3.7018
  124MOL0     H16737   6.934   0.766   7.358  4.0075  1.2847 -3.0698
  124MOL0     H16738   6.654   0.599   7.439 -0.9855  1.0737 -0.9674
  124MOL0     H16739   6.754   0.468   7.389 -2.0858 -0.1396  0.7430
  124MOL0     H16740   6.829   0.605   7.476 -3.0252  1.5305  2.6002
  125MOL0     O16741   2.182   1.160   4.117 -0.1182 -0.2737 -0.3948
  125MOL0     C16742   2.180   1.066   4.203 -0.0669  0.1234  0.7946
  125MOL0     O16743   2.273   1.046   4.305 -0.1690 -0.6829 -0.5769
  125MOL0     C16744   2.352   1.155   4.339 -0.5287  0.1867  0.1120
  125MOL0     C16745   2.489   1.137   4.322 -0.1566 -1.1703 -0.0058
  125MOL0     C16746   2.577   1.240   4.367 -0.1017 -0.2446  0.3561
  125MOL0     C16747   2.523   1.361   4.411 -0.0401 -0.5595 -0.1056
  125MOL0     O16748   2.602   1.453   4.469 -0.3723 -0.0942 -0.4435
  125MOL0     C16749   2.643   1.424   4.608 -0.1045 -0.1949 -0.5342
  125MOL0     C16750   2.785   1.375   4.614 -0.0586  0.6578  0.9504
  125MOL0     C16751   2.890   1.484   4.583  0.1899 -0.3771  0.4505
  125MOL0     C16752   3.013   1.416   4.515  0.8151  0.4231 -1.2024
  125MOL0     C16753   3.118   1.525   4.493 -0.3641  0.5012  0.3700
  125MOL0     C16754   3.249   1.470   4.439 -0.1959  0.0939  0.6152
  125MOL0     C16755   3.355   1.578   4.398  0.1027  0.4409  0.3701
  125MOL0     C16756   3.318   1.622   4.256  0.0728 -0.7084 -0.6376
  125MOL0     N16757   3.420   1.722   4.224 -0.1062 -0.0608  0.8226
  125MOL0     C16758   3.550   1.691   4.194  0.1690  0.0566 -0.2548
  125MOL0     C16759   3.610   1.801   4.178 -0.1034  0.0139  0.6187
  125MOL0     C16760   3.757   1.814   4.165  0.8200  0.4448 -0.5599
  125MOL0     C16761   3.795   1.820   4.022  0.1053 -0.2844 -0.1229
  125MOL0     C16762   3.928   1.889   4.000  0.5163  0.0628  0.5371
  125MOL0     C16763   3.914   2.043   3.998  1.1239 -0.4647 -0.3160
  125MOL0     O16764   3.998   2.088   4.109  0.2632 -0.7664 -0.2051
  125MOL0     C16765   4.131   2.108   4.096 -0.0524 -0.4907 -0.2861
  125MOL0     C16766   4.189   2.140   4.216 -0.8922 -0.8490  0.2795
  125MOL0     C16767   4.325   2.181   4.222  0.9735  0.1266  0.2927
  125MOL0     C16768   4.412   2.169   4.107  0.3501 -0.1152 -0.4110
  125MOL0     C16769   4.557   2.208   4.103 -0.5350 -0.5863 -0.0025
  125MOL0     O16770   4.607   2.273   4.214 -0.0536  0.5117  0.1620
  125MOL0     C16771   4.740   2.261   4.250  0.8223  0.0037  0.0838
  125MOL0     C16772   4.794   2.137   4.298 -0.6100 -0.4850  0.6393
  125MOL0     C16773   4.930   2.130   4.308 -0.0403 -0.2148  0.5833
  125MOL0     C16774   5.015   2.243   4.285  0.7505  0.0982 -0.4268
  125MOL0     O16775   5.149   2.228   4.292 -0.4891  0.6037 -0.7483
  125MOL0     C16776   5.213   2.322   4.382  0.0413 -0.4037 -0.2891
  125MOL0     C16777   5.350   2.373   4.319  0.1655 -0.6818 -0.5596
  125MOL0     C16778   5.438   2.450   4.419  0.0243 -0.3132  0.2894
  125MOL0     C16779   5.557   2.495   4.344 -0.1086  0.0497  0.1036
  125MOL0     C16780   5.628   2.596   4.437 -0.3314  0.5707 -0.0480
  125MOL0     C16781   5.739   2.665   4.354 -0.1627  0.1160 -0.3931
  125MOL0     C16782   5.812   2.784   4.427  0.4057  0.5186  0.4287
  125MOL0     C16783   5.727   2.889   4.497  0.8660  0.8155  0.2269
  125MOL0    Cl16784   5.598   2.972   4.396  0.1567  0.1375 -0.1728
  125MOL0     C16785   4.957   2.365   4.247 -0.0315  0.2841 -0.3538
  125MOL0     C16786   4.823   2.377   4.238  1.2729  0.9703 -0.6354
  125MOL0     O16787   4.628   2.147   4.023 -0.6483 -0.1774  0.0533
  125MOL0     C16788   4.350   2.129   3.987  0.3504 -0.2038  0.5768
  125MOL0     C16789   4.209   2.110   3.983 -0.5087  0.1502 -0.7423
  125MOL0     N16790   3.524   1.901   4.202  0.0569 -0.0634 -0.2821
  125MOL0     N16791   3.403   1.856   4.215 -0.3831  0.1470  0.5010
  125MOL0     C16792   2.385   1.379   4.415  0.0907  0.0715 -0.6596
  125MOL0     C16793   2.297   1.279   4.377  0.7834  0.2024 -0.7265
  125MOL0     C16794   2.066   0.976   4.198 -0.0945  0.0740 -0.3728
  125MOL0     C16795   1.948   1.026   4.154 -0.0772 -0.1738 -0.1265
  125MOL0     C16796   1.825   0.952   4.162  0.0299  0.2843 -0.2608
  125MOL0     C16797   1.829   0.815   4.199 -0.6893 -0.0970 -1.0183
  125MOL0     O16798   1.711   0.745   4.200  0.6408  0.2340 -0.0821
  125MOL0     C16799   1.614   0.771   4.100  0.8290  0.6243 -0.7547
  125MOL0     C16800   1.648   0.720   3.952  1.0808  0.6771 -0.1783
  125MOL0     C16801   1.677   0.566   3.955  0.4329  0.3515 -0.4548
  125MOL0     C16802   1.710   0.500   3.827 -0.5556  0.1042 -0.0562
  125MOL0     C16803   1.846   0.532   3.773  0.6571 -0.1157 -0.4033
  125MOL0     C16804   1.945   0.582   3.710  0.0201 -0.0256  0.0223
  125MOL0     C16805   1.954   0.765   4.237  1.1252  0.9428  0.0393
  125MOL0     C16806   2.072   0.833   4.235  0.4488 -1.2520  0.0547
  125MOL0     C16807   2.185   0.768   4.300 -0.4329  0.3029 -0.5997
  125MOL0     H16808   2.529   1.041   4.291  3.1051 -0.4317  1.4906
  125MOL0     H16809   2.685   1.231   4.368 -0.0717  0.1345  1.2267
  125MOL0     H16810   2.647   1.514   4.671  1.8394 -0.5791 -0.0470
  125MOL0     H16811   2.584   1.341   4.647  0.5301 -1.3405 -1.9207
  125MOL0     H16812   2.793   1.294   4.540 -4.2075 -0.8178  1.8140
  125MOL0     H16813   2.808   1.319   4.705 -2.3859 -3.9315 -0.9597
  125MOL0     H16814   2.921   1.528   4.679 -1.9017  0.2205  0.9061
  125MOL0     H16815   2.851   1.563   4.519  1.5013 -2.0613 -2.6465
  125MOL0     H16816   3.048   1.343   4.588 -0.0577  1.8716  0.7525
  125MOL0     H16817   2.983   1.376   4.418 -1.3910  0.3994 -0.5774
  125MOL0     H16818   3.085   1.616   4.442 -0.8258 -0.5037 -1.2016
  125MOL0     H16819   3.140   1.560   4.594 -0.2334  1.1941  0.1050
  125MOL0     H16820   3.290   1.407   4.519  1.9864  0.3501 -0.2276
  125MOL0     H16821   3.239   1.415   4.345  0.0468 -0.4327  0.8962
  125MOL0     H16822   3.448   1.523   4.385 -0.5346 -0.3559 -0.9223
  125MOL0     H16823   3.361   1.656   4.475 -1.1826  0.6673  0.2791
  125MOL0     H16824   3.315   1.545   4.179  2.5207 -0.7300 -0.7822
  125MOL0     H16825   3.220   1.671   4.251 -0.2102 -1.3509 -1.6332
  125MOL0     H16826   3.592   1.591   4.200 -2.2795 -0.9663  3.2785
  125MOL0     H16827   3.771   1.916   4.204  1.4067  0.4019 -0.6538
  125MOL0     H16828   3.822   1.755   4.230 -0.5084  0.8037  1.1625
  125MOL0     H16829   3.814   1.718   3.989  1.1849  0.4734 -2.0072
  125MOL0     H16830   3.725   1.872   3.955  0.7479  1.2881  0.3742
  125MOL0     H16831   3.970   1.850   3.906  1.7396  0.7718  0.7698
  125MOL0     H16832   4.004   1.856   4.071  2.1242 -2.7967 -2.2640
  125MOL0     H16833   3.811   2.078   4.001  1.4837  0.5866  2.1973
  125MOL0     H16834   3.944   2.077   3.899  0.8967  3.0918  0.7112
  125MOL0     H16835   4.129   2.146   4.306  0.1622  1.3455  0.8956
  125MOL0     H16836   4.373   2.203   4.317 -0.1142 -1.6978  1.3263
  125MOL0     H16837   4.735   2.046   4.308 -1.8132  0.3884  1.8083
  125MOL0     H16838   4.988   2.044   4.338  1.5865  0.8150  0.4927
  125MOL0     H16839   5.153   2.410   4.406  0.8630 -0.2549  1.4433
  125MOL0     H16840   5.230   2.274   4.479  1.3444  0.5684 -0.0004
  125MOL0     H16841   5.406   2.285   4.285 -1.2431 -0.6354 -3.2725
  125MOL0     H16842   5.318   2.440   4.239  2.2926  0.1297 -0.7934
  125MOL0     H16843   5.386   2.543   4.443 -3.0165 -1.2620 -1.9942
  125MOL0     H16844   5.464   2.395   4.509 -3.9543 -1.0307  1.1535
  125MOL0     H16845   5.544   2.533   4.242 -1.6017  0.0686  0.2800
  125MOL0     H16846   5.622   2.407   4.344  2.0188  1.4944 -1.2404
  125MOL0     H16847   5.661   2.548   4.530  1.3026 -3.0538 -2.2677
  125MOL0     H16848   5.550   2.670   4.460 -3.1244 -1.9176 -0.9390
  125MOL0     H16849   5.816   2.594   4.322  1.8318  1.7167  0.6578
  125MOL0     H16850   5.693   2.698   4.260 -2.8426 -2.3471 -0.0740
  125MOL0     H16851   5.869   2.841   4.352 -1.1194 -0.3313 -1.4717
  125MOL0     H16852   5.892   2.753   4.495  0.7913  2.3150  0.8339
  125MOL0     H16853   5.681   2.840   4.583  0.4756 -0.8848 -0.9154
  125MOL0     H16854   5.798   2.964   4.535 -0.2369  2.5347 -0.9566
  125MOL0     H16855   5.015   2.455   4.235 -2.6270  2.2954  1.0135
  125MOL0     H16856   4.788   2.479   4.229 -0.2904  0.4853 -0.4043
  125MOL0     H16857   4.416   2.123   3.900  0.8992  1.1272  0.8750
  125MOL0     H16858   4.165   2.096   3.885 -4.2498  0.3193  0.7566
  125MOL0     H16859   2.342   1.471   4.453 -0.4215 -0.7774  0.9359
  125MOL0     H16860   2.192   1.305   4.367  0.7151  0.7994  1.1632
  125MOL0     H16861   1.948   1.131   4.124  0.2684 -0.7455 -2.3640
  125MOL0     H16862   1.747   1.022   4.132  2.2634  2.0298 -2.3569
  125MOL0     H16863   1.588   0.877   4.104  0.4932  0.4951  2.2652
  125MOL0     H16864   1.523   0.718   4.129  0.3795  0.8420 -1.7115
  125MOL0     H16865   1.740   0.763   3.910  2.1460 -1.1928  0.1254
  125MOL0     H16866   1.566   0.738   3.882  0.6251  1.5841  0.5714
  125MOL0     H16867   1.592   0.505   3.986  1.1272 -1.3878 -1.7866
  125MOL0     H16868   1.763   0.562   4.023  1.3354  0.3840 -1.5720
  125MOL0     H16869   1.697   0.392   3.836 -2.6384  0.1240 -2.0269
  125MOL0     H16870   1.635   0.529   3.753 -1.3383  1.4378  1.1976
  125MOL0     H16871   2.038   0.614   3.667  0.0429 -1.0073 -0.6853
  125MOL0     H16872   1.952   0.659   4.261  1.3741  1.0537  0.5683
  125MOL0     H16873   2.187   0.659   4.293 -0.8159 -0.1873  3.9665
  125MOL0     H16874   2.285   0.801   4.270 -0.4170 -2.0207 -3.7009
  125MOL0     H16875   2.170   0.783   4.407 -1.1755  1.4172 -0.8431
  126MOL0     O16876   3.816   9.488   1.609  0.3970 -0.3272  0.0412
  126MOL0     C16877   3.844   9.586   1.687  0.1707 -0.8541 -0.1194
  126MOL0     O16878   3.943   9.595   1.779 -0.2957 -0.4889 -0.4996
  126MOL0     C16879   4.039   9.504   1.809  0.6313 -0.6641  0.4538
  126MOL0     C16880   4.032   9.372   1.774  0.4259  0.1908  0.1860
  126MOL0     C16881   4.130   9.279   1.808  0.0729 -0.0063  0.4574
  126MOL0     C16882   4.234   9.321   1.890  0.2480 -0.4537 -0.1954
  126MOL0     O16883   4.337   9.243   1.923  0.5772 -0.7462 -0.0662
  126MOL0     C16884   4.305   9.108   1.939 -0.1642  0.0774  0.4391
  126MOL0     C16885   4.428   9.048   2.004 -0.8875 -0.2030  0.4311
  126MOL0     C16886   4.535   9.006   1.911  1.0380  0.4618  0.3533
  126MOL0     C16887   4.664   9.021   1.985  0.3580  1.0442 -0.1190
  126MOL0     C16888   4.788   8.976   1.896 -0.7892 -0.1626 -0.0223
  126MOL0     C16889   4.922   9.033   1.950 -0.1643  0.6956  0.7565
  126MOL0     C16890   5.042   8.964   1.901  0.7876 -0.2531  0.2887
  126MOL0     C16891   5.069   8.828   1.968  0.4938 -0.4651  0.4225
  126MOL0     N16892   5.127   8.844   2.102 -0.2399 -0.1203  0.6611
  126MOL0     C16893   5.059   8.862   2.215 -0.8306  0.0069 -0.6107
  126MOL0     C16894   5.154   8.894   2.304  0.6442  0.9846 -0.2648
  126MOL0     C16895   5.144   8.938   2.447  0.1277  0.4438  0.3884
  126MOL0     C16896   5.159   9.094   2.464  0.2208 -0.2261 -0.8376
  126MOL0     C16897   5.127   9.122   2.612 -0.9215 -0.4351  0.1477
  126MOL0     C16898   5.080   9.264   2.607  0.2586 -0.2413  0.2100
  126MOL0     O16899   4.946   9.257   2.558 -0.5523 -0.3656 -0.9301
  126MOL0     C16900   4.883   9.369   2.523  0.8006  0.3624  1.1428
  126MOL0     C16901   4.915   9.498   2.569  0.5812  0.4630  0.6733
  126MOL0     C16902   4.843   9.603   2.515  0.5878  0.2539 -1.0106
  126MOL0     C16903   4.736   9.589   2.437 -0.6227  0.3166 -0.7384
  126MOL0     C16904   4.658   9.713   2.399 -0.3076 -0.4776  0.9404
  126MOL0     O16905   4.709   9.833   2.426  0.1747 -0.0634 -0.6381
  126MOL0     C16906   4.646   9.951   2.393  0.4228  0.4284 -0.3294
  126MOL0     C16907   4.715  10.058   2.327  0.4471 -0.4788  1.3006
  126MOL0     C16908   4.653  10.175   2.296  0.3204  0.5081  0.2798
  126MOL0     C16909   4.542  10.204   2.355  0.1376 -0.0728 -0.9005
  126MOL0     O16910   4.494  10.335   2.323 -0.0836 -0.7307 -0.0430
  126MOL0     C16911   4.406  10.402   2.417 -0.5658  0.0033 -0.1790
  126MOL0     C16912   4.372  10.549   2.368 -0.4102  0.3424  0.1088
  126MOL0     C16913   4.324  10.626   2.490  0.0921 -0.1572  0.4495
  126MOL0     C16914   4.441  10.652   2.585  0.0236  0.0336  0.0966
  126MOL0     C16915   4.393  10.772   2.682 -0.4800  0.5846  0.3426
  126MOL0     C16916   4.501  10.789   2.793  0.1822 -0.1136  0.0324
  126MOL0     C16917   4.476  10.917   2.868 -0.3970 -0.0580 -0.3268
  126MOL0     C16918   4.559  10.917   2.994  0.4497 -1.4369  0.7348
  126MOL0    Cl16919   4.490  10.800   3.113  0.2325 -0.2342  0.1759
  126MOL0     C16920   4.470  10.102   2.423  0.0567  0.1843  0.3005
  126MOL0     C16921   4.510   9.973   2.434 -1.1151  0.0300 -0.3904
  126MOL0     O16922   4.541   9.693   2.342  0.5755 -0.1933 -0.4347
  126MOL0     C16923   4.700   9.457   2.393 -0.6945 -0.8822  0.3770
  126MOL0     C16924   4.771   9.347   2.435 -0.6419 -0.1432  0.1384
  126MOL0     N16925   5.274   8.881   2.236 -0.4206  0.0460 -0.5112
  126MOL0     N16926   5.261   8.861   2.115  0.0756 -0.0123  0.3046
  126MOL0     C16927   4.238   9.457   1.927  0.6460 -0.6155  0.4370
  126MOL0     C16928   4.146   9.555   1.889  0.3628  0.6633  0.5991
  126MOL0     C16929   3.730   9.682   1.712 -0.5327 -0.1089 -0.0600
  126MOL0     C16930   3.597   9.644   1.696  0.2408 -0.6709  0.0590
  126MOL0     C16931   3.494   9.736   1.720 -0.9858 -0.4202  0.9101
  126MOL0     C16932   3.522   9.867   1.746  0.1903 -0.4559  0.3409
  126MOL0     O16933   3.401   9.939   1.745  0.2283  0.4811  0.7947
  126MOL0     C16934   3.407  10.069   1.806 -0.2773 -0.1353  0.6142
  126MOL0     C16935   3.437  10.055   1.955  1.6731  1.0267 -0.0055
  126MOL0     C16936   3.401  10.181   2.034  0.2988 -0.5893  0.9093
  126MOL0     C16937   3.458  10.171   2.178 -0.4008  0.3275  0.6345
  126MOL0     C16938   3.439  10.294   2.252 -0.0205  0.9624 -0.1596
  126MOL0     C16939   3.418  10.392   2.315 -0.2553  0.2113 -0.9545
  126MOL0     C16940   3.658   9.912   1.752  0.0582  0.8337  0.6364
  126MOL0     C16941   3.763   9.816   1.735  0.0609 -0.2323 -0.1222
  126MOL0     C16942   3.903   9.872   1.742  0.1407  0.2079  0.7884
  126MOL0     H16943   3.938   9.338   1.731  0.8224 -2.3578  1.1564
  126MOL0     H16944   4.120   9.184   1.756 -0.1902  1.3583 -2.1457
  126MOL0     H16945   4.215   9.084   1.995  0.1433 -0.5931  0.6540
  126MOL0     H16946   4.294   9.061   1.841  1.2770 -2.8801  1.5591
  126MOL0     H16947   4.396   8.957   2.056 -0.8525 -1.1505 -1.1356
  126MOL0     H16948   4.468   9.117   2.079  2.3147  1.6230 -2.6950
  126MOL0     H16949   4.529   9.068   1.822 -1.3817 -2.5013 -1.7524
  126MOL0     H16950   4.524   8.908   1.864 -0.6046  1.2347 -0.9330
  126MOL0     H16951   4.681   9.124   2.015 -2.5872  1.3139  1.0101
  126MOL0     H16952   4.664   8.955   2.073  0.0369 -0.0922 -0.9444
  126MOL0     H16953   4.797   8.867   1.892  3.9455  0.0406 -1.3878
  126MOL0     H16954   4.766   8.997   1.791 -0.2665 -2.2629 -0.6095
  126MOL0     H16955   4.913   9.139   1.927 -4.5093  1.0594  3.0860
  126MOL0     H16956   4.907   9.024   2.058 -2.9184  2.8157  0.6684
  126MOL0     H16957   5.127   9.031   1.909 -0.6152  1.6939 -0.2697
  126MOL0     H16958   5.021   8.952   1.794  3.5984  1.9804 -0.6378
  126MOL0     H16959   4.982   8.762   1.976  0.2265 -0.3783 -1.3668
  126MOL0     H16960   5.141   8.772   1.907 -0.7337 -2.9252  1.0850
  126MOL0     H16961   4.952   8.845   2.214 -0.5034 -2.3550 -1.5382
  126MOL0     H16962   5.046   8.901   2.477  1.5053 -2.2784  1.8584
  126MOL0     H16963   5.224   8.901   2.512  1.3223  4.2003  1.3150
  126MOL0     H16964   5.256   9.136   2.435 -1.1220  2.4394 -1.7957
  126MOL0     H16965   5.088   9.148   2.400 -1.3655  3.1908  3.3144
  126MOL0     H16966   5.215   9.108   2.675 -1.7645  1.1451  1.7678
  126MOL0     H16967   5.054   9.049   2.647  0.5026 -0.5604  3.1368
  126MOL0     H16968   5.136   9.328   2.538  2.2615 -0.7878  1.2446
  126MOL0     H16969   5.078   9.303   2.709 -0.1783 -2.4177  1.0882
  126MOL0     H16970   4.995   9.508   2.642  0.0842 -0.3225  1.3524
  126MOL0     H16971   4.855   9.706   2.545  1.2058 -0.5590  1.8777
  126MOL0     H16972   4.819  10.041   2.300  1.3738  0.9218  3.6671
  126MOL0     H16973   4.716  10.249   2.247 -0.4529  1.1007  0.1613
  126MOL0     H16974   4.314  10.346   2.437  1.5952 -3.3193  1.3681
  126MOL0     H16975   4.454  10.392   2.514 -0.6974  1.3225  0.0319
  126MOL0     H16976   4.466  10.596   2.336 -1.7189  1.4902 -2.2492
  126MOL0     H16977   4.306  10.540   2.282  1.6618 -2.2554 -1.3888
  126MOL0     H16978   4.276  10.721   2.466  1.0035  0.4932  1.1373
  126MOL0     H16979   4.245  10.559   2.525 -2.0236  1.2817 -1.3073
  126MOL0     H16980   4.537  10.670   2.536  1.0540  0.2000  2.0878
  126MOL0     H16981   4.454  10.560   2.642  0.9835 -1.0987 -1.8376
  126MOL0     H16982   4.294  10.747   2.722 -0.8982 -0.1156 -1.0254
  126MOL0     H16983   4.386  10.867   2.629 -1.3602  0.3330 -0.0251
  126MOL0     H16984   4.488  10.703   2.861  1.6384 -0.8275 -0.5597
  126MOL0     H16985   4.604  10.782   2.757  0.3014  4.8545 -1.2906
  126MOL0     H16986   4.369  10.934   2.882 -0.2426 -0.8162  2.3430
  126MOL0     H16987   4.497  11.003   2.804 -1.1073  0.9791  0.7889
  126MOL0     H16988   4.666  10.898   2.981 -0.0788 -3.3578 -1.3299
  126MOL0     H16989   4.544  11.011   3.048 -2.3601 -3.0639  3.0349
  126MOL0     H16990   4.378  10.135   2.470 -0.3210  0.6053 -0.7091
  126MOL0     H16991   4.463   9.893   2.489  1.9667 -2.6593 -1.3259
  126MOL0     H16992   4.611   9.458   2.331 -1.0380  2.1430  0.7509
  126MOL0     H16993   4.762   9.246   2.398  4.5063 -0.2674 -1.5760
  126MOL0     H16994   4.319   9.476   1.997  1.1814 -2.1332  0.2750
  126MOL0     H16995   4.157   9.659   1.919  0.1310  0.5979  0.9237
  126MOL0     H16996   3.560   9.544   1.677 -0.7935 -0.5358  1.2886
  126MOL0     H16997   3.388   9.713   1.712 -0.9693 -1.2941  2.7328
  126MOL0     H16998   3.313  10.117   1.779 -0.5696 -0.7088  0.6156
  126MOL0     H16999   3.485  10.129   1.757 -1.5883  0.9692 -0.1620
  126MOL0     H17000   3.540  10.023   1.972  0.5688 -3.8969 -1.0618
  126MOL0     H17001   3.370   9.973   1.983  1.5965  0.4357 -1.7658
  126MOL0     H17002   3.293  10.186   2.050 -0.3608 -3.5374 -1.7066
  126MOL0     H17003   3.440  10.261   1.971  0.2605  0.7567  2.5100
  126MOL0     H17004   3.400  10.088   2.220  1.2875 -1.6692 -0.8313
  126MOL0     H17005   3.565  10.155   2.194 -0.3554  0.7178  0.7437
  126MOL0     H17006   3.402  10.474   2.382  1.7995 -0.7356  0.7971
  126MOL0     H17007   3.687  10.012   1.780  1.8879  0.4992  0.1084
  126MOL0     H17008   3.958   9.866   1.648 -1.5185 -0.8187 -0.1623
  126MOL0     H17009   3.899   9.977   1.774  1.9705  1.6049 -2.9725
  126MOL0     H17010   3.954   9.814   1.820  0.2916 -6.5794 -3.5295
  127MOL0     O17011   1.440   3.958  10.511 -1.0513  0.5550 -0.3248
  127MOL0     C17012   1.339   4.020  10.504  0.4833 -0.1049 -0.4050
  127MOL0     O17013   1.214   3.965  10.497  0.5640  1.1726  0.3993
  127MOL0     C17014   1.190   3.847  10.569 -0.0604  0.0529  0.3370
  127MOL0     C17015   1.216   3.729  10.506 -0.2531  0.2860 -0.7185
  127MOL0     C17016   1.206   3.607  10.586  0.4086  0.5345  0.3968
  127MOL0     C17017   1.167   3.615  10.723 -0.0364 -0.0869  0.7285
  127MOL0     O17018   1.137   3.508  10.802  0.3338  0.7378  0.4029
  127MOL0     C17019   1.134   3.376  10.753 -0.1342 -0.1511 -0.0495
  127MOL0     C17020   1.092   3.292  10.874 -0.6994 -0.3613  0.3284
  127MOL0     C17021   1.194   3.289  10.990 -1.4192  0.3365  0.4984
  127MOL0     C17022   1.227   3.146  11.027  0.2365 -0.4355  0.7392
  127MOL0     C17023   1.324   3.143  11.141 -0.1681 -0.1933  0.3368
  127MOL0     C17024   1.384   2.999  11.182  1.0997 -0.0234  0.4467
  127MOL0     C17025   1.268   2.907  11.239 -0.2051  0.0348  0.4453
  127MOL0     C17026   1.230   2.920  11.384  0.4123 -0.2091  0.1682
  127MOL0     N17027   1.176   3.044  11.420 -0.4212  0.3900 -0.8230
  127MOL0     C17028   1.068   3.109  11.374 -0.4618 -0.6782 -0.4254
  127MOL0     C17029   1.059   3.226  11.446 -0.1653  0.8434  0.4499
  127MOL0     C17030   0.941   3.315  11.441  0.1150  0.4056 -0.0279
  127MOL0     C17031   0.943   3.372  11.299 -0.1989 -0.2434  0.0584
  127MOL0     C17032   0.869   3.510  11.300  0.2545 -0.1306 -1.1793
  127MOL0     C17033   0.891   3.579  11.167 -0.1302  0.1814 -0.4494
  127MOL0     O17034   0.820   3.703  11.174  0.3350 -0.0012  0.3189
  127MOL0     C17035   0.792   3.760  11.055  0.2334  0.8581  0.4128
  127MOL0     C17036   0.705   3.702  10.960 -0.7402 -0.4075  0.6662
  127MOL0     C17037   0.701   3.757  10.828  0.0385  0.1169 -0.9003
  127MOL0     C17038   0.774   3.875  10.801  0.1696  0.6523  0.5562
  127MOL0     C17039   0.783   3.925  10.663 -0.1987 -0.3565  0.6494
  127MOL0     O17040   0.731   3.851  10.559  0.7188 -0.4174  0.7901
  127MOL0     C17041   0.750   3.866  10.426 -0.7758  0.1877  0.2822
  127MOL0     C17042   0.647   3.878  10.332  0.7817 -0.8743  0.9659
  127MOL0     C17043   0.674   3.907  10.197  0.8861 -0.6848 -1.0400
  127MOL0     C17044   0.807   3.911  10.156 -0.1686 -0.6166 -0.7916
  127MOL0     O17045   0.824   3.939  10.025  0.3266  0.7880  0.5549
  127MOL0     C17046   0.791   4.078   9.991 -0.8027 -0.0275 -0.9913
  127MOL0     C17047   0.908   4.176  10.003 -0.4591 -1.1158  0.0770
  127MOL0     C17048   0.876   4.313   9.958 -0.2968 -0.4078 -0.2816
  127MOL0     C17049   0.998   4.403   9.972  0.2243  0.4312 -0.9815
  127MOL0     C17050   1.005   4.523   9.878  0.5642 -0.6280 -0.0594
  127MOL0     C17051   0.965   4.660   9.937 -0.0884  0.3714  0.6153
  127MOL0     C17052   1.071   4.707  10.040 -0.5293  0.3367 -0.1180
  127MOL0     C17053   1.105   4.854  10.027 -0.3777  0.0098  0.1046
  127MOL0    Cl17054   1.231   4.886   9.900 -0.2307 -0.4462  0.3744
  127MOL0     C17055   0.915   3.888  10.251 -0.0955 -1.2653  1.0042
  127MOL0     C17056   0.882   3.875  10.377  0.1716 -0.7417 -0.4477
  127MOL0     O17057   0.851   4.034  10.651 -0.5779  0.2305 -0.0276
  127MOL0     C17058   0.862   3.933  10.902  0.6446  0.2600  0.3345
  127MOL0     C17059   0.859   3.875  11.029  0.1761  0.4550 -0.7719
  127MOL0     N17060   1.156   3.226  11.538  0.6055  0.2153 -0.0159
  127MOL0     N17061   1.224   3.113  11.525 -0.2671  1.0149 -0.2224
  127MOL0     C17062   1.140   3.734  10.772 -0.0055  0.3008 -0.9070
  127MOL0     C17063   1.167   3.850  10.703 -0.2084  0.4843  0.3381
  127MOL0     C17064   1.365   4.168  10.465  0.3321 -1.0483  0.0402
  127MOL0     C17065   1.457   4.239  10.543 -0.0079 -0.0574  0.5602
  127MOL0     C17066   1.499   4.367  10.514  0.9740  0.3960 -0.3665
  127MOL0     C17067   1.430   4.442  10.418  0.3776  0.5065  0.6433
  127MOL0     O17068   1.448   4.573  10.399  0.1362 -0.1066 -0.1760
  127MOL0     C17069   1.483   4.664  10.505 -0.8954  1.0487  0.4450
  127MOL0     C17070   1.501   4.801  10.452  1.1199  0.6664  0.1510
  127MOL0     C17071   1.358   4.850  10.418  0.3142 -0.2324  0.3750
  127MOL0     C17072   1.368   4.999  10.410 -0.4392 -0.4033  0.2463
  127MOL0     C17073   1.447   5.057  10.301  0.1849  0.1846  0.0475
  127MOL0     C17074   1.504   5.111  10.203  0.1190  0.3339  0.6406
  127MOL0     C17075   1.333   4.370  10.335 -0.1535  0.2417 -0.3397
  127MOL0     C17076   1.303   4.233  10.356  0.4711  0.4887 -0.1856
  127MOL0     C17077   1.203   4.173  10.261  1.0658  0.8507 -0.2550
  127MOL0     H17078   1.257   3.722  10.405  0.3633 -2.3692 -0.3642
  127MOL0     H17079   1.231   3.509  10.546 -2.2464  1.0704 -2.9870
  127MOL0     H17080   1.058   3.362  10.675  1.6771 -1.7598 -1.6459
  127MOL0     H17081   1.231   3.346  10.713  0.2453 -1.0598  1.4966
  127MOL0     H17082   1.083   3.192  10.831  1.1198 -0.9410  1.2015
  127MOL0     H17083   0.995   3.332  10.904 -1.1335 -1.4105  0.3508
  127MOL0     H17084   1.150   3.347  11.072  1.0268  3.3775 -0.1525
  127MOL0     H17085   1.280   3.349  10.959 -0.9547 -0.1772  0.7727
  127MOL0     H17086   1.130   3.097  11.040 -0.1273  0.0372 -0.1096
  127MOL0     H17087   1.282   3.096  10.947 -0.8769 -1.2488  0.4533
  127MOL0     H17088   1.413   3.201  11.115  0.5481 -1.5474 -0.3441
  127MOL0     H17089   1.282   3.195  11.227 -0.4737 -1.0308  0.7080
  127MOL0     H17090   1.421   2.947  11.094 -0.7005 -2.5103  1.0525
  127MOL0     H17091   1.466   3.026  11.249  2.2680  0.7429 -1.2196
  127MOL0     H17092   1.310   2.807  11.221 -1.2702 -0.0407 -1.9734
  127MOL0     H17093   1.179   2.924  11.177  0.8853 -0.5462 -1.3479
  127MOL0     H17094   1.154   2.849  11.418  0.9786 -0.4313  1.0047
  127MOL0     H17095   1.313   2.888  11.448  0.2718 -0.0099  0.4486
  127MOL0     H17096   0.993   3.082  11.301  0.0551  1.8567 -2.0221
  127MOL0     H17097   0.846   3.268  11.471 -1.3340  2.7976 -0.6355
  127MOL0     H17098   0.940   3.394  11.516 -1.9134  0.7954 -0.4011
  127MOL0     H17099   1.048   3.380  11.270 -0.6404  1.1952 -1.2939
  127MOL0     H17100   0.882   3.315  11.228 -3.5093 -0.3201  2.7234
  127MOL0     H17101   0.930   3.568  11.370  1.1907 -2.2284 -0.1919
  127MOL0     H17102   0.766   3.522  11.335  0.8568  1.0141  0.3076
  127MOL0     H17103   0.851   3.532  11.077 -1.9995 -0.7051  0.7639
  127MOL0     H17104   0.995   3.608  11.152 -0.6553  0.7582 -3.6087
  127MOL0     H17105   0.650   3.614  10.989  0.3034 -1.1949  0.3520
  127MOL0     H17106   0.636   3.709  10.756  0.8016 -0.7535 -1.0243
  127MOL0     H17107   0.544   3.881  10.366  0.8741  2.0998  1.2630
  127MOL0     H17108   0.592   3.925  10.127  0.8792  0.4584 -0.7581
  127MOL0     H17109   0.767   4.083   9.884  1.9243  0.9915 -1.6454
  127MOL0     H17110   0.709   4.123  10.048  0.4586  0.6753  0.3276
  127MOL0     H17111   0.950   4.169  10.104  1.0033  1.4413 -0.2799
  127MOL0     H17112   0.991   4.143   9.939  0.7258  2.7498 -0.6532
  127MOL0     H17113   0.859   4.315   9.850 -2.2648 -1.2879 -0.0303
  127MOL0     H17114   0.788   4.359  10.003  0.6608 -0.6949  1.9935
  127MOL0     H17115   1.089   4.347   9.948  1.2142  2.1637 -1.4654
  127MOL0     H17116   0.995   4.435  10.077 -0.9526 -1.8092 -0.2705
  127MOL0     H17117   0.939   4.505   9.792 -2.3805  1.0775  1.6912
  127MOL0     H17118   1.106   4.527   9.835  0.1508  1.3839 -0.9746
  127MOL0     H17119   0.968   4.722   9.847 -2.8439 -2.0974 -1.3534
  127MOL0     H17120   0.869   4.674   9.987 -0.9910  3.0393 -1.6225
  127MOL0     H17121   1.165   4.652  10.030 -0.0498  0.8290  1.3426
  127MOL0     H17122   1.036   4.685  10.142  1.1619  3.3408  1.2569
  127MOL0     H17123   1.019   4.918  10.004  1.7637  2.6962 -1.0320
  127MOL0     H17124   1.146   4.906  10.114  0.6306  1.9823 -1.4641
  127MOL0     H17125   1.021   3.878  10.230  0.2137 -1.2667  2.5068
  127MOL0     H17126   0.970   3.885  10.440 -0.3751  0.2378  0.1941
  127MOL0     H17127   0.921   4.022  10.883  0.8899 -0.2912 -1.7011
  127MOL0     H17128   0.921   3.911  11.110  2.0960  0.1930 -2.0538
  127MOL0     H17129   1.113   3.757  10.875 -2.9091 -1.7450 -1.0731
  127MOL0     H17130   1.150   3.939  10.762 -2.0205  2.2707 -2.5955
  127MOL0     H17131   1.486   4.180  10.629 -3.9786 -0.7976  1.5897
  127MOL0     H17132   1.565   4.405  10.591 -1.6901 -2.3443  3.6849
  127MOL0     H17133   1.575   4.629  10.552 -0.9959 -0.6466 -0.5583
  127MOL0     H17134   1.404   4.660  10.581  0.9545  0.1152  2.4010
  127MOL0     H17135   1.556   4.803  10.357 -0.6682 -0.6919 -1.0000
  127MOL0     H17136   1.549   4.873  10.519  0.4404  1.0637  0.2179
  127MOL0     H17137   1.279   4.829  10.490 -2.7911  0.1533 -2.6606
  127MOL0     H17138   1.314   4.799  10.332 -3.0458 -0.4518  2.0636
  127MOL0     H17139   1.268   5.041  10.394  1.0138  3.7736  0.9742
  127MOL0     H17140   1.403   5.036  10.507 -1.3523 -1.7472  1.1395
  127MOL0     H17141   1.564   5.157  10.128  1.3979 -3.2506 -0.7594
  127MOL0     H17142   1.292   4.427  10.252  1.7335  3.1267  0.5545
  127MOL0     H17143   1.106   4.199  10.305  1.1557 -0.8824  1.0795
  127MOL0     H17144   1.202   4.217  10.161 -1.9846  1.9002  0.1275
  127MOL0     H17145   1.214   4.064  10.254  5.2275  0.7990  2.7671
  128MOL0     O17146   1.004  10.971   4.329  0.3623  0.2704 -0.3472
  128MOL0     C17147   1.097  10.995   4.252 -0.8748  0.2852  1.2269
  128MOL0     O17148   1.092  10.979   4.118 -0.5079 -1.1507  0.7204
  128MOL0     C17149   0.993  10.907   4.059 -0.4654 -0.7035 -0.6669
  128MOL0     C17150   0.868  10.961   4.051  1.5272  0.1260 -0.1801
  128MOL0     C17151   0.759  10.879   4.004  0.6252 -0.3066  0.0217
  128MOL0     C17152   0.790  10.744   3.962 -0.4539 -0.6151  0.5831
  128MOL0     O17153   0.693  10.659   3.931  0.4040 -0.2300 -0.5470
  128MOL0     C17154   0.620  10.638   4.057 -0.3096  0.6680 -0.1924
  128MOL0     C17155   0.507  10.535   4.041 -0.2385  0.0648  0.9994
  128MOL0     C17156   0.566  10.399   4.011  0.2710  1.0076 -0.2026
  128MOL0     C17157   0.457  10.290   3.985 -0.1263  0.0084  0.2333
  128MOL0     C17158   0.423  10.277   3.835  0.2340  0.3824  0.3520
  128MOL0     C17159   0.531  10.212   3.752 -0.4546 -0.0661  0.4172
  128MOL0     C17160   0.500  10.182   3.615 -0.2428  0.7919  0.6231
  128MOL0     C17161   0.620  10.113   3.549  0.6983  0.3926 -0.6333
  128MOL0     N17162   0.648  10.145   3.417  0.1775  0.4077  0.5437
  128MOL0     C17163   0.593  10.091   3.301  0.4976 -0.4148  0.7106
  128MOL0     C17164   0.652  10.157   3.197 -0.8184 -0.0564 -0.0377
  128MOL0     C17165   0.610  10.166   3.060  0.6570 -0.6750  0.3524
  128MOL0     C17166   0.485  10.251   3.042 -1.0018  0.5103 -0.6982
  128MOL0     C17167   0.517  10.384   3.004  0.0333 -1.4497  0.4255
  128MOL0     C17168   0.391  10.458   2.950 -0.1227 -0.0368  0.6402
  128MOL0     O17169   0.425  10.565   2.849 -0.0633 -0.4482 -0.2579
  128MOL0     C17170   0.457  10.538   2.716 -1.1922  0.4325  0.2287
  128MOL0     C17171   0.489  10.648   2.636 -0.1523 -0.6131  0.9754
  128MOL0     C17172   0.515  10.634   2.506 -0.6908  0.3871  0.1742
  128MOL0     C17173   0.509  10.507   2.445  0.4564 -0.3165 -0.2032
  128MOL0     C17174   0.539  10.500   2.303 -0.5799  0.3227 -0.6878
  128MOL0     O17175   0.646  10.558   2.242  0.3206 -0.1316 -0.6221
  128MOL0     C17176   0.663  10.561   2.106  0.2611  0.1669  1.1232
  128MOL0     C17177   0.614  10.680   2.035 -0.2418  0.3537  0.5013
  128MOL0     C17178   0.647  10.692   1.901  0.7406 -1.1327  0.2249
  128MOL0     C17179   0.719  10.604   1.825 -1.1208  0.2667 -0.4969
  128MOL0     O17180   0.721  10.628   1.690 -0.6573 -0.3005  0.7346
  128MOL0     C17181   0.798  10.537   1.604 -1.1821  0.8407 -0.2938
  128MOL0     C17182   0.868  10.624   1.502  0.5887  0.4123  0.8744
  128MOL0     C17183   0.903  10.564   1.360 -0.1038  1.0352  0.6632
  128MOL0     C17184   0.796  10.579   1.255 -0.2388  0.0773 -0.6549
  128MOL0     C17185   0.672  10.503   1.287  0.2721 -0.2441 -0.3866
  128MOL0     C17186   0.570  10.494   1.175  0.2344 -0.1946 -0.1284
  128MOL0     C17187   0.455  10.389   1.194 -0.4961  0.4849 -0.0251
  128MOL0     C17188   0.357  10.413   1.302 -0.9291 -0.8512 -0.3400
  128MOL0    Cl17189   0.227  10.299   1.258 -0.0429 -0.5887 -0.0029
  128MOL0     C17190   0.785  10.503   1.899 -0.6641  0.7988 -0.3232
  128MOL0     C17191   0.749  10.479   2.037 -0.3786  0.1574  0.3542
  128MOL0     O17192   0.455  10.432   2.248  0.7278  1.0281 -0.0441
  128MOL0     C17193   0.495  10.396   2.527 -0.6273  0.5045 -0.9342
  128MOL0     C17194   0.470  10.410   2.666 -0.0222  1.2418  0.6226
  128MOL0     N17195   0.748  10.239   3.255  0.6514 -0.1294  0.2558
  128MOL0     N17196   0.755  10.223   3.383  0.3957  0.2957 -0.5188
  128MOL0     C17197   0.921  10.706   3.961  0.2627  0.1720  0.2257
  128MOL0     C17198   1.025  10.786   4.014  0.1279 -0.0503  0.1052
  128MOL0     C17199   1.218  11.062   4.308  0.5354 -0.8428  0.6674
  128MOL0     C17200   1.321  11.090   4.219  0.0836 -0.3822 -0.8068
  128MOL0     C17201   1.431  11.163   4.263 -0.3051 -0.1507 -0.0260
  128MOL0     C17202   1.437  11.218   4.389 -0.3047 -0.4734 -0.0789
  128MOL0     O17203   1.544  11.293   4.434  1.0813 -0.1269  0.4199
  128MOL0     C17204   1.673  11.280   4.367  1.8542  0.1119  0.2616
  128MOL0     C17205   1.791  11.290   4.461 -0.3670  0.3641  0.7540
  128MOL0     C17206   1.772  11.181   4.561  0.3463 -0.1802  0.2680
  128MOL0     C17207   1.777  11.031   4.500 -0.2119 -0.4938 -0.3032
  128MOL0     C17208   1.914  10.989   4.464  0.3130 -0.0824 -0.2721
  128MOL0     C17209   2.024  10.939   4.433  0.5828 -0.6742 -0.2362
  128MOL0     C17210   1.325  11.199   4.471  0.7201 -0.6021  0.1911
  128MOL0     C17211   1.216  11.122   4.437  0.4800  0.0625  1.0590
  128MOL0     C17212   1.104  11.119   4.542 -0.4125 -1.1681 -0.8491
  128MOL0     H17213   0.832  11.061   4.071 -2.0190 -0.5658 -2.2257
  128MOL0     H17214   0.659  10.917   3.988  0.1378 -2.4698 -2.8322
  128MOL0     H17215   0.682  10.599   4.138 -2.0736 -0.7478  0.5404
  128MOL0     H17216   0.557  10.723   4.084  0.1098  0.6192  0.9764
  128MOL0     H17217   0.450  10.574   3.956  0.3161  3.9401  2.1861
  128MOL0     H17218   0.440  10.535   4.128  0.1069 -1.5015  1.2955
  128MOL0     H17219   0.624  10.362   4.096 -0.7640 -0.6841 -0.1951
  128MOL0     H17220   0.640  10.394   3.930  0.1703 -0.5173 -0.2344
  128MOL0     H17221   0.509  10.197   4.011 -1.0208  0.0365  2.2850
  128MOL0     H17222   0.373  10.293   4.055 -0.1001  0.5262  0.2452
  128MOL0     H17223   0.337  10.211   3.819  1.3308 -0.8213 -0.8801
  128MOL0     H17224   0.394  10.374   3.794 -3.3187 -2.6551 -5.7024
  128MOL0     H17225   0.615  10.283   3.752 -0.3550 -0.1849  0.4212
  128MOL0     H17226   0.557  10.119   3.803 -1.9005 -1.0068 -0.4987
  128MOL0     H17227   0.472  10.271   3.557 -1.2037 -0.7901 -1.5017
  128MOL0     H17228   0.415  10.114   3.616 -1.2358  1.9985  2.5432
  128MOL0     H17229   0.714  10.144   3.596  0.8186  1.4248 -1.5200
  128MOL0     H17230   0.608  10.004   3.554 -1.0632  0.5084 -1.5662
  128MOL0     H17231   0.514  10.017   3.297 -0.1054  0.2655 -1.0342
  128MOL0     H17232   0.698  10.200   3.005  0.0864 -0.5035 -0.4640
  128MOL0     H17233   0.591  10.067   3.016 -3.7825  0.3281 -0.4765
  128MOL0     H17234   0.424  10.201   2.966 -0.5807  1.0940 -1.4330
  128MOL0     H17235   0.427  10.247   3.135  2.5284 -2.3765  1.7290
  128MOL0     H17236   0.590  10.381   2.923  0.5490 -0.1006  0.8034
  128MOL0     H17237   0.557  10.441   3.089 -1.9283 -0.7558  0.9418
  128MOL0     H17238   0.338  10.497   3.037 -0.7867  0.4979  0.0120
  128MOL0     H17239   0.327  10.388   2.896  2.5494 -0.5696 -2.1433
  128MOL0     H17240   0.498  10.751   2.668  0.9204 -0.1872 -0.6058
  128MOL0     H17241   0.546  10.725   2.455 -0.2930  0.0713 -0.1655
  128MOL0     H17242   0.564  10.755   2.095 -0.4395  2.2015 -1.8321
  128MOL0     H17243   0.619  10.776   1.838  1.7082 -1.6588 -0.9582
  128MOL0     H17244   0.870  10.477   1.660  0.5832  2.8272 -0.3020
  128MOL0     H17245   0.731  10.467   1.555 -2.4025  1.9591 -0.2637
  128MOL0     H17246   0.797  10.702   1.472 -0.7822 -0.0251  2.7881
  128MOL0     H17247   0.958  10.674   1.539 -0.4583  2.8991  0.2136
  128MOL0     H17248   0.988  10.621   1.321  1.1492 -1.6566 -0.8410
  128MOL0     H17249   0.929  10.459   1.374 -1.0444  0.8957  1.4681
  128MOL0     H17250   0.832  10.520   1.170 -2.0253 -3.3329  0.7634
  128MOL0     H17251   0.774  10.681   1.221  0.1049  0.3803  0.0223
  128MOL0     H17252   0.622  10.548   1.373  2.2040  0.5893  0.3632
  128MOL0     H17253   0.707  10.402   1.311 -0.8090 -1.0357 -1.9884
  128MOL0     H17254   0.525  10.593   1.162  1.5262  0.7487  2.1109
  128MOL0     H17255   0.623  10.477   1.081 -1.8070  2.5577 -1.9375
  128MOL0     H17256   0.497  10.289   1.202 -0.7394  0.4781  1.5829
  128MOL0     H17257   0.400  10.402   1.101 -0.6805 -1.5722 -0.2318
  128MOL0     H17258   0.400  10.389   1.400  0.9891 -4.5988 -1.8925
  128MOL0     H17259   0.311  10.512   1.303  0.1921 -0.3179 -0.2586
  128MOL0     H17260   0.850  10.433   1.847 -2.7928 -1.2701 -0.3721
  128MOL0     H17261   0.794  10.395   2.090  0.0032  0.7998  1.0615
  128MOL0     H17262   0.513  10.300   2.480 -0.3848  1.1469 -2.1852
  128MOL0     H17263   0.452  10.316   2.719  2.5875  0.1077 -0.2836
  128MOL0     H17264   0.943  10.607   3.922 -0.7498 -0.0295  0.1408
  128MOL0     H17265   1.128  10.759   4.034 -0.2686 -2.1011 -0.3695
  128MOL0     H17266   1.321  11.047   4.119 -1.9920 -3.8423  0.5254
  128MOL0     H17267   1.501  11.160   4.180 -1.4919 -2.4409 -1.0395
  128MOL0     H17268   1.677  11.355   4.287  0.0557 -2.2233 -2.2263
  128MOL0     H17269   1.680  11.186   4.311  2.1278 -1.2643  2.5068
  128MOL0     H17270   1.796  11.386   4.513  1.5751  0.6038  0.2082
  128MOL0     H17271   1.881  11.266   4.404 -0.9367 -0.5390  0.2067
  128MOL0     H17272   1.676  11.200   4.610  0.8826  3.0124  0.2338
  128MOL0     H17273   1.841  11.197   4.644  0.8153  3.9426 -0.7019
  128MOL0     H17274   1.739  10.965   4.578  1.8068 -2.0337 -0.5236
  128MOL0     H17275   1.712  11.028   4.412 -0.1245  1.8926 -0.5318
  128MOL0     H17276   2.124  10.913   4.405  0.8186  0.3911 -0.4403
  128MOL0     H17277   1.330  11.245   4.569  0.3915 -2.4224  1.1058
  128MOL0     H17278   1.013  11.152   4.492  1.0385  1.5808 -1.8851
  128MOL0     H17279   1.084  11.021   4.588  1.3749 -3.4016 -4.3554
  128MOL0     H17280   1.123  11.195   4.619  2.4260 -3.5713  1.0744
  129MOL0     O17281   6.171   7.041  10.825 -0.0654 -1.0910  0.2652
  129MOL0     C17282   6.150   7.166  10.816 -0.1842  1.1631 -0.0249
  129MOL0     O17283   6.101   7.251  10.911  0.2996 -0.0449 -0.2333
  129MOL0     C17284   6.054   7.186  11.018 -0.8478 -0.5795  0.0372
  129MOL0     C17285   5.934   7.117  11.016  0.5678 -0.2711  0.7078
  129MOL0     C17286   5.883   7.055  11.129  0.0720  0.8425 -0.5307
  129MOL0     C17287   5.942   7.075  11.262  0.1795  0.0131 -0.0991
  129MOL0     O17288   5.900   7.025  11.381  0.0906  1.0818 -1.0064
  129MOL0     C17289   5.771   6.953  11.383 -0.1112 -0.0739  0.2510
  129MOL0     C17290   5.753   6.903  11.524 -1.1107 -0.4645 -0.2598
  129MOL0     C17291   5.885   6.833  11.580  0.4633  0.6383 -0.5418
  129MOL0     C17292   5.851   6.789  11.722 -0.2063  0.0752  0.4936
  129MOL0     C17293   5.971   6.753  11.811 -0.0166 -0.0740  0.6068
  129MOL0     C17294   6.059   6.875  11.844 -0.9154  0.2182 -0.5235
  129MOL0     C17295   6.153   6.831  11.965 -0.3429 -0.3693  0.5654
  129MOL0     C17296   6.100   6.828  12.115 -0.1048 -0.4414 -0.4078
  129MOL0     N17297   6.007   6.722  12.133  0.1458  0.6871  0.1087
  129MOL0     C17298   6.022   6.590  12.145  0.4883  0.6057  0.0203
  129MOL0     C17299   5.901   6.531  12.149 -0.5946 -0.2959  0.6316
  129MOL0     C17300   5.868   6.386  12.171 -0.0268 -0.4476 -0.1654
  129MOL0     C17301   5.919   6.282  12.074 -0.3269  0.1056  0.7943
  129MOL0     C17302   5.850   6.156  12.112 -0.5158  0.7758  0.0113
  129MOL0     C17303   5.873   6.046  12.004 -0.2051  0.4416  0.1870
  129MOL0     O17304   6.014   6.009  12.006 -0.1116 -1.3590 -0.4304
  129MOL0     C17305   6.047   5.880  11.955  1.0462  0.4119  0.0120
  129MOL0     C17306   6.179   5.836  11.988  1.0199  0.9931 -0.5212
  129MOL0     C17307   6.235   5.722  11.938  0.5043  0.3300  0.1664
  129MOL0     C17308   6.156   5.637  11.861 -0.2989 -1.0158  0.6689
  129MOL0     C17309   6.211   5.526  11.788 -0.3305 -0.2129  0.3150
  129MOL0     O17310   6.338   5.490  11.831 -0.3636 -0.5973  0.4187
  129MOL0     C17311   6.406   5.378  11.786  0.2968  1.5006  0.2848
  129MOL0     C17312   6.546   5.376  11.806  0.6584  0.6157 -0.8176
  129MOL0     C17313   6.619   5.267  11.773  0.2550  1.2415  0.5038
  129MOL0     C17314   6.558   5.149  11.716  0.7459 -0.0831  0.4296
  129MOL0     O17315   6.628   5.034  11.678  0.3215 -0.0182  1.4975
  129MOL0     C17316   6.771   5.033  11.670 -0.1675 -0.0749  0.8208
  129MOL0     C17317   6.844   4.906  11.624  0.5334  0.4053  0.0675
  129MOL0     C17318   6.818   4.806  11.728 -0.1202  0.5379 -0.3353
  129MOL0     C17319   6.889   4.671  11.698  0.4814 -0.3457 -0.5581
  129MOL0     C17320   6.853   4.572  11.821  0.5687  0.2275  0.0486
  129MOL0     C17321   6.860   4.427  11.776  0.6977 -0.3802 -0.8737
  129MOL0     C17322   6.748   4.391  11.686  1.0699  0.0967 -0.1790
  129MOL0     C17323   6.746   4.236  11.648  0.0526 -0.5300 -0.3116
  129MOL0    Cl17324   6.884   4.189  11.540  0.4171  0.3515  0.2580
  129MOL0     C17325   6.419   5.143  11.710 -0.1012 -0.4586 -0.1336
  129MOL0     C17326   6.339   5.258  11.730  0.4918  0.5494 -0.2906
  129MOL0     O17327   6.153   5.482  11.694  0.0580 -0.0867 -0.5722
  129MOL0     C17328   6.027   5.674  11.827 -0.5319 -0.9741 -0.5272
  129MOL0     C17329   5.959   5.786  11.880  0.1797 -0.3506  0.4258
  129MOL0     N17330   5.810   6.634  12.144  0.0584 -0.6388 -0.8081
  129MOL0     N17331   5.873   6.744  12.147  0.1969  0.4198 -0.2256
  129MOL0     C17332   6.062   7.151  11.259  0.2713  0.2725 -1.3711
  129MOL0     C17333   6.110   7.211  11.142  0.9883  0.1445  0.0529
  129MOL0     C17334   6.184   7.228  10.690  1.3697  0.1555 -0.2988
  129MOL0     C17335   6.303   7.291  10.682  0.1403 -0.4046 -0.2651
  129MOL0     C17336   6.334   7.360  10.567  0.9386 -0.3618  0.3560
  129MOL0     C17337   6.259   7.341  10.456 -0.8424 -0.2268 -0.0421
  129MOL0     O17338   6.316   7.400  10.344  0.0382  0.2249  0.8193
  129MOL0     C17339   6.274   7.338  10.222  0.9941  0.6572 -0.6369
  129MOL0     C17340   6.358   7.362  10.098  0.2412  0.2412 -0.4369
  129MOL0     C17341   6.372   7.515  10.066  0.0561 -0.1236 -0.5002
  129MOL0     C17342   6.463   7.541   9.945  0.1521 -0.2661 -0.2247
  129MOL0     C17343   6.446   7.680   9.912  0.6250 -0.3577  0.6091
  129MOL0     C17344   6.444   7.807   9.885 -0.3370  0.4155  0.0961
  129MOL0     C17345   6.137   7.266  10.459 -0.1431  0.0181 -0.1140
  129MOL0     C17346   6.094   7.213  10.581 -0.6403 -0.0815 -0.0507
  129MOL0     C17347   5.959   7.132  10.588 -0.1590 -0.5499 -0.5332
  129MOL0     H17348   5.875   7.118  10.925  2.0649 -1.1337 -0.3269
  129MOL0     H17349   5.788   7.005  11.114 -0.5413  2.4111 -2.2012
  129MOL0     H17350   5.685   7.018  11.362 -1.4621 -1.2558  1.8624
  129MOL0     H17351   5.755   6.866  11.318 -1.3045 -0.6536  1.2672
  129MOL0     H17352   5.673   6.829  11.532  0.9669 -2.8472 -0.5516
  129MOL0     H17353   5.735   6.993  11.584  1.9538 -0.5563  0.9507
  129MOL0     H17354   5.972   6.900  11.585  0.5269  0.5245 -0.0038
  129MOL0     H17355   5.913   6.745  11.522 -2.4378 -1.9688  1.6462
  129MOL0     H17356   5.785   6.861  11.771  2.8179  1.9310  2.1981
  129MOL0     H17357   5.788   6.701  11.708 -0.0587  0.4694 -4.3699
  129MOL0     H17358   5.922   6.705  11.897 -1.3838 -0.4377 -0.3398
  129MOL0     H17359   6.035   6.685  11.755 -0.7123  0.4920 -0.9088
  129MOL0     H17360   6.121   6.903  11.758  1.3659  2.4283  1.6830
  129MOL0     H17361   6.012   6.971  11.864  2.4277  1.7894  0.5520
  129MOL0     H17362   6.225   6.913  11.960 -1.1048  0.2925 -3.1706
  129MOL0     H17363   6.195   6.730  11.953 -0.0671 -0.3617  1.4558
  129MOL0     H17364   6.186   6.813  12.181 -1.7217  5.8756  4.0858
  129MOL0     H17365   6.053   6.926  12.128  1.1768 -0.0497  1.8469
  129MOL0     H17366   6.113   6.532  12.141 -0.4566 -0.8868 -0.7900
  129MOL0     H17367   5.916   6.372  12.268  0.4699 -1.6722 -0.5708
  129MOL0     H17368   5.762   6.389  12.197  0.0690  2.2093  0.2188
  129MOL0     H17369   5.886   6.308  11.973 -1.8191  0.0605  1.2466
  129MOL0     H17370   6.026   6.262  12.066 -0.6155 -0.8039 -1.8162
  129MOL0     H17371   5.742   6.174  12.121 -0.2026  1.9220  1.8003
  129MOL0     H17372   5.891   6.112  12.203  1.5852 -0.1027 -1.2773
  129MOL0     H17373   5.844   6.081  11.904 -0.2061 -3.1258 -1.1996
  129MOL0     H17374   5.819   5.955  12.032  2.7385 -1.2091  0.8125
  129MOL0     H17375   6.240   5.908  12.042 -2.5297  1.5099  3.2855
  129MOL0     H17376   6.342   5.706  11.945  0.1715 -1.6520  2.0487
  129MOL0     H17377   6.595   5.449  11.869 -0.6257  1.6383 -0.9538
  129MOL0     H17378   6.728   5.263  11.773  0.5249 -2.5193 -5.1762
  129MOL0     H17379   6.795   5.110  11.595  1.6618 -2.7640 -1.5914
  129MOL0     H17380   6.819   5.077  11.758 -0.4074 -0.4293  1.1297
  129MOL0     H17381   6.781   4.884  11.537 -3.8456  1.9594  2.5053
  129MOL0     H17382   6.947   4.933  11.601  0.4022  1.9424  1.1080
  129MOL0     H17383   6.837   4.838  11.830  0.1151 -3.7317  1.1572
  129MOL0     H17384   6.714   4.774  11.716  0.2216 -0.8407  0.1627
  129MOL0     H17385   6.997   4.688  11.699  0.2414  1.5137  1.1852
  129MOL0     H17386   6.850   4.635  11.602  1.0623 -3.5602  0.2896
  129MOL0     H17387   6.755   4.592  11.866 -0.9528 -4.6107 -0.5562
  129MOL0     H17388   6.921   4.590  11.905  0.1863 -0.8611  0.6143
  129MOL0     H17389   6.959   4.421  11.730  2.4547 -3.0570  2.7146
  129MOL0     H17390   6.868   4.355  11.858  1.2215 -1.2622 -1.6733
  129MOL0     H17391   6.779   4.434  11.590  2.3424 -1.2224 -0.3933
  129MOL0     H17392   6.650   4.429  11.717  0.5284 -3.6693  3.7238
  129MOL0     H17393   6.746   4.171  11.736 -2.1033  0.0604  0.1629
  129MOL0     H17394   6.656   4.209  11.592  0.4487 -1.4323 -0.5397
  129MOL0     H17395   6.373   5.046  11.693 -1.1002 -0.2522  1.2245
  129MOL0     H17396   6.232   5.242  11.741  0.7496  0.3957  3.6740
  129MOL0     H17397   5.965   5.615  11.761 -0.1241 -2.6768  0.5399
  129MOL0     H17398   5.857   5.821  11.866  0.7373  1.1892  0.0126
  129MOL0     H17399   6.120   7.184  11.344  0.2006 -1.6782 -0.5036
  129MOL0     H17400   6.185   7.288  11.159 -0.7509  1.9387  0.0213
  129MOL0     H17401   6.366   7.319  10.767 -0.0973  3.4497 -1.1596
  129MOL0     H17402   6.424   7.420  10.557  1.4097 -1.0797  0.2291
  129MOL0     H17403   6.174   7.374  10.197  0.5110 -1.9867 -2.9477
  129MOL0     H17404   6.278   7.230  10.238  3.0548  0.8149  0.2741
  129MOL0     H17405   6.307   7.319  10.012 -1.8354  2.1854 -0.2693
  129MOL0     H17406   6.455   7.315  10.118 -0.8128 -0.6472  3.3176
  129MOL0     H17407   6.415   7.566  10.153 -1.1813  1.0418 -0.5450
  129MOL0     H17408   6.266   7.534  10.049 -0.8685 -1.5743  2.7446
  129MOL0     H17409   6.566   7.515   9.973  1.1052  1.8865 -1.5085
  129MOL0     H17410   6.426   7.491   9.855 -2.8087  1.5321 -0.1347
  129MOL0     H17411   6.458   7.913   9.881 -3.6829  0.9361 -1.3092
  129MOL0     H17412   6.074   7.253  10.371 -1.4990  3.4031  0.2010
  129MOL0     H17413   5.901   7.137  10.495  0.8609  1.8678 -1.1071
  129MOL0     H17414   5.987   7.028  10.606 -2.5948 -1.3311 -0.8483
  129MOL0     H17415   5.899   7.170  10.672  2.0970  2.4282 -0.0720
  130MOL0     O17416  10.203  10.971   1.697 -0.7594  0.8599  0.3011
  130MOL0     C17417  10.321  11.000   1.715  0.3975 -0.0067  0.0084
  130MOL0     O17418  10.375  11.060   1.826  0.3378 -1.2161  0.5824
  130MOL0     C17419  10.308  11.074   1.941 -0.0505  0.7477 -0.3358
  130MOL0     C17420  10.380  11.083   2.059  0.4576  0.2452 -0.0681
  130MOL0     C17421  10.321  11.118   2.183 -0.2908  0.2414 -0.1272
  130MOL0     C17422  10.179  11.135   2.185  0.4643 -0.6180 -0.4260
  130MOL0     O17423  10.114  11.160   2.306  0.2580  0.4147 -0.1443
  130MOL0     C17424   9.978  11.119   2.311  0.3322 -0.9122  0.5091
  130MOL0     C17425   9.941  11.103   2.461 -0.0192  0.3325 -1.0823
  130MOL0     C17426   9.804  11.036   2.470 -0.5536 -0.4707 -0.5632
  130MOL0     C17427   9.748  11.021   2.611 -0.3001 -0.8543 -0.2120
  130MOL0     C17428   9.835  10.941   2.702 -0.7602  0.7085 -0.2170
  130MOL0     C17429   9.861  10.793   2.663  0.2269  1.5185  0.2107
  130MOL0     C17430   9.919  10.707   2.771  0.5040 -0.2458 -0.0564
  130MOL0     C17431  10.057  10.752   2.831 -0.1183  0.0931 -0.4930
  130MOL0     N17432  10.177  10.731   2.743 -0.2621 -0.4552 -0.5811
  130MOL0     C17433  10.217  10.823   2.649  0.4986 -0.0017  0.4964
  130MOL0     C17434  10.328  10.783   2.590  0.8527 -0.5056 -0.0889
  130MOL0     C17435  10.394  10.851   2.471  0.4473 -0.3789 -0.6784
  130MOL0     C17436  10.380  10.785   2.335 -0.2523  0.6762 -0.4859
  130MOL0     C17437  10.236  10.793   2.292  1.4287  0.8135  1.0749
  130MOL0     C17438  10.223  10.765   2.145 -0.1655  0.4830  1.0494
  130MOL0     O17439  10.263  10.633   2.117 -0.2600 -0.1667 -0.4748
  130MOL0     C17440  10.263  10.598   1.982 -0.4699 -0.1766  0.2565
  130MOL0     C17441  10.227  10.678   1.873  0.9772  0.6652 -0.7393
  130MOL0     C17442  10.255  10.631   1.751  1.1258  0.6066  0.1097
  130MOL0     C17443  10.284  10.503   1.718  0.2999  0.5272 -0.9050
  130MOL0     C17444  10.295  10.445   1.581  0.8422 -0.0944 -0.3557
  130MOL0     O17445  10.220  10.511   1.490  0.2293  0.6696  0.2712
  130MOL0     C17446  10.281  10.498   1.367 -0.2720  0.7189  0.5255
  130MOL0     C17447  10.412  10.550   1.347  0.6888  0.0793 -0.0248
  130MOL0     C17448  10.466  10.554   1.218  0.2246  1.0663 -0.3188
  130MOL0     C17449  10.383  10.513   1.114  0.1839  0.4625 -0.3152
  130MOL0     O17450  10.443  10.519   0.994  0.0094 -0.4979  0.5412
  130MOL0     C17451  10.410  10.423   0.894  0.8974 -0.1068  0.2301
  130MOL0     C17452  10.519  10.449   0.790  0.1993  0.0809 -0.0058
  130MOL0     C17453  10.663  10.427   0.843  0.1488 -0.2960  0.2370
  130MOL0     C17454  10.770  10.438   0.734  0.1331 -0.5631 -0.1317
  130MOL0     C17455  10.901  10.383   0.786  0.3737  0.2041 -0.8324
  130MOL0     C17456  11.012  10.435   0.693  0.1217 -0.6830 -0.6362
  130MOL0     C17457  10.994  10.390   0.549 -0.4159  0.2419 -0.3444
  130MOL0     C17458  10.998  10.239   0.530 -0.3215 -0.0022  0.1345
  130MOL0    Cl17459  11.173  10.187   0.551 -0.1548  0.2602 -0.0402
  130MOL0     C17460  10.251  10.474   1.131  0.4979 -0.9611  0.5055
  130MOL0     C17461  10.204  10.461   1.256  0.6219 -0.1481  0.0059
  130MOL0     O17462  10.368  10.339   1.560  0.4965  0.3252  0.5816
  130MOL0     C17463  10.320  10.417   1.825  0.4676 -0.0153 -0.2318
  130MOL0     C17464  10.312  10.467   1.956 -0.1455  0.4561  0.5424
  130MOL0     N17465  10.354  10.659   2.631  0.8702 -0.4383 -0.1304
  130MOL0     N17466  10.262  10.629   2.725 -0.8449  0.1511 -0.0102
  130MOL0     C17467  10.107  11.129   2.064 -0.3766  0.0461 -1.6670
  130MOL0     C17468  10.168  11.101   1.953 -0.5961 -0.0996  0.7530
  130MOL0     C17469  10.420  10.975   1.601  0.4395 -0.1985 -1.1360
  130MOL0     C17470  10.556  11.009   1.628 -0.8553 -0.1338 -0.7010
  130MOL0     C17471  10.659  10.987   1.533 -0.6868  0.5418 -0.5925
  130MOL0     C17472  10.627  10.942   1.408  1.2558  0.2915  0.0455
  130MOL0     O17473  10.730  10.924   1.326 -0.6776  0.4889  0.1316
  130MOL0     C17474  10.715  10.876   1.191  0.0677 -1.4209 -0.6979
  130MOL0     C17475  10.854  10.860   1.134  0.4732  0.9057 -0.7732
  130MOL0     C17476  10.833  10.810   0.995  0.3728 -0.5203  0.5074
  130MOL0     C17477  10.947  10.737   0.942 -0.3744 -0.1167  0.3532
  130MOL0     C17478  11.060  10.829   0.929  0.7991 -0.6698 -0.6071
  130MOL0     C17479  11.141  10.921   0.910 -0.4693  0.1594  0.6396
  130MOL0     C17480  10.491  10.922   1.376 -0.2600 -0.7175  0.3716
  130MOL0     C17481  10.390  10.938   1.472 -0.9031  0.3696 -0.1015
  130MOL0     C17482  10.248  10.928   1.417 -0.6212 -0.7008  0.4981
  130MOL0     H17483  10.486  11.071   2.041  0.3303 -1.6974  0.1634
  130MOL0     H17484  10.380  11.125   2.273  1.0847 -0.4879 -0.9418
  130MOL0     H17485   9.915  11.190   2.256  0.9440 -1.6510 -1.2059
  130MOL0     H17486   9.965  11.019   2.270  0.3632 -0.2997 -1.0751
  130MOL0     H17487   9.933  11.195   2.520 -1.5843  0.5182 -1.5256
  130MOL0     H17488  10.018  11.035   2.497  1.0370  0.2578 -3.3028
  130MOL0     H17489   9.826  10.942   2.419  1.9460 -1.0809  1.3986
  130MOL0     H17490   9.738  11.102   2.413  1.6943  1.4367 -1.1722
  130MOL0     H17491   9.729  11.121   2.650 -0.2111 -1.0827  0.4323
  130MOL0     H17492   9.647  10.979   2.601 -1.6716  2.4990 -1.8848
  130MOL0     H17493   9.927  10.998   2.714 -0.0510  0.2423 -2.8109
  130MOL0     H17494   9.783  10.945   2.798 -1.7384 -1.5222 -0.5972
  130MOL0     H17495   9.764  10.755   2.629  0.4984  2.1443 -1.3575
  130MOL0     H17496   9.926  10.795   2.575 -1.0536 -1.4174 -0.9324
  130MOL0     H17497   9.917  10.600   2.749 -0.1838 -0.9682  3.0630
  130MOL0     H17498   9.855  10.724   2.859 -0.6903  0.3995 -1.0094
  130MOL0     H17499  10.049  10.857   2.861  1.7906 -0.0532  0.6827
  130MOL0     H17500  10.073  10.697   2.923 -0.1369 -1.3826 -1.3483
  130MOL0     H17501  10.165  10.915   2.624  1.8418  0.4487 -0.7444
  130MOL0     H17502  10.360  10.955   2.471 -0.8734 -0.7037  2.0359
  130MOL0     H17503  10.501  10.850   2.490  0.1948 -1.0159  0.9157
  130MOL0     H17504  10.444  10.827   2.257  1.9818 -0.5259  0.6053
  130MOL0     H17505  10.412  10.680   2.348  0.9882  1.1226  0.2760
  130MOL0     H17506  10.194  10.893   2.308  0.1558  0.6934 -1.0825
  130MOL0     H17507  10.180  10.718   2.349  1.2433 -1.0652 -1.4141
  130MOL0     H17508  10.284  10.833   2.084  1.0908 -0.6225  1.0175
  130MOL0     H17509  10.116  10.775   2.124 -0.0721  1.4285  0.9584
  130MOL0     H17510  10.175  10.773   1.875  0.4020  0.4112 -2.1425
  130MOL0     H17511  10.241  10.690   1.661  0.3497 -1.6962 -1.3995
  130MOL0     H17512  10.474  10.573   1.433  1.8289  2.3868 -1.3621
  130MOL0     H17513  10.564  10.592   1.190  1.0518  0.8833  2.0603
  130MOL0     H17514  10.401  10.316   0.916 -0.0487 -0.5970 -2.2444
  130MOL0     H17515  10.320  10.454   0.840  2.2882 -0.2371 -2.2960
  130MOL0     H17516  10.517  10.384   0.702 -1.4036 -1.0140  0.7936
  130MOL0     H17517  10.510  10.553   0.756 -0.0991  0.7539  1.9876
  130MOL0     H17518  10.691  10.498   0.921  1.6083  2.0358 -2.2034
  130MOL0     H17519  10.682  10.324   0.874 -1.0611 -0.2745  1.1259
  130MOL0     H17520  10.779  10.540   0.695 -0.7836 -0.7943 -0.9540
  130MOL0     H17521  10.730  10.378   0.652 -3.0722  1.5886 -0.3028
  130MOL0     H17522  10.887  10.275   0.782 -0.5940  0.1794  1.4945
  130MOL0     H17523  10.921  10.414   0.889 -1.8148  0.1060 -0.3226
  130MOL0     H17524  11.032  10.543   0.691 -1.6279 -0.3269 -2.5867
  130MOL0     H17525  11.100  10.379   0.728  0.1603 -0.2146  0.0370
  130MOL0     H17526  11.074  10.424   0.483 -1.9638 -2.0049 -3.6374
  130MOL0     H17527  10.900  10.433   0.514 -0.5033  1.3792  1.1771
  130MOL0     H17528  10.950  10.178   0.607  0.9431  2.2363  2.8899
  130MOL0     H17529  10.961  10.225   0.428 -2.7285  1.0546  0.8070
  130MOL0     H17530  10.188  10.447   1.046 -0.4631  0.2236  0.8104
  130MOL0     H17531  10.108  10.413   1.275 -0.6952  2.4678  0.3426
  130MOL0     H17532  10.345  10.313   1.807 -1.6183 -0.4797 -0.7125
  130MOL0     H17533  10.341  10.406   2.040  2.6070 -0.6010 -1.0438
  130MOL0     H17534  10.001  11.153   2.055 -0.8818  0.2052  2.4905
  130MOL0     H17535  10.108  11.098   1.862 -0.3435  1.1352  0.5303
  130MOL0     H17536  10.590  11.054   1.721  0.5164 -1.1963 -0.6394
  130MOL0     H17537  10.763  11.003   1.557 -0.0228 -1.7638 -1.6508
  130MOL0     H17538  10.655  10.950   1.136 -0.8660  0.0874  2.1738
  130MOL0     H17539  10.653  10.787   1.178 -1.0558 -0.6503 -0.8372
  130MOL0     H17540  10.906  10.782   1.190 -0.1246  0.9098 -0.2011
  130MOL0     H17541  10.905  10.956   1.127  1.1790  0.5668 -0.4072
  130MOL0     H17542  10.807  10.891   0.927  0.2484 -1.5629 -0.7393
  130MOL0     H17543  10.762  10.726   0.992  1.7650 -1.7567  0.9074
  130MOL0     H17544  10.985  10.648   0.994  2.7854  0.7744 -0.1944
  130MOL0     H17545  10.915  10.694   0.847  0.4390  1.0060 -0.4533
  130MOL0     H17546  11.188  11.017   0.910 -1.1284  0.5114  2.1664
  130MOL0     H17547  10.454  10.895   1.278  0.4932 -1.8476  0.3773
  130MOL0     H17548  10.186  11.009   1.458  0.3657  0.9938 -1.2076
  130MOL0     H17549  10.235  10.936   1.309 -0.5570 -0.3939  0.5125
  130MOL0     H17550  10.216  10.824   1.426 -0.5781 -0.6503  1.3287
  131MOL0     O17551   1.440   1.362  10.069  0.5871 -0.4548 -0.0820
  131MOL0     C17552   1.434   1.318   9.954  0.2573  0.4769 -0.3647
  131MOL0     O17553   1.321   1.260   9.907  0.2925  0.5898  0.0663
  131MOL0     C17554   1.230   1.202   9.988  0.3396 -1.1085  0.5362
  131MOL0     C17555   1.154   1.282  10.076 -0.3121  0.2442 -0.7073
  131MOL0     C17556   1.057   1.221  10.152  0.5554 -0.2481  0.4310
  131MOL0     C17557   1.031   1.084  10.151  0.9415 -0.1399 -0.0420
  131MOL0     O17558   0.937   1.043  10.243 -0.6190  0.5480 -1.2653
  131MOL0     C17559   0.863   0.924  10.206  0.1800 -0.9357  0.3339
  131MOL0     C17560   0.745   0.917  10.311 -0.8985  0.8335 -0.9128
  131MOL0     C17561   0.682   0.785  10.279 -0.1450 -0.6410  0.1261
  131MOL0     C17562   0.742   0.675  10.371 -0.1811 -0.1776  0.1565
  131MOL0     C17563   0.675   0.536  10.346 -0.4991 -0.0574  1.0810
  131MOL0     C17564   0.521   0.536  10.393  0.6148 -0.2844  0.3424
  131MOL0     C17565   0.452   0.395  10.385 -0.6829  0.7743 -0.5717
  131MOL0     C17566   0.299   0.417  10.419  0.0795  0.7361  0.3862
  131MOL0     N17567   0.274   0.398  10.554  0.2512  0.4684 -0.9221
  131MOL0     C17568   0.272   0.489  10.661  1.0338 -0.3052  0.5833
  131MOL0     C17569   0.235   0.419  10.769  1.0223 -0.3221  0.1003
  131MOL0     C17570   0.224   0.486  10.903 -0.0524  0.0074 -0.1377
  131MOL0     C17571   0.314   0.425  11.012 -0.6201  0.8442 -0.2581
  131MOL0     C17572   0.457   0.473  11.016  0.5347 -0.5399 -0.3172
  131MOL0     C17573   0.532   0.399  10.904 -0.1193  0.5499  0.9356
  131MOL0     O17574   0.566   0.266  10.917 -0.2706  0.3377  0.2228
  131MOL0     C17575   0.624   0.225  10.801  0.3858  1.3999  0.5937
  131MOL0     C17576   0.548   0.140  10.713 -0.1877  0.2373  0.7221
  131MOL0     C17577   0.604   0.094  10.593  0.7596 -0.2165  0.9170
  131MOL0     C17578   0.726   0.147  10.551  0.1241  0.5912 -0.5698
  131MOL0     C17579   0.788   0.098  10.422  1.7361 -1.1477 -0.4402
  131MOL0     O17580   0.908   0.147  10.382  0.6333 -0.7116 -0.3522
  131MOL0     C17581   0.960   0.125  10.258 -0.5951 -0.1610 -0.4213
  131MOL0     C17582   0.999   0.224  10.169  0.6686 -0.8853  0.3946
  131MOL0     C17583   1.067   0.203  10.047  0.5298  0.3949 -0.0306
  131MOL0     C17584   1.094   0.072  10.018  0.0136  1.2459  1.0300
  131MOL0     O17585   1.164   0.050   9.901  0.1501  0.2013  0.4202
  131MOL0     C17586   1.158  -0.070   9.836  0.6437  0.4773  0.3403
  131MOL0     C17587   1.239  -0.052   9.704 -0.0537  0.3870 -0.7308
  131MOL0     C17588   1.167  -0.150   9.610 -0.2531 -0.3336 -0.2439
  131MOL0     C17589   1.035  -0.091   9.557  0.6539 -0.5328  0.3635
  131MOL0     C17590   0.929  -0.201   9.530  0.3864  0.0809  0.0233
  131MOL0     C17591   0.865  -0.238   9.658 -0.5547  0.4117 -0.6196
  131MOL0     C17592   0.738  -0.333   9.641 -1.1654 -1.0251  0.6174
  131MOL0     C17593   0.783  -0.474   9.594 -0.0511  0.7966  0.0611
  131MOL0    Cl17594   0.920  -0.551   9.667  0.1590  0.0175 -0.6410
  131MOL0     C17595   1.057  -0.037  10.105  0.0805 -0.0923  0.8569
  131MOL0     C17596   0.995   0.000  10.217  0.5811  0.3579 -0.6090
  131MOL0     O17597   0.722   0.019  10.358  0.1436  0.3923  0.3978
  131MOL0     C17598   0.804   0.235  10.637  0.3825  0.3835  0.4209
  131MOL0     C17599   0.753   0.257  10.770 -0.0758 -0.0846  0.9790
  131MOL0     N17600   0.205   0.292  10.731  0.5140  1.7680  0.5328
  131MOL0     N17601   0.250   0.280  10.606  0.3638 -0.3028 -0.1140
  131MOL0     C17602   1.099   1.001  10.048  0.0136  0.3126 -0.4126
  131MOL0     C17603   1.194   1.069   9.967 -0.1363 -0.5593 -0.1363
  131MOL0     C17604   1.530   1.365   9.856 -0.1445 -0.3437 -0.2196
  131MOL0     C17605   1.666   1.350   9.903  0.4523  0.0959  0.1943
  131MOL0     C17606   1.784   1.380   9.832 -0.5004 -0.2840 -0.2342
  131MOL0     C17607   1.774   1.439   9.704 -0.2780 -0.1406 -0.9283
  131MOL0     O17608   1.890   1.470   9.629  0.7616 -0.1153 -0.1696
  131MOL0     C17609   1.869   1.533   9.505  0.2982 -0.1622 -0.3659
  131MOL0     C17610   1.848   1.681   9.514 -0.1438 -0.6105  0.5724
  131MOL0     C17611   1.929   1.766   9.416  1.0646  0.4502 -0.1969
  131MOL0     C17612   1.912   1.916   9.439  0.0318  0.2290  0.5463
  131MOL0     C17613   1.778   1.971   9.403 -1.0483  0.5229 -0.4741
  131MOL0     C17614   1.677   2.026   9.379  0.8272 -1.1480  0.5751
  131MOL0     C17615   1.636   1.466   9.663 -0.4171  0.1016  1.0302
  131MOL0     C17616   1.522   1.418   9.727 -0.2544  1.2734  0.9080
  131MOL0     C17617   1.392   1.456   9.667 -0.2133 -0.1245  0.5633
  131MOL0     H17618   1.158   1.390  10.087 -0.5874  0.4032 -2.0416
  131MOL0     H17619   1.010   1.288  10.223  3.1492  2.2919 -0.0925
  131MOL0     H17620   0.817   0.936  10.108  0.7501 -0.9306  0.0645
  131MOL0     H17621   0.921   0.831  10.211  2.3130  0.3550  0.5725
  131MOL0     H17622   0.673   0.999  10.303  0.0383  1.5455 -2.5174
  131MOL0     H17623   0.775   0.908  10.416 -1.8092 -2.9764 -0.8607
  131MOL0     H17624   0.701   0.748  10.178 -0.7291 -3.6244  1.0021
  131MOL0     H17625   0.573   0.792  10.288 -0.1854  1.0097 -1.1059
  131MOL0     H17626   0.850   0.672  10.354 -0.1847 -3.5716  0.0360
  131MOL0     H17627   0.732   0.703  10.476 -0.0642 -0.5377  0.2655
  131MOL0     H17628   0.685   0.516  10.239  0.7031  2.7776  0.5570
  131MOL0     H17629   0.728   0.460  10.404  0.5985 -0.0632  0.1195
  131MOL0     H17630   0.510   0.584  10.491  2.7140 -0.9116  0.9280
  131MOL0     H17631   0.472   0.607  10.326  0.5621  0.2427  0.9322
  131MOL0     H17632   0.500   0.324  10.452  0.5148  1.8467 -0.2492
  131MOL0     H17633   0.478   0.361  10.284  1.6492 -0.0389  0.2632
  131MOL0     H17634   0.264   0.516  10.389  2.0462  0.7378 -2.3392
  131MOL0     H17635   0.242   0.341  10.365  1.3619 -0.1131  0.1648
  131MOL0     H17636   0.304   0.593  10.651  0.1351 -0.2117 -2.1137
  131MOL0     H17637   0.244   0.591  10.884  0.0951 -0.0599 -0.3600
  131MOL0     H17638   0.117   0.480  10.929  0.1428  0.0820  0.7081
  131MOL0     H17639   0.259   0.441  11.106 -0.6272  5.0253 -0.7627
  131MOL0     H17640   0.315   0.316  11.009  0.8247  0.5641  3.7969
  131MOL0     H17641   0.496   0.449  11.116  0.4791  0.9956  0.0950
  131MOL0     H17642   0.454   0.581  10.999  1.5730  0.0085  2.3597
  131MOL0     H17643   0.627   0.453  10.897 -0.4748  1.0807  0.0847
  131MOL0     H17644   0.487   0.414  10.805  1.0584  0.8377  0.4253
  131MOL0     H17645   0.451   0.108  10.750 -1.3344 -0.6319 -2.6910
  131MOL0     H17646   0.553   0.029  10.522  2.7188 -2.3694  1.3411
  131MOL0     H17647   0.967   0.321  10.205 -2.3731 -0.9917 -1.6350
  131MOL0     H17648   1.096   0.283   9.980 -2.3817  1.1057 -0.5740
  131MOL0     H17649   1.197  -0.153   9.896  1.0660  1.2255  1.1284
  131MOL0     H17650   1.055  -0.092   9.804  0.4872  0.0309  1.1091
  131MOL0     H17651   1.246   0.047   9.659  1.9320  1.1352  1.0848
  131MOL0     H17652   1.343  -0.077   9.725 -0.0162 -0.5688 -1.9171
  131MOL0     H17653   1.239  -0.169   9.531  1.9205 -0.9534  1.7750
  131MOL0     H17654   1.156  -0.242   9.668  1.6090 -1.1986 -1.2026
  131MOL0     H17655   1.069  -0.059   9.458  1.2247 -2.7327 -0.2150
  131MOL0     H17656   0.993  -0.013   9.621 -1.7387 -1.0322 -0.4938
  131MOL0     H17657   0.978  -0.294   9.499 -1.2020 -0.9623  0.5574
  131MOL0     H17658   0.852  -0.176   9.457  2.1557 -1.3310 -2.4738
  131MOL0     H17659   0.949  -0.276   9.717 -0.6889  2.6561  1.1478
  131MOL0     H17660   0.838  -0.146   9.711  1.1730  0.5017  0.1610
  131MOL0     H17661   0.671  -0.290   9.566  0.1096  0.5511  0.3212
  131MOL0     H17662   0.694  -0.329   9.741  0.3481 -0.4569  1.2996
  131MOL0     H17663   0.695  -0.535   9.615 -0.7978  1.2221 -1.7062
  131MOL0     H17664   0.783  -0.470   9.485  1.0999  2.0926  0.0775
  131MOL0     H17665   1.087  -0.138  10.081 -0.7027 -0.1321 -0.0244
  131MOL0     H17666   0.955  -0.069  10.290 -2.1361  0.9410 -1.4217
  131MOL0     H17667   0.902   0.270  10.607  0.3025  0.4385  0.2225
  131MOL0     H17668   0.811   0.309  10.846 -2.4106  1.6908  1.6855
  131MOL0     H17669   1.080   0.896  10.028 -1.9415  0.3276  1.0399
  131MOL0     H17670   1.238   1.018   9.882  0.3313  1.6092 -1.2615
  131MOL0     H17671   1.676   1.308  10.003 -0.4949 -3.4121 -1.0155
  131MOL0     H17672   1.873   1.347   9.882 -1.8103 -1.5140  1.3769
  131MOL0     H17673   1.781   1.499   9.449  1.0942 -0.3327 -1.5565
  131MOL0     H17674   1.955   1.507   9.443 -0.2821 -1.5150 -0.6627
  131MOL0     H17675   1.885   1.706   9.614  1.2954 -0.3685  0.0086
  131MOL0     H17676   1.741   1.703   9.507 -0.5534 -1.7425  2.6456
  131MOL0     H17677   1.906   1.758   9.309 -3.6706 -1.5206  0.7290
  131MOL0     H17678   2.033   1.738   9.435  1.4551  0.7799 -1.6660
  131MOL0     H17679   1.934   1.938   9.544 -2.2327  3.2428  0.5176
  131MOL0     H17680   1.986   1.969   9.379 -0.0908  4.1794  3.5027
  131MOL0     H17681   1.605   2.100   9.352 -0.9340 -3.1896 -0.6909
  131MOL0     H17682   1.620   1.528   9.576  1.5353  0.2562  0.7469
  131MOL0     H17683   1.309   1.440   9.736 -1.2664  2.0736 -0.1012
  131MOL0     H17684   1.386   1.562   9.639 -3.6789 -0.0543  1.1412
  131MOL0     H17685   1.380   1.391   9.580  2.9323  0.6750 -0.6170
  132MOL0     O17686   6.835   6.179   1.014 -0.7087  0.4520  1.0829
  132MOL0     C17687   6.850   6.072   1.079  0.0691 -0.8931  0.5764
  132MOL0     O17688   6.855   5.951   1.024  0.2852  0.8019 -0.7768
  132MOL0     C17689   6.802   5.931   0.897  0.2826  0.4083  0.0846
  132MOL0     C17690   6.684   5.988   0.843  0.6045 -0.7067  0.0438
  132MOL0     C17691   6.622   5.934   0.720  0.4980 -1.0028  0.1705
  132MOL0     C17692   6.676   5.828   0.655  0.0993  0.4095 -0.3622
  132MOL0     O17693   6.618   5.787   0.532 -0.4990 -0.7461 -0.0941
  132MOL0     C17694   6.712   5.775   0.423  0.6028 -0.1543  0.4630
  132MOL0     C17695   6.671   5.855   0.301  0.6752 -0.7227 -0.3019
  132MOL0     C17696   6.540   5.794   0.243 -0.1309  0.2411 -0.4007
  132MOL0     C17697   6.465   5.895   0.169 -0.4688 -0.0478 -0.0396
  132MOL0     C17698   6.312   5.847   0.127 -0.4290 -0.3479  0.2944
  132MOL0     C17699   6.227   5.952   0.055 -0.7257  0.3976 -0.0491
  132MOL0     C17700   6.094   5.881   0.041 -0.5091 -0.9276 -0.2616
  132MOL0     C17701   5.979   5.978   0.005  0.1742 -0.1346 -0.3560
  132MOL0     N17702   5.856   5.902  -0.012  0.7871  0.2808  0.0481
  132MOL0     C17703   5.798   5.868  -0.129 -0.0829  0.4938 -0.8214
  132MOL0     C17704   5.678   5.827  -0.103 -0.4250 -0.6470 -0.5846
  132MOL0     C17705   5.573   5.808  -0.205 -0.5773 -1.2030 -0.3140
  132MOL0     C17706   5.445   5.879  -0.153 -0.2437  0.0268  0.9104
  132MOL0     C17707   5.339   5.899  -0.262  0.8374 -0.2922  0.0666
  132MOL0     C17708   5.216   5.997  -0.229 -0.3835 -0.8093  0.9138
  132MOL0     O17709   5.279   6.121  -0.206 -0.2027  0.0215  0.6063
  132MOL0     C17710   5.295   6.221  -0.307 -0.4882 -0.2435  0.4068
  132MOL0     C17711   5.192   6.271  -0.379  0.6708 -0.2444  0.2614
  132MOL0     C17712   5.209   6.370  -0.479 -0.3848  0.5330 -0.4830
  132MOL0     C17713   5.324   6.443  -0.471 -0.1090  0.9627  0.0038
  132MOL0     C17714   5.327   6.560  -0.552  1.1208  0.6254  0.6193
  132MOL0     O17715   5.209   6.602  -0.612  0.2885 -1.5667  0.1810
  132MOL0     C17716   5.207   6.730  -0.661 -0.0316  0.3829  0.6771
  132MOL0     C17717   5.292   6.773  -0.762  0.9437 -0.5830  0.3723
  132MOL0     C17718   5.286   6.902  -0.820  0.0747  0.2853 -0.3480
  132MOL0     C17719   5.179   6.988  -0.783  0.1567 -0.3973 -0.3930
  132MOL0     O17720   5.176   7.112  -0.841  0.2119  0.6280 -0.0447
  132MOL0     C17721   5.101   7.221  -0.784 -0.3603 -0.6029  0.2203
  132MOL0     C17722   5.145   7.342  -0.861 -0.3481 -0.6094  1.0428
  132MOL0     C17723   5.284   7.372  -0.850 -1.2119 -1.0617 -0.5053
  132MOL0     C17724   5.394   7.298  -0.937 -0.0391 -0.8348  0.4231
  132MOL0     C17725   5.512   7.394  -0.966 -0.8196  0.4926 -0.0408
  132MOL0     C17726   5.637   7.310  -1.000 -0.4407 -0.5167 -0.3683
  132MOL0     C17727   5.745   7.406  -1.047  0.4384 -0.4326  0.5932
  132MOL0     C17728   5.749   7.411  -1.200 -0.3917  0.3116 -0.5874
  132MOL0    Cl17729   5.737   7.254  -1.295 -0.2298  0.2743  0.1924
  132MOL0     C17730   5.091   6.948  -0.684 -0.1010 -0.2778 -0.0805
  132MOL0     C17731   5.101   6.822  -0.618 -0.0701 -0.0667 -1.1573
  132MOL0     O17732   5.436   6.612  -0.565 -0.2695  0.0396 -0.9162
  132MOL0     C17733   5.432   6.390  -0.396 -0.3688  0.5861  0.5347
  132MOL0     C17734   5.423   6.275  -0.321  0.5898 -0.3059 -0.5599
  132MOL0     N17735   5.663   5.829   0.031 -0.2918 -0.6752  0.3663
  132MOL0     N17736   5.769   5.878   0.092 -0.1862 -0.1716  0.0707
  132MOL0     C17737   6.792   5.773   0.713 -0.5682  0.5971 -0.3133
  132MOL0     C17738   6.850   5.819   0.836 -0.2781  0.1846  0.7336
  132MOL0     C17739   6.853   6.092   1.224 -0.3728  0.2255  0.7762
  132MOL0     C17740   6.918   6.205   1.279 -0.5336 -0.0221 -0.6025
  132MOL0     C17741   6.926   6.234   1.415 -0.5416 -0.1750 -0.0525
  132MOL0     C17742   6.854   6.151   1.504  0.8100 -1.6812  0.3053
  132MOL0     O17743   6.864   6.191   1.637  0.2085  0.0462 -0.5937
  132MOL0     C17744   6.786   6.116   1.733  0.0282  0.6636  0.4557
  132MOL0     C17745   6.773   6.200   1.862 -0.2125  0.1236 -0.1638
  132MOL0     C17746   6.688   6.328   1.840  0.0524  0.1144 -0.7031
  132MOL0     C17747   6.748   6.447   1.762  0.0474  0.0473  0.0862
  132MOL0     C17748   6.660   6.565   1.763  0.7408 -0.0911 -1.0317
  132MOL0     C17749   6.594   6.671   1.760 -1.3011  0.3485  0.1680
  132MOL0     C17750   6.792   6.033   1.452  0.5920 -1.1252 -0.8482
  132MOL0     C17751   6.798   6.001   1.316  0.3962  0.9090 -1.0809
  132MOL0     C17752   6.720   5.877   1.266 -0.0314  0.0819 -1.1015
  132MOL0     H17753   6.635   6.075   0.884  1.3841  1.3369 -3.0019
  132MOL0     H17754   6.519   5.965   0.703  0.5569 -0.8917  0.0143
  132MOL0     H17755   6.816   5.793   0.450  1.1709 -0.8263 -1.1329
  132MOL0     H17756   6.706   5.669   0.395  0.1268  0.0401 -0.1949
  132MOL0     H17757   6.751   5.858   0.226  2.0775  0.6951  1.1822
  132MOL0     H17758   6.651   5.957   0.335  2.1035 -1.0962  1.8306
  132MOL0     H17759   6.475   5.756   0.323  0.9893  0.5890  0.7197
  132MOL0     H17760   6.563   5.711   0.177  0.7788  0.9520 -0.9975
  132MOL0     H17761   6.461   5.991   0.221  1.4598 -1.0727  2.1533
  132MOL0     H17762   6.520   5.910   0.075  0.7815 -0.3407  0.6190
  132MOL0     H17763   6.316   5.763   0.057  0.8224 -0.7677  0.8444
  132MOL0     H17764   6.260   5.810   0.216 -0.1021  0.1515  0.7000
  132MOL0     H17765   6.207   6.046   0.108 -0.9588 -0.4014  1.3258
  132MOL0     H17766   6.272   5.982  -0.040 -1.6838  3.6300  0.3947
  132MOL0     H17767   6.071   5.819   0.128 -3.0066  0.4067  0.1066
  132MOL0     H17768   6.101   5.816  -0.047 -0.7046 -2.0195  0.5085
  132MOL0     H17769   5.959   6.040   0.093 -1.0566 -0.3774 -0.4489
  132MOL0     H17770   6.016   6.046  -0.072  1.3739 -0.6858 -0.2959
  132MOL0     H17771   5.839   5.869  -0.230 -0.6350  0.0441 -1.0605
  132MOL0     H17772   5.619   5.862  -0.289 -0.4283 -1.1885 -0.2232
  132MOL0     H17773   5.558   5.705  -0.237 -1.2228 -0.8302 -1.2837
  132MOL0     H17774   5.390   5.823  -0.076  0.4227  0.8119  1.9904
  132MOL0     H17775   5.479   5.968  -0.101  2.6642 -1.5530  1.9130
  132MOL0     H17776   5.297   5.799  -0.281  2.7996 -1.2366  0.4410
  132MOL0     H17777   5.384   5.939  -0.352  2.9078  1.8455  1.9236
  132MOL0     H17778   5.167   5.981  -0.132 -2.7288  2.3434  0.4286
  132MOL0     H17779   5.136   5.991  -0.303  0.1179  0.3879  0.2506
  132MOL0     H17780   5.096   6.221  -0.370 -0.4116  1.7330  0.2688
  132MOL0     H17781   5.119   6.406  -0.529  1.7536  4.8852 -1.6858
  132MOL0     H17782   5.368   6.708  -0.804  3.6709  3.0428 -0.7406
  132MOL0     H17783   5.357   6.942  -0.893  0.5927 -1.4032 -0.8073
  132MOL0     H17784   4.992   7.211  -0.793 -0.2286 -0.5731 -1.7384
  132MOL0     H17785   5.126   7.233  -0.678  1.7522  2.7301 -0.5110
  132MOL0     H17786   5.117   7.327  -0.965  1.4012  0.8782  0.3085
  132MOL0     H17787   5.107   7.436  -0.820  1.5634  0.5221  0.3232
  132MOL0     H17788   5.290   7.475  -0.885 -0.1428 -1.5343 -1.8036
  132MOL0     H17789   5.320   7.355  -0.748 -0.4394  0.7107 -0.4550
  132MOL0     H17790   5.344   7.249  -1.021 -0.2113 -2.4508  1.4098
  132MOL0     H17791   5.431   7.221  -0.868  0.2284 -0.3579  0.8210
  132MOL0     H17792   5.543   7.440  -0.872  0.1611  2.5639 -1.2983
  132MOL0     H17793   5.484   7.470  -1.040 -1.5987 -0.5258 -0.8286
  132MOL0     H17794   5.674   7.245  -0.920 -1.9006  0.4742  1.1918
  132MOL0     H17795   5.602   7.245  -1.080  1.3704 -2.0845  0.0525
  132MOL0     H17796   5.837   7.363  -1.006  0.8957  0.1951  0.2533
  132MOL0     H17797   5.734   7.506  -1.004  1.7629  0.9195 -1.9500
  132MOL0     H17798   5.671   7.479  -1.237  1.7615  1.4635 -3.4581
  132MOL0     H17799   5.845   7.449  -1.235  0.5624 -0.7044  0.8342
  132MOL0     H17800   5.016   7.020  -0.653  0.6518 -0.0486  1.2731
  132MOL0     H17801   5.031   6.777  -0.549 -0.0984  1.8029  0.0960
  132MOL0     H17802   5.529   6.438  -0.395 -0.3389  0.5248  0.6121
  132MOL0     H17803   5.509   6.251  -0.259  1.2237  3.2380  0.1271
  132MOL0     H17804   6.847   5.689   0.671  0.2141 -0.4388  2.5149
  132MOL0     H17805   6.943   5.784   0.880  0.7090 -0.3211 -1.6022
  132MOL0     H17806   6.978   6.260   1.207  0.9811 -1.8130 -0.7997
  132MOL0     H17807   6.976   6.324   1.446 -0.0181 -0.2486 -0.6825
  132MOL0     H17808   6.837   6.021   1.750  1.0130  0.3655 -3.3020
  132MOL0     H17809   6.688   6.098   1.688  0.8138  0.0957 -1.0881
  132MOL0     H17810   6.875   6.233   1.885 -0.4349  1.6360 -1.2540
  132MOL0     H17811   6.721   6.135   1.934 -2.2249 -0.5253 -2.1018
  132MOL0     H17812   6.664   6.364   1.940  0.7402 -1.9838  0.2735
  132MOL0     H17813   6.598   6.293   1.788 -1.1353 -0.6929  1.7573
  132MOL0     H17814   6.848   6.463   1.803  0.6798  0.1000 -1.4038
  132MOL0     H17815   6.764   6.418   1.658 -0.6584 -0.9089  0.2323
  132MOL0     H17816   6.526   6.752   1.773  0.2756  1.4585  2.0036
  132MOL0     H17817   6.732   5.973   1.519 -0.5132  0.4316 -0.3849
  132MOL0     H17818   6.794   5.819   1.211  5.2215  0.2167  4.6319
  132MOL0     H17819   6.686   5.816   1.351 -0.6748  2.0777  0.1330
  132MOL0     H17820   6.628   5.902   1.212  0.5327  0.2501 -1.9966
  133MOL0     O17821   2.759   6.766   3.178  0.0901  0.5738 -0.7331
  133MOL0     C17822   2.851   6.798   3.252 -0.3770 -0.3945 -0.3522
  133MOL0     O17823   2.895   6.934   3.258  0.0757  0.7920  0.1144
  133MOL0     C17824   2.885   7.015   3.141 -0.2764  0.7277  0.6444
  133MOL0     C17825   2.870   7.148   3.153  0.7425  0.9014  0.5760
  133MOL0     C17826   2.896   7.235   3.048  0.1632  0.4236 -0.5575
  133MOL0     C17827   2.921   7.189   2.919 -0.4042 -0.5893  0.4106
  133MOL0     O17828   2.938   7.277   2.813  0.4255  0.9397  0.5734
  133MOL0     C17829   2.826   7.345   2.754 -0.4484  1.5834  0.9759
  133MOL0     C17830   2.706   7.260   2.752  0.0014  0.3508  0.5672
  133MOL0     C17831   2.598   7.321   2.657  0.2598 -0.9033  0.1604
  133MOL0     C17832   2.458   7.258   2.635 -0.0373  0.3480 -0.5798
  133MOL0     C17833   2.450   7.115   2.581  0.0608  0.5879  0.5643
  133MOL0     C17834   2.453   7.113   2.424  0.1616 -0.3728  0.2773
  133MOL0     C17835   2.456   6.972   2.362 -0.5902  0.6652  0.3881
  133MOL0     C17836   2.600   6.905   2.382  0.6820  0.1826  0.4703
  133MOL0     N17837   2.715   6.991   2.367  0.0984  0.6713 -0.3049
  133MOL0     C17838   2.747   7.069   2.259  0.4213  0.0138 -0.1561
  133MOL0     C17839   2.848   7.145   2.299 -0.5144 -0.1220  1.2222
  133MOL0     C17840   2.914   7.246   2.206  0.0587  0.3316  0.1048
  133MOL0     C17841   2.964   7.380   2.270  0.7117  0.4456 -1.6270
  133MOL0     C17842   2.857   7.479   2.284  1.4495  0.3764 -0.0085
  133MOL0     C17843   2.907   7.590   2.387 -0.4114  0.4566  0.6895
  133MOL0     O17844   2.999   7.670   2.310 -0.5520 -0.0805 -0.6375
  133MOL0     C17845   3.104   7.741   2.367 -0.1705  0.7031 -0.6401
  133MOL0     C17846   3.091   7.783   2.501  0.3815  0.6251  0.8402
  133MOL0     C17847   3.182   7.878   2.544 -0.2602 -0.2283 -0.9532
  133MOL0     C17848   3.297   7.905   2.470 -0.9522  0.0429  0.6416
  133MOL0     C17849   3.400   7.995   2.527  0.2640  1.1068 -0.4913
  133MOL0     O17850   3.521   7.977   2.477 -0.8654 -0.7574 -0.0713
  133MOL0     C17851   3.603   8.076   2.513 -0.2351  0.3603  0.1498
  133MOL0     C17852   3.595   8.204   2.461  0.6406  0.4714 -0.1522
  133MOL0     C17853   3.677   8.308   2.504  0.9617  0.8907 -0.0150
  133MOL0     C17854   3.775   8.271   2.595  0.2485 -0.5142 -0.2402
  133MOL0     O17855   3.854   8.373   2.646 -0.1649  0.5297 -0.4470
  133MOL0     C17856   3.886   8.364   2.792  0.0171 -0.3201 -0.3675
  133MOL0     C17857   3.926   8.505   2.829 -1.0863 -0.0562 -0.3583
  133MOL0     C17858   3.975   8.508   2.966  0.0696  0.3793 -0.5348
  133MOL0     C17859   3.964   8.643   3.038 -0.3525 -0.0052  0.5975
  133MOL0     C17860   3.835   8.704   3.053 -0.9144  0.2047 -0.1648
  133MOL0     C17861   3.713   8.619   3.104 -0.1209  0.3989  0.3193
  133MOL0     C17862   3.575   8.691   3.119  0.1258 -0.3819  0.5544
  133MOL0     C17863   3.569   8.803   3.221 -0.1184 -0.9553  0.1013
  133MOL0    Cl17864   3.402   8.859   3.237 -0.0975 -0.4322  0.0491
  133MOL0     C17865   3.789   8.144   2.641 -0.4944 -0.2472 -0.1482
  133MOL0     C17866   3.709   8.046   2.602 -0.2842  0.0943  0.4201
  133MOL0     O17867   3.369   8.063   2.625 -0.2395 -0.2042  0.1827
  133MOL0     C17868   3.314   7.845   2.344 -0.0792  0.5061  0.1771
  133MOL0     C17869   3.218   7.758   2.292  0.2332 -0.0992  0.4926
  133MOL0     N17870   2.872   7.112   2.427  0.4398 -0.4554 -1.2916
  133MOL0     N17871   2.801   7.013   2.467 -0.2101 -0.1058  0.1298
  133MOL0     C17872   2.924   7.051   2.901 -1.0159 -0.1267 -1.2701
  133MOL0     C17873   2.912   6.962   3.010  0.2438 -1.2006  0.0493
  133MOL0     C17874   2.892   6.698   3.353  0.1404  0.3811 -0.1432
  133MOL0     C17875   2.955   6.742   3.467  0.0557 -0.4264 -0.2418
  133MOL0     C17876   2.991   6.655   3.577  0.4903 -0.3266  0.4087
  133MOL0     C17877   2.973   6.518   3.562 -0.0009 -0.1253  0.0489
  133MOL0     O17878   2.990   6.448   3.677 -0.6887  0.3176 -0.4460
  133MOL0     C17879   2.977   6.310   3.678 -0.9433 -0.2314  1.0464
  133MOL0     C17880   2.831   6.267   3.706  0.7743  0.3473 -1.1685
  133MOL0     C17881   2.775   6.331   3.836  0.8522 -0.2631  0.3586
  133MOL0     C17882   2.624   6.294   3.875  0.0605  0.2153  1.1223
  133MOL0     C17883   2.532   6.329   3.768  0.1465 -0.1034  0.4939
  133MOL0     C17884   2.445   6.343   3.684  0.0830 -0.9430  0.0123
  133MOL0     C17885   2.925   6.469   3.436 -0.6503 -0.1088  0.2716
  133MOL0     C17886   2.872   6.558   3.341 -0.3994 -0.2586  0.9019
  133MOL0     C17887   2.820   6.494   3.216 -0.0095 -0.2695 -0.5958
  133MOL0     H17888   2.848   7.177   3.255  2.3434 -1.1002  1.5792
  133MOL0     H17889   2.885   7.341   3.070  0.2223  0.3042  0.0505
  133MOL0     H17890   2.797   7.436   2.807 -0.6424  1.8488  0.4248
  133MOL0     H17891   2.864   7.375   2.656  2.7208  1.1744  1.9742
  133MOL0     H17892   2.674   7.253   2.856 -0.0379  0.0035  0.5349
  133MOL0     H17893   2.724   7.153   2.740 -0.4025  0.4091 -0.7434
  133MOL0     H17894   2.651   7.345   2.564  2.5720 -0.3995  1.5219
  133MOL0     H17895   2.577   7.417   2.706  2.6217  0.7973 -1.8797
  133MOL0     H17896   2.399   7.254   2.727 -0.9080  3.1721 -0.9116
  133MOL0     H17897   2.405   7.320   2.563 -2.7606  0.2344  1.1915
  133MOL0     H17898   2.532   7.052   2.618 -2.7228 -3.8487 -0.1346
  133MOL0     H17899   2.358   7.074   2.623  0.6673  1.1925  2.6049
  133MOL0     H17900   2.360   7.168   2.406  1.2470  0.9324 -1.6777
  133MOL0     H17901   2.527   7.180   2.380 -1.5208  2.3628  1.3655
  133MOL0     H17902   2.431   6.963   2.256  2.7408 -4.4079 -0.3043
  133MOL0     H17903   2.382   6.916   2.419  0.2769 -0.5274  0.3749
  133MOL0     H17904   2.611   6.860   2.480 -0.0315 -0.1092  0.4217
  133MOL0     H17905   2.605   6.825   2.308 -2.1929 -0.3971  0.8114
  133MOL0     H17906   2.706   7.063   2.158 -1.2319 -2.9619  0.5510
  133MOL0     H17907   2.996   7.203   2.148 -1.3214  0.2743 -1.9350
  133MOL0     H17908   2.856   7.278   2.118  3.0862  1.9152 -1.4511
  133MOL0     H17909   3.007   7.353   2.367  4.2632 -1.8959 -3.6639
  133MOL0     H17910   3.035   7.433   2.207  0.1079 -1.4636 -4.0707
  133MOL0     H17911   2.774   7.422   2.327  1.8315  0.0484  0.2950
  133MOL0     H17912   2.819   7.532   2.196 -0.1652  2.3053  1.7114
  133MOL0     H17913   2.939   7.546   2.482 -5.4663  0.0017  2.4491
  133MOL0     H17914   2.833   7.661   2.422 -0.1725  0.9720  0.1645
  133MOL0     H17915   2.996   7.753   2.543  0.6453  1.0283  1.7482
  133MOL0     H17916   3.161   7.937   2.633 -0.8407 -0.3988 -0.9697
  133MOL0     H17917   3.513   8.234   2.396  1.7407  3.0490 -0.4833
  133MOL0     H17918   3.675   8.404   2.453 -1.7198  0.0575 -1.7356
  133MOL0     H17919   3.798   8.349   2.855 -1.6789 -0.1599 -2.5965
  133MOL0     H17920   3.971   8.297   2.810  1.6674  1.5286 -0.9364
  133MOL0     H17921   3.998   8.553   2.762 -0.5677  2.4999  1.8413
  133MOL0     H17922   3.835   8.564   2.814 -0.5767  0.8298 -0.0511
  133MOL0     H17923   3.930   8.424   3.020  2.2622 -1.6613 -1.7032
  133MOL0     H17924   4.083   8.487   2.967  0.1713  0.0358  4.2242
  133MOL0     H17925   4.022   8.716   2.981 -0.0881 -0.6304  0.0531
  133MOL0     H17926   4.016   8.641   3.134  3.5601 -1.2799 -1.3670
  133MOL0     H17927   3.805   8.769   2.970  0.1069  1.7400  0.6217
  133MOL0     H17928   3.847   8.771   3.139 -2.8168 -1.0503  1.1480
  133MOL0     H17929   3.693   8.552   3.020 -0.7125  1.7193 -0.6365
  133MOL0     H17930   3.744   8.564   3.194  2.1410 -0.4167 -0.8890
  133MOL0     H17931   3.492   8.627   3.150 -0.7979  1.3112  1.7459
  133MOL0     H17932   3.544   8.721   3.019  0.2435 -0.6508  0.4359
  133MOL0     H17933   3.599   8.768   3.321  1.7636  2.1692  0.7794
  133MOL0     H17934   3.632   8.887   3.193 -0.6245 -0.1104  1.3965
  133MOL0     H17935   3.864   8.116   2.714  0.3228  5.1486  1.4530
  133MOL0     H17936   3.724   7.947   2.643  2.5786  0.9255  1.7135
  133MOL0     H17937   3.405   7.853   2.285 -1.0241 -1.6490 -1.7072
  133MOL0     H17938   3.237   7.690   2.210 -0.6153 -0.6863  0.7711
  133MOL0     H17939   2.973   7.018   2.810  3.7530  2.2310  0.0959
  133MOL0     H17940   2.929   6.855   3.004  0.9815 -1.0989  0.2340
  133MOL0     H17941   2.994   6.843   3.468 -1.3066  0.1214 -0.5544
  133MOL0     H17942   3.033   6.693   3.669  1.8665  0.7313 -0.6049
  133MOL0     H17943   3.038   6.266   3.757 -0.3771  2.1788  2.0434
  133MOL0     H17944   3.013   6.269   3.583  1.6558  1.3485  1.2402
  133MOL0     H17945   2.843   6.161   3.728  1.3396  0.3436 -1.4672
  133MOL0     H17946   2.759   6.280   3.625 -0.6453 -3.0069 -0.5865
  133MOL0     H17947   2.787   6.438   3.822 -0.3846  0.2646  2.7568
  133MOL0     H17948   2.836   6.311   3.925 -0.9294  0.6636  1.8432
  133MOL0     H17949   2.624   6.185   3.879  0.1534  0.1075 -0.9254
  133MOL0     H17950   2.601   6.344   3.970  0.7519 -0.2968  1.5760
  133MOL0     H17951   2.362   6.352   3.616 -1.4261 -0.9723  1.7954
  133MOL0     H17952   2.920   6.364   3.410 -1.5656 -0.1765  0.6643
  133MOL0     H17953   2.846   6.387   3.212  3.3030  0.1415  3.5393
  133MOL0     H17954   2.715   6.520   3.200  0.2400  1.9133  0.8786
  133MOL0     H17955   2.874   6.544   3.135 -0.8907  1.5870 -0.0896
  134MOL0     O17956   5.396   1.552   7.630 -0.3395  0.2853  0.6944
  134MOL0     C17957   5.368   1.585   7.746  0.3490  0.7100 -0.6258
  134MOL0     O17958   5.376   1.717   7.797  0.6236  0.1598 -0.2401
  134MOL0     C17959   5.396   1.819   7.712  0.4261 -0.6744  1.1600
  134MOL0     C17960   5.303   1.863   7.617 -0.1585  0.7654 -0.6356
  134MOL0     C17961   5.301   1.980   7.545 -0.4309 -0.1798  1.1172
  134MOL0     C17962   5.411   2.069   7.563 -0.4180 -0.3535 -0.0834
  134MOL0     O17963   5.414   2.191   7.489  0.2367 -0.3175 -0.8486
  134MOL0     C17964   5.415   2.319   7.562  0.6624  0.2900 -0.4465
  134MOL0     C17965   5.417   2.445   7.471 -0.1343  0.2016  1.2613
  134MOL0     C17966   5.538   2.433   7.374  0.0279  0.1909 -0.0245
  134MOL0     C17967   5.547   2.530   7.261  0.4388 -0.2467 -0.2001
  134MOL0     C17968   5.561   2.684   7.312 -0.3821  0.2979 -0.2812
  134MOL0     C17969   5.609   2.771   7.196 -0.9473 -0.5325  0.3710
  134MOL0     C17970   5.503   2.782   7.081  0.4129  0.5783 -0.1779
  134MOL0     C17971   5.553   2.880   6.970  0.3501 -0.7691  0.0710
  134MOL0     N17972   5.458   2.943   6.878  0.3543  0.0117 -0.1300
  134MOL0     C17973   5.362   3.035   6.915  0.2052  0.8996  0.2028
  134MOL0     C17974   5.314   3.081   6.797 -0.8174 -0.7501 -0.0697
  134MOL0     C17975   5.191   3.167   6.798 -0.8649  0.1202  0.0857
  134MOL0     C17976   5.223   3.319   6.766 -0.8042 -0.2910 -0.1158
  134MOL0     C17977   5.100   3.404   6.742  0.4690  0.4463  0.0973
  134MOL0     C17978   5.023   3.447   6.866 -0.2785  0.0823  0.4710
  134MOL0     O17979   4.897   3.393   6.866  0.6821 -0.7039 -0.5205
  134MOL0     C17980   4.808   3.454   6.777 -0.3242 -0.5440  1.3039
  134MOL0     C17981   4.838   3.581   6.709 -0.2608  0.3796 -0.0859
  134MOL0     C17982   4.734   3.651   6.650  0.5508 -0.3837  1.2336
  134MOL0     C17983   4.604   3.595   6.621 -0.3152 -0.6162  0.2271
  134MOL0     C17984   4.491   3.661   6.559 -0.0435 -0.2525  0.3177
  134MOL0     O17985   4.390   3.586   6.499  0.4925 -0.1203  0.6885
  134MOL0     C17986   4.356   3.621   6.371  0.0937 -0.5386 -0.2404
  134MOL0     C17987   4.437   3.593   6.262  0.6601 -0.5176  0.8303
  134MOL0     C17988   4.385   3.619   6.136 -0.4223  0.7625 -0.6534
  134MOL0     C17989   4.262   3.691   6.122 -0.1007 -0.2228  0.2584
  134MOL0     O17990   4.208   3.731   5.999 -0.7101 -0.5923 -0.1454
  134MOL0     C17991   4.237   3.872   5.963 -0.2827  0.4087 -0.2474
  134MOL0     C17992   4.231   3.867   5.812 -0.2163  0.2565  0.7212
  134MOL0     C17993   4.363   3.805   5.761 -0.0053  0.7288  0.0662
  134MOL0     C17994   4.483   3.892   5.774 -0.1531 -0.2434 -0.4342
  134MOL0     C17995   4.610   3.824   5.723  0.3081 -0.0523 -0.2219
  134MOL0     C17996   4.659   3.703   5.814  0.7391  1.0149  0.8715
  134MOL0     C17997   4.808   3.656   5.792 -0.4782 -0.6325 -0.6980
  134MOL0     C17998   4.828   3.602   5.652  0.5179  0.7181  0.6734
  134MOL0    Cl17999   5.004   3.584   5.620  0.3284  0.2617 -0.1982
  134MOL0     C18000   4.201   3.745   6.236 -0.8253  1.0749  0.0606
  134MOL0     C18001   4.245   3.709   6.358 -0.7461  0.5694 -0.2725
  134MOL0     O18002   4.484   3.786   6.579  0.4345  0.8630  0.6857
  134MOL0     C18003   4.593   3.469   6.679 -0.8792 -0.0327  0.3085
  134MOL0     C18004   4.685   3.403   6.765 -0.3526 -0.7792  1.2542
  134MOL0     N18005   5.376   3.023   6.697 -0.6634  0.1211  0.1622
  134MOL0     N18006   5.455   2.926   6.743  0.2773  0.7563  1.0914
  134MOL0     C18007   5.506   2.042   7.662  0.4958 -0.4423  0.9840
  134MOL0     C18008   5.508   1.911   7.726  0.0294 -0.4394  0.2186
  134MOL0     C18009   5.296   1.475   7.829  0.1805  0.1691 -0.4447
  134MOL0     C18010   5.306   1.484   7.970 -0.4211 -0.4323  0.1620
  134MOL0     C18011   5.258   1.376   8.045 -0.6199 -0.3792 -0.1872
  134MOL0     C18012   5.208   1.259   7.993  0.1982 -0.8769  0.3691
  134MOL0     O18013   5.175   1.167   8.084  0.0930 -0.3930 -0.0936
  134MOL0     C18014   5.194   1.027   8.051  0.2534 -0.6382 -0.1835
  134MOL0     C18015   5.130   0.937   8.151 -0.4415 -0.3280  0.2513
  134MOL0     C18016   5.218   0.905   8.278  0.2124  0.0895  0.4035
  134MOL0     C18017   5.147   0.845   8.396 -0.5683 -0.0267 -0.2510
  134MOL0     C18018   5.263   0.806   8.488  0.2564 -0.1327 -0.1287
  134MOL0     C18019   5.367   0.778   8.549  0.1731 -0.0617  0.0818
  134MOL0     C18020   5.189   1.251   7.854 -0.2391  1.0183  0.4216
  134MOL0     C18021   5.232   1.364   7.772 -0.6321  0.2855  0.1069
  134MOL0     C18022   5.188   1.358   7.628 -0.0328  0.7372 -1.1820
  134MOL0     H18023   5.218   1.800   7.592  0.7363  0.5930 -3.6562
  134MOL0     H18024   5.228   2.007   7.469 -1.0240 -2.8145  0.6162
  134MOL0     H18025   5.322   2.316   7.620  0.2409 -1.2558 -1.1420
  134MOL0     H18026   5.499   2.329   7.631  0.2319  0.7696  0.0130
  134MOL0     H18027   5.428   2.532   7.535 -2.5832  0.0798  1.9624
  134MOL0     H18028   5.330   2.469   7.408 -0.8899  1.4390  2.7235
  134MOL0     H18029   5.532   2.330   7.337  0.0301  1.1697 -3.0285
  134MOL0     H18030   5.630   2.433   7.434  0.7558 -1.3370 -1.0709
  134MOL0     H18031   5.623   2.493   7.191 -1.4300 -3.2015 -0.8679
  134MOL0     H18032   5.447   2.514   7.220 -0.5532  1.9522  1.1989
  134MOL0     H18033   5.462   2.719   7.343 -1.7782 -3.8609  0.5027
  134MOL0     H18034   5.627   2.699   7.398 -0.1433  4.5527 -0.9677
  134MOL0     H18035   5.628   2.873   7.231 -0.1813 -0.2551 -0.7915
  134MOL0     H18036   5.706   2.732   7.162 -0.4957  0.8235  0.0530
  134MOL0     H18037   5.407   2.821   7.118  0.3569 -0.7329  1.1568
  134MOL0     H18038   5.481   2.686   7.035  1.2738  0.2755  0.0293
  134MOL0     H18039   5.611   2.960   7.018  0.1378 -1.2144  1.1083
  134MOL0     H18040   5.624   2.821   6.912 -0.5811 -3.3199  1.3972
  134MOL0     H18041   5.335   3.086   7.007  1.1976  1.7699  0.0218
  134MOL0     H18042   5.118   3.130   6.726 -1.2189 -0.9751  0.9776
  134MOL0     H18043   5.151   3.172   6.900  0.4340 -0.1318  0.6291
  134MOL0     H18044   5.293   3.367   6.835 -1.5632  0.7564 -0.0421
  134MOL0     H18045   5.292   3.311   6.682  3.4451 -0.2500  3.0661
  134MOL0     H18046   5.029   3.344   6.684  0.4758  0.4184  0.1184
  134MOL0     H18047   5.134   3.496   6.693 -1.5613  1.0772 -0.2275
  134MOL0     H18048   5.026   3.555   6.884  2.3357 -0.2504  2.8191
  134MOL0     H18049   5.079   3.409   6.952  3.0500  1.5353 -0.8595
  134MOL0     H18050   4.935   3.628   6.721  1.1054 -1.7940 -1.9149
  134MOL0     H18051   4.745   3.750   6.607 -2.7240 -0.6414 -0.4883
  134MOL0     H18052   4.532   3.540   6.266  1.6221  0.9749 -0.8749
  134MOL0     H18053   4.435   3.584   6.046  1.1868  1.7058 -0.1753
  134MOL0     H18054   4.162   3.937   6.009 -1.7599 -0.3050 -1.5515
  134MOL0     H18055   4.336   3.897   6.002 -0.9614 -0.4632  2.2777
  134MOL0     H18056   4.154   3.798   5.775  0.1477  0.9295 -1.4126
  134MOL0     H18057   4.218   3.966   5.767 -1.6093 -0.8794 -1.5751
  134MOL0     H18058   4.385   3.711   5.814  4.3717  1.0277 -0.8500
  134MOL0     H18059   4.358   3.776   5.656  1.1600 -0.3331  0.2706
  134MOL0     H18060   4.508   3.906   5.880  1.2191 -1.8023 -0.5107
  134MOL0     H18061   4.463   3.990   5.729 -1.5324  0.4146  1.4746
  134MOL0     H18062   4.688   3.900   5.722  1.6375 -1.2365  2.5362
  134MOL0     H18063   4.587   3.783   5.624  2.2443 -2.0321  0.0622
  134MOL0     H18064   4.647   3.737   5.918 -1.4796  2.6947  0.1309
  134MOL0     H18065   4.596   3.616   5.799 -1.0383  2.0611  1.9684
  134MOL0     H18066   4.835   3.582   5.868  0.6379 -0.8120 -1.2501
  134MOL0     H18067   4.856   3.752   5.814 -1.4775 -0.4265  0.6630
  134MOL0     H18068   4.769   3.511   5.639  1.5365  0.2022 -0.5405
  134MOL0     H18069   4.794   3.672   5.574 -1.0725 -0.7552 -0.0122
  134MOL0     H18070   4.119   3.815   6.238  0.3706  2.5042  0.5104
  134MOL0     H18071   4.201   3.748   6.449 -0.2467  0.7931 -0.1254
  134MOL0     H18072   4.500   3.416   6.663 -2.4012  1.5040  3.1098
  134MOL0     H18073   4.643   3.311   6.804 -1.8731 -1.0934 -0.9534
  134MOL0     H18074   5.585   2.113   7.687 -0.5131  0.4057  1.8695
  134MOL0     H18075   5.587   1.875   7.792 -0.5839 -1.7929  0.2623
  134MOL0     H18076   5.348   1.573   8.015 -2.5546 -0.1265  1.7121
  134MOL0     H18077   5.270   1.373   8.153  0.0436  0.5794 -0.2261
  134MOL0     H18078   5.301   1.001   8.044  0.3950 -0.3166  0.6840
  134MOL0     H18079   5.144   1.011   7.955  1.0714 -0.7674 -0.6055
  134MOL0     H18080   5.109   0.844   8.097 -0.8445 -1.5798  2.4616
  134MOL0     H18081   5.040   0.979   8.196  2.1027  1.3117  4.3054
  134MOL0     H18082   5.263   1.002   8.302  0.0806  0.1464  0.4167
  134MOL0     H18083   5.298   0.834   8.251  0.8479  0.4449  1.2784
  134MOL0     H18084   5.094   0.926   8.448 -1.4629  0.2298 -1.5152
  134MOL0     H18085   5.068   0.771   8.377 -2.7111  1.9881  0.3755
  134MOL0     H18086   5.460   0.736   8.582 -0.3731 -0.7343  0.7994
  134MOL0     H18087   5.137   1.170   7.804  1.0906  0.2626  0.2009
  134MOL0     H18088   5.124   1.444   7.605  1.6264  2.5739  0.6426
  134MOL0     H18089   5.267   1.349   7.553  0.1336 -1.3988 -0.8288
  134MOL0     H18090   5.134   1.266   7.605  0.9972 -0.6780  1.5756
  135MOL0     O18091   2.773   2.491   1.612  0.0485 -0.0500 -0.3868
  135MOL0     C18092   2.880   2.447   1.559  1.0676 -0.1701 -0.1834
  135MOL0     O18093   2.898   2.320   1.528  0.3895  0.8692 -0.1026
  135MOL0     C18094   2.793   2.233   1.519 -0.5905 -0.4361  0.5397
  135MOL0     C18095   2.698   2.246   1.409  0.2475 -0.5608  0.4983
  135MOL0     C18096   2.603   2.142   1.381  0.4822 -0.0543 -0.0045
  135MOL0     C18097   2.592   2.033   1.472  0.8720  0.0369 -0.4015
  135MOL0     O18098   2.493   1.942   1.483 -0.2269  0.3776 -0.0627
  135MOL0     C18099   2.361   1.954   1.422  0.5345 -0.2457  0.0206
  135MOL0     C18100   2.253   1.855   1.491  0.0147 -0.5124  0.3422
  135MOL0     C18101   2.283   1.711   1.444 -0.3476  1.4437  0.1845
  135MOL0     C18102   2.175   1.616   1.495 -0.0460  0.2737 -0.4947
  135MOL0     C18103   2.214   1.465   1.472 -0.1488  0.1369  0.0581
  135MOL0     C18104   2.123   1.361   1.539  0.3659  0.4911 -0.6248
  135MOL0     C18105   2.116   1.240   1.448 -0.0648 -0.0748 -0.2121
  135MOL0     C18106   2.242   1.152   1.438  0.6105  0.0763 -0.4200
  135MOL0     N18107   2.207   1.016   1.379  0.0575 -0.0690  0.2617
  135MOL0     C18108   2.266   0.898   1.414  1.1171  0.1300  0.6219
  135MOL0     C18109   2.254   0.812   1.314 -0.0149  0.1504  0.4291
  135MOL0     C18110   2.308   0.669   1.311  0.3489 -0.2008 -0.8731
  135MOL0     C18111   2.397   0.646   1.190  0.5212 -0.5275  0.5717
  135MOL0     C18112   2.460   0.507   1.195  0.2303  0.4009 -0.1770
  135MOL0     C18113   2.544   0.486   1.071  0.2921  1.0904  0.0723
  135MOL0     O18114   2.615   0.357   1.088 -0.3343 -0.1368 -0.1434
  135MOL0     C18115   2.638   0.279   0.979 -0.2167  0.5384  0.4971
  135MOL0     C18116   2.593   0.298   0.848  0.3819  0.0056  0.7594
  135MOL0     C18117   2.608   0.204   0.745  0.8152 -0.1617  0.1573
  135MOL0     C18118   2.683   0.094   0.766  0.1247  1.4110 -0.3084
  135MOL0     C18119   2.710  -0.008   0.659  0.2463  0.7589 -0.5278
  135MOL0     O18120   2.628   0.003   0.549  0.5038 -0.0920 -0.3256
  135MOL0     C18121   2.623  -0.088   0.442  0.3951 -1.0214 -0.0634
  135MOL0     C18122   2.510  -0.070   0.350 -0.3485  0.1940 -0.4466
  135MOL0     C18123   2.502  -0.131   0.228  0.3466  0.5628 -1.3465
  135MOL0     C18124   2.599  -0.217   0.179 -0.9619 -0.5317  0.7184
  135MOL0     O18125   2.589  -0.291   0.061 -0.0782  0.0320  0.6101
  135MOL0     C18126   2.522  -0.236  -0.060 -0.1951 -0.4412  0.2036
  135MOL0     C18127   2.603  -0.118  -0.108  0.5450 -0.2324 -0.5440
  135MOL0     C18128   2.550  -0.045  -0.230  0.7442 -0.2445  0.2828
  135MOL0     C18129   2.533  -0.136  -0.356 -0.0821  0.5779 -0.0654
  135MOL0     C18130   2.477  -0.073  -0.483 -0.0221  0.9564 -1.0371
  135MOL0     C18131   2.462  -0.186  -0.586  0.9300 -0.6722 -0.0558
  135MOL0     C18132   2.403  -0.135  -0.717  0.7786 -0.0404  0.4456
  135MOL0     C18133   2.377  -0.249  -0.810 -0.0021  0.4414  0.7182
  135MOL0    Cl18134   2.388  -0.203  -0.980  0.1593  0.1920 -0.7190
  135MOL0     C18135   2.712  -0.239   0.263 -0.2610 -0.1321  0.4208
  135MOL0     C18136   2.722  -0.176   0.391  0.0512 -1.1495 -0.3889
  135MOL0     O18137   2.785  -0.100   0.681 -0.0050  0.0467  0.3666
  135MOL0     C18138   2.738   0.075   0.895  0.6725 -0.0833  0.8783
  135MOL0     C18139   2.718   0.165   0.995  0.8115 -0.2679 -0.8194
  135MOL0     N18140   2.178   0.871   1.218  0.8666 -0.2780 -0.4434
  135MOL0     N18141   2.130   0.984   1.270  0.3989 -0.7182 -0.1542
  135MOL0     C18142   2.690   2.017   1.575 -0.0369 -0.6354 -0.3219
  135MOL0     C18143   2.792   2.120   1.603  0.9799 -0.0393  0.0878
  135MOL0     C18144   2.982   2.539   1.513  0.4642  0.4589  0.3052
  135MOL0     C18145   3.079   2.497   1.422 -0.9436 -0.1362  0.7893
  135MOL0     C18146   3.184   2.589   1.384  0.2218 -0.4436 -0.6956
  135MOL0     C18147   3.199   2.718   1.437  0.4538 -0.7745  0.5354
  135MOL0     O18148   3.297   2.809   1.397 -0.5299 -0.1956 -0.6906
  135MOL0     C18149   3.327   2.912   1.488  0.1096 -0.0492 -0.8436
  135MOL0     C18150   3.463   2.971   1.465 -0.1224  0.0978  0.2794
  135MOL0     C18151   3.580   2.867   1.476  0.0292 -0.1552 -0.2826
  135MOL0     C18152   3.697   2.906   1.393 -0.2006 -0.6368  0.3818
  135MOL0     C18153   3.816   2.818   1.390  0.2726  0.4803 -0.5228
  135MOL0     C18154   3.918   2.755   1.403  0.9529  0.0849 -0.3970
  135MOL0     C18155   3.100   2.759   1.521  0.0051  0.5207  0.1648
  135MOL0     C18156   3.005   2.670   1.571 -0.5659  0.3135 -0.0795
  135MOL0     C18157   2.922   2.721   1.691  0.4280  0.2179 -0.5493
  135MOL0     H18158   2.725   2.325   1.339  1.6170 -1.4265  0.0106
  135MOL0     H18159   2.539   2.142   1.293 -4.0358 -0.7300  2.9567
  135MOL0     H18160   2.332   2.057   1.446  3.0314  0.3851  0.5908
  135MOL0     H18161   2.365   1.960   1.313 -1.7453  3.6408 -0.0403
  135MOL0     H18162   2.158   1.891   1.450  0.3481 -1.9075 -1.7712
  135MOL0     H18163   2.262   1.864   1.600 -0.5675  1.0420  0.2954
  135MOL0     H18164   2.373   1.677   1.496  1.3012  0.9731 -2.7484
  135MOL0     H18165   2.293   1.700   1.336  0.6761  0.2059  0.3702
  135MOL0     H18166   2.166   1.630   1.603  3.3229  0.2326 -0.0828
  135MOL0     H18167   2.081   1.633   1.442 -0.3127 -3.3693 -1.4841
  135MOL0     H18168   2.221   1.455   1.363  1.3428  2.7414 -0.1644
  135MOL0     H18169   2.313   1.452   1.515  0.2708 -0.6521 -1.0965
  135MOL0     H18170   2.160   1.330   1.638  1.4127 -1.1321 -1.4805
  135MOL0     H18171   2.023   1.404   1.541 -0.9976 -2.1925  3.6715
  135MOL0     H18172   2.085   1.280   1.351 -0.6133 -0.3286 -0.1449
  135MOL0     H18173   2.041   1.167   1.480 -0.2246  0.9065  1.8012
  135MOL0     H18174   2.309   1.204   1.369 -1.4753  3.9567  0.2254
  135MOL0     H18175   2.279   1.139   1.540 -0.9173 -3.4732 -0.1677
  135MOL0     H18176   2.322   0.882   1.506  1.0474 -1.9893  0.3338
  135MOL0     H18177   2.361   0.657   1.406 -1.0819  0.6753  0.0866
  135MOL0     H18178   2.225   0.598   1.321 -2.9723  3.4981  0.7536
  135MOL0     H18179   2.337   0.659   1.099  2.3781  2.0047 -0.3925
  135MOL0     H18180   2.472   0.725   1.191 -0.0942  0.1955 -2.1171
  135MOL0     H18181   2.372   0.443   1.198  0.7026 -0.2699 -0.4834
  135MOL0     H18182   2.517   0.517   1.288 -2.1614 -0.0610  1.4384
  135MOL0     H18183   2.614   0.565   1.042 -0.2867  0.7673 -2.5341
  135MOL0     H18184   2.475   0.483   0.985 -0.2409  2.0287  0.4491
  135MOL0     H18185   2.529   0.382   0.824 -1.4108 -2.2361 -3.0650
  135MOL0     H18186   2.550   0.214   0.654 -1.9881 -2.3096  1.5580
  135MOL0     H18187   2.433   0.001   0.382  2.2382  2.0750  2.1433
  135MOL0     H18188   2.414  -0.132   0.165 -1.3219 -0.6403  0.8426
  135MOL0     H18189   2.515  -0.315  -0.134 -0.8205  2.7008 -3.4253
  135MOL0     H18190   2.418  -0.208  -0.042 -0.0002 -0.5750  1.6491
  135MOL0     H18191   2.606  -0.038  -0.034 -0.7489 -0.0763 -0.6245
  135MOL0     H18192   2.705  -0.151  -0.130  0.3939 -0.3552 -1.0929
  135MOL0     H18193   2.457   0.013  -0.221  2.0513  1.8260  1.2350
  135MOL0     H18194   2.626   0.025  -0.267 -1.8918  1.9620 -1.3169
  135MOL0     H18195   2.465  -0.218  -0.331 -1.4583  1.7873  0.2684
  135MOL0     H18196   2.633  -0.177  -0.370 -0.3185 -0.5931  1.4198
  135MOL0     H18197   2.546   0.007  -0.511 -0.3644  1.4682 -0.4462
  135MOL0     H18198   2.378  -0.026  -0.484 -0.6010 -0.2233 -2.0509
  135MOL0     H18199   2.559  -0.232  -0.609  1.6656  1.6261 -1.8878
  135MOL0     H18200   2.402  -0.266  -0.540  3.7899 -2.8122  0.2382
  135MOL0     H18201   2.468  -0.066  -0.771 -3.2725  2.9807 -1.0975
  135MOL0     H18202   2.314  -0.072  -0.705 -0.6537 -1.9932  0.5195
  135MOL0     H18203   2.457  -0.322  -0.794 -0.2869  0.0530  0.4018
  135MOL0     H18204   2.286  -0.307  -0.789  0.4774  0.1013  1.9494
  135MOL0     H18205   2.792  -0.310   0.243 -2.2010 -2.2121 -0.4286
  135MOL0     H18206   2.817  -0.193   0.441 -0.5074 -1.8013  0.4727
  135MOL0     H18207   2.792  -0.015   0.924 -0.3380 -1.0125  0.0093
  135MOL0     H18208   2.767   0.143   1.089 -0.7461 -0.3926  0.0118
  135MOL0     H18209   2.678   1.927   1.634  0.3866  1.5416  3.4514
  135MOL0     H18210   2.869   2.103   1.678  0.3470 -0.1714  0.7271
  135MOL0     H18211   3.071   2.398   1.377  1.5538  0.0025 -0.1197
  135MOL0     H18212   3.262   2.550   1.320  0.5818 -2.0355  0.6373
  135MOL0     H18213   3.325   2.876   1.591  3.4205  1.7015 -0.0384
  135MOL0     H18214   3.246   2.986   1.481 -1.0715 -1.2886 -0.8731
  135MOL0     H18215   3.469   3.048   1.542  1.6200 -0.7151  1.0109
  135MOL0     H18216   3.455   3.021   1.368  0.2570  0.6908  0.5461
  135MOL0     H18217   3.543   2.772   1.435 -0.0309  0.4441 -1.6564
  135MOL0     H18218   3.612   2.848   1.579  0.4530 -1.9829 -0.7154
  135MOL0     H18219   3.662   2.915   1.290  0.9688  2.7262  0.1616
  135MOL0     H18220   3.735   3.005   1.419  0.1007 -0.3688 -1.0229
  135MOL0     H18221   4.001   2.693   1.428  0.4806 -0.5852 -0.4591
  135MOL0     H18222   3.101   2.854   1.575 -1.1929  0.5406  0.1803
  135MOL0     H18223   2.911   2.648   1.773 -2.2533  0.4811 -0.5927
  135MOL0     H18224   2.971   2.810   1.733  3.7067 -0.4914 -2.5127
  135MOL0     H18225   2.820   2.751   1.666  0.9932  2.9537  0.1352
  136MOL0     O18226   8.645   0.997   7.565 -0.0236  0.9265 -0.3844
  136MOL0     C18227   8.622   1.088   7.488 -0.0302  0.5380 -0.5327
  136MOL0     O18228   8.711   1.168   7.427  0.4013 -0.8011 -0.2728
  136MOL0     C18229   8.841   1.124   7.451  0.3299  0.0775 -0.9246
  136MOL0     C18230   8.920   1.066   7.352 -0.5894  1.0228  0.0303
  136MOL0     C18231   9.062   1.062   7.363  1.3905  0.2725  0.3992
  136MOL0     C18232   9.122   1.118   7.477 -0.5822 -0.0940 -0.2287
  136MOL0     O18233   9.260   1.116   7.514 -0.4482  0.1964 -0.5020
  136MOL0     C18234   9.349   1.047   7.419  0.1286  0.0294  0.0864
  136MOL0     C18235   9.430   1.129   7.307  0.7482 -0.3500 -0.1089
  136MOL0     C18236   9.346   1.223   7.224  0.0525 -0.8242 -0.3909
  136MOL0     C18237   9.370   1.370   7.259  0.5705  0.3450  0.0515
  136MOL0     C18238   9.302   1.467   7.162  0.1140  0.1001 -0.2126
  136MOL0     C18239   9.399   1.572   7.108  0.0580 -0.1929  0.1233
  136MOL0     C18240   9.343   1.647   6.989 -1.0505 -0.1809  0.3377
  136MOL0     C18241   9.192   1.684   6.984 -0.4169  0.5730 -0.2377
  136MOL0     N18242   9.151   1.740   6.855  0.4023  0.4586 -0.0083
  136MOL0     C18243   9.117   1.874   6.841 -0.1877  0.5661 -0.5899
  136MOL0     C18244   9.077   1.892   6.714  0.5128  0.4237 -0.0416
  136MOL0     C18245   9.010   2.023   6.667 -0.2237 -0.3109 -0.4213
  136MOL0     C18246   8.909   2.007   6.547 -0.6363  0.0473 -0.4427
  136MOL0     C18247   8.880   2.132   6.465 -0.9557 -0.3485  0.5876
  136MOL0     C18248   8.755   2.111   6.373  0.6496  0.7984  0.2136
  136MOL0     O18249   8.645   2.109   6.464  0.1710 -0.2276  0.8405
  136MOL0     C18250   8.565   2.000   6.485  0.2003 -0.1747 -0.2059
  136MOL0     C18251   8.450   2.029   6.554 -0.6083  0.8988  0.1223
  136MOL0     C18252   8.373   1.931   6.617 -0.6452 -0.0593 -0.0242
  136MOL0     C18253   8.400   1.800   6.599  0.2714  0.8434  0.3223
  136MOL0     C18254   8.306   1.699   6.648 -0.1597  0.7461 -0.1013
  136MOL0     O18255   8.205   1.735   6.731 -0.1926 -0.0578  0.1343
  136MOL0     C18256   8.144   1.631   6.791  0.3268 -0.1218 -0.4119
  136MOL0     C18257   8.048   1.554   6.721 -0.8218 -0.6641  0.5209
  136MOL0     C18258   7.998   1.436   6.771 -0.4334  0.2745 -0.3403
  136MOL0     C18259   8.033   1.395   6.905  0.9643  0.2021  1.0003
  136MOL0     O18260   7.974   1.299   6.976 -0.0309 -0.6161  0.1900
  136MOL0     C18261   7.882   1.205   6.919  0.1619 -0.0194  0.7042
  136MOL0     C18262   7.744   1.266   6.927  0.2225 -0.0878  0.0351
  136MOL0     C18263   7.641   1.184   6.848 -0.0617 -0.1825  0.0272
  136MOL0     C18264   7.496   1.226   6.902 -0.9449  0.8923  0.5234
  136MOL0     C18265   7.381   1.142   6.847  0.0561 -0.2143  0.0877
  136MOL0     C18266   7.402   0.992   6.872  0.0568 -0.3190 -0.1939
  136MOL0     C18267   7.280   0.906   6.871 -0.9244 -0.0005 -0.5922
  136MOL0     C18268   7.325   0.761   6.915  0.0212 -0.2029  0.4315
  136MOL0    Cl18269   7.445   0.704   6.794  0.2726  0.3583 -0.0734
  136MOL0     C18270   8.117   1.476   6.975  0.0254  0.9763 -0.3543
  136MOL0     C18271   8.165   1.595   6.928  0.2869  0.2835 -0.3635
  136MOL0     O18272   8.333   1.580   6.620  1.0699  0.6083 -0.7561
  136MOL0     C18273   8.506   1.768   6.514 -0.4944  0.0162  0.7195
  136MOL0     C18274   8.594   1.868   6.466 -0.1687  0.9740 -0.1317
  136MOL0     N18275   9.094   1.774   6.647 -0.3113 -0.0582 -0.2513
  136MOL0     N18276   9.139   1.692   6.731 -0.2519 -0.8900  0.6144
  136MOL0     C18277   9.043   1.174   7.579 -0.7298 -0.9665 -0.2419
  136MOL0     C18278   8.897   1.182   7.563 -0.2040  0.5356 -0.2781
  136MOL0     C18279   8.482   1.134   7.470 -1.2795  0.9756  0.1432
  136MOL0     C18280   8.394   1.126   7.573 -0.0849 -0.2491  0.1686
  136MOL0     C18281   8.257   1.168   7.565 -1.0226  0.0401  0.3081
  136MOL0     C18282   8.203   1.197   7.439  0.2275 -0.6192  0.9165
  136MOL0     O18283   8.076   1.247   7.440  0.0437 -0.1446  0.2192
  136MOL0     C18284   7.976   1.212   7.334  0.6361 -0.9552 -0.0215
  136MOL0     C18285   7.914   1.070   7.361  0.5523 -0.1562 -0.5306
  136MOL0     C18286   7.821   1.067   7.495  0.0620 -0.8849  0.7381
  136MOL0     C18287   7.732   0.942   7.503 -0.3632 -0.0147 -0.4414
  136MOL0     C18288   7.655   0.927   7.630  0.1798 -0.3098  1.0393
  136MOL0     C18289   7.575   0.928   7.719 -0.8934 -0.3365 -0.5687
  136MOL0     C18290   8.291   1.206   7.325  0.4018  0.6624 -0.2377
  136MOL0     C18291   8.428   1.168   7.342  0.4459 -0.3986 -1.3618
  136MOL0     C18292   8.509   1.173   7.215  0.1770  0.8429 -0.1882
  136MOL0     H18293   8.885   1.016   7.262  1.4898 -0.4775 -0.0307
  136MOL0     H18294   9.110   1.025   7.273 -0.6628 -1.0339 -0.2079
  136MOL0     H18295   9.420   0.985   7.475 -0.6845  2.6016  4.4366
  136MOL0     H18296   9.291   0.968   7.369  0.4622  1.2330 -2.3595
  136MOL0     H18297   9.459   1.045   7.242  0.1133 -1.8819  1.5038
  136MOL0     H18298   9.519   1.178   7.348 -0.4549  0.6667  1.4172
  136MOL0     H18299   9.239   1.202   7.232 -0.2349  0.4756 -0.5592
  136MOL0     H18300   9.373   1.210   7.119 -0.6859  1.9060 -0.9943
  136MOL0     H18301   9.333   1.401   7.357 -0.7148  0.6267 -0.5017
  136MOL0     H18302   9.479   1.378   7.260  0.5316  1.0498  1.4989
  136MOL0     H18303   9.277   1.407   7.074  7.6050 -1.0514 -2.2507
  136MOL0     H18304   9.217   1.520   7.207  2.7192  4.3396  0.2965
  136MOL0     H18305   9.409   1.652   7.182 -2.0068 -1.5872  2.0464
  136MOL0     H18306   9.501   1.539   7.085  1.3346  2.6613  1.2451
  136MOL0     H18307   9.368   1.600   6.893 -0.5389 -1.2777  0.9989
  136MOL0     H18308   9.386   1.748   6.984 -1.9624  0.1675 -1.3065
  136MOL0     H18309   9.131   1.598   7.010  1.1142  0.0849  2.0590
  136MOL0     H18310   9.180   1.764   7.058 -1.4408 -0.6169  0.9168
  136MOL0     H18311   9.099   1.943   6.922 -2.2728 -0.3166 -0.2361
  136MOL0     H18312   8.956   2.073   6.747 -0.7642 -1.2088 -0.2084
  136MOL0     H18313   9.093   2.087   6.634 -2.4204  2.2509 -1.3362
  136MOL0     H18314   8.944   1.938   6.470  2.7641  2.0429 -0.8787
  136MOL0     H18315   8.816   1.967   6.590  0.0272 -0.0450  0.9639
  136MOL0     H18316   8.970   2.156   6.408 -0.1196 -1.2733  1.4806
  136MOL0     H18317   8.859   2.218   6.529  1.3732  0.6275  0.1300
  136MOL0     H18318   8.760   2.027   6.303  0.9063 -0.8616  2.1666
  136MOL0     H18319   8.722   2.194   6.309 -0.0595  0.7752  0.5423
  136MOL0     H18320   8.422   2.130   6.583  1.2579  1.3241  0.5642
  136MOL0     H18321   8.296   1.959   6.688  1.8265  0.9118  2.4082
  136MOL0     H18322   8.025   1.587   6.620  0.3829  1.9305  0.9961
  136MOL0     H18323   7.951   1.364   6.705 -3.8252  0.3510  1.7373
  136MOL0     H18324   7.914   1.178   6.818 -0.6648  2.7787 -0.3968
  136MOL0     H18325   7.868   1.110   6.972  2.1186 -0.4112  0.5897
  136MOL0     H18326   7.720   1.268   7.034  0.3881  0.6418  0.0699
  136MOL0     H18327   7.741   1.368   6.887 -4.2545  0.2318  0.6470
  136MOL0     H18328   7.645   1.207   6.742 -0.3748 -2.1715 -0.4589
  136MOL0     H18329   7.659   1.078   6.871  0.5149 -0.7774 -2.7947
  136MOL0     H18330   7.475   1.329   6.872 -0.9743 -0.4619 -5.3461
  136MOL0     H18331   7.498   1.226   7.011  0.4929  0.8145  0.5098
  136MOL0     H18332   7.385   1.168   6.741 -2.4639  2.7021  0.5590
  136MOL0     H18333   7.287   1.179   6.890  0.2117  0.1550  0.1193
  136MOL0     H18334   7.484   0.957   6.808 -0.0683 -0.9275 -0.0333
  136MOL0     H18335   7.448   0.984   6.971  0.0357  0.8757 -0.0721
  136MOL0     H18336   7.252   0.897   6.766  1.0857 -0.1673 -1.1656
  136MOL0     H18337   7.204   0.943   6.940 -4.1897 -2.5487 -2.5410
  136MOL0     H18338   7.366   0.755   7.016 -1.3079  0.3926  1.0312
  136MOL0     H18339   7.241   0.691   6.930 -1.2611  0.6973 -1.9438
  136MOL0     H18340   8.162   1.439   7.066 -0.3512 -0.3960 -0.7017
  136MOL0     H18341   8.236   1.653   6.986  1.6837 -2.4348  0.8375
  136MOL0     H18342   8.534   1.665   6.493  0.0677  0.4939 -1.1356
  136MOL0     H18343   8.694   1.850   6.427  0.6101  3.4466  0.5512
  136MOL0     H18344   9.089   1.198   7.674 -2.0018 -0.2725  0.2123
  136MOL0     H18345   8.833   1.206   7.648  0.3991  1.0716  0.0339
  136MOL0     H18346   8.441   1.094   7.665  0.6754 -0.3605 -0.2524
  136MOL0     H18347   8.188   1.169   7.649 -1.5521  0.0021 -0.1185
  136MOL0     H18348   8.003   1.238   7.232 -2.3794  1.2158 -0.3896
  136MOL0     H18349   7.893   1.283   7.342  0.6803 -0.7789 -0.9831
  136MOL0     H18350   7.979   0.982   7.369 -1.4187 -1.8030 -1.7088
  136MOL0     H18351   7.855   1.044   7.273  1.8698  1.3047 -1.8854
  136MOL0     H18352   7.766   1.161   7.509  2.1371  0.3263  1.1543
  136MOL0     H18353   7.891   1.074   7.579  1.3157  1.4167 -0.4323
  136MOL0     H18354   7.659   0.938   7.421 -0.5106  0.1810 -0.3202
  136MOL0     H18355   7.809   0.864   7.492  2.2390  2.2004  0.7642
  136MOL0     H18356   7.517   0.923   7.809  3.4982 -1.3872  2.5116
  136MOL0     H18357   8.247   1.231   7.229 -0.1788 -0.2092 -0.2122
  136MOL0     H18358   8.571   1.263   7.223  0.4792  0.6337 -0.1491
  136MOL0     H18359   8.561   1.080   7.191 -1.2629  0.3556 -1.5123
  136MOL0     H18360   8.448   1.192   7.127 -3.4762 -1.4378  1.6203
  137MOL0     O18361   3.734   0.190   2.650 -0.6239  0.6913  0.3055
  137MOL0     C18362   3.837   0.132   2.699  0.4944  0.9401  0.5636
  137MOL0     O18363   3.924   0.176   2.791 -0.4766 -0.0850  0.1310
  137MOL0     C18364   3.892   0.279   2.870  0.2337 -0.3240 -0.1590
  137MOL0     C18365   3.867   0.253   3.003 -0.8470  0.0538  0.3907
  137MOL0     C18366   3.858   0.353   3.102  0.4229 -0.7022  0.7044
  137MOL0     C18367   3.858   0.485   3.060  0.4606  0.2902 -0.0350
  137MOL0     O18368   3.843   0.587   3.158 -0.5367  0.5538  0.1636
  137MOL0     C18369   3.968   0.654   3.187 -0.4037 -0.3456  0.8667
  137MOL0     C18370   4.047   0.579   3.299  0.0169 -0.1120  0.2509
  137MOL0     C18371   4.179   0.649   3.323 -1.4150 -0.9273 -0.9156
  137MOL0     C18372   4.238   0.616   3.461 -0.4044 -0.4548  0.3392
  137MOL0     C18373   4.377   0.683   3.483 -0.1471 -0.0893 -0.4046
  137MOL0     C18374   4.411   0.668   3.635 -0.2811 -0.6033 -0.9436
  137MOL0     C18375   4.535   0.756   3.666 -0.6041  0.5700  0.2466
  137MOL0     C18376   4.582   0.736   3.812  0.1764  0.0400  0.8843
  137MOL0     N18377   4.622   0.597   3.830 -0.2073 -0.2574 -0.4362
  137MOL0     C18378   4.548   0.488   3.883 -0.2847  0.2139 -0.7797
  137MOL0     C18379   4.643   0.384   3.890  0.1203 -0.1007 -1.8690
  137MOL0     C18380   4.620   0.247   3.930 -0.0768  0.4451 -0.0168
  137MOL0     C18381   4.717   0.209   4.035  0.8692  0.1457  0.1805
  137MOL0     C18382   4.660   0.102   4.132 -0.3541  0.9258  0.4442
  137MOL0     C18383   4.529   0.117   4.203  0.3326 -0.1525 -0.0478
  137MOL0     O18384   4.533   0.028   4.313 -0.8711  0.4355 -0.0885
  137MOL0     C18385   4.441  -0.068   4.351 -0.9646  0.3252  0.4785
  137MOL0     C18386   4.322  -0.103   4.275 -0.1510  0.1261  0.0154
  137MOL0     C18387   4.251  -0.214   4.314  0.7650 -0.5535  0.1944
  137MOL0     C18388   4.286  -0.282   4.435 -0.0683 -0.0998 -1.0570
  137MOL0     C18389   4.205  -0.398   4.480 -0.6850 -0.0675 -0.8923
  137MOL0     O18390   4.258  -0.464   4.592  0.3073 -0.4566  0.1230
  137MOL0     C18391   4.193  -0.584   4.615  0.4469 -0.6077 -0.0196
  137MOL0     C18392   4.054  -0.598   4.646 -0.1486  0.8227  0.2992
  137MOL0     C18393   3.997  -0.726   4.649 -0.3046  0.6547 -0.7354
  137MOL0     C18394   4.083  -0.838   4.660 -0.6739 -0.0208 -0.7009
  137MOL0     O18395   4.027  -0.950   4.709  0.3852 -0.0854  0.4737
  137MOL0     C18396   4.101  -1.062   4.749 -0.1532 -0.0384  0.6697
  137MOL0     C18397   4.013  -1.183   4.780 -0.3714  0.2663  0.0198
  137MOL0     C18398   3.902  -1.141   4.885  0.7879  0.0882 -0.4415
  137MOL0     C18399   3.827  -1.257   4.935  0.2277  0.2346 -0.7650
  137MOL0     C18400   3.705  -1.235   5.017 -0.1564  0.0928 -0.1347
  137MOL0     C18401   3.745  -1.214   5.164  0.9045 -0.5369 -0.7899
  137MOL0     C18402   3.617  -1.193   5.244  0.5157 -0.0473 -0.3722
  137MOL0     C18403   3.572  -1.039   5.240  0.0026  0.0136 -0.7370
  137MOL0    Cl18404   3.406  -1.009   5.323 -0.2191 -0.0718 -0.1723
  137MOL0     C18405   4.222  -0.823   4.636  0.7080 -0.1933 -0.1326
  137MOL0     C18406   4.274  -0.699   4.614 -0.0588 -0.6834  0.3401
  137MOL0     O18407   4.111  -0.429   4.411 -0.1731 -0.2313 -0.0285
  137MOL0     C18408   4.404  -0.239   4.503 -0.2484  1.2202  0.3055
  137MOL0     C18409   4.484  -0.134   4.462  0.8630 -0.6890 -0.5282
  137MOL0     N18410   4.764   0.428   3.833 -0.2118  0.1477 -0.1373
  137MOL0     N18411   4.741   0.551   3.789 -0.5150  0.6295 -0.6691
  137MOL0     C18412   3.882   0.511   2.928 -0.1990  0.2297 -0.0973
  137MOL0     C18413   3.908   0.415   2.827 -0.6569  0.1873 -0.0224
  137MOL0     C18414   3.860  -0.010   2.647  0.5056  0.5771 -0.4073
  137MOL0     C18415   3.941  -0.096   2.722 -0.8445  0.4590  0.6235
  137MOL0     C18416   3.951  -0.234   2.688  0.1046  0.4660 -0.5492
  137MOL0     C18417   3.874  -0.284   2.575  0.1638  0.9966 -0.9972
  137MOL0     O18418   3.889  -0.416   2.536  0.6260  0.2059 -0.1932
  137MOL0     C18419   3.817  -0.509   2.628  0.0773 -1.0324  0.6392
  137MOL0     C18420   3.884  -0.643   2.607  0.6026 -0.0328  0.2363
  137MOL0     C18421   3.857  -0.701   2.462  0.0004 -0.3041  0.7217
  137MOL0     C18422   3.857  -0.857   2.446 -0.1672 -0.0109  0.6151
  137MOL0     C18423   3.761  -0.926   2.526 -0.1295 -0.1808  0.0003
  137MOL0     C18424   3.667  -0.962   2.596 -0.4507 -0.5775 -0.1385
  137MOL0     C18425   3.790  -0.198   2.509  0.9354  0.5163 -1.0961
  137MOL0     C18426   3.787  -0.062   2.535 -0.8410 -0.2897  0.2091
  137MOL0     C18427   3.702   0.020   2.432 -0.4628  0.0717 -0.6327
  137MOL0     H18428   3.862   0.149   3.036  2.0056  0.3358  2.0677
  137MOL0     H18429   3.843   0.322   3.205 -4.4508  2.6467  1.3484
  137MOL0     H18430   4.034   0.656   3.100 -2.0645 -0.2588 -0.4487
  137MOL0     H18431   3.936   0.752   3.223  0.3070  0.2608 -0.0947
  137MOL0     H18432   4.079   0.483   3.259 -1.3334  0.1080 -1.4788
  137MOL0     H18433   3.989   0.548   3.386 -2.2772 -0.8160 -1.4305
  137MOL0     H18434   4.171   0.758   3.319  0.2410 -0.8119 -1.8406
  137MOL0     H18435   4.253   0.613   3.251  1.2907  1.1427  0.6455
  137MOL0     H18436   4.164   0.649   3.535  0.4473  1.0495  0.5763
  137MOL0     H18437   4.257   0.509   3.473  2.1821 -0.0945 -0.1148
  137MOL0     H18438   4.450   0.622   3.428 -4.0166 -3.6918 -2.0962
  137MOL0     H18439   4.394   0.789   3.462  4.6095 -0.4964  0.1533
  137MOL0     H18440   4.330   0.696   3.703  3.1015  2.3347  2.3446
  137MOL0     H18441   4.430   0.561   3.646 -2.1809 -1.0030 -1.1561
  137MOL0     H18442   4.511   0.861   3.645  4.0260  1.6643 -0.9444
  137MOL0     H18443   4.620   0.745   3.598 -0.9846  2.6342 -0.6531
  137MOL0     H18444   4.664   0.804   3.837  1.3176 -1.2041  0.6071
  137MOL0     H18445   4.499   0.756   3.880 -0.0739  2.5448 -0.0677
  137MOL0     H18446   4.444   0.470   3.907  0.2712  0.3065  1.9773
  137MOL0     H18447   4.518   0.239   3.969 -1.0861  3.4608 -1.6955
  137MOL0     H18448   4.618   0.180   3.843 -1.2857  0.7193 -0.2330
  137MOL0     H18449   4.808   0.169   3.989 -1.4874  0.4399 -5.6446
  137MOL0     H18450   4.734   0.301   4.092 -2.3167  1.3642 -0.6126
  137MOL0     H18451   4.736   0.091   4.210  1.4699 -1.2270 -1.4704
  137MOL0     H18452   4.638   0.008   4.081 -0.4412  0.5415  1.1884
  137MOL0     H18453   4.446   0.106   4.132 -0.4391  1.3089  0.5775
  137MOL0     H18454   4.517   0.218   4.244 -0.1521 -0.1085 -0.2862
  137MOL0     H18455   4.293  -0.062   4.179 -1.1123 -1.5323 -0.4327
  137MOL0     H18456   4.176  -0.245   4.242  0.1300  2.1506 -0.4321
  137MOL0     H18457   3.978  -0.522   4.663  0.3091  0.8160  2.7232
  137MOL0     H18458   3.892  -0.752   4.659  0.5003 -1.9814  2.7477
  137MOL0     H18459   4.168  -1.092   4.668 -3.0071  0.4580 -2.0880
  137MOL0     H18460   4.154  -1.025   4.837  0.4031  0.7921  0.0053
  137MOL0     H18461   3.961  -1.224   4.693 -0.9453  2.1815 -0.6098
  137MOL0     H18462   4.089  -1.243   4.829 -0.9185  1.1883  2.1130
  137MOL0     H18463   3.946  -1.087   4.969  0.4287  0.3336 -0.4083
  137MOL0     H18464   3.834  -1.069   4.840  0.4622  0.1675  0.1644
  137MOL0     H18465   3.891  -1.325   4.993 -2.3807 -0.7952  1.0940
  137MOL0     H18466   3.801  -1.319   4.848 -1.2760 -1.7621  1.0111
  137MOL0     H18467   3.652  -1.330   5.009  0.7692 -0.5477  1.1464
  137MOL0     H18468   3.644  -1.149   4.984  0.6450 -0.1613 -2.4696
  137MOL0     H18469   3.782  -1.315   5.187  0.2777 -0.3152  1.4214
  137MOL0     H18470   3.817  -1.136   5.191  1.8104 -2.0922  1.6732
  137MOL0     H18471   3.620  -1.234   5.345 -1.0059  2.6627  0.8680
  137MOL0     H18472   3.537  -1.258   5.207 -1.7755  0.7517  2.7816
  137MOL0     H18473   3.648  -0.979   5.290  0.7577 -0.8084 -0.8772
  137MOL0     H18474   3.573  -1.004   5.136  2.7736 -0.5476 -0.9775
  137MOL0     H18475   4.301  -0.895   4.652  1.7118  0.7178 -0.8483
  137MOL0     H18476   4.379  -0.685   4.588 -0.4957  0.3834 -0.9075
  137MOL0     H18477   4.438  -0.302   4.584  2.0458  2.2085  0.2107
  137MOL0     H18478   4.574  -0.121   4.521 -0.5311 -4.7232  2.9634
  137MOL0     H18479   3.887   0.617   2.905 -0.9010  0.2198 -0.3271
  137MOL0     H18480   3.937   0.449   2.728 -0.1198  1.1835  0.4509
  137MOL0     H18481   4.011  -0.058   2.796 -1.3711  2.8445 -0.0269
  137MOL0     H18482   4.014  -0.310   2.733 -1.4795  0.3357  1.5700
  137MOL0     H18483   3.710  -0.511   2.607 -0.0803 -1.6091  1.4327
  137MOL0     H18484   3.822  -0.483   2.734 -1.9257  1.1918  0.2857
  137MOL0     H18485   3.848  -0.714   2.682  1.0528 -0.1230  0.3674
  137MOL0     H18486   3.990  -0.646   2.634  0.5172 -0.3294  0.5443
  137MOL0     H18487   3.934  -0.654   2.399 -0.6673 -0.9589 -0.6105
  137MOL0     H18488   3.768  -0.663   2.411  2.1770  1.7970 -1.8344
  137MOL0     H18489   3.825  -0.889   2.346 -2.5796 -3.1711  2.1915
  137MOL0     H18490   3.957  -0.900   2.447 -0.3595 -0.4973 -0.2702
  137MOL0     H18491   3.587  -1.016   2.642 -1.7889 -0.7210 -2.4617
  137MOL0     H18492   3.733  -0.249   2.431 -1.0960  1.6227 -0.4187
  137MOL0     H18493   3.605   0.055   2.470  0.1687  1.9009 -0.6360
  137MOL0     H18494   3.749   0.114   2.404 -0.4732  0.1563 -0.3740
  137MOL0     H18495   3.695  -0.040   2.341  1.2531 -4.2768  1.7579
  138MOL0     O18496   1.716   7.352   1.359 -0.0542  1.4376 -0.4232
  138MOL0     C18497   1.660   7.260   1.418  0.7021  1.1052  0.6707
  138MOL0     O18498   1.554   7.188   1.366 -0.0866 -0.4098 -0.8523
  138MOL0     C18499   1.528   7.212   1.233 -0.0591 -0.4557  0.3867
  138MOL0     C18500   1.563   7.121   1.128 -0.0937  1.2132 -0.3760
  138MOL0     C18501   1.517   7.148   0.994 -0.5049  0.7613  0.1956
  138MOL0     C18502   1.449   7.264   0.963 -0.5636 -0.5600  0.6269
  138MOL0     O18503   1.421   7.295   0.825 -0.6687  0.5639  0.5071
  138MOL0     C18504   1.294   7.352   0.804 -0.0311  0.5571  0.3029
  138MOL0     C18505   1.255   7.298   0.663 -0.1613 -0.4723 -0.5572
  138MOL0     C18506   1.320   7.369   0.542 -0.3665  0.0190  0.2559
  138MOL0     C18507   1.284   7.323   0.399  0.4901  0.0819 -0.5649
  138MOL0     C18508   1.368   7.367   0.282  0.6266 -1.1796 -0.1642
  138MOL0     C18509   1.502   7.291   0.257  0.3938 -0.0255 -0.2090
  138MOL0     C18510   1.576   7.320   0.110  0.1609 -0.2790 -0.7253
  138MOL0     C18511   1.533   7.209   0.016  0.2909 -0.0502 -0.2305
  138MOL0     N18512   1.576   7.228  -0.126  0.6633 -0.3380 -0.6915
  138MOL0     C18513   1.688   7.304  -0.167 -0.3818 -0.1181 -0.7177
  138MOL0     C18514   1.669   7.324  -0.296  0.2849 -0.9675  0.8607
  138MOL0     C18515   1.773   7.373  -0.401  1.1084  0.3538  0.1776
  138MOL0     C18516   1.736   7.505  -0.479 -0.1636 -0.9656 -0.5395
  138MOL0     C18517   1.596   7.544  -0.495 -0.1209 -0.1423  0.2762
  138MOL0     C18518   1.555   7.668  -0.409  0.3178 -0.3612  0.8286
  138MOL0     O18519   1.416   7.704  -0.427  0.7541 -0.0890 -0.2833
  138MOL0     C18520   1.329   7.665  -0.331  0.5483 -0.0099 -0.5154
  138MOL0     C18521   1.208   7.730  -0.341  0.0527 -0.6116 -0.1173
  138MOL0     C18522   1.110   7.708  -0.240 -0.1012 -0.8024 -0.0247
  138MOL0     C18523   1.136   7.623  -0.128 -0.7793  0.4017  0.0668
  138MOL0     C18524   1.045   7.601  -0.013 -0.7917  0.5506 -0.2938
  138MOL0     O18525   1.064   7.494   0.079 -0.7676 -0.3515  0.2444
  138MOL0     C18526   0.980   7.459   0.182 -0.1327 -0.5806  0.1970
  138MOL0     C18527   0.993   7.321   0.202  0.8937  0.1806 -0.5507
  138MOL0     C18528   0.919   7.255   0.298 -0.2850 -0.4438 -0.9156
  138MOL0     C18529   0.828   7.326   0.379 -0.1480 -0.6652 -0.2111
  138MOL0     O18530   0.762   7.257   0.470  0.4312 -0.4919  0.0018
  138MOL0     C18531   0.826   7.242   0.596 -0.2548 -0.1946 -0.4470
  138MOL0     C18532   0.789   7.350   0.695  0.6908  0.6228 -0.8897
  138MOL0     C18533   0.641   7.344   0.743  0.1561 -0.3242 -0.5226
  138MOL0     C18534   0.537   7.371   0.637 -0.1275 -0.1521 -1.5222
  138MOL0     C18535   0.395   7.396   0.683  0.7967 -0.5773 -1.0630
  138MOL0     C18536   0.370   7.299   0.802  0.5874 -1.3193  0.0269
  138MOL0     C18537   0.224   7.306   0.844  1.0400 -0.1821  0.7407
  138MOL0     C18538   0.171   7.158   0.864  0.5962  0.0007  0.4374
  138MOL0    Cl18539   0.264   7.091   0.997  0.3115  0.2487 -0.0555
  138MOL0     C18540   0.820   7.468   0.367 -0.6673  0.3327  0.4639
  138MOL0     C18541   0.890   7.531   0.263  0.0547 -0.6460 -0.4607
  138MOL0     O18542   0.963   7.686   0.007  0.3382 -0.0666  0.3873
  138MOL0     C18543   1.262   7.556  -0.119  0.4273 -1.3723  1.0859
  138MOL0     C18544   1.357   7.584  -0.219  1.2045  0.2269 -0.6278
  138MOL0     N18545   1.557   7.247  -0.337  0.1393 -0.1035 -0.5270
  138MOL0     N18546   1.499   7.195  -0.229 -0.5186 -0.3426  0.5285
  138MOL0     C18547   1.411   7.349   1.073 -0.3128  0.2079  0.4131
  138MOL0     C18548   1.436   7.315   1.201 -1.3790  0.8475 -0.3393
  138MOL0     C18549   1.702   7.236   1.561 -0.6772  0.9954  0.2549
  138MOL0     C18550   1.630   7.148   1.637  0.4040  0.0538 -0.0775
  138MOL0     C18551   1.647   7.127   1.776 -0.4848  0.0261 -0.1679
  138MOL0     C18552   1.755   7.199   1.840  0.8389  0.2972  0.5047
  138MOL0     O18553   1.793   7.170   1.971  0.1031 -0.3297 -0.4115
  138MOL0     C18554   1.894   7.257   2.040  0.3748  0.8147 -0.3419
  138MOL0     C18555   1.907   7.219   2.189  0.9291 -0.3971  0.2816
  138MOL0     C18556   1.958   7.082   2.212 -0.0801 -0.2052 -0.4104
  138MOL0     C18557   2.108   7.058   2.178 -0.4703  0.1314  0.3173
  138MOL0     C18558   2.140   6.924   2.202 -0.7572 -1.0128 -0.4597
  138MOL0     C18559   2.169   6.814   2.227 -1.3874  0.8409 -0.1149
  138MOL0     C18560   1.834   7.277   1.755  0.3067 -0.1628 -1.0402
  138MOL0     C18561   1.807   7.297   1.623 -0.1579 -0.8728  0.5111
  138MOL0     C18562   1.915   7.387   1.554 -0.5273  0.4516 -0.1105
  138MOL0     H18563   1.623   7.031   1.139 -1.2262  0.2563 -1.7258
  138MOL0     H18564   1.547   7.074   0.921  1.8791  0.3970  1.4340
  138MOL0     H18565   1.218   7.330   0.879 -1.4287  1.0495 -0.9114
  138MOL0     H18566   1.305   7.461   0.811  0.4390  0.6189 -1.0106
  138MOL0     H18567   1.148   7.301   0.641  0.2455 -1.9657 -3.1780
  138MOL0     H18568   1.276   7.192   0.651  0.9156 -0.3110 -0.2514
  138MOL0     H18569   1.429   7.366   0.557 -0.4220 -1.0624  0.5109
  138MOL0     H18570   1.292   7.474   0.554 -2.6525 -0.7627  2.9062
  138MOL0     H18571   1.271   7.215   0.389 -2.5384  0.0503  2.0682
  138MOL0     H18572   1.184   7.355   0.366  0.2458  0.0863  0.1637
  138MOL0     H18573   1.303   7.354   0.195  0.0412  2.1101 -0.3363
  138MOL0     H18574   1.393   7.474   0.281  1.1827 -1.2724 -2.5339
  138MOL0     H18575   1.562   7.317   0.345  0.7909 -1.7730  0.0706
  138MOL0     H18576   1.484   7.183   0.265 -1.1196  0.2858  1.2190
  138MOL0     H18577   1.684   7.313   0.121 -0.0427  0.0174  2.1212
  138MOL0     H18578   1.557   7.427   0.090 -0.6063  1.5357  6.8844
  138MOL0     H18579   1.586   7.118   0.049  1.4454  1.2617  1.7775
  138MOL0     H18580   1.425   7.193   0.022  0.4811 -1.0716  1.2484
  138MOL0     H18581   1.777   7.324  -0.110 -0.5527 -1.0114 -0.1215
  138MOL0     H18582   1.865   7.397  -0.349  0.2083  0.2585  1.8847
  138MOL0     H18583   1.778   7.286  -0.468 -2.8580 -1.7223  2.1708
  138MOL0     H18584   1.788   7.578  -0.417  2.4350 -1.3877 -2.0623
  138MOL0     H18585   1.785   7.519  -0.576  0.1056  2.1881 -0.0536
  138MOL0     H18586   1.531   7.456  -0.497  1.6189 -1.4777  0.0468
  138MOL0     H18587   1.582   7.567  -0.601 -0.4326  0.5341  0.4601
  138MOL0     H18588   1.619   7.754  -0.432 -0.4962  0.5762  1.9516
  138MOL0     H18589   1.571   7.639  -0.305  1.2162 -4.2037 -0.2083
  138MOL0     H18590   1.199   7.799  -0.425  2.5136  2.8236  2.1691
  138MOL0     H18591   1.019   7.768  -0.245  1.1300  1.3289  1.6188
  138MOL0     H18592   1.050   7.252   0.141 -0.8532 -0.9516 -0.9829
  138MOL0     H18593   0.935   7.148   0.306  1.3708 -0.1750 -0.4139
  138MOL0     H18594   0.789   7.148   0.637 -2.0450  1.0608  0.9904
  138MOL0     H18595   0.934   7.238   0.580 -0.2600 -0.0772 -0.5156
  138MOL0     H18596   0.845   7.343   0.789  1.2397 -0.2525 -1.2694
  138MOL0     H18597   0.819   7.450   0.663  4.2031 -0.4587 -1.3861
  138MOL0     H18598   0.626   7.246   0.787  2.6698 -0.0229  1.2244
  138MOL0     H18599   0.629   7.416   0.824  0.0368  0.1550 -0.9578
  138MOL0     H18600   0.543   7.278   0.579  0.5172 -0.9051 -0.2784
  138MOL0     H18601   0.570   7.454   0.573  2.3658  0.6269  0.5789
  138MOL0     H18602   0.327   7.373   0.601  1.3901  1.5882 -2.2319
  138MOL0     H18603   0.379   7.496   0.723 -2.8637 -0.7472 -1.7486
  138MOL0     H18604   0.398   7.197   0.774  0.4154 -1.4781  0.4251
  138MOL0     H18605   0.430   7.334   0.887  0.8876 -1.6338 -0.0565
  138MOL0     H18606   0.173   7.355   0.760  2.1314  0.0352  0.1946
  138MOL0     H18607   0.223   7.374   0.929 -0.7293 -0.0895  0.6983
  138MOL0     H18608   0.064   7.151   0.884 -0.4153 -1.1713 -4.1937
  138MOL0     H18609   0.182   7.096   0.774 -1.1258 -0.2954  0.3996
  138MOL0     H18610   0.770   7.535   0.436  0.1317  1.4260 -0.0064
  138MOL0     H18611   0.875   7.637   0.242  2.3638 -0.7755 -3.3479
  138MOL0     H18612   1.291   7.498  -0.032  2.2119 -3.6213 -0.8820
  138MOL0     H18613   1.444   7.526  -0.190  1.7359 -0.3001 -3.1007
  138MOL0     H18614   1.344   7.433   1.061 -0.6374 -0.1049 -0.0234
  138MOL0     H18615   1.398   7.377   1.282 -2.2301 -0.7395  0.5152
  138MOL0     H18616   1.552   7.089   1.590  0.3881 -0.6991  0.8562
  138MOL0     H18617   1.600   7.052   1.838 -0.0649  1.5548  2.1306
  138MOL0     H18618   1.856   7.359   2.031  2.7549  1.7094 -0.9454
  138MOL0     H18619   1.993   7.252   1.994  0.6624 -1.1207  0.3869
  138MOL0     H18620   1.815   7.219   2.248  1.7290 -0.3561  1.5687
  138MOL0     H18621   1.959   7.297   2.246  1.3433  0.7122 -1.5369
  138MOL0     H18622   1.897   7.016   2.150  1.2682 -0.1878 -1.8310
  138MOL0     H18623   1.942   7.061   2.318  3.3529 -0.5527  0.1709
  138MOL0     H18624   2.121   7.095   2.076 -1.8919 -0.2668 -0.0315
  138MOL0     H18625   2.174   7.120   2.240  0.1484  1.2467 -1.3635
  138MOL0     H18626   2.185   6.710   2.249  2.4156  0.9371 -1.5713
  138MOL0     H18627   1.922   7.325   1.795  0.7800 -2.4867  0.9096
  138MOL0     H18628   1.976   7.323   1.488 -0.8469 -3.3317  2.9266
  138MOL0     H18629   1.871   7.475   1.507  0.6619  1.9300  1.4183
  138MOL0     H18630   1.998   7.422   1.616 -0.3227  0.1883 -0.2279
  139MOL0     O18631   8.757   7.522   5.648  0.0706  0.1065  0.8213
  139MOL0     C18632   8.839   7.451   5.580  0.6562 -0.2603 -0.2202
  139MOL0     O18633   8.809   7.336   5.512  0.2179  0.8084 -0.3437
  139MOL0     C18634   8.696   7.275   5.487  1.0623  0.5470 -0.5150
  139MOL0     C18635   8.699   7.141   5.455  1.0164 -0.0264  0.2309
  139MOL0     C18636   8.577   7.071   5.429  0.4828 -0.2586 -0.0727
  139MOL0     C18637   8.455   7.135   5.434 -0.1017 -1.2409 -0.8099
  139MOL0     O18638   8.337   7.077   5.403 -0.5401  0.2360  0.4136
  139MOL0     C18639   8.335   6.966   5.312  0.6319  0.2965 -0.3295
  139MOL0     C18640   8.314   6.846   5.399 -0.5055  0.1687  0.8688
  139MOL0     C18641   8.292   6.727   5.308  0.1144 -0.2556 -0.3760
  139MOL0     C18642   8.426   6.650   5.272  0.0227 -0.8342 -0.2825
  139MOL0     C18643   8.401   6.518   5.202  0.4003 -0.4184  0.1601
  139MOL0     C18644   8.530   6.463   5.158  0.7315  0.4263  0.0329
  139MOL0     C18645   8.527   6.337   5.081 -0.0261  0.7922 -0.1471
  139MOL0     C18646   8.530   6.215   5.178  0.2613  0.2824 -0.2182
  139MOL0     N18647   8.560   6.090   5.106 -0.3058 -0.6752 -0.4116
  139MOL0     C18648   8.683   6.035   5.068  0.1934 -0.1648 -0.3227
  139MOL0     C18649   8.635   5.933   4.991  0.8514  0.6619 -0.0960
  139MOL0     C18650   8.719   5.837   4.912 -0.1107 -0.4788  0.1032
  139MOL0     C18651   8.737   5.886   4.766  0.0356  0.1095 -0.0853
  139MOL0     C18652   8.836   5.786   4.710 -0.0531  0.0227 -0.2585
  139MOL0     C18653   8.872   5.807   4.558 -0.2071 -0.4818  0.2023
  139MOL0     O18654   8.997   5.887   4.548  0.2785 -0.4337  0.6162
  139MOL0     C18655   9.113   5.811   4.559  0.5325 -0.9128 -0.3867
  139MOL0     C18656   9.228   5.878   4.499 -0.7637  0.4966 -0.0073
  139MOL0     C18657   9.355   5.818   4.499 -0.3576 -0.2534  0.8763
  139MOL0     C18658   9.377   5.686   4.539 -0.2580  0.6333  0.1093
  139MOL0     C18659   9.513   5.633   4.545 -0.2398 -0.1928  0.0954
  139MOL0     O18660   9.523   5.508   4.593 -0.6155 -0.4050  0.4459
  139MOL0     C18661   9.640   5.433   4.591 -0.7783  0.2801  0.6186
  139MOL0     C18662   9.679   5.358   4.699 -0.7243  0.5680  0.2827
  139MOL0     C18663   9.803   5.286   4.703 -0.3312  0.3227 -0.0743
  139MOL0     C18664   9.884   5.289   4.588 -0.0328 -0.3157 -0.2393
  139MOL0     O18665   9.988   5.210   4.596  0.0397  0.9144  0.0558
  139MOL0     C18666  10.036   5.162   4.475  0.0180 -0.0619 -0.1185
  139MOL0     C18667  10.149   5.067   4.511 -0.5957  0.3705  0.4141
  139MOL0     C18668  10.091   4.948   4.587 -0.5268  0.5707  0.5914
  139MOL0     C18669  10.177   4.818   4.567  1.1758  0.3127  0.3561
  139MOL0     C18670  10.318   4.816   4.628 -0.6838 -0.7522  0.2271
  139MOL0     C18671  10.329   4.831   4.785  0.9045  0.6394  0.6899
  139MOL0     C18672  10.483   4.811   4.820  0.7874  0.1552  0.0127
  139MOL0     C18673  10.517   4.831   4.975  0.2568 -0.3606  0.5589
  139MOL0    Cl18674  10.687   4.833   4.984  0.4882  0.1732  0.3430
  139MOL0     C18675   9.836   5.360   4.471  0.7036  0.5951 -0.1481
  139MOL0     C18676   9.716   5.423   4.471  0.0856 -0.2644  0.2515
  139MOL0     O18677   9.604   5.699   4.505  0.2805 -0.6453  0.0952
  139MOL0     C18678   9.264   5.621   4.592 -0.8747  0.2066 -0.1353
  139MOL0     C18679   9.134   5.676   4.604 -0.1201  0.6694  0.1686
  139MOL0     N18680   8.500   5.931   4.979 -0.0007  1.2433  0.2554
  139MOL0     N18681   8.461   6.020   5.055 -0.3374 -0.1238  0.1970
  139MOL0     C18682   8.453   7.277   5.460 -0.4724  0.1733 -0.1307
  139MOL0     C18683   8.574   7.348   5.485  0.4971  0.4104  0.4806
  139MOL0     C18684   8.974   7.496   5.582 -0.0902 -0.6133 -0.7677
  139MOL0     C18685   9.022   7.549   5.703  0.5761 -0.2949  0.8758
  139MOL0     C18686   9.153   7.602   5.713 -0.0882  1.0545 -0.6019
  139MOL0     C18687   9.242   7.604   5.605  0.8670  0.4116 -0.6653
  139MOL0     O18688   9.369   7.653   5.620 -0.0736 -0.4384  0.2453
  139MOL0     C18689   9.467   7.644   5.518  0.4825  0.2011  0.3012
  139MOL0     C18690   9.587   7.722   5.558  0.0552  0.5112 -0.2771
  139MOL0     C18691   9.657   7.656   5.676 -0.9539  0.1036 -0.1131
  139MOL0     C18692   9.647   7.748   5.797 -1.1209  0.0248  0.0377
  139MOL0     C18693   9.723   7.872   5.776  0.1075 -0.1571  0.2382
  139MOL0     C18694   9.789   7.972   5.742 -0.2548  0.0915 -1.0343
  139MOL0     C18695   9.197   7.534   5.488  0.5236 -1.6177  1.0836
  139MOL0     C18696   9.067   7.487   5.476 -0.3103  0.7310  0.3245
  139MOL0     C18697   9.037   7.420   5.346 -0.2852  0.4927 -0.1266
  139MOL0     H18698   8.798   7.097   5.450  1.1897  0.3932 -0.0350
  139MOL0     H18699   8.585   6.966   5.403  1.4349 -0.5262  1.2088
  139MOL0     H18700   8.245   6.987   5.254  1.0859 -4.5447 -3.3046
  139MOL0     H18701   8.415   6.952   5.238  0.9336 -1.2025  0.2502
  139MOL0     H18702   8.225   6.846   5.463  0.1182 -2.8707  1.8851
  139MOL0     H18703   8.398   6.828   5.466 -0.9097  0.8110  1.5744
  139MOL0     H18704   8.251   6.762   5.212 -1.2960 -1.6523 -0.3165
  139MOL0     H18705   8.221   6.659   5.356  0.4716 -1.2857 -1.2571
  139MOL0     H18706   8.485   6.721   5.214  0.3022  1.6706  2.8162
  139MOL0     H18707   8.480   6.633   5.365 -1.2224  3.3729  1.4267
  139MOL0     H18708   8.358   6.445   5.272  2.3981 -1.9858 -0.1593
  139MOL0     H18709   8.331   6.531   5.119 -1.9610 -2.5770  1.6324
  139MOL0     H18710   8.559   6.541   5.088 -1.7425 -0.8457 -2.5811
  139MOL0     H18711   8.596   6.454   5.245  0.2020  0.3138  0.4319
  139MOL0     H18712   8.623   6.333   5.029 -0.9368 -1.8819 -1.8471
  139MOL0     H18713   8.444   6.330   5.010  1.3731  2.7451 -2.1247
  139MOL0     H18714   8.611   6.222   5.252  1.4578 -0.1196 -1.4408
  139MOL0     H18715   8.441   6.188   5.235  1.0871 -1.1484  0.4767
  139MOL0     H18716   8.786   6.061   5.092 -0.1403 -0.8197  2.0547
  139MOL0     H18717   8.819   5.839   4.958  1.2371  1.4415 -2.6558
  139MOL0     H18718   8.682   5.736   4.931  1.0663 -0.3240  4.2178
  139MOL0     H18719   8.640   5.875   4.718 -1.0025 -1.6425  2.2137
  139MOL0     H18720   8.779   5.987   4.769  0.6222 -0.0338 -2.1092
  139MOL0     H18721   8.797   5.684   4.719  2.9715 -1.0493  3.0368
  139MOL0     H18722   8.924   5.787   4.776  2.7240  1.4796 -3.6704
  139MOL0     H18723   8.798   5.873   4.513  0.9420  0.1034 -0.8821
  139MOL0     H18724   8.873   5.722   4.489  0.8994 -0.0161 -0.3908
  139MOL0     H18725   9.229   5.982   4.468  1.1441  0.5293  0.0731
  139MOL0     H18726   9.436   5.882   4.467  0.1285  0.0821  2.6798
  139MOL0     H18727   9.620   5.353   4.790  2.1573 -1.4717  2.2290
  139MOL0     H18728   9.831   5.230   4.791 -0.8004 -0.5586 -0.4632
  139MOL0     H18729   9.948   5.117   4.427  0.0736 -1.2583  0.8615
  139MOL0     H18730  10.082   5.237   4.410  1.9135 -3.1781 -2.6858
  139MOL0     H18731  10.180   5.029   4.413  0.3766  0.8586  0.5175
  139MOL0     H18732  10.240   5.106   4.558  2.0790 -0.7821 -3.3123
  139MOL0     H18733  10.069   4.968   4.692 -1.7964  0.4142  0.3602
  139MOL0     H18734   9.992   4.935   4.544 -1.2617 -1.5127  2.7341
  139MOL0     H18735  10.188   4.798   4.460 -0.1893  0.4036  0.1819
  139MOL0     H18736  10.127   4.734   4.617  1.1344  2.1957  3.7232
  139MOL0     H18737  10.370   4.901   4.583 -1.0319 -1.8787 -2.5172
  139MOL0     H18738  10.363   4.722   4.593  3.2470 -0.0218  2.7799
  139MOL0     H18739  10.318   4.935   4.817  2.1758  0.9895  0.0468
  139MOL0     H18740  10.256   4.766   4.834  0.4532  1.1483  0.6983
  139MOL0     H18741  10.545   4.882   4.765 -1.3871  0.8826 -1.6497
  139MOL0     H18742  10.515   4.709   4.797  0.0208  0.4366 -2.6491
  139MOL0     H18743  10.474   4.928   5.002  2.3609  0.8918 -0.4012
  139MOL0     H18744  10.474   4.752   5.039  2.7062 -2.0517  0.2464
  139MOL0     H18745   9.902   5.364   4.385 -0.6817 -0.2102 -1.2941
  139MOL0     H18746   9.681   5.477   4.384  0.3887 -2.9809 -1.6878
  139MOL0     H18747   9.271   5.523   4.640  1.2021  1.1917  1.7768
  139MOL0     H18748   9.059   5.612   4.650 -0.6470  1.5007  0.5043
  139MOL0     H18749   8.354   7.320   5.444 -1.0724 -1.2939 -0.5597
  139MOL0     H18750   8.566   7.455   5.494  0.7326  0.4047  0.7934
  139MOL0     H18751   8.953   7.564   5.786  0.2231  0.1632  0.5037
  139MOL0     H18752   9.177   7.638   5.813  1.5379  1.5550 -1.1494
  139MOL0     H18753   9.427   7.677   5.422 -0.1874  1.1746  0.9063
  139MOL0     H18754   9.493   7.537   5.510 -1.9564 -0.6605  2.5508
  139MOL0     H18755   9.559   7.827   5.568  1.6882  0.8559  1.1165
  139MOL0     H18756   9.663   7.723   5.479  1.5321 -1.2586  1.0316
  139MOL0     H18757   9.766   7.661   5.668 -0.7710  0.5268  1.8990
  139MOL0     H18758   9.631   7.553   5.702  3.0051 -1.3877 -1.3693
  139MOL0     H18759   9.542   7.777   5.800 -1.4107 -1.0145  2.6304
  139MOL0     H18760   9.685   7.705   5.890  0.3292  2.4938  0.6796
  139MOL0     H18761   9.826   8.072   5.730  1.3695 -0.4378 -0.7263
  139MOL0     H18762   9.267   7.520   5.406  1.1625  3.4913  0.4609
  139MOL0     H18763   8.945   7.459   5.300 -1.8321 -3.5639 -0.9522
  139MOL0     H18764   9.102   7.440   5.260  0.3735  1.1929  0.5173
  139MOL0     H18765   9.025   7.311   5.352  1.7157  0.0676 -2.2578
  140MOL0     O18766   6.324   3.551   3.245 -0.1215 -0.0959  0.1582
  140MOL0     C18767   6.418   3.515   3.308 -1.0291 -0.3151 -0.0039
  140MOL0     O18768   6.482   3.402   3.288 -0.0451  0.1472 -0.2376
  140MOL0     C18769   6.430   3.313   3.198 -0.6079 -0.5328  0.7476
  140MOL0     C18770   6.461   3.334   3.060 -0.2060 -0.1140 -0.4055
  140MOL0     C18771   6.420   3.238   2.973 -0.1712  0.6049  1.1691
  140MOL0     C18772   6.358   3.117   3.005  0.2362 -0.6769 -0.0633
  140MOL0     O18773   6.352   3.019   2.910 -0.9281  0.5875  0.0520
  140MOL0     C18774   6.276   2.896   2.936  0.3359 -0.4121  0.0958
  140MOL0     C18775   6.264   2.816   2.810 -0.3060 -0.0303  0.6180
  140MOL0     C18776   6.395   2.748   2.773 -0.5720  0.8068 -0.0335
  140MOL0     C18777   6.391   2.660   2.650 -1.5632 -0.2672 -0.1782
  140MOL0     C18778   6.495   2.547   2.636 -1.6760 -0.0768  0.0901
  140MOL0     C18779   6.610   2.600   2.543 -0.2760  0.1962  0.3247
  140MOL0     C18780   6.712   2.485   2.512  0.3985  0.0949 -0.1376
  140MOL0     C18781   6.823   2.523   2.415  0.7030 -0.6265  0.3071
  140MOL0     N18782   6.765   2.555   2.286  0.4481  0.0966  0.1780
  140MOL0     C18783   6.711   2.468   2.195 -0.4045  0.0479  0.6608
  140MOL0     C18784   6.653   2.544   2.098 -0.2050  0.5574 -0.6603
  140MOL0     C18785   6.564   2.497   1.985 -0.5365  0.3806 -0.0858
  140MOL0     C18786   6.420   2.460   2.023 -0.1562  0.4686  1.3211
  140MOL0     C18787   6.336   2.566   2.088  0.0613 -0.3213  0.4301
  140MOL0     C18788   6.192   2.519   2.104  0.0753  0.3815 -0.2775
  140MOL0     O18789   6.120   2.509   1.986  0.3313  0.0693  0.4278
  140MOL0     C18790   6.073   2.622   1.933 -0.6136 -0.6880  0.4337
  140MOL0     C18791   6.084   2.752   1.984  0.4554  0.0500  0.3701
  140MOL0     C18792   6.017   2.860   1.917  0.1810  0.1095 -0.9622
  140MOL0     C18793   5.939   2.851   1.810  1.0047  0.9840  0.8588
  140MOL0     C18794   5.872   2.961   1.735 -0.0443 -0.7644 -0.6235
  140MOL0     O18795   5.835   3.067   1.811  0.3892 -0.7074  0.8553
  140MOL0     C18796   5.770   3.181   1.755 -0.0787 -0.7704  0.0804
  140MOL0     C18797   5.672   3.252   1.829 -0.1295 -0.1543  0.1962
  140MOL0     C18798   5.610   3.361   1.777 -0.4571  0.2624  0.3661
  140MOL0     C18799   5.636   3.406   1.645  0.1197  0.5302 -0.7122
  140MOL0     O18800   5.574   3.513   1.595  0.6900  0.4323 -0.4479
  140MOL0     C18801   5.577   3.633   1.670  0.4138 -0.3521  0.5904
  140MOL0     C18802   5.527   3.744   1.582  0.6458  0.2345  0.7046
  140MOL0     C18803   5.508   3.871   1.669  0.6270 -0.3913  1.1943
  140MOL0     C18804   5.632   3.943   1.724 -0.2465  0.0682  0.4263
  140MOL0     C18805   5.594   4.080   1.782  0.7085 -0.0849  0.2359
  140MOL0     C18806   5.707   4.140   1.858 -0.4749  0.3908 -0.8796
  140MOL0     C18807   5.684   4.281   1.916  0.3777 -0.5628 -0.5365
  140MOL0     C18808   5.808   4.334   1.973  0.8349 -0.2074 -1.2702
  140MOL0    Cl18809   5.928   4.369   1.843  0.2679 -0.0434 -0.2051
  140MOL0     C18810   5.730   3.333   1.573  0.4445  0.3586  0.2208
  140MOL0     C18811   5.799   3.228   1.629 -0.4161 -0.5330  0.1830
  140MOL0     O18812   5.854   2.949   1.618 -1.1580 -0.1092 -0.2365
  140MOL0     C18813   5.923   2.719   1.761 -0.2898 -0.3103 -0.4184
  140MOL0     C18814   5.990   2.606   1.816  0.2087 -0.1281 -0.9817
  140MOL0     N18815   6.689   2.683   2.121 -0.4079  0.4415 -0.1017
  140MOL0     N18816   6.762   2.679   2.224 -0.5504  0.7070  0.6898
  140MOL0     C18817   6.332   3.097   3.143 -0.9226  0.1847 -0.1874
  140MOL0     C18818   6.363   3.199   3.232  0.2924 -0.5231  0.3805
  140MOL0     C18819   6.463   3.604   3.417 -0.7657  0.0576  1.0919
  140MOL0     C18820   6.519   3.544   3.528  0.1653  0.0096  0.3423
  140MOL0     C18821   6.538   3.610   3.652 -0.2328  0.1645  0.0968
  140MOL0     C18822   6.504   3.751   3.669 -0.4290  0.2693  0.1692
  140MOL0     O18823   6.527   3.809   3.789  0.2741  0.3859  0.0923
  140MOL0     C18824   6.415   3.793   3.873 -0.5151  0.2937  0.1013
  140MOL0     C18825   6.425   3.884   3.999 -0.4481 -0.2651  0.2086
  140MOL0     C18826   6.394   4.032   3.971  0.5567  0.0837  0.1162
  140MOL0     C18827   6.312   4.102   4.080 -0.1755  0.4573 -0.2913
  140MOL0     C18828   6.388   4.103   4.208 -0.2155 -0.0336 -0.5340
  140MOL0     C18829   6.469   4.143   4.286  0.7113 -0.8342  0.2247
  140MOL0     C18830   6.447   3.814   3.557  0.0421  0.8235 -0.4436
  140MOL0     C18831   6.423   3.743   3.435 -0.5652 -0.3189 -0.5032
  140MOL0     C18832   6.370   3.818   3.324  0.2308 -0.0824  1.1554
  140MOL0     H18833   6.520   3.419   3.029 -1.0064  0.9663  0.9033
  140MOL0     H18834   6.439   3.256   2.868 -0.7008  0.4389  1.0391
  140MOL0     H18835   6.316   2.833   3.015 -0.5916  0.3964  1.2595
  140MOL0     H18836   6.174   2.927   2.961 -0.2399 -3.1623  1.5121
  140MOL0     H18837   6.221   2.868   2.724 -0.3958 -2.3491 -0.8169
  140MOL0     H18838   6.193   2.736   2.830  0.7262 -2.2628 -3.4452
  140MOL0     H18839   6.427   2.679   2.852 -0.1074  0.6120 -0.3933
  140MOL0     H18840   6.480   2.816   2.766 -0.3719  1.3536  4.4534
  140MOL0     H18841   6.300   2.600   2.641 -2.0304  0.3820  0.1986
  140MOL0     H18842   6.382   2.730   2.566 -1.7140 -0.1834 -0.0926
  140MOL0     H18843   6.542   2.507   2.727  2.7865 -3.4485 -3.2557
  140MOL0     H18844   6.452   2.459   2.590 -2.4302 -1.3860  3.0335
  140MOL0     H18845   6.570   2.657   2.458  0.5283  2.6896  1.5365
  140MOL0     H18846   6.665   2.669   2.607  1.1223  0.8048 -1.4534
  140MOL0     H18847   6.664   2.396   2.470  0.5385  0.9726 -2.2957
  140MOL0     H18848   6.746   2.456   2.612 -2.4140 -0.3805  0.7907
  140MOL0     H18849   6.865   2.617   2.450 -2.9091  2.1463 -2.1468
  140MOL0     H18850   6.897   2.442   2.403 -0.1306 -1.0929 -2.2142
  140MOL0     H18851   6.685   2.362   2.196 -3.9429  0.7999  1.1215
  140MOL0     H18852   6.571   2.565   1.899  2.8021 -3.4927 -3.2925
  140MOL0     H18853   6.599   2.407   1.934 -1.3454 -0.3515  0.6371
  140MOL0     H18854   6.358   2.415   1.945  2.6588 -2.9529  0.8045
  140MOL0     H18855   6.437   2.383   2.098 -0.8510 -0.3701  0.6382
  140MOL0     H18856   6.328   2.653   2.021  0.0048 -1.1046 -0.6102
  140MOL0     H18857   6.369   2.600   2.186 -0.9996  3.6756 -0.4265
  140MOL0     H18858   6.137   2.580   2.177  0.4415  1.9758 -1.2779
  140MOL0     H18859   6.194   2.417   2.145 -1.1981 -0.5511 -2.3830
  140MOL0     H18860   6.153   2.788   2.059 -0.7025 -1.8153  2.4537
  140MOL0     H18861   6.040   2.956   1.963 -1.0742 -1.3503  3.2450
  140MOL0     H18862   5.635   3.215   1.924  0.7231  0.0711  0.6346
  140MOL0     H18863   5.521   3.401   1.825 -0.1690  3.1098 -1.2698
  140MOL0     H18864   5.510   3.625   1.756  1.0424  0.0042  1.1238
  140MOL0     H18865   5.678   3.632   1.713  0.6011 -4.1984  0.4349
  140MOL0     H18866   5.599   3.757   1.501 -0.4167 -3.2767 -0.9924
  140MOL0     H18867   5.427   3.716   1.549  1.1608  2.0975 -2.7952
  140MOL0     H18868   5.453   3.939   1.603  0.5027 -1.2233  0.4073
  140MOL0     H18869   5.445   3.849   1.756  0.0844 -1.6031  0.5270
  140MOL0     H18870   5.717   3.958   1.658  0.1230  0.9257  1.0720
  140MOL0     H18871   5.664   3.875   1.804 -0.1111 -1.0945 -0.5855
  140MOL0     H18872   5.510   4.067   1.851 -0.1883  1.6337 -0.4897
  140MOL0     H18873   5.569   4.141   1.695 -0.9062 -0.7142  0.2376
  140MOL0     H18874   5.736   4.090   1.950 -1.4424 -0.8527 -1.2203
  140MOL0     H18875   5.800   4.143   1.800 -0.2367 -1.1647 -0.6265
  140MOL0     H18876   5.605   4.279   1.991  2.6404  2.6031  2.2443
  140MOL0     H18877   5.649   4.354   1.842 -0.1250 -1.1550 -0.8855
  140MOL0     H18878   5.774   4.429   2.015 -4.7729 -1.7531 -1.6160
  140MOL0     H18879   5.839   4.266   2.054  1.3180  0.5767 -0.7847
  140MOL0     H18880   5.754   3.337   1.467 -0.7361 -1.1970 -0.1457
  140MOL0     H18881   5.884   3.191   1.573 -0.0615  0.4439  0.0616
  140MOL0     H18882   5.861   2.698   1.674 -1.4838  1.5310 -0.0611
  140MOL0     H18883   5.987   2.503   1.780 -0.1487 -0.9387  1.2167
  140MOL0     H18884   6.307   2.999   3.181  0.3322  0.3104  1.0474
  140MOL0     H18885   6.338   3.180   3.336  0.4497 -0.3633  0.4481
  140MOL0     H18886   6.562   3.444   3.517  3.1146  1.1526  0.5861
  140MOL0     H18887   6.592   3.570   3.738  3.1200  1.8505 -1.0263
  140MOL0     H18888   6.413   3.692   3.915 -0.2666  0.9583  1.8058
  140MOL0     H18889   6.316   3.813   3.829 -0.5516  1.2853  0.6049
  140MOL0     H18890   6.524   3.879   4.045 -1.0400  1.8704  1.8786
  140MOL0     H18891   6.357   3.846   4.075  0.5897 -2.4272  0.1148
  140MOL0     H18892   6.340   4.035   3.876  2.1127  0.6456 -0.7738
  140MOL0     H18893   6.489   4.084   3.960  0.5927  0.4530  1.9115
  140MOL0     H18894   6.293   4.202   4.039 -2.5578 -0.4495 -1.6424
  140MOL0     H18895   6.211   4.061   4.095  0.4578 -0.3508  2.1331
  140MOL0     H18896   6.548   4.161   4.357  0.2702 -3.7292  1.5735
  140MOL0     H18897   6.402   3.912   3.572 -2.8989 -0.2916 -1.1510
  140MOL0     H18898   6.346   3.920   3.357 -0.5507  0.0474  0.2496
  140MOL0     H18899   6.449   3.814   3.248 -0.2898 -0.8509  0.6450
  140MOL0     H18900   6.281   3.777   3.276  0.1438 -0.3389  1.5301
  141MOL0     O18901   3.218  10.767   0.550 -0.1501  0.4142 -0.4807
  141MOL0     C18902   3.205  10.873   0.493 -0.1246  0.0148  0.3046
  141MOL0     O18903   3.193  11.001   0.549 -0.5939  0.2451 -0.0037
  141MOL0     C18904   3.203  11.019   0.687 -0.0802  0.4654  0.9454
  141MOL0     C18905   3.297  10.954   0.765 -0.8391  0.1723  0.2197
  141MOL0     C18906   3.285  10.949   0.903  0.2635  0.3658  0.3590
  141MOL0     C18907   3.181  11.008   0.971 -0.1544 -0.6071 -0.1146
  141MOL0     O18908   3.189  11.003   1.110 -0.0642 -0.0867 -0.7668
  141MOL0     C18909   3.142  11.118   1.186 -0.0244 -0.4397 -0.2684
  141MOL0     C18910   3.151  11.108   1.340 -0.3506  0.7407 -0.1046
  141MOL0     C18911   3.099  10.975   1.392 -0.2964 -0.1399  0.1725
  141MOL0     C18912   3.133  10.966   1.549 -0.3722 -0.0237 -0.9235
  141MOL0     C18913   3.089  10.831   1.625  0.7469  0.0245 -0.5902
  141MOL0     C18914   3.173  10.701   1.585 -0.4549 -0.5011 -0.3175
  141MOL0     C18915   3.145  10.585   1.692  0.3157 -0.4704  0.6992
  141MOL0     C18916   3.170  10.445   1.638  0.9019 -0.8413 -0.8342
  141MOL0     N18917   3.298  10.423   1.560  0.5176  0.1638 -0.2319
  141MOL0     C18918   3.297  10.418   1.427 -0.1070  0.0696  1.4147
  141MOL0     C18919   3.423  10.369   1.402  0.1733  0.1211  0.6648
  141MOL0     C18920   3.464  10.337   1.256  0.5381  1.0106 -0.5062
  141MOL0     C18921   3.385  10.223   1.188  0.1464 -0.0070 -0.8345
  141MOL0     C18922   3.309  10.122   1.284  0.2528 -0.8237 -0.3240
  141MOL0     C18923   3.283   9.991   1.203 -0.0280 -0.2715 -0.3889
  141MOL0     O18924   3.180  10.013   1.109 -0.2011  0.2929 -0.0426
  141MOL0     C18925   3.178   9.916   1.009 -0.2300 -0.5208 -0.2009
  141MOL0     C18926   3.187   9.779   1.050 -0.0079  0.0892 -0.9930
  141MOL0     C18927   3.192   9.682   0.961 -0.2403  0.1795  1.0141
  141MOL0     C18928   3.174   9.712   0.820  0.1442 -0.7273  0.1751
  141MOL0     C18929   3.166   9.604   0.724  0.1212 -0.0977  0.4269
  141MOL0     O18930   3.139   9.647   0.597 -0.1768  0.3798  0.1266
  141MOL0     C18931   3.138   9.549   0.504 -0.5595  0.1105  0.8834
  141MOL0     C18932   3.266   9.497   0.460  0.4065  0.8111  0.3276
  141MOL0     C18933   3.271   9.396   0.363  0.0567  0.1757  0.1966
  141MOL0     C18934   3.153   9.345   0.307  0.1304 -0.1153  0.1087
  141MOL0     O18935   3.157   9.246   0.218  0.3224 -0.3284 -0.4064
  141MOL0     C18936   3.214   9.126   0.250 -0.5128 -0.0425  0.6535
  141MOL0     C18937   3.126   9.018   0.201 -0.5328 -0.5836  0.1047
  141MOL0     C18938   2.983   9.024   0.262 -0.6451  1.0483  0.6504
  141MOL0     C18939   2.989   8.974   0.409  0.5413  0.5162  0.0265
  141MOL0     C18940   2.853   8.924   0.456 -0.2675  0.4980  0.5673
  141MOL0     C18941   2.861   8.878   0.602 -0.4856  0.6381  0.2175
  141MOL0     C18942   2.725   8.849   0.660 -0.3584 -0.5255 -0.0757
  141MOL0     C18943   2.652   8.982   0.676  0.7649 -0.2912 -0.0133
  141MOL0    Cl18944   2.496   8.922   0.752 -0.3646 -0.5875 -0.0617
  141MOL0     C18945   3.028   9.407   0.340 -0.1035  0.3578  0.0935
  141MOL0     C18946   3.027   9.508   0.436 -0.3885 -1.4436 -0.5532
  141MOL0     O18947   3.201   9.489   0.752 -0.2393 -0.1172 -0.5544
  141MOL0     C18948   3.153   9.843   0.780 -0.0972 -0.1360  0.0668
  141MOL0     C18949   3.173   9.948   0.874 -0.0842 -0.4214 -0.2071
  141MOL0     N18950   3.486  10.338   1.528  0.9501 -0.5387 -0.9313
  141MOL0     N18951   3.410  10.380   1.619  0.0019 -0.1669 -0.2272
  141MOL0     C18952   3.100  11.101   0.897 -0.0382  0.4246  0.6024
  141MOL0     C18953   3.104  11.103   0.758 -0.0375  0.1312 -1.1857
  141MOL0     C18954   3.197  10.873   0.340  0.1855  0.0878 -0.3572
  141MOL0     C18955   3.133  10.985   0.275 -0.6485 -0.2767 -0.8720
  141MOL0     C18956   3.100  10.981   0.137 -0.4961 -0.8375  0.3339
  141MOL0     C18957   3.145  10.876   0.054 -0.6670 -0.1516 -1.3784
  141MOL0     O18958   3.129  10.882  -0.083  0.1619  0.8450  0.1642
  141MOL0     C18959   3.021  10.794  -0.125 -0.1532  0.1218  0.1512
  141MOL0     C18960   2.965  10.858  -0.250 -0.4022  0.5223  0.8736
  141MOL0     C18961   2.824  10.922  -0.243  0.8528  0.1115  0.1403
  141MOL0     C18962   2.799  11.008  -0.363  0.1063  0.2522  0.0033
  141MOL0     C18963   2.794  10.929  -0.491  0.7099 -0.3355 -0.1574
  141MOL0     C18964   2.793  10.871  -0.593  0.1511 -0.0545 -0.5081
  141MOL0     C18965   3.222  10.774   0.115  0.7227 -0.7623 -0.2285
  141MOL0     C18966   3.248  10.773   0.254 -1.3400 -0.2302  0.8040
  141MOL0     C18967   3.328  10.653   0.298  0.1986  0.3734  0.6075
  141MOL0     H18968   3.372  10.888   0.723  2.2886  3.1806  0.6598
  141MOL0     H18969   3.366  10.904   0.958 -1.6071 -1.0645  2.1108
  141MOL0     H18970   3.195  11.210   1.160  0.7025 -0.0031  2.4772
  141MOL0     H18971   3.038  11.142   1.162  0.2590  1.2132  0.0013
  141MOL0     H18972   3.086  11.186   1.381 -0.7941  1.0747 -1.3979
  141MOL0     H18973   3.253  11.117   1.378  0.3044 -2.0798 -0.9727
  141MOL0     H18974   3.139  10.892   1.332 -1.9799 -0.4090 -0.6290
  141MOL0     H18975   2.993  10.989   1.368  0.4624 -0.0156 -3.8300
  141MOL0     H18976   3.242  10.974   1.557 -0.4965  0.6042  0.3549
  141MOL0     H18977   3.091  11.054   1.598 -0.2227  0.7532 -2.1472
  141MOL0     H18978   3.079  10.842   1.734 -0.6246 -0.3743 -0.6555
  141MOL0     H18979   2.991  10.789   1.600  0.9672 -0.5711 -0.4500
  141MOL0     H18980   3.150  10.677   1.481 -1.0586  2.2140 -0.8860
  141MOL0     H18981   3.277  10.733   1.578 -0.7253  0.5610  0.3737
  141MOL0     H18982   3.039  10.594   1.715 -0.0834  2.4252 -1.7525
  141MOL0     H18983   3.209  10.598   1.780 -2.1153  1.0207  2.3762
  141MOL0     H18984   3.171  10.369   1.717 -2.4340 -1.5965 -1.3437
  141MOL0     H18985   3.088  10.410   1.573  3.7693 -6.2235 -2.1703
  141MOL0     H18986   3.216  10.444   1.359 -1.0827 -1.3091  2.0020
  141MOL0     H18987   3.451  10.419   1.185  1.6530 -0.4099 -2.4829
  141MOL0     H18988   3.571  10.316   1.269  0.2953 -0.0399 -0.1399
  141MOL0     H18989   3.319  10.275   1.118  1.9216  2.1159 -1.0375
  141MOL0     H18990   3.453  10.168   1.122 -2.1877 -1.9650 -1.7788
  141MOL0     H18991   3.209  10.161   1.305 -0.8379 -2.0402 -2.7927
  141MOL0     H18992   3.370  10.101   1.372 -2.7836  1.3629  2.5342
  141MOL0     H18993   3.258   9.914   1.276  1.1551 -0.4586 -0.1595
  141MOL0     H18994   3.375   9.977   1.145 -0.8092 -0.0115 -1.7335
  141MOL0     H18995   3.191   9.747   1.153 -0.1672  0.0561 -0.9980
  141MOL0     H18996   3.195   9.574   0.975  1.9398  0.1565  0.7391
  141MOL0     H18997   3.359   9.531   0.505  0.6888 -0.9916  1.1857
  141MOL0     H18998   3.359   9.367   0.307  1.3758  0.6600  1.9134
  141MOL0     H18999   3.307   9.111   0.194 -0.5627  3.6609 -0.7250
  141MOL0     H19000   3.231   9.111   0.357 -0.1862 -3.8770  0.1959
  141MOL0     H19001   3.118   9.037   0.093 -1.1458  2.5035  0.5894
  141MOL0     H19002   3.157   8.914   0.214  1.4963 -0.4261 -2.5313
  141MOL0     H19003   2.936   9.121   0.243 -1.8216  0.2058 -0.9821
  141MOL0     H19004   2.919   8.961   0.200 -1.0504  0.3952  1.7049
  141MOL0     H19005   3.017   9.065   0.462  2.4766  1.4736 -2.4928
  141MOL0     H19006   3.066   8.898   0.424  0.0715  0.3628  1.9968
  141MOL0     H19007   2.807   8.849   0.391  0.3264 -0.1443  0.8680
  141MOL0     H19008   2.783   9.007   0.443 -2.9664 -1.5421  1.1679
  141MOL0     H19009   2.911   8.781   0.609 -2.5236 -0.6023 -1.3780
  141MOL0     H19010   2.917   8.947   0.666 -1.1641  0.9227  0.5074
  141MOL0     H19011   2.732   8.806   0.760 -0.4021 -0.2556  0.0468
  141MOL0     H19012   2.662   8.785   0.597 -1.9762  0.8936  0.0222
  141MOL0     H19013   2.699   9.056   0.742 -2.9485  1.5881  0.7717
  141MOL0     H19014   2.647   9.039   0.583 -0.5093  4.2497  2.5496
  141MOL0     H19015   2.939   9.388   0.281  1.7256 -2.8906 -1.9878
  141MOL0     H19016   2.939   9.571   0.446  0.7016  0.0602 -0.1685
  141MOL0     H19017   3.121   9.873   0.681 -2.7314 -0.5225  0.7145
  141MOL0     H19018   3.187  10.053   0.850  2.1853 -1.3240 -3.6023
  141MOL0     H19019   3.030  11.163   0.953 -0.8911  0.2935 -0.2848
  141MOL0     H19020   3.036  11.170   0.707 -0.7537  3.9735  3.9744
  141MOL0     H19021   3.087  11.062   0.335 -2.4828 -2.2199  0.3504
  141MOL0     H19022   3.041  11.060   0.092  1.0430 -0.5608 -1.2967
  141MOL0     H19023   2.944  10.802  -0.047 -1.7468 -2.9130 -0.9551
  141MOL0     H19024   3.051  10.689  -0.136 -1.2431 -0.5110  2.3900
  141MOL0     H19025   2.960  10.777  -0.324  2.2797  1.4091 -0.3789
  141MOL0     H19026   3.039  10.923  -0.296  0.6265 -1.9209 -1.1811
  141MOL0     H19027   2.820  10.978  -0.149  0.0665  1.6658 -0.7939
  141MOL0     H19028   2.744  10.848  -0.257  0.4364  0.4154  0.8501
  141MOL0     H19029   2.697  11.042  -0.345 -0.1643 -0.9236  0.7512
  141MOL0     H19030   2.878  11.084  -0.373  3.1496 -2.8033 -0.9951
  141MOL0     H19031   2.779  10.838  -0.694 -0.6069  2.5097 -1.3082
  141MOL0     H19032   3.256  10.693   0.051  0.1934  0.2635 -1.8959
  141MOL0     H19033   3.411  10.679   0.365  3.0403 -1.0426 -2.1342
  141MOL0     H19034   3.260  10.590   0.355 -0.2003  0.1634 -0.1023
  141MOL0     H19035   3.380  10.599   0.219  1.3823  2.4749 -0.1489
  142MOL0     O19036   6.198   6.685   0.902 -0.0369 -0.2337 -0.2865
  142MOL0     C19037   6.211   6.721   1.020 -0.3638  0.8855 -0.4033
  142MOL0     O19038   6.281   6.830   1.068 -0.3938  0.7138  0.2585
  142MOL0     C19039   6.319   6.919   0.967  0.1377  0.1260 -0.1300
  142MOL0     C19040   6.260   7.040   0.936 -0.3918  0.6269 -0.1536
  142MOL0     C19041   6.315   7.123   0.837  0.3226  0.0488  0.2146
  142MOL0     C19042   6.433   7.102   0.789  0.3088 -0.0467  0.2636
  142MOL0     O19043   6.479   7.199   0.703 -0.4053  0.1042  0.4772
  142MOL0     C19044   6.604   7.172   0.625  0.1974  0.2571 -0.1282
  142MOL0     C19045   6.604   7.259   0.496 -1.0356  0.3524 -0.3841
  142MOL0     C19046   6.503   7.202   0.389 -0.0631  0.9039  0.2891
  142MOL0     C19047   6.359   7.221   0.424  0.4926  0.2222  0.5198
  142MOL0     C19048   6.273   7.223   0.298  0.1553 -0.4747  0.9399
  142MOL0     C19049   6.140   7.292   0.331  0.4622 -1.2033 -0.5348
  142MOL0     C19050   6.155   7.439   0.317 -0.3086  1.0995  0.0808
  142MOL0     C19051   6.023   7.505   0.341  0.2763 -1.4447  0.6171
  142MOL0     N19052   6.040   7.647   0.320  0.6336 -0.5279  0.8161
  142MOL0     C19053   6.110   7.729   0.402 -0.7246 -0.4415 -0.2495
  142MOL0     C19054   6.115   7.850   0.337 -0.2290 -0.2023 -0.2431
  142MOL0     C19055   6.195   7.978   0.376  0.2596  0.0289 -0.7424
  142MOL0     C19056   6.182   7.996   0.529 -0.2126  0.6435 -0.4641
  142MOL0     C19057   6.280   7.913   0.614  0.9403  1.0683  0.1578
  142MOL0     C19058   6.368   8.006   0.694 -0.1805 -0.2015  0.2930
  142MOL0     O19059   6.422   8.114   0.611 -0.0441  1.1502  0.3234
  142MOL0     C19060   6.547   8.141   0.646 -0.3722  0.2811 -0.8621
  142MOL0     C19061   6.657   8.046   0.620  0.7137 -0.3358 -0.7268
  142MOL0     C19062   6.790   8.087   0.625 -0.3927  0.1527  0.0355
  142MOL0     C19063   6.823   8.230   0.629 -0.5654  0.3270 -0.6013
  142MOL0     C19064   6.957   8.284   0.644 -0.5090  1.3334 -0.6096
  142MOL0     O19065   6.971   8.410   0.609  0.1251 -1.0996 -0.5209
  142MOL0     C19066   7.094   8.487   0.628  1.1539  0.0136 -0.1806
  142MOL0     C19067   7.077   8.628   0.602 -0.4577 -0.7651  0.0319
  142MOL0     C19068   7.172   8.724   0.615  0.3011  0.8532 -0.2825
  142MOL0     C19069   7.302   8.682   0.645 -0.1835 -0.0357 -0.1934
  142MOL0     O19070   7.407   8.759   0.661 -0.0492 -0.8308  0.3315
  142MOL0     C19071   7.391   8.889   0.710  0.8310 -0.3962 -1.2158
  142MOL0     C19072   7.522   8.960   0.672 -0.6154  0.4623  0.8232
  142MOL0     C19073   7.627   8.925   0.775 -1.0123  0.5053  0.3025
  142MOL0     C19074   7.765   8.959   0.720 -0.1856 -0.3370 -0.2741
  142MOL0     C19075   7.826   8.860   0.618 -1.0095 -0.6067 -0.3133
  142MOL0     C19076   7.916   8.772   0.709 -0.6378 -0.8739 -0.1866
  142MOL0     C19077   8.021   8.682   0.635  0.7993 -0.4365  0.3314
  142MOL0     C19078   8.135   8.648   0.728  0.8939 -0.1024  0.1329
  142MOL0    Cl19079   8.241   8.555   0.619  0.1293 -0.1363  0.4105
  142MOL0     C19080   7.324   8.546   0.665 -0.2974  0.4645  0.2337
  142MOL0     C19081   7.223   8.448   0.661  0.5970 -0.4369 -1.2174
  142MOL0     O19082   7.043   8.211   0.680 -0.2900 -0.5255  0.0171
  142MOL0     C19083   6.713   8.317   0.637  0.1970 -0.3879  0.8513
  142MOL0     C19084   6.581   8.274   0.648 -0.4557  0.5066  0.2960
  142MOL0     N19085   6.043   7.827   0.216 -0.1153  0.4393  0.2151
  142MOL0     N19086   6.003   7.710   0.207 -0.0270  0.5601  0.0552
  142MOL0     C19087   6.495   6.976   0.808  0.1839 -0.3805  0.1785
  142MOL0     C19088   6.436   6.889   0.891  0.1650  0.2498 -0.2041
  142MOL0     C19089   6.159   6.624   1.125 -0.5120 -0.0509  0.3899
  142MOL0     C19090   6.072   6.518   1.081  0.1954 -0.3875 -0.5977
  142MOL0     C19091   6.024   6.426   1.175 -0.0914  0.6168  0.4722
  142MOL0     C19092   6.058   6.433   1.309 -0.5751 -0.2972 -0.2637
  142MOL0     O19093   6.009   6.354   1.405 -0.0863 -0.0243 -0.7286
  142MOL0     C19094   5.911   6.260   1.373  0.3611 -0.0654  0.9228
  142MOL0     C19095   5.860   6.184   1.490  0.0699 -0.0233 -0.4996
  142MOL0     C19096   5.732   6.251   1.536  0.7065  0.1865 -0.3915
  142MOL0     C19097   5.677   6.183   1.654 -0.7123 -0.1771 -0.0607
  142MOL0     C19098   5.764   6.232   1.772  0.1309  0.9971 -0.2866
  142MOL0     C19099   5.851   6.249   1.857  0.2388 -0.2773 -0.5825
  142MOL0     C19100   6.146   6.530   1.348 -0.1118 -0.6989  0.5542
  142MOL0     C19101   6.193   6.627   1.257 -0.2935 -0.4654 -0.0145
  142MOL0     C19102   6.292   6.722   1.313 -0.7869 -1.0901  0.1126
  142MOL0     H19103   6.162   7.064   0.977 -0.6070  0.1182 -0.3663
  142MOL0     H19104   6.280   7.217   0.795  4.7815  1.3619 -1.0880
  142MOL0     H19105   6.688   7.197   0.691 -1.0493  0.8054  1.3326
  142MOL0     H19106   6.608   7.069   0.590  1.0708  0.4017 -0.4675
  142MOL0     H19107   6.704   7.260   0.453 -0.9775 -3.3953 -0.6092
  142MOL0     H19108   6.570   7.361   0.516 -0.5620  0.6108 -0.8678
  142MOL0     H19109   6.518   7.100   0.354 -1.5064  1.9735 -4.1927
  142MOL0     H19110   6.530   7.253   0.295  2.3766 -3.3741 -1.6185
  142MOL0     H19111   6.334   7.145   0.499 -0.4275 -1.1082 -1.0903
  142MOL0     H19112   6.357   7.317   0.478 -2.4945 -0.7569  2.3814
  142MOL0     H19113   6.319   7.267   0.209 -2.8796 -0.8457 -0.9536
  142MOL0     H19114   6.239   7.122   0.276 -1.3532 -0.1213  1.5338
  142MOL0     H19115   6.061   7.259   0.264  0.7655 -3.4952  0.1482
  142MOL0     H19116   6.111   7.254   0.430 -1.4538  3.2653  0.8806
  142MOL0     H19117   6.191   7.457   0.215  0.4785 -2.3489 -0.3775
  142MOL0     H19118   6.231   7.483   0.382  3.4296 -1.4912 -2.1178
  142MOL0     H19119   5.943   7.466   0.277  0.0626  2.1488 -1.5364
  142MOL0     H19120   5.984   7.490   0.443  0.1749 -4.3254  0.2512
  142MOL0     H19121   6.144   7.710   0.503  2.3992  1.7613 -0.7300
  142MOL0     H19122   6.301   7.974   0.351  0.6893  4.6044 -0.5273
  142MOL0     H19123   6.151   8.068   0.331 -3.5919 -0.2200  2.0329
  142MOL0     H19124   6.193   8.101   0.559  0.0144  0.4579  0.1208
  142MOL0     H19125   6.079   7.970   0.555  0.4069 -1.2505  0.2348
  142MOL0     H19126   6.333   7.842   0.549 -0.5171 -0.9591  1.0632
  142MOL0     H19127   6.223   7.841   0.674 -0.9469 -1.7574 -4.4493
  142MOL0     H19128   6.436   7.949   0.758 -2.5740 -2.5431  0.9342
  142MOL0     H19129   6.300   8.061   0.760  2.0772  3.7379 -0.3317
  142MOL0     H19130   6.632   7.941   0.604 -0.0897 -0.3356  0.3486
  142MOL0     H19131   6.867   8.011   0.611 -2.3568 -1.5454 -2.3600
  142MOL0     H19132   6.992   8.675   0.554  0.7270  2.9381  1.2674
  142MOL0     H19133   7.149   8.829   0.596 -2.4884  0.2314 -0.7739
  142MOL0     H19134   7.310   8.952   0.674  0.3034 -1.1065 -1.2920
  142MOL0     H19135   7.376   8.883   0.818 -2.0188 -0.5458 -1.5643
  142MOL0     H19136   7.555   8.939   0.569 -1.2049 -3.6876  1.3120
  142MOL0     H19137   7.508   9.067   0.682 -0.0458  0.7446 -0.9669
  142MOL0     H19138   7.611   8.977   0.870 -0.9355  0.5520  0.2896
  142MOL0     H19139   7.620   8.816   0.783 -1.2446  0.5210  0.3297
  142MOL0     H19140   7.827   8.987   0.806 -0.1772 -2.1277  0.3237
  142MOL0     H19141   7.761   9.050   0.659  2.5596  0.3094  0.3715
  142MOL0     H19142   7.894   8.910   0.548 -3.1332 -0.1511 -2.1445
  142MOL0     H19143   7.750   8.801   0.567 -1.2346  0.5477 -1.3740
  142MOL0     H19144   7.973   8.833   0.778  1.7103 -2.3912 -0.6742
  142MOL0     H19145   7.858   8.714   0.782  2.3538 -2.0878  1.3757
  142MOL0     H19146   8.073   8.730   0.553  1.8320 -4.7751 -1.8642
  142MOL0     H19147   7.983   8.586   0.598  3.0888 -1.1833 -0.2147
  142MOL0     H19148   8.182   8.742   0.756  1.5987 -1.5250  4.5970
  142MOL0     H19149   8.108   8.596   0.820  2.9274  2.2549  2.1909
  142MOL0     H19150   7.425   8.509   0.679 -0.4727 -0.4513 -0.8282
  142MOL0     H19151   7.255   8.346   0.679  0.6376 -0.2890 -0.4146
  142MOL0     H19152   6.711   8.423   0.662 -1.0477 -0.6035  1.7757
  142MOL0     H19153   6.501   8.346   0.663 -1.8598  0.3051 -4.5276
  142MOL0     H19154   6.580   6.957   0.743 -0.2956  1.1074 -0.9220
  142MOL0     H19155   6.484   6.792   0.893  1.7848  1.0327  0.5259
  142MOL0     H19156   6.045   6.508   0.976  1.7513  0.7964 -1.1550
  142MOL0     H19157   5.968   6.341   1.138 -1.4998  2.0657 -0.8753
  142MOL0     H19158   5.953   6.193   1.297 -3.6526  0.2768 -1.9781
  142MOL0     H19159   5.826   6.307   1.322  1.7332  2.7599  1.0497
  142MOL0     H19160   5.928   6.175   1.575 -0.2226  0.0690 -0.2545
  142MOL0     H19161   5.835   6.088   1.443 -1.0173  0.3891 -0.7820
  142MOL0     H19162   5.657   6.226   1.460  1.1267 -2.1696 -0.1269
  142MOL0     H19163   5.740   6.358   1.556 -1.1746  0.3708 -0.5039
  142MOL0     H19164   5.572   6.216   1.655 -1.6397 -2.8476  0.9511
  142MOL0     H19165   5.676   6.074   1.649 -1.9106 -0.1665 -0.5847
  142MOL0     H19166   5.928   6.258   1.930  0.6245  0.8361 -1.1099
  142MOL0     H19167   6.173   6.529   1.454 -1.2423 -0.3418  0.8645
  142MOL0     H19168   6.312   6.697   1.418  1.6633  1.5744  0.4182
  142MOL0     H19169   6.385   6.723   1.256 -0.3354  4.3274  0.4338
  142MOL0     H19170   6.281   6.831   1.306 -0.3535 -0.8573  2.2722
  143MOL0     O19171   6.975   8.719   1.972 -0.2519 -0.0603 -0.3675
  143MOL0     C19172   6.906   8.799   2.035  0.3385 -0.0107  0.5058
  143MOL0     O19173   6.928   8.836   2.165 -0.1508  0.1511  0.4520
  143MOL0     C19174   7.059   8.838   2.216  0.3163  0.2504 -0.3101
  143MOL0     C19175   7.073   8.790   2.350  0.1130 -1.5503 -0.2949
  143MOL0     C19176   7.201   8.796   2.406  0.2246 -0.0700  0.2203
  143MOL0     C19177   7.306   8.856   2.337 -0.3224  0.3078 -0.7724
  143MOL0     O19178   7.438   8.855   2.375 -0.1051  0.8175 -0.3969
  143MOL0     C19179   7.476   8.794   2.500  0.1993 -1.5810 -0.5316
  143MOL0     C19180   7.633   8.787   2.515 -1.1847  0.6204 -0.3116
  143MOL0     C19181   7.718   8.915   2.489  0.0238  0.4514 -0.0524
  143MOL0     C19182   7.781   8.973   2.613 -0.5587 -0.1147  0.7405
  143MOL0     C19183   7.897   9.070   2.587  0.2147 -0.1673  0.6964
  143MOL0     C19184   7.947   9.132   2.708  0.4218  0.1125 -0.3415
  143MOL0     C19185   8.078   9.209   2.667  0.4100 -0.1587 -0.4473
  143MOL0     C19186   8.126   9.278   2.795 -0.3698 -1.2889  0.3752
  143MOL0     N19187   8.257   9.348   2.785  0.2364  0.8290 -0.1934
  143MOL0     C19188   8.378   9.286   2.781 -0.0983 -0.0236  0.2528
  143MOL0     C19189   8.471   9.386   2.755  0.3979 -0.5169 -0.4219
  143MOL0     C19190   8.623   9.365   2.737  0.3153  0.5750 -0.1475
  143MOL0     C19191   8.705   9.469   2.813 -0.2423  0.3129 -0.7766
  143MOL0     C19192   8.840   9.487   2.732 -0.4036  0.3563 -0.0688
  143MOL0     C19193   8.939   9.373   2.763  0.1585  0.4197  0.0003
  143MOL0     O19194   9.041   9.378   2.669 -0.6912  1.4615  0.2001
  143MOL0     C19195   9.145   9.279   2.676 -0.3044 -0.6675  0.7902
  143MOL0     C19196   9.216   9.286   2.556 -0.2065  0.9520  0.1166
  143MOL0     C19197   9.326   9.207   2.534  0.0475  0.2411 -0.1677
  143MOL0     C19198   9.348   9.109   2.625  0.0214  0.3363 -0.8818
  143MOL0     C19199   9.468   9.016   2.608 -0.2041 -0.2766  1.0188
  143MOL0     O19200   9.532   9.031   2.493  0.1980 -0.4468 -0.2164
  143MOL0     C19201   9.646   8.956   2.464  0.6394  0.1121 -0.0610
  143MOL0     C19202   9.654   8.891   2.339  0.4821  0.2037 -1.3158
  143MOL0     C19203   9.773   8.831   2.300 -0.2829  0.6439  0.2562
  143MOL0     C19204   9.879   8.803   2.393  0.7037  1.1898  0.2410
  143MOL0     O19205   9.986   8.744   2.342 -0.0579  0.4243 -0.0252
  143MOL0     C19206   9.992   8.607   2.385 -0.2577 -0.1297 -0.2390
  143MOL0     C19207   9.884   8.510   2.330  1.2635  1.1185  1.3190
  143MOL0     C19208   9.887   8.508   2.177 -0.2109  0.1584 -0.6983
  143MOL0     C19209   9.764   8.447   2.124  0.0364 -0.3261 -0.8228
  143MOL0     C19210   9.766   8.434   1.973  1.1365  0.3690  0.6387
  143MOL0     C19211   9.649   8.385   1.888 -0.6749 -0.3552  0.3861
  143MOL0     C19212   9.565   8.269   1.938  0.6742  0.8978  0.3853
  143MOL0     C19213   9.444   8.261   1.856  0.3111  0.1104  0.3792
  143MOL0    Cl19214   9.339   8.397   1.892  0.2032  0.1170  0.5979
  143MOL0     C19215   9.869   8.863   2.523 -1.3178 -0.7610 -0.2086
  143MOL0     C19216   9.749   8.943   2.549 -0.7778  0.3371 -0.2122
  143MOL0     O19217   9.486   8.926   2.697 -0.1254 -0.1614 -0.5288
  143MOL0     C19218   9.274   9.088   2.741 -0.3936 -0.2336 -0.3090
  143MOL0     C19219   9.175   9.186   2.775 -0.2240 -0.0762  0.6763
  143MOL0     N19220   8.403   9.509   2.756  0.5202  0.2841 -0.2505
  143MOL0     N19221   8.277   9.479   2.759 -0.0482 -0.4939  0.6660
  143MOL0     C19222   7.290   8.903   2.208  0.8040  0.2745 -0.3027
  143MOL0     C19223   7.164   8.897   2.154  0.4093 -0.1487 -0.1534
  143MOL0     C19224   6.794   8.865   1.975  0.6037  0.5698  0.5913
  143MOL0     C19225   6.711   8.791   1.894 -0.1922  0.4851  0.0615
  143MOL0     C19226   6.585   8.838   1.856 -0.0440 -0.4102  0.6631
  143MOL0     C19227   6.551   8.976   1.869  0.1248  0.0490  0.1754
  143MOL0     O19228   6.435   9.042   1.818 -0.3022  0.2827  1.0702
  143MOL0     C19229   6.330   8.962   1.773 -0.4484  0.2546  0.4492
  143MOL0     C19230   6.258   8.879   1.881 -0.0064  0.1922  0.5034
  143MOL0     C19231   6.171   8.771   1.818  0.2253 -1.1042 -0.6323
  143MOL0     C19232   6.139   8.682   1.932 -0.5707  0.0182  0.7384
  143MOL0     C19233   6.033   8.597   1.877  0.9391  0.2051 -0.3018
  143MOL0     C19234   5.956   8.536   1.819  0.7752 -0.2516  0.9893
  143MOL0     C19235   6.651   9.057   1.929 -0.3960  0.3174 -0.3658
  143MOL0     C19236   6.763   9.001   1.988  0.5231 -0.4976  0.0619
  143MOL0     C19237   6.854   9.094   2.071  0.2774  0.6239  0.1413
  143MOL0     H19238   6.988   8.743   2.398 -0.8640  1.1483  0.8116
  143MOL0     H19239   7.221   8.755   2.504  1.0554  0.2660  0.1979
  143MOL0     H19240   7.441   8.864   2.577  1.7967  4.5755 -4.6704
  143MOL0     H19241   7.428   8.696   2.504  0.1927 -1.5694 -0.3043
  143MOL0     H19242   7.666   8.718   2.437 -2.0529  0.1364 -0.2642
  143MOL0     H19243   7.652   8.739   2.612 -1.3170 -2.3284 -1.6200
  143MOL0     H19244   7.667   8.990   2.429  1.5308 -0.5088 -2.7145
  143MOL0     H19245   7.795   8.874   2.423  1.2906  0.0808  1.5943
  143MOL0     H19246   7.708   9.028   2.672 -0.0184 -1.2652  2.5571
  143MOL0     H19247   7.810   8.887   2.674 -0.8118  0.5158  1.7727
  143MOL0     H19248   7.965   9.007   2.529 -1.5398  0.4008 -2.1446
  143MOL0     H19249   7.861   9.155   2.529  1.1055 -1.6662 -2.2323
  143MOL0     H19250   7.868   9.201   2.737 -0.6978 -1.1969 -0.1906
  143MOL0     H19251   7.954   9.057   2.788 -3.6677  1.0418  1.1107
  143MOL0     H19252   8.060   9.272   2.579 -1.0615 -0.7368 -0.5822
  143MOL0     H19253   8.154   9.134   2.645  1.2167  0.7255 -0.7666
  143MOL0     H19254   8.050   9.352   2.821  0.8856 -0.7272  2.6661
  143MOL0     H19255   8.117   9.209   2.879 -0.7934 -0.6677  0.8555
  143MOL0     H19256   8.417   9.188   2.807 -1.4613 -1.3958 -2.4849
  143MOL0     H19257   8.636   9.264   2.777 -0.6216 -0.1449 -1.5811
  143MOL0     H19258   8.631   9.361   2.628 -1.4611  2.7584 -0.4247
  143MOL0     H19259   8.662   9.569   2.826  1.1466  0.9384 -0.7815
  143MOL0     H19260   8.724   9.428   2.912  0.5050  0.7593 -0.7232
  143MOL0     H19261   8.895   9.577   2.761 -1.2131  1.0793 -0.6867
  143MOL0     H19262   8.815   9.501   2.626 -0.2853 -0.4348 -0.2056
  143MOL0     H19263   8.891   9.274   2.756 -0.1004  0.3621  1.9938
  143MOL0     H19264   8.986   9.395   2.859  0.0259  2.1178 -0.3012
  143MOL0     H19265   9.185   9.358   2.481 -0.5580 -1.5471 -2.2968
  143MOL0     H19266   9.381   9.219   2.441  1.9164  2.2977  1.0966
  143MOL0     H19267   9.570   8.883   2.270  1.2869 -2.8609 -2.0800
  143MOL0     H19268   9.768   8.788   2.200 -1.2382  2.3715 -0.4813
  143MOL0     H19269  10.089   8.566   2.355  0.6118 -0.3661  2.6557
  143MOL0     H19270   9.981   8.594   2.493 -0.7213 -3.2396 -0.5566
  143MOL0     H19271   9.909   8.409   2.365 -2.4524  0.0356  1.3113
  143MOL0     H19272   9.783   8.538   2.362  0.4555  2.2675 -1.8834
  143MOL0     H19273   9.899   8.612   2.144 -0.8910  0.9397  1.3927
  143MOL0     H19274   9.969   8.447   2.139 -0.7022 -0.9251 -0.0787
  143MOL0     H19275   9.677   8.503   2.161 -1.0738 -1.7223 -1.2586
  143MOL0     H19276   9.766   8.347   2.168  2.0675  1.0794  2.7908
  143MOL0     H19277   9.858   8.385   1.941 -0.3317 -2.2053  0.0608
  143MOL0     H19278   9.774   8.539   1.942 -3.6177 -0.0378 -3.1138
  143MOL0     H19279   9.585   8.472   1.877  0.5254  0.3852 -1.0221
  143MOL0     H19280   9.680   8.354   1.788 -3.6589  0.9255 -1.0546
  143MOL0     H19281   9.538   8.273   2.044 -2.2203  1.1873 -0.2853
  143MOL0     H19282   9.612   8.173   1.918 -0.8077  0.9666 -5.0060
  143MOL0     H19283   9.481   8.265   1.753 -1.5107  1.8015 -0.2570
  143MOL0     H19284   9.392   8.166   1.870 -0.6124  0.4396 -0.7235
  143MOL0     H19285   9.949   8.855   2.596 -0.2345  0.8523 -1.1380
  143MOL0     H19286   9.744   9.001   2.640  1.1762  3.1167 -1.7085
  143MOL0     H19287   9.275   9.007   2.812 -1.4742  1.6802  2.0389
  143MOL0     H19288   9.116   9.170   2.865  2.1049  1.3084  2.5693
  143MOL0     H19289   7.362   8.957   2.148  2.0290 -1.8732 -0.8456
  143MOL0     H19290   7.134   8.948   2.063  0.3810 -1.4013 -0.8807
  143MOL0     H19291   6.738   8.687   1.881 -0.0780  0.5909 -0.5672
  143MOL0     H19292   6.520   8.766   1.808 -1.3525  1.7591 -0.9854
  143MOL0     H19293   6.369   8.895   1.696 -1.7808 -0.9637  0.7873
  143MOL0     H19294   6.267   9.023   1.707  2.4491  1.4755 -1.3804
  143MOL0     H19295   6.200   8.947   1.945 -0.4811 -0.8245  1.1682
  143MOL0     H19296   6.330   8.826   1.944  0.7199 -2.0391 -2.0078
  143MOL0     H19297   6.219   8.721   1.733  0.6220 -1.5001 -0.1831
  143MOL0     H19298   6.075   8.812   1.786 -0.0729 -1.6985 -0.5252
  143MOL0     H19299   6.225   8.622   1.961  0.0422 -0.5242 -1.9022
  143MOL0     H19300   6.088   8.737   2.012 -3.1008  2.4659 -2.2860
  143MOL0     H19301   5.887   8.487   1.753  1.9074  1.2234 -1.4311
  143MOL0     H19302   6.637   9.165   1.935 -0.0471  0.4361 -1.3762
  143MOL0     H19303   6.961   9.087   2.048  0.0463  1.5694 -1.4126
  143MOL0     H19304   6.823   9.199   2.071 -0.8846  0.2971 -0.1179
  143MOL0     H19305   6.846   9.061   2.175 -0.2755  3.0853  0.9269
  144MOL0     O19306   7.135  11.046   3.236 -0.1403 -0.1739 -0.2482
  144MOL0     C19307   7.239  11.013   3.188 -0.3396  0.8644  0.1214
  144MOL0     O19308   7.303  10.899   3.215  0.2031 -0.0718 -0.0298
  144MOL0     C19309   7.252  10.794   3.290  0.4605 -0.1967  0.0301
  144MOL0     C19310   7.276  10.671   3.234 -0.4540 -0.0101  0.4702
  144MOL0     C19311   7.217  10.557   3.290 -0.7060 -0.0568 -0.2480
  144MOL0     C19312   7.155  10.566   3.413  0.0820  0.9554  0.3471
  144MOL0     O19313   7.101  10.455   3.472  0.5733 -0.3566  0.8162
  144MOL0     C19314   7.136  10.323   3.423 -1.1635 -0.2696 -0.5332
  144MOL0     C19315   7.054  10.214   3.506 -0.1506  0.7614 -0.1407
  144MOL0     C19316   7.052  10.230   3.668  0.3964 -0.9375 -0.1536
  144MOL0     C19317   6.952  10.130   3.726 -0.1347  0.1525 -0.2229
  144MOL0     C19318   6.924  10.181   3.866 -0.5278  0.6227  0.0555
  144MOL0     C19319   6.811  10.271   3.881 -0.3944 -0.2322 -0.6815
  144MOL0     C19320   6.809  10.338   4.017 -0.2094  0.2485 -0.4359
  144MOL0     C19321   6.677  10.379   4.067  0.2528  0.5773 -0.3419
  144MOL0     N19322   6.596  10.263   4.100 -1.3904 -0.0765 -0.2506
  144MOL0     C19323   6.570  10.214   4.227  0.9493 -0.4246 -0.1076
  144MOL0     C19324   6.471  10.127   4.203 -0.4269  0.9862 -0.2953
  144MOL0     C19325   6.385  10.067   4.316 -0.2548  0.2767 -0.2987
  144MOL0     C19326   6.284  10.167   4.354  0.3313  0.6464  0.1332
  144MOL0     C19327   6.204  10.214   4.235 -0.5192 -0.2247  0.2931
  144MOL0     C19328   6.086  10.311   4.265 -0.3484 -0.0987  0.7407
  144MOL0     O19329   6.013  10.341   4.141  0.2868 -0.5166 -0.2164
  144MOL0     C19330   5.910  10.432   4.146 -0.2011  0.0302  0.9882
  144MOL0     C19331   5.854  10.494   4.259  0.4474  0.4810  0.1229
  144MOL0     C19332   5.758  10.598   4.256 -0.1751 -0.6315  0.6915
  144MOL0     C19333   5.720  10.647   4.141 -0.0722 -0.2632  0.1782
  144MOL0     C19334   5.636  10.774   4.147 -0.7065 -0.1168  0.3316
  144MOL0     O19335   5.599  10.825   4.264 -0.0053 -0.0630 -0.7941
  144MOL0     C19336   5.525  10.947   4.283  0.0163  0.4646 -1.4055
  144MOL0     C19337   5.535  10.991   4.412  1.2032  0.0393 -0.3703
  144MOL0     C19338   5.469  11.107   4.450  1.1349 -0.5138 -1.1185
  144MOL0     C19339   5.388  11.182   4.352  0.0983 -1.0254 -0.1870
  144MOL0     O19340   5.327  11.300   4.381 -0.6864  0.1118  0.2954
  144MOL0     C19341   5.419  11.397   4.441  0.6107 -0.2855  0.0782
  144MOL0     C19342   5.357  11.527   4.436  0.1634 -0.0704  0.6019
  144MOL0     C19343   5.340  11.572   4.299 -0.4192  0.8767  0.4254
  144MOL0     C19344   5.315  11.725   4.296 -0.3153 -0.2629  0.0637
  144MOL0     C19345   5.288  11.771   4.156  0.4084 -0.0742 -0.8020
  144MOL0     C19346   5.148  11.719   4.119  0.4309  1.3057 -1.1008
  144MOL0     C19347   5.103  11.775   3.979 -0.4975 -0.0595 -0.8839
  144MOL0     C19348   5.102  11.673   3.865  0.3756 -0.0596 -0.1191
  144MOL0    Cl19349   5.277  11.627   3.834  0.1941 -0.1010 -0.4713
  144MOL0     C19350   5.380  11.138   4.220 -0.3592  0.0624 -0.4938
  144MOL0     C19351   5.451  11.022   4.190  0.7006  0.1251  0.3674
  144MOL0     O19352   5.598  10.820   4.043  0.0170 -0.3836  0.6776
  144MOL0     C19353   5.753  10.576   4.025 -0.8814 -0.6477 -1.0984
  144MOL0     C19354   5.848  10.468   4.022 -0.5134  1.4698  0.6136
  144MOL0     N19355   6.456  10.110   4.072  0.3534  0.7703  0.0369
  144MOL0     N19356   6.522  10.203   4.007  0.1292 -0.2094 -0.2619
  144MOL0     C19357   7.129  10.684   3.471  0.0152  0.4412  0.5736
  144MOL0     C19358   7.182  10.804   3.415 -0.1331  0.8690 -0.0209
  144MOL0     C19359   7.302  11.103   3.089 -0.2784  0.3760 -0.0080
  144MOL0     C19360   7.381  11.047   2.986 -0.6443 -0.5221 -0.9209
  144MOL0     C19361   7.421  11.126   2.878  1.7183 -0.0168 -0.5314
  144MOL0     C19362   7.390  11.255   2.869  0.7086  0.0454 -0.3640
  144MOL0     O19363   7.404  11.337   2.761 -0.4613 -0.0287  0.3368
  144MOL0     C19364   7.508  11.319   2.667  0.5424  0.7309  0.7400
  144MOL0     C19365   7.554  11.456   2.615 -0.9778 -0.2559  1.2214
  144MOL0     C19366   7.669  11.439   2.509  0.4645 -0.6785  0.0913
  144MOL0     C19367   7.638  11.381   2.379  0.4597 -0.3719 -0.6041
  144MOL0     C19368   7.756  11.295   2.340 -0.1774  0.0448  0.1219
  144MOL0     C19369   7.841  11.212   2.307 -0.4508 -1.0679  0.2621
  144MOL0     C19370   7.329  11.320   2.972  1.2149  0.5041 -0.2074
  144MOL0     C19371   7.280  11.243   3.079 -0.2728  0.0504  0.2611
  144MOL0     C19372   7.206  11.325   3.180  0.3155  0.3266  0.2331
  144MOL0     H19373   7.313  10.654   3.133  0.6598 -0.7216  0.9884
  144MOL0     H19374   7.222  10.460   3.242 -3.7049 -1.9544  2.8011
  144MOL0     H19375   7.103  10.306   3.320 -1.5742  0.8289 -0.6020
  144MOL0     H19376   7.243  10.303   3.430 -1.1613  0.0849  0.5501
  144MOL0     H19377   7.103  10.119   3.485 -2.6368 -0.8823  1.0808
  144MOL0     H19378   6.954  10.221   3.461  0.1672  2.5473 -0.6681
  144MOL0     H19379   7.013  10.331   3.685  1.4076 -0.7455  1.1810
  144MOL0     H19380   7.156  10.220   3.697  1.1625  2.0353 -1.4901
  144MOL0     H19381   6.865  10.141   3.660 -0.5771  0.4056  0.4031
  144MOL0     H19382   6.990  10.027   3.724  3.6711  1.3970 -0.1525
  144MOL0     H19383   6.920  10.093   3.930  4.0499 -1.0506 -1.5318
  144MOL0     H19384   7.014  10.232   3.902  0.8317  0.8298 -3.2840
  144MOL0     H19385   6.814  10.339   3.795 -2.3632  0.4193 -0.2958
  144MOL0     H19386   6.716  10.220   3.859  0.1809 -0.4148 -3.0414
  144MOL0     H19387   6.881  10.421   4.016  1.7516 -1.3693 -0.3068
  144MOL0     H19388   6.843  10.267   4.093 -0.4012  2.8056  2.2050
  144MOL0     H19389   6.689  10.438   4.158  0.5144 -0.2907  0.2070
  144MOL0     H19390   6.635  10.444   3.990 -0.5330  0.0433 -0.3731
  144MOL0     H19391   6.595  10.249   4.327 -0.4372 -0.2430  0.1940
  144MOL0     H19392   6.339   9.975   4.278  1.9275 -1.2018  0.4242
  144MOL0     H19393   6.451  10.041   4.399 -0.4262  1.4079  0.2004
  144MOL0     H19394   6.213  10.124   4.426 -0.4233  0.8556 -0.4750
  144MOL0     H19395   6.338  10.244   4.409 -0.8010  2.4614 -1.1932
  144MOL0     H19396   6.167  10.123   4.187  1.4797 -0.0326 -1.7604
  144MOL0     H19397   6.263  10.274   4.166 -0.1651  0.1427  0.9046
  144MOL0     H19398   6.123  10.408   4.298 -4.0178  2.0372 -0.7734
  144MOL0     H19399   6.024  10.274   4.347 -1.1303  3.5012  1.9737
  144MOL0     H19400   5.891  10.471   4.358 -0.5293  0.0370  0.3891
  144MOL0     H19401   5.746  10.654   4.348  1.8245 -0.3123  0.7884
  144MOL0     H19402   5.586  10.929   4.485  1.9176  0.1851 -0.7363
  144MOL0     H19403   5.467  11.136   4.554 -3.5428 -1.4766 -0.7326
  144MOL0     H19404   5.428  11.380   4.549 -0.8991  3.2495  0.9182
  144MOL0     H19405   5.521  11.406   4.403  1.0301 -1.1382  0.9284
  144MOL0     H19406   5.254  11.520   4.471 -0.9501  1.9636 -1.9137
  144MOL0     H19407   5.420  11.588   4.501  0.1243  0.0283  0.5480
  144MOL0     H19408   5.430  11.544   4.243 -0.7126  0.0182  0.3654
  144MOL0     H19409   5.256  11.514   4.258  3.2884 -3.7731 -1.5398
  144MOL0     H19410   5.409  11.770   4.331  0.9870 -1.9472 -1.1241
  144MOL0     H19411   5.238  11.761   4.365  0.3306 -1.1085  1.2578
  144MOL0     H19412   5.356  11.723   4.084 -0.2000  0.2140 -1.5830
  144MOL0     H19413   5.295  11.880   4.161 -1.7962  0.1272 -1.1833
  144MOL0     H19414   5.155  11.611   4.109 -2.0371  1.2687 -3.5771
  144MOL0     H19415   5.066  11.739   4.189  1.3296  0.2975  0.3046
  144MOL0     H19416   5.161  11.863   3.949 -1.9646  1.8567  1.4351
  144MOL0     H19417   5.000  11.814   3.983  0.5138  2.7563  2.5254
  144MOL0     H19418   5.054  11.580   3.896  2.1274 -2.2107 -3.3706
  144MOL0     H19419   5.047  11.707   3.776  0.3055 -1.1430 -0.5035
  144MOL0     H19420   5.311  11.192   4.156 -0.8617  0.3188  0.2504
  144MOL0     H19421   5.454  10.999   4.084 -1.7216  2.1316 -0.2378
  144MOL0     H19422   5.707  10.619   3.936 -2.4570  2.3718  0.9740
  144MOL0     H19423   5.882  10.419   3.931 -2.7874  0.2340  0.3782
  144MOL0     H19424   7.064  10.675   3.558 -1.2957 -1.0250 -0.4846
  144MOL0     H19425   7.158  10.893   3.471 -2.4718 -0.4314  1.1941
  144MOL0     H19426   7.385  10.939   2.975 -1.1612 -0.6389 -0.1001
  144MOL0     H19427   7.470  11.081   2.792  1.5791 -1.6745  0.2056
  144MOL0     H19428   7.464  11.271   2.580 -0.4385 -1.5876  2.4066
  144MOL0     H19429   7.586  11.267   2.724 -0.3825 -0.2619  1.1257
  144MOL0     H19430   7.602  11.506   2.700 -1.3997  1.5084  0.4692
  144MOL0     H19431   7.476  11.512   2.563 -0.0393 -0.3394 -0.3612
  144MOL0     H19432   7.738  11.378   2.569  1.6755  3.4693  3.4533
  144MOL0     H19433   7.722  11.533   2.495 -0.3525  0.1831  2.3072
  144MOL0     H19434   7.554  11.310   2.383  0.2108 -0.0641 -0.2810
  144MOL0     H19435   7.607  11.454   2.304 -1.1511  0.7235  1.0552
  144MOL0     H19436   7.920  11.153   2.266 -0.2744 -0.1151 -0.7923
  144MOL0     H19437   7.306  11.426   2.970 -2.6704 -0.2214 -2.1907
  144MOL0     H19438   7.254  11.423   3.187  3.6942 -1.2303  0.3760
  144MOL0     H19439   7.101  11.332   3.148 -0.4045 -1.3213  2.0262
  144MOL0     H19440   7.212  11.283   3.281 -1.1649  1.3577  0.7976
  145MOL0     O19441   4.709   3.634  10.195  0.0749  0.4032 -0.2801
  145MOL0     C19442   4.630   3.684  10.277 -0.9565  0.2085  0.5079
  145MOL0     O19443   4.648   3.681  10.411  0.1132 -0.0401 -0.0138
  145MOL0     C19444   4.765   3.666  10.490  0.1355 -0.1406 -0.0018
  145MOL0     C19445   4.881   3.615  10.436 -0.3353  0.3507 -0.1219
  145MOL0     C19446   5.005   3.620  10.509  0.2896  0.1317 -0.5441
  145MOL0     C19447   5.006   3.672  10.637 -0.3153 -0.5927 -0.1237
  145MOL0     O19448   5.127   3.674  10.700  0.5509 -0.2093 -0.0085
  145MOL0     C19449   5.177   3.804  10.706 -0.1956  0.2499 -0.6950
  145MOL0     C19450   5.311   3.804  10.782  0.9590 -0.3510 -1.2285
  145MOL0     C19451   5.441   3.780  10.710  0.0022  0.3715 -0.6163
  145MOL0     C19452   5.452   3.646  10.641  0.2960  0.2207 -0.4540
  145MOL0     C19453   5.477   3.542  10.756 -0.7295  0.6064  0.1018
  145MOL0     C19454   5.522   3.401  10.708 -0.2995  0.5116  0.2981
  145MOL0     C19455   5.439   3.327  10.603  0.4600 -0.2419  0.6611
  145MOL0     C19456   5.294   3.309  10.648  0.2245  0.0540 -0.2134
  145MOL0     N19457   5.209   3.253  10.538 -0.1210  1.0246  0.0294
  145MOL0     C19458   5.150   3.132  10.535  0.9414  0.6322  0.2675
  145MOL0     C19459   5.098   3.118  10.401 -0.7361  0.0486 -1.4245
  145MOL0     C19460   4.991   3.032  10.357 -0.0046  0.4800  0.2430
  145MOL0     C19461   4.858   3.099  10.358 -0.0086 -0.3500  0.7663
  145MOL0     C19462   4.842   3.212  10.242  0.4079 -0.6089 -0.2164
  145MOL0     C19463   4.703   3.254  10.214 -0.5903 -0.3293  0.0341
  145MOL0     O19464   4.668   3.329  10.334 -0.4460 -1.1684  0.0631
  145MOL0     C19465   4.536   3.344  10.352 -0.4526  0.1544 -0.3818
  145MOL0     C19466   4.468   3.398  10.251 -0.0503  1.1363  0.6528
  145MOL0     C19467   4.329   3.400  10.254 -0.7180  0.0820 -0.7523
  145MOL0     C19468   4.256   3.359  10.368  0.5818  0.2499 -0.5893
  145MOL0     C19469   4.108   3.366  10.381  0.1767  0.1546  1.2291
  145MOL0     O19470   4.042   3.413  10.267 -0.3906 -0.2845 -0.3670
  145MOL0     C19471   3.911   3.455  10.287 -0.0526  0.4755 -0.3154
  145MOL0     C19472   3.816   3.363  10.318 -0.5395 -0.3006  0.2321
  145MOL0     C19473   3.684   3.391  10.331  0.1005 -0.2013  0.1268
  145MOL0     C19474   3.638   3.522  10.328  0.0424  0.1475  0.7477
  145MOL0     O19475   3.512   3.572  10.355  0.1245  0.2539 -0.0132
  145MOL0     C19476   3.410   3.469  10.388  0.4661  0.4858  0.1427
  145MOL0     C19477   3.289   3.547  10.440  0.6117 -0.7286 -0.0148
  145MOL0     C19478   3.236   3.649  10.335 -0.3134 -0.0719 -0.5463
  145MOL0     C19479   3.091   3.682  10.365 -0.2856 -0.8227  0.2461
  145MOL0     C19480   3.026   3.772  10.269  0.5025  0.0118  0.6574
  145MOL0     C19481   2.890   3.835  10.315  0.3894  0.0418  0.4521
  145MOL0     C19482   2.854   3.954  10.226  0.9118  0.5709  0.4550
  145MOL0     C19483   2.942   4.078  10.235  0.1714  0.6210  0.4218
  145MOL0    Cl19484   2.923   4.162  10.403  0.0053 -0.0407 -0.4505
  145MOL0     C19485   3.727   3.625  10.301 -0.1506  0.7244  0.3595
  145MOL0     C19486   3.864   3.585  10.270 -0.3543 -0.2453  0.0354
  145MOL0     O19487   4.062   3.341  10.495  0.3487  0.1417 -0.2590
  145MOL0     C19488   4.331   3.321  10.481 -0.4332 -0.4471  0.3381
  145MOL0     C19489   4.469   3.309  10.461  0.3076 -0.0702  0.1022
  145MOL0     N19490   5.148   3.222  10.330 -0.4122 -0.6900  0.0679
  145MOL0     N19491   5.209   3.303  10.414 -0.7694  0.6663 -1.3144
  145MOL0     C19492   4.891   3.722  10.695 -0.0524  0.0131 -0.8311
  145MOL0     C19493   4.772   3.724  10.617 -0.5022  0.3008 -0.2977
  145MOL0     C19494   4.495   3.733  10.233 -0.6928 -0.1133  0.1171
  145MOL0     C19495   4.389   3.729  10.328 -0.8682  0.9776 -1.3185
  145MOL0     C19496   4.255   3.761  10.283 -0.2551  0.3459  0.1055
  145MOL0     C19497   4.230   3.792  10.155  0.5962 -0.9321  0.0509
  145MOL0     O19498   4.103   3.825  10.118 -0.4805  0.8366  0.2893
  145MOL0     C19499   4.083   3.955  10.060  0.5329 -0.0922  0.2819
  145MOL0     C19500   3.956   4.025  10.107 -0.6400  0.9295  0.5567
  145MOL0     C19501   3.978   4.129  10.215  0.1877  0.3208  0.4157
  145MOL0     C19502   4.043   4.261  10.173 -1.1242 -0.7416 -1.2283
  145MOL0     C19503   4.088   4.333  10.294  0.5989 -0.6615 -0.0226
  145MOL0     C19504   4.100   4.368  10.410  0.3292  0.7008  0.3395
  145MOL0     C19505   4.326   3.780  10.053 -0.9560  0.4813 -0.2001
  145MOL0     C19506   4.458   3.750  10.093 -0.5095 -0.5447  0.5770
  145MOL0     C19507   4.562   3.759   9.982  0.3932 -0.4997  0.4443
  145MOL0     H19508   4.903   3.583  10.335  0.4083  0.0124  0.1367
  145MOL0     H19509   5.103   3.585  10.474  0.9426  1.3989 -0.0279
  145MOL0     H19510   5.200   3.853  10.610  1.8313  0.8025  0.0125
  145MOL0     H19511   5.098   3.862  10.754 -0.0803  1.3899 -1.8037
  145MOL0     H19512   5.306   3.730  10.863  0.9128  2.8697  1.9436
  145MOL0     H19513   5.311   3.895  10.841  0.1150 -2.6111  2.5742
  145MOL0     H19514   5.509   3.785  10.796 -1.0125 -1.4273  0.3489
  145MOL0     H19515   5.453   3.866  10.644  0.5010  0.5661 -0.2821
  145MOL0     H19516   5.365   3.632  10.577 -0.5217  0.9804  0.4635
  145MOL0     H19517   5.537   3.643  10.572 -0.0772  0.5371 -0.9335
  145MOL0     H19518   5.562   3.569  10.819 -1.7019  1.8165  0.9401
  145MOL0     H19519   5.386   3.529  10.816 -1.5887 -2.3037 -1.6010
  145MOL0     H19520   5.625   3.418  10.676  0.0965 -3.1372 -0.8109
  145MOL0     H19521   5.531   3.339  10.798 -0.5263  0.7906  0.5181
  145MOL0     H19522   5.488   3.230  10.599  0.3666 -0.3880  2.2292
  145MOL0     H19523   5.447   3.382  10.509 -2.5169 -0.6878  0.0513
  145MOL0     H19524   5.298   3.251  10.741 -1.3007 -0.7937 -0.6417
  145MOL0     H19525   5.243   3.402  10.670  0.6952 -0.0390  1.3884
  145MOL0     H19526   5.131   3.057  10.611 -0.7395 -0.7715 -1.4497
  145MOL0     H19527   5.013   2.997  10.255 -2.5848  0.7641 -0.4831
  145MOL0     H19528   4.983   2.942  10.419 -2.1085 -1.1143 -2.1347
  145MOL0     H19529   4.783   3.024  10.332  1.7872 -2.3399  1.0420
  145MOL0     H19530   4.839   3.153  10.451 -1.3836  0.1665  0.2063
  145MOL0     H19531   4.879   3.173  10.146  2.0463 -0.3232  0.2681
  145MOL0     H19532   4.901   3.300  10.270 -1.4697  1.4172 -2.2434
  145MOL0     H19533   4.636   3.172  10.187  1.9368 -2.1444 -1.1510
  145MOL0     H19534   4.694   3.320  10.127 -1.4858 -2.2941 -1.4400
  145MOL0     H19535   4.520   3.420  10.158 -0.8446 -2.7413 -0.9067
  145MOL0     H19536   4.290   3.439  10.161  5.0508  0.6946 -3.3512
  145MOL0     H19537   3.838   3.262  10.351 -0.3512 -1.0036 -1.8752
  145MOL0     H19538   3.620   3.311  10.366 -0.3900  0.4619  0.7884
  145MOL0     H19539   3.372   3.414  10.302  0.3679  1.3624 -0.3912
  145MOL0     H19540   3.458   3.396  10.455  1.4021 -2.9194 -3.8234
  145MOL0     H19541   3.210   3.473  10.456 -1.2728  1.0366 -0.6704
  145MOL0     H19542   3.306   3.596  10.537 -1.6788 -2.0165  1.1036
  145MOL0     H19543   3.293   3.742  10.327 -2.3448  1.5756  2.1495
  145MOL0     H19544   3.244   3.597  10.240 -1.8375 -0.6827 -0.3755
  145MOL0     H19545   3.083   3.726  10.465 -0.5887  1.5426 -0.7492
  145MOL0     H19546   3.026   3.594  10.377 -3.3124  1.1900 -0.1867
  145MOL0     H19547   3.028   3.706  10.183  1.3715  1.1370 -0.2300
  145MOL0     H19548   3.106   3.844  10.248  2.2659 -2.6151 -2.5790
  145MOL0     H19549   2.814   3.757  10.302 -0.7542  1.0732  0.6319
  145MOL0     H19550   2.892   3.859  10.422 -1.2616  0.3161  0.4518
  145MOL0     H19551   2.748   3.979  10.233  0.1125 -1.6608 -1.9605
  145MOL0     H19552   2.861   3.915  10.124  1.8641  1.2070  0.2690
  145MOL0     H19553   3.046   4.052  10.214  0.0723 -0.2070  0.9175
  145MOL0     H19554   2.907   4.151  10.162  0.6736  2.3411  1.8336
  145MOL0     H19555   3.681   3.723  10.292  2.8084  1.9972 -3.9856
  145MOL0     H19556   3.927   3.665  10.232  0.5994  0.0080  2.0116
  145MOL0     H19557   4.298   3.297  10.582  3.4651  0.8686  2.0957
  145MOL0     H19558   4.532   3.263  10.536  1.7184  2.2125  0.4324
  145MOL0     H19559   4.897   3.780  10.787  1.6219 -1.2603 -0.0686
  145MOL0     H19560   4.675   3.769  10.633 -0.0878  1.1445 -0.1336
  145MOL0     H19561   4.404   3.722  10.435  1.3683 -2.0812 -1.6776
  145MOL0     H19562   4.171   3.749  10.351 -2.7042 -1.0275 -2.9117
  145MOL0     H19563   4.074   3.959   9.951 -1.4591  1.1118  0.4471
  145MOL0     H19564   4.171   4.019  10.074 -2.7833  5.6517 -1.9945
  145MOL0     H19565   3.883   3.951  10.141 -1.5082  2.2186  1.5935
  145MOL0     H19566   3.925   4.080  10.018  1.7512 -0.9740 -1.5797
  145MOL0     H19567   4.034   4.095  10.303 -0.6928  3.4509  2.3659
  145MOL0     H19568   3.878   4.152  10.253  0.7026 -1.0424  2.8161
  145MOL0     H19569   4.131   4.236  10.114 -1.9870 -3.3839 -1.5527
  145MOL0     H19570   3.967   4.324  10.126 -0.6158  2.2857  1.6170
  145MOL0     H19571   4.105   4.394  10.513 -0.0258 -1.7937  1.0405
  145MOL0     H19572   4.301   3.789   9.948  0.8788  1.5943 -0.5887
  145MOL0     H19573   4.599   3.662   9.947  3.8286  0.9921 -0.5843
  145MOL0     H19574   4.525   3.830   9.907  1.9891  1.9790  1.8678
  145MOL0     H19575   4.650   3.811  10.022  1.3126 -0.4801 -1.4745
  146MOL0     O19576   8.286  11.420   1.705  0.3866  0.8612  0.6424
  146MOL0     C19577   8.268  11.478   1.600 -0.7543  0.0191  0.3426
  146MOL0     O19578   8.358  11.531   1.519 -0.3721 -0.0562  0.3997
  146MOL0     C19579   8.497  11.536   1.558  0.4435  0.9115 -0.4729
  146MOL0     C19580   8.586  11.570   1.451  1.0696  0.7314  0.4582
  146MOL0     C19581   8.717  11.589   1.469 -0.7318 -0.0170  0.4700
  146MOL0     C19582   8.766  11.580   1.602 -0.6277  0.0475  0.7533
  146MOL0     O19583   8.900  11.604   1.627 -0.4161 -0.0843  0.4425
  146MOL0     C19584   8.985  11.691   1.557 -0.0131 -0.2100  0.9443
  146MOL0     C19585   8.956  11.844   1.583 -0.2529  0.1386  0.2628
  146MOL0     C19586   8.913  11.880   1.728 -0.4691 -0.1338 -0.1625
  146MOL0     C19587   9.027  11.858   1.821 -1.4171 -0.7322 -0.2186
  146MOL0     C19588   8.996  11.904   1.971  0.0427 -0.6570  0.0539
  146MOL0     C19589   9.119  11.960   2.045 -0.0320  0.6001  0.1698
  146MOL0     C19590   9.072  11.980   2.180  0.1247 -0.0502 -1.1046
  146MOL0     C19591   9.171  12.043   2.280  0.1593 -0.2769  0.1258
  146MOL0     N19592   9.127  12.046   2.423 -0.6288  0.0545 -0.0373
  146MOL0     C19593   9.038  11.960   2.482  0.6550 -0.2049 -0.2911
  146MOL0     C19594   9.026  12.001   2.614 -0.9881 -0.0942  0.7637
  146MOL0     C19595   8.951  11.930   2.720  0.0809 -0.3077  0.3102
  146MOL0     C19596   8.838  12.006   2.796 -0.0239 -0.3844 -0.6185
  146MOL0     C19597   8.751  11.924   2.892  0.0320 -0.0437  0.1535
  146MOL0     C19598   8.821  11.869   3.018  0.3449  0.5414  0.6647
  146MOL0     O19599   8.723  11.792   3.092  0.2234 -0.2718  0.5815
  146MOL0     C19600   8.758  11.734   3.213 -1.1918 -0.3822 -0.1561
  146MOL0     C19601   8.668  11.660   3.283  0.0481  0.0904 -0.2346
  146MOL0     C19602   8.703  11.595   3.402  0.5443  0.3871  0.3674
  146MOL0     C19603   8.825  11.612   3.455 -0.4144  0.0924 -0.1107
  146MOL0     C19604   8.851  11.546   3.590  0.6741 -1.4725 -0.4775
  146MOL0     O19605   8.930  11.615   3.675 -0.8035 -0.3711 -0.3767
  146MOL0     C19606   8.933  11.578   3.809  0.2015 -0.3743 -0.7478
  146MOL0     C19607   8.822  11.586   3.897 -0.3488 -0.0488 -0.4779
  146MOL0     C19608   8.842  11.572   4.037  0.1315  0.2085  0.2050
  146MOL0     C19609   8.972  11.531   4.086 -0.7270 -0.3836 -0.0096
  146MOL0     O19610   8.994  11.512   4.224  0.4051 -0.6297 -0.3324
  146MOL0     C19611   8.887  11.455   4.300 -0.0156 -0.8638  0.2524
  146MOL0     C19612   8.954  11.433   4.444  0.3706 -0.1391 -0.0303
  146MOL0     C19613   9.023  11.301   4.458 -0.7294  0.3950 -0.0303
  146MOL0     C19614   9.162  11.293   4.387  0.0024 -0.3649  0.3393
  146MOL0     C19615   9.254  11.182   4.421  0.1066  0.4293  0.3696
  146MOL0     C19616   9.337  11.222   4.538 -0.5380  0.2512 -0.6948
  146MOL0     C19617   9.371  11.099   4.618 -0.1794 -0.3103 -0.2855
  146MOL0     C19618   9.446  10.998   4.539 -0.3901  0.5108  0.1610
  146MOL0    Cl19619   9.628  11.047   4.508 -0.0110  0.1633  0.0152
  146MOL0     C19620   9.079  11.529   3.996 -0.4478 -0.2817 -0.0848
  146MOL0     C19621   9.061  11.554   3.856 -0.8250 -0.3016 -1.0334
  146MOL0     O19622   8.806  11.434   3.616 -1.2124 -0.2799  0.4070
  146MOL0     C19623   8.921  11.695   3.395  0.4236 -0.6861  0.6272
  146MOL0     C19624   8.888  11.750   3.264 -0.6689  0.3964 -1.0901
  146MOL0     N19625   9.110  12.110   2.626  0.0574  0.0430 -0.6751
  146MOL0     N19626   9.164  12.140   2.519  0.9218  0.4175 -0.0807
  146MOL0     C19627   8.692  11.529   1.709  0.0840 -0.8416 -0.4844
  146MOL0     C19628   8.560  11.499   1.683 -0.2391 -0.1865  0.2357
  146MOL0     C19629   8.122  11.501   1.549 -0.4821 -0.4993 -0.0623
  146MOL0     C19630   8.110  11.604   1.461 -0.0074  0.0517  0.4714
  146MOL0     C19631   7.995  11.657   1.415 -0.5288 -0.4218 -0.6718
  146MOL0     C19632   7.876  11.588   1.440 -0.6916  0.1770 -0.0916
  146MOL0     O19633   7.751  11.615   1.391  0.0223  0.6395  0.6042
  146MOL0     C19634   7.722  11.723   1.299 -0.4016 -0.0657 -0.5481
  146MOL0     C19635   7.765  11.666   1.161  0.1734  0.3960 -0.4140
  146MOL0     C19636   7.753  11.780   1.061  0.1534 -0.6779  0.7764
  146MOL0     C19637   7.756  11.715   0.923 -0.0505  0.1384  0.9941
  146MOL0     C19638   7.717  11.789   0.807  0.5054  0.0548  0.0620
  146MOL0     C19639   7.695  11.851   0.701  0.7376  0.8579  0.3859
  146MOL0     C19640   7.883  11.480   1.529  0.7294 -0.6192 -0.1050
  146MOL0     C19641   8.006  11.428   1.581  0.7734 -0.5103 -0.5181
  146MOL0     C19642   8.014  11.313   1.667 -0.4626 -0.1805 -0.1266
  146MOL0     H19643   8.549  11.569   1.349 -0.8175 -1.0255  1.0954
  146MOL0     H19644   8.778  11.625   1.386  0.0850  0.8354  1.4087
  146MOL0     H19645   9.084  11.668   1.598 -1.5383 -4.5501  2.7966
  146MOL0     H19646   8.983  11.684   1.448  1.2473  2.6899  0.6256
  146MOL0     H19647   8.871  11.878   1.525  0.2164  0.8469 -0.0225
  146MOL0     H19648   9.045  11.891   1.541 -1.7242  0.9793 -2.0961
  146MOL0     H19649   8.833  11.817   1.767  0.9199 -2.0065 -0.1677
  146MOL0     H19650   8.884  11.984   1.710  0.9525  0.3354  0.1082
  146MOL0     H19651   9.048  11.751   1.825  1.9920 -0.1756  0.0513
  146MOL0     H19652   9.121  11.905   1.791 -0.9886 -1.1534  0.4250
  146MOL0     H19653   8.914  11.976   1.983  2.1602  1.4626  4.2047
  146MOL0     H19654   8.963  11.814   2.023 -0.2023 -0.9154 -0.5420
  146MOL0     H19655   9.205  11.893   2.044 -2.6641 -3.1130  1.4552
  146MOL0     H19656   9.128  12.057   1.995 -1.0051  1.5888  1.8483
  146MOL0     H19657   9.039  11.884   2.220 -2.0127  0.6544 -1.0150
  146MOL0     H19658   8.984  12.045   2.177 -0.1173 -0.3557 -0.6462
  146MOL0     H19659   9.258  11.978   2.290  1.1208  1.3148  3.9202
  146MOL0     H19660   9.190  12.144   2.242 -1.5287  1.2711  3.0088
  146MOL0     H19661   8.992  11.869   2.444 -0.4131  0.4150 -0.5166
  146MOL0     H19662   8.915  11.836   2.677 -0.8649 -0.9931  2.4576
  146MOL0     H19663   9.033  11.906   2.790 -0.7749  0.0026  1.4463
  146MOL0     H19664   8.894  12.090   2.837  0.6852 -0.0896 -2.1120
  146MOL0     H19665   8.777  12.049   2.716 -0.4866  0.7471  0.3315
  146MOL0     H19666   8.713  11.830   2.851 -5.2581  1.1088  1.5573
  146MOL0     H19667   8.661  11.977   2.925  1.5247  3.4098 -0.9061
  146MOL0     H19668   8.849  11.958   3.076 -1.3839  2.5267 -1.4005
  146MOL0     H19669   8.908  11.810   2.988  0.1092  0.0351  0.9575
  146MOL0     H19670   8.571  11.634   3.242 -1.0580  2.0237  1.0163
  146MOL0     H19671   8.641  11.519   3.449  2.9358 -1.8529  0.1382
  146MOL0     H19672   8.724  11.622   3.867  0.0253 -0.1275 -1.9120
  146MOL0     H19673   8.760  11.582   4.107 -0.9768 -1.4437 -0.7815
  146MOL0     H19674   8.801  11.520   4.321  0.3643 -1.3198  3.7993
  146MOL0     H19675   8.853  11.365   4.248  2.0405 -2.1991  1.0988
  146MOL0     H19676   9.030  11.511   4.457  1.6315 -1.5233  1.4026
  146MOL0     H19677   8.883  11.454   4.524  0.1020 -0.8710 -0.0688
  146MOL0     H19678   9.038  11.283   4.565  0.7070 -2.0322 -0.5459
  146MOL0     H19679   8.967  11.209   4.438  1.5582 -1.6153  2.1360
  146MOL0     H19680   9.217  11.385   4.409  0.5587 -0.8635  1.0854
  146MOL0     H19681   9.143  11.293   4.279  2.3830 -3.4705 -0.2174
  146MOL0     H19682   9.337  11.175   4.350  0.1751 -2.9756  0.6370
  146MOL0     H19683   9.201  11.088   4.435  1.4217 -0.3492  0.3071
  146MOL0     H19684   9.429  11.269   4.500 -0.1775  0.2831  0.2003
  146MOL0     H19685   9.287  11.286   4.611 -0.5592 -1.2778  0.6750
  146MOL0     H19686   9.273  11.058   4.646 -0.2420 -0.1221 -0.2276
  146MOL0     H19687   9.427  11.126   4.708 -0.3175 -0.7880 -0.0527
  146MOL0     H19688   9.456  10.904   4.594  2.7069  1.6099  1.7226
  146MOL0     H19689   9.387  10.966   4.452  0.7862  1.9750 -1.2647
  146MOL0     H19690   9.175  11.512   4.045 -0.1254  2.2281  0.2428
  146MOL0     H19691   9.149  11.561   3.795  0.7582 -1.1045  1.0282
  146MOL0     H19692   9.014  11.720   3.444  0.2209  0.5199  0.4446
  146MOL0     H19693   8.955  11.824   3.221 -1.3294  3.4397  2.5109
  146MOL0     H19694   8.740  11.516   1.805 -0.7388  0.3574  0.1162
  146MOL0     H19695   8.501  11.453   1.762 -1.6283  1.4454  0.2062
  146MOL0     H19696   8.191  11.660   1.417 -1.1990  0.1677 -1.7126
  146MOL0     H19697   7.999  11.747   1.356  0.0866  1.0476  1.4811
  146MOL0     H19698   7.784  11.809   1.329 -1.7779  0.5030  0.7696
  146MOL0     H19699   7.619  11.751   1.319  0.2139  1.1806  1.1852
  146MOL0     H19700   7.698  11.582   1.139  0.9493 -1.2660  2.9389
  146MOL0     H19701   7.870  11.637   1.162 -0.7036 -3.5086 -2.2539
  146MOL0     H19702   7.839  11.847   1.076 -1.4798  0.8829  4.6263
  146MOL0     H19703   7.669  11.850   1.060 -1.4055 -2.4527  1.1409
  146MOL0     H19704   7.860  11.683   0.909 -0.0363  1.0946 -1.5949
  146MOL0     H19705   7.704  11.619   0.921  2.4027 -1.3414 -1.9094
  146MOL0     H19706   7.690  11.896   0.604  3.0399 -3.6499 -2.1743
  146MOL0     H19707   7.791  11.429   1.554  0.2895  0.8249  1.4117
  146MOL0     H19708   7.918  11.261   1.670 -0.7089  0.2530 -0.4755
  146MOL0     H19709   8.091  11.245   1.630  0.7608  0.3466  1.3351
  146MOL0     H19710   8.043  11.343   1.768  2.8138  0.9111 -1.2548
  147MOL0     O19711   2.515   3.220   9.817 -0.1773 -0.2898  0.6939
  147MOL0     C19712   2.580   3.292   9.745 -0.1799  1.1399  0.3637
  147MOL0     O19713   2.704   3.264   9.695  0.5962 -1.1424 -0.5816
  147MOL0     C19714   2.762   3.144   9.730 -0.2012  0.0953  0.8632
  147MOL0     C19715   2.791   3.104   9.863  1.2608  0.5915  0.3117
  147MOL0     C19716   2.864   2.989   9.896  0.4286 -0.1070  0.1374
  147MOL0     C19717   2.931   2.925   9.789 -0.3466 -0.6997 -0.7177
  147MOL0     O19718   3.031   2.832   9.816  0.1200 -0.2063  0.7072
  147MOL0     C19719   2.990   2.695   9.818 -0.8178 -0.1840 -0.5607
  147MOL0     C19720   2.999   2.637   9.677  0.8605  0.6340 -0.7681
  147MOL0     C19721   3.126   2.659   9.601 -0.3850 -0.3122 -0.3792
  147MOL0     C19722   3.135   2.554   9.492  0.4080 -0.7623  0.3379
  147MOL0     C19723   3.202   2.434   9.552 -0.9685  0.4711 -0.4145
  147MOL0     C19724   3.196   2.312   9.455  0.8106  0.3995 -0.8623
  147MOL0     C19725   3.312   2.319   9.344 -0.8446 -0.1226 -0.0144
  147MOL0     C19726   3.306   2.188   9.263 -1.2353  0.1236  0.3078
  147MOL0     N19727   3.431   2.187   9.185 -0.1216  0.1628 -0.2416
  147MOL0     C19728   3.440   2.236   9.053 -0.3316 -1.0630 -0.4687
  147MOL0     C19729   3.571   2.211   9.021  0.7383  0.1776 -0.2509
  147MOL0     C19730   3.646   2.276   8.904  0.7034  0.2017  0.0413
  147MOL0     C19731   3.625   2.197   8.771  0.6470  0.0182  0.2495
  147MOL0     C19732   3.515   2.261   8.686 -0.0068  0.2968  0.4112
  147MOL0     C19733   3.566   2.385   8.601  0.3705  0.4073 -0.5073
  147MOL0     O19734   3.684   2.335   8.529  0.3525 -0.3594  0.3440
  147MOL0     C19735   3.776   2.418   8.482 -0.0596 -0.2471 -0.7862
  147MOL0     C19736   3.736   2.540   8.440 -0.4141  0.7575  0.5536
  147MOL0     C19737   3.817   2.626   8.364  0.1798  0.3329 -0.1847
  147MOL0     C19738   3.952   2.591   8.356  0.0521  0.0860  0.3554
  147MOL0     C19739   4.044   2.692   8.316  0.3289 -0.0220  0.5739
  147MOL0     O19740   4.155   2.698   8.386  0.0642  0.1284 -0.0400
  147MOL0     C19741   4.223   2.813   8.369  0.4645 -0.7976  0.6260
  147MOL0     C19742   4.265   2.860   8.243 -0.4703 -0.3010  0.2488
  147MOL0     C19743   4.326   2.993   8.237 -1.1105  0.1458 -1.1854
  147MOL0     C19744   4.335   3.071   8.353  0.0798 -0.0754 -0.6136
  147MOL0     O19745   4.377   3.204   8.367 -0.3534 -0.3378  0.1328
  147MOL0     C19746   4.451   3.254   8.251 -0.1395  0.7557 -0.3276
  147MOL0     C19747   4.492   3.401   8.280 -0.6441  0.0073  0.1593
  147MOL0     C19748   4.624   3.437   8.223 -0.3556  0.0003  0.4721
  147MOL0     C19749   4.658   3.588   8.240 -0.9900  0.0959  0.0293
  147MOL0     C19750   4.764   3.636   8.151  1.8031  0.1436 -1.6577
  147MOL0     C19751   4.890   3.558   8.139 -0.0140  0.5784 -0.2119
  147MOL0     C19752   4.986   3.619   8.037  0.5315 -0.4528  0.2371
  147MOL0     C19753   5.089   3.524   7.996 -0.1347  0.5614 -0.1527
  147MOL0    Cl19754   5.179   3.479   8.142 -0.0244 -0.3886 -0.2054
  147MOL0     C19755   4.282   3.023   8.475 -0.2753  0.4583  0.4720
  147MOL0     C19756   4.225   2.896   8.482  0.1021  0.0845 -0.4207
  147MOL0     O19757   4.012   2.765   8.220  0.7715  0.4343  0.2273
  147MOL0     C19758   3.995   2.467   8.402 -0.1197  0.3885  1.1484
  147MOL0     C19759   3.909   2.379   8.471 -0.0664  0.6901  0.3507
  147MOL0     N19760   3.622   2.133   9.120 -0.9665  0.0252 -0.1944
  147MOL0     N19761   3.547   2.127   9.221  0.9932 -0.0395 -0.6343
  147MOL0     C19762   2.914   2.961   9.659 -0.0865  0.5976 -0.8141
  147MOL0     C19763   2.833   3.072   9.635  0.7276  0.2361  0.8892
  147MOL0     C19764   2.510   3.412   9.688 -0.9068  0.1513 -0.2103
  147MOL0     C19765   2.549   3.472   9.568  0.6894  0.5549  0.7119
  147MOL0     C19766   2.495   3.589   9.517  0.3463  0.1456  0.4890
  147MOL0     C19767   2.386   3.647   9.593 -0.3909  0.2235  0.5947
  147MOL0     O19768   2.323   3.764   9.544  0.3947 -0.3725  0.0472
  147MOL0     C19769   2.366   3.820   9.415 -0.5197 -0.4147  0.0933
  147MOL0     C19770   2.507   3.890   9.429  0.1494 -1.1333 -0.3360
  147MOL0     C19771   2.477   4.038   9.412 -0.3691 -0.1957  0.5597
  147MOL0     C19772   2.606   4.124   9.425 -0.1999  0.8442  0.0874
  147MOL0     C19773   2.707   4.081   9.329 -0.4582 -0.1934 -0.6602
  147MOL0     C19774   2.779   4.076   9.233 -0.2706  0.0138 -0.5557
  147MOL0     C19775   2.355   3.592   9.715  0.1967 -0.6510  0.2306
  147MOL0     C19776   2.419   3.480   9.763 -0.5704 -0.3728 -0.1272
  147MOL0     C19777   2.384   3.453   9.916  0.2236 -0.4754  0.0718
  147MOL0     H19778   2.738   3.162   9.938  0.0142 -0.1931  0.0609
  147MOL0     H19779   2.887   2.962   9.999 -1.1129  1.8161  1.0615
  147MOL0     H19780   3.058   2.637   9.882 -1.2163  3.1011  3.3052
  147MOL0     H19781   2.898   2.679   9.876  0.5417 -2.6980  1.0893
  147MOL0     H19782   2.913   2.671   9.618  0.9508  2.5671  0.1415
  147MOL0     H19783   2.982   2.531   9.698  3.7541  0.6959  2.9057
  147MOL0     H19784   3.215   2.654   9.664  1.4863 -0.6774 -2.9250
  147MOL0     H19785   3.132   2.757   9.554  3.8420 -0.4723 -0.5511
  147MOL0     H19786   3.031   2.525   9.475 -0.5991 -0.2623  4.4615
  147MOL0     H19787   3.172   2.591   9.396  0.8801 -4.0011 -0.8417
  147MOL0     H19788   3.309   2.460   9.560 -0.8257  0.2280 -1.3263
  147MOL0     H19789   3.171   2.403   9.651 -3.7852  0.2941 -1.2778
  147MOL0     H19790   3.208   2.219   9.511  0.7159 -0.2518 -1.8887
  147MOL0     H19791   3.097   2.303   9.409  1.8786 -2.4619 -2.8947
  147MOL0     H19792   3.408   2.326   9.397 -0.9615 -1.6801  0.4367
  147MOL0     H19793   3.306   2.406   9.278  0.5555 -0.7657 -1.0277
  147MOL0     H19794   3.298   2.097   9.322 -0.6225 -0.2970 -0.2411
  147MOL0     H19795   3.221   2.189   9.193  1.9178  0.5375 -3.9332
  147MOL0     H19796   3.369   2.297   8.999  2.6539  0.6133 -2.8354
  147MOL0     H19797   3.596   2.372   8.889 -2.9910 -1.6227 -0.4047
  147MOL0     H19798   3.752   2.298   8.919  0.4934  1.0362  0.3372
  147MOL0     H19799   3.723   2.184   8.726  0.9164 -1.0848  1.1142
  147MOL0     H19800   3.601   2.092   8.789  3.0517 -0.1344  3.3504
  147MOL0     H19801   3.440   2.288   8.761  3.5784  4.4292  3.0130
  147MOL0     H19802   3.476   2.185   8.617  1.3980 -1.5052  1.5144
  147MOL0     H19803   3.579   2.453   8.685 -3.3294 -0.8352  1.3163
  147MOL0     H19804   3.491   2.422   8.530  0.0725  1.4662  0.3260
  147MOL0     H19805   3.636   2.577   8.458 -0.0228  2.3583 -0.3145
  147MOL0     H19806   3.782   2.728   8.348 -1.7722 -0.5384 -2.0219
  147MOL0     H19807   4.264   2.792   8.158 -1.0244 -2.6590  2.0426
  147MOL0     H19808   4.365   3.016   8.138  2.8059 -0.8790 -0.0308
  147MOL0     H19809   4.540   3.194   8.226 -0.2614  1.4058 -2.5453
  147MOL0     H19810   4.391   3.244   8.160 -0.3015 -0.9089 -0.0633
  147MOL0     H19811   4.409   3.461   8.243 -1.4156 -0.7612  0.6022
  147MOL0     H19812   4.498   3.424   8.387 -2.4987 -1.3658  0.6043
  147MOL0     H19813   4.693   3.381   8.288 -1.0519 -0.4531  0.8413
  147MOL0     H19814   4.625   3.413   8.117  0.0259  0.3454  0.3990
  147MOL0     H19815   4.693   3.607   8.342 -1.2955  1.6084 -0.1284
  147MOL0     H19816   4.573   3.651   8.213 -1.4519  1.7452  4.4319
  147MOL0     H19817   4.786   3.736   8.190 -1.0016  1.3283 -2.7924
  147MOL0     H19818   4.722   3.643   8.050 -1.2154 -2.9533 -0.8159
  147MOL0     H19819   4.942   3.541   8.234 -2.8730  0.5484  1.4570
  147MOL0     H19820   4.868   3.458   8.101  2.7795  0.7173 -2.5444
  147MOL0     H19821   5.033   3.706   8.084  0.9730  0.3867 -1.6684
  147MOL0     H19822   4.930   3.647   7.947  1.4217 -2.0875 -0.8858
  147MOL0     H19823   5.055   3.439   7.935  3.0368  0.5159 -2.0865
  147MOL0     H19824   5.164   3.564   7.927  0.6033  3.2163  2.0568
  147MOL0     H19825   4.283   3.081   8.567 -1.6356 -0.1629  0.9141
  147MOL0     H19826   4.192   2.864   8.581  0.2106  2.0022  0.2649
  147MOL0     H19827   4.100   2.445   8.390  0.0320  2.1260 -1.7746
  147MOL0     H19828   3.938   2.286   8.518  2.6304  1.1202 -0.2865
  147MOL0     H19829   2.975   2.910   9.585  0.0174  0.3736 -0.5761
  147MOL0     H19830   2.814   3.083   9.529  0.9152 -0.9959  0.7078
  147MOL0     H19831   2.631   3.438   9.505  0.0638  0.4246 -0.0455
  147MOL0     H19832   2.536   3.639   9.429 -2.2880  0.0034 -0.9138
  147MOL0     H19833   2.288   3.887   9.379 -0.7902 -0.5395  0.4410
  147MOL0     H19834   2.380   3.738   9.344  0.0697  0.7677 -1.1929
  147MOL0     H19835   2.574   3.852   9.351 -0.0664 -0.8490 -0.6659
  147MOL0     H19836   2.558   3.876   9.524 -0.1456  0.2897  0.0559
  147MOL0     H19837   2.396   4.076   9.475 -0.3500 -1.0299  1.1099
  147MOL0     H19838   2.450   4.044   9.307  0.6646 -3.9584 -0.0505
  147MOL0     H19839   2.578   4.229   9.420 -1.5011  0.4546 -1.4527
  147MOL0     H19840   2.652   4.113   9.524 -0.9762 -2.3521  0.2193
  147MOL0     H19841   2.851   4.059   9.155  0.2540  0.9447 -0.2963
  147MOL0     H19842   2.274   3.633   9.774  0.6411 -2.3582  2.1771
  147MOL0     H19843   2.350   3.350   9.931  4.4133 -1.9760  0.4276
  147MOL0     H19844   2.470   3.472   9.981  1.6741  2.0757 -2.4020
  147MOL0     H19845   2.308   3.520   9.958 -2.1712 -3.2318  0.5330
  148MOL0     O19846   4.697   4.999   5.000 -0.5703  0.0732  0.4395
  148MOL0     C19847   4.689   4.892   4.940 -0.8314 -0.1705  0.0675
  148MOL0     O19848   4.614   4.873   4.817  0.2595  0.1085  1.0132
  148MOL0     C19849   4.519   4.965   4.800 -0.2015  0.0983  0.5712
  148MOL0     C19850   4.552   5.096   4.764 -0.3872  0.1191  0.2440
  148MOL0     C19851   4.454   5.184   4.730  0.2269 -0.5552  0.2811
  148MOL0     C19852   4.317   5.148   4.732  0.2034  0.8927 -0.7324
  148MOL0     O19853   4.225   5.241   4.677  0.8698  0.2752 -0.5349
  148MOL0     C19854   4.127   5.284   4.768 -0.0196  0.0845  0.2466
  148MOL0     C19855   4.165   5.428   4.801 -0.3458 -0.2828 -1.3803
  148MOL0     C19856   4.047   5.506   4.846 -0.0607 -0.8399 -0.1260
  148MOL0     C19857   4.069   5.654   4.875  0.8377  0.2535 -0.3011
  148MOL0     C19858   3.941   5.728   4.897 -0.5308 -0.0472  0.2582
  148MOL0     C19859   3.880   5.685   5.033  0.8224 -0.6479 -0.0120
  148MOL0     C19860   3.757   5.596   5.004  0.0059  0.5122 -0.0952
  148MOL0     C19861   3.727   5.521   5.144 -0.3273  0.4258 -0.1493
  148MOL0     N19862   3.592   5.473   5.162  0.2911 -0.2997 -0.2922
  148MOL0     C19863   3.522   5.404   5.069 -0.2968 -1.0330 -0.0218
  148MOL0     C19864   3.393   5.396   5.113 -0.2570  0.3066  0.0265
  148MOL0     C19865   3.268   5.348   5.045  0.6794 -0.2370  0.5289
  148MOL0     C19866   3.190   5.466   4.979 -0.7527 -0.6477 -0.2613
  148MOL0     C19867   3.291   5.537   4.873  0.0086 -0.4039 -0.2887
  148MOL0     C19868   3.203   5.625   4.780 -0.4998 -0.0089  0.8121
  148MOL0     O19869   3.247   5.640   4.646  0.0676  0.4388  0.2860
  148MOL0     C19870   3.367   5.716   4.642  0.1320 -0.2062 -0.2197
  148MOL0     C19871   3.493   5.654   4.642 -0.6128 -0.2996 -0.0445
  148MOL0     C19872   3.615   5.731   4.633  0.3684  1.0892  0.6497
  148MOL0     C19873   3.613   5.873   4.629  0.3173  0.9174  0.2552
  148MOL0     C19874   3.734   5.954   4.602  0.1026  0.6408 -0.4892
  148MOL0     O19875   3.726   6.076   4.663 -0.7426  0.2000  0.3320
  148MOL0     C19876   3.844   6.150   4.692  0.5434  1.1691  0.7273
  148MOL0     C19877   3.813   6.276   4.749 -0.2403 -0.5648 -0.4143
  148MOL0     C19878   3.922   6.362   4.792  0.2481 -0.1438  0.2072
  148MOL0     C19879   4.045   6.309   4.794  0.5567 -0.4128  0.0692
  148MOL0     O19880   4.131   6.407   4.846  0.3380 -0.0299 -0.0358
  148MOL0     C19881   4.264   6.358   4.877  0.4158  0.7629 -0.4028
  148MOL0     C19882   4.339   6.471   4.937 -0.1793  0.7713 -0.6548
  148MOL0     C19883   4.491   6.456   4.890  0.0550  0.5777 -0.6991
  148MOL0     C19884   4.576   6.488   5.023  0.7720  0.0474  1.1104
  148MOL0     C19885   4.722   6.524   4.982  0.1381  0.0167 -0.1339
  148MOL0     C19886   4.797   6.567   5.103 -0.5913  0.4926  0.1440
  148MOL0     C19887   4.944   6.618   5.073  1.0710  0.3497 -0.3179
  148MOL0     C19888   5.037   6.500   5.032 -0.3985 -0.4534  0.1795
  148MOL0    Cl19889   5.174   6.579   4.972  0.0195 -0.6710  0.0678
  148MOL0     C19890   4.071   6.179   4.745  0.1462 -0.1299  0.1950
  148MOL0     C19891   3.979   6.102   4.685 -0.2375  0.6853 -0.5848
  148MOL0     O19892   3.829   5.909   4.536 -0.4138 -0.3108  0.1258
  148MOL0     C19893   3.485   5.932   4.628  0.5268  0.1647 -0.9539
  148MOL0     C19894   3.364   5.859   4.637  0.2209  1.2359 -0.2343
  148MOL0     N19895   3.398   5.439   5.238  0.2991 -0.1088 -0.2849
  148MOL0     N19896   3.515   5.481   5.275  0.1615  0.9176 -0.1300
  148MOL0     C19897   4.286   5.020   4.776 -0.6220 -0.1355  0.1042
  148MOL0     C19898   4.389   4.922   4.795 -0.6259 -0.2253  0.4162
  148MOL0     C19899   4.780   4.780   4.978  0.4213 -0.1006  0.4710
  148MOL0     C19900   4.752   4.658   4.915 -1.3130 -0.5073  0.0366
  148MOL0     C19901   4.825   4.551   4.944  0.4234  0.2195  1.2550
  148MOL0     C19902   4.931   4.548   5.040  0.4071 -0.3196  0.1187
  148MOL0     O19903   4.995   4.430   5.055 -0.4560  0.1406 -0.5503
  148MOL0     C19904   5.105   4.425   5.146 -0.1556 -0.4438  0.8067
  148MOL0     C19905   5.098   4.285   5.202  0.0115 -0.4134  0.1485
  148MOL0     C19906   5.232   4.249   5.268 -0.8372 -0.6520 -0.3234
  148MOL0     C19907   5.289   4.109   5.221  0.0263  0.9496  1.2978
  148MOL0     C19908   5.329   4.113   5.074  0.1417  0.2743 -0.2833
  148MOL0     C19909   5.360   4.122   4.955  0.0563 -0.1906 -0.3610
  148MOL0     C19910   4.959   4.675   5.108  0.5395 -0.0425 -0.5820
  148MOL0     C19911   4.884   4.790   5.081  0.1555 -0.7617  0.4208
  148MOL0     C19912   4.926   4.918   5.156 -0.5303 -0.2000  0.7011
  148MOL0     H19913   4.653   5.130   4.745 -0.3425 -0.5361 -0.7774
  148MOL0     H19914   4.475   5.287   4.706 -1.6864 -0.8287 -3.3026
  148MOL0     H19915   4.029   5.267   4.722 -0.1322 -0.9766  0.8424
  148MOL0     H19916   4.128   5.219   4.856 -0.0433  1.0554  0.9849
  148MOL0     H19917   4.213   5.481   4.717  0.0855 -0.5547 -1.3063
  148MOL0     H19918   4.242   5.425   4.878 -1.7943 -1.7038  0.0827
  148MOL0     H19919   3.989   5.466   4.930 -1.9334  1.6303 -0.1038
  148MOL0     H19920   3.977   5.506   4.762  0.8525  0.2082 -0.9122
  148MOL0     H19921   4.131   5.656   4.965  1.0172  1.1286 -0.4307
  148MOL0     H19922   4.115   5.701   4.788  0.8542  2.9947  1.0893
  148MOL0     H19923   3.964   5.834   4.910  0.6025 -0.4620  1.8637
  148MOL0     H19924   3.872   5.721   4.812  0.8003 -1.3136 -0.7814
  148MOL0     H19925   3.955   5.630   5.092  0.4741 -2.1340 -0.9084
  148MOL0     H19926   3.859   5.775   5.091  1.6075 -0.2918 -0.2561
  148MOL0     H19927   3.793   5.526   4.928 -3.2076  0.6172 -1.8682
  148MOL0     H19928   3.668   5.643   4.963 -0.0086  0.7551  0.2124
  148MOL0     H19929   3.796   5.439   5.165 -2.2120 -0.6585  2.4250
  148MOL0     H19930   3.754   5.580   5.232  1.6526 -2.0463  1.0472
  148MOL0     H19931   3.559   5.357   4.978  1.2833 -2.5382  1.3212
  148MOL0     H19932   3.295   5.267   4.978  1.3843 -0.6833  1.3347
  148MOL0     H19933   3.200   5.308   5.121  0.0707 -0.2157  0.0018
  148MOL0     H19934   3.108   5.415   4.928 -1.2094  0.2733 -0.4672
  148MOL0     H19935   3.142   5.539   5.045 -0.2569  0.5246 -1.1625
  148MOL0     H19936   3.331   5.460   4.806 -1.0183 -1.0445 -0.1890
  148MOL0     H19937   3.370   5.594   4.922  2.1848 -4.0948  0.9275
  148MOL0     H19938   3.195   5.722   4.830  0.7449 -0.9596  3.0191
  148MOL0     H19939   3.105   5.578   4.773 -0.6354  0.2220  1.1388
  148MOL0     H19940   3.506   5.549   4.667  2.5222  0.2840  1.2291
  148MOL0     H19941   3.717   5.692   4.629 -0.7105 -2.2943  2.3942
  148MOL0     H19942   3.708   6.293   4.775 -0.2273 -3.7598  2.5672
  148MOL0     H19943   3.915   6.455   4.847  0.3604  0.0311 -0.0706
  148MOL0     H19944   4.272   6.273   4.945  2.2672  0.9346 -0.3680
  148MOL0     H19945   4.315   6.329   4.785  1.0106  2.8757 -0.7980
  148MOL0     H19946   4.300   6.564   4.897  4.2249  3.4386  0.5830
  148MOL0     H19947   4.328   6.472   5.046  2.1847  3.1882 -0.3364
  148MOL0     H19948   4.517   6.352   4.865 -0.7592 -0.3965  2.1362
  148MOL0     H19949   4.506   6.520   4.802  1.1804  2.8808  1.0707
  148MOL0     H19950   4.565   6.409   5.097 -0.6291  0.3419  1.2465
  148MOL0     H19951   4.535   6.584   5.056 -0.1442  0.1461 -0.2379
  148MOL0     H19952   4.707   6.614   4.921  0.9423  0.9249  0.9483
  148MOL0     H19953   4.773   6.447   4.923 -0.9556  1.3698 -3.0377
  148MOL0     H19954   4.741   6.637   5.165 -3.2236 -3.4023  2.6967
  148MOL0     H19955   4.821   6.481   5.167 -0.0789  1.2957  1.0561
  148MOL0     H19956   4.976   6.671   5.163  1.3642  2.9179 -1.8372
  148MOL0     H19957   4.944   6.690   4.991  1.5841  1.3054  0.5016
  148MOL0     H19958   5.073   6.456   5.126 -2.2473 -1.2629  0.5528
  148MOL0     H19959   4.989   6.419   4.976 -1.7151  0.5071 -0.1361
  148MOL0     H19960   4.175   6.148   4.749  0.7283  1.5943 -0.6126
  148MOL0     H19961   4.014   6.006   4.650  3.1996  1.0634  1.3221
  148MOL0     H19962   3.483   6.038   4.606 -1.3611  0.5509  0.7966
  148MOL0     H19963   3.266   5.903   4.623  1.4981  3.8807 -1.5108
  148MOL0     H19964   4.184   4.981   4.774 -0.7557  0.2175 -0.0565
  148MOL0     H19965   4.355   4.823   4.825  4.5951 -1.6668  2.6952
  148MOL0     H19966   4.662   4.651   4.855 -3.1779 -0.9326  2.6910
  148MOL0     H19967   4.793   4.455   4.903  0.9877  1.7470 -3.3379
  148MOL0     H19968   5.095   4.490   5.233  1.4743  0.1634  0.5757
  148MOL0     H19969   5.197   4.459   5.098 -0.7875  0.2377  0.0513
  148MOL0     H19970   5.071   4.214   5.123  0.8061  2.5279 -2.9831
  148MOL0     H19971   5.014   4.274   5.271 -0.8637 -3.8141 -1.2616
  148MOL0     H19972   5.238   4.253   5.377  2.9644 -0.0574 -0.4324
  148MOL0     H19973   5.304   4.320   5.226 -2.3206 -1.7210 -5.3520
  148MOL0     H19974   5.380   4.076   5.272 -0.1688  1.1228  1.7634
  148MOL0     H19975   5.217   4.030   5.244  1.7898 -1.1981 -0.0609
  148MOL0     H19976   5.403   4.131   4.857  0.3518  0.4335 -0.1792
  148MOL0     H19977   5.039   4.681   5.181  1.3193  0.9716 -1.4749
  148MOL0     H19978   5.025   4.921   5.203 -0.5082 -1.6398  0.7836
  148MOL0     H19979   4.912   5.010   5.098 -1.9282 -1.3607 -0.9093
  148MOL0     H19980   4.863   4.924   5.245  1.1966 -0.6169  2.0129
  149MOL0     O19981   5.183   7.445   3.961 -0.0827  0.1859 -0.7777
  149MOL0     C19982   5.191   7.352   4.047  0.4791 -0.2310  0.5703
  149MOL0     O19983   5.308   7.305   4.091 -0.4558  0.1316 -0.3494
  149MOL0     C19984   5.428   7.349   4.049 -0.7422  0.8052  0.4344
  149MOL0     C19985   5.465   7.378   3.911 -0.7225  0.5364 -0.6056
  149MOL0     C19986   5.601   7.402   3.883 -0.5683 -0.6209  0.3987
  149MOL0     C19987   5.698   7.408   3.986  0.0047 -0.1464 -0.4130
  149MOL0     O19988   5.829   7.448   3.975 -0.3590  0.1404  0.5744
  149MOL0     C19989   5.888   7.502   3.855  0.2780 -0.0516 -0.1821
  149MOL0     C19990   6.029   7.562   3.877  0.0422  0.1675  0.6294
  149MOL0     C19991   6.056   7.633   4.000  0.0564 -0.8799 -0.6646
  149MOL0     C19992   6.199   7.687   3.992  0.4926 -0.4525  0.2861
  149MOL0     C19993   6.247   7.743   4.130  0.6505  0.2858  1.0859
  149MOL0     C19994   6.206   7.891   4.141  0.7265 -0.5862  1.3010
  149MOL0     C19995   6.307   7.978   4.076 -0.5764  0.7096  0.4407
  149MOL0     C19996   6.271   8.126   4.099 -0.1450 -0.9933  1.3212
  149MOL0     N19997   6.156   8.173   4.026  0.2822 -0.4402  0.4186
  149MOL0     C19998   6.126   8.140   3.896  0.7062  0.1694  0.4949
  149MOL0     C19999   6.008   8.196   3.873  0.9436  0.4730 -0.4829
  149MOL0     C20000   5.924   8.175   3.761  0.8846  0.1652  0.0903
  149MOL0     C20001   5.827   8.059   3.798  0.0199  0.5314  0.1788
  149MOL0     C20002   5.709   8.031   3.707  0.6240  0.1848  0.1315
  149MOL0     C20003   5.616   7.916   3.742 -0.4490  0.5802  0.0760
  149MOL0     O20004   5.684   7.793   3.709  0.5330 -0.2133  0.3369
  149MOL0     C20005   5.596   7.694   3.658 -0.5273 -0.1870  0.0283
  149MOL0     C20006   5.477   7.656   3.709  0.4759  0.2274  0.7141
  149MOL0     C20007   5.397   7.552   3.647  0.5507  0.0926  0.1950
  149MOL0     C20008   5.447   7.481   3.533 -0.1812 -0.5704 -0.4863
  149MOL0     C20009   5.373   7.376   3.459 -0.0880  0.2429 -0.1898
  149MOL0     O20010   5.414   7.331   3.338 -1.0863 -0.4311  0.1500
  149MOL0     C20011   5.324   7.262   3.259 -0.1765  0.9134  0.2022
  149MOL0     C20012   5.193   7.299   3.237 -0.7256  0.1921  0.6501
  149MOL0     C20013   5.114   7.230   3.150 -0.3443 -0.1104  0.5012
  149MOL0     C20014   5.159   7.122   3.076 -0.7665  0.6178  1.0798
  149MOL0     O20015   5.075   7.049   2.987 -0.3100 -0.2126 -0.5168
  149MOL0     C20016   4.988   7.124   2.896  0.0390  0.2106 -0.8933
  149MOL0     C20017   4.931   7.038   2.785  0.7124  0.6600 -0.5940
  149MOL0     C20018   4.839   6.924   2.841  0.4949 -0.1751 -0.0305
  149MOL0     C20019   4.710   6.971   2.912 -0.4883  0.4807  0.0396
  149MOL0     C20020   4.612   6.842   2.914 -0.6934  0.6312  0.1007
  149MOL0     C20021   4.659   6.751   3.024  0.1827  0.0027 -0.8479
  149MOL0     C20022   4.557   6.648   3.079 -0.1459  0.0323 -0.3156
  149MOL0     C20023   4.505   6.552   2.973 -0.0680  1.4393  0.7855
  149MOL0    Cl20024   4.638   6.442   2.925  0.1405 -0.4168  0.0852
  149MOL0     C20025   5.292   7.080   3.099  0.6281  0.0482  0.2531
  149MOL0     C20026   5.377   7.148   3.195  0.1870 -0.5948  0.7684
  149MOL0     O20027   5.286   7.324   3.528  0.9577 -0.1375  0.0725
  149MOL0     C20028   5.567   7.521   3.485 -0.6393 -0.3925  0.5154
  149MOL0     C20029   5.638   7.626   3.540  0.1272  0.0015  0.2740
  149MOL0     N20030   5.972   8.264   3.992  0.0202 -0.2111  0.2569
  149MOL0     N20031   6.057   8.242   4.083 -0.4660  0.7309 -0.2260
  149MOL0     C20032   5.659   7.357   4.116  0.6907  0.4915 -0.0129
  149MOL0     C20033   5.521   7.335   4.147  0.1463  0.8421 -0.9098
  149MOL0     C20034   5.057   7.295   4.093  0.3074  0.5022 -0.0015
  149MOL0     C20035   5.073   7.201   4.200  1.1076  0.5717  0.6199
  149MOL0     C20036   4.961   7.137   4.257  0.2569 -0.2150  1.0242
  149MOL0     C20037   4.834   7.157   4.198 -0.3222 -0.1533  0.3353
  149MOL0     O20038   4.724   7.092   4.233 -0.8091  0.4233 -0.6484
  149MOL0     C20039   4.730   6.968   4.316  0.1189 -0.8255 -0.6836
  149MOL0     C20040   4.711   7.003   4.466 -0.0452 -0.2952 -0.4704
  149MOL0     C20041   4.587   7.083   4.503  1.2639  0.0485  0.2154
  149MOL0     C20042   4.609   7.232   4.521  0.3642  0.3691 -0.2551
  149MOL0     C20043   4.710   7.268   4.627  0.4302  0.4491 -0.1500
  149MOL0     C20044   4.775   7.297   4.727 -0.7383  0.0148  0.5470
  149MOL0     C20045   4.816   7.246   4.090 -0.0204  0.6614 -0.3485
  149MOL0     C20046   4.919   7.329   4.045 -0.0588  0.9385  0.0970
  149MOL0     C20047   4.893   7.414   3.917 -0.2721 -0.4123  0.4174
  149MOL0     H20048   5.389   7.384   3.833 -0.8247  1.1522 -0.4569
  149MOL0     H20049   5.638   7.413   3.781 -1.3456 -1.6423 -0.0046
  149MOL0     H20050   5.893   7.420   3.782  1.3462  0.2356 -0.4387
  149MOL0     H20051   5.827   7.581   3.811  1.3480  1.8425  1.5938
  149MOL0     H20052   6.037   7.637   3.799 -0.5123  0.7318  1.1032
  149MOL0     H20053   6.111   7.492   3.859 -2.0237 -3.0956  2.7790
  149MOL0     H20054   6.032   7.578   4.092 -2.1075 -0.7062 -1.0729
  149MOL0     H20055   5.985   7.716   4.001  0.0824 -0.8109 -2.5228
  149MOL0     H20056   6.262   7.602   3.963 -0.6971 -0.2741 -3.2466
  149MOL0     H20057   6.198   7.767   3.917  0.6365  1.1550  1.9358
  149MOL0     H20058   6.199   7.683   4.207  2.1413  0.1215  1.9414
  149MOL0     H20059   6.354   7.739   4.154  0.8231  2.9561  1.0021
  149MOL0     H20060   6.114   7.901   4.082  2.0190  1.8862 -0.5285
  149MOL0     H20061   6.191   7.915   4.246 -1.0225 -0.1781  1.0014
  149MOL0     H20062   6.312   7.947   3.971  1.9509 -1.3688  1.0614
  149MOL0     H20063   6.402   7.959   4.126  0.8749  0.1570 -2.3023
  149MOL0     H20064   6.279   8.150   4.206  0.8428 -0.3925  1.1309
  149MOL0     H20065   6.358   8.182   4.063  1.1818 -0.9188  4.3238
  149MOL0     H20066   6.185   8.082   3.826 -0.4358 -2.1877  1.3685
  149MOL0     H20067   5.864   8.265   3.747 -1.1765 -1.0249  0.6905
  149MOL0     H20068   5.978   8.158   3.667  0.1989  0.1032 -0.3022
  149MOL0     H20069   5.885   7.968   3.813 -0.9537 -0.2141 -0.4493
  149MOL0     H20070   5.787   8.078   3.898 -0.1891  0.8050  0.0463
  149MOL0     H20071   5.749   7.999   3.611  1.6220 -0.6954  0.8147
  149MOL0     H20072   5.654   8.126   3.710  0.1437 -0.1110  1.3156
  149MOL0     H20073   5.536   7.937   3.670  1.0833 -1.5208 -2.3694
  149MOL0     H20074   5.572   7.920   3.843 -0.1203  0.2301  0.2353
  149MOL0     H20075   5.442   7.713   3.795  0.6470 -0.5376  1.2973
  149MOL0     H20076   5.300   7.532   3.690 -0.0354  2.8478  0.2997
  149MOL0     H20077   5.153   7.388   3.283  0.9748  2.0808 -1.2954
  149MOL0     H20078   5.013   7.266   3.139 -0.3747  0.3041  1.9150
  149MOL0     H20079   4.911   7.179   2.952  0.5688  1.5862 -1.4728
  149MOL0     H20080   5.055   7.201   2.856 -1.2626  2.3445  0.7720
  149MOL0     H20081   4.886   7.106   2.712 -1.7345 -0.5812 -0.3428
  149MOL0     H20082   5.010   6.977   2.739  0.3822 -0.4756  0.3045
  149MOL0     H20083   4.800   6.869   2.755 -2.1878  4.7456 -2.3905
  149MOL0     H20084   4.893   6.859   2.909 -0.4976  0.5253  1.4805
  149MOL0     H20085   4.665   7.045   2.846 -3.8275 -1.6442 -0.3287
  149MOL0     H20086   4.719   7.015   3.012 -1.0824  0.1371  0.2519
  149MOL0     H20087   4.598   6.793   2.817 -1.6094  3.2386 -1.2044
  149MOL0     H20088   4.513   6.879   2.940 -0.6152  0.7816  0.1887
  149MOL0     H20089   4.745   6.696   2.985  0.6396  1.5098 -2.1053
  149MOL0     H20090   4.699   6.805   3.110  0.8618 -1.0292 -0.5024
  149MOL0     H20091   4.486   6.718   3.125  4.4402  5.1598  0.0156
  149MOL0     H20092   4.613   6.593   3.154 -0.6168  0.4098  0.3207
  149MOL0     H20093   4.425   6.487   3.010  2.6030 -2.2196  0.7778
  149MOL0     H20094   4.471   6.601   2.881 -0.2888  1.9686  1.1512
  149MOL0     H20095   5.316   6.988   3.048 -1.3910  1.3368 -3.4459
  149MOL0     H20096   5.476   7.109   3.213 -0.0057 -1.7033 -0.4575
  149MOL0     H20097   5.605   7.485   3.391  0.8378  3.2522 -0.4527
  149MOL0     H20098   5.725   7.674   3.496  2.6799 -1.3614  3.3845
  149MOL0     H20099   5.726   7.341   4.200 -0.5514  1.1793  1.1318
  149MOL0     H20100   5.491   7.308   4.248 -0.8428 -3.5381 -2.1686
  149MOL0     H20101   5.165   7.176   4.252  0.7699  0.3379  1.1094
  149MOL0     H20102   4.984   7.081   4.347 -0.7419  0.4367  1.7025
  149MOL0     H20103   4.819   6.905   4.311  1.2729  0.8121 -1.7823
  149MOL0     H20104   4.644   6.907   4.285 -1.0527 -1.2654  3.0044
  149MOL0     H20105   4.794   7.065   4.501  1.4262 -2.1017 -0.6325
  149MOL0     H20106   4.719   6.914   4.528 -2.2977 -0.6763 -0.6497
  149MOL0     H20107   4.549   7.041   4.597  0.7048 -4.3705 -1.7323
  149MOL0     H20108   4.508   7.069   4.428  2.3067  0.8430 -1.0662
  149MOL0     H20109   4.642   7.292   4.436 -1.0329  1.4140 -0.1114
  149MOL0     H20110   4.515   7.283   4.544  1.1056  0.2522  3.7599
  149MOL0     H20111   4.820   7.342   4.814  1.7842  0.8923 -1.0917
  149MOL0     H20112   4.722   7.256   4.037 -0.4343 -0.8615  0.0568
  149MOL0     H20113   4.954   7.369   3.838  0.3214 -1.0419  1.2171
  149MOL0     H20114   4.788   7.410   3.889  0.4643 -2.8502 -2.4145
  149MOL0     H20115   4.916   7.519   3.942  1.8748 -1.7411  5.4052
  150MOL0     O20116   3.220   9.513   1.564 -1.0778  0.4461  0.0410
  150MOL0     C20117   3.118   9.476   1.513 -0.5527 -0.1977 -0.2299
  150MOL0     O20118   3.083   9.345   1.499 -0.0925  0.4854  0.4810
  150MOL0     C20119   3.162   9.246   1.542  0.3300  0.6461 -0.5861
  150MOL0     C20120   3.204   9.244   1.675  0.9790  0.0876 -0.4278
  150MOL0     C20121   3.278   9.131   1.721 -0.2756 -1.2085  0.3101
  150MOL0     C20122   3.311   9.016   1.644  1.0880  1.3029 -0.2098
  150MOL0     O20123   3.385   8.919   1.701  0.3207  0.5724  0.1054
  150MOL0     C20124   3.375   8.787   1.644  0.4756 -0.4488  0.1389
  150MOL0     C20125   3.240   8.720   1.668 -0.7523  0.4805 -0.0948
  150MOL0     C20126   3.220   8.661   1.812  0.2420  0.2890 -0.3343
  150MOL0     C20127   3.111   8.542   1.818 -0.0062 -0.2639 -1.1530
  150MOL0     C20128   3.074   8.475   1.954  0.6504 -0.6983  0.7437
  150MOL0     C20129   3.015   8.583   2.049  0.5662  0.4055 -0.8752
  150MOL0     C20130   3.023   8.521   2.197 -0.0100  0.5445  0.2114
  150MOL0     C20131   2.929   8.591   2.307 -0.4040  0.9593  1.3404
  150MOL0     N20132   2.786   8.584   2.268  0.3178 -0.2040  0.7170
  150MOL0     C20133   2.723   8.690   2.201  0.4983  0.3008 -0.2238
  150MOL0     C20134   2.617   8.642   2.146  0.4012  0.5139 -0.4735
  150MOL0     C20135   2.530   8.710   2.044 -0.6688  0.2384  0.3207
  150MOL0     C20136   2.609   8.756   1.914 -0.3963  0.5297 -0.5751
  150MOL0     C20137   2.667   8.636   1.824  0.6144  0.4209 -1.0116
  150MOL0     C20138   2.723   8.706   1.687 -0.5419  0.1949 -0.3996
  150MOL0     O20139   2.773   8.614   1.598 -0.7067 -0.0213 -0.6971
  150MOL0     C20140   2.867   8.643   1.508 -0.6306  0.1025 -0.5051
  150MOL0     C20141   2.911   8.773   1.485  0.2711  0.5016  0.5762
  150MOL0     C20142   2.999   8.803   1.383 -0.1112  0.7076  0.1047
  150MOL0     C20143   3.065   8.702   1.306  0.1403  0.6677  0.0058
  150MOL0     C20144   3.179   8.723   1.218  0.0600  0.1365  0.4565
  150MOL0     O20145   3.223   8.619   1.150 -0.1545  0.2378 -0.9501
  150MOL0     C20146   3.339   8.635   1.079  0.1270 -0.1137 -0.0298
  150MOL0     C20147   3.325   8.643   0.939  0.5525  0.8865 -0.2716
  150MOL0     C20148   3.437   8.670   0.862  0.1923  0.0415  0.1206
  150MOL0     C20149   3.567   8.678   0.915 -0.7203 -0.2188 -0.8883
  150MOL0     O20150   3.695   8.668   0.850  0.4570  0.1134  0.3135
  150MOL0     C20151   3.686   8.691   0.709 -0.0189 -0.4135  0.0902
  150MOL0     C20152   3.830   8.729   0.667 -0.1798  1.2017  0.7664
  150MOL0     C20153   3.828   8.738   0.517  0.4052  0.6813  0.4292
  150MOL0     C20154   3.954   8.807   0.475  0.0283 -0.0323  0.4719
  150MOL0     C20155   3.932   8.916   0.368  0.3007 -0.0386  0.1259
  150MOL0     C20156   3.843   9.036   0.417  0.2881  0.4527 -0.5800
  150MOL0     C20157   3.796   9.121   0.300  0.0446 -1.2126 -0.7411
  150MOL0     C20158   3.714   9.247   0.352  0.1545 -0.5117  0.2088
  150MOL0    Cl20159   3.663   9.361   0.215 -0.3136  0.2380  0.2336
  150MOL0     C20160   3.575   8.686   1.054  0.5273  0.0370  0.2083
  150MOL0     C20161   3.456   8.659   1.135 -0.5812 -0.4736 -0.4359
  150MOL0     O20162   3.224   8.837   1.217 -0.1003 -0.2457  0.2662
  150MOL0     C20163   3.009   8.576   1.325  0.2714  0.6556 -0.1142
  150MOL0     C20164   2.909   8.546   1.418  0.3624  0.7122 -0.0866
  150MOL0     N20165   2.619   8.501   2.171  0.6614  0.2223  1.0063
  150MOL0     N20166   2.705   8.474   2.255 -0.4288 -0.8217 -0.3408
  150MOL0     C20167   3.261   9.017   1.509  0.2307 -0.7686  0.8264
  150MOL0     C20168   3.193   9.134   1.463  0.6811 -0.3420 -0.3369
  150MOL0     C20169   3.025   9.580   1.455 -0.4954 -0.8408  0.6124
  150MOL0     C20170   3.062   9.716   1.463 -0.4102  0.3952 -0.3004
  150MOL0     C20171   2.983   9.821   1.413  0.4714 -0.5175  0.1499
  150MOL0     C20172   2.865   9.796   1.352 -0.0990 -0.1780  0.2987
  150MOL0     O20173   2.787   9.900   1.313  0.4761 -0.0721 -0.4777
  150MOL0     C20174   2.821   9.966   1.188  1.0143 -0.0498  0.3889
  150MOL0     C20175   2.824   9.884   1.069  0.0379 -0.5100 -0.0421
  150MOL0     C20176   2.817   9.975   0.942 -0.5841 -0.7184  0.8392
  150MOL0     C20177   2.773   9.906   0.806  0.9817  0.1467  1.3213
  150MOL0     C20178   2.813   9.774   0.795 -0.1317  0.0304  0.7834
  150MOL0     C20179   2.841   9.661   0.785  0.4550 -0.4547 -0.7866
  150MOL0     C20180   2.822   9.668   1.335  0.1972  0.8855 -0.0769
  150MOL0     C20181   2.897   9.556   1.391  0.1434 -0.0120 -0.0106
  150MOL0     C20182   2.844   9.420   1.365  0.2094  0.1028  0.1629
  150MOL0     H20183   3.171   9.325   1.740  1.4983 -0.3592  0.4167
  150MOL0     H20184   3.313   9.140   1.823 -0.7056  2.3065  0.2578
  150MOL0     H20185   3.405   8.791   1.539 -2.4459 -2.1482 -0.8863
  150MOL0     H20186   3.450   8.719   1.686  2.4007  0.6168 -1.4498
  150MOL0     H20187   3.218   8.641   1.595 -1.6255  0.5166  0.1195
  150MOL0     H20188   3.162   8.792   1.640  0.2624  2.3605  1.6318
  150MOL0     H20189   3.179   8.741   1.874  3.2307  0.6865  1.3042
  150MOL0     H20190   3.318   8.634   1.850  1.0541 -0.1163 -2.5484
  150MOL0     H20191   3.027   8.583   1.762  0.1728 -0.3988 -1.5231
  150MOL0     H20192   3.146   8.461   1.753  1.4450 -1.8590  1.4449
  150MOL0     H20193   3.008   8.393   1.925  1.5800 -0.5970 -1.9497
  150MOL0     H20194   3.166   8.430   1.993  1.6470  0.1457 -0.5353
  150MOL0     H20195   3.093   8.659   2.058  0.1814  0.9026 -1.6097
  150MOL0     H20196   2.922   8.637   2.029 -0.5185  0.3621  3.1748
  150MOL0     H20197   3.123   8.535   2.241 -0.4044  1.3142  0.8925
  150MOL0     H20198   2.998   8.415   2.194  0.5238  0.3352  2.0148
  150MOL0     H20199   2.938   8.542   2.404  1.3269 -1.7041 -0.0147
  150MOL0     H20200   2.949   8.699   2.309 -3.7887  1.7912 -1.1976
  150MOL0     H20201   2.759   8.792   2.192  2.2869 -0.2727 -0.0538
  150MOL0     H20202   2.448   8.644   2.016  1.3794 -2.0764 -0.5824
  150MOL0     H20203   2.488   8.803   2.084  0.0272  1.5276 -1.8077
  150MOL0     H20204   2.551   8.827   1.855 -0.6077  0.9784  0.1563
  150MOL0     H20205   2.693   8.821   1.940 -0.5177  0.4742 -0.0380
  150MOL0     H20206   2.582   8.577   1.789 -0.5075  2.0872 -1.2171
  150MOL0     H20207   2.742   8.579   1.880  0.6518 -0.1585 -1.6513
  150MOL0     H20208   2.784   8.796   1.695  1.6183 -0.9054 -2.9417
  150MOL0     H20209   2.638   8.753   1.636 -0.6777  0.0731 -0.2831
  150MOL0     H20210   2.889   8.861   1.544 -0.0863  0.1609  0.9596
  150MOL0     H20211   3.032   8.906   1.377  1.1698  0.2351 -1.9974
  150MOL0     H20212   3.230   8.647   0.887  2.3568  0.4559 -3.9420
  150MOL0     H20213   3.412   8.669   0.757 -2.5563 -1.3797  0.7064
  150MOL0     H20214   3.643   8.608   0.652  0.1174 -0.4048 -0.0243
  150MOL0     H20215   3.629   8.784   0.697  1.6778  0.8308  1.2437
  150MOL0     H20216   3.856   8.830   0.702 -2.0963  2.1318 -0.3091
  150MOL0     H20217   3.906   8.656   0.696 -2.1481 -0.8473  1.0532
  150MOL0     H20218   3.823   8.643   0.463 -1.0171  0.8098  0.3036
  150MOL0     H20219   3.733   8.784   0.487 -0.2746  0.9594  2.8400
  150MOL0     H20220   4.036   8.740   0.446  1.4149  1.1796  1.4215
  150MOL0     H20221   3.994   8.863   0.560 -1.7137 -1.4827  2.3424
  150MOL0     H20222   3.895   8.876   0.272  1.2979 -0.2033 -0.1957
  150MOL0     H20223   4.032   8.954   0.347 -0.0814  1.3528  0.6506
  150MOL0     H20224   3.756   8.998   0.471  2.6904 -0.1823  3.1893
  150MOL0     H20225   3.911   9.088   0.485 -0.2661 -1.5825  1.6863
  150MOL0     H20226   3.732   9.077   0.223  0.2488 -1.9166 -0.5162
  150MOL0     H20227   3.886   9.156   0.249  0.6949 -0.6185  0.7500
  150MOL0     H20228   3.621   9.211   0.397 -0.3137 -0.1162 -0.4272
  150MOL0     H20229   3.765   9.311   0.424 -0.7998 -0.2592  0.6749
  150MOL0     H20230   3.677   8.703   1.086  1.7624 -2.3826 -2.0713
  150MOL0     H20231   3.464   8.660   1.243  2.3676 -0.3153 -0.5855
  150MOL0     H20232   3.037   8.486   1.272 -0.7340 -0.6522  1.4662
  150MOL0     H20233   2.890   8.439   1.417  1.9530  0.4067 -0.3711
  150MOL0     H20234   3.268   8.937   1.436 -1.5802 -1.1842  1.0598
  150MOL0     H20235   3.178   9.149   1.356  0.7411  0.3492 -0.2495
  150MOL0     H20236   3.153   9.740   1.518 -0.1297  0.3138 -0.7222
  150MOL0     H20237   3.012   9.925   1.425 -1.9106  0.3506 -1.0612
  150MOL0     H20238   2.915  10.022   1.191  2.1444 -1.7628 -0.9753
  150MOL0     H20239   2.740  10.036   1.167  1.3652  0.2341 -0.0483
  150MOL0     H20240   2.741   9.813   1.070 -1.3421  0.9837 -2.1292
  150MOL0     H20241   2.911   9.817   1.074  0.1373 -0.2904  2.9830
  150MOL0     H20242   2.919  10.011   0.926 -1.5462  1.3248 -1.3479
  150MOL0     H20243   2.753  10.062   0.957 -0.7116  0.3274 -4.0992
  150MOL0     H20244   2.666   9.898   0.824  0.8632  3.9826  3.4419
  150MOL0     H20245   2.774   9.960   0.711 -2.2486 -2.7654 -0.5546
  150MOL0     H20246   2.873   9.559   0.774 -1.3734 -1.0221 -1.2637
  150MOL0     H20247   2.730   9.644   1.283 -0.1471  0.7088  0.6021
  150MOL0     H20248   2.782   9.385   1.448  1.1859 -1.2400  0.3558
  150MOL0     H20249   2.785   9.419   1.273 -2.8245  1.0583  1.9366
  150MOL0     H20250   2.922   9.344   1.356  0.1978 -0.0144  0.9993
  151MOL0     O20251   0.110   0.867   0.393  0.4590 -0.2849 -0.3789
  151MOL0     C20252   0.021   0.931   0.327 -0.2259 -0.2526 -0.3472
  151MOL0     O20253  -0.105   0.911   0.344  0.6827  0.2081 -0.2608
  151MOL0     C20254  -0.162   0.872   0.462  0.1651  0.5089 -0.1011
  151MOL0     C20255  -0.303   0.854   0.448 -0.2403  0.1095  0.0366
  151MOL0     C20256  -0.382   0.819   0.559 -0.0419  0.4176 -0.3751
  151MOL0     C20257  -0.313   0.797   0.691  0.2186 -0.0728 -0.0821
  151MOL0     O20258  -0.385   0.758   0.795  0.1416 -0.6276 -0.2342
  151MOL0     C20259  -0.445   0.623   0.801  0.0515  0.2770 -0.4177
  151MOL0     C20260  -0.525   0.605   0.924  0.3304 -0.3737  0.5626
  151MOL0     C20261  -0.581   0.458   0.955  0.0324  0.1475 -0.1738
  151MOL0     C20262  -0.704   0.462   1.057  0.7856 -0.3097  0.6252
  151MOL0     C20263  -0.700   0.355   1.163  0.0789 -0.8809 -0.6436
  151MOL0     C20264  -0.817   0.386   1.265  0.2755 -0.7661 -0.1670
  151MOL0     C20265  -0.798   0.482   1.380 -0.6884 -0.7459  0.2315
  151MOL0     C20266  -0.931   0.493   1.453 -0.3122 -0.4266 -0.3006
  151MOL0     N20267  -0.926   0.549   1.592  0.1362 -0.1692  0.1802
  151MOL0     C20268  -0.857   0.483   1.694  1.1343 -0.5189 -0.5326
  151MOL0     C20269  -0.852   0.587   1.777  0.2192  0.7578  0.5543
  151MOL0     C20270  -0.787   0.565   1.912  0.0488 -0.3554  0.0234
  151MOL0     C20271  -0.885   0.519   2.023 -0.7106  0.3646  0.1976
  151MOL0     C20272  -1.013   0.600   2.040  0.8720  0.7915 -0.1346
  151MOL0     C20273  -1.092   0.533   2.146 -0.7374  0.5390 -0.1039
  151MOL0     O20274  -1.204   0.604   2.191  0.5738 -0.1433 -0.9021
  151MOL0     C20275  -1.304   0.639   2.104  0.7582  0.3836  1.0184
  151MOL0     C20276  -1.389   0.746   2.139  0.2784  0.8886  0.2627
  151MOL0     C20277  -1.507   0.776   2.065  0.6703  0.7867 -0.1643
  151MOL0     C20278  -1.549   0.696   1.953  0.0744  0.2072 -0.3854
  151MOL0     C20279  -1.673   0.740   1.884 -0.5759 -0.0175 -0.1024
  151MOL0     O20280  -1.714   0.869   1.910  0.3124 -0.2432 -0.7352
  151MOL0     C20281  -1.804   0.918   1.824  0.4136 -0.9071 -0.0565
  151MOL0     C20282  -1.775   1.029   1.737  0.9353 -1.7476  0.4721
  151MOL0     C20283  -1.877   1.088   1.669 -0.2068 -0.4805 -0.0058
  151MOL0     C20284  -2.008   1.048   1.687  0.4195 -0.4499  0.5266
  151MOL0     O20285  -2.103   1.119   1.619 -0.0179 -0.0333 -0.2459
  151MOL0     C20286  -2.080   1.256   1.577 -0.1173  0.3260  0.2815
  151MOL0     C20287  -2.203   1.337   1.537  0.6117  0.3433  0.8796
  151MOL0     C20288  -2.263   1.295   1.391 -0.6261 -0.6186  0.8843
  151MOL0     C20289  -2.382   1.383   1.342  0.1115 -0.6883 -0.2574
  151MOL0     C20290  -2.444   1.342   1.205  0.3386  0.1480 -0.4661
  151MOL0     C20291  -2.551   1.431   1.172  0.2915  0.3229  0.1466
  151MOL0     C20292  -2.601   1.402   1.028 -0.4984  0.2545 -1.0119
  151MOL0     C20293  -2.696   1.281   1.009  0.2557 -0.0216 -0.3237
  151MOL0    Cl20294  -2.721   1.237   0.843 -0.2820 -0.1838  0.1135
  151MOL0     C20295  -2.041   0.950   1.772  0.3225  0.0318  0.0729
  151MOL0     C20296  -1.939   0.889   1.846  0.2062 -0.0210  0.0702
  151MOL0     O20297  -1.700   0.663   1.784 -0.0625  0.2251  0.5099
  151MOL0     C20298  -1.467   0.590   1.919  0.1723  0.1266 -0.1194
  151MOL0     C20299  -1.349   0.556   1.990  0.6190  0.8808  0.0606
  151MOL0     N20300  -0.917   0.702   1.735  0.2150 -0.2891  0.1151
  151MOL0     N20301  -0.946   0.682   1.618 -0.5300 -0.2916 -0.0628
  151MOL0     C20302  -0.174   0.833   0.706 -0.0203  0.3442  0.5559
  151MOL0     C20303  -0.101   0.860   0.586 -1.5472  0.3394  0.4185
  151MOL0     C20304   0.063   1.019   0.221  0.4248  0.8168 -0.6636
  151MOL0     C20305  -0.032   1.045   0.122 -0.0702 -1.1724 -0.5169
  151MOL0     C20306  -0.009   1.121   0.014 -0.5252 -0.1927  1.4966
  151MOL0     C20307   0.124   1.166  -0.016  0.4963 -0.4610  0.2184
  151MOL0     O20308   0.161   1.222  -0.139  0.1344  0.2612  0.6244
  151MOL0     C20309   0.105   1.357  -0.162  0.3284  0.1049 -0.2257
  151MOL0     C20310   0.195   1.432  -0.247 -0.2736 -0.5694 -0.3263
  151MOL0     C20311   0.204   1.359  -0.387  0.0133  0.2032  0.2196
  151MOL0     C20312   0.247   1.453  -0.501  0.5361  0.2539  0.4535
  151MOL0     C20313   0.197   1.409  -0.631  0.2193  0.0449  1.1784
  151MOL0     C20314   0.157   1.359  -0.735  0.4749  0.4314 -0.3480
  151MOL0     C20315   0.215   1.152   0.086 -0.4068  0.0104 -0.4876
  151MOL0     C20316   0.188   1.080   0.203 -0.5623  0.1108 -0.0450
  151MOL0     C20317   0.290   1.091   0.309 -0.3293  0.4605  0.0622
  151MOL0     H20318  -0.352   0.870   0.353 -0.9896 -1.3520  0.1606
  151MOL0     H20319  -0.484   0.793   0.532  0.0660  2.5608 -3.2340
  151MOL0     H20320  -0.500   0.607   0.708 -3.1774 -0.7505  1.5317
  151MOL0     H20321  -0.364   0.551   0.818 -1.0312 -0.1915  3.6306
  151MOL0     H20322  -0.620   0.660   0.914 -2.8961 -5.4329 -0.1075
  151MOL0     H20323  -0.474   0.638   1.015 -2.1097  1.3893  1.4349
  151MOL0     H20324  -0.504   0.395   1.002 -1.0507 -0.8101  0.3583
  151MOL0     H20325  -0.616   0.404   0.867 -2.7898 -2.0683  2.0864
  151MOL0     H20326  -0.700   0.555   1.114 -0.7639  0.2736 -0.1431
  151MOL0     H20327  -0.800   0.474   1.005  2.1620  1.6267 -1.7143
  151MOL0     H20328  -0.705   0.253   1.124 -0.7037 -1.8232  1.7376
  151MOL0     H20329  -0.604   0.362   1.216 -1.3971 -0.5199  2.1952
  151MOL0     H20330  -0.898   0.415   1.198  2.1602  0.5329 -2.0325
  151MOL0     H20331  -0.861   0.300   1.315 -1.0279  0.2488  0.5153
  151MOL0     H20332  -0.758   0.575   1.338 -2.4465 -0.0128  0.0639
  151MOL0     H20333  -0.735   0.443   1.459 -0.4283  0.8068  0.8315
  151MOL0     H20334  -0.991   0.552   1.382  1.3919 -1.5097 -2.7980
  151MOL0     H20335  -0.976   0.394   1.450  2.3551 -1.7302 -3.4020
  151MOL0     H20336  -0.816   0.383   1.689  4.2320  0.6847 -2.1564
  151MOL0     H20337  -0.699   0.502   1.898 -1.2969 -1.9614 -1.6999
  151MOL0     H20338  -0.736   0.656   1.946 -0.9427  1.5822 -3.1639
  151MOL0     H20339  -0.907   0.412   2.012 -0.5817  0.1335  1.8989
  151MOL0     H20340  -0.834   0.532   2.119 -0.3643  0.9304 -0.0585
  151MOL0     H20341  -1.077   0.592   1.952  0.5235  0.9231  0.1052
  151MOL0     H20342  -0.997   0.708   2.050  1.1514  0.9282 -1.7835
  151MOL0     H20343  -1.027   0.516   2.232  0.4532  0.2909 -1.0236
  151MOL0     H20344  -1.113   0.429   2.119 -0.7455  1.0832 -2.3701
  151MOL0     H20345  -1.358   0.803   2.226 -1.9423 -0.3275  1.9678
  151MOL0     H20346  -1.562   0.865   2.096 -2.6705 -0.6698 -1.3512
  151MOL0     H20347  -1.681   1.081   1.722 -0.6166  0.4731 -2.7219
  151MOL0     H20348  -1.851   1.168   1.600  0.0931 -1.5346 -1.1518
  151MOL0     H20349  -2.044   1.317   1.660  1.0670  1.9987 -1.3993
  151MOL0     H20350  -2.009   1.255   1.494 -1.7782  1.2130 -1.2224
  151MOL0     H20351  -2.288   1.314   1.602 -0.2118 -1.7157 -0.8060
  151MOL0     H20352  -2.176   1.443   1.536  0.4681  0.3792  0.3179
  151MOL0     H20353  -2.190   1.290   1.309 -2.9139 -1.1433 -1.2456
  151MOL0     H20354  -2.306   1.196   1.410  0.7192 -1.8919 -2.0591
  151MOL0     H20355  -2.358   1.490   1.344 -1.7235 -0.2436  0.2392
  151MOL0     H20356  -2.454   1.381   1.424  4.0339  2.1291  3.7663
  151MOL0     H20357  -2.479   1.239   1.212  0.3778  0.1858  0.4077
  151MOL0     H20358  -2.367   1.347   1.127 -0.4478 -2.1474 -1.4666
  151MOL0     H20359  -2.631   1.428   1.247 -0.6168  2.5127 -0.6670
  151MOL0     H20360  -2.514   1.533   1.182  0.4958  0.4550 -1.5661
  151MOL0     H20361  -2.511   1.373   0.971  1.4917  0.7332  1.7148
  151MOL0     H20362  -2.649   1.489   0.983  1.5007  1.2378 -1.3833
  151MOL0     H20363  -2.661   1.195   1.066 -1.2141 -0.1265  0.4860
  151MOL0     H20364  -2.795   1.306   1.049  1.5964 -0.6802  3.7989
  151MOL0     H20365  -2.145   0.919   1.777  0.0528  1.0897  3.3356
  151MOL0     H20366  -1.954   0.806   1.915 -0.7529 -0.1058 -0.2355
  151MOL0     H20367  -1.482   0.546   1.821 -1.1883  3.3727 -1.4791
  151MOL0     H20368  -1.294   0.471   1.953  0.0069  0.8778 -0.8787
  151MOL0     H20369  -0.110   0.832   0.794  1.4146  2.5795 -0.3736
  151MOL0     H20370   0.006   0.874   0.593 -1.5677  0.1752  1.2495
  151MOL0     H20371  -0.134   1.013   0.135 -1.3576  2.5731 -0.2636
  151MOL0     H20372  -0.092   1.140  -0.054 -0.7138  0.6377  1.9505
  151MOL0     H20373   0.102   1.406  -0.064  1.6158  0.0978 -0.1650
  151MOL0     H20374   0.008   1.357  -0.211 -1.2931 -0.3006  2.7453
  151MOL0     H20375   0.293   1.440  -0.198 -0.4464 -0.7500  0.0475
  151MOL0     H20376   0.149   1.529  -0.269  1.3244 -0.3306 -3.1965
  151MOL0     H20377   0.103   1.320  -0.405 -0.5249  1.4594  0.4203
  151MOL0     H20378   0.278   1.278  -0.384 -1.6795 -1.4489 -0.2355
  151MOL0     H20379   0.235   1.561  -0.483  2.4930  0.3421  1.4987
  151MOL0     H20380   0.355   1.438  -0.501  0.7880  1.9013  0.4731
  151MOL0     H20381   0.128   1.314  -0.828  1.1716 -0.0910 -0.3172
  151MOL0     H20382   0.312   1.196   0.066  0.7182 -1.7411  0.7547
  151MOL0     H20383   0.258   1.043   0.402 -1.6696  1.9507  0.4183
  151MOL0     H20384   0.372   1.026   0.280  1.0070 -0.4041  4.8987
  151MOL0     H20385   0.327   1.192   0.332 -0.7921  0.9642 -1.3015
  152MOL0     O20386   9.463   9.977   6.418  0.5822  0.0373 -0.3065
  152MOL0     C20387   9.468   9.855   6.424  0.7908 -0.7905  0.0066
  152MOL0     O20388   9.406   9.773   6.334  0.0062  0.4240  0.1867
  152MOL0     C20389   9.325   9.828   6.243  0.5811 -0.6042  0.2137
  152MOL0     C20390   9.190   9.819   6.269 -0.3143  0.0944  0.0426
  152MOL0     C20391   9.096   9.880   6.187 -0.6182 -0.4839  0.0914
  152MOL0     C20392   9.141   9.959   6.074 -0.0398 -0.3889 -0.5863
  152MOL0     O20393   9.067  10.021   5.980  0.4847  0.0762 -0.9236
  152MOL0     C20394   8.929   9.970   5.963 -0.2557 -1.0093 -0.3301
  152MOL0     C20395   8.850  10.004   5.835 -0.5302  0.0317 -0.6288
  152MOL0     C20396   8.924   9.947   5.714 -0.2447  0.4857  0.8015
  152MOL0     C20397   8.841   9.963   5.595  0.3931  0.4284 -0.5482
  152MOL0     C20398   8.884   9.876   5.469  0.1280  0.0371  0.1605
  152MOL0     C20399   8.844   9.728   5.491 -1.1794 -0.0473 -0.1687
  152MOL0     C20400   8.859   9.648   5.363 -0.0549 -0.7593  0.8799
  152MOL0     C20401   8.857   9.494   5.393 -0.6925 -0.1354  0.3889
  152MOL0     N20402   8.998   9.434   5.425  0.3103  0.4810 -0.3821
  152MOL0     C20403   9.109   9.445   5.350 -0.3757  0.2260  0.3232
  152MOL0     C20404   9.209   9.403   5.427  0.0599  0.2566  0.2310
  152MOL0     C20405   9.355   9.430   5.410  0.3859  0.5602  0.8374
  152MOL0     C20406   9.415   9.394   5.270 -0.4464  0.2248  0.2817
  152MOL0     C20407   9.560   9.360   5.267  0.6282 -0.4804  0.4880
  152MOL0     C20408   9.640   9.466   5.333  0.2890  0.2651 -1.0369
  152MOL0     O20409   9.782   9.454   5.320  0.7210  0.6217 -0.3424
  152MOL0     C20410   9.853   9.560   5.381  0.1408 -0.3337  0.0335
  152MOL0     C20411   9.908   9.669   5.306  0.9256  0.3269  0.2060
  152MOL0     C20412   9.972   9.767   5.388  0.4699 -0.1146  0.4485
  152MOL0     C20413   9.989   9.765   5.530  0.0107  0.0190 -0.3443
  152MOL0     C20414  10.071   9.870   5.592 -0.1216 -0.5544  0.3708
  152MOL0     O20415  10.097   9.847   5.722  0.4042 -0.0528  0.5952
  152MOL0     C20416  10.177   9.941   5.777 -0.2248  1.0375  0.1810
  152MOL0     C20417  10.320   9.914   5.784  0.1497  0.4358  0.0944
  152MOL0     C20418  10.407  10.013   5.830 -0.0942  0.0771  0.0597
  152MOL0     C20419  10.360  10.129   5.887 -0.2487  0.1371 -0.1328
  152MOL0     O20420  10.460  10.211   5.939 -0.0279 -0.2254  0.4541
  152MOL0     C20421  10.445  10.342   5.986  0.0377 -0.0639  0.3561
  152MOL0     C20422  10.461  10.437   5.865  0.3475  0.3505  0.7060
  152MOL0     C20423  10.348  10.423   5.754  0.3125  0.1604 -0.1454
  152MOL0     C20424  10.361  10.536   5.650  0.2185  0.3506  0.1923
  152MOL0     C20425  10.240  10.521   5.566  0.6635  0.7052  0.2947
  152MOL0     C20426  10.243  10.575   5.424 -0.3292 -0.0481 -0.4195
  152MOL0     C20427  10.119  10.525   5.355 -0.7487 -0.0255  0.1748
  152MOL0     C20428  10.024  10.639   5.325 -0.6271 -0.5263 -0.4150
  152MOL0    Cl20429  10.106  10.759   5.211 -0.1218 -0.2497 -0.0467
  152MOL0     C20430  10.224  10.144   5.892  0.0525  0.2444 -0.1447
  152MOL0     C20431  10.132  10.059   5.828  0.3086  0.2015  0.3586
  152MOL0     O20432  10.087   9.980   5.534  0.1811 -0.5689 -0.0951
  152MOL0     C20433   9.926   9.660   5.597 -0.8984 -0.1796  0.0298
  152MOL0     C20434   9.862   9.559   5.520  0.0290 -0.1759 -0.5114
  152MOL0     N20435   9.145   9.348   5.537 -0.0506 -0.3517 -1.4741
  152MOL0     N20436   9.028   9.374   5.545  0.6844  0.0059 -0.8478
  152MOL0     C20437   9.274   9.982   6.064  0.0594 -1.3180  0.3440
  152MOL0     C20438   9.367   9.923   6.154 -0.3594 -0.2199  0.1116
  152MOL0     C20439   9.570   9.777   6.502  0.9788  0.5202 -0.7821
  152MOL0     C20440   9.563   9.639   6.524  0.5485  0.5180  0.5359
  152MOL0     C20441   9.660   9.569   6.601 -0.5359 -0.0457 -0.8548
  152MOL0     C20442   9.766   9.642   6.661  0.8584  0.0884  0.1495
  152MOL0     O20443   9.860   9.569   6.727  0.4358 -0.5462 -0.7417
  152MOL0     C20444   9.992   9.628   6.733 -0.5084  0.8909  0.1768
  152MOL0     C20445  10.093   9.510   6.745  0.1850 -0.4461 -0.5989
  152MOL0     C20446  10.137   9.454   6.611 -0.3330  1.5844 -0.6462
  152MOL0     C20447  10.287   9.480   6.583 -0.1242  0.9562 -0.0023
  152MOL0     C20448  10.352   9.400   6.476  0.0256 -0.4824 -0.1516
  152MOL0     C20449  10.409   9.354   6.380  0.4927 -0.0803 -0.0345
  152MOL0     C20450   9.776   9.778   6.634  0.4186 -0.6364  0.0811
  152MOL0     C20451   9.696   9.845   6.549  1.1288 -0.7394 -1.2572
  152MOL0     C20452   9.722   9.996   6.542 -0.6292 -0.1941 -0.6128
  152MOL0     H20453   9.144   9.753   6.342 -1.2120  2.2058  1.4631
  152MOL0     H20454   8.998   9.888   6.231 -0.1960  1.1264  0.8430
  152MOL0     H20455   8.917   9.862   5.979 -3.2427 -1.0297 -2.0644
  152MOL0     H20456   8.869  10.013   6.043  0.8870 -0.0082  0.0156
  152MOL0     H20457   8.846  10.113   5.820 -0.2095 -0.3647 -4.7566
  152MOL0     H20458   8.747   9.970   5.850 -0.6863  0.7215 -0.0783
  152MOL0     H20459   8.928   9.838   5.710  0.4091  0.5343 -0.2321
  152MOL0     H20460   9.018  10.002   5.700 -0.6932  1.0740 -0.0243
  152MOL0     H20461   8.734   9.948   5.612  0.5806 -3.1320 -1.7893
  152MOL0     H20462   8.862  10.062   5.553  0.8961 -0.2315 -1.9114
  152MOL0     H20463   8.833   9.915   5.381  0.8920 -1.4656 -1.0007
  152MOL0     H20464   8.990   9.895   5.451 -0.0814 -0.5110 -1.8353
  152MOL0     H20465   8.911   9.673   5.557 -2.2059 -2.2334 -0.8602
  152MOL0     H20466   8.739   9.734   5.522 -2.0112  1.7342 -2.9713
  152MOL0     H20467   8.951   9.671   5.309 -0.8855 -2.4517 -1.4178
  152MOL0     H20468   8.773   9.670   5.300 -0.1931  2.1285  1.9519
  152MOL0     H20469   8.776   9.473   5.463 -2.4590 -2.2790 -2.0784
  152MOL0     H20470   8.826   9.442   5.302 -2.1902 -1.0622  1.3904
  152MOL0     H20471   9.130   9.483   5.251  1.9330 -1.5525  0.0555
  152MOL0     H20472   9.363   9.538   5.424  1.4370  0.6017  0.0518
  152MOL0     H20473   9.417   9.383   5.486 -0.0636  0.3933  1.1003
  152MOL0     H20474   9.360   9.302   5.249  0.6941 -0.7979  1.5243
  152MOL0     H20475   9.393   9.463   5.189  2.5725  2.2833  1.0224
  152MOL0     H20476   9.592   9.358   5.162 -1.4569  1.0148 -0.2450
  152MOL0     H20477   9.573   9.260   5.310 -3.1399 -1.1334  0.4463
  152MOL0     H20478   9.618   9.463   5.440  3.4697  2.3456 -0.1665
  152MOL0     H20479   9.609   9.562   5.289 -1.7077  0.4661  0.6562
  152MOL0     H20480   9.892   9.684   5.200 -3.5468 -0.4286  0.5809
  152MOL0     H20481  10.001   9.861   5.342  1.5372 -0.5430  0.2066
  152MOL0     H20482  10.354   9.818   5.747  2.8701  1.3764 -0.0836
  152MOL0     H20483  10.514   9.996   5.829  0.0076  0.3250 -3.3354
  152MOL0     H20484  10.353  10.356   6.043 -0.2748  0.8632 -0.3481
  152MOL0     H20485  10.531  10.360   6.051  1.2079 -4.9904  0.5744
  152MOL0     H20486  10.448  10.543   5.889 -0.0455  1.3533 -3.1856
  152MOL0     H20487  10.555  10.422   5.812  0.0067  1.3075 -0.2015
  152MOL0     H20488  10.349  10.325   5.705 -0.3603 -0.8809  1.8334
  152MOL0     H20489  10.254  10.439   5.807 -1.7532 -2.5238 -2.6241
  152MOL0     H20490  10.458  10.529   5.601 -0.8669 -1.2993 -1.8646
  152MOL0     H20491  10.358  10.634   5.698  0.7874  0.4797 -0.0316
  152MOL0     H20492  10.150  10.560   5.614 -0.5887  1.3163 -2.3490
  152MOL0     H20493  10.218  10.417   5.543 -2.6065  1.7113 -1.9141
  152MOL0     H20494  10.259  10.683   5.425  2.8780 -0.3688  2.7346
  152MOL0     H20495  10.330  10.547   5.364 -0.9894 -2.1373 -0.4977
  152MOL0     H20496  10.065  10.448   5.410  1.2843 -0.2660  1.9451
  152MOL0     H20497  10.150  10.475   5.263  3.0944  0.5716  0.9731
  152MOL0     H20498   9.937  10.592   5.279 -0.1533 -1.0547 -0.7915
  152MOL0     H20499   9.989  10.682   5.419 -3.1101 -2.4747 -0.3229
  152MOL0     H20500  10.187  10.237   5.936  2.8318  0.4961  1.9434
  152MOL0     H20501  10.025  10.075   5.839  0.2585  0.2711 -0.1977
  152MOL0     H20502   9.937   9.652   5.705  0.9574  0.0133 -0.1239
  152MOL0     H20503   9.832   9.466   5.567  0.1970  1.2707  2.6803
  152MOL0     H20504   9.318  10.049   5.990  0.4820  0.0550  1.7903
  152MOL0     H20505   9.473   9.943   6.160 -0.1677 -1.4270  1.0567
  152MOL0     H20506   9.481   9.580   6.483 -0.6964  2.9800 -0.7631
  152MOL0     H20507   9.648   9.465   6.632 -0.9738  0.9099  2.6097
  152MOL0     H20508  10.020   9.692   6.817 -0.6353 -0.9627  1.6614
  152MOL0     H20509  10.017   9.681   6.640 -1.7941 -1.1046 -1.3836
  152MOL0     H20510  10.055   9.431   6.810  1.4611  0.0979  0.8543
  152MOL0     H20511  10.172   9.559   6.802 -0.8049  2.9241 -1.9104
  152MOL0     H20512  10.066   9.498   6.540  0.4829  2.4217 -0.9805
  152MOL0     H20513  10.112   9.348   6.619 -2.4654  2.1543  1.1740
  152MOL0     H20514  10.313   9.581   6.550  3.3311 -0.8696 -3.6802
  152MOL0     H20515  10.342   9.460   6.675 -1.5403 -1.2643  0.4343
  152MOL0     H20516  10.483   9.310   6.316  1.5482 -1.2373  1.8893
  152MOL0     H20517   9.849   9.842   6.681 -2.2377  3.5379 -0.9277
  152MOL0     H20518   9.826  10.027   6.556 -0.6220 -0.0366 -0.9970
  152MOL0     H20519   9.691  10.022   6.440 -2.0962 -1.4657 -0.5229
  152MOL0     H20520   9.658  10.051   6.611  0.7659 -2.6271  2.9192
  153MOL0     O20521   8.903   8.632   2.037  0.5236 -0.1103  1.2004
  153MOL0     C20522   8.928   8.595   2.150 -0.9295 -0.1158  0.2167
  153MOL0     O20523   8.835   8.533   2.242  0.0859 -0.4476 -0.6253
  153MOL0     C20524   8.709   8.580   2.212  1.0722  0.7677 -0.8088
  153MOL0     C20525   8.607   8.484   2.189 -0.0432  0.1881 -0.3335
  153MOL0     C20526   8.474   8.527   2.176 -0.1779  0.4142 -0.6357
  153MOL0     C20527   8.446   8.657   2.173  0.5104 -0.1923  0.3431
  153MOL0     O20528   8.312   8.704   2.152 -0.5883  0.4665  0.4020
  153MOL0     C20529   8.266   8.670   2.021  0.3286  0.8707  0.2648
  153MOL0     C20530   8.153   8.771   1.989 -1.5363 -0.3481 -0.4670
  153MOL0     C20531   8.030   8.703   1.918  0.0053 -0.5131  0.0670
  153MOL0     C20532   7.997   8.783   1.795  0.2494  0.3512  0.9339
  153MOL0     C20533   7.849   8.762   1.762 -0.3370  0.4640  1.1032
  153MOL0     C20534   7.813   8.608   1.723  0.0202 -0.6715 -0.1079
  153MOL0     C20535   7.665   8.592   1.701  0.2408  1.8352 -0.5846
  153MOL0     C20536   7.629   8.623   1.561 -0.4883  0.6138  0.0976
  153MOL0     N20537   7.487   8.607   1.527 -0.7736 -0.3435  0.6253
  153MOL0     C20538   7.385   8.645   1.611 -1.4782 -0.0707  0.0054
  153MOL0     C20539   7.279   8.594   1.557  0.0929  1.2956 -1.0073
  153MOL0     C20540   7.144   8.610   1.616  0.0806  0.6291  0.2457
  153MOL0     C20541   7.043   8.486   1.594 -0.4913 -0.8280  0.1861
  153MOL0     C20542   6.906   8.503   1.658 -0.8271  1.0760 -0.8004
  153MOL0     C20543   6.848   8.372   1.725 -0.2022  0.4467 -0.1180
  153MOL0     O20544   6.729   8.407   1.799  0.5654 -1.3565 -0.5314
  153MOL0     C20545   6.635   8.308   1.836 -0.8460 -0.0956 -0.3066
  153MOL0     C20546   6.513   8.352   1.871 -0.2082  0.0354  0.2458
  153MOL0     C20547   6.414   8.262   1.908 -0.4713 -0.4191  0.1286
  153MOL0     C20548   6.437   8.121   1.894  0.0719  0.4846 -0.2955
  153MOL0     C20549   6.339   8.019   1.928 -0.2834  0.1694 -0.9427
  153MOL0     O20550   6.382   7.890   1.956 -0.0403 -0.0228  0.0678
  153MOL0     C20551   6.295   7.799   2.015 -0.7827  0.2736  0.6364
  153MOL0     C20552   6.339   7.728   2.117  0.4310 -0.0208  0.1301
  153MOL0     C20553   6.258   7.628   2.170  0.6785 -0.2571  0.7862
  153MOL0     C20554   6.134   7.589   2.114  1.4308 -0.7389 -0.3369
  153MOL0     O20555   6.052   7.491   2.158  0.0408  0.1110  0.2237
  153MOL0     C20556   6.121   7.368   2.186  0.4381 -0.5837  0.9001
  153MOL0     C20557   6.039   7.247   2.121  0.5069  0.4445 -0.5681
  153MOL0     C20558   6.073   7.238   1.969  0.3381  0.3075 -0.3616
  153MOL0     C20559   5.948   7.196   1.883  0.1575  0.2998  0.0801
  153MOL0     C20560   5.853   7.306   1.851  0.9125 -0.3858 -0.2002
  153MOL0     C20561   5.732   7.274   1.766  0.0331 -0.6506  0.0760
  153MOL0     C20562   5.628   7.172   1.823  0.0501  0.2261 -0.7645
  153MOL0     C20563   5.583   7.062   1.722 -0.5552  0.5785 -0.6832
  153MOL0    Cl20564   5.710   6.970   1.651  0.2527 -0.6926 -0.2019
  153MOL0     C20565   6.099   7.664   2.004 -0.2896 -0.0592  0.0938
  153MOL0     C20566   6.177   7.769   1.952  0.0955  0.5435 -0.3940
  153MOL0     O20567   6.228   8.058   1.951  0.7843  0.1508  0.8804
  153MOL0     C20568   6.571   8.078   1.869  0.7913  0.3130 -1.5983
  153MOL0     C20569   6.668   8.172   1.837  0.9125 -0.3931  0.3863
  153MOL0     N20570   7.304   8.522   1.442 -0.3579  0.1416 -0.0660
  153MOL0     N20571   7.434   8.525   1.431 -0.9348  0.6566 -0.2613
  153MOL0     C20572   8.549   8.749   2.194 -0.0995  0.1181 -0.4694
  153MOL0     C20573   8.678   8.714   2.219 -0.4623 -0.1003 -0.7212
  153MOL0     C20574   9.077   8.600   2.193  0.4161  1.0355 -1.4974
  153MOL0     C20575   9.100   8.582   2.331 -0.2520 -0.0446  0.3513
  153MOL0     C20576   9.225   8.579   2.391 -0.4550 -0.6848  0.3277
  153MOL0     C20577   9.337   8.592   2.309  0.6666  0.3643 -0.0993
  153MOL0     O20578   9.468   8.582   2.368 -0.8339 -0.5877 -0.0859
  153MOL0     C20579   9.488   8.617   2.499  0.2057 -0.2909 -0.8107
  153MOL0     C20580   9.614   8.573   2.574  0.2519 -0.3711 -0.3377
  153MOL0     C20581   9.629   8.419   2.590  0.0588 -1.0033 -0.0508
  153MOL0     C20582   9.579   8.360   2.732 -1.2886 -0.3374  0.2140
  153MOL0     C20583   9.451   8.405   2.778 -0.1001  0.6270  0.1172
  153MOL0     C20584   9.344   8.422   2.833 -0.8294 -1.0894  0.6941
  153MOL0     C20585   9.328   8.624   2.178  0.5237 -0.0600 -0.0458
  153MOL0     C20586   9.192   8.625   2.115 -0.1375 -0.8288 -0.2673
  153MOL0     C20587   9.194   8.681   1.976  0.7293  0.7347  0.2191
  153MOL0     H20588   8.633   8.379   2.198 -2.5116 -0.4464 -0.0497
  153MOL0     H20589   8.396   8.453   2.162  1.4394 -1.4528 -0.1810
  153MOL0     H20590   8.345   8.697   1.950  3.6246 -1.5842  2.6713
  153MOL0     H20591   8.234   8.567   2.006 -1.1757  1.2757  0.5295
  153MOL0     H20592   8.204   8.849   1.931  0.5797 -2.8058 -2.1120
  153MOL0     H20593   8.118   8.818   2.081 -0.7620 -2.1779  0.8122
  153MOL0     H20594   7.942   8.707   1.983 -1.0108 -0.9952 -1.2114
  153MOL0     H20595   8.051   8.598   1.895 -1.6041 -1.0316  0.8455
  153MOL0     H20596   8.010   8.891   1.801 -0.3675  0.6153 -1.3716
  153MOL0     H20597   8.053   8.752   1.705 -2.5657  0.0764 -0.8401
  153MOL0     H20598   7.775   8.800   1.833 -0.5750  2.5368 -0.1663
  153MOL0     H20599   7.814   8.828   1.682  0.5779 -0.8851 -0.4812
  153MOL0     H20600   7.880   8.577   1.642 -1.1340  0.1685 -1.4062
  153MOL0     H20601   7.830   8.537   1.805 -0.9324 -0.9548 -0.1434
  153MOL0     H20602   7.608   8.657   1.768  0.7452 -0.0016  1.7448
  153MOL0     H20603   7.621   8.494   1.722 -0.0381  2.5986  2.9158
  153MOL0     H20604   7.641   8.732   1.551  1.6604  0.3672 -0.6650
  153MOL0     H20605   7.695   8.570   1.492  0.0670 -1.3522  2.0252
  153MOL0     H20606   7.399   8.718   1.690 -1.8208 -0.2707  0.2486
  153MOL0     H20607   7.150   8.622   1.725  0.9406 -0.5834  0.3618
  153MOL0     H20608   7.104   8.700   1.569 -3.4607  0.3225  2.3400
  153MOL0     H20609   7.027   8.462   1.489 -1.9934 -0.1156  0.2271
  153MOL0     H20610   7.078   8.398   1.649 -0.2018 -0.3202  0.8288
  153MOL0     H20611   6.829   8.537   1.587 -0.4056 -1.3497 -2.5536
  153MOL0     H20612   6.917   8.573   1.741  1.2556 -0.5567  0.3751
  153MOL0     H20613   6.922   8.327   1.792  1.0061  2.3088 -0.1280
  153MOL0     H20614   6.829   8.306   1.641  0.0916 -1.3405  1.1607
  153MOL0     H20615   6.494   8.459   1.871 -0.6938 -0.0263 -0.9360
  153MOL0     H20616   6.318   8.305   1.932 -0.5437 -1.2840  1.4860
  153MOL0     H20617   6.429   7.747   2.175  1.9791  0.5338 -2.3128
  153MOL0     H20618   6.296   7.576   2.257  0.6249  2.8757  2.8388
  153MOL0     H20619   6.225   7.358   2.154  1.5749  1.3860  3.5760
  153MOL0     H20620   6.128   7.341   2.292  3.0732 -0.2032  0.8809
  153MOL0     H20621   6.054   7.149   2.168 -3.0596 -0.6146 -1.3434
  153MOL0     H20622   5.930   7.245   2.133  0.5554  2.3832  0.5642
  153MOL0     H20623   6.123   7.332   1.941  1.1374  1.7150  4.7787
  153MOL0     H20624   6.143   7.155   1.956  0.4146  0.2346  0.4921
  153MOL0     H20625   5.898   7.118   1.941 -2.5710  0.5869 -1.6983
  153MOL0     H20626   5.982   7.153   1.789  1.5923 -0.5040  0.9292
  153MOL0     H20627   5.900   7.392   1.803 -1.3455  0.2575 -1.4019
  153MOL0     H20628   5.815   7.337   1.949 -1.1925  0.2475 -1.1707
  153MOL0     H20629   5.675   7.367   1.752  0.1093 -0.4360  1.0802
  153MOL0     H20630   5.766   7.246   1.666  1.1402 -0.3671  0.3618
  153MOL0     H20631   5.547   7.238   1.856  2.2227  3.7075 -1.7572
  153MOL0     H20632   5.672   7.134   1.916  2.5909  0.1090 -1.9165
  153MOL0     H20633   5.536   6.988   1.788 -0.8454 -0.1723 -1.7179
  153MOL0     H20634   5.520   7.110   1.647 -0.7917  1.3953  0.0219
  153MOL0     H20635   6.022   7.629   1.935  0.8091 -1.8742 -0.2725
  153MOL0     H20636   6.151   7.824   1.862  3.6692  1.6205 -0.9196
  153MOL0     H20637   6.579   7.970   1.854  1.6432  0.1925 -0.4959
  153MOL0     H20638   6.759   8.135   1.789 -0.3335  0.8999 -3.3516
  153MOL0     H20639   8.524   8.854   2.207  2.5843  0.6915  0.7277
  153MOL0     H20640   8.762   8.778   2.241  2.7946 -3.7743 -1.2778
  153MOL0     H20641   9.021   8.577   2.405 -0.4315  1.3317  0.2774
  153MOL0     H20642   9.224   8.558   2.497  0.1615 -2.5892 -0.0041
  153MOL0     H20643   9.409   8.573   2.562  0.9615  2.3681  2.2790
  153MOL0     H20644   9.473   8.725   2.496 -2.8666 -0.6421 -2.4757
  153MOL0     H20645   9.622   8.617   2.674  0.9167 -1.2988  0.0290
  153MOL0     H20646   9.699   8.622   2.524 -1.8132  1.8111 -1.9470
  153MOL0     H20647   9.735   8.398   2.578 -0.2288 -2.9936  0.4870
  153MOL0     H20648   9.572   8.358   2.519 -2.7848 -0.4818  1.6407
  153MOL0     H20649   9.594   8.252   2.726  0.7768 -0.0735 -0.4366
  153MOL0     H20650   9.644   8.393   2.813  1.3516 -1.2867 -1.3765
  153MOL0     H20651   9.252   8.451   2.879 -0.8189  4.9906 -2.0588
  153MOL0     H20652   9.418   8.647   2.122  2.1780 -3.7406  0.8107
  153MOL0     H20653   9.173   8.787   1.991 -1.6424  0.2759  0.6406
  153MOL0     H20654   9.299   8.672   1.947  1.7683 -0.4304  3.7820
  153MOL0     H20655   9.131   8.633   1.900  1.8955 -1.6706  0.6779
  154MOL0     O20656  10.351   3.821   6.546 -0.1769 -0.5385 -0.1442
  154MOL0     C20657  10.318   3.938   6.517  0.1438  0.5553 -0.6510
  154MOL0     O20658  10.282   3.984   6.388  0.5685  0.0538 -0.0683
  154MOL0     C20659  10.251   3.904   6.281  1.0223  0.4007 -0.4431
  154MOL0     C20660  10.241   3.965   6.163 -0.3355 -0.0963 -0.2690
  154MOL0     C20661  10.205   3.899   6.044 -0.2758 -0.9104  0.1057
  154MOL0     C20662  10.184   3.763   6.044 -0.1449  0.2609 -0.7113
  154MOL0     O20663  10.163   3.685   5.932  0.4878  0.0911 -0.4095
  154MOL0     C20664  10.172   3.718   5.795 -0.1053 -0.7442 -0.1677
  154MOL0     C20665  10.305   3.685   5.732  0.2062 -1.7690 -1.5265
  154MOL0     C20666  10.428   3.778   5.781 -0.2089  0.0166 -0.6290
  154MOL0     C20667  10.553   3.739   5.706  0.4283 -0.4408  0.2941
  154MOL0     C20668  10.673   3.821   5.730 -0.1383  0.0109 -0.4254
  154MOL0     C20669  10.804   3.764   5.672  0.0804 -0.3749 -0.4674
  154MOL0     C20670  10.929   3.857   5.678  0.0156  0.2008 -0.6789
  154MOL0     C20671  11.014   3.823   5.815 -0.3627  0.0983  0.5933
  154MOL0     N20672  11.126   3.924   5.838  0.7390 -0.7035 -0.6592
  154MOL0     C20673  11.243   3.901   5.899  1.0257 -0.3170  0.4915
  154MOL0     C20674  11.311   4.014   5.897  0.5861 -0.0713 -0.6098
  154MOL0     C20675  11.451   4.018   5.947  0.0640 -0.3756 -0.3327
  154MOL0     C20676  11.523   4.135   5.887  0.1166 -0.3747 -0.0030
  154MOL0     C20677  11.678   4.142   5.912  0.4245  0.1058  0.8662
  154MOL0     C20678  11.749   4.045   5.813 -0.8229  0.0931 -0.5546
  154MOL0     O20679  11.893   4.067   5.819 -0.0700  0.0575 -0.1316
  154MOL0     C20680  11.970   4.017   5.717  0.1021  0.0500  1.5999
  154MOL0     C20681  12.102   4.054   5.722  0.6949  0.0558  0.0480
  154MOL0     C20682  12.197   3.996   5.637 -0.7394  0.1189  0.5738
  154MOL0     C20683  12.154   3.892   5.548  0.2795  0.3065  0.0064
  154MOL0     C20684  12.244   3.848   5.440  0.4862  0.6681  0.5500
  154MOL0     O20685  12.377   3.881   5.460 -0.2464  0.0477 -0.2619
  154MOL0     C20686  12.485   3.829   5.388 -1.0035 -0.6775  0.6179
  154MOL0     C20687  12.597   3.787   5.461 -0.2659 -0.1106 -0.8820
  154MOL0     C20688  12.710   3.734   5.389  0.0671  1.2165 -0.3385
  154MOL0     C20689  12.708   3.728   5.248  1.0899  0.4996 -0.4510
  154MOL0     O20690  12.803   3.677   5.174 -0.1306 -0.3292  0.6345
  154MOL0     C20691  12.937   3.718   5.207 -0.0038  0.1325  0.6037
  154MOL0     C20692  13.037   3.692   5.085  0.0586  0.5458 -1.0908
  154MOL0     C20693  13.063   3.540   5.061 -0.6652  0.3108  1.2288
  154MOL0     C20694  12.939   3.463   4.994 -1.0887 -1.5590  0.5168
  154MOL0     C20695  12.887   3.364   5.079  0.4743  0.2710 -0.4442
  154MOL0     C20696  12.942   3.221   5.036  0.0498 -0.4963  0.1254
  154MOL0     C20697  13.033   3.183   5.151 -0.1752 -0.0811 -0.5298
  154MOL0     C20698  13.093   3.054   5.105 -0.6453 -0.2350 -0.5407
  154MOL0    Cl20699  12.992   2.918   5.172 -0.2847 -0.1041  0.2744
  154MOL0     C20700  12.591   3.767   5.183  0.3105  0.1944  0.3664
  154MOL0     C20701  12.482   3.816   5.248  0.2711  0.1126 -0.6293
  154MOL0     O20702  12.193   3.794   5.339  0.5139  0.0306 -1.0230
  154MOL0     C20703  12.017   3.862   5.540 -0.7681  0.4291 -0.5205
  154MOL0     C20704  11.928   3.919   5.627 -0.0084 -0.1320 -0.7619
  154MOL0     N20705  11.236   4.112   5.844  0.1602 -0.0757  0.1157
  154MOL0     N20706  11.130   4.053   5.788 -0.3376 -0.0008  0.7560
  154MOL0     C20707  10.176   3.699   6.167 -0.3269 -0.2525  0.1462
  154MOL0     C20708  10.215   3.766   6.286 -0.2145 -0.5439  1.2426
  154MOL0     C20709  10.295   4.030   6.636  0.0568 -0.3537 -0.2358
  154MOL0     C20710  10.202   4.131   6.603 -0.0480  0.5021 -0.1343
  154MOL0     C20711  10.158   4.223   6.698 -0.8300  0.5926 -0.2903
  154MOL0     C20712  10.215   4.213   6.828  0.4736 -0.2135 -0.6880
  154MOL0     O20713  10.182   4.298   6.930  0.4637 -0.3205 -0.1853
  154MOL0     C20714  10.058   4.378   6.928  0.0285 -1.0265  0.6868
  154MOL0     C20715   9.922   4.308   6.896  0.9558 -1.2398 -0.0184
  154MOL0     C20716   9.840   4.381   6.784 -0.6956 -0.4950 -0.9443
  154MOL0     C20717   9.704   4.324   6.760  0.1776  0.3837 -0.4294
  154MOL0     C20718   9.691   4.186   6.692 -0.3770 -0.5258 -0.9764
  154MOL0     C20719   9.691   4.079   6.646  1.2554 -0.3864 -0.1812
  154MOL0     C20720  10.307   4.110   6.867 -0.3716  0.3229  1.5856
  154MOL0     C20721  10.346   4.020   6.771  0.7354 -0.3243  0.1510
  154MOL0     C20722  10.451   3.922   6.815 -0.5385  0.0504  0.7034
  154MOL0     H20723  10.252   4.072   6.177 -1.1410  0.1043 -1.0426
  154MOL0     H20724  10.214   3.966   5.959  1.2383 -2.6873 -1.1975
  154MOL0     H20725  10.092   3.673   5.736 -0.4944  3.1842 -2.9718
  154MOL0     H20726  10.157   3.825   5.781 -1.3904 -1.0582 -1.3115
  154MOL0     H20727  10.294   3.707   5.626 -1.5947  0.7175 -0.9145
  154MOL0     H20728  10.333   3.583   5.758  0.6715 -1.0587  1.0929
  154MOL0     H20729  10.450   3.770   5.888  2.1171  2.9975 -0.7431
  154MOL0     H20730  10.393   3.882   5.777  0.8000  0.4466  0.8259
  154MOL0     H20731  10.575   3.634   5.726  1.3903 -0.7287 -1.9460
  154MOL0     H20732  10.533   3.740   5.598 -0.9255  0.2850  0.5283
  154MOL0     H20733  10.655   3.914   5.675  1.4857 -0.1245 -1.2663
  154MOL0     H20734  10.693   3.845   5.835 -1.9507  2.0027 -0.4672
  154MOL0     H20735  10.834   3.667   5.712  2.1626 -0.2653 -1.6517
  154MOL0     H20736  10.785   3.743   5.567  1.9557 -5.1657 -0.1173
  154MOL0     H20737  10.905   3.963   5.673  2.4305  0.8108 -0.2533
  154MOL0     H20738  10.997   3.843   5.593  4.5183  4.3851  1.7194
  154MOL0     H20739  10.946   3.820   5.901  0.5569 -0.1069  1.3197
  154MOL0     H20740  11.051   3.721   5.798 -1.9454 -0.4262  0.0961
  154MOL0     H20741  11.278   3.799   5.912  1.3419 -0.5822 -2.0599
  154MOL0     H20742  11.448   4.022   6.056  1.3005 -1.3938 -0.2332
  154MOL0     H20743  11.509   3.931   5.915  2.0627  1.6454 -2.6395
  154MOL0     H20744  11.509   4.139   5.778  0.8178 -2.7568 -0.2423
  154MOL0     H20745  11.472   4.215   5.941  0.4363 -0.5958  0.6393
  154MOL0     H20746  11.692   4.110   6.016  1.6385  0.8152  0.9364
  154MOL0     H20747  11.712   4.245   5.899 -1.4593  0.4701 -1.8984
  154MOL0     H20748  11.722   4.062   5.708  0.3956 -1.5483 -1.1808
  154MOL0     H20749  11.736   3.942   5.847 -0.1698 -0.3210 -1.5060
  154MOL0     H20750  12.119   4.130   5.798 -2.6204 -0.7445  1.7593
  154MOL0     H20751  12.301   4.027   5.637 -0.9751  1.1418 -1.9925
  154MOL0     H20752  12.589   3.801   5.568 -1.2988 -1.4535 -0.7627
  154MOL0     H20753  12.789   3.701   5.455 -0.7121 -1.4823 -0.6592
  154MOL0     H20754  12.939   3.825   5.228 -1.1766  0.6759 -1.7337
  154MOL0     H20755  12.974   3.662   5.293 -0.0456  0.7173  1.0068
  154MOL0     H20756  12.998   3.734   4.992 -0.7120 -0.1471 -1.0892
  154MOL0     H20757  13.133   3.744   5.092  0.6435 -0.1853 -2.9165
  154MOL0     H20758  13.151   3.525   4.998 -1.1300  2.0985  0.0991
  154MOL0     H20759  13.102   3.499   5.155 -0.1466 -2.1868 -0.0006
  154MOL0     H20760  12.959   3.432   4.891 -3.3010  0.2858 -0.5490
  154MOL0     H20761  12.857   3.533   4.976 -0.6503 -1.4132 -1.0356
  154MOL0     H20762  12.780   3.357   5.058  0.4427  1.4201 -0.7100
  154MOL0     H20763  12.904   3.385   5.185  2.2596 -2.6622 -0.0323
  154MOL0     H20764  12.861   3.153   5.010 -0.0509 -0.6139  0.7270
  154MOL0     H20765  13.004   3.234   4.947 -1.9259  2.6315 -0.9735
  154MOL0     H20766  12.965   3.181   5.237 -1.0644  2.2973 -1.0710
  154MOL0     H20767  13.113   3.255   5.172  0.6936 -1.8473  2.9817
  154MOL0     H20768  13.113   3.038   4.998  0.2160 -2.4802 -0.1072
  154MOL0     H20769  13.191   3.041   5.151  0.1414  0.3062 -2.0179
  154MOL0     H20770  12.597   3.769   5.074  1.4279  1.0675  0.4217
  154MOL0     H20771  12.385   3.847   5.210  1.4991 -0.0220 -4.2775
  154MOL0     H20772  11.983   3.780   5.477  2.1798 -3.4530  2.4364
  154MOL0     H20773  11.820   3.905   5.628 -0.6044  3.1030 -3.2768
  154MOL0     H20774  10.147   3.594   6.173 -3.2740  0.4306 -0.4051
  154MOL0     H20775  10.222   3.719   6.384 -1.3061  0.7948  1.9976
  154MOL0     H20776  10.159   4.157   6.507  2.3088  1.2038 -1.0731
  154MOL0     H20777  10.095   4.305   6.666 -0.3446  1.6675  1.3665
  154MOL0     H20778  10.069   4.457   6.853 -0.2508 -0.6617  1.0317
  154MOL0     H20779  10.059   4.433   7.022 -1.1043 -2.1200  1.3637
  154MOL0     H20780   9.863   4.315   6.988  1.9691 -0.5125  0.5904
  154MOL0     H20781   9.943   4.207   6.861  1.5124 -0.7011 -1.2728
  154MOL0     H20782   9.893   4.353   6.692  0.4271  1.6451 -1.0036
  154MOL0     H20783   9.832   4.487   6.811 -1.3419 -1.4858  3.4383
  154MOL0     H20784   9.663   4.310   6.860  1.5750 -1.6341 -0.0759
  154MOL0     H20785   9.648   4.396   6.699  2.3547  2.7029  0.1647
  154MOL0     H20786   9.687   3.983   6.599  3.9948 -1.4264  1.4595
  154MOL0     H20787  10.360   4.103   6.961  1.1531 -5.3725  0.6585
  154MOL0     H20788  10.511   3.968   6.894  0.4100 -2.2036  1.3813
  154MOL0     H20789  10.406   3.828   6.849 -1.5354  0.3046  0.1283
  154MOL0     H20790  10.504   3.901   6.721 -2.0050 -2.1938  0.2888
  155MOL0     O20791   9.248   8.139   4.371  0.0969 -0.6210 -0.3844
  155MOL0     C20792   9.362   8.097   4.382 -0.0339  0.9115 -0.3852
  155MOL0     O20793   9.472   8.170   4.406 -0.2346 -0.4610  0.2118
  155MOL0     C20794   9.463   8.301   4.411  0.3538  0.0310  0.5075
  155MOL0     C20795   9.440   8.354   4.538 -0.9230 -0.2412 -0.5147
  155MOL0     C20796   9.438   8.497   4.546 -0.1399  0.6005  0.7102
  155MOL0     C20797   9.452   8.574   4.428 -0.5381  1.2588 -0.2265
  155MOL0     O20798   9.457   8.713   4.418  0.1369  0.5678 -0.5453
  155MOL0     C20799   9.435   8.795   4.532 -0.3806  0.9582  0.0623
  155MOL0     C20800   9.420   8.932   4.474 -0.0572 -0.1705 -0.5510
  155MOL0     C20801   9.524   8.977   4.389 -1.4149 -0.6234  0.3723
  155MOL0     C20802   9.528   9.130   4.364  0.0796 -0.2744 -0.1365
  155MOL0     C20803   9.393   9.179   4.316  0.0047  0.0960  0.2571
  155MOL0     C20804   9.387   9.329   4.274 -0.1849 -0.5188 -0.2267
  155MOL0     C20805   9.437   9.434   4.385 -0.2702  0.5662  0.0698
  155MOL0     C20806   9.434   9.570   4.321  0.1462  0.2067  1.0627
  155MOL0     N20807   9.541   9.667   4.358 -0.8530  0.7360 -0.1109
  155MOL0     C20808   9.666   9.650   4.313 -0.4995 -0.1838 -0.1811
  155MOL0     C20809   9.734   9.743   4.381 -0.3621 -0.2057 -0.2421
  155MOL0     C20810   9.883   9.771   4.372  0.4133 -0.3445 -0.2185
  155MOL0     C20811   9.960   9.720   4.492 -0.4980 -0.0149  0.1589
  155MOL0     C20812   9.900   9.584   4.540  0.8079  0.7597  0.2828
  155MOL0     C20813   9.988   9.518   4.639  0.0877 -0.3202 -0.6261
  155MOL0     O20814  10.109   9.458   4.580  0.1719  0.1532  0.2784
  155MOL0     C20815  10.190   9.392   4.662 -1.4430  0.4546  0.3194
  155MOL0     C20816  10.288   9.464   4.724  0.1929 -0.1286 -0.7515
  155MOL0     C20817  10.376   9.404   4.819  0.4579 -0.2118  0.4427
  155MOL0     C20818  10.373   9.260   4.829 -0.2715  0.4901  0.3734
  155MOL0     C20819  10.474   9.190   4.908 -0.1811  0.1637 -0.3660
  155MOL0     O20820  10.466   9.049   4.917 -0.6946 -0.0046 -0.2404
  155MOL0     C20821  10.551   8.989   5.002  0.4462  0.5133 -0.3586
  155MOL0     C20822  10.544   8.992   5.137 -0.3215  0.0131  0.1862
  155MOL0     C20823  10.605   8.896   5.209 -0.3822  0.3521 -0.7548
  155MOL0     C20824  10.683   8.799   5.147 -0.6016 -0.7850 -0.6618
  155MOL0     O20825  10.749   8.703   5.218  0.4272  1.0220  0.3142
  155MOL0     C20826  10.740   8.698   5.364  0.6663 -0.7713  0.3464
  155MOL0     C20827  10.814   8.579   5.417  0.6776 -0.1192 -0.3253
  155MOL0     C20828  10.789   8.534   5.567 -0.1562 -0.4210 -0.1305
  155MOL0     C20829  10.914   8.444   5.610  0.2428 -0.2098 -0.0178
  155MOL0     C20830  10.915   8.407   5.754 -0.1536 -0.3080 -0.6032
  155MOL0     C20831  10.780   8.351   5.795  1.2005 -0.1804  0.4262
  155MOL0     C20832  10.763   8.345   5.943  0.1564 -0.2233 -0.6063
  155MOL0     C20833  10.750   8.479   6.014  0.2169 -0.1690 -0.7907
  155MOL0    Cl20834  10.738   8.469   6.194  0.0680  0.1354  0.2506
  155MOL0     C20835  10.707   8.803   5.014 -0.4448  0.0226  0.2097
  155MOL0     C20836  10.643   8.906   4.940 -0.4560  0.0663 -0.1841
  155MOL0     O20837  10.553   9.266   4.971 -0.1885  0.2296  0.0916
  155MOL0     C20838  10.286   9.190   4.743 -1.7303 -0.2041 -0.6673
  155MOL0     C20839  10.195   9.256   4.668  0.0343  0.9938 -0.2279
  155MOL0     N20840   9.650   9.824   4.454 -0.2064 -0.0603  0.2485
  155MOL0     N20841   9.529   9.763   4.448  1.1887  0.9035 -1.2865
  155MOL0     C20842   9.479   8.516   4.298  0.4835  0.2835 -0.7402
  155MOL0     C20843   9.473   8.374   4.295  0.9691  0.4279 -0.0676
  155MOL0     C20844   9.369   7.948   4.369  0.1336 -0.6321 -1.0373
  155MOL0     C20845   9.496   7.893   4.379 -0.0486 -0.6711  0.0743
  155MOL0     C20846   9.529   7.758   4.348 -0.5497  0.0818 -0.1099
  155MOL0     C20847   9.433   7.667   4.308 -0.5698 -0.4146  0.8015
  155MOL0     O20848   9.474   7.535   4.268 -0.2992 -0.1838 -0.4034
  155MOL0     C20849   9.410   7.472   4.155 -0.6252 -0.0678 -0.4104
  155MOL0     C20850   9.520   7.408   4.062 -0.0341 -0.9869  0.8760
  155MOL0     C20851   9.458   7.360   3.930  0.6096  0.3672 -0.4500
  155MOL0     C20852   9.353   7.247   3.938  0.5783 -1.5005 -0.4803
  155MOL0     C20853   9.213   7.294   3.961 -0.3217 -0.3283  0.2137
  155MOL0     C20854   9.099   7.339   3.966  1.2124  0.8433  0.1039
  155MOL0     C20855   9.303   7.714   4.297 -0.6085 -0.6054 -0.3700
  155MOL0     C20856   9.265   7.851   4.331 -0.9371 -0.0388  0.6668
  155MOL0     C20857   9.123   7.893   4.311  0.3581  0.2328 -0.0049
  155MOL0     H20858   9.428   8.295   4.629  3.7771  1.6724  1.6869
  155MOL0     H20859   9.447   8.545   4.643  4.0613  1.4050  0.1419
  155MOL0     H20860   9.351   8.772   4.599  0.2771  0.2208  0.6539
  155MOL0     H20861   9.522   8.793   4.598  0.0908  1.2433 -0.5405
  155MOL0     H20862   9.418   8.995   4.564  2.7010 -3.6277  2.2845
  155MOL0     H20863   9.327   8.941   4.419 -0.1704  0.8474 -0.2160
  155MOL0     H20864   9.498   8.937   4.290  1.0516 -1.6376  0.0590
  155MOL0     H20865   9.623   8.949   4.427 -1.2452 -2.6383 -1.3527
  155MOL0     H20866   9.565   9.178   4.455  1.4493 -1.1075 -0.2250
  155MOL0     H20867   9.607   9.152   4.291  1.0812 -2.7944  0.1099
  155MOL0     H20868   9.370   9.123   4.225 -2.0482  2.1137 -0.5860
  155MOL0     H20869   9.322   9.163   4.398  1.0863  1.5350  1.5371
  155MOL0     H20870   9.454   9.338   4.188 -0.3759  0.6301 -0.2601
  155MOL0     H20871   9.287   9.353   4.239  0.4416  0.0917 -1.6695
  155MOL0     H20872   9.540   9.408   4.410 -0.0648  2.1528  1.0079
  155MOL0     H20873   9.376   9.442   4.475 -1.7603  3.6030 -1.0675
  155MOL0     H20874   9.440   9.565   4.212  0.0604  1.9777  0.9365
  155MOL0     H20875   9.336   9.612   4.344  0.6087  0.7207  2.1690
  155MOL0     H20876   9.707   9.582   4.239  3.5755  1.1650  0.5539
  155MOL0     H20877   9.928   9.753   4.274  0.3531  0.8275 -0.4773
  155MOL0     H20878   9.904   9.879   4.376 -1.4182  0.0183  0.2504
  155MOL0     H20879  10.066   9.710   4.467 -0.8687 -2.8460 -0.6525
  155MOL0     H20880   9.961   9.789   4.577  2.5638 -0.1124  0.2972
  155MOL0     H20881   9.882   9.513   4.459 -3.5289  1.9712 -0.0473
  155MOL0     H20882   9.798   9.600   4.575  0.4454  0.1108 -0.4440
  155MOL0     H20883   9.927   9.434   4.672  1.0038 -0.0498  1.9885
  155MOL0     H20884  10.016   9.586   4.720  0.9067 -0.5080 -0.7387
  155MOL0     H20885  10.296   9.572   4.717 -2.8347  0.1862 -0.6656
  155MOL0     H20886  10.451   9.466   4.867  1.6661 -0.6222 -0.8288
  155MOL0     H20887  10.480   9.068   5.180  3.0720  3.6837 -0.6383
  155MOL0     H20888  10.603   8.900   5.318 -0.9495  3.4860 -0.7873
  155MOL0     H20889  10.785   8.785   5.411  1.3112 -0.8219 -0.1686
  155MOL0     H20890  10.634   8.678   5.381  0.6570 -1.2376 -0.2120
  155MOL0     H20891  10.782   8.495   5.354 -0.4732  0.3537 -0.4035
  155MOL0     H20892  10.917   8.614   5.405 -0.0841  1.8844 -1.5577
  155MOL0     H20893  10.761   8.617   5.633 -1.2285 -0.9076  0.0582
  155MOL0     H20894  10.696   8.477   5.560 -0.4667  0.0955 -0.2389
  155MOL0     H20895  11.006   8.497   5.583  1.4841 -1.9434  0.5768
  155MOL0     H20896  10.912   8.360   5.539 -4.1090  0.7388 -1.3475
  155MOL0     H20897  10.934   8.492   5.821  1.1846 -1.8086  1.0162
  155MOL0     H20898  10.992   8.334   5.781 -0.0977 -0.7900 -2.0122
  155MOL0     H20899  10.698   8.417   5.765  1.8704  0.0828 -0.8573
  155MOL0     H20900  10.768   8.251   5.751  1.0551 -1.0462  2.3061
  155MOL0     H20901  10.840   8.278   5.983 -2.7168 -2.5102  1.4222
  155MOL0     H20902  10.667   8.297   5.959 -0.0078 -0.1006 -1.2097
  155MOL0     H20903  10.837   8.544   5.999 -0.1093  0.4661  0.0017
  155MOL0     H20904  10.664   8.533   5.975 -0.6166 -1.0131 -0.1742
  155MOL0     H20905  10.776   8.731   4.971  0.1121  2.1782 -2.8175
  155MOL0     H20906  10.649   8.909   4.832 -0.8702  2.3292 -0.1953
  155MOL0     H20907  10.286   9.082   4.747  0.1057 -0.2197 -0.1250
  155MOL0     H20908  10.119   9.197   4.619  0.6527 -0.3891  0.4307
  155MOL0     H20909   9.496   8.568   4.205 -1.6037  3.9701  0.7196
  155MOL0     H20910   9.486   8.312   4.208  3.5110  1.3826 -0.4524
  155MOL0     H20911   9.582   7.955   4.404  2.3079 -3.0455 -1.5259
  155MOL0     H20912   9.630   7.721   4.366  0.6291  2.3387 -1.6762
  155MOL0     H20913   9.348   7.542   4.097  2.3874 -1.4464 -6.0285
  155MOL0     H20914   9.341   7.395   4.189  0.4007  0.4772  3.3519
  155MOL0     H20915   9.570   7.328   4.117  0.0996 -1.8507 -0.4604
  155MOL0     H20916   9.587   7.485   4.023 -0.6926 -0.6334  0.4325
  155MOL0     H20917   9.536   7.319   3.865  2.0017  3.6357 -1.0176
  155MOL0     H20918   9.411   7.444   3.878  0.3674  0.9603  0.6867
  155MOL0     H20919   9.341   7.189   3.846 -1.9570 -1.8927  0.0203
  155MOL0     H20920   9.383   7.177   4.017  1.5429  1.0187  1.5291
  155MOL0     H20921   9.005   7.389   3.952  1.7354  2.0675  0.8805
  155MOL0     H20922   9.230   7.636   4.282 -0.5841 -0.5330 -0.8763
  155MOL0     H20923   9.092   7.964   4.388 -1.8937  0.4269 -1.0164
  155MOL0     H20924   9.137   7.956   4.223  3.7174  0.2509  0.3840
  155MOL0     H20925   9.059   7.805   4.307  2.1510 -1.3055  2.1792
  156MOL0     O20926   2.406   5.093   7.660 -0.0708 -0.9684  0.1317
  156MOL0     C20927   2.346   5.105   7.552 -0.1819  0.2603  0.0862
  156MOL0     O20928   2.401   5.152   7.431 -0.2049  0.6578 -0.6841
  156MOL0     C20929   2.526   5.215   7.427 -0.2185  1.0989 -0.2111
  156MOL0     C20930   2.601   5.262   7.535 -1.0326  0.3490  0.2750
  156MOL0     C20931   2.733   5.304   7.510 -0.5179 -0.1628 -0.2914
  156MOL0     C20932   2.788   5.300   7.384  0.0912  0.0281  0.6101
  156MOL0     O20933   2.909   5.323   7.331  0.4760  0.1598  0.1357
  156MOL0     C20934   3.011   5.347   7.422 -0.9670  0.5214 -0.0630
  156MOL0     C20935   3.135   5.397   7.333  0.3373 -0.0925  1.3817
  156MOL0     C20936   3.265   5.400   7.409 -0.6003  0.9194 -0.6110
  156MOL0     C20937   3.370   5.508   7.352  0.1588  0.7663  0.6176
  156MOL0     C20938   3.416   5.477   7.207 -0.2883  0.2299 -0.3726
  156MOL0     C20939   3.519   5.573   7.163 -0.3440 -0.5927 -0.0613
  156MOL0     C20940   3.541   5.543   7.011  0.2696 -0.0482  0.3990
  156MOL0     C20941   3.654   5.612   6.940 -0.5864  0.4688  0.5798
  156MOL0     N20942   3.792   5.581   6.975  1.2320  0.6979 -0.0008
  156MOL0     C20943   3.849   5.457   6.959  1.1325 -0.6819  0.6140
  156MOL0     C20944   3.974   5.467   7.021  0.1822  0.3398  0.4935
  156MOL0     C20945   4.059   5.349   7.029  0.1319 -0.4053 -1.1202
  156MOL0     C20946   4.056   5.280   7.169 -0.0955 -0.3863  0.1520
  156MOL0     C20947   4.153   5.157   7.182 -0.4791  0.3434  0.5214
  156MOL0     C20948   4.125   5.080   7.303  0.8036  0.2430 -0.2725
  156MOL0     O20949   3.983   5.033   7.281 -1.1971 -0.1158 -0.7106
  156MOL0     C20950   3.908   4.985   7.386  0.0583  0.4848  1.2083
  156MOL0     C20951   3.822   4.873   7.365  0.6126  0.3353  0.0892
  156MOL0     C20952   3.771   4.808   7.481  0.4962  0.0427  0.2364
  156MOL0     C20953   3.804   4.838   7.611  0.5329 -0.5982 -0.8172
  156MOL0     C20954   3.759   4.759   7.724  0.1604  0.5540  0.0274
  156MOL0     O20955   3.674   4.647   7.697  0.0979 -0.4763  0.2773
  156MOL0     C20956   3.658   4.539   7.780  0.0624  0.5959  0.8102
  156MOL0     C20957   3.614   4.430   7.705  0.4520 -0.1200 -0.8368
  156MOL0     C20958   3.601   4.306   7.768  0.4027 -0.2517  0.1449
  156MOL0     C20959   3.598   4.300   7.903 -0.2580 -0.0548 -0.7841
  156MOL0     O20960   3.563   4.190   7.983  0.0020  0.1657  0.3060
  156MOL0     C20961   3.541   4.060   7.914 -0.7272  0.2434 -0.1675
  156MOL0     C20962   3.377   4.073   7.888 -1.0658 -0.3241 -0.4132
  156MOL0     C20963   3.303   4.062   8.010  0.7647 -0.5360 -0.2075
  156MOL0     C20964   3.145   4.055   7.996  0.1352  0.1707  0.1268
  156MOL0     C20965   3.091   4.033   8.127  0.9253 -0.3032 -0.1260
  156MOL0     C20966   3.094   4.149   8.226 -0.4477 -0.1120 -0.2336
  156MOL0     C20967   3.025   4.096   8.355 -0.1289 -0.2153  1.5002
  156MOL0     C20968   3.015   4.216   8.449 -0.0884  0.3543  0.2064
  156MOL0    Cl20969   3.171   4.288   8.485  0.8535  0.3025 -0.0454
  156MOL0     C20970   3.636   4.413   7.982 -0.4048 -0.7709  0.6658
  156MOL0     C20971   3.676   4.531   7.916  0.2038  0.2424  0.8503
  156MOL0     O20972   3.806   4.785   7.836 -0.4124 -0.0078 -0.2031
  156MOL0     C20973   3.883   4.956   7.629  0.0634 -0.9875 -0.6810
  156MOL0     C20974   3.941   5.027   7.517 -0.5428 -0.6185 -1.0501
  156MOL0     N20975   3.987   5.598   7.054  0.0832  0.0560 -0.4612
  156MOL0     N20976   3.882   5.661   7.027  0.5462 -0.6874  0.7084
  156MOL0     C20977   2.708   5.265   7.276  0.0834  0.1161  0.8998
  156MOL0     C20978   2.578   5.223   7.296  0.2100 -0.0848  0.1017
  156MOL0     C20979   2.199   5.069   7.546 -0.4070 -0.2152 -0.6758
  156MOL0     C20980   2.137   5.102   7.422  0.3186 -0.3832  0.0074
  156MOL0     C20981   2.004   5.086   7.397  0.2111  0.0951 -0.3629
  156MOL0     C20982   1.926   5.020   7.491  0.3922  0.3021  1.1546
  156MOL0     O20983   1.796   4.993   7.475 -0.4597  0.8719 -0.2223
  156MOL0     C20984   1.722   5.114   7.496 -0.2336 -0.3345  0.0926
  156MOL0     C20985   1.576   5.080   7.529  0.3521 -0.1603  0.8337
  156MOL0     C20986   1.497   5.210   7.533  0.6968  0.6897 -1.6156
  156MOL0     C20987   1.347   5.184   7.564 -0.7219  0.0666  0.3502
  156MOL0     C20988   1.333   5.166   7.707  0.6736  0.6605  0.7745
  156MOL0     C20989   1.324   5.139   7.826 -0.0446  0.0222  1.1664
  156MOL0     C20990   1.983   4.989   7.608 -0.4878 -0.2704  0.3111
  156MOL0     C20991   2.116   5.014   7.642 -1.0958  0.0932 -0.7605
  156MOL0     C20992   2.160   4.970   7.778 -0.0200  0.9214 -0.3336
  156MOL0     H20993   2.566   5.258   7.638 -0.5382  3.1540  0.6364
  156MOL0     H20994   2.799   5.337   7.590 -0.9977  0.9089 -0.3180
  156MOL0     H20995   2.979   5.423   7.494 -0.4240  0.7292 -0.0384
  156MOL0     H20996   3.042   5.259   7.479 -0.7820  0.6749  0.0769
  156MOL0     H20997   3.122   5.502   7.307  1.7230 -0.0541  0.7417
  156MOL0     H20998   3.141   5.338   7.241  0.2761 -1.2770  2.1194
  156MOL0     H20999   3.302   5.297   7.418 -2.3849  0.4319  4.0115
  156MOL0     H21000   3.249   5.438   7.510 -0.2722  0.5962 -0.4332
  156MOL0     H21001   3.328   5.608   7.343  3.4173  2.1525 -0.4095
  156MOL0     H21002   3.455   5.511   7.420 -0.9980  1.0174  2.0941
  156MOL0     H21003   3.457   5.376   7.199  1.8811  1.1215 -1.5005
  156MOL0     H21004   3.329   5.487   7.142  0.4147  0.5944 -1.2908
  156MOL0     H21005   3.489   5.675   7.191  0.3016 -0.6368  0.8228
  156MOL0     H21006   3.603   5.555   7.230  0.3370  0.0716 -0.7244
  156MOL0     H21007   3.458   5.583   6.952  0.2446  0.7573  0.9632
  156MOL0     H21008   3.545   5.435   6.991  1.8435  0.2439 -1.0917
  156MOL0     H21009   3.652   5.590   6.832  2.3133  0.2716  0.5002
  156MOL0     H21010   3.645   5.721   6.943 -1.0321  0.5286 -1.3346
  156MOL0     H21011   3.794   5.380   6.907 -2.0007  1.0489  1.0972
  156MOL0     H21012   4.038   5.281   6.945 -1.2647 -1.2821 -0.1084
  156MOL0     H21013   4.158   5.389   7.005 -0.6884  2.1424 -0.5039
  156MOL0     H21014   4.065   5.359   7.244  3.1217 -0.1983 -0.2513
  156MOL0     H21015   3.952   5.250   7.179 -0.0722 -0.2859  0.7138
  156MOL0     H21016   4.261   5.175   7.187  0.1809 -3.0872  0.7592
  156MOL0     H21017   4.138   5.090   7.097 -0.1584 -3.4429  3.2119
  156MOL0     H21018   4.142   5.142   7.392 -2.2820  0.2594  0.4125
  156MOL0     H21019   4.184   4.989   7.313  0.7583  0.4276  2.2630
  156MOL0     H21020   3.801   4.840   7.263  2.1697  2.3554 -0.9536
  156MOL0     H21021   3.693   4.739   7.453  1.6526 -1.0251 -0.4833
  156MOL0     H21022   3.601   4.439   7.597 -1.1469 -0.2430 -0.6750
  156MOL0     H21023   3.565   4.222   7.709 -3.1734  0.6793  0.7572
  156MOL0     H21024   3.607   4.049   7.827  1.0205  2.2947  0.7916
  156MOL0     H21025   3.563   3.985   7.990  1.1425 -0.0354 -0.9178
  156MOL0     H21026   3.365   4.176   7.853 -1.3558  0.1679  1.0314
  156MOL0     H21027   3.342   4.005   7.811  0.9709 -1.2871 -0.5423
  156MOL0     H21028   3.330   3.962   8.045  4.4619  0.5921  0.6576
  156MOL0     H21029   3.336   4.133   8.086 -0.1692 -0.3676  0.0547
  156MOL0     H21030   3.121   3.975   7.925  1.3694  0.6411 -0.8803
  156MOL0     H21031   3.104   4.144   7.948 -2.2147 -0.8251  0.1668
  156MOL0     H21032   3.132   3.935   8.155  0.6260 -0.6134 -0.7539
  156MOL0     H21033   2.985   4.014   8.109  1.9473 -3.6256 -4.3226
  156MOL0     H21034   3.194   4.185   8.251  0.2199 -2.0210  0.0169
  156MOL0     H21035   3.050   4.242   8.190  0.5594  0.8283  0.8827
  156MOL0     H21036   3.081   4.009   8.390 -1.7067 -1.8994  0.0719
  156MOL0     H21037   2.929   4.054   8.322  0.0691  0.5163 -0.0948
  156MOL0     H21038   2.940   4.283   8.405 -3.7393 -4.5422 -1.9575
  156MOL0     H21039   2.973   4.176   8.542 -1.9193  4.5838  1.4560
  156MOL0     H21040   3.647   4.409   8.090 -0.1418 -1.1205  0.6290
  156MOL0     H21041   3.722   4.608   7.976  4.0090  0.5685 -2.0946
  156MOL0     H21042   3.907   4.982   7.732 -1.2377  2.0019 -1.0166
  156MOL0     H21043   4.005   5.112   7.537 -0.6618 -0.4348 -1.4344
  156MOL0     H21044   2.741   5.273   7.173  0.6402  1.4959  1.1541
  156MOL0     H21045   2.507   5.187   7.222 -1.0012  0.9705  0.7286
  156MOL0     H21046   2.199   5.143   7.343 -0.0704  0.0656 -0.0707
  156MOL0     H21047   1.966   5.115   7.299  1.7752  1.3339 -0.6406
  156MOL0     H21048   1.722   5.189   7.416 -2.6649 -0.6631 -0.2922
  156MOL0     H21049   1.760   5.163   7.586  1.7730 -0.8752 -0.4145
  156MOL0     H21050   1.570   5.016   7.617  1.7494 -2.6507 -0.7880
  156MOL0     H21051   1.535   5.018   7.449  2.2139  0.4358 -0.6659
  156MOL0     H21052   1.502   5.255   7.434 -1.0101 -0.7683 -2.4385
  156MOL0     H21053   1.543   5.280   7.603  0.6125  0.7578 -1.6287
  156MOL0     H21054   1.280   5.259   7.522 -0.7236 -0.5389 -0.7692
  156MOL0     H21055   1.324   5.090   7.513 -2.2913  1.6740 -2.1184
  156MOL0     H21056   1.300   5.127   7.930 -3.6524  1.1539  0.5901
  156MOL0     H21057   1.916   4.957   7.688 -0.4124  1.3913  1.0776
  156MOL0     H21058   2.245   4.901   7.772  1.4553  2.7035 -0.5229
  156MOL0     H21059   2.196   5.053   7.839 -1.5896  0.8498  0.7807
  156MOL0     H21060   2.083   4.920   7.840 -0.2045  0.2892 -1.0559
  157MOL0     O21061   6.889   1.058  10.006  0.1564 -0.0536 -0.0452
  157MOL0     C21062   6.894   0.937  10.042 -1.0812 -0.5672 -0.0047
  157MOL0     O21063   7.012   0.858  10.055  0.0768 -0.6567 -0.1088
  157MOL0     C21064   7.120   0.941  10.037 -0.4942  0.7717 -0.3062
  157MOL0     C21065   7.199   0.922   9.926 -0.2813  0.3793  0.3235
  157MOL0     C21066   7.316   0.997   9.924 -0.0583 -1.0211  0.4087
  157MOL0     C21067   7.363   1.064  10.031 -0.7089  0.4749  0.7326
  157MOL0     O21068   7.480   1.138  10.004  0.3786 -0.0847 -0.4665
  157MOL0     C21069   7.591   1.137  10.094  0.8809 -0.1364  0.2308
  157MOL0     C21070   7.686   1.232  10.019 -0.1775  0.3045 -0.2672
  157MOL0     C21071   7.836   1.243  10.062  0.1774 -0.6756 -0.3975
  157MOL0     C21072   7.912   1.292   9.944  0.3238 -0.9439  0.6400
  157MOL0     C21073   8.044   1.344  10.000  0.7694  0.1268 -0.9527
  157MOL0     C21074   8.142   1.362   9.885  0.0810 -0.3012 -0.7516
  157MOL0     C21075   8.268   1.447   9.934  0.2603 -0.6984  0.4654
  157MOL0     C21076   8.218   1.591   9.933  0.3399  0.1960  0.3890
  157MOL0     N21077   8.329   1.680   9.981  0.3707  0.5524  0.0047
  157MOL0     C21078   8.430   1.738   9.916 -0.2192  1.2436  0.5687
  157MOL0     C21079   8.534   1.759   9.999 -0.2062 -0.4933 -0.5618
  157MOL0     C21080   8.674   1.802   9.969 -0.1237 -0.2702 -0.6363
  157MOL0     C21081   8.748   1.851  10.089 -0.3234  1.2396 -0.1816
  157MOL0     C21082   8.877   1.936  10.057  0.1831  0.9188 -0.4611
  157MOL0     C21083   8.957   1.872   9.943  0.0601  0.2008 -0.9743
  157MOL0     O21084   9.004   1.751  10.005 -0.5871 -0.9332  0.2846
  157MOL0     C21085   9.077   1.662   9.929 -0.1323  0.0364 -1.0366
  157MOL0     C21086   9.085   1.529   9.975 -0.1891  0.0161  0.0021
  157MOL0     C21087   9.146   1.430   9.896  0.8081 -0.5049 -0.1496
  157MOL0     C21088   9.202   1.452   9.776  0.2942 -0.1516 -0.8231
  157MOL0     C21089   9.273   1.355   9.697 -0.4753 -0.2000 -0.6918
  157MOL0     O21090   9.283   1.384   9.563 -0.5577 -0.1907 -0.0017
  157MOL0     C21091   9.361   1.322   9.470 -0.2528  0.1853  0.4335
  157MOL0     C21092   9.472   1.388   9.393  0.5859 -0.0294 -0.6340
  157MOL0     C21093   9.538   1.308   9.297  0.1937  0.4820  0.0392
  157MOL0     C21094   9.500   1.168   9.287 -0.3230  0.3319 -1.2713
  157MOL0     O21095   9.556   1.118   9.168  0.6729  0.1357 -0.8571
  157MOL0     C21096   9.568   0.982   9.159 -0.3758  0.5909 -0.1211
  157MOL0     C21097   9.669   0.951   9.047 -0.3798 -0.1987  1.0706
  157MOL0     C21098   9.670   0.801   9.037  0.3244  0.4893  0.1294
  157MOL0     C21099   9.793   0.750   8.960 -1.0411 -0.6106  0.3994
  157MOL0     C21100   9.794   0.596   8.955  0.1418 -0.1833  0.2573
  157MOL0     C21101   9.677   0.534   8.875 -0.5167  0.7048 -0.3256
  157MOL0     C21102   9.635   0.585   8.742  0.2978 -1.1411 -0.3380
  157MOL0     C21103   9.729   0.568   8.629  0.1723 -0.0046  0.1699
  157MOL0    Cl21104   9.889   0.634   8.663  0.2994  0.5341  0.1026
  157MOL0     C21105   9.403   1.103   9.367 -0.6685 -0.6933 -0.9877
  157MOL0     C21106   9.335   1.184   9.453  0.3840  0.2060  0.6055
  157MOL0     O21107   9.313   1.256   9.758  0.4355  0.5320  0.2657
  157MOL0     C21108   9.190   1.587   9.722  0.0908 -0.1116  0.8150
  157MOL0     C21109   9.126   1.684   9.804 -0.2914  0.6404 -0.0334
  157MOL0     N21110   8.504   1.698  10.121  0.3061 -0.1753 -0.8198
  157MOL0     N21111   8.382   1.653  10.105  0.5025  0.9341  0.0093
  157MOL0     C21112   7.285   1.075  10.146 -0.1869 -0.2049  0.3216
  157MOL0     C21113   7.163   1.011  10.153 -0.3520  0.4410 -0.1908
  157MOL0     C21114   6.767   0.873  10.086 -0.5404 -0.1967  0.4695
  157MOL0     C21115   6.769   0.735  10.112 -0.5883 -0.3179 -0.8404
  157MOL0     C21116   6.655   0.662  10.149  0.3724 -0.9554  0.4445
  157MOL0     C21117   6.530   0.724  10.154 -0.3820 -0.6934  0.2068
  157MOL0     O21118   6.417   0.645  10.167  0.9210  0.1501  0.0802
  157MOL0     C21119   6.281   0.695  10.142  0.1732 -0.0340  1.1857
  157MOL0     C21120   6.275   0.722   9.995 -0.3613 -0.4251  1.0861
  157MOL0     C21121   6.287   0.595   9.906  0.0210 -0.2023  0.9879
  157MOL0     C21122   6.390   0.603   9.797  0.5026  0.6545  0.1463
  157MOL0     C21123   6.371   0.477   9.724 -0.9348 -1.1766 -0.2264
  157MOL0     C21124   6.366   0.371   9.660 -0.3344  0.7588  1.0754
  157MOL0     C21125   6.532   0.867  10.137 -0.1088 -0.8661 -0.1198
  157MOL0     C21126   6.646   0.946  10.109 -0.3632  0.4331 -1.0796
  157MOL0     C21127   6.636   1.099  10.096 -0.0304  0.3999  0.2247
  157MOL0     H21128   7.171   0.862   9.840 -1.0506 -0.4106  1.1083
  157MOL0     H21129   7.378   0.997   9.835 -2.3301 -0.4028 -1.2726
  157MOL0     H21130   7.560   1.169  10.194  0.5007 -1.2103  0.4733
  157MOL0     H21131   7.631   1.036  10.097 -1.9741 -1.5475 -2.8485
  157MOL0     H21132   7.642   1.331  10.039 -0.3152  0.4453 -1.2080
  157MOL0     H21133   7.684   1.203   9.913 -3.6342  0.1777 -0.3094
  157MOL0     H21134   7.868   1.140  10.078 -2.1733 -1.4248 -0.0698
  157MOL0     H21135   7.850   1.302  10.153  0.5059 -1.5965  0.1530
  157MOL0     H21136   7.938   1.213   9.872  2.1403  1.9060 -2.0846
  157MOL0     H21137   7.868   1.371   9.882  2.2392 -0.7357 -0.5644
  157MOL0     H21138   8.029   1.432  10.063  0.3637 -1.2372  0.9069
  157MOL0     H21139   8.077   1.266  10.068  2.3435  0.7016 -1.0243
  157MOL0     H21140   8.170   1.261   9.852 -2.5892 -1.1874 -0.5496
  157MOL0     H21141   8.096   1.410   9.799 -2.0371 -1.9211 -0.5985
  157MOL0     H21142   8.359   1.441   9.872 -0.5405  2.0330 -1.1596
  157MOL0     H21143   8.290   1.418  10.037  1.2131  2.6754  1.3444
  157MOL0     H21144   8.185   1.625   9.835  0.0594  0.7380  0.6677
  157MOL0     H21145   8.135   1.609  10.001  1.3436 -2.8715  2.6856
  157MOL0     H21146   8.442   1.758   9.809 -2.4013  2.3382  0.4863
  157MOL0     H21147   8.727   1.715   9.927  1.3116  1.4486 -2.5751
  157MOL0     H21148   8.685   1.883   9.896 -2.2660 -1.3888 -2.3113
  157MOL0     H21149   8.674   1.893  10.158 -0.6539  0.5431 -0.1087
  157MOL0     H21150   8.777   1.755  10.132  2.6383  2.2688  0.3296
  157MOL0     H21151   8.945   1.932  10.143 -0.0606  0.9616 -0.2670
  157MOL0     H21152   8.847   2.036  10.026 -4.0721  0.1600  0.5911
  157MOL0     H21153   9.040   1.932   9.903 -0.1096 -0.5113 -2.4761
  157MOL0     H21154   8.888   1.861   9.859 -1.2078  0.0865  0.0598
  157MOL0     H21155   9.043   1.510  10.073  0.6713  1.2240  0.6341
  157MOL0     H21156   9.147   1.336   9.949 -3.0943 -1.4361 -1.4066
  157MOL0     H21157   9.506   1.490   9.401  2.7227 -0.7999  0.9661
  157MOL0     H21158   9.616   1.343   9.230 -1.8697  0.9352 -2.2649
  157MOL0     H21159   9.603   0.938   9.253 -1.8228  1.0890  0.6771
  157MOL0     H21160   9.474   0.932   9.132 -0.8802  2.0526 -1.1821
  157MOL0     H21161   9.629   0.992   8.954 -4.8805 -3.8434  1.0112
  157MOL0     H21162   9.765   1.002   9.059 -0.6663  0.6831 -0.1542
  157MOL0     H21163   9.683   0.760   9.137  1.0135 -4.4304 -1.7172
  157MOL0     H21164   9.572   0.770   9.000 -0.0269  3.0276 -1.3461
  157MOL0     H21165   9.881   0.777   9.020 -1.5830 -1.3846  1.5770
  157MOL0     H21166   9.810   0.798   8.863  0.7725  2.5377  2.0973
  157MOL0     H21167   9.807   0.551   9.054  1.4575 -2.0411 -0.6923
  157MOL0     H21168   9.881   0.565   8.895  0.1524  1.2222 -0.5013
  157MOL0     H21169   9.702   0.427   8.873  2.5021  1.2625  1.4840
  157MOL0     H21170   9.589   0.543   8.939  2.5074  2.9412  4.0548
  157MOL0     H21171   9.611   0.692   8.740  2.3572 -0.6361 -1.1204
  157MOL0     H21172   9.540   0.540   8.714 -1.4879  1.4109  1.2373
  157MOL0     H21173   9.746   0.461   8.610 -0.1662  0.3751 -2.8779
  157MOL0     H21174   9.681   0.590   8.532  0.1181 -1.8671 -0.2635
  157MOL0     H21175   9.381   0.999   9.345 -0.8705 -0.8056 -0.2727
  157MOL0     H21176   9.251   1.139   9.504 -0.9926  1.2448 -0.6692
  157MOL0     H21177   9.240   1.618   9.630 -1.3058 -3.0278 -1.0605
  157MOL0     H21178   9.128   1.786   9.768 -1.3813  2.3431  4.1511
  157MOL0     H21179   7.307   1.151  10.220 -1.3211  1.0233 -0.5441
  157MOL0     H21180   7.099   1.026  10.239 -1.4969  0.4176 -1.0125
  157MOL0     H21181   6.856   0.670  10.105 -1.6477 -1.8937 -0.0846
  157MOL0     H21182   6.667   0.555  10.163  2.1988 -0.3582  4.7365
  157MOL0     H21183   6.267   0.789  10.196  1.0603  0.6027  0.3625
  157MOL0     H21184   6.206   0.620  10.167  0.0931 -1.0257 -1.6421
  157MOL0     H21185   6.342   0.804   9.968 -0.9097 -0.6120 -1.0585
  157MOL0     H21186   6.177   0.767   9.975  0.5878  2.0598  1.6218
  157MOL0     H21187   6.188   0.555   9.882  0.5716 -1.3585  0.6034
  157MOL0     H21188   6.319   0.508   9.964  2.4487 -0.1476 -0.1405
  157MOL0     H21189   6.381   0.683   9.723  4.5515 -0.0820 -1.3529
  157MOL0     H21190   6.491   0.612   9.838  0.2832  0.0030  0.8509
  157MOL0     H21191   6.349   0.284   9.600  1.7314 -0.7186  2.4922
  157MOL0     H21192   6.437   0.919  10.147  0.3286 -0.2348  0.9829
  157MOL0     H21193   6.707   1.152  10.160  0.0760 -0.6181  0.9620
  157MOL0     H21194   6.642   1.133   9.992  1.4644 -1.7216 -0.4402
  157MOL0     H21195   6.542   1.138  10.137 -0.9632 -0.0333 -1.4001
  158MOL0     O21196   7.300   3.985   9.761 -0.0696  0.5275 -0.3197
  158MOL0     C21197   7.250   3.879   9.765 -0.2777  0.6686  0.1163
  158MOL0     O21198   7.188   3.822   9.872 -0.4905 -0.7107  0.2744
  158MOL0     C21199   7.150   3.890   9.983  0.0371  0.5170 -0.2362
  158MOL0     C21200   7.166   3.825  10.106 -0.0953 -0.5157  0.3070
  158MOL0     C21201   7.159   3.891  10.229  0.3214 -0.4514  0.2465
  158MOL0     C21202   7.135   4.027  10.233  0.7445 -0.2456  0.0198
  158MOL0     O21203   7.122   4.091  10.355  0.0591 -0.6301 -1.2757
  158MOL0     C21204   7.098   4.231  10.356  0.1969 -0.2919  0.7311
  158MOL0     C21205   7.113   4.309  10.492  0.2024  0.2090  1.1017
  158MOL0     C21206   7.263   4.335  10.517  0.9954 -1.4649 -0.4277
  158MOL0     C21207   7.332   4.217  10.565  0.3055  0.9487 -0.7091
  158MOL0     C21208   7.483   4.230  10.554 -0.2470 -0.0402  0.6592
  158MOL0     C21209   7.568   4.128  10.626  0.4073  0.2934 -0.4828
  158MOL0     C21210   7.720   4.156  10.608  0.2873 -0.0161 -0.6388
  158MOL0     C21211   7.762   4.287  10.676  0.4471 -0.3676 -0.3905
  158MOL0     N21212   7.901   4.306  10.649 -0.6308 -0.3879  0.1284
  158MOL0     C21213   7.980   4.391  10.714  0.1455  0.4809  0.2082
  158MOL0     C21214   8.105   4.367  10.686 -0.5249 -0.6024  1.0901
  158MOL0     C21215   8.231   4.434  10.742  0.3645  1.0216 -0.5111
  158MOL0     C21216   8.350   4.353  10.686  0.6168 -0.3965  0.5263
  158MOL0     C21217   8.481   4.393  10.771 -0.6432  0.1258 -0.0716
  158MOL0     C21218   8.587   4.295  10.731 -0.1029 -1.2574  0.3256
  158MOL0     O21219   8.698   4.323  10.814 -0.1570  0.3629  0.6613
  158MOL0     C21220   8.800   4.412  10.788 -0.2887  0.4493 -0.5834
  158MOL0     C21221   8.853   4.482  10.903 -1.4027 -0.0175  0.1524
  158MOL0     C21222   8.965   4.557  10.883 -1.4659 -0.4577  0.0449
  158MOL0     C21223   9.035   4.564  10.759 -0.5358 -0.5528 -0.2593
  158MOL0     C21224   9.169   4.636  10.750  0.2820  0.3256  0.3235
  158MOL0     O21225   9.217   4.656  10.628 -0.2663 -0.0564 -0.5580
  158MOL0     C21226   9.324   4.742  10.618 -0.1323  0.6139 -0.1530
  158MOL0     C21227   9.418   4.691  10.526 -0.3900 -0.0668  0.0481
  158MOL0     C21228   9.519   4.785  10.489 -0.6392  1.2747 -0.5764
  158MOL0     C21229   9.521   4.916  10.534  0.0344 -0.3662  0.4983
  158MOL0     O21230   9.618   5.003  10.491  0.0318  0.3676 -0.0098
  158MOL0     C21231   9.631   5.030  10.347 -1.6938  0.6805 -0.9754
  158MOL0     C21232   9.749   5.115  10.317  0.0507 -0.8525  0.1069
  158MOL0     C21233   9.746   5.264  10.369 -1.1853 -0.1843 -0.2528
  158MOL0     C21234   9.865   5.351  10.327 -0.9740 -0.2018 -0.3125
  158MOL0     C21235   9.870   5.479  10.402 -0.8897  0.0892 -0.6405
  158MOL0     C21236   9.990   5.576  10.382 -0.3005  0.7189 -0.2649
  158MOL0     C21237  10.010   5.615  10.235  0.4459 -0.5675  1.0354
  158MOL0     C21238  10.147   5.695  10.216  0.1579 -0.1483 -0.7408
  158MOL0    Cl21239  10.216   5.660  10.058  0.0452  0.3109 -0.1671
  158MOL0     C21240   9.425   4.962  10.620 -0.1143  0.3670  0.6310
  158MOL0     C21241   9.327   4.870  10.666  0.3746  0.2494 -0.5255
  158MOL0     O21242   9.227   4.656  10.862 -0.2901 -0.0654 -0.0551
  158MOL0     C21243   8.968   4.516  10.645  0.1680 -0.0499 -0.6676
  158MOL0     C21244   8.846   4.438  10.666  0.7592  0.2461 -0.6369
  158MOL0     N21245   8.111   4.268  10.580 -1.0035  0.2627  0.1852
  158MOL0     N21246   7.987   4.229  10.572 -0.1859  0.5685  0.5550
  158MOL0     C21247   7.103   4.096  10.107  0.6165 -0.1306  0.4924
  158MOL0     C21248   7.112   4.025   9.979  0.1430 -0.6859 -0.2409
  158MOL0     C21249   7.290   3.780   9.657 -0.6625 -0.5290  0.1275
  158MOL0     C21250   7.263   3.642   9.669  0.8488  0.7350 -0.0425
  158MOL0     C21251   7.284   3.542   9.568 -0.2065  0.2401  0.1633
  158MOL0     C21252   7.364   3.574   9.451  0.4566  0.5204  1.0122
  158MOL0     O21253   7.404   3.474   9.364  0.3865 -0.1443 -0.0268
  158MOL0     C21254   7.504   3.507   9.266 -0.5140 -1.2477 -0.6222
  158MOL0     C21255   7.540   3.383   9.180  0.0940  0.7417 -0.8125
  158MOL0     C21256   7.594   3.268   9.273 -0.0415  0.2259  0.8232
  158MOL0     C21257   7.648   3.151   9.183 -1.0491  0.7368  0.5637
  158MOL0     C21258   7.536   3.064   9.145 -0.6274 -0.2376 -1.0442
  158MOL0     C21259   7.437   2.999   9.137  0.8615  0.3197  0.6100
  158MOL0     C21260   7.403   3.710   9.447  0.0938  0.0606 -0.8703
  158MOL0     C21261   7.377   3.813   9.550  0.0041  0.2580  0.2203
  158MOL0     C21262   7.439   3.946   9.519 -0.4609  0.3098  0.2060
  158MOL0     H21263   7.183   3.718  10.105  0.4248 -0.4619 -1.5238
  158MOL0     H21264   7.179   3.833  10.319  1.9797  0.7528  0.6945
  158MOL0     H21265   7.158   4.279  10.279  2.4143 -2.9567  0.6441
  158MOL0     H21266   6.991   4.235  10.333  0.5223 -1.8465 -1.3653
  158MOL0     H21267   7.052   4.262  10.569  0.4709 -0.5568  0.8544
  158MOL0     H21268   7.078   4.411  10.475 -0.9406 -0.2759  0.4180
  158MOL0     H21269   7.283   4.414  10.590 -0.2845  1.2044 -2.7724
  158MOL0     H21270   7.313   4.385  10.434  2.2539  1.1730  1.7533
  158MOL0     H21271   7.300   4.191  10.666  0.2768 -0.4461 -1.0662
  158MOL0     H21272   7.311   4.136  10.495 -1.2014 -0.4349  1.2200
  158MOL0     H21273   7.527   4.257  10.457  3.0658  0.6932  2.2108
  158MOL0     H21274   7.509   4.323  10.606  1.3722  0.5068 -0.9876
  158MOL0     H21275   7.543   4.127  10.733 -2.6324 -2.6658 -1.0581
  158MOL0     H21276   7.550   4.027  10.588 -0.1618 -1.4492  3.8754
  158MOL0     H21277   7.748   4.152  10.502  2.8852  1.6968 -0.1226
  158MOL0     H21278   7.776   4.071  10.646  3.4991  2.2132 -0.0438
  158MOL0     H21279   7.697   4.369  10.643 -1.3888 -0.6283  2.2418
  158MOL0     H21280   7.733   4.287  10.782 -2.9062  2.4605 -1.1140
  158MOL0     H21281   7.942   4.463  10.786  0.4547 -0.7705  1.6681
  158MOL0     H21282   8.232   4.538  10.706  0.2189  1.1879 -0.0377
  158MOL0     H21283   8.230   4.426  10.851  2.7314  1.6679 -0.3915
  158MOL0     H21284   8.344   4.244  10.684  0.2193 -0.3826  0.9572
  158MOL0     H21285   8.370   4.385  10.583  3.2603 -2.2578  0.3584
  158MOL0     H21286   8.454   4.384  10.876 -0.3803 -0.2568 -0.0357
  158MOL0     H21287   8.509   4.497  10.753 -1.6382  0.2864 -0.8285
  158MOL0     H21288   8.599   4.307  10.623  0.1259 -0.4964  0.4286
  158MOL0     H21289   8.569   4.187  10.734 -0.1433 -1.3336 -1.6651
  158MOL0     H21290   8.811   4.453  10.998 -0.8590 -2.0012 -0.1759
  158MOL0     H21291   9.018   4.606  10.964  2.4332 -2.4287 -1.0700
  158MOL0     H21292   9.402   4.587  10.500 -0.3733  0.2865 -1.4449
  158MOL0     H21293   9.592   4.747  10.419  1.4640 -0.2906  2.2452
  158MOL0     H21294   9.668   4.934  10.309 -0.3390 -0.2396  2.3029
  158MOL0     H21295   9.543   5.062  10.291 -2.1646 -0.3566 -0.8575
  158MOL0     H21296   9.849   5.076  10.340  0.4046  1.4358  3.0441
  158MOL0     H21297   9.746   5.121  10.208 -1.8388  1.6119  0.2265
  158MOL0     H21298   9.660   5.322  10.334  0.7671  3.6589  0.7679
  158MOL0     H21299   9.738   5.261  10.478 -1.1860  0.0821 -0.2456
  158MOL0     H21300   9.871   5.367  10.219 -0.6391 -1.2081 -0.4575
  158MOL0     H21301   9.961   5.304  10.348  1.6650  4.4772 -0.5778
  158MOL0     H21302   9.869   5.456  10.509  1.7245  0.5727 -0.4511
  158MOL0     H21303   9.773   5.531  10.396 -1.5242 -0.6591  1.9226
  158MOL0     H21304   9.964   5.662  10.445 -1.6565  0.0478  0.1215
  158MOL0     H21305  10.078   5.526  10.422  0.6159 -0.9277 -3.9254
  158MOL0     H21306   9.934   5.690  10.209  0.9239 -0.2993  0.3875
  158MOL0     H21307  10.010   5.521  10.180  2.3361 -0.9259  1.5916
  158MOL0     H21308  10.119   5.799  10.235 -0.6864 -0.4558 -0.2515
  158MOL0     H21309  10.219   5.657  10.289  0.1368  0.5936 -0.3314
  158MOL0     H21310   9.429   5.062  10.662 -1.2899 -0.4689  2.8992
  158MOL0     H21311   9.253   4.909  10.735 -0.3635  0.1770 -1.2672
  158MOL0     H21312   9.001   4.519  10.542  0.0335 -2.3963 -0.8379
  158MOL0     H21313   8.788   4.391  10.587  0.0072 -2.9290  1.6032
  158MOL0     H21314   7.058   4.194  10.094 -1.6497 -0.8304  2.3307
  158MOL0     H21315   7.094   4.083   9.889  1.7788 -0.2428 -0.3158
  158MOL0     H21316   7.217   3.616   9.763  0.7090 -2.4902 -0.8936
  158MOL0     H21317   7.240   3.445   9.590 -0.3188  0.3984  0.6529
  158MOL0     H21318   7.592   3.551   9.314 -0.1565 -0.6462 -1.7679
  158MOL0     H21319   7.461   3.573   9.190  0.0603 -0.6478 -0.4367
  158MOL0     H21320   7.608   3.406   9.097  2.4361  2.2096  1.3822
  158MOL0     H21321   7.449   3.349   9.130  1.6261 -1.7442 -2.1464
  158MOL0     H21322   7.520   3.216   9.334 -1.1746 -1.1849 -1.6148
  158MOL0     H21323   7.684   3.298   9.327 -0.2494 -0.3167  1.4880
  158MOL0     H21324   7.702   3.187   9.094  2.3085 -1.5351  1.5044
  158MOL0     H21325   7.727   3.102   9.240  1.0076  3.7650  0.5718
  158MOL0     H21326   7.359   2.926   9.137  1.2430 -0.0940 -0.2342
  158MOL0     H21327   7.452   3.736   9.354 -1.8811  1.3524 -1.6242
  158MOL0     H21328   7.497   4.000   9.594 -0.1030  0.4997 -0.2060
  158MOL0     H21329   7.499   3.938   9.428 -0.8774  0.6098 -0.0970
  158MOL0     H21330   7.360   4.014   9.486 -0.0686 -1.5423 -5.5557
  159MOL0     O21331   9.745   0.369   2.841 -0.5445 -0.2560 -0.2515
  159MOL0     C21332   9.633   0.337   2.883 -1.0543  0.2452  0.1205
  159MOL0     O21333   9.610   0.328   3.015  0.1857 -0.0495  0.2187
  159MOL0     C21334   9.701   0.356   3.108  0.5078 -0.4160  0.2294
  159MOL0     C21335   9.694   0.476   3.179 -0.2802 -0.0817 -0.2563
  159MOL0     C21336   9.782   0.506   3.286  0.4474 -0.1633  0.0953
  159MOL0     C21337   9.885   0.413   3.312  0.0353 -0.2693 -0.4997
  159MOL0     O21338   9.987   0.428   3.405  0.2516 -0.1636 -0.1373
  159MOL0     C21339   9.959   0.501   3.523  0.2475  0.0188  0.1993
  159MOL0     C21340  10.021   0.426   3.644 -0.3659 -0.3748  0.1766
  159MOL0     C21341   9.953   0.291   3.672  0.1701  0.5081 -0.1178
  159MOL0     C21342  10.026   0.179   3.602 -0.2693 -0.2190 -0.0044
  159MOL0     C21343   9.968   0.040   3.638  0.3969 -0.0719  0.4112
  159MOL0     C21344   9.955   0.001   3.786 -0.1594 -0.9170 -0.6280
  159MOL0     C21345   9.901  -0.143   3.807 -0.2434  0.2469 -0.2052
  159MOL0     C21346   9.984  -0.263   3.782 -0.4147  0.1927 -0.0247
  159MOL0     N21347  10.111  -0.253   3.844 -0.9027 -0.1580  0.3430
  159MOL0     C21348  10.222  -0.176   3.793 -0.0806 -0.7625 -0.3984
  159MOL0     C21349  10.324  -0.226   3.868 -0.3152  0.0798  0.1911
  159MOL0     C21350  10.467  -0.173   3.866 -0.2330  0.1334 -0.4292
  159MOL0     C21351  10.563  -0.243   3.773  0.1790  0.3093  0.1517
  159MOL0     C21352  10.657  -0.132   3.719  0.5009 -0.0309 -0.9184
  159MOL0     C21353  10.780  -0.187   3.649  0.6270  0.5538 -0.0816
  159MOL0     O21354  10.892  -0.121   3.703 -0.2040 -0.2791  1.2936
  159MOL0     C21355  10.951  -0.168   3.817 -0.1869  0.0907 -0.7882
  159MOL0     C21356  10.902  -0.241   3.920 -0.0928 -0.0940 -0.9541
  159MOL0     C21357  10.979  -0.268   4.034  0.7284 -0.0803  0.4706
  159MOL0     C21358  11.107  -0.226   4.053 -0.3447  0.0407  0.0032
  159MOL0     C21359  11.197  -0.257   4.174  0.1423 -0.9968  0.1453
  159MOL0     O21360  11.285  -0.161   4.209 -0.2994 -0.1165 -0.5771
  159MOL0     C21361  11.382  -0.199   4.299  0.1436  0.5388  0.0198
  159MOL0     C21362  11.434  -0.097   4.383  0.2098  0.1849  0.8397
  159MOL0     C21363  11.513  -0.134   4.489 -0.6780  1.3629 -0.5469
  159MOL0     C21364  11.565  -0.264   4.512  0.9914  0.2368  0.3496
  159MOL0     O21365  11.664  -0.284   4.599 -0.4720 -0.6739 -0.0718
  159MOL0     C21366  11.643  -0.391   4.690 -0.7631 -0.1019 -0.3098
  159MOL0     C21367  11.751  -0.494   4.653  0.6499  0.7237 -0.3748
  159MOL0     C21368  11.735  -0.617   4.740  0.5237  0.5455 -0.5463
  159MOL0     C21369  11.850  -0.716   4.722 -0.5442  0.2844  0.7617
  159MOL0     C21370  11.831  -0.792   4.582 -0.8239 -0.1804  0.0158
  159MOL0     C21371  11.941  -0.896   4.569  0.2068  0.3120 -0.4042
  159MOL0     C21372  11.938  -0.981   4.439  0.4646  0.2634 -0.0708
  159MOL0     C21373  12.030  -1.102   4.456 -0.4524  0.5793  0.6894
  159MOL0    Cl21374  11.997  -1.234   4.345  0.1314 -0.4230 -0.1084
  159MOL0     C21375  11.526  -0.360   4.415 -0.6806  0.2119  0.3961
  159MOL0     C21376  11.431  -0.335   4.309 -0.1472 -0.6950 -1.0363
  159MOL0     O21377  11.151  -0.353   4.239 -0.1765 -0.4417 -0.6504
  159MOL0     C21378  11.158  -0.151   3.948 -0.3029 -0.1428  0.0777
  159MOL0     C21379  11.077  -0.118   3.838 -0.0112 -0.0804 -0.2026
  159MOL0     N21380  10.275  -0.313   3.963 -0.0685 -0.3349 -0.2085
  159MOL0     N21381  10.152  -0.333   3.951  0.3974  0.1164 -1.3127
  159MOL0     C21382   9.876   0.286   3.255 -0.0406 -0.0699 -0.4480
  159MOL0     C21383   9.790   0.260   3.155  0.7117 -0.1809  0.4779
  159MOL0     C21384   9.531   0.307   2.791  0.1041  0.2103  0.2874
  159MOL0     C21385   9.413   0.261   2.851  0.0317  0.0973 -0.0411
  159MOL0     C21386   9.308   0.232   2.769 -1.3344  0.5405 -0.0109
  159MOL0     C21387   9.316   0.255   2.632 -0.1487  1.0773 -0.2013
  159MOL0     O21388   9.205   0.211   2.571  0.7011 -0.4620  0.5839
  159MOL0     C21389   9.217   0.157   2.441 -0.2667 -0.4603  0.1071
  159MOL0     C21390   9.084   0.091   2.406  0.2147  0.9341  0.2028
  159MOL0     C21391   9.063  -0.028   2.513  1.2003  0.5129 -0.0893
  159MOL0     C21392   8.930  -0.105   2.475  0.5783  0.3406  0.3112
  159MOL0     C21393   8.892  -0.230   2.535 -0.7201  0.4983 -0.5761
  159MOL0     C21394   8.850  -0.323   2.596 -0.2538  0.0701  0.1635
  159MOL0     C21395   9.426   0.310   2.571  0.6008 -0.6773  0.4441
  159MOL0     C21396   9.538   0.330   2.653 -0.3245 -0.6673  0.9123
  159MOL0     C21397   9.655   0.400   2.579 -0.4535  0.5004 -0.2354
  159MOL0     H21398   9.617   0.545   3.143 -0.1418 -1.8123 -4.4571
  159MOL0     H21399   9.765   0.599   3.340 -1.4228 -1.4171  1.8293
  159MOL0     H21400   9.997   0.602   3.503  2.2088 -0.8170 -0.5915
  159MOL0     H21401   9.850   0.510   3.533 -0.1201  0.6501 -3.1889
  159MOL0     H21402  10.005   0.478   3.739  1.8030  2.2969 -0.7776
  159MOL0     H21403  10.127   0.410   3.624 -0.3072 -0.1092  0.2700
  159MOL0     H21404   9.844   0.288   3.673  0.1761  0.3370  1.2722
  159MOL0     H21405   9.982   0.267   3.774 -1.7222  0.7942  0.5259
  159MOL0     H21406  10.024   0.188   3.493 -2.0286 -1.0132 -0.0642
  159MOL0     H21407  10.127   0.172   3.643 -0.1708  0.8787 -0.0471
  159MOL0     H21408   9.870   0.036   3.590  0.9609  0.7066 -0.8371
  159MOL0     H21409  10.036  -0.028   3.585  2.6397  0.0803  2.8796
  159MOL0     H21410  10.049   0.007   3.842 -0.8286  2.5833  0.3773
  159MOL0     H21411   9.897   0.079   3.835 -0.4640 -0.0752 -2.2566
  159MOL0     H21412   9.821  -0.169   3.738 -2.0871  3.9897  0.2239
  159MOL0     H21413   9.866  -0.148   3.911 -0.9282  0.6626 -0.4084
  159MOL0     H21414   9.934  -0.352   3.823 -2.2817 -1.2179 -4.6668
  159MOL0     H21415   9.995  -0.277   3.674 -0.2089  0.4549 -0.0372
  159MOL0     H21416  10.234  -0.097   3.719 -0.7950  1.8713  2.0950
  159MOL0     H21417  10.463  -0.065   3.852  2.4072  0.0437 -2.7824
  159MOL0     H21418  10.499  -0.193   3.969 -1.8845 -3.7891 -0.5005
  159MOL0     H21419  10.612  -0.328   3.823 -1.1294 -1.4570 -1.4107
  159MOL0     H21420  10.511  -0.289   3.689 -1.6453  0.6075  1.0768
  159MOL0     H21421  10.690  -0.084   3.812 -0.3563  0.7471 -1.0054
  159MOL0     H21422  10.609  -0.058   3.655 -3.5730 -0.9670  0.7577
  159MOL0     H21423  10.772  -0.171   3.541 -2.3858  1.5965  0.1903
  159MOL0     H21424  10.800  -0.294   3.662  4.2810  1.2164  0.8388
  159MOL0     H21425  10.803  -0.285   3.910  0.6963 -2.7120  1.5248
  159MOL0     H21426  10.932  -0.329   4.110 -0.2844 -1.4161 -1.1822
  159MOL0     H21427  11.416   0.009   4.396  1.2449  0.0426  4.6933
  159MOL0     H21428  11.542  -0.057   4.560 -1.0096  1.0507 -0.0686
  159MOL0     H21429  11.671  -0.359   4.790  3.4733 -0.4352 -1.2107
  159MOL0     H21430  11.540  -0.428   4.690  0.0199 -2.4949 -1.3649
  159MOL0     H21431  11.747  -0.526   4.549 -1.9293 -1.5185  0.3101
  159MOL0     H21432  11.854  -0.466   4.675  0.3466  0.4941  1.5478
  159MOL0     H21433  11.734  -0.594   4.847 -1.2610 -0.5516 -0.3001
  159MOL0     H21434  11.636  -0.659   4.720  0.8829  0.1683 -1.6066
  159MOL0     H21435  11.853  -0.787   4.805  1.2082  0.7180  1.1053
  159MOL0     H21436  11.945  -0.663   4.735 -0.6869  0.7073  0.1690
  159MOL0     H21437  11.829  -0.714   4.505 -1.1586  0.0590  0.2672
  159MOL0     H21438  11.737  -0.844   4.601 -0.2124 -0.7899  1.4667
  159MOL0     H21439  12.037  -0.848   4.590  0.8213 -0.9775 -0.1488
  159MOL0     H21440  11.921  -0.953   4.661 -2.4650  2.4398  0.4907
  159MOL0     H21441  11.974  -0.919   4.357  0.6214  1.4800  0.8786
  159MOL0     H21442  11.835  -1.015   4.422  1.9078 -4.1893 -1.0464
  159MOL0     H21443  12.134  -1.069   4.446 -0.7052  1.7859  1.6714
  159MOL0     H21444  12.013  -1.146   4.555  1.3354 -0.0286  0.7753
  159MOL0     H21445  11.562  -0.462   4.426 -0.3662  0.1346 -1.1432
  159MOL0     H21446  11.409  -0.417   4.241  0.9974 -0.1036 -2.1691
  159MOL0     H21447  11.263  -0.122   3.952  0.2415 -2.1176  1.9511
  159MOL0     H21448  11.123  -0.069   3.753  1.5470 -0.1590  0.5771
  159MOL0     H21449   9.963   0.222   3.262 -0.1454 -0.4028 -1.8795
  159MOL0     H21450   9.792   0.165   3.103 -0.0299 -0.5591  1.1239
  159MOL0     H21451   9.404   0.239   2.956  0.4845 -1.5870 -0.3287
  159MOL0     H21452   9.219   0.183   2.808 -2.1364  0.7257 -1.5184
  159MOL0     H21453   9.305   0.093   2.441 -0.9843 -1.4881  1.1111
  159MOL0     H21454   9.236   0.244   2.377 -1.6811 -0.2824 -0.1175
  159MOL0     H21455   9.084   0.071   2.299 -2.6899  2.1818 -0.1156
  159MOL0     H21456   9.001   0.161   2.411 -0.8210 -0.2661  0.2896
  159MOL0     H21457   9.055   0.024   2.609 -0.4716  0.0141  0.0834
  159MOL0     H21458   9.145  -0.100   2.513  0.6992 -0.0693  0.4591
  159MOL0     H21459   8.855  -0.031   2.506  1.3633  1.0688  0.4918
  159MOL0     H21460   8.929  -0.121   2.366  2.4240  2.6877 -0.1343
  159MOL0     H21461   8.791  -0.394   2.651  1.3585 -1.7565 -0.3559
  159MOL0     H21462   9.423   0.319   2.463  1.6863  1.9340  0.5524
  159MOL0     H21463   9.678   0.491   2.635 -0.5023 -0.2179  0.9978
  159MOL0     H21464   9.746   0.342   2.599 -0.7481  0.5774  1.5318
  159MOL0     H21465   9.634   0.421   2.474 -1.8365 -1.3742 -0.3970
  160MOL0     O21466   9.336   7.962  10.881  0.5423 -0.4025  0.1486
  160MOL0     C21467   9.402   7.995  10.788 -0.4053  0.2318 -1.1979
  160MOL0     O21468   9.528   8.028  10.797 -0.7809  0.1741 -0.0183
  160MOL0     C21469   9.577   8.054  10.917  0.5087 -0.0980  0.8444
  160MOL0     C21470   9.612   7.963  11.015 -0.7128  0.0138 -0.9402
  160MOL0     C21471   9.678   8.005  11.131  0.2249 -0.0990  0.7229
  160MOL0     C21472   9.704   8.136  11.159 -0.1205 -0.9839  0.3089
  160MOL0     O21473   9.777   8.159  11.273  0.6533 -0.5693  0.1230
  160MOL0     C21474   9.861   8.280  11.276  0.0820  0.0288  0.7349
  160MOL0     C21475   9.932   8.257  11.405 -0.3837 -0.0276  0.0583
  160MOL0     C21476  10.030   8.137  11.414  0.5129 -0.2108  0.2137
  160MOL0     C21477  10.081   8.116  11.566  0.4597  0.4846  0.4939
  160MOL0     C21478  10.154   7.986  11.585  0.0231  0.4937  0.6879
  160MOL0     C21479  10.297   7.984  11.533 -0.7250 -0.1636  0.3386
  160MOL0     C21480  10.387   7.864  11.557  0.0818  0.3908  0.6898
  160MOL0     C21481  10.370   7.819  11.703  0.1483  0.3844  0.5159
  160MOL0     N21482  10.485   7.751  11.758 -0.4550  0.1749  0.2363
  160MOL0     C21483  10.611   7.792  11.728  0.0398 -0.4724 -0.6776
  160MOL0     C21484  10.688   7.699  11.803  1.0634 -0.2164  0.0097
  160MOL0     C21485  10.841   7.701  11.816  0.7259 -0.5792  0.3890
  160MOL0     C21486  10.900   7.841  11.846 -0.0678  0.1022  0.3437
  160MOL0     C21487  11.043   7.838  11.889 -0.6975 -0.2865 -0.2611
  160MOL0     C21488  11.135   7.887  11.784 -0.8000 -0.2965  1.0357
  160MOL0     O21489  11.278   7.890  11.828  0.7008  0.0529 -0.3869
  160MOL0     C21490  11.331   8.004  11.876  0.1934  0.0177  0.4048
  160MOL0     C21491  11.267   8.109  11.939  0.5059 -0.4409  0.3229
  160MOL0     C21492  11.327   8.230  11.985  0.0514  0.7841 -0.5671
  160MOL0     C21493  11.463   8.236  11.988 -0.2245  0.7476 -0.2012
  160MOL0     C21494  11.521   8.352  12.055 -0.4515 -0.0168  0.2462
  160MOL0     O21495  11.430   8.450  12.089  0.3263  0.2326 -0.6907
  160MOL0     C21496  11.459   8.579  12.124 -0.4958  0.0764 -0.3405
  160MOL0     C21497  11.581   8.641  12.082  0.7410 -0.2936 -0.3275
  160MOL0     C21498  11.619   8.768  12.136  0.9147 -0.3973 -0.6319
  160MOL0     C21499  11.534   8.835  12.225  0.6746  0.7941 -0.3039
  160MOL0     O21500  11.582   8.959  12.260  0.4518  0.3123 -0.2862
  160MOL0     C21501  11.494   9.030  12.347 -0.1217 -0.2688  0.1136
  160MOL0     C21502  11.544   9.178  12.388 -1.1316  0.2435  0.0443
  160MOL0     C21503  11.560   9.270  12.263 -0.2052  0.2755  0.1543
  160MOL0     C21504  11.712   9.277  12.232  0.0048 -0.1360  0.1923
  160MOL0     C21505  11.748   9.399  12.139 -0.4049 -0.3164 -0.6412
  160MOL0     C21506  11.669   9.423  12.008  0.8499 -0.4655  0.3352
  160MOL0     C21507  11.717   9.539  11.922  0.0010  0.3204  0.2387
  160MOL0     C21508  11.643   9.536  11.794  0.2296  0.0893 -0.9536
  160MOL0    Cl21509  11.465   9.531  11.830  0.3284 -0.1420 -0.4507
  160MOL0     C21510  11.408   8.777  12.259  0.4582 -0.4844  0.7145
  160MOL0     C21511  11.368   8.648  12.208 -0.0844  0.5421 -0.5768
  160MOL0     O21512  11.640   8.355  12.080 -0.6141  0.4381  0.1053
  160MOL0     C21513  11.534   8.127  11.928  0.0107  0.0662 -0.3812
  160MOL0     C21514  11.470   8.018  11.863 -0.1230 -0.0091 -0.2587
  160MOL0     N21515  10.605   7.611  11.871  0.1860  0.1176  0.1188
  160MOL0     N21516  10.485   7.654  11.865 -0.9843  0.0709 -0.2145
  160MOL0     C21517   9.678   8.232  11.060  0.2169  0.9551 -0.7377
  160MOL0     C21518   9.615   8.189  10.944 -0.4221 -0.5032  0.8524
  160MOL0     C21519   9.356   7.985  10.647 -0.0168 -0.0422  0.7300
  160MOL0     C21520   9.456   7.996  10.548  0.5963 -0.5802 -0.2588
  160MOL0     C21521   9.415   7.980  10.407 -0.5214 -0.0688  0.0517
  160MOL0     C21522   9.283   7.956  10.378  0.8994  0.6169  0.4422
  160MOL0     O21523   9.265   7.937  10.244 -0.1700  0.1367  0.0918
  160MOL0     C21524   9.130   7.929  10.189  0.9040  0.5018 -0.1506
  160MOL0     C21525   9.141   7.943  10.042  0.0460  0.1979  0.7364
  160MOL0     C21526   9.003   7.970   9.981 -0.2277  0.6111 -0.0072
  160MOL0     C21527   9.019   7.942   9.826  0.7964 -0.5739 -0.1314
  160MOL0     C21528   9.071   8.060   9.755 -0.6150 -0.4412  0.7683
  160MOL0     C21529   9.112   8.159   9.703  0.2111  1.0715  0.2939
  160MOL0     C21530   9.185   7.950  10.473 -0.3066 -0.6946 -0.1621
  160MOL0     C21531   9.221   7.960  10.613  0.5436 -0.7396  0.6006
  160MOL0     C21532   9.106   7.947  10.705  1.2004 -0.1673 -0.1255
  160MOL0     H21533   9.587   7.858  11.002 -3.2674  0.4369  0.0262
  160MOL0     H21534   9.703   7.926  11.202  2.5875 -1.1510 -1.1758
  160MOL0     H21535   9.933   8.294  11.195  1.1995 -0.2344  1.6562
  160MOL0     H21536   9.798   8.370  11.281 -0.2282 -0.2439  2.4503
  160MOL0     H21537   9.855   8.268  11.481 -0.1999  2.8976 -0.0499
  160MOL0     H21538   9.997   8.345  11.405  0.8464 -0.8563 -2.0367
  160MOL0     H21539  10.112   8.166  11.348 -1.9611 -0.3440 -3.1670
  160MOL0     H21540   9.984   8.041  11.390 -0.5126  0.7771 -2.1237
  160MOL0     H21541  10.145   8.198  11.600  0.1157 -0.2014  2.9434
  160MOL0     H21542  10.002   8.114  11.641  0.0214 -0.0982  0.0367
  160MOL0     H21543  10.147   7.957  11.690 -3.8742  1.5427  0.8650
  160MOL0     H21544  10.106   7.905  11.529 -0.2968 -0.4194  2.2378
  160MOL0     H21545  10.290   7.999  11.425 -2.3864 -1.8551  0.1529
  160MOL0     H21546  10.351   8.072  11.571 -0.1573 -0.7536  0.9187
  160MOL0     H21547  10.493   7.887  11.538  0.6981 -1.0007  2.1671
  160MOL0     H21548  10.363   7.782  11.490 -2.4349  2.5044 -1.2296
  160MOL0     H21549  10.351   7.906  11.767  0.6842 -0.5305  1.9662
  160MOL0     H21550  10.276   7.763  11.710  1.1292 -1.2984  0.5791
  160MOL0     H21551  10.659   7.879  11.684  2.1036 -1.0728  0.2313
  160MOL0     H21552  10.863   7.633  11.898 -0.1210  0.1410  1.2376
  160MOL0     H21553  10.883   7.654  11.726  3.3027 -0.3693  1.3990
  160MOL0     H21554  10.894   7.901  11.755  2.9306 -2.7865 -1.9991
  160MOL0     H21555  10.837   7.860  11.934 -0.4522  0.4880 -0.0108
  160MOL0     H21556  11.072   7.733  11.906 -1.3678 -0.7814 -2.0261
  160MOL0     H21557  11.069   7.883  11.985  4.4438 -0.7474 -1.1674
  160MOL0     H21558  11.111   7.986  11.744  4.0891  1.0318  0.7339
  160MOL0     H21559  11.147   7.809  11.707  0.4867  0.0673  0.8388
  160MOL0     H21560  11.160   8.100  11.951  0.1967 -2.1414 -2.7217
  160MOL0     H21561  11.264   8.299  12.039 -0.5064  0.3058 -0.5893
  160MOL0     H21562  11.637   8.595  12.001  2.1169  4.0609 -2.1068
  160MOL0     H21563  11.716   8.813  12.116  1.0699  0.7925  2.2531
  160MOL0     H21564  11.390   9.031  12.314 -0.1654  0.9623  0.2543
  160MOL0     H21565  11.509   8.974  12.439  3.1344 -1.2811 -0.8768
  160MOL0     H21566  11.473   9.229  12.454 -0.7675  3.0759 -1.5807
  160MOL0     H21567  11.642   9.181  12.435 -0.1889  1.7849 -1.9023
  160MOL0     H21568  11.501   9.223  12.184 -1.1435  0.2638  0.8451
  160MOL0     H21569  11.514   9.365  12.291 -0.2303  0.8193 -1.6398
  160MOL0     H21570  11.729   9.180  12.184  0.6768 -0.1416  0.4329
  160MOL0     H21571  11.772   9.283  12.322  2.0135 -2.8725 -0.8437
  160MOL0     H21572  11.854   9.391  12.114  0.2821  2.6412  0.8611
  160MOL0     H21573  11.747   9.490  12.199  2.4225  1.6880 -3.3380
  160MOL0     H21574  11.680   9.332  11.948 -0.9793  1.2982 -2.9785
  160MOL0     H21575  11.561   9.428  12.021  0.9897  2.5093  0.9920
  160MOL0     H21576  11.824   9.529  11.904  0.2244  0.5602  1.3579
  160MOL0     H21577  11.704   9.638  11.967 -1.2842 -0.3846  1.5021
  160MOL0     H21578  11.661   9.630  11.741  0.6712  1.0681  0.8296
  160MOL0     H21579  11.687   9.447  11.747  0.2979  0.3887 -1.4638
  160MOL0     H21580  11.326   8.834  12.302 -0.7153  0.7167 -2.7742
  160MOL0     H21581  11.268   8.615  12.233  0.5490 -0.7832  0.3512
  160MOL0     H21582  11.642   8.133  11.936 -0.2029  4.1711  3.1100
  160MOL0     H21583  11.522   7.931  11.825  1.1887  0.5644  0.1304
  160MOL0     H21584   9.690   8.338  11.081  0.1672  0.4085  2.4106
  160MOL0     H21585   9.607   8.261  10.863 -0.4700  0.2646  1.5322
  160MOL0     H21586   9.560   8.011  10.575 -0.0932  1.4732  1.4794
  160MOL0     H21587   9.497   7.997  10.338  0.8851  2.0793  2.1093
  160MOL0     H21588   9.057   8.004  10.221 -0.0788  0.7439 -2.6991
  160MOL0     H21589   9.094   7.833  10.226  1.3638  1.0987  1.9846
  160MOL0     H21590   9.167   7.849   9.992 -1.4328  0.7682 -1.2370
  160MOL0     H21591   9.223   8.012  10.019  1.1035 -1.3369 -0.2880
  160MOL0     H21592   8.964   8.066  10.017 -2.5385 -0.9790  2.0967
  160MOL0     H21593   8.934   7.897  10.024  0.9146  0.0396  0.9219
  160MOL0     H21594   9.090   7.859   9.814  2.6282  0.6743  1.5171
  160MOL0     H21595   8.921   7.906   9.794  0.3496 -1.8577  2.4416
  160MOL0     H21596   9.163   8.241   9.657 -0.5865  0.0757 -2.5789
  160MOL0     H21597   9.084   7.932  10.437 -0.2473 -2.9577  0.6389
  160MOL0     H21598   9.109   8.016  10.790 -1.3163 -0.1844  0.0304
  160MOL0     H21599   9.006   7.955  10.662  1.3237 -2.8676 -1.1270
  160MOL0     H21600   9.096   7.847  10.747  0.3103 -0.2960 -0.6216
  161MOL0     O21601   9.997   5.914   6.706  0.8308  0.2722 -0.0864
  161MOL0     C21602  10.037   6.004   6.638  0.4930 -0.1829  0.6765
  161MOL0     O21603  10.097   6.109   6.685 -0.4601 -0.2531 -0.1718
  161MOL0     C21604  10.111   6.117   6.827  0.5016  0.3202  0.3731
  161MOL0     C21605  10.241   6.127   6.879 -1.2051  0.2183 -0.2570
  161MOL0     C21606  10.256   6.132   7.012  0.3402 -0.3353 -0.0147
  161MOL0     C21607  10.147   6.151   7.096 -0.0483  0.6584  0.0904
  161MOL0     O21608  10.170   6.161   7.228 -0.0497  0.1358 -0.7096
  161MOL0     C21609  10.235   6.290   7.268 -0.0567  0.1191  0.6806
  161MOL0     C21610  10.263   6.276   7.412 -0.0293  0.3195  0.2306
  161MOL0     C21611  10.138   6.283   7.507  0.4635  0.0738 -0.1612
  161MOL0     C21612  10.171   6.257   7.652 -0.0618  0.1434  0.2453
  161MOL0     C21613  10.232   6.381   7.716 -0.5032 -0.7490  1.5510
  161MOL0     C21614  10.233   6.360   7.864 -0.5354 -0.4158  0.1016
  161MOL0     C21615  10.309   6.478   7.916  0.1935 -0.3782 -1.0154
  161MOL0     C21616  10.343   6.466   8.064 -0.3940  0.7664  0.2757
  161MOL0     N21617  10.428   6.574   8.113  0.4921 -0.4677  0.3878
  161MOL0     C21618  10.382   6.699   8.145  0.0572  0.6539  0.0119
  161MOL0     C21619  10.495   6.771   8.140 -0.5031  0.9038 -0.4417
  161MOL0     C21620  10.483   6.918   8.141 -0.0094 -0.8657 -0.0882
  161MOL0     C21621  10.616   6.979   8.185 -0.9703 -0.2294  0.5501
  161MOL0     C21622  10.730   6.978   8.076  0.2944  0.0282 -0.1253
  161MOL0     C21623  10.868   7.034   8.131  1.2855  0.2153 -0.6067
  161MOL0     O21624  10.849   7.179   8.134  0.1860 -0.2706 -0.4725
  161MOL0     C21625  10.951   7.267   8.124 -0.2977  0.0616  0.0210
  161MOL0     C21626  11.091   7.234   8.120  0.8901  0.6723 -0.1485
  161MOL0     C21627  11.194   7.328   8.123 -0.2002  0.8930  0.1331
  161MOL0     C21628  11.167   7.463   8.105 -0.8425 -0.0590  0.2488
  161MOL0     C21629  11.272   7.565   8.094  0.1742 -0.9482  0.6919
  161MOL0     O21630  11.407   7.526   8.084  0.0698  0.2681  1.1679
  161MOL0     C21631  11.497   7.615   8.056 -0.5036 -0.6241  0.6899
  161MOL0     C21632  11.560   7.623   7.929 -0.1168 -0.0393 -0.2502
  161MOL0     C21633  11.658   7.719   7.907  0.0692 -1.5172 -0.3975
  161MOL0     C21634  11.692   7.809   8.007 -0.2982 -1.2193 -0.2630
  161MOL0     O21635  11.805   7.887   7.981  0.6135  0.0138 -1.0566
  161MOL0     C21636  11.924   7.818   8.001 -1.1213 -0.1393  0.4491
  161MOL0     C21637  12.021   7.903   7.933 -1.2743  0.3203 -0.4328
  161MOL0     C21638  12.042   8.032   8.001 -0.3169 -1.1842  0.1918
  161MOL0     C21639  12.130   8.014   8.121 -0.4301 -0.1011  0.2820
  161MOL0     C21640  12.157   8.151   8.187 -1.0102  0.3054  0.8456
  161MOL0     C21641  12.259   8.126   8.296 -0.7984  0.5185  0.1318
  161MOL0     C21642  12.271   8.247   8.390 -0.1030 -0.4859 -0.2236
  161MOL0     C21643  12.147   8.305   8.464 -0.1390  0.0745  0.5087
  161MOL0    Cl21644  12.089   8.198   8.594 -0.6577  0.3964 -0.1896
  161MOL0     C21645  11.629   7.806   8.124 -0.6287  1.0556 -0.3354
  161MOL0     C21646  11.533   7.708   8.151  0.3781  0.2064  0.1830
  161MOL0     O21647  11.237   7.680   8.092  0.2164  0.4812  0.0420
  161MOL0     C21648  11.034   7.500   8.093  0.0068 -0.3101 -0.0119
  161MOL0     C21649  10.925   7.403   8.112  0.1267 -0.0132  0.4057
  161MOL0     N21650  10.609   6.694   8.125 -0.1046 -0.5980  0.4256
  161MOL0     N21651  10.561   6.573   8.114 -0.1434 -0.4955  1.1116
  161MOL0     C21652  10.018   6.147   7.048  0.2444  0.1748  0.8111
  161MOL0     C21653   9.998   6.132   6.907  0.1613  0.2349  0.0303
  161MOL0     C21654   9.998   5.992   6.496  1.1862  0.0683  0.9948
  161MOL0     C21655  10.017   6.106   6.422  0.1232 -0.8363 -0.2312
  161MOL0     C21656   9.989   6.108   6.287 -0.0223  0.4668  0.1000
  161MOL0     C21657   9.914   6.012   6.223  0.7035 -0.5045 -0.2473
  161MOL0     O21658   9.872   6.016   6.091 -0.2882  0.3513 -0.0237
  161MOL0     C21659   9.861   6.146   6.036  0.5683 -0.6554  0.3836
  161MOL0     C21660   9.792   6.159   5.906  0.2567 -0.2317  0.6281
  161MOL0     C21661   9.764   6.304   5.852  0.3313 -0.9235 -0.5762
  161MOL0     C21662   9.627   6.323   5.780  0.5920  0.5571 -0.1979
  161MOL0     C21663   9.607   6.252   5.649  0.5070  0.8340  0.7370
  161MOL0     C21664   9.619   6.191   5.537  0.2225  1.4044  0.5333
  161MOL0     C21665   9.888   5.897   6.300 -0.1491  0.8619 -0.8278
  161MOL0     C21666   9.925   5.885   6.435 -0.2275  0.7389  0.1088
  161MOL0     C21667   9.902   5.747   6.499 -0.2563 -0.4390 -0.3328
  161MOL0     H21668  10.342   6.122   6.840 -1.6002 -1.5799 -1.1694
  161MOL0     H21669  10.355   6.129   7.057  0.1049 -1.6165  0.4814
  161MOL0     H21670  10.329   6.315   7.218  0.8865  0.4445  2.5407
  161MOL0     H21671  10.156   6.363   7.248 -1.1169 -0.7961  1.3714
  161MOL0     H21672  10.323   6.364   7.437  1.6857 -0.8986  0.5634
  161MOL0     H21673  10.316   6.181   7.419 -0.9135 -0.1782  0.4042
  161MOL0     H21674  10.062   6.208   7.486 -1.0072  0.5822  2.7547
  161MOL0     H21675  10.089   6.379   7.494 -0.1904 -0.0685  1.0857
  161MOL0     H21676  10.080   6.224   7.702 -0.2528  1.5765  0.8984
  161MOL0     H21677  10.246   6.178   7.662  0.1529  0.2809 -0.2548
  161MOL0     H21678  10.335   6.389   7.682 -1.3735  3.7915 -0.7813
  161MOL0     H21679  10.179   6.471   7.686 -0.5456 -1.4473 -0.6385
  161MOL0     H21680  10.135   6.348   7.911 -0.9655  2.8626  0.2350
  161MOL0     H21681  10.293   6.271   7.884 -0.8521 -0.8544 -0.8348
  161MOL0     H21682  10.255   6.572   7.900  2.3688  0.7562 -2.0874
  161MOL0     H21683  10.399   6.493   7.856  0.5676 -4.1287 -1.6278
  161MOL0     H21684  10.249   6.457   8.118 -1.5956  1.7527 -1.5436
  161MOL0     H21685  10.413   6.383   8.076 -0.8952  0.4156  0.8323
  161MOL0     H21686  10.279   6.734   8.142  0.1253  0.9162  0.7485
  161MOL0     H21687  10.440   6.960   8.050 -1.9083  0.2888  1.2593
  161MOL0     H21688  10.408   6.949   8.215  0.8368 -0.5996  0.6799
  161MOL0     H21689  10.592   7.085   8.191 -0.5910 -0.1495  0.6657
  161MOL0     H21690  10.645   6.935   8.281 -0.2328  0.9095  0.8645
  161MOL0     H21691  10.704   7.044   7.992  0.0509 -1.0213 -0.8963
  161MOL0     H21692  10.730   6.877   8.035 -1.2060 -0.4378  0.9474
  161MOL0     H21693  10.939   7.007   8.051 -0.8610  0.8073 -2.8486
  161MOL0     H21694  10.890   6.998   8.232 -2.8192  2.3814  1.2871
  161MOL0     H21695  11.118   7.129   8.123 -1.9841 -0.1533  0.5643
  161MOL0     H21696  11.296   7.288   8.127 -0.4794  0.2508  1.5234
  161MOL0     H21697  11.544   7.551   7.850 -3.9944  1.3316 -0.8949
  161MOL0     H21698  11.727   7.718   7.824  1.6045  1.2739  0.7370
  161MOL0     H21699  11.944   7.807   8.108 -0.1004  1.6583  0.4897
  161MOL0     H21700  11.925   7.716   7.960 -2.6133  0.9338 -2.4968
  161MOL0     H21701  12.118   7.852   7.931 -1.4869 -0.1446  0.7998
  161MOL0     H21702  11.987   7.916   7.829  1.1358  0.6021 -1.2605
  161MOL0     H21703  12.100   8.095   7.934  1.2161 -3.5824 -0.8853
  161MOL0     H21704  11.945   8.073   8.032  0.7510  1.4528  0.3227
  161MOL0     H21705  12.223   7.972   8.083  0.1284  1.0812  0.3159
  161MOL0     H21706  12.087   7.944   8.194 -0.1732  1.8558  2.4269
  161MOL0     H21707  12.061   8.187   8.226 -1.4765  3.5771 -2.6025
  161MOL0     H21708  12.185   8.225   8.112 -2.3258 -1.9544 -2.0932
  161MOL0     H21709  12.236   8.032   8.349 -3.1309  0.5055 -0.7563
  161MOL0     H21710  12.358   8.111   8.253 -0.9628 -2.6150  0.5591
  161MOL0     H21711  12.301   8.326   8.321 -1.6787  0.6861  0.3813
  161MOL0     H21712  12.357   8.220   8.453 -0.5180 -0.5208  0.3322
  161MOL0     H21713  12.170   8.398   8.516 -0.5380  0.7042 -0.4303
  161MOL0     H21714  12.062   8.330   8.399  1.6672 -1.7779 -2.8309
  161MOL0     H21715  11.672   7.869   8.201 -1.0035  1.7728 -0.7056
  161MOL0     H21716  11.467   7.708   8.237 -2.4216 -0.6712 -1.8107
  161MOL0     H21717  11.005   7.604   8.093 -1.5897 -0.7202  0.3686
  161MOL0     H21718  10.823   7.439   8.123 -0.4617 -1.4849  0.0810
  161MOL0     H21719   9.931   6.156   7.113 -0.7341 -3.6162  0.2806
  161MOL0     H21720   9.899   6.139   6.862 -0.9235 -0.1831  2.2356
  161MOL0     H21721  10.040   6.205   6.462 -2.9048  0.0276 -0.3434
  161MOL0     H21722  10.010   6.196   6.227 -1.2080 -0.1711 -1.2981
  161MOL0     H21723   9.962   6.181   6.013 -0.1208  0.9047 -0.3938
  161MOL0     H21724   9.802   6.204   6.108 -1.8561 -0.9505 -1.2693
  161MOL0     H21725   9.699   6.101   5.917 -0.8479  1.5511  1.1389
  161MOL0     H21726   9.851   6.107   5.830 -2.4658 -1.4412 -0.7977
  161MOL0     H21727   9.839   6.346   5.784  1.0193  0.2931  0.8899
  161MOL0     H21728   9.766   6.378   5.932 -1.2811  0.4931 -1.7760
  161MOL0     H21729   9.544   6.281   5.837 -0.3083 -0.2148 -2.0022
  161MOL0     H21730   9.611   6.431   5.771  1.6405  0.9267  1.6901
  161MOL0     H21731   9.621   6.150   5.437 -1.2549  2.4328  0.0422
  161MOL0     H21732   9.838   5.811   6.256  0.3024  1.3733 -2.3950
  161MOL0     H21733   9.897   5.667   6.425  0.9413 -1.2394  0.4140
  161MOL0     H21734   9.991   5.719   6.557 -1.0307 -0.8839  0.6708
  161MOL0     H21735   9.819   5.749   6.570  0.3857 -0.4390  0.4326
  162MOL0     O21736   4.246   5.446   9.594 -1.1032  0.2886 -0.0077
  162MOL0     C21737   4.247   5.322   9.559 -0.5907 -2.0643 -0.2203
  162MOL0     O21738   4.161   5.218   9.601  0.0020 -0.5671 -0.3099
  162MOL0     C21739   4.036   5.251   9.657 -0.1556 -0.2367  0.2926
  162MOL0     C21740   4.021   5.347   9.760 -0.7621 -0.5937 -1.1257
  162MOL0     C21741   3.893   5.366   9.821  0.5968 -1.5277  1.1655
  162MOL0     C21742   3.777   5.303   9.763  0.4026 -0.1022  0.0157
  162MOL0     O21743   3.656   5.324   9.811  0.2281 -0.6182 -0.7058
  162MOL0     C21744   3.555   5.346   9.717  0.4351 -0.4376  0.6012
  162MOL0     C21745   3.435   5.403   9.796  0.9888  0.0730 -0.1645
  162MOL0     C21746   3.305   5.414   9.705 -1.1498 -0.0712  0.0103
  162MOL0     C21747   3.224   5.539   9.745 -0.0180 -1.1008 -0.2613
  162MOL0     C21748   3.105   5.570   9.649  0.3280 -0.4305  1.0544
  162MOL0     C21749   2.970   5.640   9.705  0.6226 -0.4328  0.0246
  162MOL0     C21750   2.907   5.567   9.818 -0.5230  0.8254  0.3037
  162MOL0     C21751   2.778   5.638   9.852 -0.4328 -0.3743  0.2988
  162MOL0     N21752   2.711   5.572   9.967 -0.5025  0.3395  0.0661
  162MOL0     C21753   2.742   5.591  10.102  0.1070  0.4125 -0.9601
  162MOL0     C21754   2.682   5.489  10.169  0.5777  0.5122  1.1137
  162MOL0     C21755   2.711   5.442  10.309  0.1536 -0.4929  0.6175
  162MOL0     C21756   2.726   5.542  10.425 -0.3478  0.0694 -0.5308
  162MOL0     C21757   2.612   5.647  10.418 -0.9369  0.1006  0.1144
  162MOL0     C21758   2.609   5.725  10.557  0.6562 -0.0262 -0.2714
  162MOL0     O21759   2.499   5.822  10.548 -0.5076 -0.1987  0.3402
  162MOL0     C21760   2.440   5.882  10.662  0.2861 -0.0816 -0.7120
  162MOL0     C21761   2.369   6.010  10.653  0.2492 -0.2228  0.9112
  162MOL0     C21762   2.295   6.071  10.757 -0.0470  0.4949  1.0050
  162MOL0     C21763   2.310   6.026  10.888 -0.7255 -1.5953 -0.1739
  162MOL0     C21764   2.256   6.105  11.008  0.6424 -0.0561  0.6838
  162MOL0     O21765   2.275   6.068  11.131  0.2522  0.3143  0.1706
  162MOL0     C21766   2.188   6.108  11.228  0.7759  0.5456  0.3604
  162MOL0     C21767   2.065   6.040  11.251  0.6031  1.0115  1.2000
  162MOL0     C21768   1.979   6.083  11.347  0.4035 -0.1495  0.5837
  162MOL0     C21769   1.999   6.202  11.422 -0.5585  0.3943  0.5988
  162MOL0     O21770   1.904   6.239  11.505  0.4890 -0.3580  0.3664
  162MOL0     C21771   1.850   6.373  11.484  0.2051  0.0462 -0.4130
  162MOL0     C21772   1.910   6.493  11.569  0.3560  0.5202  0.5575
  162MOL0     C21773   1.890   6.456  11.718  0.2332  0.5844  0.2486
  162MOL0     C21774   1.922   6.571  11.817 -1.0596 -1.1035  0.4195
  162MOL0     C21775   1.894   6.521  11.952  0.6298  0.2582  1.7002
  162MOL0     C21776   2.003   6.425  11.988 -0.1269  0.5972  0.3603
  162MOL0     C21777   1.942   6.286  12.018  0.4534 -0.0654  0.0760
  162MOL0     C21778   2.043   6.189  12.087 -0.7722  0.1957 -0.2178
  162MOL0    Cl21779   2.181   6.170  11.985  0.5200  0.5483 -0.2606
  162MOL0     C21780   2.117   6.267  11.390  0.3744 -0.3202  0.5150
  162MOL0     C21781   2.208   6.230  11.301 -0.4192 -0.1876 -0.4713
  162MOL0     O21782   2.182   6.197  10.978 -0.5212 -0.1476  0.0948
  162MOL0     C21783   2.379   5.903  10.899  1.1738 -0.4254 -0.4066
  162MOL0     C21784   2.434   5.825  10.798  0.2268  0.6800  0.4769
  162MOL0     N21785   2.606   5.419  10.074 -0.4250  0.3906 -0.2195
  162MOL0     N21786   2.613   5.472   9.956  0.4632  0.4568  0.5440
  162MOL0     C21787   3.801   5.227   9.640  0.3091 -0.4775 -0.4645
  162MOL0     C21788   3.928   5.188   9.604 -0.1142  0.1583 -0.3903
  162MOL0     C21789   4.367   5.270   9.479  0.7439  0.9126 -0.0030
  162MOL0     C21790   4.329   5.188   9.374 -0.0598  0.6875  0.6464
  162MOL0     C21791   4.422   5.164   9.272  0.8631  0.6511  0.1319
  162MOL0     C21792   4.556   5.224   9.263 -0.1235  0.4462 -0.2553
  162MOL0     O21793   4.653   5.181   9.169  0.2375 -0.4119  0.2306
  162MOL0     C21794   4.629   5.072   9.078  0.5099 -0.3454 -0.2660
  162MOL0     C21795   4.754   5.031   9.004  0.0365 -0.0395  0.0592
  162MOL0     C21796   4.810   4.917   9.088  0.3954 -0.8294 -0.4483
  162MOL0     C21797   4.922   4.844   9.009 -0.7649  0.0429  0.7283
  162MOL0     C21798   4.986   4.728   9.082 -0.2553 -0.7114 -0.4728
  162MOL0     C21799   5.041   4.646   9.146 -0.2504  0.0136  0.7532
  162MOL0     C21800   4.594   5.307   9.369 -0.4545  0.7905 -0.6505
  162MOL0     C21801   4.498   5.327   9.476 -0.7621 -0.4560 -1.0463
  162MOL0     C21802   4.547   5.428   9.581 -0.7048 -0.2680  0.3693
  162MOL0     H21803   4.110   5.382   9.812 -0.9316 -2.4966  0.5587
  162MOL0     H21804   3.887   5.427   9.910 -0.2400 -3.4783  2.5004
  162MOL0     H21805   3.594   5.430   9.659 -1.2031 -0.7433 -1.0076
  162MOL0     H21806   3.528   5.258   9.659 -1.8697  1.5178 -1.4973
  162MOL0     H21807   3.458   5.501   9.838  2.7727 -0.0677 -0.7656
  162MOL0     H21808   3.407   5.336   9.878 -1.4780 -1.2460 -1.9403
  162MOL0     H21809   3.241   5.326   9.717 -0.3309 -0.4424  2.0473
  162MOL0     H21810   3.334   5.439   9.603 -0.6325 -1.3400 -0.1794
  162MOL0     H21811   3.181   5.534   9.845 -3.0693  0.5572 -1.3405
  162MOL0     H21812   3.289   5.627   9.744 -0.8325 -0.4865 -0.3270
  162MOL0     H21813   3.142   5.633   9.567 -0.2285  1.0748  1.9338
  162MOL0     H21814   3.086   5.478   9.593 -1.8240  0.7718 -0.3128
  162MOL0     H21815   2.972   5.746   9.733 -5.3971  0.1522 -0.4052
  162MOL0     H21816   2.902   5.672   9.625  2.7758  0.2861 -1.6366
  162MOL0     H21817   2.959   5.580   9.913  0.7696 -2.0633  0.0965
  162MOL0     H21818   2.899   5.461   9.791 -1.2843  1.3950 -1.8939
  162MOL0     H21819   2.804   5.742   9.876 -0.1110 -0.4952  0.4772
  162MOL0     H21820   2.713   5.622   9.766  0.0776  0.9841 -0.3755
  162MOL0     H21821   2.805   5.676  10.130  5.3060 -2.6366 -2.0524
  162MOL0     H21822   2.635   5.369  10.339 -2.0962  2.0863  1.5571
  162MOL0     H21823   2.806   5.388  10.306 -0.1770 -1.2191  2.2333
  162MOL0     H21824   2.721   5.490  10.522  3.5394 -1.5667 -1.0055
  162MOL0     H21825   2.825   5.587  10.412 -0.8862  1.4129 -0.1375
  162MOL0     H21826   2.512   5.610  10.394 -0.7289 -1.4035  1.3659
  162MOL0     H21827   2.630   5.720  10.339 -2.2780 -0.5214 -0.7949
  162MOL0     H21828   2.703   5.776  10.581  0.7422 -1.0540  1.8468
  162MOL0     H21829   2.595   5.656  10.642  0.1046 -0.8035 -0.9778
  162MOL0     H21830   2.381   6.059  10.557 -0.6837 -2.2068 -0.2846
  162MOL0     H21831   2.232   6.157  10.735 -0.0153 -0.2345 -2.5142
  162MOL0     H21832   2.034   5.954  11.193  0.5162  1.9662 -0.2231
  162MOL0     H21833   1.880   6.040  11.354  0.6074 -0.4730  1.7679
  162MOL0     H21834   1.844   6.393  11.376 -2.2354 -0.6573 -0.4653
  162MOL0     H21835   1.744   6.367  11.508  0.0389  0.6758 -0.9607
  162MOL0     H21836   2.015   6.508  11.542 -0.0208 -2.0733 -3.0444
  162MOL0     H21837   1.851   6.582  11.547 -1.4987 -0.4114  1.4903
  162MOL0     H21838   1.785   6.428  11.733  0.5074 -1.1382 -0.7107
  162MOL0     H21839   1.941   6.363  11.744  0.2127 -0.1392 -2.1107
  162MOL0     H21840   1.846   6.646  11.796  0.0013 -0.4442 -1.2339
  162MOL0     H21841   2.017   6.624  11.809 -2.8968  2.3636 -0.2542
  162MOL0     H21842   1.792   6.481  11.951  0.5983  0.3401  1.5999
  162MOL0     H21843   1.889   6.606  12.020 -1.2935  1.5883  0.0033
  162MOL0     H21844   2.081   6.419  11.912 -1.3890 -0.2499 -0.9136
  162MOL0     H21845   2.050   6.468  12.077  0.0416  2.1192 -0.4381
  162MOL0     H21846   1.904   6.235  11.930 -1.6014 -1.6866  1.7830
  162MOL0     H21847   1.851   6.292  12.078 -1.3449 -5.4266 -1.5890
  162MOL0     H21848   2.069   6.216  12.190 -2.3278 -2.5362  0.9791
  162MOL0     H21849   1.994   6.091  12.087 -0.4259 -0.0166 -2.1769
  162MOL0     H21850   2.119   6.371  11.421  2.8522 -0.0090 -0.4775
  162MOL0     H21851   2.282   6.304  11.273 -0.0809  0.5937  2.2549
  162MOL0     H21852   2.381   5.850  10.993  0.9105 -1.4975 -0.9924
  162MOL0     H21853   2.483   5.731  10.818  0.8440  0.6590 -0.9821
  162MOL0     H21854   3.715   5.175   9.599  0.8485 -2.4622  0.7610
  162MOL0     H21855   3.948   5.117   9.525 -0.9407  0.2141 -0.6578
  162MOL0     H21856   4.239   5.127   9.377  1.7255 -2.1839 -0.6276
  162MOL0     H21857   4.399   5.086   9.199  2.6338  0.3102 -0.1047
  162MOL0     H21858   4.572   5.118   8.997  2.0837 -0.7364 -1.6491
  162MOL0     H21859   4.577   4.990   9.129  0.5860 -1.6203 -2.1217
  162MOL0     H21860   4.818   5.119   8.989 -2.0118  1.8674  1.8235
  162MOL0     H21861   4.731   4.986   8.907  1.4356 -1.2508  0.2480
  162MOL0     H21862   4.739   4.840   9.120 -0.9185 -0.0426 -1.3945
  162MOL0     H21863   4.855   4.956   9.180 -0.7513  1.6458 -0.8595
  162MOL0     H21864   4.883   4.803   8.916  1.9830  1.7373 -1.3127
  162MOL0     H21865   4.996   4.915   8.971  0.3969 -2.9963 -3.3808
  162MOL0     H21866   5.085   4.579   9.217 -0.1255 -1.9840 -1.1097
  162MOL0     H21867   4.698   5.339   9.372  0.0717 -0.8319  0.0523
  162MOL0     H21868   4.495   5.405   9.675 -4.2666  1.4608 -0.9951
  162MOL0     H21869   4.656   5.437   9.583 -0.7645  0.9591 -0.7812
  162MOL0     H21870   4.508   5.523   9.544 -0.4131  0.0797  0.9437
  163MOL0     O21871   4.557   4.429   1.450  0.8466  0.3730  0.8916
  163MOL0     C21872   4.508   4.352   1.361 -0.4155 -0.9335 -0.6803
  163MOL0     O21873   4.571   4.303   1.260 -0.2133 -0.4536  0.3682
  163MOL0     C21874   4.704   4.351   1.243 -0.4177 -0.2668  0.2226
  163MOL0     C21875   4.810   4.280   1.285 -0.1711  0.4164 -0.2526
  163MOL0     C21876   4.940   4.331   1.282  0.3093  0.4979 -0.9528
  163MOL0     C21877   4.972   4.462   1.229  0.2429  0.2531 -0.1289
  163MOL0     O21878   5.098   4.512   1.210 -0.0857  0.1561  0.0059
  163MOL0     C21879   5.201   4.466   1.300  0.2817  0.8589  0.2191
  163MOL0     C21880   5.322   4.546   1.261  0.0246 -0.2862  0.3207
  163MOL0     C21881   5.429   4.558   1.370 -0.3339  0.1100 -1.0958
  163MOL0     C21882   5.527   4.649   1.319  0.1200  0.5192 -0.1155
  163MOL0     C21883   5.633   4.683   1.421 -0.9525  0.0868  1.1304
  163MOL0     C21884   5.733   4.781   1.349 -0.2337  0.3882  0.4324
  163MOL0     C21885   5.880   4.768   1.408  0.2439  0.3808 -0.5860
  163MOL0     C21886   5.979   4.721   1.296 -0.0582  0.2902  0.0577
  163MOL0     N21887   5.980   4.808   1.182 -0.5839 -0.1857  0.1954
  163MOL0     C21888   5.993   4.943   1.187  0.2125 -0.2635 -1.2048
  163MOL0     C21889   5.986   4.989   1.056  0.2383 -0.1971 -0.2108
  163MOL0     C21890   6.032   5.127   1.022 -0.0994 -0.2768  0.9620
  163MOL0     C21891   5.920   5.222   1.049  0.2239 -0.2975 -1.1149
  163MOL0     C21892   5.901   5.262   1.201 -0.3742  0.0144  0.8921
  163MOL0     C21893   5.785   5.358   1.210 -0.5116 -0.0526 -0.4253
  163MOL0     O21894   5.769   5.392   1.349  0.7546 -0.2715  0.1153
  163MOL0     C21895   5.653   5.459   1.379  0.0971 -0.0535 -0.6344
  163MOL0     C21896   5.566   5.519   1.289  0.1436 -0.7695 -0.4091
  163MOL0     C21897   5.435   5.574   1.328 -0.1351  0.3284 -0.0912
  163MOL0     C21898   5.406   5.579   1.468 -0.4445  0.6304 -0.6322
  163MOL0     C21899   5.268   5.622   1.519 -0.3855  1.7277  0.2096
  163MOL0     O21900   5.236   5.588   1.644  0.9235 -0.3946 -0.1046
  163MOL0     C21901   5.116   5.627   1.679 -0.1145 -1.5198 -0.0616
  163MOL0     C21902   5.090   5.766   1.680  0.4649  0.8003 -0.1231
  163MOL0     C21903   4.968   5.817   1.721 -0.4959  0.5256  0.5475
  163MOL0     C21904   4.857   5.727   1.745 -0.0408 -0.4775  0.2632
  163MOL0     O21905   4.734   5.796   1.764  0.0763  0.0050  1.2646
  163MOL0     C21906   4.616   5.733   1.802  0.2119  0.8702  0.0375
  163MOL0     C21907   4.505   5.836   1.813  0.6341  0.3047 -0.1449
  163MOL0     C21908   4.365   5.775   1.815  0.2542  0.4723  0.7037
  163MOL0     C21909   4.313   5.727   1.677 -0.9193  0.0535 -0.0741
  163MOL0     C21910   4.186   5.633   1.692 -0.8265  0.5604 -0.1824
  163MOL0     C21911   4.133   5.571   1.558 -0.0503 -0.2973  0.6494
  163MOL0     C21912   4.065   5.435   1.583 -0.4240  0.5496  0.0975
  163MOL0     C21913   4.060   5.338   1.464 -0.0030  0.8600 -0.0890
  163MOL0    Cl21914   4.211   5.315   1.369 -0.7296 -0.1914 -0.1506
  163MOL0     C21915   4.879   5.592   1.733 -0.4448  1.0315 -0.6254
  163MOL0     C21916   5.007   5.534   1.706  0.0763 -0.4278  0.0532
  163MOL0     O21917   5.200   5.677   1.433 -0.1052  1.0174 -0.1673
  163MOL0     C21918   5.502   5.515   1.564  0.4799 -0.0862  0.5439
  163MOL0     C21919   5.624   5.467   1.515 -0.6212 -0.6458 -0.1251
  163MOL0     N21920   5.964   4.882   0.976  0.0344 -0.2172 -0.0344
  163MOL0     N21921   5.953   4.779   1.050 -0.1916  0.2238  0.1910
  163MOL0     C21922   4.861   4.532   1.180 -0.0088 -1.0689 -0.3931
  163MOL0     C21923   4.728   4.482   1.199  0.1662  1.0535 -0.2058
  163MOL0     C21924   4.361   4.319   1.364  0.2645 -0.5763 -0.3500
  163MOL0     C21925   4.266   4.399   1.294  0.7617 -0.4097 -1.0005
  163MOL0     C21926   4.132   4.368   1.310 -0.3196 -0.0865 -0.2330
  163MOL0     C21927   4.086   4.256   1.376 -0.0195 -0.7312 -0.2622
  163MOL0     O21928   3.953   4.236   1.391 -0.2623 -0.0212 -0.2356
  163MOL0     C21929   3.891   4.325   1.490 -0.8816 -0.0486 -0.2961
  163MOL0     C21930   3.740   4.294   1.492 -0.1253  0.1670  1.0055
  163MOL0     C21931   3.669   4.340   1.370 -1.0374 -0.4001  0.4503
  163MOL0     C21932   3.626   4.216   1.294  0.1337 -0.1460  0.4889
  163MOL0     C21933   3.580   4.251   1.153  0.8384  0.5403  0.6339
  163MOL0     C21934   3.525   4.292   1.049 -0.1180  0.9388  0.4920
  163MOL0     C21935   4.181   4.182   1.447 -0.2216  0.5329 -0.0695
  163MOL0     C21936   4.315   4.203   1.433  0.1837  1.0183  1.1731
  163MOL0     C21937   4.418   4.106   1.497 -1.0241  0.3161  0.1479
  163MOL0     H21938   4.786   4.188   1.337  2.1879 -0.3627 -0.4418
  163MOL0     H21939   5.024   4.275   1.322  1.2923  1.6958 -1.2785
  163MOL0     H21940   5.175   4.498   1.402  1.8829 -4.2019  2.5189
  163MOL0     H21941   5.217   4.358   1.305  1.8332  1.1031  1.7613
  163MOL0     H21942   5.289   4.643   1.224 -1.2863 -0.7989  0.1061
  163MOL0     H21943   5.369   4.496   1.176  1.8396 -0.5621  1.4124
  163MOL0     H21944   5.445   4.451   1.388 -0.8160  0.0366 -1.0632
  163MOL0     H21945   5.371   4.593   1.456  1.9453 -0.2046  0.6717
  163MOL0     H21946   5.566   4.597   1.231  0.0987  1.4456 -0.6834
  163MOL0     H21947   5.494   4.745   1.276  1.5174 -0.3101 -3.3663
  163MOL0     H21948   5.590   4.719   1.515  0.6835  2.4159  1.0772
  163MOL0     H21949   5.678   4.584   1.435  0.6116  0.3119 -1.6136
  163MOL0     H21950   5.717   4.762   1.242 -1.4077 -2.1814  1.0023
  163MOL0     H21951   5.690   4.881   1.360 -1.0225  0.2984 -1.4100
  163MOL0     H21952   5.887   4.707   1.499  0.2637  0.8871 -0.2407
  163MOL0     H21953   5.898   4.870   1.442 -4.2420  0.4904  2.3155
  163MOL0     H21954   6.084   4.711   1.326 -0.2125  2.3030  1.4142
  163MOL0     H21955   5.952   4.621   1.261 -2.3125  0.9159 -0.1414
  163MOL0     H21956   6.013   5.012   1.269  0.1387 -0.8250 -0.7109
  163MOL0     H21957   6.126   5.142   1.077 -0.0701  0.3432  0.7542
  163MOL0     H21958   6.066   5.133   0.918 -0.6927 -1.0795  0.7157
  163MOL0     H21959   5.933   5.311   0.987  1.4113  0.3209 -0.0348
  163MOL0     H21960   5.820   5.184   1.024  0.3056 -0.3696 -1.3263
  163MOL0     H21961   5.988   5.297   1.257 -1.6367  3.9256  0.7029
  163MOL0     H21962   5.865   5.177   1.260 -1.3580 -0.6964 -0.6572
  163MOL0     H21963   5.701   5.302   1.168  0.7932 -2.5997  0.1193
  163MOL0     H21964   5.808   5.449   1.155  0.5470 -0.0417  0.0189
  163MOL0     H21965   5.586   5.523   1.182  1.3090 -1.1593 -0.2244
  163MOL0     H21966   5.375   5.618   1.249  1.4476  2.3062 -0.2679
  163MOL0     H21967   5.163   5.846   1.676  0.4472  0.7793 -0.9507
  163MOL0     H21968   4.964   5.925   1.713  0.3811  0.4905 -0.6494
  163MOL0     H21969   4.585   5.647   1.742  2.1069  0.4098 -0.3453
  163MOL0     H21970   4.626   5.710   1.909 -1.3902 -0.5919 -0.0712
  163MOL0     H21971   4.513   5.896   1.904 -4.3192  0.6098  0.3270
  163MOL0     H21972   4.499   5.897   1.723 -0.8901 -0.8980 -0.9132
  163MOL0     H21973   4.371   5.690   1.884 -1.5593  2.3273  3.3485
  163MOL0     H21974   4.283   5.836   1.853 -2.0559 -1.2543 -1.2148
  163MOL0     H21975   4.399   5.682   1.626  1.1968  3.2348  0.3642
  163MOL0     H21976   4.300   5.820   1.620 -0.7301  0.8469  1.1473
  163MOL0     H21977   4.103   5.678   1.748  0.3192  1.8249  0.5320
  163MOL0     H21978   4.218   5.551   1.756 -1.6078  1.6929  1.7581
  163MOL0     H21979   4.055   5.627   1.506  0.7543 -3.0689 -4.0520
  163MOL0     H21980   4.208   5.561   1.479  0.4333  1.0284  0.9028
  163MOL0     H21981   3.966   5.446   1.629 -1.3875  2.9955 -2.2738
  163MOL0     H21982   4.124   5.378   1.656 -2.0782  2.0850  2.8209
  163MOL0     H21983   4.037   5.235   1.493  2.9677  0.2816  0.5462
  163MOL0     H21984   3.985   5.374   1.394  0.6388 -1.5823 -2.1668
  163MOL0     H21985   4.802   5.517   1.751  0.0854  0.9749  1.7879
  163MOL0     H21986   5.010   5.427   1.690 -1.8853 -0.8970  2.2861
  163MOL0     H21987   5.481   5.541   1.667 -0.2223  0.9691  0.1535
  163MOL0     H21988   5.703   5.434   1.581 -0.1303 -1.0840 -0.9250
  163MOL0     H21989   4.876   4.633   1.144  0.8370 -1.0570 -0.0314
  163MOL0     H21990   4.639   4.544   1.192  0.2168  1.2535  0.7727
  163MOL0     H21991   4.296   4.489   1.242  3.1370  0.0888  1.0432
  163MOL0     H21992   4.064   4.435   1.258  1.1169  1.3124 -0.3760
  163MOL0     H21993   3.909   4.427   1.455 -2.4376 -0.8175 -3.7752
  163MOL0     H21994   3.934   4.305   1.589  1.4750 -1.0224 -1.4668
  163MOL0     H21995   3.685   4.334   1.578 -0.3359  1.5012  0.2732
  163MOL0     H21996   3.728   4.189   1.520 -1.6012  0.2959  0.9392
  163MOL0     H21997   3.737   4.388   1.300 -2.7205 -0.8815 -1.6262
  163MOL0     H21998   3.595   4.414   1.402  1.6863  1.1630  3.8629
  163MOL0     H21999   3.700   4.138   1.278 -1.1802 -0.8173 -3.3504
  163MOL0     H22000   3.550   4.162   1.351  0.3368 -0.9178  0.0315
  163MOL0     H22001   3.487   4.341   0.962 -0.2549 -1.0868 -0.6641
  163MOL0     H22002   4.134   4.099   1.500 -2.7949 -0.5813 -3.7448
  163MOL0     H22003   4.390   4.001   1.497 -0.5217  0.1597 -1.1955
  163MOL0     H22004   4.509   4.125   1.439 -0.9109 -2.6594 -0.7792
  163MOL0     H22005   4.446   4.133   1.599 -1.5717  0.1115  0.3536
  164MOL0     O22006   0.145   1.604   3.569 -0.0039  0.7466  0.4100
  164MOL0     C22007   0.094   1.573   3.462  0.1958  0.4621  0.3155
  164MOL0     O22008  -0.033   1.539   3.437 -0.6789 -0.1437 -0.9482
  164MOL0     C22009  -0.127   1.575   3.537 -0.5957  0.2904  0.7630
  164MOL0     C22010  -0.127   1.711   3.576  1.0828  0.2635 -0.4812
  164MOL0     C22011  -0.220   1.741   3.679  0.3953  0.8098  0.2165
  164MOL0     C22012  -0.304   1.641   3.732 -0.5482  0.6978  0.6114
  164MOL0     O22013  -0.408   1.662   3.817 -0.3285 -0.0167  0.1911
  164MOL0     C22014  -0.418   1.786   3.888  0.0710 -0.5938 -0.0941
  164MOL0     C22015  -0.527   1.792   3.995 -0.3685  1.0135  1.1552
  164MOL0     C22016  -0.510   1.923   4.088 -0.3097  0.2000 -0.2670
  164MOL0     C22017  -0.623   1.925   4.191  1.0486  0.6253 -0.5188
  164MOL0     C22018  -0.618   2.038   4.290 -0.4228  0.6753  0.0149
  164MOL0     C22019  -0.744   2.063   4.380  0.9262  0.4720  0.3783
  164MOL0     C22020  -0.833   2.175   4.329 -0.3887  0.4004  1.2233
  164MOL0     C22021  -0.983   2.158   4.375  0.3686  0.0633  0.0730
  164MOL0     N22022  -0.993   2.153   4.527  0.1465 -0.3226  0.3593
  164MOL0     C22023  -1.001   2.263   4.608  0.2054  0.0097  0.0577
  164MOL0     C22024  -0.975   2.204   4.731 -0.1286 -0.8521  0.4594
  164MOL0     C22025  -1.010   2.267   4.863  0.3265 -0.1413  0.8393
  164MOL0     C22026  -0.883   2.298   4.949  0.7355 -0.5312 -0.4692
  164MOL0     C22027  -0.915   2.321   5.098  0.0086 -0.3809 -0.1630
  164MOL0     C22028  -1.023   2.429   5.118 -0.3798  0.6185  0.0992
  164MOL0     O22029  -1.014   2.476   5.252 -0.5963  0.1181 -0.0332
  164MOL0     C22030  -0.915   2.582   5.275  0.7143 -0.9385 -0.3309
  164MOL0     C22031  -0.807   2.617   5.190  0.4133 -0.5947 -1.3001
  164MOL0     C22032  -0.731   2.728   5.216  0.5448  0.2200  0.1407
  164MOL0     C22033  -0.753   2.813   5.332 -0.4353  0.3161  0.3979
  164MOL0     C22034  -0.664   2.922   5.353  0.7725  0.9285  0.8245
  164MOL0     O22035  -0.574   2.956   5.255 -1.5566  0.3134 -0.7960
  164MOL0     C22036  -0.503   3.073   5.284  1.1674  0.5896 -0.6881
  164MOL0     C22037  -0.551   3.195   5.340  0.0099  0.1295 -0.0239
  164MOL0     C22038  -0.481   3.315   5.351  0.5078 -0.0153  0.0808
  164MOL0     C22039  -0.351   3.315   5.284  0.0671  1.2242 -0.8854
  164MOL0     O22040  -0.272   3.425   5.301 -0.0094  0.7708 -0.5347
  164MOL0     C22041  -0.223   3.487   5.180 -0.7331 -0.9598  0.6317
  164MOL0     C22042  -0.074   3.531   5.192 -1.2463 -0.6044  0.1457
  164MOL0     C22043  -0.015   3.571   5.057  0.7543  0.4264  0.2716
  164MOL0     C22044   0.133   3.631   5.070  0.4774  0.2999 -0.1457
  164MOL0     C22045   0.181   3.676   4.926 -0.1722 -0.4990 -0.0702
  164MOL0     C22046   0.242   3.815   4.935  0.9244  0.0132 -0.1097
  164MOL0     C22047   0.133   3.921   4.965  0.6992  0.0117 -0.5512
  164MOL0     C22048   0.044   3.948   4.846  0.5044 -1.0625  0.7809
  164MOL0    Cl22049   0.131   4.038   4.708 -0.1217  0.1327 -0.4438
  164MOL0     C22050  -0.307   3.196   5.219 -0.5180 -0.9056  0.0163
  164MOL0     C22051  -0.387   3.082   5.218 -0.7436 -0.2784 -0.3081
  164MOL0     O22052  -0.674   2.969   5.466  0.3975 -0.3010  0.1377
  164MOL0     C22053  -0.867   2.785   5.412  0.1869 -0.5710 -0.1836
  164MOL0     C22054  -0.952   2.671   5.384 -0.5242  0.8036  0.1464
  164MOL0     N22055  -0.973   2.064   4.718 -0.2855 -0.6177  0.2618
  164MOL0     N22056  -0.979   2.039   4.593 -0.0216  0.7296 -0.0232
  164MOL0     C22057  -0.313   1.516   3.673  0.5429 -0.5124  0.1457
  164MOL0     C22058  -0.212   1.478   3.582 -0.6396 -1.2984  0.6463
  164MOL0     C22059   0.172   1.583   3.344 -1.5335 -0.5598  0.0673
  164MOL0     C22060   0.164   1.470   3.252 -0.2707  0.0828 -0.0467
  164MOL0     C22061   0.214   1.479   3.127 -0.6766  0.1201  0.8304
  164MOL0     C22062   0.306   1.573   3.083  0.7497 -0.6960 -0.5679
  164MOL0     O22063   0.350   1.573   2.952  1.0340  0.0723  0.3560
  164MOL0     C22064   0.487   1.538   2.927  0.1877 -0.6733  0.6744
  164MOL0     C22065   0.513   1.392   2.968  0.9945  0.3810 -0.0913
  164MOL0     C22066   0.665   1.369   2.930  0.1473 -0.8817 -0.9280
  164MOL0     C22067   0.706   1.220   2.943 -0.5474 -0.1697 -0.3134
  164MOL0     C22068   0.826   1.213   2.866 -0.9424  0.2881  0.5434
  164MOL0     C22069   0.926   1.225   2.799  0.5768  0.3052 -0.0009
  164MOL0     C22070   0.338   1.678   3.179  0.9517 -0.1340 -0.4209
  164MOL0     C22071   0.269   1.683   3.308 -0.3835  0.2019  0.4058
  164MOL0     C22072   0.304   1.793   3.409 -0.5762 -0.2039  0.5162
  164MOL0     H22073  -0.056   1.777   3.527  1.7589 -0.6846 -0.7910
  164MOL0     H22074  -0.213   1.846   3.707  2.3812  1.4417 -2.3356
  164MOL0     H22075  -0.320   1.802   3.933 -0.3660  1.9087  0.1478
  164MOL0     H22076  -0.426   1.872   3.820 -2.1540 -0.1943  0.5764
  164MOL0     H22077  -0.513   1.701   4.055  4.5118  0.6256 -0.0962
  164MOL0     H22078  -0.627   1.771   3.955 -0.1252  0.3585  0.8671
  164MOL0     H22079  -0.507   2.011   4.023 -1.2929  0.4105 -0.0565
  164MOL0     H22080  -0.423   1.925   4.155 -1.3733 -0.1054  1.1873
  164MOL0     H22081  -0.712   1.933   4.128  0.0176 -1.8032  0.4724
  164MOL0     H22082  -0.632   1.827   4.239  0.2849  1.2513  0.6662
  164MOL0     H22083  -0.533   2.035   4.358  0.1143  2.2201 -0.5472
  164MOL0     H22084  -0.608   2.133   4.236 -0.1744  1.1821  0.9295
  164MOL0     H22085  -0.794   1.966   4.371  0.6273  0.7069 -0.5293
  164MOL0     H22086  -0.712   2.087   4.482  0.7935 -0.6275  0.6932
  164MOL0     H22087  -0.831   2.177   4.220  4.0720 -2.7252  0.9346
  164MOL0     H22088  -0.791   2.268   4.368 -1.1365  2.4030 -2.3637
  164MOL0     H22089  -1.036   2.248   4.344 -0.0677  0.1274  0.9764
  164MOL0     H22090  -1.028   2.073   4.323  1.1203  0.1272 -0.7058
  164MOL0     H22091  -0.996   2.368   4.579 -1.2091  0.7783  2.3461
  164MOL0     H22092  -1.073   2.357   4.852  2.0039  0.7814 -2.2844
  164MOL0     H22093  -1.068   2.191   4.916  1.4860 -3.6707 -2.5142
  164MOL0     H22094  -0.815   2.214   4.934  0.2237 -1.4176  1.7893
  164MOL0     H22095  -0.832   2.383   4.901  2.1648 -1.1471 -0.0683
  164MOL0     H22096  -0.826   2.354   5.152  0.7991 -0.5209 -1.3547
  164MOL0     H22097  -0.947   2.227   5.144 -1.8260 -0.2582 -1.1085
  164MOL0     H22098  -1.124   2.389   5.103 -0.7263  2.1281 -2.0267
  164MOL0     H22099  -1.000   2.505   5.042  0.0264 -0.3181 -0.7375
  164MOL0     H22100  -0.771   2.557   5.107  1.0696 -1.2195 -0.5793
  164MOL0     H22101  -0.642   2.737   5.154  0.9206 -0.6187  0.5434
  164MOL0     H22102  -0.657   3.192   5.367  0.3530 -1.8719  1.3993
  164MOL0     H22103  -0.515   3.391   5.420  2.5414 -1.2318  2.6382
  164MOL0     H22104  -0.228   3.415   5.097 -0.7791 -0.9158  0.5966
  164MOL0     H22105  -0.284   3.570   5.143 -1.6669 -1.1495  1.7126
  164MOL0     H22106  -0.068   3.625   5.247  0.9962  0.6759 -2.0413
  164MOL0     H22107  -0.004   3.460   5.237  0.0981  0.8818  0.5182
  164MOL0     H22108  -0.018   3.480   4.997 -2.2253  0.3177  0.4363
  164MOL0     H22109  -0.075   3.643   5.001 -0.1326 -1.4600 -1.2998
  164MOL0     H22110   0.199   3.549   5.096  2.5916  0.9415 -3.0146
  164MOL0     H22111   0.148   3.713   5.141 -0.2005  2.1655 -2.0431
  164MOL0     H22112   0.100   3.669   4.853  0.9551  1.3206 -1.6030
  164MOL0     H22113   0.258   3.613   4.882  1.2934  0.9897  0.2485
  164MOL0     H22114   0.311   3.821   5.020 -1.3871  1.2315  1.7952
  164MOL0     H22115   0.290   3.835   4.839 -2.6122  0.4345 -1.9651
  164MOL0     H22116   0.182   4.011   5.001 -0.4363  1.1567 -1.7286
  164MOL0     H22117   0.067   3.883   5.045  2.4521 -2.1433 -0.0271
  164MOL0     H22118   0.007   3.859   4.796 -1.2705  0.1024 -0.0702
  164MOL0     H22119  -0.043   4.009   4.872  0.9987 -0.1517  0.3623
  164MOL0     H22120  -0.209   3.203   5.172  0.0772  0.9812  1.4473
  164MOL0     H22121  -0.360   2.995   5.159 -1.7034 -0.6694 -0.1961
  164MOL0     H22122  -0.880   2.857   5.493  0.0237 -1.2065  0.3639
  164MOL0     H22123  -1.027   2.648   5.460 -2.8846  1.1306 -1.9664
  164MOL0     H22124  -0.383   1.443   3.711 -0.8513  0.5978 -0.1973
  164MOL0     H22125  -0.198   1.372   3.561 -0.7890 -1.3964  1.0241
  164MOL0     H22126   0.099   1.390   3.282  1.4200 -0.7666  1.5237
  164MOL0     H22127   0.189   1.396   3.061 -1.9253  0.1078  1.2954
  164MOL0     H22128   0.543   1.596   3.001 -1.0065 -0.9920  1.8873
  164MOL0     H22129   0.514   1.573   2.827 -1.9946 -1.2100 -0.1795
  164MOL0     H22130   0.454   1.328   2.901 -0.5814  0.5992  1.0402
  164MOL0     H22131   0.499   1.377   3.076  0.6298  0.1383 -0.1689
  164MOL0     H22132   0.724   1.424   3.004  0.6121 -0.1651 -1.8178
  164MOL0     H22133   0.689   1.411   2.832 -0.3055 -3.5706 -2.2748
  164MOL0     H22134   0.738   1.209   3.047  0.5507  2.2617 -0.3165
  164MOL0     H22135   0.627   1.147   2.922 -1.3004  0.3311  0.7053
  164MOL0     H22136   1.007   1.246   2.732 -0.0089  1.6632 -0.3188
  164MOL0     H22137   0.409   1.753   3.146 -0.0758  0.2225 -1.8999
  164MOL0     H22138   0.364   1.749   3.490 -2.0215 -2.0721  0.6367
  164MOL0     H22139   0.348   1.879   3.358  0.9764 -3.1080 -3.6238
  164MOL0     H22140   0.211   1.834   3.448 -0.3092  0.7822  0.1374
  165MOL0     O22141  10.806   9.540   9.270 -0.6978  0.4747 -1.5355
  165MOL0     C22142  10.730   9.521   9.178 -0.2575  1.2307  0.5065
  165MOL0     O22143  10.653   9.412   9.161 -0.1350  0.2960  0.4893
  165MOL0     C22144  10.621   9.345   9.273 -0.0849 -0.5833  0.6292
  165MOL0     C22145  10.731   9.274   9.344  1.4592 -0.2654 -0.9824
  165MOL0     C22146  10.697   9.211   9.460 -0.1467  0.0527 -0.2837
  165MOL0     C22147  10.566   9.204   9.512 -0.9558  0.4546  0.5701
  165MOL0     O22148  10.545   9.119   9.618  0.2849  0.0648 -0.0665
  165MOL0     C22149  10.612   8.989   9.603 -0.2191 -0.3031  0.0513
  165MOL0     C22150  10.571   8.895   9.712 -0.4856 -0.9624  0.0504
  165MOL0     C22151  10.417   8.839   9.716 -0.8583 -1.1139  0.4334
  165MOL0     C22152  10.329   8.962   9.761  0.0134  0.1197  0.0165
  165MOL0     C22153  10.260   9.037   9.644  1.0767  0.5861  0.2093
  165MOL0     C22154  10.122   8.967   9.624 -0.3687  0.2503  1.4765
  165MOL0     C22155  10.100   8.955   9.463  0.5343  0.2642  0.2551
  165MOL0     C22156   9.954   8.918   9.428 -0.8210  0.1670 -0.9222
  165MOL0     N22157   9.913   8.931   9.283  0.6928 -1.0025  0.5509
  165MOL0     C22158   9.986   8.931   9.161 -0.2477 -0.1073  0.1475
  165MOL0     C22159   9.900   8.935   9.065  0.4509 -0.9069  0.4281
  165MOL0     C22160   9.933   8.947   8.917  0.8436 -0.3715 -0.8570
  165MOL0     C22161   9.818   9.005   8.835 -0.0370 -0.1114 -0.9383
  165MOL0     C22162   9.692   8.921   8.827 -1.0579 -0.5133 -0.5812
  165MOL0     C22163   9.639   8.941   8.694  0.1414  0.1530  0.4007
  165MOL0     O22164   9.712   8.875   8.582  0.0520 -0.5023  0.1097
  165MOL0     C22165   9.668   8.871   8.448 -1.0760 -0.8395 -0.0934
  165MOL0     C22166   9.581   8.965   8.386  0.3172 -0.3207 -0.8347
  165MOL0     C22167   9.569   8.955   8.245  0.3318 -0.1152 -0.4536
  165MOL0     C22168   9.647   8.866   8.161  0.1211  0.5715 -0.0320
  165MOL0     C22169   9.631   8.860   8.014  0.8688 -0.0966 -0.6774
  165MOL0     O22170   9.579   8.970   7.954 -0.4776  0.0491 -0.1409
  165MOL0     C22171   9.570   8.974   7.817 -0.5792  0.7534 -0.4920
  165MOL0     C22172   9.477   9.069   7.778 -0.1225  0.4139  0.5719
  165MOL0     C22173   9.460   9.088   7.646 -1.0609 -0.5921  0.0550
  165MOL0     C22174   9.538   9.023   7.546  1.2252 -0.3789 -0.4317
  165MOL0     O22175   9.513   9.045   7.418 -0.2433  0.2812  0.6353
  165MOL0     C22176   9.453   8.933   7.360  0.2559  0.8487 -0.4278
  165MOL0     C22177   9.322   8.955   7.286 -0.3077  0.3511 -0.1435
  165MOL0     C22178   9.227   9.002   7.398 -1.0923  0.2530  1.2537
  165MOL0     C22179   9.083   8.972   7.361 -0.0734  0.4832  0.7277
  165MOL0     C22180   8.974   9.040   7.454 -1.1285 -0.4553 -0.4440
  165MOL0     C22181   8.836   8.983   7.406  0.0758  0.1554 -0.9589
  165MOL0     C22182   8.729   9.069   7.479  0.7374 -0.4970 -0.1968
  165MOL0     C22183   8.588   9.024   7.454  0.5920 -0.8373  0.2361
  165MOL0    Cl22184   8.538   9.035   7.278  0.1412  0.0220 -0.0500
  165MOL0     C22185   9.649   8.949   7.584  0.5270 -0.2006 -0.1925
  165MOL0     C22186   9.671   8.931   7.727  0.6366  0.3266  0.8163
  165MOL0     O22187   9.675   8.760   7.953 -0.5842  0.1076  0.2376
  165MOL0     C22188   9.746   8.786   8.228  0.3289 -0.1905  0.5550
  165MOL0     C22189   9.752   8.790   8.366  0.8169 -0.4121 -0.1416
  165MOL0     N22190   9.774   8.949   9.119 -0.3291  0.1808  0.1606
  165MOL0     N22191   9.779   8.942   9.249  0.2699 -0.1551 -0.2538
  165MOL0     C22192  10.469   9.288   9.450 -0.2292 -0.0751 -1.6735
  165MOL0     C22193  10.491   9.348   9.328 -0.6864 -0.3094 -0.1181
  165MOL0     C22194  10.741   9.611   9.056  1.0072  0.2452  0.2206
  165MOL0     C22195  10.665   9.584   8.936  1.0218 -0.0333  0.0347
  165MOL0     C22196  10.647   9.660   8.824  0.3719 -0.0912 -0.0210
  165MOL0     C22197  10.728   9.775   8.816 -0.5689  0.6807 -0.8139
  165MOL0     O22198  10.744   9.859   8.707  0.1844 -0.2387  0.7145
  165MOL0     C22199  10.684   9.813   8.583  0.4048 -0.0251  0.2692
  165MOL0     C22200  10.710   9.917   8.457  0.0183 -0.8009 -0.1926
  165MOL0     C22201  10.860   9.919   8.428 -0.9843  0.6744 -0.3120
  165MOL0     C22202  10.953   9.987   8.535  0.6872 -0.3463  0.2609
  165MOL0     C22203  11.097   9.998   8.485 -0.0213 -0.7641  0.5169
  165MOL0     C22204  11.213   9.992   8.448  0.9227 -0.7546 -0.0126
  165MOL0     C22205  10.814   9.804   8.926  0.3808 -0.8259  0.1735
  165MOL0     C22206  10.821   9.728   9.040  0.5354 -0.3766 -0.7397
  165MOL0     C22207  10.907   9.782   9.154  0.1361  0.4021 -1.0405
  165MOL0     H22208  10.835   9.291   9.316  2.2296 -0.4568  1.5114
  165MOL0     H22209  10.782   9.159   9.502 -1.1332  0.4287  2.4019
  165MOL0     H22210  10.580   8.943   9.508  0.4180  0.5367 -0.5822
  165MOL0     H22211  10.721   8.990   9.606 -0.1568 -1.3619 -0.8328
  165MOL0     H22212  10.599   8.925   9.813  1.7063 -0.8581 -0.5455
  165MOL0     H22213  10.633   8.806   9.703  0.1943 -0.4264 -0.7199
  165MOL0     H22214  10.406   8.768   9.799 -2.6306 -2.6370 -1.0015
  165MOL0     H22215  10.385   8.803   9.618  0.6540  1.1622 -1.0091
  165MOL0     H22216  10.247   8.933   9.828 -0.8193  3.6342  0.7724
  165MOL0     H22217  10.389   9.032   9.821  0.6101 -0.3740 -0.0068
  165MOL0     H22218  10.257   9.144   9.666  0.0793  0.4203  0.9312
  165MOL0     H22219  10.331   9.035   9.560  0.7453  0.7951 -0.0801
  165MOL0     H22220  10.126   8.867   9.669  2.5386 -0.1941  0.4322
  165MOL0     H22221  10.034   9.007   9.675 -1.8047 -2.5432  1.3175
  165MOL0     H22222  10.165   8.876   9.423 -2.6585 -3.2662  1.3604
  165MOL0     H22223  10.114   9.053   9.417 -2.1376 -0.2371 -1.8744
  165MOL0     H22224   9.939   8.816   9.463  2.3633  0.1101  0.6817
  165MOL0     H22225   9.886   8.981   9.486  1.5690  0.3401  1.9228
  165MOL0     H22226  10.093   8.918   9.147 -0.4825 -0.1863 -1.8673
  165MOL0     H22227  10.034   8.989   8.910  0.8226  0.1145  1.1495
  165MOL0     H22228   9.960   8.851   8.872  0.8321  0.8253 -3.6413
  165MOL0     H22229   9.808   9.107   8.872  1.2668  1.2594 -4.0581
  165MOL0     H22230   9.856   9.023   8.734  2.5484  0.6476  0.0888
  165MOL0     H22231   9.615   8.959   8.895 -0.1343  1.5225 -0.5854
  165MOL0     H22232   9.705   8.817   8.857  1.0930  0.3721  1.8825
  165MOL0     H22233   9.628   9.049   8.681 -0.7850  0.0792  0.5493
  165MOL0     H22234   9.538   8.901   8.700  1.1434 -2.3515  2.0380
  165MOL0     H22235   9.511   9.034   8.433  0.5347 -0.8260  0.2715
  165MOL0     H22236   9.503   9.029   8.200 -0.5059  0.6231  1.8596
  165MOL0     H22237   9.422   9.130   7.849  0.5156  0.6903  0.8341
  165MOL0     H22238   9.392   9.163   7.608 -2.2807 -0.2171  2.7703
  165MOL0     H22239   9.536   8.896   7.298  4.0834 -0.4457  4.7817
  165MOL0     H22240   9.432   8.848   7.426  1.4291  1.7620  1.1646
  165MOL0     H22241   9.338   9.032   7.210  2.1719  1.6655  1.5561
  165MOL0     H22242   9.291   8.860   7.242 -3.1046  2.1896 -2.4495
  165MOL0     H22243   9.245   8.946   7.490  0.3416 -0.7908  0.3690
  165MOL0     H22244   9.244   9.109   7.415  1.2154  0.0178  0.7547
  165MOL0     H22245   9.082   8.864   7.374  1.9532  0.5456  1.7835
  165MOL0     H22246   9.061   9.011   7.261 -3.8896 -1.2334  0.7038
  165MOL0     H22247   8.978   9.148   7.441  1.6112 -0.4388 -0.0149
  165MOL0     H22248   8.991   9.020   7.561  1.8742  0.9877 -0.5696
  165MOL0     H22249   8.830   8.985   7.296 -1.4157 -0.2565 -0.9041
  165MOL0     H22250   8.805   8.881   7.430 -0.1733  0.0714 -1.5967
  165MOL0     H22251   8.749   9.176   7.470  1.8866 -0.0604  4.6687
  165MOL0     H22252   8.753   9.062   7.586  2.0455 -1.2218 -0.5144
  165MOL0     H22253   8.580   8.923   7.495 -0.5157 -1.5728 -1.6883
  165MOL0     H22254   8.534   9.093   7.520 -0.0926 -3.5140  2.6683
  165MOL0     H22255   9.710   8.903   7.508  0.3057  1.6181 -1.5398
  165MOL0     H22256   9.760   8.873   7.750  0.0815 -1.1250 -0.5118
  165MOL0     H22257   9.801   8.720   8.161  0.8250  1.9339 -1.2352
  165MOL0     H22258   9.840   8.741   8.407 -1.1237 -1.2827  3.3603
  165MOL0     H22259  10.370   9.286   9.494 -0.9992  0.8951 -3.2892
  165MOL0     H22260  10.414   9.392   9.265  0.2687  0.8765 -0.4926
  165MOL0     H22261  10.608   9.491   8.930  0.0672  0.5048  0.4988
  165MOL0     H22262  10.591   9.631   8.736  0.4601 -0.5040  0.0567
  165MOL0     H22263  10.576   9.814   8.604  0.5994  2.4210  1.6506
  165MOL0     H22264  10.723   9.712   8.569  2.4861  0.4291  2.0790
  165MOL0     H22265  10.675  10.016   8.485  2.1116 -0.1663  0.4299
  165MOL0     H22266  10.651   9.890   8.370 -2.2148 -4.0141  2.0959
  165MOL0     H22267  10.884   9.960   8.330 -0.7646  1.1325 -0.0672
  165MOL0     H22268  10.910   9.822   8.418  0.4133  1.6433 -5.4500
  165MOL0     H22269  10.920  10.088   8.559  0.4917 -0.3807  0.1390
  165MOL0     H22270  10.960   9.932   8.629  0.0943 -0.2496  0.3610
  165MOL0     H22271  11.318   9.979   8.434  0.8566 -2.0139  0.5141
  165MOL0     H22272  10.881   9.887   8.908  0.6673 -0.8720  0.9844
  165MOL0     H22273  10.847   9.787   9.245  0.1373 -0.1977 -1.0006
  165MOL0     H22274  10.999   9.727   9.178 -0.8526 -0.8440  0.0986
  165MOL0     H22275  10.919   9.890   9.139  0.2669  1.2136  3.4143
  166MOL0     O22276   1.283   4.138  10.789 -0.3960 -0.1556 -0.1063
  166MOL0     C22277   1.285   4.252  10.836 -0.4122 -0.5567  1.1611
  166MOL0     O22278   1.262   4.369  10.765 -0.4202  0.3984  0.2053
  166MOL0     C22279   1.166   4.377  10.676  0.4474 -0.1239  0.4677
  166MOL0     C22280   1.064   4.287  10.635  0.5166 -0.7125  0.5084
  166MOL0     C22281   0.949   4.323  10.556  0.0758 -0.6336 -0.2960
  166MOL0     C22282   0.940   4.458  10.505 -0.8175  0.8888 -0.3904
  166MOL0     O22283   0.838   4.519  10.430 -0.4103  0.4099 -0.2830
  166MOL0     C22284   0.751   4.437  10.351 -0.5035 -0.5104 -0.2965
  166MOL0     C22285   0.701   4.504  10.225 -0.0532 -0.5707 -0.1575
  166MOL0     C22286   0.569   4.438  10.173  0.2529  0.4053  0.3170
  166MOL0     C22287   0.500   4.514  10.059 -0.4745 -0.3321  0.1516
  166MOL0     C22288   0.440   4.653  10.096 -0.1020 -0.5373 -0.8105
  166MOL0     C22289   0.297   4.644  10.155  0.0298  1.1344 -0.2650
  166MOL0     C22290   0.188   4.622  10.049  0.3336 -0.6282  0.5456
  166MOL0     C22291   0.156   4.757   9.998 -0.4705  0.1566 -1.1203
  166MOL0     N22292   0.060   4.753   9.889 -1.1719 -0.8966 -1.4160
  166MOL0     C22293  -0.077   4.787   9.912 -0.4177 -0.0992  0.4014
  166MOL0     C22294  -0.146   4.780   9.797 -0.6178  0.4062  0.9357
  166MOL0     C22295  -0.294   4.781   9.782  0.1331 -0.1740 -0.2001
  166MOL0     C22296  -0.362   4.911   9.838 -0.1800 -1.0392 -0.0129
  166MOL0     C22297  -0.350   5.020   9.736  0.0941 -0.3682  0.0125
  166MOL0     C22298  -0.403   5.153   9.783  0.1284 -0.2378  0.0946
  166MOL0     O22299  -0.380   5.232   9.667  0.5762 -0.6487 -0.5157
  166MOL0     C22300  -0.482   5.326   9.644  0.8307  0.3659 -0.5366
  166MOL0     C22301  -0.540   5.322   9.519 -0.4424 -0.8947 -0.4684
  166MOL0     C22302  -0.632   5.416   9.481  0.4703 -0.0039  0.6340
  166MOL0     C22303  -0.684   5.506   9.564 -0.2362 -0.2554 -0.2978
  166MOL0     C22304  -0.782   5.603   9.525 -0.2663 -0.1078 -0.3171
  166MOL0     O22305  -0.824   5.600   9.391 -0.0681  0.4364  0.2751
  166MOL0     C22306  -0.907   5.691   9.345 -0.1227 -0.5247 -0.0614
  166MOL0     C22307  -0.959   5.660   9.215 -0.3562  1.1280 -0.0472
  166MOL0     C22308  -1.031   5.761   9.145  0.2083  0.1481  0.1058
  166MOL0     C22309  -1.065   5.883   9.199 -0.6439  0.4908  0.2957
  166MOL0     O22310  -1.144   5.962   9.126 -0.8519  0.3366 -0.3687
  166MOL0     C22311  -1.097   6.079   9.068 -0.1468  0.1378 -0.6268
  166MOL0     C22312  -1.183   6.202   9.094  0.8678  0.1346 -0.7820
  166MOL0     C22313  -1.318   6.202   9.033 -0.4186 -0.0948 -0.5381
  166MOL0     C22314  -1.316   6.220   8.885  0.6075 -0.3488 -0.0563
  166MOL0     C22315  -1.472   6.226   8.841  0.7355  0.7940 -0.8371
  166MOL0     C22316  -1.492   6.275   8.701  0.1929  0.2018 -0.5486
  166MOL0     C22317  -1.459   6.422   8.673 -0.3222  0.0231 -0.9991
  166MOL0     C22318  -1.513   6.450   8.535 -0.4694  0.2027  0.0557
  166MOL0    Cl22319  -1.400   6.362   8.425  0.3856 -0.4234 -0.0736
  166MOL0     C22320  -1.026   5.913   9.330 -0.9626  0.4322  0.7013
  166MOL0     C22321  -0.956   5.814   9.409 -0.3097 -1.0346 -0.4471
  166MOL0     O22322  -0.843   5.657   9.615  0.2992 -0.0514 -0.1526
  166MOL0     C22323  -0.635   5.512   9.697 -0.8754  0.5213  0.6163
  166MOL0     C22324  -0.533   5.422   9.737 -0.7359  0.5762  0.8571
  166MOL0     N22325  -0.052   4.731   9.705 -0.0263  0.3079  0.2495
  166MOL0     N22326   0.068   4.713   9.760  0.5695  0.7302  0.5364
  166MOL0     C22327   1.047   4.541  10.531  0.2415  0.2023 -0.3099
  166MOL0     C22328   1.155   4.505  10.609  0.4732 -0.2319 -1.3850
  166MOL0     C22329   1.346   4.269  10.971  0.8345  0.3883  1.4206
  166MOL0     C22330   1.425   4.382  11.000 -0.6968 -0.5465  0.6746
  166MOL0     C22331   1.503   4.385  11.115  0.7832  0.1612  0.6236
  166MOL0     C22332   1.499   4.286  11.204 -0.3285  0.0295 -1.3314
  166MOL0     O22333   1.553   4.285  11.327  0.4950  0.2115 -0.0343
  166MOL0     C22334   1.630   4.396  11.377  0.4606  0.1293  0.1195
  166MOL0     C22335   1.779   4.381  11.324  0.5776 -0.6514 -0.2054
  166MOL0     C22336   1.865   4.282  11.408 -0.2017 -1.0074 -0.2434
  166MOL0     C22337   2.014   4.289  11.381  0.2230  0.2481  0.9298
  166MOL0     C22338   2.070   4.409  11.330 -0.4587  0.4696  0.5719
  166MOL0     C22339   2.106   4.516  11.289 -0.3228 -0.5084 -0.3521
  166MOL0     C22340   1.406   4.182  11.187  0.3219  0.0807 -0.3395
  166MOL0     C22341   1.330   4.170  11.074 -0.8564  1.2801 -0.1322
  166MOL0     C22342   1.214   4.074  11.081  0.4723  0.0696 -0.0086
  166MOL0     H22343   1.056   4.191  10.685 -1.9298 -0.1258  1.3963
  166MOL0     H22344   0.861   4.260  10.563 -2.3221  2.5799  0.9434
  166MOL0     H22345   0.804   4.347  10.319 -1.9564 -1.8720  0.9348
  166MOL0     H22346   0.669   4.400  10.414 -0.8343 -0.2709 -0.5831
  166MOL0     H22347   0.777   4.496  10.148 -0.1461 -0.4522 -0.2623
  166MOL0     H22348   0.682   4.611  10.239  1.2003 -0.2530 -0.8166
  166MOL0     H22349   0.510   4.415  10.262  0.4976  1.0375  0.6541
  166MOL0     H22350   0.607   4.346  10.128  1.3906  0.4694  1.1241
  166MOL0     H22351   0.571   4.523   9.976  0.9711 -2.2060  1.1037
  166MOL0     H22352   0.425   4.451  10.011 -0.1979  0.1797 -0.9966
  166MOL0     H22353   0.498   4.711  10.169 -1.2687  0.2948 -0.5146
  166MOL0     H22354   0.440   4.711  10.003 -0.6237 -0.9627 -1.0780
  166MOL0     H22355   0.303   4.562  10.227  1.9626 -1.9460 -3.5813
  166MOL0     H22356   0.266   4.733  10.211 -1.4484  1.4089 -1.4582
  166MOL0     H22357   0.100   4.583  10.102  0.4345 -1.3148  0.2190
  166MOL0     H22358   0.215   4.554   9.967  0.1031  2.7389 -2.5575
  166MOL0     H22359   0.122   4.825  10.077 -0.0070  1.4486 -1.9937
  166MOL0     H22360   0.249   4.799   9.959  1.1105 -1.1161  1.0898
  166MOL0     H22361  -0.112   4.816  10.010 -0.5066 -2.0602  1.0093
  166MOL0     H22362  -0.311   4.791   9.674  2.1535  0.7980 -0.4872
  166MOL0     H22363  -0.340   4.689   9.820 -0.9454 -0.0581 -1.1718
  166MOL0     H22364  -0.467   4.891   9.858 -0.2579 -2.3663 -1.5228
  166MOL0     H22365  -0.312   4.939   9.932 -1.7018  0.5729  0.3770
  166MOL0     H22366  -0.406   4.990   9.648 -2.5553  1.2839  1.0197
  166MOL0     H22367  -0.245   5.025   9.706  0.2172 -1.9648  0.1115
  166MOL0     H22368  -0.352   5.195   9.870  1.3575  0.0031 -0.7176
  166MOL0     H22369  -0.509   5.154   9.810  0.4934  3.6057  2.0509
  166MOL0     H22370  -0.508   5.250   9.444  1.3041 -0.4398 -0.2110
  166MOL0     H22371  -0.668   5.401   9.380  1.4408 -1.4376  0.4599
  166MOL0     H22372  -0.941   5.562   9.172 -0.3732  0.3199  1.6752
  166MOL0     H22373  -1.060   5.743   9.042  4.2984  0.4708 -1.3235
  166MOL0     H22374  -0.998   6.091   9.113 -0.6377 -3.5022  1.8343
  166MOL0     H22375  -1.087   6.075   8.959 -2.3214 -0.7162 -0.8388
  166MOL0     H22376  -1.203   6.202   9.202  0.2018 -2.4787 -0.8494
  166MOL0     H22377  -1.134   6.296   9.066 -1.6711  1.5987 -0.5896
  166MOL0     H22378  -1.359   6.105   9.062  0.6843  0.0094  1.5633
  166MOL0     H22379  -1.374   6.287   9.072  3.0757  2.1414  0.0805
  166MOL0     H22380  -1.256   6.142   8.837  2.7894  2.0845 -1.6059
  166MOL0     H22381  -1.265   6.314   8.859 -0.7566  0.2051 -0.8227
  166MOL0     H22382  -1.516   6.308   8.899  1.7639  1.2922 -0.7461
  166MOL0     H22383  -1.523   6.131   8.855  2.3143  0.3560  4.0080
  166MOL0     H22384  -1.431   6.211   8.638 -1.7663  0.1540 -2.5060
  166MOL0     H22385  -1.592   6.262   8.659 -0.5013  0.2848  0.9809
  166MOL0     H22386  -1.351   6.442   8.664 -0.5489  1.3354 -0.9550
  166MOL0     H22387  -1.496   6.483   8.756 -1.3980 -1.7296 -0.1383
  166MOL0     H22388  -1.614   6.416   8.509 -0.4718 -0.2067  0.5834
  166MOL0     H22389  -1.499   6.556   8.512  2.6368 -0.5659 -2.3142
  166MOL0     H22390  -1.044   6.008   9.379  1.1621  0.6792  1.0738
  166MOL0     H22391  -0.925   5.833   9.512 -1.6106 -0.4524 -0.1344
  166MOL0     H22392  -0.662   5.592   9.765 -2.1783 -0.0108  0.7534
  166MOL0     H22393  -0.486   5.430   9.835  1.1140 -0.8450  0.1407
  166MOL0     H22394   1.040   4.638  10.484  0.8280  1.0011  1.2097
  166MOL0     H22395   1.233   4.575  10.636 -1.1073  0.6290  1.3605
  166MOL0     H22396   1.433   4.466  10.932 -1.1553  0.3124  1.6577
  166MOL0     H22397   1.560   4.476  11.131 -0.0024  0.8218 -0.2164
  166MOL0     H22398   1.628   4.392  11.486 -1.3775 -0.0008  0.1268
  166MOL0     H22399   1.582   4.491  11.354  0.5003  0.2612  0.5717
  166MOL0     H22400   1.830   4.478  11.334  2.7795 -1.9082  2.1969
  166MOL0     H22401   1.779   4.355  11.218  3.4383 -1.4441 -0.1182
  166MOL0     H22402   1.838   4.179  11.384 -0.9160 -1.4963  2.3593
  166MOL0     H22403   1.830   4.299  11.511 -4.7788 -2.0811 -1.4069
  166MOL0     H22404   2.062   4.260  11.474 -1.1274 -0.4749  1.4401
  166MOL0     H22405   2.032   4.209  11.308 -0.0291  2.2454 -1.4667
  166MOL0     H22406   2.125   4.612  11.245 -1.6628 -1.2386 -2.7122
  166MOL0     H22407   1.392   4.113  11.270  3.1242 -1.8406 -1.2970
  166MOL0     H22408   1.135   4.120  11.021 -0.3585  0.0096  1.0171
  166MOL0     H22409   1.264   3.983  11.048  1.7885  0.8613 -0.2892
  166MOL0     H22410   1.178   4.075  11.184 -2.2057 -2.0641 -0.8240
  167MOL0     O22411  10.269   2.398   1.049 -0.6473 -0.1147  0.0594
  167MOL0     C22412  10.179   2.353   0.983  0.5604  0.8700 -0.5283
  167MOL0     O22413  10.141   2.389   0.856 -0.4434 -0.0968  0.0356
  167MOL0     C22414  10.220   2.482   0.780 -0.7158  0.2397 -0.6320
  167MOL0     C22415  10.257   2.448   0.643 -0.0071  0.5465 -1.8545
  167MOL0     C22416  10.347   2.518   0.573  0.3529  0.2116 -0.3279
  167MOL0     C22417  10.406   2.634   0.626 -0.4292 -0.1743  0.4527
  167MOL0     O22418  10.486   2.716   0.545  0.2054 -0.0234 -0.6468
  167MOL0     C22419  10.489   2.696   0.402  0.2034 -0.0895 -0.2858
  167MOL0     C22420  10.573   2.810   0.337 -0.1710 -0.2701  0.7318
  167MOL0     C22421  10.532   2.830   0.183  0.2265  0.9745 -0.3725
  167MOL0     C22422  10.625   2.909   0.093 -1.2607 -0.1200 -0.3138
  167MOL0     C22423  10.762   2.848   0.057  0.0551 -1.3330 -0.6351
  167MOL0     C22424  10.833   2.926  -0.050 -0.3191  0.0439 -1.8130
  167MOL0     C22425  10.879   3.055   0.006 -0.9472  0.3547 -0.3672
  167MOL0     C22426  10.971   3.125  -0.101  0.0017  0.6293  0.2210
  167MOL0     N22427  11.000   3.263  -0.065 -0.1338 -0.1242  0.6623
  167MOL0     C22428  10.982   3.370  -0.151  0.0514  0.7827 -0.2639
  167MOL0     C22429  11.063   3.472  -0.103 -0.9817  1.0144 -0.3549
  167MOL0     C22430  11.076   3.611  -0.167 -0.2295  0.3337  0.0765
  167MOL0     C22431  11.177   3.640  -0.283 -0.0601 -0.3206 -0.4317
  167MOL0     C22432  11.194   3.515  -0.362  0.7733  0.5204  0.5146
  167MOL0     C22433  11.275   3.525  -0.485  0.4698  0.0132 -0.1372
  167MOL0     O22434  11.279   3.397  -0.553 -0.1045  1.0697  0.6338
  167MOL0     C22435  11.355   3.397  -0.663  0.2518 -0.5629 -0.6516
  167MOL0     C22436  11.402   3.508  -0.735  0.2596 -0.0800  0.7773
  167MOL0     C22437  11.469   3.484  -0.856 -0.0237  1.5771  0.4852
  167MOL0     C22438  11.479   3.357  -0.910  0.2171 -0.9884  0.5321
  167MOL0     C22439  11.532   3.338  -1.051 -1.0001  0.7345 -1.1999
  167MOL0     O22440  11.479   3.223  -1.118 -0.5540 -0.1307 -1.0249
  167MOL0     C22441  11.518   3.195  -1.250 -0.1095  0.0709 -0.3510
  167MOL0     C22442  11.560   3.291  -1.348 -0.2288  1.4573 -0.2269
  167MOL0     C22443  11.598   3.251  -1.474  1.0442 -1.0866  0.8429
  167MOL0     C22444  11.597   3.113  -1.505  0.7414 -0.2207  0.5621
  167MOL0     O22445  11.641   3.085  -1.632 -0.4210 -0.4662  0.4385
  167MOL0     C22446  11.556   3.009  -1.717  0.3866  0.7609 -0.4276
  167MOL0     C22447  11.611   2.863  -1.727 -0.0666  0.7589 -0.4580
  167MOL0     C22448  11.700   2.871  -1.857  0.3336 -0.3324  0.6449
  167MOL0     C22449  11.796   2.748  -1.857  0.4141 -0.1426  0.3358
  167MOL0     C22450  11.867   2.727  -1.987  0.0710 -0.9312 -0.6225
  167MOL0     C22451  11.939   2.591  -1.984  0.8694 -0.3584 -0.6100
  167MOL0     C22452  12.007   2.556  -2.121 -0.1844  1.0525 -0.3689
  167MOL0     C22453  11.910   2.510  -2.226  0.8691  0.7998 -0.6996
  167MOL0    Cl22454  11.837   2.357  -2.183  0.5226 -0.2039 -0.2802
  167MOL0     C22455  11.531   3.022  -1.422  1.2258 -1.0279 -0.0090
  167MOL0     C22456  11.497   3.068  -1.299  0.1632 -0.7174 -0.0898
  167MOL0     O22457  11.626   3.403  -1.079 -0.7530 -0.2837  0.7162
  167MOL0     C22458  11.417   3.253  -0.846 -0.2739 -0.4724 -0.5646
  167MOL0     C22459  11.366   3.279  -0.723  0.6828  0.5319  0.1126
  167MOL0     N22460  11.136   3.423   0.010 -0.3855 -0.1301 -0.4155
  167MOL0     N22461  11.102   3.299   0.020 -0.4461  0.4551  0.0528
  167MOL0     C22462  10.381   2.662   0.759 -0.3832 -0.7683 -0.8108
  167MOL0     C22463  10.282   2.592   0.836 -0.0588 -0.0010  0.1166
  167MOL0     C22464  10.097   2.244   1.049  0.2004  0.0313 -0.0651
  167MOL0     C22465   9.988   2.193   0.979 -0.6975  0.1024 -0.1102
  167MOL0     C22466   9.910   2.096   1.041 -1.0352  0.3005 -0.0067
  167MOL0     C22467   9.934   2.054   1.173  0.8922  0.2550 -1.0988
  167MOL0     O22468   9.850   1.974   1.246 -0.1356 -0.2846 -0.4659
  167MOL0     C22469   9.718   1.946   1.196 -0.2937 -0.2433  1.0226
  167MOL0     C22470   9.644   1.839   1.273 -0.4076 -1.0935 -0.0243
  167MOL0     C22471   9.735   1.720   1.305 -0.0140 -0.1567  1.0081
  167MOL0     C22472   9.666   1.615   1.393  0.4875  1.0064 -0.7957
  167MOL0     C22473   9.559   1.559   1.330 -0.6509 -0.7724 -0.2450
  167MOL0     C22474   9.477   1.513   1.254 -0.4071  0.3418  0.1881
  167MOL0     C22475  10.046   2.103   1.235  0.0275  0.6908  0.1606
  167MOL0     C22476  10.135   2.192   1.180 -0.2169  0.0506 -0.3740
  167MOL0     C22477  10.250   2.225   1.270 -0.0930 -0.2847  0.0523
  167MOL0     H22478  10.224   2.356   0.595  0.2465 -0.2064 -0.6430
  167MOL0     H22479  10.372   2.480   0.474 -0.9525  1.9179 -1.3792
  167MOL0     H22480  10.526   2.597   0.376  1.4644  0.5403 -0.9705
  167MOL0     H22481  10.386   2.695   0.365  0.6957 -1.7931 -1.7497
  167MOL0     H22482  10.680   2.795   0.351 -0.2303 -0.5747  0.8804
  167MOL0     H22483  10.540   2.902   0.384 -1.3548 -1.1213  1.6292
  167MOL0     H22484  10.434   2.877   0.171  1.1157  2.2397 -3.9624
  167MOL0     H22485  10.530   2.731   0.136  2.3567  1.1851 -1.0005
  167MOL0     H22486  10.597   2.917  -0.013  3.3115 -1.1292 -1.8201
  167MOL0     H22487  10.628   3.011   0.132 -0.9697 -0.3376  0.2418
  167MOL0     H22488  10.825   2.846   0.147  0.5170 -1.6735 -0.9571
  167MOL0     H22489  10.749   2.747   0.019  0.3190 -0.7749 -2.2705
  167MOL0     H22490  10.919   2.863  -0.073  0.0977 -1.1527  2.2918
  167MOL0     H22491  10.766   2.936  -0.136 -2.8500  1.2152  0.1437
  167MOL0     H22492  10.932   3.031   0.099 -0.6881  1.6843 -0.1471
  167MOL0     H22493  10.795   3.119   0.033 -1.3520  0.8875 -2.7288
  167MOL0     H22494  11.060   3.062  -0.113 -2.1276 -2.8014  1.1042
  167MOL0     H22495  10.928   3.119  -0.202 -1.4955  3.6964  0.5641
  167MOL0     H22496  10.907   3.370  -0.230  0.7767 -0.2691 -0.9794
  167MOL0     H22497  10.976   3.647  -0.194 -1.4452 -0.2708  3.2443
  167MOL0     H22498  11.108   3.673  -0.083 -1.9026  1.6228 -0.1844
  167MOL0     H22499  11.131   3.721  -0.341 -1.6032  0.4483  1.7488
  167MOL0     H22500  11.271   3.663  -0.231 -0.0905 -0.9419 -0.0947
  167MOL0     H22501  11.093   3.482  -0.391  0.3810 -1.5402  3.6634
  167MOL0     H22502  11.230   3.430  -0.302 -2.7406 -1.0395  0.7032
  167MOL0     H22503  11.375   3.556  -0.455  1.5188 -1.0399 -2.3498
  167MOL0     H22504  11.233   3.607  -0.544 -1.4963 -0.6953  0.1853
  167MOL0     H22505  11.383   3.610  -0.703  1.5011 -0.0626  1.5417
  167MOL0     H22506  11.505   3.564  -0.921  2.0757  0.8557  0.6697
  167MOL0     H22507  11.583   3.396  -1.332 -3.5437  2.0133  1.7892
  167MOL0     H22508  11.625   3.329  -1.545  1.0704 -1.6178  0.2647
  167MOL0     H22509  11.452   3.008  -1.684  0.2593 -3.0451 -0.4007
  167MOL0     H22510  11.537   3.045  -1.819 -0.8174  4.8954  1.0751
  167MOL0     H22511  11.680   2.846  -1.644  0.7296 -0.7553 -1.3951
  167MOL0     H22512  11.533   2.787  -1.739 -1.0514  1.5193  0.9019
  167MOL0     H22513  11.634   2.876  -1.944  0.1954 -0.0234  0.7640
  167MOL0     H22514  11.759   2.963  -1.860 -1.8851  1.1483  0.4183
  167MOL0     H22515  11.731   2.660  -1.846 -0.3530  0.0010 -2.2963
  167MOL0     H22516  11.861   2.750  -1.769 -0.3607 -0.7743  0.9421
  167MOL0     H22517  11.939   2.806  -2.013  3.0312 -2.9431  0.8484
  167MOL0     H22518  11.790   2.727  -2.064 -0.1768 -1.0435 -0.3769
  167MOL0     H22519  12.014   2.609  -1.907 -1.8249 -0.5007  2.2243
  167MOL0     H22520  11.885   2.505  -1.943 -0.8048  0.7718 -0.3490
  167MOL0     H22521  12.075   2.472  -2.104 -2.1881 -0.3983  0.9636
  167MOL0     H22522  12.055   2.644  -2.164 -1.0717  1.8995  0.3091
  167MOL0     H22523  11.830   2.584  -2.235 -0.1095 -0.2623 -0.8589
  167MOL0     H22524  11.959   2.500  -2.324 -0.0014 -2.2402 -0.9234
  167MOL0     H22525  11.506   2.922  -1.458 -4.3217  0.4984 -1.4175
  167MOL0     H22526  11.450   2.994  -1.234  1.9903 -1.2981  0.6345
  167MOL0     H22527  11.430   3.150  -0.878  0.6842 -0.8347  0.8888
  167MOL0     H22528  11.314   3.203  -0.666 -0.4193  1.1584 -0.0252
  167MOL0     H22529  10.434   2.748   0.801 -2.0309 -0.4583  0.7496
  167MOL0     H22530  10.261   2.620   0.939 -0.3753  1.2504 -0.2650
  167MOL0     H22531   9.965   2.222   0.877 -1.9593 -6.0009 -1.9789
  167MOL0     H22532   9.832   2.061   0.973  0.0550 -0.3274 -0.9711
  167MOL0     H22533   9.724   1.911   1.092  0.1823  0.0085  0.9621
  167MOL0     H22534   9.660   2.038   1.203 -0.2788 -0.2835  1.7314
  167MOL0     H22535   9.568   1.803   1.202 -2.1098  1.6261  0.2840
  167MOL0     H22536   9.602   1.887   1.362  1.9443  3.8572 -1.2638
  167MOL0     H22537   9.817   1.765   1.362 -0.5162  1.0661  0.7963
  167MOL0     H22538   9.766   1.678   1.210 -0.8044  3.1784 -0.8806
  167MOL0     H22539   9.730   1.537   1.434 -1.5764 -1.2409 -1.6139
  167MOL0     H22540   9.631   1.671   1.480  0.0133 -0.3116 -0.1141
  167MOL0     H22541   9.413   1.460   1.187 -1.5706  0.5013  1.1450
  167MOL0     H22542  10.050   2.061   1.335 -0.0797 -1.0118 -0.5171
  167MOL0     H22543  10.337   2.185   1.217 -1.2286 -2.1714 -0.5027
  167MOL0     H22544  10.239   2.333   1.282  1.0026 -0.2749  1.1291
  167MOL0     H22545  10.251   2.175   1.367 -0.4525 -3.2180 -1.3476
  168MOL0     O22546   0.357   9.885   9.280 -0.3306 -0.2044 -0.0615
  168MOL0     C22547   0.307   9.936   9.381 -0.0589  0.2089  0.0100
  168MOL0     O22548   0.341   9.891   9.509 -0.7820 -0.4396 -0.6127
  168MOL0     C22549   0.419   9.783   9.508  0.3175  0.5938 -0.0597
  168MOL0     C22550   0.559   9.790   9.489 -0.1017 -1.1687 -0.0308
  168MOL0     C22551   0.628   9.672   9.487 -0.2929  0.4461  0.0781
  168MOL0     C22552   0.563   9.547   9.492  0.5328 -0.2301  0.2779
  168MOL0     O22553   0.640   9.436   9.490  0.1834  0.1554  0.4879
  168MOL0     C22554   0.677   9.389   9.614  0.0594  0.5505  0.4053
  168MOL0     C22555   0.829   9.372   9.630 -0.1289 -0.6312  0.3655
  168MOL0     C22556   0.867   9.370   9.775  0.3258  0.5609  0.3671
  168MOL0     C22557   0.830   9.238   9.848 -0.6177  0.3264  1.2827
  168MOL0     C22558   0.882   9.236   9.986  0.5758 -0.3715 -0.7448
  168MOL0     C22559   1.025   9.243  10.019  0.4431  0.2060 -0.1664
  168MOL0     C22560   1.052   9.253  10.166 -0.5804 -0.5048  0.4163
  168MOL0     C22561   1.189   9.311  10.193  0.8180 -0.0242 -0.3676
  168MOL0     N22562   1.276   9.220  10.135  0.8927  0.0750 -0.0051
  168MOL0     C22563   1.319   9.225  10.009 -0.5590 -0.7272  0.9416
  168MOL0     C22564   1.407   9.118   9.997  0.3303 -0.1274 -0.2236
  168MOL0     C22565   1.496   9.112   9.874  0.0529 -0.2571  0.3768
  168MOL0     C22566   1.607   9.011   9.893 -0.2751  0.2987  0.0363
  168MOL0     C22567   1.703   9.016   9.782 -0.0151  0.1236  0.3715
  168MOL0     C22568   1.801   8.906   9.810  0.4991 -0.3233  0.4007
  168MOL0     O22569   1.894   8.911   9.700 -0.2836 -1.0526 -0.1089
  168MOL0     C22570   1.999   9.002   9.696  0.3280  0.0387  0.4026
  168MOL0     C22571   2.052   9.017   9.570 -0.7042  0.0308  0.6026
  168MOL0     C22572   2.162   9.099   9.551  0.0014 -0.7122 -0.2194
  168MOL0     C22573   2.227   9.171   9.655 -0.3547 -0.7523  0.1988
  168MOL0     C22574   2.341   9.257   9.630 -0.8500  0.2529  0.2255
  168MOL0     O22575   2.395   9.256   9.503  0.2257  0.3989  0.2055
  168MOL0     C22576   2.512   9.319   9.471 -0.3945 -0.3291  0.3844
  168MOL0     C22577   2.605   9.383   9.561 -0.0025 -0.4302 -0.3787
  168MOL0     C22578   2.707   9.462   9.505  0.3284 -0.5719  0.3450
  168MOL0     C22579   2.716   9.480   9.372  0.6748  0.2561 -0.7473
  168MOL0     O22580   2.816   9.567   9.332 -0.7320  0.2043  0.4303
  168MOL0     C22581   2.872   9.552   9.192 -0.2806  0.0986 -0.2642
  168MOL0     C22582   2.981   9.662   9.186  0.3585  1.5985 -0.8872
  168MOL0     C22583   3.031   9.677   9.043 -0.0133 -0.8649  1.2768
  168MOL0     C22584   3.154   9.766   9.043 -0.3747  0.3204 -0.6156
  168MOL0     C22585   3.250   9.736   8.927 -0.0574  0.2256 -0.4784
  168MOL0     C22586   3.208   9.789   8.792 -0.6215  0.5521 -0.3840
  168MOL0     C22587   3.336   9.808   8.711  0.2693 -0.0538  0.5470
  168MOL0     C22588   3.335   9.749   8.569  0.3113  0.4323  0.2939
  168MOL0    Cl22589   3.486   9.780   8.490 -0.2342 -0.1691 -0.0958
  168MOL0     C22590   2.636   9.415   9.289  0.4607  0.8528 -0.9257
  168MOL0     C22591   2.528   9.333   9.333 -0.5728  0.5404 -0.5427
  168MOL0     O22592   2.384   9.326   9.719  1.3628  0.8166 -0.3740
  168MOL0     C22593   2.158   9.159   9.781 -0.8512  0.6721 -0.3592
  168MOL0     C22594   2.041   9.073   9.804 -0.8897 -1.1649  0.3483
  168MOL0     N22595   1.402   9.053  10.119  0.6526  0.2788 -0.3207
  168MOL0     N22596   1.326   9.117  10.200 -1.3223 -0.3818  0.2806
  168MOL0     C22597   0.426   9.542   9.486 -0.0444 -0.0770  0.4334
  168MOL0     C22598   0.356   9.659   9.497  0.2577 -0.6261  0.6908
  168MOL0     C22599   0.224  10.053   9.375  0.0385 -0.7596 -0.0648
  168MOL0     C22600   0.142  10.083   9.485  0.0595  0.6480 -0.5109
  168MOL0     C22601   0.062  10.191   9.490  0.2297  0.3783 -0.1491
  168MOL0     C22602   0.052  10.285   9.387 -0.5295 -0.4203 -0.0897
  168MOL0     O22603  -0.022  10.404   9.401 -0.7169  0.1450  0.8648
  168MOL0     C22604   0.062  10.519   9.436  1.5105 -0.1709 -0.7534
  168MOL0     C22605  -0.022  10.652   9.411 -1.3201 -0.3858  0.4925
  168MOL0     C22606  -0.089  10.651   9.270  0.5349 -0.3354 -0.2449
  168MOL0     C22607  -0.196  10.758   9.258  0.0314 -0.1973 -0.1290
  168MOL0     C22608  -0.159  10.870   9.165  0.3882  0.2960 -0.2949
  168MOL0     C22609  -0.146  10.961   9.083  1.1879 -0.7111  0.0651
  168MOL0     C22610   0.138  10.270   9.276  1.2453  0.3900  0.2058
  168MOL0     C22611   0.219  10.147   9.267 -0.3651 -0.2803  0.4797
  168MOL0     C22612   0.317  10.138   9.146  0.1628 -0.0039 -0.1517
  168MOL0     H22613   0.591   9.893   9.488 -1.4234 -0.7224  0.8261
  168MOL0     H22614   0.736   9.674   9.498 -0.4763 -0.4903  2.6406
  168MOL0     H22615   0.634   9.445   9.698  1.9749  0.6138  1.3971
  168MOL0     H22616   0.630   9.291   9.623 -2.3092  1.5060 -0.7240
  168MOL0     H22617   0.875   9.453   9.572  0.5020 -1.6876 -0.6724
  168MOL0     H22618   0.846   9.271   9.592 -0.1863 -1.7949  3.1837
  168MOL0     H22619   0.815   9.458   9.814 -0.8756  0.7681 -1.5421
  168MOL0     H22620   0.975   9.385   9.772  0.1803  1.5256 -0.9178
  168MOL0     H22621   0.722   9.222   9.839 -0.2828 -0.7912 -2.1954
  168MOL0     H22622   0.872   9.158   9.787 -2.8874  1.3127 -1.8458
  168MOL0     H22623   0.830   9.313  10.043 -3.6978 -2.2491 -1.7619
  168MOL0     H22624   0.848   9.139  10.024 -2.9089  1.4606  1.2138
  168MOL0     H22625   1.070   9.157   9.969 -1.7629 -1.0482 -0.1174
  168MOL0     H22626   1.057   9.331   9.962  1.1345  0.2051  0.2121
  168MOL0     H22627   1.044   9.151  10.204  1.9058 -0.2896  1.7148
  168MOL0     H22628   0.971   9.313  10.208 -1.7384 -2.1046  0.5683
  168MOL0     H22629   1.203   9.405  10.138 -1.7518  1.2597  1.0175
  168MOL0     H22630   1.196   9.336  10.299 -0.0824 -1.9822  0.1972
  168MOL0     H22631   1.294   9.302   9.938  1.5040 -0.8417  0.0130
  168MOL0     H22632   1.441   9.085   9.784  0.0164  0.4533  0.1852
  168MOL0     H22633   1.535   9.211   9.852  3.2008 -0.2562  4.5529
  168MOL0     H22634   1.651   9.029   9.991 -1.2878 -1.3678  0.8299
  168MOL0     H22635   1.561   8.913   9.886  1.0823 -0.2642 -1.7871
  168MOL0     H22636   1.758   9.111   9.777  0.2183  0.0182  0.8515
  168MOL0     H22637   1.657   9.002   9.683  1.2815 -4.0010  0.1747
  168MOL0     H22638   1.755   8.807   9.816  0.2877 -0.2410  0.1411
  168MOL0     H22639   1.857   8.915   9.904  3.6222 -2.3289 -1.0868
  168MOL0     H22640   2.006   8.961   9.489  1.5172 -1.6837  0.4282
  168MOL0     H22641   2.178   9.114   9.444  1.3768  1.3763  0.2298
  168MOL0     H22642   2.605   9.383   9.669 -1.9473 -0.8324 -0.3371
  168MOL0     H22643   2.788   9.516   9.553 -0.4333  0.4067  0.5694
  168MOL0     H22644   2.908   9.449   9.179 -1.5249 -1.8300  7.1460
  168MOL0     H22645   2.797   9.574   9.116  0.6635 -0.2507 -1.3197
  168MOL0     H22646   2.930   9.754   9.216 -0.1903  2.6246 -4.5187
  168MOL0     H22647   3.060   9.633   9.255  0.4115 -0.0963 -1.5943
  168MOL0     H22648   3.053   9.577   9.003 -2.3027 -0.4856 -1.2151
  168MOL0     H22649   2.947   9.714   8.984  0.3861 -2.9293 -0.7442
  168MOL0     H22650   3.208   9.762   9.138  0.2350  2.0554 -0.8575
  168MOL0     H22651   3.133   9.873   9.046 -0.4929  0.3122  2.7448
  168MOL0     H22652   3.262   9.629   8.910  0.4655  0.1577  0.2580
  168MOL0     H22653   3.346   9.785   8.947 -1.5124  3.2439 -0.2544
  168MOL0     H22654   3.154   9.704   8.748 -1.7275  0.9670  0.1283
  168MOL0     H22655   3.132   9.868   8.796 -1.9340 -0.6949  2.3209
  168MOL0     H22656   3.422   9.760   8.759 -1.0315  0.0081  3.0863
  168MOL0     H22657   3.349   9.916   8.707 -0.6791  0.0408 -0.8060
  168MOL0     H22658   3.331   9.640   8.565  0.0298  0.4755 -0.9431
  168MOL0     H22659   3.252   9.780   8.504  0.2343 -1.2403 -0.4504
  168MOL0     H22660   2.653   9.433   9.183  0.9023  2.8687 -0.5457
  168MOL0     H22661   2.469   9.277   9.262 -1.3410 -0.4404  0.8386
  168MOL0     H22662   2.196   9.218   9.864 -3.3065  3.5212 -1.0717
  168MOL0     H22663   2.000   9.066   9.904 -0.5058  0.2086  0.6236
  168MOL0     H22664   0.373   9.449   9.464  0.1750  0.1555 -1.2437
  168MOL0     H22665   0.248   9.649   9.494  0.3613 -1.6406 -1.0858
  168MOL0     H22666   0.164  10.029   9.576  2.0308 -0.1613 -1.4070
  168MOL0     H22667   0.012  10.201   9.586  1.9555  0.5229  0.7714
  168MOL0     H22668   0.149  10.522   9.369  2.7631  4.6367  0.6992
  168MOL0     H22669   0.090  10.509   9.542 -0.4500 -1.5184 -0.3136
  168MOL0     H22670   0.037  10.744   9.416 -3.3235  1.1299 -1.5900
  168MOL0     H22671  -0.103  10.662   9.483 -1.6580  0.5153  0.0033
  168MOL0     H22672  -0.138  10.560   9.237 -0.2901 -0.9337  2.3797
  168MOL0     H22673  -0.003  10.663   9.203  1.0507  2.0831  0.7143
  168MOL0     H22674  -0.292  10.714   9.229 -0.5925  1.0653 -0.0283
  168MOL0     H22675  -0.210  10.802   9.357 -1.5222 -0.9286  0.0123
  168MOL0     H22676  -0.130  11.049   9.024  2.3136 -0.3276  0.8980
  168MOL0     H22677   0.140  10.353   9.206  0.4056  0.0366 -0.2453
  168MOL0     H22678   0.276  10.188   9.058 -2.3134 -1.4152  0.1242
  168MOL0     H22679   0.421  10.171   9.156  0.6768  0.1284 -4.0704
  168MOL0     H22680   0.319  10.035   9.109  2.1548 -0.6836  1.6850
  169MOL0     O22681   7.474   1.269  11.134 -0.2892  0.6771 -0.5030
  169MOL0     C22682   7.353   1.249  11.123 -0.8097  0.1229 -0.7500
  169MOL0     O22683   7.286   1.183  11.022  0.4903 -0.3761 -0.1598
  169MOL0     C22684   7.360   1.134  10.922  0.8749  0.3119  0.2676
  169MOL0     C22685   7.455   1.209  10.849 -0.6840  0.3016 -0.5474
  169MOL0     C22686   7.513   1.160  10.733  0.1388 -0.0200 -1.0151
  169MOL0     C22687   7.474   1.032  10.679  0.0031 -0.7796  0.3185
  169MOL0     O22688   7.518   0.981  10.563  0.3206 -0.1666 -0.2796
  169MOL0     C22689   7.616   1.035  10.479 -1.0442 -0.5490 -0.2843
  169MOL0     C22690   7.648   0.952  10.356 -0.3273 -0.5097  1.0204
  169MOL0     C22691   7.711   0.812  10.379  0.4527  0.6938 -0.0895
  169MOL0     C22692   7.848   0.837  10.449  0.6575  0.3127 -0.3250
  169MOL0     C22693   7.918   0.708  10.483  0.2350  0.0881  0.7007
  169MOL0     C22694   8.063   0.738  10.527  0.3601  0.2544 -0.6950
  169MOL0     C22695   8.114   0.640  10.641  0.3811  0.3591 -0.1376
  169MOL0     C22696   8.129   0.503  10.581  0.1509  0.0594 -0.3541
  169MOL0     N22697   8.203   0.415  10.676 -0.0367  0.3408 -0.9852
  169MOL0     C22698   8.149   0.291  10.729 -0.2253 -0.2817  1.2316
  169MOL0     C22699   8.248   0.256  10.825  1.0402 -0.6574  0.6166
  169MOL0     C22700   8.235   0.144  10.922  0.3653 -0.4571 -0.4886
  169MOL0     C22701   8.192   0.010  10.864 -0.4647 -0.1729  0.9083
  169MOL0     C22702   8.216  -0.101  10.962 -0.1906  0.1607  0.9002
  169MOL0     C22703   8.168  -0.241  10.909 -0.4464 -0.4162  0.2006
  169MOL0     O22704   8.213  -0.339  11.001 -0.3760  0.3112  0.3606
  169MOL0     C22705   8.135  -0.368  11.111  1.0386 -0.4376 -0.2256
  169MOL0     C22706   8.005  -0.321  11.134  0.3734 -0.1087 -0.9650
  169MOL0     C22707   7.926  -0.374  11.243 -0.3819 -0.0371  0.1587
  169MOL0     C22708   7.973  -0.487  11.319 -0.6211  0.6222  0.0189
  169MOL0     C22709   7.875  -0.554  11.406  0.4560  0.0870  0.3970
  169MOL0     O22710   7.911  -0.680  11.452 -0.7127  0.5128  0.5981
  169MOL0     C22711   7.820  -0.740  11.533  0.3986  0.6376 -0.3196
  169MOL0     C22712   7.683  -0.761  11.497 -0.3059  0.3146 -0.2527
  169MOL0     C22713   7.601  -0.831  11.587 -0.0792 -0.0488 -0.0037
  169MOL0     C22714   7.642  -0.886  11.711 -0.5509 -0.1476 -0.0514
  169MOL0     O22715   7.544  -0.947  11.786 -0.6524  0.1611  0.4756
  169MOL0     C22716   7.591  -1.049  11.880 -1.0686 -0.9539  1.3914
  169MOL0     C22717   7.469  -1.138  11.899 -0.2859  0.2808 -0.4973
  169MOL0     C22718   7.510  -1.258  11.988 -0.2884 -0.5795  0.0023
  169MOL0     C22719   7.396  -1.361  12.007  0.1526 -0.4835  0.2112
  169MOL0     C22720   7.431  -1.455  12.116 -0.4890 -0.1924  0.6114
  169MOL0     C22721   7.328  -1.563  12.122  0.1756  0.6306 -1.0945
  169MOL0     C22722   7.347  -1.664  12.243 -0.6857  0.3160  0.0669
  169MOL0     C22723   7.260  -1.627  12.371 -0.3503  0.2478 -0.5270
  169MOL0    Cl22724   7.093  -1.680  12.336  0.1841 -0.2203 -0.0488
  169MOL0     C22725   7.778  -0.864  11.742  0.3614 -0.1572  0.4579
  169MOL0     C22726   7.861  -0.788  11.654  0.1260 -0.1575  0.8209
  169MOL0     O22727   7.767  -0.506  11.425 -0.4175  0.3958 -0.6420
  169MOL0     C22728   8.098  -0.544  11.283 -0.5166  0.8104 -0.2196
  169MOL0     C22729   8.181  -0.477  11.182  0.3331  0.8536  1.1818
  169MOL0     N22730   8.351   0.351  10.819  0.4283 -0.0058  0.1104
  169MOL0     N22731   8.318   0.447  10.739  0.1638 -0.2670  0.1476
  169MOL0     C22732   7.364   0.961  10.746 -0.5709 -0.6635  0.6125
  169MOL0     C22733   7.315   1.011  10.873  0.3404 -0.7622 -1.1002
  169MOL0     C22734   7.262   1.276  11.237 -0.3600  0.1411  0.3390
  169MOL0     C22735   7.134   1.223  11.238  0.6782  0.4001 -0.0540
  169MOL0     C22736   7.042   1.243  11.345 -0.3122  0.3779  0.9215
  169MOL0     C22737   7.084   1.316  11.454  0.2397 -1.1441  0.5916
  169MOL0     O22738   7.001   1.334  11.569 -0.6513 -0.2582 -0.1115
  169MOL0     C22739   6.858   1.291  11.569 -0.6195  0.0687 -0.0515
  169MOL0     C22740   6.801   1.367  11.684  0.2227  0.8577  0.4818
  169MOL0     C22741   6.845   1.306  11.825  0.0319 -0.3231  0.6722
  169MOL0     C22742   6.814   1.400  11.935 -0.2830 -0.1137 -0.1708
  169MOL0     C22743   6.915   1.507  11.938 -0.2148 -0.1283  0.2863
  169MOL0     C22744   6.999   1.600  11.928  0.0621  0.4658 -0.1738
  169MOL0     C22745   7.209   1.380  11.451 -0.2052  0.1070  0.1615
  169MOL0     C22746   7.296   1.366  11.341  0.1204 -0.1925  0.4958
  169MOL0     C22747   7.423   1.454  11.356 -0.0551  0.1352 -0.1696
  169MOL0     H22748   7.494   1.300  10.892  3.0115 -0.8657 -1.0651
  169MOL0     H22749   7.589   1.218  10.680 -1.5776  0.9474 -2.5304
  169MOL0     H22750   7.568   1.128  10.445  0.8415  0.3328 -0.6401
  169MOL0     H22751   7.710   1.065  10.526 -0.6660  0.7718 -1.7853
  169MOL0     H22752   7.722   0.999  10.290 -1.4876 -1.7635 -1.3195
  169MOL0     H22753   7.555   0.940  10.299 -2.9340  0.2214  4.7525
  169MOL0     H22754   7.720   0.755  10.286 -1.5429  3.0468 -1.8881
  169MOL0     H22755   7.647   0.758  10.449  1.2969 -1.2988 -0.7803
  169MOL0     H22756   7.913   0.897  10.384  3.5242 -0.9862  1.1671
  169MOL0     H22757   7.843   0.893  10.543  4.5827 -0.4039  0.4965
  169MOL0     H22758   7.872   0.656  10.568  1.5829 -0.1879  1.2815
  169MOL0     H22759   7.920   0.646  10.393  2.4253 -0.6806  1.2256
  169MOL0     H22760   8.134   0.747  10.445  0.0736  2.0574 -0.7905
  169MOL0     H22761   8.060   0.828  10.590  0.6145 -0.6660  0.6835
  169MOL0     H22762   8.047   0.638  10.728 -1.1416  2.2910 -1.1802
  169MOL0     H22763   8.207   0.680  10.683  0.7993 -0.1766 -0.5490
  169MOL0     H22764   8.026   0.471  10.561  0.1871 -1.0384  1.0900
  169MOL0     H22765   8.176   0.503  10.482 -2.2387 -0.2316 -1.5614
  169MOL0     H22766   8.052   0.245  10.715 -1.5431  2.0881  1.9227
  169MOL0     H22767   8.337   0.151  10.961  0.1081  0.7549  0.0157
  169MOL0     H22768   8.163   0.172  11.000 -0.2735 -0.8277 -0.9382
  169MOL0     H22769   8.084   0.023  10.856 -0.0249  4.0511 -0.7337
  169MOL0     H22770   8.233  -0.010  10.764 -4.5052 -2.7588 -0.4950
  169MOL0     H22771   8.170  -0.082  11.059 -1.5941 -1.3204  0.5609
  169MOL0     H22772   8.325  -0.097  10.973  0.1006  0.8714 -1.5471
  169MOL0     H22773   8.218  -0.247  10.812 -1.1990  4.5430 -0.8073
  169MOL0     H22774   8.060  -0.234  10.892 -0.6045 -2.6689  0.0419
  169MOL0     H22775   7.954  -0.251  11.070 -0.3491 -1.2127 -1.6376
  169MOL0     H22776   7.823  -0.338  11.249 -0.7612 -0.8595 -0.9927
  169MOL0     H22777   7.641  -0.710  11.411 -0.9887  1.4589  0.7192
  169MOL0     H22778   7.496  -0.844  11.565 -0.7268  5.7144 -2.0210
  169MOL0     H22779   7.680  -1.097  11.838 -1.4814  1.2496 -2.4693
  169MOL0     H22780   7.632  -1.007  11.972  4.2673  0.1147 -1.0995
  169MOL0     H22781   7.394  -1.078  11.952 -1.3181 -2.9578  2.0430
  169MOL0     H22782   7.420  -1.177  11.809 -3.1852  3.5070 -0.5336
  169MOL0     H22783   7.599  -1.311  11.950 -1.3200 -2.3962  0.0025
  169MOL0     H22784   7.544  -1.217  12.084  0.8056  0.8433 -0.9492
  169MOL0     H22785   7.393  -1.426  11.920  0.7202 -1.6252  1.0235
  169MOL0     H22786   7.301  -1.315  12.035  0.7458  0.4037  0.8432
  169MOL0     H22787   7.424  -1.399  12.210 -1.4814  1.2141 -0.2601
  169MOL0     H22788   7.531  -1.498  12.104 -1.0372 -1.3975  0.3033
  169MOL0     H22789   7.236  -1.507  12.143 -0.7671 -0.8021 -1.2439
  169MOL0     H22790   7.334  -1.619  12.029  2.7112 -0.4072 -0.3888
  169MOL0     H22791   7.451  -1.660  12.277 -0.0269  1.2635 -1.8860
  169MOL0     H22792   7.315  -1.762  12.209  1.1579 -0.2784 -0.0873
  169MOL0     H22793   7.299  -1.679  12.459  0.3006  1.4243 -0.1086
  169MOL0     H22794   7.266  -1.520  12.391  0.4686 -0.0649  1.0457
  169MOL0     H22795   7.825  -0.898  11.834  0.9096  3.0202  1.4987
  169MOL0     H22796   7.962  -0.769  11.688  0.6424  2.0260 -1.6696
  169MOL0     H22797   8.135  -0.640  11.316  2.2089  0.1895 -4.3120
  169MOL0     H22798   8.276  -0.511  11.143  2.5118  5.4944  1.7803
  169MOL0     H22799   7.324   0.873  10.698 -2.8333  1.5783 -1.9976
  169MOL0     H22800   7.234   0.952  10.915 -0.9581  3.0301  2.3328
  169MOL0     H22801   7.091   1.156  11.164  0.1582  1.5371 -0.8195
  169MOL0     H22802   6.946   1.196  11.363  0.4254 -1.9355 -0.6565
  169MOL0     H22803   6.846   1.183  11.586 -0.5777  0.4613  3.0940
  169MOL0     H22804   6.825   1.315  11.467  2.7013  2.5211 -0.7102
  169MOL0     H22805   6.693   1.349  11.672 -0.3420  3.6257  0.7537
  169MOL0     H22806   6.818   1.474  11.673 -2.7899  1.3635 -0.3405
  169MOL0     H22807   6.948   1.269  11.827 -0.2907 -1.2331  1.2297
  169MOL0     H22808   6.779   1.221  11.842 -0.5070 -0.1302 -0.3654
  169MOL0     H22809   6.713   1.443  11.937 -0.9010 -1.3725  3.1551
  169MOL0     H22810   6.838   1.342  12.025 -1.9565  1.8967  1.7013
  169MOL0     H22811   7.077   1.669  11.902 -0.0834  1.3721  1.6894
  169MOL0     H22812   7.240   1.435  11.539 -2.6786 -0.5038  1.4922
  169MOL0     H22813   7.514   1.405  11.320 -0.0124  0.6226 -0.7296
  169MOL0     H22814   7.411   1.548  11.301  4.8867 -1.0368 -4.0619
  169MOL0     H22815   7.434   1.470  11.464 -4.1030 -0.0700  0.4286
  170MOL0     O22816   4.972   5.578   8.463  0.3413  0.3334 -0.2630
  170MOL0     C22817   5.058   5.591   8.550 -0.3148 -0.7743 -1.6215
  170MOL0     O22818   5.029   5.622   8.682  0.7945 -1.0153  0.3866
  170MOL0     C22819   4.896   5.599   8.725  0.5918  0.7860  1.6484
  170MOL0     C22820   4.783   5.645   8.670  0.5858  0.2758 -0.4028
  170MOL0     C22821   4.653   5.611   8.710 -1.1227 -0.4732  0.5560
  170MOL0     C22822   4.634   5.531   8.814 -0.3565 -0.0340  0.7425
  170MOL0     O22823   4.509   5.494   8.843  0.8374  0.3437 -0.2809
  170MOL0     C22824   4.468   5.371   8.900  0.4148  0.5358  1.1017
  170MOL0     C22825   4.314   5.352   8.936 -1.2443 -0.2306 -0.0814
  170MOL0     C22826   4.287   5.434   9.055  0.1882 -0.4916  0.4785
  170MOL0     C22827   4.153   5.391   9.116  0.2085 -0.1855  0.0933
  170MOL0     C22828   4.123   5.458   9.252  0.1919 -0.4540  0.0939
  170MOL0     C22829   4.066   5.604   9.255 -0.2091 -0.1168  0.0975
  170MOL0     C22830   4.019   5.656   9.391 -0.4585  0.7014  0.4468
  170MOL0     C22831   3.929   5.566   9.473  0.2737 -0.3518 -0.5393
  170MOL0     N22832   3.788   5.567   9.408 -0.5078  0.2380 -0.1499
  170MOL0     C22833   3.752   5.490   9.298 -1.0384 -0.1695  0.2199
  170MOL0     C22834   3.628   5.522   9.259 -0.0667 -0.4419  0.7955
  170MOL0     C22835   3.552   5.468   9.142  0.2804  0.0110  0.0083
  170MOL0     C22836   3.607   5.506   9.004  0.9378 -0.0665  0.3132
  170MOL0     C22837   3.566   5.657   8.972  0.5226  0.5620 -0.4058
  170MOL0     C22838   3.633   5.701   8.843 -0.7386  0.3743 -0.2979
  170MOL0     O22839   3.778   5.695   8.871 -0.4104 -0.0236  0.1848
  170MOL0     C22840   3.871   5.756   8.793  0.6501  0.9443 -0.3149
  170MOL0     C22841   3.833   5.821   8.671 -0.1130 -0.1888 -0.0175
  170MOL0     C22842   3.934   5.880   8.588  0.0773  0.0399  0.8636
  170MOL0     C22843   4.068   5.873   8.630 -0.2999  0.7838 -0.2814
  170MOL0     C22844   4.176   5.934   8.534  0.6229  0.5459  0.3972
  170MOL0     O22845   4.299   5.897   8.549 -0.1382  0.1163 -0.7216
  170MOL0     C22846   4.400   5.888   8.454  0.2579 -0.1681 -0.6831
  170MOL0     C22847   4.374   5.850   8.317 -0.7044  0.3940 -0.3419
  170MOL0     C22848   4.479   5.835   8.229  0.4244 -0.2811 -0.3154
  170MOL0     C22849   4.617   5.847   8.263  0.0495  1.7699 -0.6653
  170MOL0     O22850   4.709   5.816   8.172 -0.3340  0.0586 -0.0573
  170MOL0     C22851   4.847   5.821   8.221 -0.6552 -0.0962 -1.2234
  170MOL0     C22852   4.956   5.816   8.112  0.4545  0.3137  0.1269
  170MOL0     C22853   5.085   5.860   8.178 -0.3084 -0.2025 -0.5642
  170MOL0     C22854   5.203   5.863   8.074 -0.3376  0.4412  0.3257
  170MOL0     C22855   5.233   5.725   8.007  0.6292  1.3220  0.3160
  170MOL0     C22856   5.382   5.740   7.955  0.6584  0.5815 -0.0620
  170MOL0     C22857   5.502   5.727   8.057  1.2594 -0.1062  0.1294
  170MOL0     C22858   5.638   5.769   8.007 -0.0096  1.0373  0.1749
  170MOL0    Cl22859   5.663   5.686   7.851  0.0918 -0.0397 -0.1378
  170MOL0     C22860   4.642   5.878   8.396 -0.3959 -0.5036  0.3459
  170MOL0     C22861   4.533   5.903   8.495 -0.3180  0.1037 -0.0262
  170MOL0     O22862   4.133   6.005   8.442 -0.0121  0.2836 -0.6009
  170MOL0     C22863   4.098   5.814   8.754  0.0773 -0.9507 -0.0039
  170MOL0     C22864   4.006   5.755   8.830 -0.4050  1.1015  0.4675
  170MOL0     N22865   3.584   5.597   9.363  0.2673  1.1694 -0.1769
  170MOL0     N22866   3.676   5.627   9.450 -0.0442  0.6283  0.5634
  170MOL0     C22867   4.753   5.478   8.880 -0.1443  0.4754  0.6212
  170MOL0     C22868   4.879   5.506   8.830  0.4068  0.0121 -0.1802
  170MOL0     C22869   5.198   5.599   8.498 -0.4444 -0.4432 -1.3158
  170MOL0     C22870   5.300   5.660   8.581 -0.6745 -0.4125  0.8223
  170MOL0     C22871   5.434   5.662   8.537  0.4552 -0.7171  0.1710
  170MOL0     C22872   5.471   5.616   8.414  0.8272  0.9796  1.1390
  170MOL0     O22873   5.601   5.615   8.362  0.0313 -0.0521 -0.1508
  170MOL0     C22874   5.703   5.699   8.424  0.2682 -0.4563 -0.5230
  170MOL0     C22875   5.686   5.845   8.363 -0.3448 -1.1957  0.6371
  170MOL0     C22876   5.743   5.964   8.448  0.1382  1.2386  0.4061
  170MOL0     C22877   5.886   5.950   8.484  0.1542  0.6306 -0.0040
  170MOL0     C22878   5.892   5.880   8.612 -0.8044  0.1472 -0.0232
  170MOL0     C22879   5.915   5.819   8.720 -0.4939  0.5227 -0.0303
  170MOL0     C22880   5.363   5.560   8.332 -0.4062 -0.5701  0.5111
  170MOL0     C22881   5.236   5.540   8.381  0.1973  0.8753  0.1803
  170MOL0     C22882   5.157   5.441   8.301  0.0021  0.6637  0.1482
  170MOL0     H22883   4.793   5.711   8.584 -0.2785 -0.1751 -0.8612
  170MOL0     H22884   4.562   5.654   8.668 -1.0071 -0.3406  0.4380
  170MOL0     H22885   4.473   5.281   8.837 -0.1263 -0.5295  2.5184
  170MOL0     H22886   4.522   5.339   8.990 -1.3295  1.1105  2.4031
  170MOL0     H22887   4.278   5.249   8.945  0.2285 -0.9326 -1.5886
  170MOL0     H22888   4.264   5.411   8.859  4.1821  2.5328 -2.0387
  170MOL0     H22889   4.274   5.539   9.030  1.6645 -1.0969 -3.5301
  170MOL0     H22890   4.371   5.414   9.122  1.4185  1.0584 -0.5313
  170MOL0     H22891   4.074   5.407   9.041 -0.8034 -0.9520  0.9673
  170MOL0     H22892   4.155   5.283   9.131 -1.1654 -0.4232 -1.1310
  170MOL0     H22893   4.059   5.388   9.307 -1.3184  0.1605 -0.8125
  170MOL0     H22894   4.211   5.459   9.317 -1.4321  1.5021  2.4671
  170MOL0     H22895   4.138   5.674   9.214  0.5642 -0.4558  0.8453
  170MOL0     H22896   3.969   5.613   9.204 -0.5720  2.8991  1.1241
  170MOL0     H22897   3.969   5.752   9.376 -2.3043 -0.0070  1.7325
  170MOL0     H22898   4.107   5.682   9.450  1.1967 -0.2847 -1.4204
  170MOL0     H22899   3.960   5.462   9.485 -1.2239 -0.8808 -0.9701
  170MOL0     H22900   3.912   5.614   9.570 -2.0361  0.5969 -1.3265
  170MOL0     H22901   3.806   5.421   9.234  0.2610 -1.9958  3.0855
  170MOL0     H22902   3.543   5.359   9.150 -0.8273  0.1395  0.8473
  170MOL0     H22903   3.450   5.504   9.156 -1.0479 -2.5449 -2.1048
  170MOL0     H22904   3.716   5.501   9.016  1.0263 -0.9613 -0.7537
  170MOL0     H22905   3.570   5.445   8.922  1.5279  1.0493 -0.8274
  170MOL0     H22906   3.582   5.732   9.050 -4.7561  0.4109  1.1899
  170MOL0     H22907   3.457   5.660   8.966  0.2009  1.0087  3.4296
  170MOL0     H22908   3.606   5.805   8.820 -1.3439  1.2961  3.7239
  170MOL0     H22909   3.613   5.629   8.764 -0.7220 -0.3924  0.3879
  170MOL0     H22910   3.731   5.821   8.634 -0.5157 -0.9097  1.0575
  170MOL0     H22911   3.910   5.931   8.495  0.8839 -2.9150 -1.0943
  170MOL0     H22912   4.273   5.823   8.290 -1.2542 -0.5095  2.3224
  170MOL0     H22913   4.459   5.812   8.125  2.3869 -1.2743 -0.5325
  170MOL0     H22914   4.864   5.918   8.269  2.8605  0.5929 -3.4549
  170MOL0     H22915   4.857   5.738   8.291  1.9398  0.2869 -1.0613
  170MOL0     H22916   4.966   5.710   8.085  2.6174 -1.0871  5.2105
  170MOL0     H22917   4.949   5.889   8.031  0.1485  0.4878  0.3106
  170MOL0     H22918   5.069   5.959   8.223  0.1739 -0.2131 -0.3628
  170MOL0     H22919   5.112   5.791   8.259  1.5524  0.0720 -0.9240
  170MOL0     H22920   5.286   5.909   8.128  2.6345 -1.8294 -1.9053
  170MOL0     H22921   5.182   5.933   7.992  0.1459 -0.6727 -0.7905
  170MOL0     H22922   5.151   5.700   7.939  2.4982  1.8757 -2.2577
  170MOL0     H22923   5.227   5.645   8.082 -0.8908  2.2054  1.1835
  170MOL0     H22924   5.391   5.667   7.873 -1.5548 -0.4490  0.5496
  170MOL0     H22925   5.384   5.837   7.904 -0.1201  0.1031 -1.0479
  170MOL0     H22926   5.515   5.625   8.093  3.0316  0.2665  0.6201
  170MOL0     H22927   5.477   5.794   8.139 -1.1472  1.5951 -1.8148
  170MOL0     H22928   5.652   5.876   7.988  2.6360  0.6471 -0.4141
  170MOL0     H22929   5.716   5.738   8.078 -2.1139 -0.1999  2.0672
  170MOL0     H22930   4.742   5.885   8.440 -0.7963 -0.3553  1.2508
  170MOL0     H22931   4.564   5.904   8.599  5.0489 -1.4204 -1.2923
  170MOL0     H22932   4.203   5.808   8.783  0.7938 -0.5257 -2.3584
  170MOL0     H22933   4.036   5.716   8.926 -1.2967  2.4668  1.3427
  170MOL0     H22934   4.743   5.429   8.976  0.3425  2.1284  1.5484
  170MOL0     H22935   4.969   5.469   8.878  0.6062  0.3914 -0.2541
  170MOL0     H22936   5.283   5.705   8.679  1.9067  2.3150  0.1732
  170MOL0     H22937   5.500   5.698   8.615  0.6210 -1.2278  0.2736
  170MOL0     H22938   5.801   5.662   8.393 -0.0174  0.7504 -3.0884
  170MOL0     H22939   5.692   5.695   8.533 -0.4465 -1.7450 -0.6223
  170MOL0     H22940   5.577   5.855   8.362 -0.1710  1.2431  0.1459
  170MOL0     H22941   5.722   5.852   8.260  1.2580  0.7597  1.2747
  170MOL0     H22942   5.671   5.993   8.526 -0.4374  0.4766  0.1719
  170MOL0     H22943   5.740   6.051   8.380  0.4000  0.6669 -0.3534
  170MOL0     H22944   5.938   5.893   8.406 -0.8080  2.4651 -2.1053
  170MOL0     H22945   5.926   6.051   8.488 -1.4727  1.5483 -3.1133
  170MOL0     H22946   5.942   5.763   8.807  0.1461  2.6544  1.2080
  170MOL0     H22947   5.391   5.521   8.234 -0.9282 -0.4465  0.3078
  170MOL0     H22948   5.213   5.402   8.216 -1.2873  1.2060 -1.0106
  170MOL0     H22949   5.138   5.348   8.354  0.2314  0.1681 -0.6288
  170MOL0     H22950   5.069   5.486   8.253 -1.0481 -2.3544 -1.0047
  171MOL0     O22951   3.327  10.512  11.154  0.3170 -0.0439 -0.2008
  171MOL0     C22952   3.417  10.442  11.100  0.7516 -0.1298  0.3707
  171MOL0     O22953   3.539  10.494  11.058 -0.0164  0.4873 -0.2680
  171MOL0     C22954   3.557  10.625  11.046  1.0823 -0.4336  0.6421
  171MOL0     C22955   3.643  10.667  10.942 -0.5062  0.2527  1.1634
  171MOL0     C22956   3.658  10.798  10.901 -0.7456 -0.1471 -0.5588
  171MOL0     C22957   3.612  10.896  10.984 -1.1281  0.2551  0.1880
  171MOL0     O22958   3.647  11.022  10.944 -0.2288  0.1640 -0.6094
  171MOL0     C22959   3.678  11.112  11.055 -0.4842 -0.5589 -0.9557
  171MOL0     C22960   3.693  11.261  11.000 -0.8689 -0.3238  1.2162
  171MOL0     C22961   3.828  11.284  10.930  0.5226  0.1403  0.0296
  171MOL0     C22962   3.849  11.397  10.824 -0.2889  0.6478  0.1528
  171MOL0     C22963   3.804  11.530  10.884 -0.5215  0.0309 -0.8357
  171MOL0     C22964   3.825  11.651  10.788  0.8902  0.9384 -0.6413
  171MOL0     C22965   3.965  11.710  10.795  0.1872 -0.1169 -0.0858
  171MOL0     C22966   3.979  11.835  10.716 -0.2566 -0.5625  0.2725
  171MOL0     N22967   3.903  11.958  10.768 -0.1223  0.6553 -0.2699
  171MOL0     C22968   3.907  12.003  10.896 -0.0122 -0.7536 -0.2532
  171MOL0     C22969   3.792  12.076  10.922 -0.6999  0.1185 -0.7342
  171MOL0     C22970   3.740  12.133  11.052  0.1617  0.7243  0.3882
  171MOL0     C22971   3.820  12.109  11.183 -0.4186 -0.1784  0.0106
  171MOL0     C22972   3.946  12.196  11.171 -0.2852  0.1426  0.5066
  171MOL0     C22973   4.016  12.196  11.306 -0.3632  0.0693 -0.0279
  171MOL0     O22974   4.046  12.065  11.326  0.3700  0.0250  0.1146
  171MOL0     C22975   4.103  12.044  11.448 -0.6269  0.8922  0.2480
  171MOL0     C22976   4.097  11.912  11.490 -0.3168 -0.6514  0.2128
  171MOL0     C22977   4.159  11.869  11.609  1.1217  0.8001  0.0000
  171MOL0     C22978   4.228  11.957  11.691 -0.2907  0.3795  0.7008
  171MOL0     C22979   4.289  11.906  11.820 -0.0719 -0.6541  0.1464
  171MOL0     O22980   4.359  11.997  11.891  0.3118 -0.4826  0.1644
  171MOL0     C22981   4.412  11.987  12.014 -0.3431  0.2968 -0.5688
  171MOL0     C22982   4.455  11.863  12.067  0.6328  0.6938 -0.4547
  171MOL0     C22983   4.534  11.859  12.182 -0.0004 -0.2988  0.4482
  171MOL0     C22984   4.583  11.974  12.236 -1.2225  0.0942 -0.3066
  171MOL0     O22985   4.683  11.981  12.334  0.1334 -0.0155 -0.2805
  171MOL0     C22986   4.704  11.871  12.424 -0.7343 -0.1709 -0.4102
  171MOL0     C22987   4.801  11.925  12.529  0.7249  0.6027 -0.5190
  171MOL0     C22988   4.750  12.043  12.609 -0.6054  0.6366  0.1250
  171MOL0     C22989   4.853  12.087  12.703  0.0484  0.4664 -0.5415
  171MOL0     C22990   4.806  12.200  12.796 -1.1398  0.6377  0.6226
  171MOL0     C22991   4.905  12.234  12.908  0.0456  1.1904  1.6338
  171MOL0     C22992   4.855  12.345  12.996  0.2259 -0.6863  0.0143
  171MOL0     C22993   4.967  12.419  13.060  0.0164 -0.0813 -0.7386
  171MOL0    Cl22994   4.926  12.577  13.146 -0.5252  0.0813  0.1279
  171MOL0     C22995   4.549  12.099  12.179 -0.0295 -0.0451  0.8415
  171MOL0     C22996   4.454  12.104  12.080  0.2247 -0.6194  0.4143
  171MOL0     O22997   4.242  11.803  11.862 -0.1185 -0.2265 -0.2627
  171MOL0     C22998   4.230  12.097  11.656 -0.0007  0.3143  0.5037
  171MOL0     C22999   4.156  12.138  11.541  0.3567  0.0239 -0.1949
  171MOL0     N23000   3.718  12.075  10.801 -0.6401  0.6065  0.9138
  171MOL0     N23001   3.793  12.004  10.709  0.5114  0.3287  0.3100
  171MOL0     C23002   3.539  10.860  11.094 -0.7908  0.9853 -0.0885
  171MOL0     C23003   3.513  10.728  11.131 -0.7515  0.6181 -0.9748
  171MOL0     C23004   3.394  10.289  11.087  0.2237  0.0239 -0.5409
  171MOL0     C23005   3.278  10.246  11.164 -0.4771 -0.3997  0.1385
  171MOL0     C23006   3.250  10.110  11.179 -0.2994  0.6462 -0.5419
  171MOL0     C23007   3.337  10.018  11.113 -0.5817  0.1009  0.3774
  171MOL0     O23008   3.315   9.881  11.140 -0.2600 -0.3628  0.5424
  171MOL0     C23009   3.381   9.781  11.054  1.2171  0.2169 -0.8197
  171MOL0     C23010   3.311   9.772  10.919  0.1681  0.4964 -0.2390
  171MOL0     C23011   3.385   9.678  10.825  0.5748  0.5774 -0.8466
  171MOL0     C23012   3.494   9.749  10.748  0.4550 -0.4160  0.6179
  171MOL0     C23013   3.532   9.653  10.633 -0.7674 -0.0591  0.0667
  171MOL0     C23014   3.562   9.574  10.541  0.0675  0.0551 -0.2741
  171MOL0     C23015   3.442  10.061  11.031  0.0250 -0.1812  0.3306
  171MOL0     C23016   3.478  10.192  11.035 -0.9598 -0.1996  0.6044
  171MOL0     C23017   3.588  10.218  10.939  0.4432 -0.1777 -0.3705
  171MOL0     H23018   3.685  10.592  10.875  0.4449 -0.5454  2.6038
  171MOL0     H23019   3.722  10.814  10.815 -0.6622 -2.5122 -0.9990
  171MOL0     H23020   3.602  11.111  11.134  0.4822 -0.2788 -0.0015
  171MOL0     H23021   3.770  11.090  11.110 -0.9680 -0.2487 -0.0212
  171MOL0     H23022   3.685  11.329  11.086  0.7153 -2.2445  3.0082
  171MOL0     H23023   3.617  11.272  10.923 -1.3524  1.9435  1.9322
  171MOL0     H23024   3.850  11.185  10.889 -1.2134 -0.8010  1.2451
  171MOL0     H23025   3.898  11.320  11.006  0.5709 -2.9320  1.6251
  171MOL0     H23026   3.955  11.402  10.799  0.2392 -1.9212  1.5600
  171MOL0     H23027   3.787  11.374  10.737  1.5246 -1.2843 -0.7188
  171MOL0     H23028   3.695  11.519  10.893 -0.7580  1.9708 -0.8896
  171MOL0     H23029   3.855  11.553  10.978 -1.7130  0.8349 -0.3594
  171MOL0     H23030   3.794  11.605  10.694 -0.3524  0.6298 -0.0993
  171MOL0     H23031   3.750  11.723  10.822  0.5582  0.1058  0.4655
  171MOL0     H23032   4.037  11.638  10.757  1.1739  1.9691 -2.4596
  171MOL0     H23033   3.989  11.736  10.899 -1.4015  0.6562  0.1277
  171MOL0     H23034   4.088  11.840  10.719 -0.2853  0.3970  0.1052
  171MOL0     H23035   3.955  11.823  10.610  1.3496  0.7565 -0.2874
  171MOL0     H23036   3.985  11.979  10.968  1.9735  0.3472 -1.9381
  171MOL0     H23037   3.742  12.242  11.051  0.7380  0.7342  1.2059
  171MOL0     H23038   3.635  12.106  11.066  0.0970  0.5957 -0.3006
  171MOL0     H23039   3.779  12.165  11.268  3.8586  4.1454 -0.3467
  171MOL0     H23040   3.833  12.003  11.208  0.6540 -0.3548 -1.1956
  171MOL0     H23041   3.925  12.301  11.151  1.6853  0.4489 -0.1418
  171MOL0     H23042   4.022  12.156  11.103  0.7222 -1.2606  2.3603
  171MOL0     H23043   3.953  12.237  11.385  0.4488  0.2872  0.5190
  171MOL0     H23044   4.109  12.253  11.299 -0.8992  0.8529 -0.9999
  171MOL0     H23045   4.055  11.850  11.411  2.1288 -1.7886 -0.2992
  171MOL0     H23046   4.143  11.766  11.636 -1.8452  1.5843  1.6661
  171MOL0     H23047   4.439  11.773  12.008 -0.2503  1.6010 -1.6435
  171MOL0     H23048   4.562  11.765  12.228  0.6833  0.3087  1.3206
  171MOL0     H23049   4.613  11.828  12.467 -2.6607  1.0457 -3.0135
  171MOL0     H23050   4.741  11.794  12.356 -2.7456 -1.4378 -0.1412
  171MOL0     H23051   4.832  11.843  12.594  1.4122  0.8399 -0.5371
  171MOL0     H23052   4.887  11.975  12.484  1.1588  3.9239  3.4141
  171MOL0     H23053   4.731  12.127  12.541  4.6556  3.0467  1.0985
  171MOL0     H23054   4.661  12.016  12.667 -0.8615 -0.7167 -0.8404
  171MOL0     H23055   4.942  12.112  12.645 -0.0198  3.2502  0.4222
  171MOL0     H23056   4.880  12.000  12.763  0.4088  0.0092 -1.3485
  171MOL0     H23057   4.708  12.181  12.840  0.1954  0.5007  3.7789
  171MOL0     H23058   4.798  12.286  12.729  4.8968  0.2868 -1.1798
  171MOL0     H23059   4.918  12.145  12.970  0.9025  0.6281  0.6958
  171MOL0     H23060   4.995  12.261  12.852 -1.6657  1.2359 -1.3015
  171MOL0     H23061   4.792  12.309  13.078 -1.2674  1.6987  0.0152
  171MOL0     H23062   4.802  12.422  12.940 -1.6369 -1.3737  0.7567
  171MOL0     H23063   5.018  12.350  13.128 -2.7522 -2.7661 -1.1263
  171MOL0     H23064   5.044  12.455  12.991 -2.0656  1.8718 -2.2006
  171MOL0     H23065   4.584  12.194  12.218  1.9297  0.6107 -2.1531
  171MOL0     H23066   4.413  12.196  12.040 -1.4029 -1.5806 -0.2311
  171MOL0     H23067   4.284  12.161  11.724  0.1973  2.2190 -1.3298
  171MOL0     H23068   4.157  12.243  11.516  2.4577  0.0394 -0.1928
  171MOL0     H23069   3.501  10.938  11.161  0.3568  0.5103  1.1598
  171MOL0     H23070   3.461  10.708  11.224  0.3563  0.2953 -0.4213
  171MOL0     H23071   3.204  10.313  11.208 -1.1209 -0.5271 -0.7122
  171MOL0     H23072   3.176  10.065  11.245  2.0266 -0.4416  1.4448
  171MOL0     H23073   3.367   9.687  11.108  1.2211  2.0575  2.7163
  171MOL0     H23074   3.488   9.803  11.046  1.5364 -1.2468 -0.8176
  171MOL0     H23075   3.308   9.875  10.882 -0.9950  1.0558  1.2947
  171MOL0     H23076   3.211   9.733  10.938  0.7694 -0.5893  0.8180
  171MOL0     H23077   3.324   9.622  10.754 -2.1389  0.0446  1.7168
  171MOL0     H23078   3.432   9.593  10.875 -1.0221 -1.1076 -2.0678
  171MOL0     H23079   3.438   9.832  10.703  2.5619 -0.6026 -2.7543
  171MOL0     H23080   3.570   9.790  10.814  0.3425  1.0706 -0.1279
  171MOL0     H23081   3.567   9.501  10.462  2.0366  0.3574 -0.4749
  171MOL0     H23082   3.487   9.990  10.962 -0.5803 -1.9677  1.6987
  171MOL0     H23083   3.643  10.308  10.969  1.8809  0.3898 -4.0460
  171MOL0     H23084   3.660  10.137  10.920 -0.7943 -1.0664 -1.4441
  171MOL0     H23085   3.537  10.243  10.845 -0.1716 -2.3444 -0.6751
  172MOL0     O23086   9.704   0.633   3.841 -0.3563  0.7360 -0.7663
  172MOL0     C23087   9.611   0.611   3.910  0.9206 -0.1546  0.1839
  172MOL0     O23088   9.609   0.571   4.040 -0.1154  0.3502 -0.2856
  172MOL0     C23089   9.718   0.522   4.106 -0.2271  0.3714  0.6001
  172MOL0     C23090   9.730   0.549   4.249 -0.3008 -0.7795 -1.0059
  172MOL0     C23091   9.844   0.505   4.315  0.3162  0.2452 -1.2429
  172MOL0     C23092   9.947   0.444   4.243 -0.0799  0.7157 -0.8846
  172MOL0     O23093  10.060   0.412   4.306 -0.1617  0.2382  0.5789
  172MOL0     C23094  10.171   0.483   4.257 -0.7082 -0.9914 -0.0180
  172MOL0     C23095  10.188   0.604   4.335  0.0724  0.1178  0.0512
  172MOL0     C23096  10.316   0.697   4.302 -0.1878 -0.5154 -0.1537
  172MOL0     C23097  10.401   0.750   4.426  0.8072 -0.7090 -0.4239
  172MOL0     C23098  10.523   0.826   4.384 -0.6923 -0.4970 -0.1721
  172MOL0     C23099  10.635   0.729   4.332 -0.8629 -0.3727  0.6658
  172MOL0     C23100  10.762   0.806   4.289  0.2900 -0.2412 -0.1328
  172MOL0     C23101  10.831   0.864   4.409  0.2753 -0.1320 -0.4985
  172MOL0     N23102  10.974   0.884   4.392 -0.2448 -0.9739  0.5785
  172MOL0     C23103  11.036   1.003   4.350  0.4098  0.1004  0.7106
  172MOL0     C23104  11.157   1.004   4.398 -0.5384 -0.3536 -0.1820
  172MOL0     C23105  11.265   1.093   4.352  0.0075 -0.6446 -0.0098
  172MOL0     C23106  11.251   1.232   4.408 -0.3644  0.5113  0.2424
  172MOL0     C23107  11.202   1.252   4.543 -0.0046  0.9160  0.3655
  172MOL0     C23108  11.182   1.403   4.567  0.7735 -0.5509  0.3456
  172MOL0     O23109  11.306   1.477   4.568  0.2047  0.6482  0.1522
  172MOL0     C23110  11.401   1.451   4.660  0.2576 -0.5099 -0.7448
  172MOL0     C23111  11.532   1.457   4.621 -1.0187 -0.6657 -0.2137
  172MOL0     C23112  11.632   1.438   4.712  0.5019 -0.6990 -0.3605
  172MOL0     C23113  11.609   1.403   4.845 -0.7222 -0.1668 -0.5695
  172MOL0     C23114  11.726   1.359   4.934 -0.0408  0.6926 -0.2782
  172MOL0     O23115  11.700   1.367   5.064 -0.3749  0.1490 -0.0762
  172MOL0     C23116  11.802   1.355   5.159  0.1900  0.4627  0.1105
  172MOL0     C23117  11.902   1.260   5.145 -0.6012  0.5426 -1.0171
  172MOL0     C23118  11.983   1.229   5.258  0.7509  0.1422  0.0894
  172MOL0     C23119  11.981   1.310   5.375 -0.3152 -0.1806  0.1363
  172MOL0     O23120  12.065   1.277   5.478  0.6645 -0.4681 -0.5004
  172MOL0     C23121  12.182   1.365   5.490  0.2259  0.6820  0.6174
  172MOL0     C23122  12.301   1.307   5.406  0.7385 -0.1746  0.1713
  172MOL0     C23123  12.348   1.168   5.445  0.2278 -0.4369 -0.7578
  172MOL0     C23124  12.485   1.124   5.390  0.1821 -0.2993  0.0182
  172MOL0     C23125  12.536   1.001   5.472  0.4705  0.4314 -0.8843
  172MOL0     C23126  12.646   0.922   5.397  0.4840  0.2362 -0.1272
  172MOL0     C23127  12.715   0.810   5.473 -0.0619 -0.5493  1.5669
  172MOL0     C23128  12.838   0.770   5.393  0.6875  0.0201  0.0380
  172MOL0    Cl23129  12.839   0.814   5.211  0.2216  0.2541  0.3896
  172MOL0     C23130  11.883   1.405   5.382 -0.0855  0.8131  0.0749
  172MOL0     C23131  11.791   1.423   5.281  0.0019 -0.2755 -0.2522
  172MOL0     O23132  11.833   1.337   4.880 -0.6985 -0.3148  0.2682
  172MOL0     C23133  11.477   1.404   4.883  0.3173  0.1867 -0.7677
  172MOL0     C23134  11.369   1.424   4.796  0.2301  0.4528  0.5437
  172MOL0     N23135  11.175   0.889   4.474 -0.6807  0.0173  1.4461
  172MOL0     N23136  11.062   0.820   4.479  0.1052 -0.6263  0.7857
  172MOL0     C23137   9.935   0.411   4.110  0.0425 -0.1309  0.3650
  172MOL0     C23138   9.821   0.453   4.041  0.7266  0.5991 -0.2796
  172MOL0     C23139   9.477   0.622   3.846 -1.0136 -0.5612 -0.6698
  172MOL0     C23140   9.367   0.574   3.926  1.0354 -0.7946  0.9788
  172MOL0     C23141   9.245   0.543   3.866  0.6099 -0.0242 -0.1987
  172MOL0     C23142   9.221   0.577   3.731  0.0021  0.3246  0.3376
  172MOL0     O23143   9.110   0.542   3.655  0.4673 -0.1499 -0.1298
  172MOL0     C23144   9.004   0.455   3.712  0.6618 -0.4171 -0.6165
  172MOL0     C23145   8.886   0.517   3.793  0.6469  0.5783 -0.9305
  172MOL0     C23146   8.922   0.630   3.891  0.1488 -0.1512 -0.1178
  172MOL0     C23147   8.790   0.705   3.918  0.5029  0.4929 -0.1793
  172MOL0     C23148   8.840   0.826   3.998 -0.1458  0.6611  0.2550
  172MOL0     C23149   8.889   0.910   4.067  1.2485 -0.8257 -0.2733
  172MOL0     C23150   9.322   0.639   3.662 -0.0995 -0.4055  0.5973
  172MOL0     C23151   9.452   0.662   3.711 -0.2102  0.3678 -0.7985
  172MOL0     C23152   9.548   0.719   3.610 -0.1959  0.2646 -0.4834
  172MOL0     H23153   9.653   0.610   4.294  2.2625  1.8589  0.1443
  172MOL0     H23154   9.845   0.520   4.423  3.2317 -1.7029 -0.9083
  172MOL0     H23155  10.258   0.419   4.274  0.5636  0.4802 -0.7137
  172MOL0     H23156  10.177   0.501   4.149  3.0740 -1.3704 -0.0134
  172MOL0     H23157  10.208   0.566   4.436  1.8503 -5.2563 -1.9374
  172MOL0     H23158  10.098   0.662   4.314 -0.9178 -0.7732  1.6654
  172MOL0     H23159  10.291   0.787   4.246 -0.8248  2.2141  4.0421
  172MOL0     H23160  10.385   0.635   4.245  0.6462  1.6503 -1.6173
  172MOL0     H23161  10.332   0.810   4.487 -0.1799 -1.7103 -0.5223
  172MOL0     H23162  10.435   0.668   4.490  0.7946 -2.1112 -2.1252
  172MOL0     H23163  10.509   0.893   4.299  2.0561 -1.1236 -1.2486
  172MOL0     H23164  10.558   0.878   4.474  2.6509 -0.2289 -1.4611
  172MOL0     H23165  10.669   0.662   4.411 -1.0680  1.3231  2.2577
  172MOL0     H23166  10.602   0.681   4.240 -0.6500  1.2395 -0.2907
  172MOL0     H23167  10.729   0.888   4.225 -0.7671 -0.4357  0.1456
  172MOL0     H23168  10.830   0.743   4.230  1.2659  1.0678 -0.4430
  172MOL0     H23169  10.783   0.946   4.463  0.1454  0.7906 -1.9699
  172MOL0     H23170  10.825   0.782   4.481 -0.5664 -0.0037 -0.4153
  172MOL0     H23171  10.980   1.071   4.287 -2.2809  0.1088  2.9196
  172MOL0     H23172  11.356   1.049   4.393  0.1655 -0.2617  0.0541
  172MOL0     H23173  11.256   1.101   4.243  0.2668 -0.2901 -0.0054
  172MOL0     H23174  11.353   1.272   4.405 -0.2289  0.1496 -0.1899
  172MOL0     H23175  11.194   1.286   4.332 -0.3318 -0.5208 -0.5347
  172MOL0     H23176  11.264   1.206   4.621  0.1215  1.1366  0.3959
  172MOL0     H23177  11.102   1.206   4.545  0.5571 -0.3921 -0.5623
  172MOL0     H23178  11.128   1.396   4.662 -0.1733 -1.3853 -0.2338
  172MOL0     H23179  11.113   1.434   4.488  0.5451  0.8314  1.0591
  172MOL0     H23180  11.545   1.473   4.514 -0.8081  0.8329  0.0258
  172MOL0     H23181  11.738   1.440   4.690  0.9245 -1.8425  1.3664
  172MOL0     H23182  11.918   1.194   5.060  1.6954 -0.9993  0.5164
  172MOL0     H23183  12.056   1.149   5.248  3.8448  2.7429 -0.0671
  172MOL0     H23184  12.152   1.461   5.446 -0.2585 -0.5479 -1.9462
  172MOL0     H23185  12.206   1.361   5.596 -2.8922 -0.7010  1.3844
  172MOL0     H23186  12.275   1.282   5.303 -0.0393 -1.2080  0.5909
  172MOL0     H23187  12.375   1.387   5.413 -0.3015  0.8338 -0.0982
  172MOL0     H23188  12.346   1.158   5.554  2.9885 -0.4792 -0.6424
  172MOL0     H23189  12.267   1.103   5.410 -1.9148  0.9762  1.2720
  172MOL0     H23190  12.558   1.206   5.387 -1.1611  0.9296 -0.5361
  172MOL0     H23191  12.472   1.101   5.284  2.2375  1.3745 -0.6727
  172MOL0     H23192  12.455   0.931   5.494  0.9122  0.4404  0.9535
  172MOL0     H23193  12.572   1.046   5.565 -1.6000  0.3248  0.0349
  172MOL0     H23194  12.605   0.880   5.304  2.3493  1.0809 -1.4098
  172MOL0     H23195  12.716   0.997   5.360  0.9500 -0.5855 -0.9679
  172MOL0     H23196  12.643   0.727   5.476 -0.3376 -0.5168 -1.2950
  172MOL0     H23197  12.743   0.837   5.575  4.4005 -2.1288  0.9711
  172MOL0     H23198  12.916   0.827   5.444 -1.3050  1.4097  1.6928
  172MOL0     H23199  12.867   0.664   5.391 -0.1124 -0.1889 -0.9956
  172MOL0     H23200  11.867   1.458   5.476  0.0876  0.0549  0.5369
  172MOL0     H23201  11.700   1.481   5.288  0.5734  0.5560  0.6813
  172MOL0     H23202  11.459   1.377   4.987  0.2458 -1.8598 -1.2820
  172MOL0     H23203  11.270   1.407   4.837 -0.6492 -0.5467 -1.8128
  172MOL0     H23204  10.018   0.354   4.069  1.6369  2.5461 -0.4320
  172MOL0     H23205   9.813   0.420   3.938 -0.6696 -1.7446  0.4914
  172MOL0     H23206   9.374   0.548   4.031 -0.5732  0.1096  1.3499
  172MOL0     H23207   9.178   0.491   3.934  2.3171 -0.0786  1.5584
  172MOL0     H23208   9.048   0.378   3.776  0.1974  1.0742  1.5771
  172MOL0     H23209   8.950   0.406   3.630  0.8199  0.3909 -1.2203
  172MOL0     H23210   8.827   0.442   3.846  0.3047  0.5516 -1.3438
  172MOL0     H23211   8.821   0.558   3.715 -0.4919  2.9727  1.1294
  172MOL0     H23212   8.996   0.693   3.842 -0.6500  1.1419  0.2791
  172MOL0     H23213   8.971   0.596   3.983  0.5002 -1.0668 -0.6335
  172MOL0     H23214   8.745   0.736   3.823 -2.4193  2.5048  1.7145
  172MOL0     H23215   8.719   0.649   3.980 -0.9201  0.9099 -1.3632
  172MOL0     H23216   8.908   0.991   4.135  1.1846 -1.1377  0.1185
  172MOL0     H23217   9.309   0.668   3.558  2.1931  0.2994  0.4354
  172MOL0     H23218   9.498   0.731   3.513  2.8011  0.5140 -2.1092
  172MOL0     H23219   9.582   0.816   3.646  1.6703  1.0741 -4.0574
  172MOL0     H23220   9.628   0.649   3.585 -1.7966 -1.6033 -0.6745
  173MOL0     O23221   6.361   6.129   4.395  0.2932  0.5164 -0.0952
  173MOL0     C23222   6.322   6.249   4.380  0.1195  0.1714  0.7182
  173MOL0     O23223   6.205   6.284   4.320 -0.1822  0.7320  0.7011
  173MOL0     C23224   6.141   6.186   4.259  0.2280  0.2370  0.1184
  173MOL0     C23225   6.048   6.102   4.319 -0.1245  0.0221  1.1556
  173MOL0     C23226   5.994   6.006   4.242  1.4747 -0.2777 -0.0686
  173MOL0     C23227   6.024   5.989   4.105  0.2239  0.2769  0.9562
  173MOL0     O23228   5.969   5.886   4.028 -0.5022 -0.2719  0.1534
  173MOL0     C23229   5.862   5.813   4.084 -0.2527  0.7241  0.9130
  173MOL0     C23230   5.802   5.719   3.976  0.3763  0.8139 -0.2990
  173MOL0     C23231   5.722   5.786   3.869  0.1929  0.2304 -0.2116
  173MOL0     C23232   5.761   5.736   3.727  0.3328 -0.6562  0.7253
  173MOL0     C23233   5.907   5.770   3.682 -0.1778 -0.7208  0.1193
  173MOL0     C23234   5.963   5.691   3.563 -0.3692 -0.3846  0.5007
  173MOL0     C23235   5.950   5.546   3.566 -0.1466  0.4068  0.2107
  173MOL0     C23236   6.053   5.479   3.666  0.8357  0.0310 -0.1487
  173MOL0     N23237   6.116   5.368   3.597 -0.6390  0.2081  0.4729
  173MOL0     C23238   6.229   5.381   3.515 -1.0634 -0.8766 -1.4349
  173MOL0     C23239   6.264   5.251   3.480 -0.2702  0.0751 -0.3158
  173MOL0     C23240   6.383   5.221   3.381 -0.0398 -0.2694 -0.5548
  173MOL0     C23241   6.522   5.252   3.439  0.1185  0.0678 -0.0533
  173MOL0     C23242   6.631   5.286   3.326 -0.4105  0.6040  0.4901
  173MOL0     C23243   6.630   5.182   3.205 -0.4542 -0.3963 -0.5078
  173MOL0     O23244   6.688   5.057   3.259 -0.0497 -0.8379  0.4257
  173MOL0     C23245   6.716   4.949   3.173 -0.7014 -0.2163  0.3670
  173MOL0     C23246   6.667   4.933   3.042 -0.4070  0.0651 -0.1324
  173MOL0     C23247   6.688   4.810   2.970  0.2159 -0.4100 -0.1675
  173MOL0     C23248   6.780   4.710   3.019 -0.8055 -0.7067 -1.0930
  173MOL0     C23249   6.811   4.587   2.949  0.3889 -0.1458  0.4905
  173MOL0     O23250   6.917   4.514   2.992  0.5519  0.3785 -0.2889
  173MOL0     C23251   6.937   4.397   2.925  0.2202  0.0431 -0.4053
  173MOL0     C23252   6.989   4.394   2.794 -0.0834  0.0720  0.7552
  173MOL0     C23253   7.020   4.270   2.731 -0.5567  0.5406  0.1430
  173MOL0     C23254   7.004   4.152   2.801 -0.5107  0.2663  0.4555
  173MOL0     O23255   7.001   4.026   2.742 -0.5575  0.6584  0.8200
  173MOL0     C23256   7.000   4.027   2.596  0.4125 -0.9653 -1.1701
  173MOL0     C23257   6.987   3.872   2.559 -0.4501  0.3830 -0.1746
  173MOL0     C23258   7.116   3.801   2.617  0.0233 -0.2355  0.4554
  173MOL0     C23259   7.102   3.647   2.621 -0.0194  0.7889 -0.5681
  173MOL0     C23260   7.080   3.580   2.476 -0.0818 -0.2241 -0.0770
  173MOL0     C23261   7.102   3.430   2.488 -1.3776  0.1495 -0.3214
  173MOL0     C23262   7.257   3.415   2.511 -0.2741  0.9499  0.4094
  173MOL0     C23263   7.294   3.268   2.513  0.2119 -0.1374 -0.6536
  173MOL0    Cl23264   7.220   3.176   2.651  0.2592 -0.0487  0.4246
  173MOL0     C23265   6.951   4.161   2.929  0.3787  0.3943 -0.0516
  173MOL0     C23266   6.919   4.283   2.992  0.4880 -0.4582 -0.1065
  173MOL0     O23267   6.743   4.560   2.853  0.1323 -0.4361  0.4558
  173MOL0     C23268   6.837   4.736   3.149 -0.2020  0.6866 -0.2835
  173MOL0     C23269   6.802   4.851   3.216  0.8100 -0.4008 -0.1709
  173MOL0     N23270   6.167   5.161   3.525 -0.1887 -0.4534 -1.0340
  173MOL0     N23271   6.080   5.232   3.600  0.1761  0.7130  0.2500
  173MOL0     C23272   6.104   6.082   4.041 -0.5865  1.1247 -0.5001
  173MOL0     C23273   6.158   6.181   4.119  0.3431  0.1952 -0.6942
  173MOL0     C23274   6.403   6.343   4.443 -0.7110  0.3361  0.1374
  173MOL0     C23275   6.442   6.325   4.574  0.7973  1.1410  0.3421
  173MOL0     C23276   6.522   6.413   4.641 -0.0813 -0.1445  0.1387
  173MOL0     C23277   6.571   6.527   4.578 -0.3892  0.8237 -0.1392
  173MOL0     O23278   6.665   6.591   4.660  0.5606  0.0501 -0.1798
  173MOL0     C23279   6.734   6.708   4.620 -0.2602  0.6560 -0.1873
  173MOL0     C23280   6.840   6.713   4.730 -0.6173 -1.1587 -0.1624
  173MOL0     C23281   6.796   6.741   4.877 -0.0777 -0.2008 -1.0321
  173MOL0     C23282   6.677   6.839   4.895  0.0398  0.1305  0.4592
  173MOL0     C23283   6.710   6.971   4.852  0.3189  0.2242 -0.1580
  173MOL0     C23284   6.751   7.077   4.801  0.2006  0.4241 -0.4042
  173MOL0     C23285   6.529   6.556   4.451  0.4841 -0.0341  0.2902
  173MOL0     C23286   6.438   6.468   4.386 -0.1996  0.1231 -0.0278
  173MOL0     C23287   6.398   6.512   4.247 -0.0287  0.0315 -0.3252
  173MOL0     H23288   6.029   6.104   4.426  0.4512  0.6620  1.2505
  173MOL0     H23289   5.938   5.928   4.293  1.6221  0.4230  1.2003
  173MOL0     H23290   5.902   5.756   4.168 -0.7261  0.3928  0.9166
  173MOL0     H23291   5.784   5.881   4.118 -2.2643 -0.4588 -1.0291
  173MOL0     H23292   5.736   5.650   4.030  0.1664  1.5022  0.3329
  173MOL0     H23293   5.875   5.662   3.918 -1.0470 -0.6766 -0.6967
  173MOL0     H23294   5.726   5.895   3.882 -0.5665  0.2934 -0.4385
  173MOL0     H23295   5.615   5.769   3.884 -0.1585  1.5844 -0.9528
  173MOL0     H23296   5.738   5.629   3.726  2.4968 -1.1766  0.7407
  173MOL0     H23297   5.696   5.781   3.652  0.9292 -0.0570  0.5517
  173MOL0     H23298   5.925   5.875   3.660  1.1192 -0.9003  0.1914
  173MOL0     H23299   5.973   5.746   3.766  0.1522  1.1076  0.4288
  173MOL0     H23300   5.901   5.715   3.476 -0.8419 -0.5198  0.7979
  173MOL0     H23301   6.064   5.728   3.544 -0.4955 -0.1996  0.1706
  173MOL0     H23302   5.963   5.513   3.462 -1.3016 -1.1047  0.5001
  173MOL0     H23303   5.847   5.517   3.588 -2.1601  5.2127 -1.5693
  173MOL0     H23304   6.128   5.551   3.697  0.8094  0.6422 -1.4191
  173MOL0     H23305   6.001   5.439   3.754 -0.0012 -3.7380 -2.1133
  173MOL0     H23306   6.284   5.473   3.499 -0.4883 -0.1397  3.2367
  173MOL0     H23307   6.371   5.116   3.353  0.0295 -0.0311 -1.4950
  173MOL0     H23308   6.362   5.272   3.287 -2.6795 -1.0471 -0.4588
  173MOL0     H23309   6.515   5.344   3.498 -0.6587  0.2579 -0.4342
  173MOL0     H23310   6.550   5.171   3.506  0.7538  0.1706 -0.1868
  173MOL0     H23311   6.728   5.298   3.375 -1.8030 -0.3690  3.7600
  173MOL0     H23312   6.621   5.381   3.272  1.4428  1.5218  1.6467
  173MOL0     H23313   6.687   5.206   3.114 -0.6875 -1.8290 -1.0620
  173MOL0     H23314   6.527   5.179   3.167  0.3322  1.1574 -2.9829
  173MOL0     H23315   6.604   5.003   2.987 -2.1749 -0.2641  1.3654
  173MOL0     H23316   6.628   4.793   2.881  3.4027 -1.2704 -2.3095
  173MOL0     H23317   7.000   4.489   2.744 -2.3861  0.4616  0.8740
  173MOL0     H23318   7.055   4.265   2.628 -1.7412 -0.7812 -0.2406
  173MOL0     H23319   6.918   4.093   2.565  1.4948  0.6213 -0.8001
  173MOL0     H23320   7.097   4.059   2.557  0.6281 -1.6536 -1.2024
  173MOL0     H23321   6.894   3.826   2.595  1.7819 -3.9199  0.6658
  173MOL0     H23322   6.997   3.869   2.450 -0.7552 -0.7097 -0.1922
  173MOL0     H23323   7.208   3.832   2.568  1.5051 -1.2931  2.4457
  173MOL0     H23324   7.126   3.831   2.722 -1.0806  1.8206  0.0228
  173MOL0     H23325   7.022   3.623   2.691  0.0768 -0.5457 -0.8898
  173MOL0     H23326   7.189   3.604   2.672 -0.2138 -2.7322 -2.8901
  173MOL0     H23327   7.151   3.622   2.404  1.8094 -3.7534 -0.4547
  173MOL0     H23328   6.976   3.602   2.449 -1.0756 -2.9654  1.1392
  173MOL0     H23329   7.037   3.383   2.562  2.1430 -2.1981  1.5599
  173MOL0     H23330   7.087   3.399   2.384 -0.5182  4.1675 -1.8191
  173MOL0     H23331   7.277   3.441   2.616 -4.4319 -0.4084  1.7725
  173MOL0     H23332   7.318   3.469   2.439 -0.3482 -0.2363 -0.5736
  173MOL0     H23333   7.289   3.226   2.412  1.4996  0.8456 -1.1673
  173MOL0     H23334   7.401   3.267   2.537  0.3099 -1.4303 -1.0727
  173MOL0     H23335   6.956   4.069   2.987 -2.2927  0.9054  1.1690
  173MOL0     H23336   6.890   4.294   3.095 -4.7715 -0.0163 -1.3679
  173MOL0     H23337   6.905   4.669   3.200 -2.5946 -0.4026  1.7219
  173MOL0     H23338   6.842   4.872   3.315 -0.5834 -1.6861  0.7154
  173MOL0     H23339   6.123   6.068   3.935 -1.3698 -1.6307 -0.3707
  173MOL0     H23340   6.220   6.256   4.071  1.1760  0.4997  0.7809
  173MOL0     H23341   6.414   6.232   4.622  2.9041 -0.1547 -0.7608
  173MOL0     H23342   6.547   6.398   4.746 -1.0764 -1.7905  0.1665
  173MOL0     H23343   6.667   6.795   4.627 -0.5038  0.5987 -1.5205
  173MOL0     H23344   6.782   6.703   4.522  2.7260 -1.7150  1.2246
  173MOL0     H23345   6.907   6.794   4.701  2.5800 -2.6317  2.4591
  173MOL0     H23346   6.908   6.628   4.728  0.7292 -0.1031 -1.5084
  173MOL0     H23347   6.881   6.775   4.937  1.4718 -2.7215 -1.6130
  173MOL0     H23348   6.772   6.649   4.932 -2.4525  1.4201  0.8338
  173MOL0     H23349   6.589   6.807   4.840 -0.7856 -2.7509  3.1578
  173MOL0     H23350   6.637   6.843   4.997 -2.3607  1.0980 -0.4424
  173MOL0     H23351   6.793   7.156   4.742 -0.4562  0.2879 -1.0656
  173MOL0     H23352   6.554   6.652   4.407 -3.2414  1.9752  2.1013
  173MOL0     H23353   6.378   6.429   4.178 -2.7037 -0.0134  0.3673
  173MOL0     H23354   6.307   6.572   4.255 -0.0330 -0.1418  1.6018
  173MOL0     H23355   6.476   6.576   4.206  0.2457  0.3817  0.6975
  174MOL0     O23356   1.909   8.678  10.019 -0.5567 -0.2100  0.1644
  174MOL0     C23357   1.955   8.620  10.116  0.0750 -0.8808  0.2590
  174MOL0     O23358   1.978   8.674  10.239 -1.0613  0.3482  1.0828
  174MOL0     C23359   1.936   8.797  10.246 -0.4755 -0.2388 -0.7136
  174MOL0     C23360   1.794   8.829  10.251  0.3828 -0.1210 -0.2973
  174MOL0     C23361   1.752   8.963  10.247 -0.2621 -0.7504 -0.1779
  174MOL0     C23362   1.849   9.063  10.248 -0.4283 -0.1553 -0.1173
  174MOL0     O23363   1.800   9.192  10.222 -0.2639 -0.2573 -0.0587
  174MOL0     C23364   1.783   9.271  10.342  0.0074 -0.2527 -0.1202
  174MOL0     C23365   1.628   9.302  10.363  0.0904 -1.0266  0.3402
  174MOL0     C23366   1.604   9.352  10.499  1.5518  0.1690  0.5406
  174MOL0     C23367   1.450   9.388  10.514 -0.3868 -0.6170  0.6240
  174MOL0     C23368   1.369   9.275  10.571 -0.1251 -0.0919 -0.4637
  174MOL0     C23369   1.423   9.233  10.704  0.2447  0.0772 -0.1054
  174MOL0     C23370   1.334   9.121  10.770  0.6200 -0.4117  0.2421
  174MOL0     C23371   1.380   9.097  10.916  0.3955 -0.4793  0.6138
  174MOL0     N23372   1.296   8.996  10.969  0.4747  0.5085  0.3020
  174MOL0     C23373   1.170   9.020  11.020  0.5960  0.5764  0.0119
  174MOL0     C23374   1.144   8.904  11.082  0.4074  0.7800  0.2742
  174MOL0     C23375   1.023   8.875  11.172  1.0684  0.5911  0.2647
  174MOL0     C23376   0.942   8.752  11.118  0.1379 -0.1875 -0.3604
  174MOL0     C23377   0.820   8.730  11.206 -0.5607 -0.0204 -0.0397
  174MOL0     C23378   0.711   8.841  11.175 -0.2447  0.3203  0.5577
  174MOL0     O23379   0.739   8.944  11.261 -0.4184  0.2816 -0.2657
  174MOL0     C23380   0.658   9.047  11.297  0.1301  1.1204 -0.0168
  174MOL0     C23381   0.690   9.147  11.381 -0.3249  0.4423  0.7577
  174MOL0     C23382   0.605   9.250  11.420  0.0026 -0.8796 -1.0654
  174MOL0     C23383   0.470   9.247  11.385  1.5186  0.3307 -1.1080
  174MOL0     C23384   0.378   9.348  11.448  0.3746 -0.0491 -0.0169
  174MOL0     O23385   0.252   9.362  11.395  0.4120 -0.1321 -0.7450
  174MOL0     C23386   0.183   9.481  11.414 -1.1346 -0.9468 -0.2914
  174MOL0     C23387   0.238   9.585  11.347  0.3162 -0.6855  0.3227
  174MOL0     C23388   0.180   9.713  11.366  0.2080 -0.7870 -0.2017
  174MOL0     C23389   0.073   9.736  11.460  0.3873 -0.7849  1.3981
  174MOL0     O23390   0.032   9.870  11.457 -0.2080  0.3396  0.4404
  174MOL0     C23391  -0.100   9.897  11.498  0.0448  0.5208 -1.0513
  174MOL0     C23392  -0.158  10.034  11.472 -0.5769  0.9736 -0.8630
  174MOL0     C23393  -0.293  10.045  11.536 -0.6357 -0.5893  0.9407
  174MOL0     C23394  -0.402   9.981  11.437  0.9521  1.0203 -0.8222
  174MOL0     C23395  -0.539   9.981  11.517  0.4665 -1.1071  0.5696
  174MOL0     C23396  -0.661   9.930  11.440 -0.0530 -0.4689  0.0512
  174MOL0     C23397  -0.774   9.878  11.533 -0.9654 -0.3937 -0.0177
  174MOL0     C23398  -0.850   9.978  11.613  0.0127  0.1675  0.2847
  174MOL0    Cl23399  -1.018   9.935  11.654 -0.2478  0.0954 -0.2559
  174MOL0     C23400   0.010   9.625  11.518  0.1831  0.4083 -0.0492
  174MOL0     C23401   0.066   9.498  11.494  0.1050 -0.3805  0.1636
  174MOL0     O23402   0.420   9.418  11.538 -0.0008 -0.0390  0.3963
  174MOL0     C23403   0.430   9.133  11.311  0.5384 -0.1773 -0.0652
  174MOL0     C23404   0.521   9.046  11.255  0.0782 -0.1478 -0.0484
  174MOL0     N23405   1.237   8.815  11.053  0.1228  0.0809 -0.4989
  174MOL0     N23406   1.337   8.866  10.984  0.5812  0.0389  0.0708
  174MOL0     C23407   1.989   9.037  10.239  0.2131 -1.3775  0.0050
  174MOL0     C23408   2.031   8.905  10.245 -0.7813  0.6669 -0.3668
  174MOL0     C23409   1.985   8.478  10.120 -0.4904  1.1623  0.0887
  174MOL0     C23410   2.115   8.447  10.166  0.6569 -0.4326  0.1126
  174MOL0     C23411   2.153   8.310  10.186  0.2743 -0.3667  0.8748
  174MOL0     C23412   2.068   8.204  10.158 -0.7440 -1.1517 -0.0745
  174MOL0     O23413   2.088   8.072  10.183 -0.0675  0.3562  0.1417
  174MOL0     C23414   2.203   8.016  10.265 -1.4198 -0.2343 -0.8289
  174MOL0     C23415   2.143   7.930  10.380 -0.0388 -0.6312 -0.6531
  174MOL0     C23416   2.171   7.960  10.528  0.1587  0.4091 -0.4877
  174MOL0     C23417   2.323   7.955  10.556 -0.2769  0.1777 -0.6180
  174MOL0     C23418   2.387   7.828  10.509 -0.2002 -0.5572 -0.5280
  174MOL0     C23419   2.449   7.737  10.458  1.0170 -0.7651  0.5619
  174MOL0     C23420   1.951   8.236  10.090 -0.1893  0.7164  0.2198
  174MOL0     C23421   1.908   8.365  10.067 -0.2127  1.1303 -0.3408
  174MOL0     C23422   1.775   8.391  10.015 -0.0559  0.0655 -0.2213
  174MOL0     H23423   1.711   8.760  10.245  0.1703  0.2209 -1.8453
  174MOL0     H23424   1.647   8.990  10.249 -0.1191  0.3178  4.4115
  174MOL0     H23425   1.834   9.222  10.426  2.9386 -0.9038 -2.1330
  174MOL0     H23426   1.837   9.364  10.322 -1.6370  0.7760  0.0188
  174MOL0     H23427   1.563   9.215  10.346  0.1389 -1.5031  2.3435
  174MOL0     H23428   1.603   9.385  10.296  0.6270  0.5901  2.0444
  174MOL0     H23429   1.654   9.448  10.507  0.5027  0.8266 -0.4767
  174MOL0     H23430   1.642   9.274  10.567  2.0778  0.1434  0.2190
  174MOL0     H23431   1.460   9.472  10.584 -1.7504  1.5507 -1.6285
  174MOL0     H23432   1.399   9.428  10.426  0.0964  1.0397  1.0631
  174MOL0     H23433   1.268   9.313  10.584 -1.3598 -3.4106  0.5561
  174MOL0     H23434   1.360   9.199  10.493  1.1852  0.1260 -0.8611
  174MOL0     H23435   1.519   9.182  10.695 -0.4688 -1.0312 -1.9745
  174MOL0     H23436   1.426   9.319  10.772  0.1143  0.1825 -0.2326
  174MOL0     H23437   1.338   9.026  10.715  0.8664 -0.5287  0.4602
  174MOL0     H23438   1.230   9.155  10.760  0.9847  0.7994  0.4114
  174MOL0     H23439   1.484   9.069  10.932  0.7825 -0.3142 -1.3486
  174MOL0     H23440   1.357   9.188  10.971 -0.1845 -0.6383  0.6448
  174MOL0     H23441   1.109   9.110  11.029 -0.4932  0.0998 -2.0822
  174MOL0     H23442   1.057   8.853  11.273  2.4140  0.1659 -0.2642
  174MOL0     H23443   0.965   8.968  11.173  3.2436  2.0582 -1.2892
  174MOL0     H23444   0.918   8.774  11.014  2.2952 -0.1479 -0.8983
  174MOL0     H23445   0.995   8.657  11.112 -2.3525 -1.6030 -1.1630
  174MOL0     H23446   0.854   8.742  11.309 -3.2395 -0.9524  1.0486
  174MOL0     H23447   0.765   8.636  11.201 -1.6398  0.6300 -0.8156
  174MOL0     H23448   0.616   8.804  11.214 -1.3292 -0.0532 -2.2154
  174MOL0     H23449   0.716   8.851  11.066  0.1040 -1.5688  0.3677
  174MOL0     H23450   0.786   9.132  11.429 -0.1396  0.7428  0.4827
  174MOL0     H23451   0.645   9.325  11.488 -2.2310  0.3277 -0.9631
  174MOL0     H23452   0.322   9.580  11.278  2.2016  2.0941  2.2068
  174MOL0     H23453   0.223   9.796  11.311 -2.4653  0.3991 -0.6070
  174MOL0     H23454  -0.159   9.816  11.456 -1.1448 -1.2224  3.3693
  174MOL0     H23455  -0.114   9.886  11.606 -1.2519 -1.8398 -1.3909
  174MOL0     H23456  -0.100  10.107  11.528 -2.3289 -0.0660  2.5937
  174MOL0     H23457  -0.164  10.057  11.365 -0.3832 -2.1562 -1.6636
  174MOL0     H23458  -0.303  10.023  11.643 -0.8404 -0.2221  0.9998
  174MOL0     H23459  -0.316  10.152  11.530  4.0297  0.5421 -2.2648
  174MOL0     H23460  -0.382   9.882  11.396  1.4801  2.1278 -3.3960
  174MOL0     H23461  -0.411  10.051  11.353 -4.5717  0.9566 -0.6515
  174MOL0     H23462  -0.559  10.080  11.559  1.2019  0.3231 -2.2113
  174MOL0     H23463  -0.526   9.922  11.608 -0.4828 -0.3574  1.2156
  174MOL0     H23464  -0.703  10.003  11.370  0.4297  0.7863  1.0304
  174MOL0     H23465  -0.628   9.849  11.375  2.6770  0.1236  0.5894
  174MOL0     H23466  -0.739   9.806  11.609 -0.2920 -0.2120 -0.1491
  174MOL0     H23467  -0.843   9.834  11.461 -1.6053  1.6242 -0.6970
  174MOL0     H23468  -0.790  10.014  11.697  0.3178 -2.2206  1.1762
  174MOL0     H23469  -0.855  10.055  11.535  2.8472  0.4367  0.2933
  174MOL0     H23470  -0.072   9.634  11.589  0.2305  1.5149 -0.1188
  174MOL0     H23471   0.030   9.409  11.544  2.6713 -1.9791 -0.6530
  174MOL0     H23472   0.327   9.127  11.275  0.7626 -2.7264 -0.4441
  174MOL0     H23473   0.485   8.981  11.176 -3.2922  1.1226  0.3028
  174MOL0     H23474   2.065   9.114  10.229  0.2088 -1.3831 -0.0767
  174MOL0     H23475   2.135   8.879  10.235 -1.2366 -0.5023 -2.7277
  174MOL0     H23476   2.193   8.522  10.168  0.2718 -0.0459  1.5818
  174MOL0     H23477   2.255   8.299  10.219  0.9112  0.8758 -0.5777
  174MOL0     H23478   2.272   8.093  10.302  0.8300 -3.0507  1.3908
  174MOL0     H23479   2.267   7.959  10.197 -0.5193 -0.8677  0.4924
  174MOL0     H23480   2.153   7.822  10.361  2.4872 -0.5336 -0.2253
  174MOL0     H23481   2.035   7.946  10.375  0.0471 -0.0882 -0.8691
  174MOL0     H23482   2.129   7.874  10.580 -2.4313  1.1430 -1.2418
  174MOL0     H23483   2.122   8.047  10.573 -0.8423  0.2511 -1.2323
  174MOL0     H23484   2.369   8.043  10.511 -1.0240  0.4404 -0.8742
  174MOL0     H23485   2.329   7.962  10.665 -0.7430  0.9094 -0.6355
  174MOL0     H23486   2.498   7.655  10.409 -1.5439 -2.8407  1.2609
  174MOL0     H23487   1.889   8.149  10.068 -2.0838  1.0626  3.5053
  174MOL0     H23488   1.733   8.474  10.074  2.0708  1.5408 -0.6821
  174MOL0     H23489   1.775   8.423   9.911 -0.2890  2.9508  0.5682
  174MOL0     H23490   1.715   8.301  10.031  1.2606 -0.6930  0.6385
  175MOL0     O23491   0.753   0.905  11.018 -0.2076  1.2937 -0.0051
  175MOL0     C23492   0.654   0.942  11.077  0.3387 -0.0540  0.3478
  175MOL0     O23493   0.528   0.935  11.030  0.1295 -0.4482 -0.5986
  175MOL0     C23494   0.517   0.971  10.898  0.3447  0.3064 -0.7472
  175MOL0     C23495   0.473   1.103  10.861  0.5699  0.5231  0.4170
  175MOL0     C23496   0.444   1.133  10.727  0.0885 -0.0921  0.3234
  175MOL0     C23497   0.459   1.042  10.621  0.4434 -0.3910  0.4256
  175MOL0     O23498   0.421   1.079  10.492 -0.2059  0.0959 -0.5216
  175MOL0     C23499   0.486   1.201  10.446  0.1267  0.4548 -1.0088
  175MOL0     C23500   0.473   1.193  10.292  0.3890 -0.7031  0.3591
  175MOL0     C23501   0.577   1.263  10.219  0.1376  0.0378 -0.3925
  175MOL0     C23502   0.558   1.236  10.064  0.9829  0.4017 -0.2046
  175MOL0     C23503   0.691   1.248   9.996  0.6252 -0.4013  0.8712
  175MOL0     C23504   0.674   1.205   9.851  0.4592  0.5092 -0.5394
  175MOL0     C23505   0.806   1.242   9.781 -0.3259  0.4078 -1.1637
  175MOL0     C23506   0.842   1.141   9.665 -0.4468 -0.2096  0.3214
  175MOL0     N23507   0.945   1.180   9.572  0.5552  0.0642 -0.1158
  175MOL0     C23508   0.917   1.212   9.442  0.0012  0.0558 -0.5238
  175MOL0     C23509   1.044   1.241   9.397  0.7914  0.2932  0.5669
  175MOL0     C23510   1.075   1.288   9.254  0.7408 -0.4261  0.7969
  175MOL0     C23511   1.032   1.207   9.132 -0.6618  0.5990 -0.1796
  175MOL0     C23512   1.088   1.281   9.012  0.1241 -0.7904  0.5574
  175MOL0     C23513   1.068   1.201   8.889 -0.0776  0.4909 -0.6723
  175MOL0     O23514   1.149   1.262   8.791 -0.1327  0.2363 -0.1971
  175MOL0     C23515   1.138   1.204   8.667 -0.1885 -0.3863 -0.6751
  175MOL0     C23516   1.224   1.265   8.566 -0.0031 -0.1248 -0.7942
  175MOL0     C23517   1.228   1.208   8.444  0.6677 -0.1358  0.1958
  175MOL0     C23518   1.145   1.099   8.408 -0.0747 -0.6544 -0.2967
  175MOL0     C23519   1.165   1.034   8.275  0.4564  0.6720  0.3262
  175MOL0     O23520   1.056   0.961   8.214  0.0249  0.5724 -0.7629
  175MOL0     C23521   1.082   0.891   8.106 -1.1248  0.6232 -0.4471
  175MOL0     C23522   1.103   0.746   8.100 -0.0807 -0.8347 -0.0875
  175MOL0     C23523   1.105   0.677   7.974 -0.6714  0.1731 -0.0392
  175MOL0     C23524   1.108   0.753   7.848  0.3662  0.2412 -0.1992
  175MOL0     O23525   1.106   0.690   7.728  0.3160 -0.5940  0.8391
  175MOL0     C23526   1.156   0.561   7.724 -0.0929 -0.3283 -0.1489
  175MOL0     C23527   1.316   0.573   7.729 -0.7427 -0.2195 -0.2860
  175MOL0     C23528   1.382   0.432   7.755 -0.0844  0.2395 -0.1847
  175MOL0     C23529   1.390   0.351   7.620  0.5028 -0.2671 -0.9668
  175MOL0     C23530   1.465   0.233   7.644  0.1469 -0.3767  0.7276
  175MOL0     C23531   1.472   0.157   7.509 -0.2444 -0.2458 -0.3143
  175MOL0     C23532   1.544   0.023   7.544 -0.3849  0.5614  0.1386
  175MOL0     C23533   1.533  -0.066   7.416  0.6384 -0.1044  0.0849
  175MOL0    Cl23534   1.364  -0.130   7.394  0.1730  0.2173 -0.5463
  175MOL0     C23535   1.102   0.891   7.865  0.7748 -0.1093 -0.1127
  175MOL0     C23536   1.095   0.962   7.985 -0.3766  0.5522  0.3528
  175MOL0     O23537   1.284   1.025   8.237  0.4247  0.1815  0.9797
  175MOL0     C23538   1.061   1.041   8.505 -0.1988 -0.3907 -0.1826
  175MOL0     C23539   1.058   1.097   8.632 -0.4749  0.1037  1.0105
  175MOL0     N23540   1.139   1.213   9.494 -0.0784  0.9264  0.1095
  175MOL0     N23541   1.080   1.177   9.598  0.6218  0.3416  0.1507
  175MOL0     C23542   0.508   0.914  10.652 -0.6938  0.2414 -0.3699
  175MOL0     C23543   0.531   0.878  10.794  1.0778  0.3397  0.2282
  175MOL0     C23544   0.660   0.974  11.223 -0.4077 -0.3678 -0.0027
  175MOL0     C23545   0.740   0.899  11.307  0.6319 -0.9002 -0.2740
  175MOL0     C23546   0.728   0.907  11.445 -0.3711  0.4175 -0.5024
  175MOL0     C23547   0.652   1.002  11.508  0.6495  0.7639  0.1760
  175MOL0     O23548   0.641   1.017  11.638 -0.6277  0.5281 -0.0164
  175MOL0     C23549   0.720   0.951  11.735 -0.2951  0.4439 -0.4920
  175MOL0     C23550   0.664   0.983  11.874 -0.7005  0.4152 -0.2943
  175MOL0     C23551   0.587   0.862  11.942  0.9192 -0.1750 -0.5200
  175MOL0     C23552   0.659   0.723  11.941  0.2428  0.6189 -0.0888
  175MOL0     C23553   0.803   0.739  11.958 -1.4468 -0.5404  0.2362
  175MOL0     C23554   0.923   0.734  11.978 -0.1483 -0.1333  0.2478
  175MOL0     C23555   0.571   1.076  11.420  0.4737  0.9912 -0.8059
  175MOL0     C23556   0.573   1.061  11.283 -1.5277 -0.5756  1.0684
  175MOL0     C23557   0.486   1.169  11.215 -0.5290 -0.0836 -0.7788
  175MOL0     H23558   0.466   1.192  10.923 -0.4429  0.5369  0.3024
  175MOL0     H23559   0.419   1.237  10.706 -1.1258 -0.2661  0.8617
  175MOL0     H23560   0.438   1.288  10.492 -0.1967  0.8274 -2.0173
  175MOL0     H23561   0.593   1.197  10.469 -0.8072  0.6250  4.7099
  175MOL0     H23562   0.377   1.236  10.263  1.8828  3.5915  0.9494
  175MOL0     H23563   0.478   1.091  10.253  1.8816 -0.3250 -0.5406
  175MOL0     H23564   0.673   1.213  10.236 -0.7261 -1.5355 -0.0271
  175MOL0     H23565   0.584   1.369  10.245 -2.4390  0.6954 -2.0646
  175MOL0     H23566   0.514   1.139  10.038  0.1783  0.5155  0.6726
  175MOL0     H23567   0.480   1.303  10.024 -2.2070 -1.8749  1.7320
  175MOL0     H23568   0.722   1.352  10.001 -2.3760  0.5771  1.1357
  175MOL0     H23569   0.758   1.178  10.046 -1.0653 -0.8989  2.5438
  175MOL0     H23570   0.652   1.099   9.857 -2.0427  0.9802 -0.3110
  175MOL0     H23571   0.592   1.260   9.803 -0.4556 -1.5949 -1.5317
  175MOL0     H23572   0.898   1.239   9.840 -0.4919  2.5236 -0.7365
  175MOL0     H23573   0.802   1.346   9.749  1.9496  0.6708 -0.7777
  175MOL0     H23574   0.869   1.049   9.717 -1.3417  0.8131  2.7311
  175MOL0     H23575   0.755   1.117   9.603  0.9839  0.7916 -2.2589
  175MOL0     H23576   0.837   1.222   9.370  3.1891 -0.0667 -4.4619
  175MOL0     H23577   1.034   1.390   9.250  4.4603  1.1857 -2.9394
  175MOL0     H23578   1.184   1.289   9.265  1.1185 -0.4673 -2.1158
  175MOL0     H23579   1.081   1.109   9.136  2.3387  1.9729 -0.6387
  175MOL0     H23580   0.923   1.197   9.130 -0.8365  2.3483 -0.5800
  175MOL0     H23581   1.195   1.305   9.016  0.3353  0.2055 -4.3305
  175MOL0     H23582   1.028   1.371   8.998 -0.8273 -1.1870  1.8791
  175MOL0     H23583   0.962   1.204   8.860 -0.6109 -0.9206  0.9410
  175MOL0     H23584   1.092   1.095   8.896  1.2473  0.8533  0.7460
  175MOL0     H23585   1.288   1.344   8.603 -0.6290  0.6089 -1.2440
  175MOL0     H23586   1.293   1.245   8.365  0.7931  2.2346  1.3207
  175MOL0     H23587   1.096   0.685   8.189  1.4719 -1.8794 -0.6568
  175MOL0     H23588   1.105   0.569   7.985  3.4701  0.0850  0.5511
  175MOL0     H23589   1.105   0.493   7.793 -0.7228 -0.0072 -0.2866
  175MOL0     H23590   1.124   0.527   7.625 -0.7485  2.3886 -0.9591
  175MOL0     H23591   1.365   0.613   7.639 -0.1916  1.2327  0.6312
  175MOL0     H23592   1.359   0.635   7.807  0.5038 -0.1075 -1.0366
  175MOL0     H23593   1.484   0.444   7.790  1.5262 -0.9138 -3.9824
  175MOL0     H23594   1.322   0.372   7.824 -1.4612 -1.0009 -2.3169
  175MOL0     H23595   1.445   0.411   7.548  0.8098  2.3031  1.2569
  175MOL0     H23596   1.286   0.333   7.590  1.0741 -0.4878 -2.9504
  175MOL0     H23597   1.420   0.175   7.725  1.9297 -1.1459  1.2166
  175MOL0     H23598   1.570   0.253   7.668  0.5577  0.5271 -1.5658
  175MOL0     H23599   1.375   0.128   7.468 -0.8555  2.2105 -0.7729
  175MOL0     H23600   1.517   0.219   7.432  2.6175 -2.3967 -0.5238
  175MOL0     H23601   1.503  -0.022   7.635 -2.0625  0.4647 -0.6384
  175MOL0     H23602   1.650   0.045   7.561 -0.6267  0.3333  2.2427
  175MOL0     H23603   1.551  -0.014   7.322  1.9202 -3.8036 -1.9017
  175MOL0     H23604   1.612  -0.141   7.420  1.1326  0.4346  1.3808
  175MOL0     H23605   1.113   0.958   7.780 -0.1837 -2.4821 -2.2179
  175MOL0     H23606   1.088   1.071   7.978  0.0713  0.6009  0.6184
  175MOL0     H23607   1.010   0.954   8.466  0.6025 -0.7993 -0.3524
  175MOL0     H23608   0.990   1.046   8.700 -0.7128 -0.0774  0.6387
  175MOL0     H23609   0.522   0.852  10.565  1.4145 -0.0986  0.1475
  175MOL0     H23610   0.562   0.777  10.821 -0.9253 -0.1423  0.9700
  175MOL0     H23611   0.802   0.828  11.253  0.6055  0.7677 -2.6514
  175MOL0     H23612   0.792   0.838  11.501 -0.9375 -0.4589 -0.9166
  175MOL0     H23613   0.821   0.994  11.724 -0.0792  1.2997  3.2780
  175MOL0     H23614   0.733   0.845  11.711  2.1935  0.4093  0.6768
  175MOL0     H23615   0.595   1.068  11.863  2.1704  2.6748 -2.5516
  175MOL0     H23616   0.745   1.008  11.944  0.9629 -2.2118 -1.1255
  175MOL0     H23617   0.493   0.852  11.887 -1.1670 -1.6154  2.9697
  175MOL0     H23618   0.564   0.894  12.044 -1.1934 -0.2247 -0.9221
  175MOL0     H23619   0.623   0.664  12.026  0.5854  1.3780  0.5867
  175MOL0     H23620   0.644   0.650  11.860  2.5572  0.8550 -0.8214
  175MOL0     H23621   1.027   0.710  11.983  0.3943  0.7952 -3.2852
  175MOL0     H23622   0.509   1.154  11.462 -1.1395  0.3219 -1.8598
  175MOL0     H23623   0.433   1.122  11.132  0.6932  1.0385 -2.2619
  175MOL0     H23624   0.413   1.218  11.280  0.7550 -0.0513  0.6855
  175MOL0     H23625   0.545   1.256  11.185 -3.1624  2.2886  0.4363
  176MOL0     O23626   2.292   4.427  10.049 -0.5547  0.8135  0.3537
  176MOL0     C23627   2.287   4.463   9.933  0.2548  0.6440  0.2559
  176MOL0     O23628   2.357   4.401   9.829 -0.5893 -0.3763  0.4923
  176MOL0     C23629   2.448   4.294   9.854 -0.5185  0.6916  0.4528
  176MOL0     C23630   2.525   4.278   9.971 -0.2301  0.7623 -0.2610
  176MOL0     C23631   2.606   4.163   9.983  0.9539  0.0443  0.5697
  176MOL0     C23632   2.593   4.065   9.888  0.0936  0.0902  0.7013
  176MOL0     O23633   2.664   3.952   9.916 -0.3584  0.6331  0.7636
  176MOL0     C23634   2.610   3.837   9.857 -0.2446 -0.5341  0.0682
  176MOL0     C23635   2.680   3.712   9.911  0.0392 -0.2843  0.2320
  176MOL0     C23636   2.838   3.722   9.892  0.8199 -0.1262 -0.1333
  176MOL0     C23637   2.890   3.713   9.747 -0.2326 -0.2436  0.6283
  176MOL0     C23638   2.899   3.572   9.688  0.0755  0.3722  0.0382
  176MOL0     C23639   3.028   3.506   9.729  0.0881  0.6736 -0.4251
  176MOL0     C23640   3.054   3.372   9.660  0.1894  0.4619 -0.3176
  176MOL0     C23641   3.199   3.326   9.653  1.3407  0.4041  0.5653
  176MOL0     N23642   3.250   3.311   9.790 -0.4070 -0.1452 -0.1342
  176MOL0     C23643   3.240   3.204   9.878  0.2894  0.0410  0.0654
  176MOL0     C23644   3.344   3.223   9.971  0.4432 -1.0963 -0.3225
  176MOL0     C23645   3.388   3.116  10.061 -0.5314  0.1316  0.3601
  176MOL0     C23646   3.507   3.041  10.023 -0.8726  0.0032  1.1796
  176MOL0     C23647   3.627   3.119  10.068  0.0448  0.0620  0.0071
  176MOL0     C23648   3.754   3.069   9.995  0.0150  0.8326 -0.2299
  176MOL0     O23649   3.778   2.928  10.036 -0.4113 -0.2279  0.1112
  176MOL0     C23650   3.852   2.894  10.152 -0.2959  1.1095 -0.4814
  176MOL0     C23651   3.869   2.760  10.191  0.5300 -0.1970  0.1932
  176MOL0     C23652   3.946   2.724  10.303  0.5392 -0.0952 -0.7238
  176MOL0     C23653   4.012   2.821  10.378 -1.1456  0.7381  0.4621
  176MOL0     C23654   4.109   2.777  10.488  0.3234 -0.8138  0.3900
  176MOL0     O23655   4.110   2.648  10.505  0.5110  1.3705 -0.7848
  176MOL0     C23656   4.197   2.607  10.599 -0.5994 -0.3443 -0.0534
  176MOL0     C23657   4.308   2.539  10.560  0.3667 -0.2657  0.6979
  176MOL0     C23658   4.399   2.481  10.647 -0.0027  1.2293 -0.0786
  176MOL0     C23659   4.373   2.493  10.785  0.8570  0.4965  0.1222
  176MOL0     O23660   4.444   2.430  10.883 -0.5023 -0.0348 -0.4637
  176MOL0     C23661   4.570   2.367  10.858 -0.6705  0.6987 -0.2227
  176MOL0     C23662   4.551   2.219  10.827  0.0111  0.0723 -0.2925
  176MOL0     C23663   4.680   2.142  10.852  0.0806 -0.7474  0.3888
  176MOL0     C23664   4.656   2.000  10.870  0.0635  0.1868  0.4991
  176MOL0     C23665   4.789   1.912  10.894 -0.0974 -0.3061 -0.2209
  176MOL0     C23666   4.881   1.948  11.016 -0.3399 -0.0945  0.9461
  176MOL0     C23667   4.821   1.907  11.151 -0.2101 -0.5941 -0.6119
  176MOL0     C23668   4.932   1.913  11.249 -0.2875 -0.5681  0.0799
  176MOL0    Cl23669   4.952   2.075  11.300 -0.0636  0.0664  0.2901
  176MOL0     C23670   4.262   2.555  10.826  0.1099 -0.3169  0.5748
  176MOL0     C23671   4.175   2.628  10.734  0.0909  0.1734 -0.1072
  176MOL0     O23672   4.168   2.865  10.553 -0.0119  0.0030 -0.8513
  176MOL0     C23673   3.992   2.956  10.342 -0.4987  0.6013  0.1841
  176MOL0     C23674   3.916   2.990  10.239  0.0027  0.2867  0.7721
  176MOL0     N23675   3.388   3.354   9.954  0.1890  0.4566 -0.2670
  176MOL0     N23676   3.339   3.407   9.845  0.0190 -0.1399  0.8237
  176MOL0     C23677   2.523   4.087   9.773  0.7145 -0.9022  1.0225
  176MOL0     C23678   2.447   4.197   9.762  0.0222 -0.0191  0.5367
  176MOL0     C23679   2.181   4.561   9.889  0.3887  0.0280  0.0395
  176MOL0     C23680   2.209   4.628   9.775  0.3158  0.5920  0.4909
  176MOL0     C23681   2.122   4.728   9.732 -0.1448 -0.6315  0.0518
  176MOL0     C23682   2.016   4.767   9.805 -0.4242  0.1201  0.1430
  176MOL0     O23683   1.939   4.865   9.745  0.8644 -0.0669  0.0444
  176MOL0     C23684   1.800   4.852   9.737 -0.4405  0.3539  0.0898
  176MOL0     C23685   1.733   4.962   9.657  0.2251 -0.5472 -0.2856
  176MOL0     C23686   1.758   5.103   9.709  0.6140 -0.3901 -0.1849
  176MOL0     C23687   1.819   5.198   9.607  0.5922  0.2215  0.2632
  176MOL0     C23688   1.723   5.217   9.486  0.4120  0.3850 -0.1128
  176MOL0     C23689   1.646   5.247   9.396  0.3775 -0.8887 -0.0965
  176MOL0     C23690   1.974   4.693   9.917  1.0638 -0.6126 -0.4004
  176MOL0     C23691   2.058   4.594   9.958 -0.2713  1.1569 -1.1353
  176MOL0     C23692   2.019   4.507  10.078 -0.8412 -0.4756  0.0890
  176MOL0     H23693   2.535   4.350  10.052 -0.1683 -0.6298  1.0020
  176MOL0     H23694   2.669   4.157  10.071  1.0862  0.8949  0.5318
  176MOL0     H23695   2.503   3.829   9.877 -0.1442  0.7900  1.3057
  176MOL0     H23696   2.621   3.838   9.748 -1.5630  2.9813 -0.1602
  176MOL0     H23697   2.641   3.624   9.859 -2.6057 -1.2623  3.4865
  176MOL0     H23698   2.661   3.718  10.019  4.1693  3.6244  1.0536
  176MOL0     H23699   2.902   3.660   9.956  1.2859  2.7995  2.4734
  176MOL0     H23700   2.858   3.826   9.919  0.1319 -0.0106 -0.0739
  176MOL0     H23701   2.819   3.766   9.684  0.6357  0.4089  0.1875
  176MOL0     H23702   2.984   3.769   9.749  0.0597 -0.7264  0.5037
  176MOL0     H23703   2.818   3.510   9.727 -1.0739  2.5026  1.1929
  176MOL0     H23704   2.884   3.576   9.580  2.7690 -1.5206 -0.5316
  176MOL0     H23705   3.108   3.576   9.704 -0.5534  1.4440 -0.3691
  176MOL0     H23706   3.026   3.488   9.836  0.5742  1.3116 -0.3088
  176MOL0     H23707   3.013   3.369   9.558 -2.8365 -1.3424  0.8221
  176MOL0     H23708   3.011   3.286   9.712  2.2426 -0.0543  0.6556
  176MOL0     H23709   3.215   3.240   9.586 -0.0305  1.8597 -1.7916
  176MOL0     H23710   3.259   3.406   9.609  1.0880 -0.2599 -1.0640
  176MOL0     H23711   3.193   3.108   9.863  3.3220 -2.2308  3.4776
  176MOL0     H23712   3.410   3.167  10.155  1.3258  1.1674 -0.5717
  176MOL0     H23713   3.303   3.052  10.084 -0.6107  0.7514  1.8960
  176MOL0     H23714   3.503   2.942  10.071  0.7124 -0.8245 -0.2727
  176MOL0     H23715   3.513   3.039   9.914  1.1519 -0.3048  1.2526
  176MOL0     H23716   3.626   3.102  10.176 -3.1791 -1.0137 -0.0806
  176MOL0     H23717   3.617   3.228  10.070 -1.2089 -0.0242 -0.5304
  176MOL0     H23718   3.833   3.140  10.022  3.1950 -2.1718 -0.9555
  176MOL0     H23719   3.741   3.064   9.886 -1.3000 -0.8017 -0.0275
  176MOL0     H23720   3.820   2.682  10.133 -1.7810  1.3018 -0.0094
  176MOL0     H23721   3.964   2.620  10.326  1.2831  0.0951 -0.4207
  176MOL0     H23722   4.329   2.538  10.454 -2.0569 -2.1939  0.1405
  176MOL0     H23723   4.486   2.432  10.604 -0.2706  0.9937 -0.3456
  176MOL0     H23724   4.622   2.421  10.779 -0.9684 -1.1809 -1.7637
  176MOL0     H23725   4.636   2.368  10.945  0.4113 -3.4141 -0.7820
  176MOL0     H23726   4.475   2.177  10.893  0.6373  0.6386  0.8225
  176MOL0     H23727   4.516   2.212  10.724 -2.7933  3.0036  0.3032
  176MOL0     H23728   4.745   2.159  10.765 -1.2822 -0.3261 -0.5685
  176MOL0     H23729   4.730   2.184  10.940  1.4497  1.3120 -1.2645
  176MOL0     H23730   4.606   1.956  10.783 -2.5583  1.9399  0.9839
  176MOL0     H23731   4.594   1.980  10.958  0.0008  0.5266  0.5358
  176MOL0     H23732   4.838   1.904  10.797  0.2746 -2.0247  0.0651
  176MOL0     H23733   4.757   1.810  10.918 -2.2394 -0.2080 -2.3184
  176MOL0     H23734   4.979   1.904  10.996 -0.3892  0.0203  0.4307
  176MOL0     H23735   4.885   2.057  11.021 -3.5282  0.1701  0.3011
  176MOL0     H23736   4.780   1.805  11.149  0.8431 -1.0577  0.3387
  176MOL0     H23737   4.742   1.975  11.182  0.3083 -1.7574  3.9068
  176MOL0     H23738   4.905   1.858  11.340 -2.0036  0.9855  0.5778
  176MOL0     H23739   5.018   1.864  11.202 -1.8843 -0.7020 -2.9156
  176MOL0     H23740   4.240   2.567  10.931  2.0947 -2.0908  1.2538
  176MOL0     H23741   4.100   2.697  10.770  0.4535 -0.7573  2.6762
  176MOL0     H23742   4.050   3.031  10.394  1.1520  0.0930 -0.8351
  176MOL0     H23743   3.907   3.096  10.215 -2.3411 -0.0462 -0.1039
  176MOL0     H23744   2.526   4.021   9.687  1.9095 -0.9604  1.0932
  176MOL0     H23745   2.396   4.218   9.669 -1.6267  0.5099  1.5230
  176MOL0     H23746   2.289   4.593   9.711 -0.1928  1.1395 -0.4672
  176MOL0     H23747   2.153   4.783   9.643  3.4200  2.5931  2.9195
  176MOL0     H23748   1.745   4.852   9.831 -2.0179  0.6500 -0.8060
  176MOL0     H23749   1.771   4.757   9.693 -2.4563  1.2138 -0.5721
  176MOL0     H23750   1.627   4.936   9.670  0.5493 -1.3830  0.7583
  176MOL0     H23751   1.768   4.943   9.556 -0.2122  1.6043 -0.9011
  176MOL0     H23752   1.837   5.110   9.785  0.8354 -2.3161 -0.1960
  176MOL0     H23753   1.662   5.139   9.745  1.1966 -0.7664  1.8545
  176MOL0     H23754   1.845   5.298   9.642 -0.9986  0.4124  0.9642
  176MOL0     H23755   1.911   5.152   9.570 -1.7381 -2.6800 -2.5085
  176MOL0     H23756   1.582   5.291   9.322  0.1381  2.0079  1.6733
  176MOL0     H23757   1.877   4.699   9.966  0.2788 -2.2999 -1.6674
  176MOL0     H23758   2.085   4.539  10.160 -0.4587  1.7600 -1.0065
  176MOL0     H23759   1.913   4.529  10.093 -0.8790  1.7409 -2.6599
  176MOL0     H23760   2.037   4.400  10.063  1.0621 -0.0004 -1.4824
  177MOL0     O23761   9.615   3.364   0.997  0.2935  0.6226 -0.2351
  177MOL0     C23762   9.541   3.284   0.946 -0.2958  0.3589 -0.0604
  177MOL0     O23763   9.539   3.151   0.973  0.4259  0.1219  0.0680
  177MOL0     C23764   9.588   3.110   1.089 -0.3255  1.1901  0.9751
  177MOL0     C23765   9.732   3.100   1.124  0.8060  0.0475  0.7999
  177MOL0     C23766   9.770   3.048   1.247  1.0543  0.5559  0.1179
  177MOL0     C23767   9.677   2.989   1.335  0.4193 -0.3738 -0.0797
  177MOL0     O23768   9.740   2.925   1.445  1.2357  0.3969  0.0186
  177MOL0     C23769   9.647   2.878   1.535 -0.2088  0.2605 -0.0916
  177MOL0     C23770   9.732   2.823   1.651  0.4207  0.2215 -0.0452
  177MOL0     C23771   9.796   2.686   1.635  0.9326 -0.3467 -0.2184
  177MOL0     C23772   9.929   2.662   1.717 -0.1809  1.0466  0.3881
  177MOL0     C23773   9.983   2.518   1.690  0.2540  0.2323  0.6937
  177MOL0     C23774  10.118   2.491   1.758  0.4334 -0.0510  0.5817
  177MOL0     C23775  10.173   2.361   1.712 -0.6918 -0.1615 -0.0082
  177MOL0     C23776  10.105   2.226   1.741  0.4289 -0.3609  0.4053
  177MOL0     N23777  10.098   2.205   1.885 -0.4040 -0.1224 -0.3098
  177MOL0     C23778  10.182   2.259   1.983  0.8174 -0.2524 -0.2927
  177MOL0     C23779  10.120   2.230   2.104 -0.0839 -0.8523  0.2421
  177MOL0     C23780  10.170   2.268   2.237 -0.2153 -0.0953 -0.4687
  177MOL0     C23781  10.084   2.370   2.319 -1.5569  0.0927 -0.0419
  177MOL0     C23782  10.103   2.511   2.282 -0.4779 -0.9231  0.5170
  177MOL0     C23783  10.236   2.584   2.301  0.5024 -0.0668  0.2934
  177MOL0     O23784  10.285   2.556   2.438 -0.5980 -0.6788  0.2590
  177MOL0     C23785  10.227   2.626   2.547 -0.8634 -0.5591  0.2553
  177MOL0     C23786  10.199   2.562   2.675 -0.6796 -0.3048 -0.0724
  177MOL0     C23787  10.145   2.630   2.776  1.1771 -0.2544  0.4533
  177MOL0     C23788  10.091   2.760   2.754  0.2168 -0.1060  0.0166
  177MOL0     C23789   9.995   2.817   2.853 -0.3841 -0.8756 -0.1202
  177MOL0     O23790   9.952   2.747   2.957  1.1103 -0.4213  0.3848
  177MOL0     C23791   9.892   2.809   3.065  0.1355 -0.7588  0.4683
  177MOL0     C23792   9.758   2.850   3.074  0.1672  0.4453  0.1139
  177MOL0     C23793   9.708   2.894   3.193  0.2110 -0.6371  0.3479
  177MOL0     C23794   9.789   2.917   3.304 -0.1597  0.3997 -0.5041
  177MOL0     O23795   9.737   2.978   3.415 -0.2509 -0.0473  0.7241
  177MOL0     C23796   9.825   3.078   3.481  0.0270  0.0899  0.0294
  177MOL0     C23797   9.899   3.036   3.611  0.4609 -0.0849  0.2448
  177MOL0     C23798   9.959   3.151   3.693 -1.1304 -0.2748 -0.0996
  177MOL0     C23799   9.875   3.221   3.807  0.1643 -0.0218  0.6417
  177MOL0     C23800   9.965   3.314   3.877 -0.0458  0.1918 -0.0888
  177MOL0     C23801   9.907   3.375   4.015  0.0438 -0.0327  0.4578
  177MOL0     C23802   9.989   3.490   4.073  0.4489 -0.5329 -0.0915
  177MOL0     C23803  10.106   3.445   4.160  1.2157 -0.7179 -0.5425
  177MOL0    Cl23804  10.222   3.323   4.100  0.2868  0.4682  0.3421
  177MOL0     C23805   9.922   2.876   3.302  0.6882 -0.3647  0.4786
  177MOL0     C23806   9.968   2.823   3.178 -0.7300  0.2827  0.6822
  177MOL0     O23807   9.980   2.939   2.840  0.0351 -0.4180 -0.4739
  177MOL0     C23808  10.125   2.828   2.638 -0.6782 -0.4365  0.5211
  177MOL0     C23809  10.197   2.760   2.540  0.2493  0.5217 -0.5075
  177MOL0     N23810   9.993   2.177   2.084 -0.2044  0.0120  0.4006
  177MOL0     N23811   9.988   2.151   1.952 -0.9399  0.3442 -0.4869
  177MOL0     C23812   9.534   2.992   1.301 -0.4826 -0.4800  0.0738
  177MOL0     C23813   9.501   3.053   1.176  1.5091 -0.1357  0.3543
  177MOL0     C23814   9.454   3.336   0.828  0.4786  0.2378 -0.1851
  177MOL0     C23815   9.510   3.421   0.722  0.1607 -0.4437 -0.8135
  177MOL0     C23816   9.424   3.486   0.627 -0.2886 -0.2820 -0.2511
  177MOL0     C23817   9.295   3.451   0.628  0.3042  0.0113 -0.7505
  177MOL0     O23818   9.215   3.511   0.542  0.2149  0.2229  0.0651
  177MOL0     C23819   9.154   3.420   0.439  1.0232 -0.0393 -0.4918
  177MOL0     C23820   9.108   3.486   0.308  0.1545 -0.6367 -0.7525
  177MOL0     C23821   9.002   3.411   0.234 -0.2221  0.6013  0.0812
  177MOL0     C23822   9.035   3.267   0.182  0.5285 -0.3725  0.0638
  177MOL0     C23823   9.158   3.274   0.106 -0.9012  0.1727  0.4575
  177MOL0     C23824   9.262   3.293   0.053 -0.0463 -0.6061  0.3394
  177MOL0     C23825   9.245   3.357   0.710 -0.2274  0.9666 -0.3284
  177MOL0     C23826   9.321   3.302   0.816 -0.1603  0.3290 -0.1580
  177MOL0     C23827   9.248   3.196   0.895 -0.5198  0.8258 -0.0944
  177MOL0     H23828   9.806   3.152   1.063  0.2945  1.7599  1.5708
  177MOL0     H23829   9.875   3.038   1.273  0.8540 -1.7225  0.3304
  177MOL0     H23830   9.575   2.954   1.567 -0.7139 -1.0209  2.0400
  177MOL0     H23831   9.591   2.792   1.498 -0.2629 -0.6177  1.8687
  177MOL0     H23832   9.672   2.819   1.742 -1.5025 -0.7487 -1.2865
  177MOL0     H23833   9.813   2.895   1.664  1.9606 -1.5670  0.7011
  177MOL0     H23834   9.844   2.677   1.537  0.5659 -3.2049 -0.2149
  177MOL0     H23835   9.728   2.610   1.674  3.3232  0.3440  6.7203
  177MOL0     H23836  10.004   2.736   1.689 -0.4230  1.6644  1.3472
  177MOL0     H23837   9.909   2.676   1.823 -2.4363  0.6998  0.0681
  177MOL0     H23838   9.910   2.444   1.725 -0.1393  0.5307  0.5123
  177MOL0     H23839  10.001   2.502   1.583 -1.3947 -0.8628  0.5449
  177MOL0     H23840  10.185   2.572   1.730 -0.7515  0.4285 -1.0152
  177MOL0     H23841  10.102   2.489   1.866 -4.0561 -1.9031  0.1092
  177MOL0     H23842  10.278   2.350   1.742 -0.4727 -1.6448 -1.1830
  177MOL0     H23843  10.177   2.362   1.603  0.9845  0.7388  0.0376
  177MOL0     H23844  10.007   2.230   1.694  0.7303  0.0767 -0.2035
  177MOL0     H23845  10.166   2.149   1.693  2.4384  2.5210 -2.0580
  177MOL0     H23846  10.266   2.327   1.974 -1.8049  3.6621  1.7334
  177MOL0     H23847  10.177   2.181   2.304  3.4613  1.5651  1.6078
  177MOL0     H23848  10.271   2.309   2.228 -0.5135  0.2396 -3.0774
  177MOL0     H23849   9.983   2.330   2.330 -0.0497 -3.3337  4.8660
  177MOL0     H23850  10.111   2.354   2.424 -0.8868 -1.8761 -0.4557
  177MOL0     H23851  10.034   2.563   2.349 -1.6375 -2.1523  0.3103
  177MOL0     H23852  10.062   2.536   2.184  0.3602  0.9843  0.5959
  177MOL0     H23853  10.250   2.689   2.274  2.6403 -0.0394  1.2945
  177MOL0     H23854  10.302   2.539   2.226  0.0988  2.4865 -1.7406
  177MOL0     H23855  10.209   2.456   2.698 -3.6734 -0.8742 -0.9282
  177MOL0     H23856  10.123   2.572   2.864  2.0199 -0.1979  0.7059
  177MOL0     H23857   9.694   2.853   2.986 -0.9620 -1.1000  0.8147
  177MOL0     H23858   9.603   2.920   3.185  0.3906 -0.0327 -0.1107
  177MOL0     H23859   9.886   3.132   3.408 -0.9989  1.3934  0.0924
  177MOL0     H23860   9.755   3.148   3.528 -0.3800 -1.4971  1.9345
  177MOL0     H23861   9.839   2.967   3.671 -2.8061  0.9536 -1.6172
  177MOL0     H23862   9.975   2.960   3.590  0.2249  0.2121 -1.8545
  177MOL0     H23863  10.058   3.119   3.728 -0.1940 -0.7650 -2.9648
  177MOL0     H23864   9.972   3.229   3.618  1.0654 -1.6553 -1.2807
  177MOL0     H23865   9.849   3.138   3.874 -2.2327 -1.3928 -1.7862
  177MOL0     H23866   9.780   3.257   3.766 -0.1814 -4.2364 -2.9799
  177MOL0     H23867   9.998   3.400   3.818  0.0116  0.4122  0.2665
  177MOL0     H23868  10.049   3.248   3.902 -0.8108  0.1909  2.7435
  177MOL0     H23869   9.807   3.418   4.003 -0.0138  0.3929  2.1873
  177MOL0     H23870   9.894   3.296   4.089  1.1406 -0.5265  0.1496
  177MOL0     H23871   9.917   3.528   4.146  1.6940  0.3457  0.7237
  177MOL0     H23872  10.019   3.567   4.002  0.0915 -2.0956 -2.0120
  177MOL0     H23873  10.172   3.528   4.188  1.4418 -1.5845  1.7336
  177MOL0     H23874  10.061   3.405   4.251  2.0208  0.3938  0.3702
  177MOL0     H23875   9.987   2.906   3.384 -0.4001  0.5306  1.0275
  177MOL0     H23876  10.070   2.787   3.178 -1.2626 -2.1055 -4.4914
  177MOL0     H23877  10.086   2.926   2.613 -1.0108 -0.4293  1.0485
  177MOL0     H23878  10.216   2.814   2.448 -2.5946  3.4931  0.4414
  177MOL0     H23879   9.459   2.943   1.363 -0.6014  0.8827  1.0403
  177MOL0     H23880   9.397   3.041   1.147  0.7635 -1.4859  3.2065
  177MOL0     H23881   9.611   3.461   0.729  0.6416 -1.5525 -1.2245
  177MOL0     H23882   9.459   3.570   0.568  1.3181 -0.8086 -0.0919
  177MOL0     H23883   9.069   3.372   0.488  1.3561 -2.2749 -1.9978
  177MOL0     H23884   9.230   3.348   0.410 -0.3370 -1.5086 -0.5452
  177MOL0     H23885   9.191   3.506   0.239  0.4099  2.3271  0.2666
  177MOL0     H23886   9.075   3.587   0.335  1.2827  0.1900 -2.2657
  177MOL0     H23887   8.976   3.474   0.149 -1.7374 -0.2602 -0.1276
  177MOL0     H23888   8.909   3.408   0.292 -0.6509  0.4369 -0.6036
  177MOL0     H23889   9.040   3.198   0.267 -0.2374 -0.5362 -0.0232
  177MOL0     H23890   8.945   3.245   0.124 -0.8224 -0.9656  2.2565
  177MOL0     H23891   9.359   3.307   0.011 -0.0738  3.4552  1.1707
  177MOL0     H23892   9.140   3.332   0.700 -0.6730  1.8535  1.6481
  177MOL0     H23893   9.273   3.211   1.001  1.2641  1.4043 -0.5672
  177MOL0     H23894   9.139   3.191   0.881 -0.3147 -0.0731 -1.5635
  177MOL0     H23895   9.283   3.097   0.865 -2.6112  0.2069 -0.6591
  178MOL0     O23896  10.220   0.397   0.442  0.1271  0.1615 -0.9653
  178MOL0     C23897  10.123   0.467   0.477  0.1669 -0.7293 -0.3687
  178MOL0     O23898  10.095   0.592   0.424 -0.3617 -0.4691  0.2505
  178MOL0     C23899  10.205   0.677   0.399 -0.0465  0.1907  0.4509
  178MOL0     C23900  10.200   0.747   0.281 -0.7252  1.0705  0.8122
  178MOL0     C23901  10.316   0.809   0.236  1.2552  0.0278  0.1004
  178MOL0     C23902  10.430   0.820   0.308 -0.0036  0.0169 -0.2319
  178MOL0     O23903  10.528   0.902   0.254  0.0664  0.3840 -0.4165
  178MOL0     C23904  10.654   0.910   0.324 -0.0123  0.2659 -0.3776
  178MOL0     C23905  10.753   0.798   0.281  0.8362 -0.6411 -0.5834
  178MOL0     C23906  10.829   0.826   0.157 -0.4126  0.5008  0.4827
  178MOL0     C23907  10.926   0.703   0.117  0.2643 -0.0374 -0.0146
  178MOL0     C23908  10.991   0.717  -0.016 -0.3164 -0.5480  0.1729
  178MOL0     C23909  11.120   0.812  -0.008  0.4687 -0.3566 -0.2023
  178MOL0     C23910  11.201   0.815  -0.138 -0.1620 -0.3377  0.8554
  178MOL0     C23911  11.145   0.909  -0.248 -0.1437 -0.0787 -0.5674
  178MOL0     N23912  11.133   0.823  -0.367 -0.3417 -0.4426  0.3964
  178MOL0     C23913  11.026   0.746  -0.404 -0.6575  1.2599  0.0171
  178MOL0     C23914  11.064   0.696  -0.526  0.3540 -0.7282 -0.3765
  178MOL0     C23915  10.982   0.593  -0.610 -0.3355  0.1703  0.2436
  178MOL0     C23916  10.916   0.655  -0.732  0.0884  1.0492 -0.7488
  178MOL0     C23917  10.821   0.559  -0.820 -0.4501 -0.0359  0.6465
  178MOL0     C23918  10.765   0.664  -0.916 -0.1521  0.3816  0.2263
  178MOL0     O23919  10.668   0.756  -0.855 -0.5860  0.1466  0.6421
  178MOL0     C23920  10.589   0.830  -0.933  1.0063 -0.4257 -0.0328
  178MOL0     C23921  10.488   0.896  -0.867 -0.2583  0.0353 -0.8446
  178MOL0     C23922  10.412   0.985  -0.940 -0.3902  1.0240  0.0720
  178MOL0     C23923  10.430   1.016  -1.073  0.8107  0.8281  1.1348
  178MOL0     C23924  10.373   1.136  -1.141  0.7770 -0.8683  0.6863
  178MOL0     O23925  10.393   1.147  -1.277  0.2863 -0.6874 -0.1363
  178MOL0     C23926  10.319   1.247  -1.355  0.4521  0.9356  1.3937
  178MOL0     C23927  10.381   1.302  -1.471 -0.4324  1.0107 -0.0142
  178MOL0     C23928  10.332   1.395  -1.556 -0.2148 -0.5462  0.0541
  178MOL0     C23929  10.196   1.430  -1.521 -0.2185 -0.5343  0.7335
  178MOL0     O23930  10.131   1.529  -1.584 -0.4214 -0.3252 -0.0665
  178MOL0     C23931  10.196   1.589  -1.701 -0.1540 -0.1023  0.1479
  178MOL0     C23932  10.116   1.724  -1.728  0.2592  0.0034 -0.2277
  178MOL0     C23933   9.973   1.688  -1.774  0.0591 -0.7207 -0.2711
  178MOL0     C23934   9.902   1.822  -1.807  0.6759 -0.7041 -0.2618
  178MOL0     C23935   9.821   1.824  -1.942  0.9852  0.3180  0.8799
  178MOL0     C23936   9.749   1.966  -1.963 -0.9503 -0.1041 -0.0735
  178MOL0     C23937   9.672   1.965  -2.096  0.4417  0.1197  1.2293
  178MOL0     C23938   9.749   1.917  -2.219  0.1463 -0.3505  0.2102
  178MOL0    Cl23939   9.669   1.777  -2.295 -0.3954  0.0697 -0.4574
  178MOL0     C23940  10.131   1.380  -1.410 -0.2571 -0.0193  0.4299
  178MOL0     C23941  10.196   1.299  -1.321  0.6597 -0.3133 -0.0077
  178MOL0     O23942  10.312   1.214  -1.069  0.0054  0.4053  0.5177
  178MOL0     C23943  10.533   0.943  -1.139  0.1994 -0.1207  0.5638
  178MOL0     C23944  10.609   0.842  -1.071  1.0042  0.0298  0.5470
  178MOL0     N23945  11.191   0.750  -0.563  0.7994  0.7832 -0.1923
  178MOL0     N23946  11.229   0.827  -0.468  0.5913 -1.2044 -0.0161
  178MOL0     C23947  10.435   0.747   0.428 -0.9708 -0.3643  0.6007
  178MOL0     C23948  10.333   0.666   0.473 -0.4039 -0.2866  0.2505
  178MOL0     C23949  10.048   0.413   0.592  0.5046 -0.2001  0.2702
  178MOL0     C23950  10.009   0.509   0.687  0.4205  0.5466 -0.6033
  178MOL0     C23951   9.935   0.470   0.802 -0.4008  0.4384 -0.2331
  178MOL0     C23952   9.917   0.332   0.831 -0.2779 -0.7510 -0.2686
  178MOL0     O23953   9.854   0.300   0.953 -0.6793 -0.1780 -0.6094
  178MOL0     C23954   9.946   0.225   1.039 -0.3931  0.8200 -0.5615
  178MOL0     C23955   9.917   0.286   1.176  0.5832 -0.4344 -0.5950
  178MOL0     C23956   9.774   0.248   1.224  0.8784  0.4023 -0.3496
  178MOL0     C23957   9.736   0.335   1.344  0.0864  0.2599 -0.0069
  178MOL0     C23958   9.824   0.301   1.454 -0.2554 -0.1931 -0.4065
  178MOL0     C23959   9.907   0.297   1.543 -0.3355  0.5210 -0.0294
  178MOL0     C23960   9.958   0.240   0.736 -0.4325  0.6635 -0.1267
  178MOL0     C23961  10.014   0.276   0.619  0.7832 -0.1516 -0.1639
  178MOL0     C23962  10.034   0.165   0.517 -1.0195 -0.1184 -0.1151
  178MOL0     H23963  10.115   0.752   0.214 -0.3717  0.9297  0.3406
  178MOL0     H23964  10.309   0.847   0.135 -1.7992 -1.7919 -0.5086
  178MOL0     H23965  10.695   1.008   0.298 -0.8383  0.3780 -1.3038
  178MOL0     H23966  10.632   0.906   0.432 -1.9240 -0.3469 -0.7554
  178MOL0     H23967  10.688   0.712   0.264  1.0461 -1.2404  1.3725
  178MOL0     H23968  10.829   0.780   0.358  0.7689  5.1023  1.3183
  178MOL0     H23969  10.890   0.917   0.153 -0.6622  0.7055  1.1558
  178MOL0     H23970  10.758   0.830   0.075  0.6589  1.2327 -0.4430
  178MOL0     H23971  11.002   0.701   0.195  1.1670 -0.1923 -0.8662
  178MOL0     H23972  10.877   0.606   0.128  0.5093 -0.2842 -0.9589
  178MOL0     H23973  11.018   0.616  -0.050  0.9886 -0.2138  0.1420
  178MOL0     H23974  10.914   0.743  -0.088  0.3241  3.2041  0.6694
  178MOL0     H23975  11.091   0.912   0.026 -1.1421 -0.7281 -0.4175
  178MOL0     H23976  11.184   0.768   0.069  0.4826 -2.7117 -1.4568
  178MOL0     H23977  11.209   0.713  -0.177  0.4050 -0.4608  1.2819
  178MOL0     H23978  11.305   0.845  -0.123 -0.7144  1.2188  1.7439
  178MOL0     H23979  11.054   0.958  -0.211  0.6266  0.5606  0.5427
  178MOL0     H23980  11.219   0.984  -0.277  0.5115 -1.1031 -1.6301
  178MOL0     H23981  10.927   0.735  -0.360 -0.4691 -3.0155 -0.1882
  178MOL0     H23982  11.054   0.514  -0.635 -0.6700 -0.5839  1.5936
  178MOL0     H23983  10.908   0.553  -0.540 -0.8884  2.2952  0.9364
  178MOL0     H23984  10.866   0.744  -0.693  1.7293  0.6667  2.6148
  178MOL0     H23985  11.001   0.687  -0.794  0.8913  1.4807  0.5291
  178MOL0     H23986  10.745   0.504  -0.764 -1.2710  0.0598 -0.3457
  178MOL0     H23987  10.875   0.481  -0.874 -2.4140  0.2868 -1.9248
  178MOL0     H23988  10.729   0.610  -1.004  4.1091 -1.8837 -0.3702
  178MOL0     H23989  10.853   0.712  -0.959 -0.7388  0.5634 -0.8093
  178MOL0     H23990  10.475   0.895  -0.759  1.2413 -0.9186 -0.6451
  178MOL0     H23991  10.337   1.054  -0.904 -1.3003  0.5733 -0.8827
  178MOL0     H23992  10.470   1.244  -1.493 -2.1033 -1.0120 -1.9025
  178MOL0     H23993  10.375   1.433  -1.648 -3.5868 -1.0436 -1.8826
  178MOL0     H23994  10.298   1.619  -1.675  1.5248 -2.0893 -3.4128
  178MOL0     H23995  10.190   1.520  -1.786  1.6266 -2.1326  1.5668
  178MOL0     H23996  10.106   1.780  -1.635  0.1317  0.4818 -0.5259
  178MOL0     H23997  10.172   1.789  -1.796  3.2053 -0.4405  1.6236
  178MOL0     H23998   9.990   1.639  -1.871  3.0894 -2.5114  1.0173
  178MOL0     H23999   9.913   1.618  -1.716 -0.1879 -1.9574 -1.9363
  178MOL0     H24000   9.971   1.906  -1.813  0.3443 -0.3406  0.8997
  178MOL0     H24001   9.836   1.844  -1.723  0.2451  2.3308 -1.2841
  178MOL0     H24002   9.751   1.740  -1.939  1.1380  0.1612  0.1763
  178MOL0     H24003   9.898   1.806  -2.018 -0.6515 -0.0505 -0.7844
  178MOL0     H24004   9.684   1.997  -1.880  3.6917  6.2545  2.0048
  178MOL0     H24005   9.816   2.052  -1.962  1.4131 -1.7781  3.0428
  178MOL0     H24006   9.633   2.067  -2.106 -1.7433 -0.8410 -1.4379
  178MOL0     H24007   9.591   1.895  -2.075  1.8086 -2.4086 -1.3141
  178MOL0     H24008   9.741   1.995  -2.295  0.0409 -0.8921 -0.3464
  178MOL0     H24009   9.855   1.905  -2.196  0.4379  1.2049 -0.2296
  178MOL0     H24010  10.037   1.429  -1.385  1.3456  1.7678  3.6171
  178MOL0     H24011  10.146   1.268  -1.229 -0.6110  2.2820  0.2563
  178MOL0     H24012  10.557   0.958  -1.244  0.6531 -1.6607  0.4311
  178MOL0     H24013  10.692   0.790  -1.117 -0.2992 -0.7918 -0.9459
  178MOL0     H24014  10.521   0.741   0.494 -0.8741 -2.2708  0.3417
  178MOL0     H24015  10.335   0.605   0.562  0.3644  0.6419  0.8895
  178MOL0     H24016  10.034   0.613   0.667  1.4759  0.2063 -1.1562
  178MOL0     H24017   9.880   0.539   0.865 -4.0346 -1.2420 -1.2909
  178MOL0     H24018  10.051   0.241   1.016 -0.7854  0.2678 -2.9340
  178MOL0     H24019   9.939   0.116   1.027  1.4465  0.4893  0.8550
  178MOL0     H24020   9.938   0.393   1.168  1.3028 -0.6399 -1.5760
  178MOL0     H24021   9.993   0.243   1.243  0.5956  0.1527 -0.2269
  178MOL0     H24022   9.761   0.143   1.251 -1.7693  0.8783  0.5410
  178MOL0     H24023   9.701   0.267   1.144  0.8657 -0.1932 -0.4888
  178MOL0     H24024   9.748   0.443   1.335  4.9617  0.2283  2.5596
  178MOL0     H24025   9.634   0.314   1.377 -0.1642  2.0786  0.4574
  178MOL0     H24026   9.968   0.295   1.631  2.2642 -5.1227 -1.5198
  178MOL0     H24027   9.939   0.135   0.755 -2.1143  1.0240  0.3482
  178MOL0     H24028  10.115   0.179   0.444 -1.1237 -2.8105 -0.8599
  178MOL0     H24029  10.059   0.073   0.572 -0.0001  1.0367  1.4529
  178MOL0     H24030   9.941   0.155   0.461 -1.5368  2.7403  0.0969
  179MOL0     O24031   9.347   5.399   2.979  0.7360  0.3504 -0.3913
  179MOL0     C24032   9.368   5.342   2.870 -0.1538 -0.3660 -0.8156
  179MOL0     O24033   9.429   5.401   2.760  0.5199 -0.3293  1.1372
  179MOL0     C24034   9.483   5.527   2.767 -0.3870  0.0974 -0.2555
  179MOL0     C24035   9.615   5.545   2.722 -0.5977 -0.0111  0.2218
  179MOL0     C24036   9.673   5.671   2.729 -1.3764 -0.2439 -0.1684
  179MOL0     C24037   9.605   5.779   2.782  0.7960  0.2948  0.7380
  179MOL0     O24038   9.648   5.902   2.798 -0.2833  0.3050 -0.8142
  179MOL0     C24039   9.779   5.909   2.852 -0.2326 -0.0429  0.2021
  179MOL0     C24040   9.790   6.041   2.930 -0.0392  0.1941 -0.1726
  179MOL0     C24041   9.707   6.155   2.857 -0.0075 -0.0793  0.4293
  179MOL0     C24042   9.667   6.268   2.959 -0.0120 -0.8508 -0.0493
  179MOL0     C24043   9.795   6.360   2.984 -0.1359 -0.3687  0.9157
  179MOL0     C24044   9.767   6.462   3.096  0.2889  0.6010  0.4518
  179MOL0     C24045   9.750   6.406   3.228  0.2872  0.0162 -1.2050
  179MOL0     C24046   9.700   6.506   3.334 -0.0186 -0.8506  0.4367
  179MOL0     N24047   9.747   6.643   3.316  0.2701  0.7175 -0.3317
  179MOL0     C24048   9.717   6.736   3.221  0.2514  0.3574 -0.1033
  179MOL0     C24049   9.757   6.861   3.267 -0.3323  0.4229 -0.2589
  179MOL0     C24050   9.729   6.992   3.199 -1.2996 -0.1521 -0.7243
  179MOL0     C24051   9.592   7.049   3.234  0.5757 -0.8344 -0.0131
  179MOL0     C24052   9.564   7.182   3.160  0.1739 -0.5883 -0.0991
  179MOL0     C24053   9.646   7.292   3.238  0.2843 -0.0382  0.4782
  179MOL0     O24054   9.572   7.326   3.357 -1.0112  0.4744 -0.1335
  179MOL0     C24055   9.648   7.374   3.463  0.2015 -0.5206 -0.4741
  179MOL0     C24056   9.717   7.291   3.550  0.5752  0.1588 -0.0747
  179MOL0     C24057   9.803   7.338   3.648  0.2084 -0.5215  0.4140
  179MOL0     C24058   9.825   7.477   3.669  0.3787 -0.5295  0.8193
  179MOL0     C24059   9.917   7.526   3.773  1.0543  0.3727 -0.2499
  179MOL0     O24060   9.969   7.440   3.863  0.1917 -0.1207  0.3647
  179MOL0     C24061   9.936   7.468   3.996 -0.1882 -0.3563  0.7333
  179MOL0     C24062   9.873   7.586   4.039 -0.4040 -0.0630 -0.1488
  179MOL0     C24063   9.851   7.607   4.175 -0.3252  0.7489 -0.3303
  179MOL0     C24064   9.887   7.510   4.268  0.2086  0.9151 -0.2144
  179MOL0     O24065   9.876   7.531   4.407 -0.3725  0.2265  0.3399
  179MOL0     C24066   9.976   7.625   4.460  0.0359 -0.0451 -0.1232
  179MOL0     C24067  10.084   7.536   4.522  0.5210 -1.7229 -0.3158
  179MOL0     C24068  10.203   7.603   4.596 -0.6252 -0.7331  0.5445
  179MOL0     C24069  10.158   7.715   4.693 -0.5662  0.7876 -0.4693
  179MOL0     C24070  10.269   7.761   4.787  0.8968  0.4139  0.3609
  179MOL0     C24071  10.372   7.853   4.728 -1.2491 -1.2719 -0.1376
  179MOL0     C24072  10.486   7.894   4.826 -0.6690  0.0518  0.5399
  179MOL0     C24073  10.590   7.779   4.850 -0.1846  0.0960  0.5914
  179MOL0    Cl24074  10.653   7.698   4.695  0.2503 -0.3553 -0.1895
  179MOL0     C24075   9.936   7.388   4.221 -0.3077 -0.4082 -0.1640
  179MOL0     C24076   9.950   7.364   4.088 -0.6073 -0.2603 -0.9989
  179MOL0     O24077   9.932   7.644   3.773  0.2560  0.0126 -0.6807
  179MOL0     C24078   9.762   7.564   3.579 -0.2614 -0.2341 -0.0704
  179MOL0     C24079   9.675   7.510   3.483 -0.4746 -1.1067  0.4265
  179MOL0     N24080   9.807   6.833   3.396 -0.1101  0.1059 -0.7441
  179MOL0     N24081   9.807   6.709   3.417 -0.5468 -0.6426 -0.0935
  179MOL0     C24082   9.470   5.762   2.809  0.6062 -0.1486 -0.5521
  179MOL0     C24083   9.403   5.637   2.812 -0.4217 -0.7790  0.8098
  179MOL0     C24084   9.312   5.208   2.855  0.2988  0.1755  0.2788
  179MOL0     C24085   9.305   5.129   2.975 -0.3192 -0.5423 -0.0817
  179MOL0     C24086   9.269   4.995   2.966  0.4785 -0.3793 -0.2138
  179MOL0     C24087   9.214   4.943   2.850 -0.1733 -0.0095 -0.0085
  179MOL0     O24088   9.164   4.820   2.827  0.0182 -0.0395 -0.1628
  179MOL0     C24089   9.115   4.741   2.936  0.4002  1.5937 -0.9900
  179MOL0     C24090   9.206   4.625   2.976  0.3916  0.2834  0.4432
  179MOL0     C24091   9.157   4.484   2.919  0.0607 -0.1975  1.2531
  179MOL0     C24092   9.240   4.360   2.964  0.3843 -0.2934 -0.0152
  179MOL0     C24093   9.217   4.336   3.118 -0.1663 -0.1749 -0.2064
  179MOL0     C24094   9.194   4.312   3.231 -0.1460 -0.3978  0.5664
  179MOL0     C24095   9.220   5.021   2.733 -0.7180  0.1141  0.3754
  179MOL0     C24096   9.271   5.150   2.737  0.4363  0.7256 -0.4830
  179MOL0     C24097   9.266   5.218   2.604 -0.0676 -0.2945 -0.8235
  179MOL0     H24098   9.677   5.464   2.684  0.7801  2.3272 -3.0036
  179MOL0     H24099   9.777   5.688   2.700 -1.0110 -1.4465  0.3862
  179MOL0     H24100   9.805   5.821   2.912 -2.7192 -1.0356 -0.0922
  179MOL0     H24101   9.849   5.919   2.768  1.7486 -0.7510  1.6638
  179MOL0     H24102   9.894   6.074   2.940 -1.0762  3.2176  2.3813
  179MOL0     H24103   9.752   6.034   3.032  1.7787  2.1122  0.7199
  179MOL0     H24104   9.613   6.124   2.812  0.7529  2.0821 -3.0613
  179MOL0     H24105   9.765   6.193   2.772 -2.2176 -0.4005 -1.2967
  179MOL0     H24106   9.601   6.336   2.904  0.6440 -0.1759 -0.0153
  179MOL0     H24107   9.616   6.234   3.049  1.1422 -0.1885  0.8742
  179MOL0     H24108   9.880   6.293   3.001  0.3824 -0.6501 -2.1399
  179MOL0     H24109   9.836   6.409   2.895  0.1083 -2.7690 -0.3817
  179MOL0     H24110   9.852   6.531   3.102 -0.9958  2.5062 -1.5546
  179MOL0     H24111   9.675   6.512   3.066 -0.1974  1.1209  2.6256
  179MOL0     H24112   9.848   6.375   3.266  0.6375  2.4583  0.1571
  179MOL0     H24113   9.680   6.323   3.224 -2.3364  2.1294 -2.7438
  179MOL0     H24114   9.591   6.512   3.335 -0.1686 -2.8902 -0.0458
  179MOL0     H24115   9.722   6.465   3.434  0.7667 -2.2446 -0.2728
  179MOL0     H24116   9.665   6.730   3.126  0.3504 -0.3770 -0.1177
  179MOL0     H24117   9.804   7.055   3.249 -3.3088  0.2732  1.9867
  179MOL0     H24118   9.751   6.982   3.093 -0.4139  4.6032 -1.2154
  179MOL0     H24119   9.510   6.982   3.207  0.3349  0.0136 -1.5385
  179MOL0     H24120   9.586   7.042   3.343  1.9387 -1.3360  0.0530
  179MOL0     H24121   9.459   7.213   3.166  0.9892  3.0491 -1.6293
  179MOL0     H24122   9.600   7.177   3.058  0.1177 -3.2299 -0.0447
  179MOL0     H24123   9.658   7.376   3.169 -1.4927 -0.9672 -1.0637
  179MOL0     H24124   9.748   7.259   3.259 -0.1101 -0.9533  1.0148
  179MOL0     H24125   9.710   7.183   3.544 -1.2640  0.3111 -1.4472
  179MOL0     H24126   9.846   7.256   3.705 -0.8457 -3.4595 -2.6862
  179MOL0     H24127   9.847   7.670   3.975  2.5453  1.1618  0.0973
  179MOL0     H24128   9.810   7.701   4.210 -0.6663 -0.3772  2.5356
  179MOL0     H24129  10.010   7.690   4.380 -1.2020 -1.2363 -1.6806
  179MOL0     H24130   9.940   7.686   4.543 -1.2871 -0.4411 -0.3738
  179MOL0     H24131  10.025   7.481   4.595 -1.8535  1.7507  0.6068
  179MOL0     H24132  10.120   7.468   4.444 -0.8463 -2.0369 -0.6938
  179MOL0     H24133  10.245   7.524   4.659 -4.2211 -1.4181  2.3443
  179MOL0     H24134  10.275   7.639   4.522 -1.1562 -1.0215 -0.1224
  179MOL0     H24135  10.077   7.683   4.759 -0.4227  0.8176 -0.2788
  179MOL0     H24136  10.115   7.793   4.629 -1.8920 -1.0104 -1.8549
  179MOL0     H24137  10.315   7.669   4.825  4.1847  0.9127 -1.9054
  179MOL0     H24138  10.223   7.814   4.871  2.2376  0.5939  1.0064
  179MOL0     H24139  10.414   7.798   4.643 -0.1146 -3.3943  1.6849
  179MOL0     H24140  10.326   7.941   4.683  0.6619 -0.6593 -0.9762
  179MOL0     H24141  10.449   7.926   4.924  1.3378 -1.8086  2.0098
  179MOL0     H24142  10.536   7.983   4.788  0.3098 -0.8733 -0.4123
  179MOL0     H24143  10.667   7.821   4.915  0.3937 -1.5198  1.0107
  179MOL0     H24144  10.535   7.703   4.906 -2.8221  2.3268  1.2617
  179MOL0     H24145   9.947   7.309   4.295  0.7257 -0.7698 -0.6821
  179MOL0     H24146   9.977   7.266   4.050 -0.9948 -0.2904 -1.2036
  179MOL0     H24147   9.775   7.671   3.591  0.8506 -0.4773  1.0949
  179MOL0     H24148   9.619   7.587   3.430 -1.9987  0.8913  4.4839
  179MOL0     H24149   9.410   5.848   2.836 -0.3009 -0.8041 -0.4027
  179MOL0     H24150   9.304   5.604   2.839  0.4049 -2.8000  1.5580
  179MOL0     H24151   9.358   5.164   3.063 -2.0806  1.8134  0.1178
  179MOL0     H24152   9.280   4.921   3.044 -0.9290 -1.9838 -1.4475
  179MOL0     H24153   9.024   4.694   2.897  2.2397 -3.2684 -0.2533
  179MOL0     H24154   9.081   4.794   3.025  0.5911  0.5250 -0.2518
  179MOL0     H24155   9.196   4.611   3.084 -0.2111  0.8249  0.4668
  179MOL0     H24156   9.306   4.658   2.949  0.5477 -0.3932  0.1678
  179MOL0     H24157   9.177   4.502   2.813  3.4194 -0.9248  1.6437
  179MOL0     H24158   9.052   4.460   2.933  0.6621 -4.9762 -0.3652
  179MOL0     H24159   9.198   4.273   2.913  0.8617 -0.4618 -0.1188
  179MOL0     H24160   9.345   4.380   2.943 -0.0952  3.5115  0.4010
  179MOL0     H24161   9.175   4.287   3.333  0.1125  1.9672  1.2563
  179MOL0     H24162   9.194   4.981   2.636  0.6596 -1.8793  0.7730
  179MOL0     H24163   9.357   5.189   2.551  0.4593 -0.5732  0.2106
  179MOL0     H24164   9.185   5.166   2.551 -0.4437  0.0529 -0.5925
  179MOL0     H24165   9.247   5.325   2.613  1.9127 -0.1032  2.8124
  180MOL0     O24166   5.020   8.827   5.836  0.1614  1.1218  0.5641
  180MOL0     C24167   4.904   8.853   5.806  0.5078 -0.6186 -0.8351
  180MOL0     O24168   4.792   8.784   5.848 -0.5916  1.0156  0.6493
  180MOL0     C24169   4.777   8.721   5.971  0.7006  0.3133 -0.6036
  180MOL0     C24170   4.805   8.784   6.093  0.3293  0.0164 -0.0426
  180MOL0     C24171   4.784   8.716   6.208  0.0941  1.2724  0.6465
  180MOL0     C24172   4.731   8.582   6.213 -0.2008 -0.3251  0.0155
  180MOL0     O24173   4.707   8.515   6.324  0.3309 -0.3379  0.1033
  180MOL0     C24174   4.797   8.525   6.442 -0.3418  0.5159  0.0211
  180MOL0     C24175   4.935   8.467   6.405 -0.0506 -0.1155 -0.3907
  180MOL0     C24176   5.010   8.448   6.537 -0.1694 -1.2485 -0.0211
  180MOL0     C24177   5.139   8.366   6.521 -0.5871  0.7430  1.3701
  180MOL0     C24178   5.215   8.358   6.655 -0.0765  0.6064 -0.0470
  180MOL0     C24179   5.312   8.240   6.662  0.0179 -0.2234 -0.2398
  180MOL0     C24180   5.431   8.250   6.557 -0.3386 -0.1142  0.3164
  180MOL0     C24181   5.519   8.379   6.577  0.7831 -0.3012  0.5373
  180MOL0     N24182   5.587   8.383   6.708  0.1038 -0.7948 -0.0354
  180MOL0     C24183   5.605   8.277   6.804 -0.0018  1.2191 -0.3790
  180MOL0     C24184   5.660   8.323   6.914 -0.9937  0.5297  1.8778
  180MOL0     C24185   5.733   8.223   7.001 -0.2008 -0.3077 -1.0686
  180MOL0     C24186   5.677   8.219   7.144 -0.7774  1.1161  0.3899
  180MOL0     C24187   5.561   8.123   7.164  0.5877 -0.3206  0.7047
  180MOL0     C24188   5.608   7.973   7.176  0.7036 -0.3440  0.0169
  180MOL0     O24189   5.705   7.971   7.285  0.2400  0.4808 -0.3881
  180MOL0     C24190   5.824   7.912   7.269 -0.7557 -0.3445 -0.5962
  180MOL0     C24191   5.934   7.960   7.345 -0.2710 -0.1271 -0.0260
  180MOL0     C24192   6.056   7.896   7.335 -0.4590  0.5416 -0.0229
  180MOL0     C24193   6.077   7.787   7.247  0.2670 -0.2420 -1.8163
  180MOL0     C24194   6.206   7.720   7.238 -1.3488  0.2270  0.4308
  180MOL0     O24195   6.298   7.753   7.318  0.2869 -0.2382 -0.1329
  180MOL0     C24196   6.423   7.682   7.316  0.6207  0.1127  0.0129
  180MOL0     C24197   6.510   7.674   7.198 -0.1945 -1.0137  0.3358
  180MOL0     C24198   6.637   7.621   7.219  0.2993 -0.7936  0.0175
  180MOL0     C24199   6.683   7.564   7.341  0.6389  0.0895  0.7168
  180MOL0     O24200   6.810   7.517   7.341  0.0859 -0.8275 -0.1556
  180MOL0     C24201   6.876   7.531   7.465  0.5560 -0.4252 -0.1459
  180MOL0     C24202   7.027   7.515   7.455 -0.6416  0.1733 -0.6302
  180MOL0     C24203   7.058   7.388   7.364  0.5690 -0.1291 -0.1510
  180MOL0     C24204   7.209   7.357   7.338  0.3257  0.5087 -0.7590
  180MOL0     C24205   7.291   7.472   7.274 -0.4012 -0.0890  0.7687
  180MOL0     C24206   7.385   7.530   7.374 -0.1380  0.0833 -0.1830
  180MOL0     C24207   7.441   7.668   7.331 -0.5291 -0.0637 -0.4353
  180MOL0     C24208   7.541   7.647   7.211  0.5071  0.4575 -0.4092
  180MOL0    Cl24209   7.693   7.581   7.281 -0.1108  0.3395  0.3731
  180MOL0     C24210   6.594   7.563   7.447  0.2991 -1.0857 -0.2301
  180MOL0     C24211   6.466   7.625   7.438 -1.2013  0.0798 -0.4404
  180MOL0     O24212   6.210   7.628   7.156 -0.0918 -1.0229 -0.1555
  180MOL0     C24213   5.967   7.742   7.169 -0.2835  0.0105  0.1357
  180MOL0     C24214   5.848   7.812   7.175  0.0944 -0.2795 -0.5869
  180MOL0     N24215   5.664   8.466   6.899 -0.8079  0.8417  0.0280
  180MOL0     N24216   5.630   8.497   6.773 -0.7443  0.4617 -0.0280
  180MOL0     C24217   4.696   8.526   6.091 -0.4436  0.4380 -0.4498
  180MOL0     C24218   4.727   8.593   5.978  0.1946 -0.0966  0.3593
  180MOL0     C24219   4.867   8.965   5.716 -0.5377 -0.1212  1.3132
  180MOL0     C24220   4.742   9.026   5.735 -0.2850 -0.5888  0.4595
  180MOL0     C24221   4.692   9.105   5.636 -0.1857 -1.5005  0.5804
  180MOL0     C24222   4.747   9.125   5.511 -0.5509  0.4058  0.2449
  180MOL0     O24223   4.699   9.192   5.404  0.2070 -0.5687  0.1867
  180MOL0     C24224   4.582   9.271   5.423 -0.3224 -0.2945  0.9132
  180MOL0     C24225   4.564   9.345   5.294 -0.5912  0.4989 -0.0770
  180MOL0     C24226   4.443   9.445   5.292  0.0703  0.2450 -0.3798
  180MOL0     C24227   4.435   9.538   5.413  0.1510  0.1900 -0.2021
  180MOL0     C24228   4.563   9.597   5.458 -0.2217  0.0184  1.0488
  180MOL0     C24229   4.654   9.652   5.504 -0.0189 -0.0287  0.0357
  180MOL0     C24230   4.876   9.074   5.489 -0.4436  0.3567 -0.1505
  180MOL0     C24231   4.937   8.998   5.596 -0.1860  0.4301  0.5179
  180MOL0     C24232   5.081   8.959   5.570  0.1600 -0.6159 -0.0594
  180MOL0     H24233   4.825   8.891   6.093 -1.1431  0.3865 -2.5479
  180MOL0     H24234   4.797   8.762   6.305 -0.1065  0.6860  0.9505
  180MOL0     H24235   4.816   8.630   6.466  1.8655  1.5018 -4.8594
  180MOL0     H24236   4.759   8.475   6.531  0.1988 -2.5309 -1.3409
  180MOL0     H24237   4.993   8.530   6.337 -0.2142 -0.9870 -1.3660
  180MOL0     H24238   4.908   8.368   6.367  0.4702 -2.0390  3.7861
  180MOL0     H24239   4.955   8.410   6.623 -0.6450  0.0122  0.2488
  180MOL0     H24240   5.028   8.553   6.565 -2.8007 -0.5211 -0.7438
  180MOL0     H24241   5.116   8.263   6.492  2.3225 -0.0226  1.4721
  180MOL0     H24242   5.203   8.403   6.441 -1.2730 -1.1505 -0.1273
  180MOL0     H24243   5.266   8.453   6.677  2.3358 -1.1254  2.5318
  180MOL0     H24244   5.141   8.351   6.735 -0.8901  0.2900 -0.8093
  180MOL0     H24245   5.356   8.226   6.761  0.7241  0.4079 -0.4542
  180MOL0     H24246   5.258   8.148   6.636  0.7583 -0.0393 -2.7322
  180MOL0     H24247   5.392   8.235   6.456  0.8939 -1.7218  0.0218
  180MOL0     H24248   5.499   8.164   6.563 -1.0701 -1.2188 -4.0108
  180MOL0     H24249   5.595   8.388   6.499  0.0620 -0.1001 -0.1607
  180MOL0     H24250   5.458   8.469   6.574 -2.5728 -2.2584  3.0543
  180MOL0     H24251   5.586   8.172   6.782 -1.1610  0.7347  2.4999
  180MOL0     H24252   5.735   8.122   6.961 -1.9144 -2.8459  4.3175
  180MOL0     H24253   5.840   8.248   7.008 -0.7233  1.9229 -0.2818
  180MOL0     H24254   5.758   8.207   7.216  1.2506  1.4948 -1.6812
  180MOL0     H24255   5.646   8.319   7.175  1.2149  2.1618 -0.7496
  180MOL0     H24256   5.505   8.114   7.070 -1.7752 -2.4064  2.1905
  180MOL0     H24257   5.494   8.156   7.243  0.2807 -1.7898  1.0966
  180MOL0     H24258   5.658   7.941   7.084  0.2909  1.3511 -0.8529
  180MOL0     H24259   5.529   7.899   7.190  1.0227 -0.9094 -1.0397
  180MOL0     H24260   5.926   8.052   7.402 -0.8298 -1.2231  1.7597
  180MOL0     H24261   6.148   7.927   7.383  1.0222 -2.3499 -0.7456
  180MOL0     H24262   6.470   7.716   7.107 -1.0567  1.4441  1.7651
  180MOL0     H24263   6.712   7.618   7.140  1.6154  2.2499  0.9987
  180MOL0     H24264   6.854   7.628   7.512  1.4301 -0.6496  0.7730
  180MOL0     H24265   6.827   7.454   7.525  3.9126 -1.6184  1.2840
  180MOL0     H24266   7.073   7.602   7.407  2.3705 -0.9010  0.0611
  180MOL0     H24267   7.082   7.512   7.550  1.7806  3.9464 -1.7138
  180MOL0     H24268   7.015   7.296   7.405 -0.3866 -0.8458 -2.5833
  180MOL0     H24269   7.022   7.405   7.262 -1.4206 -0.6756  0.4032
  180MOL0     H24270   7.205   7.275   7.266 -1.6833 -0.2883  0.1775
  180MOL0     H24271   7.261   7.325   7.428 -1.1874  1.2370  0.4317
  180MOL0     H24272   7.234   7.555   7.231  1.5757  0.2502 -1.4301
  180MOL0     H24273   7.351   7.437   7.190  0.1536  1.3722  0.5254
  180MOL0     H24274   7.332   7.547   7.469 -2.7164  1.0158 -1.6889
  180MOL0     H24275   7.468   7.461   7.393  0.3579  0.9065  0.7446
  180MOL0     H24276   7.487   7.721   7.415 -1.9044 -3.1581  2.5316
  180MOL0     H24277   7.362   7.740   7.307 -0.5265  0.1652  0.2266
  180MOL0     H24278   7.504   7.580   7.133 -0.9143 -1.3939  1.7464
  180MOL0     H24279   7.549   7.747   7.166  2.0470  0.3845 -0.3436
  180MOL0     H24280   6.621   7.535   7.548 -1.8765 -0.6692  0.5192
  180MOL0     H24281   6.416   7.639   7.533 -1.0501 -0.7325 -0.2396
  180MOL0     H24282   5.980   7.657   7.102 -1.9516 -0.8372  0.8123
  180MOL0     H24283   5.762   7.784   7.115 -1.0166  0.4392  0.6264
  180MOL0     H24284   4.646   8.431   6.104  1.6368 -0.5419  0.9827
  180MOL0     H24285   4.699   8.547   5.884  1.0457 -0.4992  0.2939
  180MOL0     H24286   4.683   8.993   5.820  2.7637 -1.6769  2.3669
  180MOL0     H24287   4.592   9.148   5.643  0.2124 -0.1534 -1.2908
  180MOL0     H24288   4.607   9.348   5.497  0.9199  0.1683  0.0384
  180MOL0     H24289   4.494   9.212   5.449 -0.9468 -0.0357 -0.5003
  180MOL0     H24290   4.547   9.272   5.214 -1.6454  0.2898  0.3171
  180MOL0     H24291   4.657   9.396   5.268  0.5680 -0.6076  1.6632
  180MOL0     H24292   4.351   9.387   5.297 -1.3078  2.3743  0.4035
  180MOL0     H24293   4.451   9.496   5.195  1.3089 -2.2361 -1.6764
  180MOL0     H24294   4.363   9.615   5.382  1.4234  0.6519 -2.2498
  180MOL0     H24295   4.387   9.488   5.498 -1.4816  0.6787 -0.7964
  180MOL0     H24296   4.739   9.701   5.547 -1.4404  2.2727  0.3649
  180MOL0     H24297   4.922   9.093   5.392 -0.6779  0.6409 -0.2043
  180MOL0     H24298   5.117   8.984   5.470  1.0379 -3.2278 -0.4717
  180MOL0     H24299   5.136   9.018   5.644  1.0012  3.1165 -3.3308
  180MOL0     H24300   5.100   8.851   5.577  0.0967 -0.7128 -1.1975
  181MOL0     O24301  10.297   4.759   8.268  0.0165 -0.2075  0.2789
  181MOL0     C24302  10.367   4.795   8.176 -0.3191  0.2372 -0.3199
  181MOL0     O24303  10.506   4.782   8.170  0.3096 -0.1911  0.4844
  181MOL0     C24304  10.571   4.785   8.292 -0.0182 -0.1960 -0.0283
  181MOL0     C24305  10.560   4.900   8.368  0.0413  0.7522 -0.0039
  181MOL0     C24306  10.612   4.904   8.501 -0.3144  0.2511 -0.1846
  181MOL0     C24307  10.687   4.801   8.556 -0.3132 -0.6785  0.3797
  181MOL0     O24308  10.761   4.801   8.674 -0.2523  0.5770  0.3106
  181MOL0     C24309  10.723   4.707   8.772 -0.1762  0.1750 -0.3146
  181MOL0     C24310  10.587   4.732   8.826 -0.2567  1.2599  0.1182
  181MOL0     C24311  10.567   4.865   8.893  0.4390  0.7160  0.1697
  181MOL0     C24312  10.610   4.867   9.035  0.2167 -0.1229 -0.7585
  181MOL0     C24313  10.604   5.002   9.113  0.3104  0.5777  0.1953
  181MOL0     C24314  10.488   5.092   9.072  0.1176  0.9947  0.2979
  181MOL0     C24315  10.501   5.222   9.157 -0.0605  0.6308  1.0522
  181MOL0     C24316  10.372   5.304   9.172 -0.2704 -0.6252 -0.1484
  181MOL0     N24317  10.327   5.356   9.043 -0.1223 -0.6351  0.2501
  181MOL0     C24318  10.265   5.472   9.025  0.4254 -0.0494  0.6264
  181MOL0     C24319  10.207   5.474   8.900  0.4928  0.3970  1.1123
  181MOL0     C24320  10.145   5.579   8.819  1.2067 -0.2802  0.7488
  181MOL0     C24321  10.055   5.670   8.898  0.6886  0.1789 -0.6950
  181MOL0     C24322  10.036   5.815   8.843  0.1257  0.5875  0.0396
  181MOL0     C24323   9.976   5.799   8.700  0.1807  0.1403 -0.6961
  181MOL0     O24324   9.943   5.935   8.651 -0.1234 -0.3362 -1.5263
  181MOL0     C24325   9.823   5.944   8.588  0.5269  0.2587  0.8517
  181MOL0     C24326   9.735   6.044   8.617 -0.3902 -0.3051 -0.8845
  181MOL0     C24327   9.609   6.058   8.572 -0.4193 -0.0751 -0.7771
  181MOL0     C24328   9.564   5.967   8.485  0.2507  0.0738 -0.4848
  181MOL0     C24329   9.424   5.987   8.425  0.1929 -0.1503 -0.0282
  181MOL0     O24330   9.345   6.081   8.488 -0.2751  0.1690 -0.0187
  181MOL0     C24331   9.224   6.123   8.441 -0.2001  1.0032  0.9682
  181MOL0     C24332   9.134   6.160   8.540  0.7141  0.2474 -0.1982
  181MOL0     C24333   9.012   6.204   8.494 -0.3844  0.6678 -0.5737
  181MOL0     C24334   8.974   6.215   8.362 -0.0308 -0.7464 -0.0359
  181MOL0     O24335   8.853   6.262   8.327  0.2899 -0.6056 -0.7145
  181MOL0     C24336   8.754   6.326   8.409 -0.1110  0.2994  0.4038
  181MOL0     C24337   8.632   6.349   8.320  1.1459 -0.2542 -0.0698
  181MOL0     C24338   8.657   6.449   8.207 -0.9079 -0.3324  0.0896
  181MOL0     C24339   8.536   6.469   8.105  1.7387 -0.7314 -0.1025
  181MOL0     C24340   8.592   6.487   7.964 -0.4786 -0.5311 -0.4077
  181MOL0     C24341   8.499   6.516   7.839 -0.1222  0.2416  0.5837
  181MOL0     C24342   8.549   6.633   7.747  0.0492 -0.7547  0.5731
  181MOL0     C24343   8.480   6.642   7.612  0.3014 -0.8577 -0.2821
  181MOL0    Cl24344   8.536   6.795   7.531  0.2438 -0.1320  0.0973
  181MOL0     C24345   9.060   6.174   8.260  0.2383 -0.8530 -0.0060
  181MOL0     C24346   9.183   6.125   8.304 -0.0962  0.4255 -0.3523
  181MOL0     O24347   9.386   5.920   8.331 -0.3819  0.3836  0.3686
  181MOL0     C24348   9.649   5.871   8.436  0.3404  0.6982  0.6020
  181MOL0     C24349   9.775   5.853   8.480 -0.5777  0.1643 -0.9806
  181MOL0     N24350  10.221   5.345   8.852  0.1294 -0.3197  0.1410
  181MOL0     N24351  10.285   5.278   8.941  0.2468 -0.0110  0.8857
  181MOL0     C24352  10.696   4.683   8.474  0.7744 -0.0451  0.8445
  181MOL0     C24353  10.636   4.670   8.346  0.1843 -0.3937 -0.3936
  181MOL0     C24354  10.301   4.834   8.051 -1.3483  0.1963  0.4246
  181MOL0     C24355  10.377   4.801   7.930  0.6706 -0.1880 -0.6606
  181MOL0     C24356  10.301   4.797   7.808 -0.6723 -0.3338  0.6780
  181MOL0     C24357  10.167   4.829   7.788  0.5679 -0.3049 -0.4926
  181MOL0     O24358  10.116   4.855   7.661  0.0443  0.4164  0.6511
  181MOL0     C24359  10.063   4.747   7.587 -0.2804  0.3698  0.9608
  181MOL0     C24360   9.968   4.801   7.475 -0.5043  0.1375  0.4117
  181MOL0     C24361  10.023   4.914   7.381  0.1803 -0.8681  0.1256
  181MOL0     C24362  10.135   4.874   7.282  0.6421  0.4244  0.1158
  181MOL0     C24363  10.262   4.863   7.358 -0.9152  0.1789  0.2302
  181MOL0     C24364  10.363   4.838   7.422  0.0485  0.3048  0.9595
  181MOL0     C24365  10.108   4.883   7.901 -0.2855  0.9215 -0.3979
  181MOL0     C24366  10.174   4.883   8.032 -0.1161  0.1185  0.5080
  181MOL0     C24367  10.082   4.935   8.139  0.1501 -0.2703 -0.5714
  181MOL0     H24368  10.524   4.994   8.329  3.5570  2.3238  0.2189
  181MOL0     H24369  10.610   4.998   8.555  1.6102  0.7493 -0.9061
  181MOL0     H24370  10.734   4.608   8.725  0.5191  1.2463 -2.5630
  181MOL0     H24371  10.794   4.712   8.855  0.1515 -0.7655 -0.5186
  181MOL0     H24372  10.557   4.652   8.895  0.2441 -0.8076 -1.9419
  181MOL0     H24373  10.516   4.731   8.743  0.8157  0.1016 -0.8201
  181MOL0     H24374  10.462   4.896   8.902 -0.3623 -0.9973 -2.2107
  181MOL0     H24375  10.617   4.943   8.836  0.6505  0.3753 -0.1113
  181MOL0     H24376  10.540   4.801   9.086  0.6719  0.0289  0.0977
  181MOL0     H24377  10.715   4.836   9.044  1.1251  2.9071  0.5609
  181MOL0     H24378  10.582   4.972   9.215 -0.2365 -0.4041 -0.1978
  181MOL0     H24379  10.697   5.059   9.108  2.0424 -2.0580  0.3906
  181MOL0     H24380  10.503   5.128   8.969  0.0837 -0.8098 -0.3698
  181MOL0     H24381  10.388   5.049   9.086 -0.0012  0.9494 -0.5974
  181MOL0     H24382  10.577   5.274   9.097 -1.7727  1.6884 -0.3041
  181MOL0     H24383  10.542   5.196   9.255  0.7109  0.4802  0.6996
  181MOL0     H24384  10.295   5.243   9.220  0.6762 -0.4204  1.6906
  181MOL0     H24385  10.392   5.383   9.245  1.2409 -0.8221 -0.3312
  181MOL0     H24386  10.275   5.562   9.085  1.8634  0.7094 -0.6677
  181MOL0     H24387  10.221   5.648   8.781  1.6652 -1.0454  0.2660
  181MOL0     H24388  10.086   5.528   8.743 -0.3856  1.7855  0.5201
  181MOL0     H24389   9.959   5.618   8.904  2.1010 -2.9117 -2.7076
  181MOL0     H24390  10.092   5.685   9.000 -2.5016 -5.6631  1.8259
  181MOL0     H24391  10.141   5.847   8.846  0.3156 -0.1023  1.3808
  181MOL0     H24392   9.974   5.873   8.912 -0.4612  0.7821 -0.6370
  181MOL0     H24393   9.882   5.746   8.716 -0.7750  1.8575 -0.4525
  181MOL0     H24394  10.043   5.749   8.629  1.8850  1.2270  0.0759
  181MOL0     H24395   9.770   6.104   8.700 -1.0578 -0.4335 -0.5049
  181MOL0     H24396   9.559   6.148   8.608  2.5842  1.1463  0.7095
  181MOL0     H24397   9.156   6.155   8.646 -0.0525  0.1816 -0.0339
  181MOL0     H24398   8.936   6.238   8.563 -2.6044  1.5535 -3.2550
  181MOL0     H24399   8.742   6.271   8.503 -0.2264 -1.0887 -0.3898
  181MOL0     H24400   8.783   6.428   8.436  0.6176 -0.2438  1.7523
  181MOL0     H24401   8.594   6.254   8.283 -0.3484  1.1035 -2.3077
  181MOL0     H24402   8.559   6.405   8.379  2.5047  3.2638 -1.4427
  181MOL0     H24403   8.671   6.547   8.253 -0.1416  0.5748 -1.9900
  181MOL0     H24404   8.757   6.428   8.168 -1.6871 -3.1395 -0.6296
  181MOL0     H24405   8.466   6.549   8.131  0.6869 -0.2792 -3.8320
  181MOL0     H24406   8.481   6.375   8.115 -0.4037  0.7026  6.2585
  181MOL0     H24407   8.650   6.401   7.930 -1.7750 -1.7366  0.3659
  181MOL0     H24408   8.663   6.570   7.975 -0.0621 -1.0283  0.8148
  181MOL0     H24409   8.476   6.431   7.774 -1.1637  0.2876  0.8690
  181MOL0     H24410   8.408   6.558   7.883 -0.1908  1.5811 -0.7513
  181MOL0     H24411   8.657   6.622   7.736  0.0905  0.4934 -0.6765
  181MOL0     H24412   8.530   6.720   7.811  0.7518  0.0731 -0.3171
  181MOL0     H24413   8.501   6.551   7.555  1.4424  0.4016 -1.9854
  181MOL0     H24414   8.374   6.648   7.638 -0.0272 -1.5248 -1.3931
  181MOL0     H24415   9.044   6.183   8.153  3.7095  1.5647 -0.4909
  181MOL0     H24416   9.260   6.110   8.229  2.5161 -2.1552  2.5719
  181MOL0     H24417   9.616   5.808   8.354  1.8852  0.8957 -0.2230
  181MOL0     H24418   9.838   5.771   8.447 -2.0745 -1.0130 -0.9907
  181MOL0     H24419  10.765   4.607   8.511  0.0395 -1.9191 -1.3898
  181MOL0     H24420  10.647   4.578   8.290 -0.5990  0.3287 -1.7996
  181MOL0     H24421  10.482   4.774   7.929  0.6936 -0.2196  0.7384
  181MOL0     H24422  10.360   4.775   7.719 -0.4182  0.6452  0.5935
  181MOL0     H24423  10.011   4.670   7.645  1.3982 -2.3686 -0.8778
  181MOL0     H24424  10.145   4.690   7.542 -1.8642 -4.2155  3.2493
  181MOL0     H24425   9.871   4.839   7.508 -2.4011 -0.5604 -3.7121
  181MOL0     H24426   9.935   4.715   7.416 -1.6178 -0.4129  1.7747
  181MOL0     H24427  10.045   4.996   7.450 -2.4410 -0.9783  1.2184
  181MOL0     H24428   9.946   4.956   7.315  1.3966 -1.5311 -1.7893
  181MOL0     H24429  10.108   4.778   7.239 -1.0130 -0.6385  3.2124
  181MOL0     H24430  10.142   4.944   7.198  1.0805 -0.6242 -0.7311
  181MOL0     H24431  10.434   4.809   7.497  1.1649 -0.9397 -0.5043
  181MOL0     H24432  10.004   4.905   7.879  0.6340  2.6281 -3.7268
  181MOL0     H24433  10.070   4.861   8.219  2.5392 -0.0722  0.0691
  181MOL0     H24434  10.136   5.022   8.178  1.4436 -0.6256 -1.4754
  181MOL0     H24435   9.986   4.960   8.093 -1.5702 -1.1353  2.3156
  182MOL0     O24436   0.524   8.842   2.215 -0.1376  0.1692  0.1784
  182MOL0     C24437   0.481   8.897   2.116 -0.0602  0.5108 -0.0691
  182MOL0     O24438   0.352   8.934   2.098  0.4487 -0.7734 -0.7145
  182MOL0     C24439   0.248   8.880   2.157 -0.3727 -0.2646 -0.1519
  182MOL0     C24440   0.127   8.911   2.092  0.8421 -1.0957  0.2446
  182MOL0     C24441   0.003   8.866   2.145  0.0532  0.5168  0.3046
  182MOL0     C24442  -0.004   8.772   2.248  0.6264  0.7557  0.1319
  182MOL0     O24443  -0.125   8.732   2.288  1.4789 -0.1932 -1.1120
  182MOL0     C24444  -0.134   8.592   2.322  0.4390 -0.4251  0.2736
  182MOL0     C24445  -0.276   8.567   2.380 -0.1418 -0.7026 -0.5317
  182MOL0     C24446  -0.394   8.589   2.275 -0.8280 -0.3636  0.4343
  182MOL0     C24447  -0.524   8.557   2.353  0.5387 -0.4829 -1.4551
  182MOL0     C24448  -0.644   8.591   2.273 -0.6246 -0.5303  0.5560
  182MOL0     C24449  -0.776   8.558   2.329  0.1874 -0.5190 -0.1158
  182MOL0     C24450  -0.882   8.571   2.217  0.7333  0.2017  0.1886
  182MOL0     C24451  -0.910   8.439   2.141  0.3511  0.1307  0.7157
  182MOL0     N24452  -1.036   8.446   2.059 -0.0720 -0.2862  0.2481
  182MOL0     C24453  -1.054   8.493   1.930 -0.0450  0.0354 -0.5143
  182MOL0     C24454  -1.180   8.525   1.914  0.8439 -0.0622  1.2561
  182MOL0     C24455  -1.248   8.596   1.795  0.2714  0.3553  0.3704
  182MOL0     C24456  -1.395   8.546   1.766  0.2130 -0.2205  1.3777
  182MOL0     C24457  -1.407   8.400   1.701 -1.0746  0.3702  0.0979
  182MOL0     C24458  -1.315   8.362   1.582 -1.1839  0.2700  0.6017
  182MOL0     O24459  -1.372   8.406   1.462  0.8371  0.0066  0.0144
  182MOL0     C24460  -1.304   8.364   1.346 -1.2401  0.6627  0.2864
  182MOL0     C24461  -1.347   8.425   1.232  0.4666  0.1487 -0.7206
  182MOL0     C24462  -1.289   8.408   1.109 -0.2130  0.3265  0.1965
  182MOL0     C24463  -1.169   8.334   1.097 -0.0821  0.3403 -0.5582
  182MOL0     C24464  -1.104   8.319   0.966  0.3056 -0.0982  0.4680
  182MOL0     O24465  -1.163   8.395   0.865 -0.1452 -0.1635 -0.2016
  182MOL0     C24466  -1.122   8.392   0.737  0.1604  0.2512  0.5296
  182MOL0     C24467  -1.220   8.378   0.632  0.0780  0.3912 -0.8437
  182MOL0     C24468  -1.187   8.406   0.500 -0.5732  0.0140 -0.3983
  182MOL0     C24469  -1.059   8.433   0.466 -0.4192  0.0892 -0.2073
  182MOL0     O24470  -1.033   8.455   0.335  0.0174 -0.3918 -0.5375
  182MOL0     C24471  -0.893   8.425   0.301  0.1322 -0.4723 -0.5083
  182MOL0     C24472  -0.871   8.433   0.146  0.6008 -0.1710 -0.8292
  182MOL0     C24473  -0.924   8.305   0.083  0.3612 -0.0978 -0.5187
  182MOL0     C24474  -0.928   8.299  -0.069 -0.2662  1.1540 -0.0442
  182MOL0     C24475  -1.028   8.396  -0.144  0.0642  0.0971 -0.9652
  182MOL0     C24476  -0.988   8.395  -0.291 -0.1909 -0.5735 -0.1744
  182MOL0     C24477  -1.082   8.309  -0.379 -0.1191 -0.6789 -0.6144
  182MOL0     C24478  -1.035   8.263  -0.514  0.5446 -0.2462  0.8716
  182MOL0    Cl24479  -1.159   8.163  -0.579  0.0600  0.0803 -0.2082
  182MOL0     C24480  -0.959   8.446   0.570  1.1292 -0.6883  0.0650
  182MOL0     C24481  -0.994   8.430   0.701  0.5214  0.1751 -0.8494
  182MOL0     O24482  -1.013   8.237   0.951  1.1093 -0.4614 -0.1250
  182MOL0     C24483  -1.120   8.274   1.211 -0.0608 -1.2236 -0.0435
  182MOL0     C24484  -1.182   8.291   1.334 -0.1330 -0.3665 -1.2775
  182MOL0     N24485  -1.242   8.504   2.033 -0.1539 -0.0410  0.0282
  182MOL0     N24486  -1.163   8.448   2.113 -0.5529 -0.6989  0.3540
  182MOL0     C24487   0.117   8.744   2.306  0.3321  0.1978 -0.5965
  182MOL0     C24488   0.242   8.787   2.270  0.0889  0.2189  0.1097
  182MOL0     C24489   0.580   8.965   2.038  0.4532 -0.7158  0.6969
  182MOL0     C24490   0.585   9.098   2.057 -0.2931 -0.1165 -0.8855
  182MOL0     C24491   0.676   9.181   1.983  0.0300  0.0632 -0.0112
  182MOL0     C24492   0.754   9.112   1.887 -0.7442 -0.8446  0.5908
  182MOL0     O24493   0.852   9.175   1.808 -0.0910  0.6670  0.2431
  182MOL0     C24494   0.892   9.309   1.830  0.0018  0.3285  1.1208
  182MOL0     C24495   1.038   9.296   1.884  0.1560 -0.5595  0.4371
  182MOL0     C24496   1.089   9.432   1.909  0.2677  0.7212 -0.5175
  182MOL0     C24497   1.211   9.418   1.995 -0.7012 -0.6329  0.1707
  182MOL0     C24498   1.283   9.545   2.008  0.1169  0.0540 -0.3208
  182MOL0     C24499   1.347   9.646   2.003 -0.1815  0.4744 -0.9246
  182MOL0     C24500   0.756   8.974   1.879 -0.5103  0.5276 -0.6848
  182MOL0     C24501   0.669   8.900   1.954  0.0659  0.1193  0.5065
  182MOL0     C24502   0.669   8.739   1.953 -0.1044  0.4928 -0.1816
  182MOL0     H24503   0.141   8.977   2.007  0.3680 -2.0484 -0.5888
  182MOL0     H24504  -0.091   8.899   2.102 -0.4308 -0.4917  0.5461
  182MOL0     H24505  -0.117   8.532   2.232 -0.5922 -0.7490  0.2773
  182MOL0     H24506  -0.055   8.569   2.395  2.6274  0.3969 -1.7145
  182MOL0     H24507  -0.278   8.639   2.463  2.2396  1.9232 -2.5521
  182MOL0     H24508  -0.274   8.464   2.415 -2.0169  0.1146  2.3098
  182MOL0     H24509  -0.384   8.519   2.191 -1.7654  0.9195 -0.7816
  182MOL0     H24510  -0.387   8.689   2.233  0.0429 -0.2923  0.7162
  182MOL0     H24511  -0.517   8.450   2.378  2.6825 -0.3675 -1.3536
  182MOL0     H24512  -0.528   8.612   2.448 -2.0370 -0.6303 -1.4025
  182MOL0     H24513  -0.656   8.695   2.241 -2.3668 -1.0017 -0.4545
  182MOL0     H24514  -0.643   8.536   2.178 -1.4898 -0.3842  0.4502
  182MOL0     H24515  -0.760   8.457   2.366  1.4126 -1.1831 -2.3289
  182MOL0     H24516  -0.803   8.625   2.412  1.2140 -0.2485  0.0124
  182MOL0     H24517  -0.867   8.650   2.143  0.4919  0.6044  0.5586
  182MOL0     H24518  -0.979   8.604   2.256 -1.6825 -2.7509 -2.7339
  182MOL0     H24519  -0.823   8.412   2.081 -0.5063  0.5689 -0.7913
  182MOL0     H24520  -0.918   8.363   2.218  0.1081 -2.8581 -2.0293
  182MOL0     H24521  -0.971   8.512   1.863  0.1326  0.9996 -0.0274
  182MOL0     H24522  -1.253   8.704   1.812 -1.6427  0.4219 -0.3469
  182MOL0     H24523  -1.186   8.584   1.706  2.3962 -0.6309  1.8885
  182MOL0     H24524  -1.458   8.536   1.855 -1.7666  0.5112  0.1280
  182MOL0     H24525  -1.442   8.611   1.692  0.9211 -1.9885 -0.7446
  182MOL0     H24526  -1.513   8.381   1.687 -0.7796  0.6840 -3.2848
  182MOL0     H24527  -1.381   8.317   1.767 -0.6652 -0.3134 -0.9158
  182MOL0     H24528  -1.295   8.254   1.583  0.9136  0.6223  1.0680
  182MOL0     H24529  -1.221   8.417   1.588 -0.3420 -1.2481  3.5895
  182MOL0     H24530  -1.452   8.455   1.226 -0.1085 -1.6055 -0.0921
  182MOL0     H24531  -1.355   8.432   1.025 -0.4113  0.1400  0.2970
  182MOL0     H24532  -1.319   8.351   0.667 -1.6015  3.3007 -2.9268
  182MOL0     H24533  -1.269   8.406   0.428 -1.9979 -3.5235  0.9944
  182MOL0     H24534  -0.825   8.492   0.353 -0.4568 -0.7195  0.6266
  182MOL0     H24535  -0.869   8.328   0.346 -1.0786 -0.2613  0.6567
  182MOL0     H24536  -0.925   8.522   0.110  0.4660  0.4321  0.7764
  182MOL0     H24537  -0.764   8.430   0.124  0.2192 -0.4049 -2.8354
  182MOL0     H24538  -0.876   8.219   0.131  0.2924 -1.5223 -2.8761
  182MOL0     H24539  -1.028   8.296   0.117  0.6716  0.3493  0.6001
  182MOL0     H24540  -0.950   8.196  -0.098  0.5148  0.5976  1.2616
  182MOL0     H24541  -0.824   8.321  -0.096  0.0232  2.0165  1.6961
  182MOL0     H24542  -1.011   8.492  -0.096  3.3001 -1.5791  1.6823
  182MOL0     H24543  -1.133   8.370  -0.126  0.4927 -1.0584  0.0388
  182MOL0     H24544  -1.004   8.498  -0.324  1.4197 -0.3541 -0.3540
  182MOL0     H24545  -0.884   8.376  -0.319 -0.5582 -1.9028 -0.7190
  182MOL0     H24546  -1.171   8.370  -0.396 -0.2671  0.4809  3.3312
  182MOL0     H24547  -1.117   8.223  -0.322  0.3358 -0.4438  0.0334
  182MOL0     H24548  -1.019   8.347  -0.583 -0.6749 -1.5457 -1.0785
  182MOL0     H24549  -0.943   8.207  -0.498 -0.1600 -1.0504  2.2338
  182MOL0     H24550  -0.853   8.461   0.558  0.6335  0.9635 -3.5848
  182MOL0     H24551  -0.924   8.447   0.782 -1.7368  1.7459  0.9059
  182MOL0     H24552  -1.028   8.217   1.220  0.6343  0.0588  1.3995
  182MOL0     H24553  -1.131   8.238   1.415 -1.0733 -0.2199 -0.5672
  182MOL0     H24554   0.114   8.693   2.402  1.7794  1.4402  0.1543
  182MOL0     H24555   0.331   8.767   2.329  0.4934  2.1293  0.2279
  182MOL0     H24556   0.523   9.150   2.129  0.6350 -0.0474 -0.1197
  182MOL0     H24557   0.677   9.289   1.993  1.4321  0.5696 -4.0044
  182MOL0     H24558   0.834   9.376   1.894  0.6456  1.7697  0.2536
  182MOL0     H24559   0.903   9.349   1.728  2.3143 -0.0364  1.1674
  182MOL0     H24560   1.103   9.244   1.813  2.1035  2.5405 -0.2319
  182MOL0     H24561   1.035   9.239   1.977  2.6009 -1.0272  0.2960
  182MOL0     H24562   1.017   9.486   1.971 -0.7465 -2.9102  1.8099
  182MOL0     H24563   1.109   9.476   1.811 -1.5409 -1.3473 -1.8999
  182MOL0     H24564   1.191   9.390   2.099  0.8794  0.1099  0.7133
  182MOL0     H24565   1.288   9.348   1.961 -0.8160 -0.6717 -0.0088
  182MOL0     H24566   1.390   9.744   2.003  0.9638 -0.0095 -1.4939
  182MOL0     H24567   0.824   8.929   1.807  0.5196 -0.6031  0.9235
  182MOL0     H24568   0.755   8.696   2.005  0.7836  0.7266 -1.4052
  182MOL0     H24569   0.573   8.697   1.985  0.5836 -1.2208 -0.2281
  182MOL0     H24570   0.680   8.708   1.848  0.8298  1.8868 -0.5175
  183MOL0     O24571   2.698   4.139   1.798 -0.2699 -0.3638 -0.4041
  183MOL0     C24572   2.774   4.217   1.745  0.0534 -0.3132 -1.0239
  183MOL0     O24573   2.766   4.256   1.621  1.0554  0.2731 -0.0668
  183MOL0     C24574   2.676   4.188   1.535 -0.2543 -0.0091  0.6072
  183MOL0     C24575   2.536   4.183   1.534  0.5854 -0.3690 -1.1516
  183MOL0     C24576   2.465   4.115   1.445  0.3394  1.2384 -0.8281
  183MOL0     C24577   2.522   4.047   1.341 -0.2962 -0.3775 -1.0573
  183MOL0     O24578   2.441   3.991   1.250  0.1192  0.5367  0.1018
  183MOL0     C24579   2.500   3.908   1.144 -0.2914 -0.1623  0.7800
  183MOL0     C24580   2.393   3.832   1.066  0.4752  0.2043  0.2823
  183MOL0     C24581   2.331   3.727   1.154 -0.6726 -0.0757  0.5249
  183MOL0     C24582   2.216   3.661   1.087  0.0919  0.7665  0.7170
  183MOL0     C24583   2.100   3.629   1.185 -1.0142  0.1947  0.9312
  183MOL0     C24584   1.981   3.540   1.133 -0.1006  0.4541 -0.2738
  183MOL0     C24585   2.019   3.399   1.091 -0.9236 -0.0905 -0.0825
  183MOL0     C24586   2.009   3.295   1.196  0.1621 -1.3437 -0.3026
  183MOL0     N24587   1.870   3.283   1.243  0.0313  0.0199  0.7869
  183MOL0     C24588   1.768   3.226   1.168  0.2254  0.3105 -0.1413
  183MOL0     C24589   1.667   3.219   1.259 -0.4869  0.0312  0.2431
  183MOL0     C24590   1.543   3.138   1.248 -0.7083 -0.4603  0.0073
  183MOL0     C24591   1.500   3.136   1.098 -0.1255 -0.4672  0.1332
  183MOL0     C24592   1.373   3.067   1.061  0.5165 -0.1734  0.4043
  183MOL0     C24593   1.244   3.127   1.132 -1.0250 -0.1694 -0.3686
  183MOL0     O24594   1.217   3.262   1.079 -0.3489 -0.1677 -0.2696
  183MOL0     C24595   1.153   3.288   0.963 -0.3229 -0.4720 -0.4843
  183MOL0     C24596   1.062   3.210   0.890  0.2099 -1.1764 -0.6600
  183MOL0     C24597   0.998   3.262   0.779 -0.0811 -0.7013  0.9144
  183MOL0     C24598   1.034   3.387   0.726 -0.3894 -0.4045  0.1051
  183MOL0     C24599   0.974   3.443   0.601 -0.1663 -0.9071 -0.6219
  183MOL0     O24600   1.024   3.567   0.565  0.7301 -0.0227  0.4217
  183MOL0     C24601   1.045   3.598   0.431  1.2250 -0.5753  0.4718
  183MOL0     C24602   1.118   3.512   0.344 -1.1435  0.2972 -0.7664
  183MOL0     C24603   1.146   3.569   0.220  0.4308  0.3229 -0.1226
  183MOL0     C24604   1.108   3.702   0.179  0.3496  0.7207 -0.1085
  183MOL0     O24605   1.154   3.760   0.065  0.6896  0.3529 -0.8987
  183MOL0     C24606   1.242   3.687  -0.021  0.0291  0.5095 -0.1919
  183MOL0     C24607   1.286   3.767  -0.138 -0.7468  0.5507  0.0597
  183MOL0     C24608   1.326   3.685  -0.256  0.6029 -0.3417 -0.4067
  183MOL0     C24609   1.445   3.747  -0.323 -0.2438  0.0013  0.3481
  183MOL0     C24610   1.468   3.670  -0.456 -0.9260 -0.5408 -0.5378
  183MOL0     C24611   1.589   3.735  -0.542 -0.0594  0.8187 -0.8683
  183MOL0     C24612   1.583   3.881  -0.571  0.6584  0.5422 -0.2369
  183MOL0     C24613   1.700   3.924  -0.650 -0.3756 -0.1888  0.3525
  183MOL0    Cl24614   1.728   4.100  -0.649  0.0204 -0.1260  0.1018
  183MOL0     C24615   1.044   3.785   0.271 -0.4171  0.4342  0.4277
  183MOL0     C24616   1.009   3.726   0.393 -0.6047 -0.3550  0.3017
  183MOL0     O24617   0.906   3.362   0.531 -0.0838 -0.4043  0.6213
  183MOL0     C24618   1.128   3.465   0.798  1.3083 -0.2602  0.4287
  183MOL0     C24619   1.187   3.416   0.914 -0.8492  1.0045 -0.1978
  183MOL0     N24620   1.701   3.286   1.373  0.4903 -0.0996  1.2812
  183MOL0     N24621   1.819   3.335   1.364 -0.1636  0.5663 -0.6688
  183MOL0     C24622   2.663   4.045   1.343 -1.4887  0.3364  0.0197
  183MOL0     C24623   2.740   4.112   1.439  0.5030  0.8245  0.2721
  183MOL0     C24624   2.887   4.265   1.828  0.3098 -0.3988  0.2375
  183MOL0     C24625   3.018   4.241   1.790  0.5457  0.1885  0.2904
  183MOL0     C24626   3.122   4.308   1.859 -0.2128 -0.0813  0.9639
  183MOL0     C24627   3.104   4.378   1.971  0.4084  0.7068 -0.8408
  183MOL0     O24628   3.217   4.417   2.030 -0.0870 -0.4102  1.1445
  183MOL0     C24629   3.227   4.489   2.157  0.4164  0.2260 -0.4236
  183MOL0     C24630   3.202   4.402   2.277  1.0496  0.1582  0.1386
  183MOL0     C24631   3.235   4.256   2.286 -0.5108 -0.4502  0.3347
  183MOL0     C24632   3.375   4.235   2.243 -0.3104  0.1048  0.5626
  183MOL0     C24633   3.465   4.303   2.333  0.7073  0.1668 -0.1368
  183MOL0     C24634   3.555   4.349   2.400  0.2952 -0.3361 -0.1670
  183MOL0     C24635   2.975   4.385   2.025 -0.0083  0.3980  0.8756
  183MOL0     C24636   2.864   4.331   1.950 -0.3635 -0.5774 -0.5407
  183MOL0     C24637   2.726   4.368   2.016 -0.2444 -0.3794  0.1211
  183MOL0     H24638   2.486   4.237   1.614  0.8827 -1.6872 -0.0299
  183MOL0     H24639   2.362   4.124   1.477  0.6946 -1.3232  1.4239
  183MOL0     H24640   2.561   3.957   1.067  1.2190  0.5355  2.3533
  183MOL0     H24641   2.564   3.832   1.190  0.9335 -0.0408 -0.6137
  183MOL0     H24642   2.447   3.774   0.990 -1.1076  0.1880 -0.8660
  183MOL0     H24643   2.325   3.909   1.030  2.1555  1.1374 -1.0761
  183MOL0     H24644   2.307   3.768   1.252 -0.8439  1.1035  0.0032
  183MOL0     H24645   2.406   3.649   1.168 -3.4243 -2.9686  0.3107
  183MOL0     H24646   2.186   3.721   1.000 -1.2628 -0.6516  0.1752
  183MOL0     H24647   2.242   3.564   1.044 -1.8656  1.1987 -1.6644
  183MOL0     H24648   2.148   3.583   1.272  4.3331  0.2672 -1.5756
  183MOL0     H24649   2.052   3.723   1.215 -4.0471 -0.9570  0.1002
  183MOL0     H24650   1.892   3.545   1.197 -3.4303  0.2254 -4.4971
  183MOL0     H24651   1.943   3.589   1.044  0.4463 -1.1509 -1.4333
  183MOL0     H24652   2.123   3.393   1.058 -0.9101 -2.0752  0.1771
  183MOL0     H24653   1.943   3.375   1.016 -1.8288  0.2041  0.7214
  183MOL0     H24654   2.044   3.200   1.154 -2.1230 -1.9230 -1.0404
  183MOL0     H24655   2.071   3.322   1.282 -0.8390  0.9169 -0.2166
  183MOL0     H24656   1.774   3.187   1.067  3.4418  1.6846 -0.6332
  183MOL0     H24657   1.567   3.037   1.285 -0.1739  0.1339  1.3403
  183MOL0     H24658   1.470   3.194   1.307  0.3368  2.8224 -1.5668
  183MOL0     H24659   1.484   3.240   1.068  0.3616 -0.9902 -2.0924
  183MOL0     H24660   1.582   3.103   1.034  0.9864  3.4243 -0.7151
  183MOL0     H24661   1.387   2.961   1.085 -0.7766 -0.4422  0.0537
  183MOL0     H24662   1.350   3.079   0.955 -0.9457 -0.8476  0.6290
  183MOL0     H24663   1.261   3.138   1.239 -2.2034 -1.0530 -0.0718
  183MOL0     H24664   1.164   3.054   1.114 -1.2636  0.7188 -3.6543
  183MOL0     H24665   1.029   3.116   0.933  0.3770 -1.2848 -0.7671
  183MOL0     H24666   0.934   3.196   0.722 -0.4732  0.9442 -0.6735
  183MOL0     H24667   1.152   3.412   0.370 -1.5394  0.4577  0.4458
  183MOL0     H24668   1.192   3.500   0.150 -0.4202 -1.5481  1.0702
  183MOL0     H24669   1.327   3.636   0.025 -0.8524 -1.1321 -0.3072
  183MOL0     H24670   1.183   3.604  -0.062 -0.1924  1.0633 -1.0186
  183MOL0     H24671   1.199   3.825  -0.170 -2.7931 -1.3606  1.8170
  183MOL0     H24672   1.363   3.842  -0.117 -0.6176  0.4357 -0.0042
  183MOL0     H24673   1.366   3.587  -0.227 -3.7468 -2.3880 -0.4805
  183MOL0     H24674   1.242   3.660  -0.321 -1.4238 -0.6066  2.1143
  183MOL0     H24675   1.535   3.734  -0.263 -0.8732 -3.9476  0.6888
  183MOL0     H24676   1.433   3.856  -0.334  0.8307  0.1156  0.1401
  183MOL0     H24677   1.375   3.682  -0.513 -0.5583  2.2120 -0.6878
  183MOL0     H24678   1.486   3.564  -0.436 -1.6424 -0.3362  1.4654
  183MOL0     H24679   1.682   3.715  -0.488 -1.3304 -1.7497  0.5575
  183MOL0     H24680   1.595   3.677  -0.634  0.6320 -0.2204 -0.1852
  183MOL0     H24681   1.592   3.943  -0.481 -0.2453  2.8386 -1.6040
  183MOL0     H24682   1.482   3.895  -0.612  0.3949  1.9584  0.7938
  183MOL0     H24683   1.791   3.883  -0.605  0.7358  1.7859 -0.0065
  183MOL0     H24684   1.671   3.891  -0.751 -4.6019  1.2072  0.9109
  183MOL0     H24685   1.012   3.886   0.249 -2.4034  0.6038  3.4146
  183MOL0     H24686   0.961   3.787   0.468 -0.6270  1.4764 -1.1169
  183MOL0     H24687   1.148   3.566   0.762  2.0108 -0.5353  0.0140
  183MOL0     H24688   1.274   3.472   0.947  0.8233 -1.1974 -0.6366
  183MOL0     H24689   2.715   4.002   1.258  0.1727  2.3075 -0.0469
  183MOL0     H24690   2.846   4.091   1.439  0.8302  2.2583 -1.5035
  183MOL0     H24691   3.044   4.191   1.696  1.9879  2.2788 -0.5018
  183MOL0     H24692   3.223   4.320   1.822 -1.0834  0.2049 -1.5071
  183MOL0     H24693   3.156   4.573   2.155 -1.5546 -1.3600 -0.1704
  183MOL0     H24694   3.323   4.538   2.171  0.6524  0.0913 -1.4779
  183MOL0     H24695   3.096   4.418   2.299  0.9449 -1.9686  1.6161
  183MOL0     H24696   3.239   4.457   2.364 -1.2412 -0.1968  1.4287
  183MOL0     H24697   3.161   4.200   2.227 -2.4992 -1.8334  3.8216
  183MOL0     H24698   3.227   4.220   2.389 -0.0346 -2.4856 -0.2799
  183MOL0     H24699   3.394   4.127   2.246 -2.8478 -0.4319 -0.4489
  183MOL0     H24700   3.381   4.270   2.140  2.5113 -0.3719  0.4879
  183MOL0     H24701   3.637   4.392   2.455 -0.2863 -2.0311  2.1882
  183MOL0     H24702   2.970   4.430   2.123  0.7085  0.0686  1.0716
  183MOL0     H24703   2.698   4.278   2.071  1.8762 -0.8531  0.5133
  183MOL0     H24704   2.722   4.461   2.074 -3.8620  0.6616 -1.5048
  183MOL0     H24705   2.658   4.378   1.931  1.4272 -2.8493 -1.6224
  184MOL0     O24706   8.445  10.033  10.834 -0.4828  0.8257 -0.5003
  184MOL0     C24707   8.467   9.918  10.810  0.6090 -0.3122  0.2350
  184MOL0     O24708   8.494   9.863  10.689  0.0816 -0.2662 -0.0159
  184MOL0     C24709   8.508   9.948  10.575  0.5581 -0.1403 -0.4345
  184MOL0     C24710   8.396   9.998  10.502  0.3247  0.2913  1.0016
  184MOL0     C24711   8.429  10.090  10.389 -0.6072  0.8871 -0.2442
  184MOL0     C24712   8.559  10.120  10.356 -0.2657 -0.0998 -0.1432
  184MOL0     O24713   8.575  10.207  10.254 -0.4215  0.5082 -0.1076
  184MOL0     C24714   8.712  10.226  10.202 -0.1770  0.2007  0.1205
  184MOL0     C24715   8.741  10.118  10.101  0.0213  0.2436  0.1621
  184MOL0     C24716   8.854  10.145   9.987  0.3568 -0.2597  0.1426
  184MOL0     C24717   8.788  10.190   9.861  0.1278 -0.2472 -1.4610
  184MOL0     C24718   8.712  10.327   9.862  0.8038 -0.5373  0.1773
  184MOL0     C24719   8.670  10.365   9.713  0.3429  0.8484 -0.5006
  184MOL0     C24720   8.573  10.275   9.646 -0.0948  0.6893  0.5637
  184MOL0     C24721   8.510  10.336   9.517 -0.5470 -0.0435 -0.2212
  184MOL0     N24722   8.412  10.241   9.460 -1.4214 -0.9203  0.0967
  184MOL0     C24723   8.425  10.161   9.355  0.9327  0.4786 -0.2178
  184MOL0     C24724   8.295  10.116   9.324 -0.2135 -0.8749  0.8376
  184MOL0     C24725   8.263  10.035   9.197 -0.2248  0.0168 -1.3748
  184MOL0     C24726   8.274   9.879   9.237 -0.1126  0.5591  0.0928
  184MOL0     C24727   8.133   9.816   9.269  0.6456 -0.1364  0.2222
  184MOL0     C24728   8.069   9.883   9.396 -0.2190  0.0028  0.3789
  184MOL0     O24729   8.149   9.879   9.513  0.3585  0.6564  0.6915
  184MOL0     C24730   8.069   9.835   9.623  0.0089  0.0619 -0.0587
  184MOL0     C24731   7.979   9.925   9.676  0.6639  0.5018 -0.2104
  184MOL0     C24732   7.914   9.898   9.793  0.4642  0.2370 -0.3556
  184MOL0     C24733   7.928   9.771   9.851 -0.6521 -0.0696 -0.3282
  184MOL0     C24734   7.851   9.733   9.976 -0.3663 -0.1705  0.1715
  184MOL0     O24735   7.902   9.628  10.036  0.6143  0.1747 -0.7276
  184MOL0     C24736   7.843   9.563  10.140 -1.1131  0.2683 -0.3184
  184MOL0     C24737   7.908   9.531  10.266  1.4116 -0.4830  0.5657
  184MOL0     C24738   7.836   9.480  10.379 -0.2777 -1.0487  0.7510
  184MOL0     C24739   7.708   9.427  10.356 -0.4255 -0.1968  0.3523
  184MOL0     O24740   7.656   9.343  10.449  0.4343 -0.1909  0.0621
  184MOL0     C24741   7.719   9.216  10.451 -0.7177 -0.1528  0.0307
  184MOL0     C24742   7.612   9.110  10.442 -0.1547 -0.3851  0.9281
  184MOL0     C24743   7.668   8.968  10.455 -1.5908 -0.3156  0.9786
  184MOL0     C24744   7.556   8.860  10.439  0.0140  0.2671  0.7309
  184MOL0     C24745   7.598   8.715  10.483 -0.1475 -1.1515  0.3563
  184MOL0     C24746   7.480   8.616  10.459  0.0926 -0.2328 -0.0421
  184MOL0     C24747   7.500   8.483  10.523  0.3520 -0.8245 -0.5459
  184MOL0     C24748   7.363   8.424  10.570  0.2233  0.3021 -0.6974
  184MOL0    Cl24749   7.264   8.384  10.437  0.0801 -0.3338  0.2661
  184MOL0     C24750   7.645   9.454  10.233 -0.1795  0.7810 -1.3264
  184MOL0     C24751   7.713   9.509  10.127  0.1885 -0.8866 -0.1859
  184MOL0     O24752   7.745   9.794  10.011 -0.2756  0.0950  0.1066
  184MOL0     C24753   8.009   9.670   9.786 -0.5739 -0.3624  0.1343
  184MOL0     C24754   8.088   9.709   9.686 -0.8135 -0.0280  1.0139
  184MOL0     N24755   8.213  10.182   9.411  0.9119  0.1908 -0.5258
  184MOL0     N24756   8.285  10.256   9.488 -0.2720  1.1859  0.1149
  184MOL0     C24757   8.663  10.064  10.436 -0.6468 -0.1179 -0.2764
  184MOL0     C24758   8.631   9.980  10.536  0.0497 -0.0664 -0.2407
  184MOL0     C24759   8.452   9.817  10.932  0.0122  0.2445  0.5488
  184MOL0     C24760   8.450   9.668  10.909  0.1056 -1.0285  0.6646
  184MOL0     C24761   8.429   9.578  11.017 -0.0150 -0.0980  0.2644
  184MOL0     C24762   8.422   9.625  11.151 -0.7804 -0.0470  0.6877
  184MOL0     O24763   8.436   9.544  11.260 -0.0079 -0.0850  0.1013
  184MOL0     C24764   8.448   9.403  11.253  0.8100  0.2879  0.9161
  184MOL0     C24765   8.523   9.346  11.377 -1.2252 -0.2506  0.5212
  184MOL0     C24766   8.613   9.237  11.329  0.1260  0.1155 -0.4651
  184MOL0     C24767   8.689   9.153  11.442 -0.5713  0.7190 -0.0963
  184MOL0     C24768   8.588   9.069  11.509  0.3850 -1.3456 -0.3482
  184MOL0     C24769   8.499   9.019  11.572 -0.2137 -0.6396  0.9553
  184MOL0     C24770   8.432   9.758  11.173  0.0857 -0.8465  0.4256
  184MOL0     C24771   8.452   9.857  11.071  0.3466  0.0954 -0.7260
  184MOL0     C24772   8.436   9.997  11.135 -0.4172 -0.2293 -0.3603
  184MOL0     H24773   8.297   9.965  10.532  0.4390 -0.7466  0.3118
  184MOL0     H24774   8.353  10.128  10.322 -3.3334 -1.9778  0.9776
  184MOL0     H24775   8.707  10.326  10.157 -0.3433  0.1112 -0.0609
  184MOL0     H24776   8.785  10.247  10.281  2.5901  2.7095 -2.7806
  184MOL0     H24777   8.648  10.086  10.054  0.5579  0.5427 -1.1537
  184MOL0     H24778   8.771  10.028  10.157  0.0630 -0.2901 -0.6920
  184MOL0     H24779   8.900  10.048   9.966  0.1093  0.0022 -1.7758
  184MOL0     H24780   8.918  10.229  10.017 -1.7614  1.3117  0.5379
  184MOL0     H24781   8.882  10.215   9.811  0.9274  4.3489  1.6661
  184MOL0     H24782   8.737  10.105   9.816  0.2579 -0.9476 -0.3176
  184MOL0     H24783   8.626  10.314   9.927  2.5863  0.8719  3.0030
  184MOL0     H24784   8.762  10.415   9.905 -2.6802  0.3700  2.8307
  184MOL0     H24785   8.608  10.452   9.736  0.8658  0.7225  1.5623
  184MOL0     H24786   8.764  10.393   9.664  1.3021  0.9092  1.2928
  184MOL0     H24787   8.490  10.238   9.708  0.7478 -1.0189  0.7316
  184MOL0     H24788   8.629  10.188   9.610  1.9958  2.8647 -1.8303
  184MOL0     H24789   8.464  10.429   9.553  0.6680 -0.7867  3.7710
  184MOL0     H24790   8.594  10.364   9.453 -2.6064  1.3864 -2.4616
  184MOL0     H24791   8.514  10.139   9.298  2.3301  4.4041  0.1636
  184MOL0     H24792   8.168  10.061   9.150  0.4200  0.4812 -2.4611
  184MOL0     H24793   8.342  10.055   9.124  1.6850 -2.0630 -0.0385
  184MOL0     H24794   8.313   9.830   9.147 -1.6914 -1.4916  0.4503
  184MOL0     H24795   8.344   9.860   9.318  0.3514  0.7730 -0.2565
  184MOL0     H24796   8.151   9.710   9.289  1.6249  0.3261  2.0909
  184MOL0     H24797   8.074   9.824   9.177  2.3284 -1.9341 -1.0941
  184MOL0     H24798   7.969   9.838   9.407 -0.6255  0.6858 -0.4122
  184MOL0     H24799   8.046   9.986   9.366 -1.8866 -0.7947 -1.2943
  184MOL0     H24800   7.963  10.020   9.626 -2.7059  2.5722  4.0881
  184MOL0     H24801   7.862   9.975   9.850 -1.0803 -0.0310 -1.3681
  184MOL0     H24802   8.015   9.551  10.265  1.3026  0.0945 -0.1550
  184MOL0     H24803   7.903   9.449  10.459  3.3154  1.9718 -0.7954
  184MOL0     H24804   7.787   9.195  10.368  0.0188  1.7331  0.1148
  184MOL0     H24805   7.781   9.208  10.541  2.1441  0.1617 -1.7848
  184MOL0     H24806   7.543   9.136  10.522 -0.5660  1.1263  0.1137
  184MOL0     H24807   7.550   9.110  10.351 -0.2222  0.8792  0.9602
  184MOL0     H24808   7.744   8.951  10.379  0.4851  0.2385  2.8328
  184MOL0     H24809   7.719   8.955  10.551  0.4425  3.3956  0.5799
  184MOL0     H24810   7.512   8.863  10.339  0.8075  2.9003  0.3917
  184MOL0     H24811   7.470   8.888  10.501 -0.3767  0.8953 -0.0785
  184MOL0     H24812   7.639   8.713  10.584  0.4889 -0.1762  0.1267
  184MOL0     H24813   7.679   8.684  10.416  1.7497  0.5360  1.7808
  184MOL0     H24814   7.382   8.662  10.477  1.0715  1.2999  1.5566
  184MOL0     H24815   7.468   8.604  10.351 -0.3664  3.5575 -0.5532
  184MOL0     H24816   7.553   8.483  10.618  2.9143  0.9040 -1.8625
  184MOL0     H24817   7.564   8.417  10.464  0.2897 -2.5168  1.2162
  184MOL0     H24818   7.369   8.332  10.628 -1.9126  1.7866  2.1528
  184MOL0     H24819   7.313   8.501  10.629 -0.1002 -1.1972  1.0554
  184MOL0     H24820   7.541   9.433  10.213  0.0502 -0.3045 -1.4443
  184MOL0     H24821   7.673   9.527  10.028  1.8572 -0.1136 -0.7577
  184MOL0     H24822   8.020   9.571   9.828  0.4631 -0.3007  0.0313
  184MOL0     H24823   8.153   9.642   9.631 -0.8494  1.9834 -1.7264
  184MOL0     H24824   8.769  10.084  10.430 -0.5930  0.3166  1.4887
  184MOL0     H24825   8.711   9.948  10.602 -0.1306  2.0431  1.0902
  184MOL0     H24826   8.467   9.624  10.811 -2.3141 -0.0375 -0.2882
  184MOL0     H24827   8.405   9.473  11.004  1.0663 -0.3565  0.2343
  184MOL0     H24828   8.492   9.369  11.159 -1.4670  0.4039 -0.2498
  184MOL0     H24829   8.351   9.353  11.259  0.5508  0.5299 -0.7595
  184MOL0     H24830   8.445   9.313  11.447 -0.3927  0.7578  1.9705
  184MOL0     H24831   8.572   9.415  11.446 -3.7952  1.6006  0.6609
  184MOL0     H24832   8.694   9.265  11.261  1.1029 -1.0868  0.1524
  184MOL0     H24833   8.548   9.170  11.271 -0.2711 -0.7025  0.8850
  184MOL0     H24834   8.757   9.081  11.396 -0.0362  0.0786  1.6140
  184MOL0     H24835   8.744   9.228  11.499 -4.1739  1.8734  2.1960
  184MOL0     H24836   8.414   8.992  11.632 -0.6068  0.2743  0.8381
  184MOL0     H24837   8.420   9.794  11.275 -0.1670 -0.8908  0.4118
  184MOL0     H24838   8.452   9.993  11.243  1.1761  2.3560 -0.4095
  184MOL0     H24839   8.515  10.060  11.091  0.6446  0.1161  1.8709
  184MOL0     H24840   8.335  10.031  11.110 -0.6242 -1.9431 -2.0883
  185MOL0     O24841  10.032   3.186   9.677 -0.2792 -0.4542  0.3335
  185MOL0     C24842   9.983   3.253   9.768 -0.8493  0.9268 -1.3101
  185MOL0     O24843   9.854   3.289   9.775 -0.0151  0.2494 -0.3941
  185MOL0     C24844   9.779   3.314   9.663 -0.3693  0.5258  0.1650
  185MOL0     C24845   9.635   3.301   9.673 -0.0272  0.1259  0.4039
  185MOL0     C24846   9.555   3.318   9.558  0.1265 -0.2257  0.4694
  185MOL0     C24847   9.612   3.349   9.429  0.1500  0.0707  0.0598
  185MOL0     O24848   9.524   3.402   9.338  0.7112  0.1182  0.1709
  185MOL0     C24849   9.505   3.337   9.215  0.5413  1.3438  0.6450
  185MOL0     C24850   9.375   3.383   9.149  0.4061  0.5322  0.2183
  185MOL0     C24851   9.250   3.361   9.241 -0.1106  0.7377 -0.3972
  185MOL0     C24852   9.204   3.209   9.260 -0.0957  0.4430  0.2731
  185MOL0     C24853   9.148   3.186   9.394  0.3177 -0.1172 -0.6790
  185MOL0     C24854   9.249   3.102   9.481 -0.7594 -0.2896 -0.0162
  185MOL0     C24855   9.210   3.106   9.638  0.2580 -0.5630 -0.6667
  185MOL0     C24856   9.290   3.011   9.717  0.8635  0.0262 -0.4613
  185MOL0     N24857   9.217   2.950   9.826  0.0979  0.5869 -0.1917
  185MOL0     C24858   9.221   2.993   9.955  0.1303 -0.1734 -0.8956
  185MOL0     C24859   9.149   2.896  10.025  0.0019 -0.9857  0.0617
  185MOL0     C24860   9.126   2.877  10.171 -0.6691  0.6463 -0.2359
  185MOL0     C24861   9.250   2.862  10.261  0.2828 -0.6102 -0.0393
  185MOL0     C24862   9.292   2.719  10.288 -0.4660 -0.7115  0.0103
  185MOL0     C24863   9.197   2.661  10.392  0.6380 -0.5875 -0.8559
  185MOL0     O24864   9.228   2.527  10.434  0.1458 -0.5074  0.0202
  185MOL0     C24865   9.293   2.508  10.552 -0.4577  0.9331  0.0232
  185MOL0     C24866   9.307   2.378  10.597  0.4192 -0.5834  0.3395
  185MOL0     C24867   9.351   2.351  10.727 -0.4359 -0.3873 -0.2547
  185MOL0     C24868   9.393   2.452  10.801  0.0462  0.0936 -0.0524
  185MOL0     C24869   9.447   2.415  10.935 -0.2655 -0.1549 -0.0907
  185MOL0     O24870   9.448   2.279  10.970  0.1657  0.6739 -0.3985
  185MOL0     C24871   9.457   2.255  11.104  0.1777 -1.3828 -0.0295
  185MOL0     C24872   9.577   2.235  11.165 -0.6135  0.3554 -1.1006
  185MOL0     C24873   9.577   2.206  11.303 -0.6602 -0.0424  0.0340
  185MOL0     C24874   9.450   2.202  11.374 -0.6845  0.6628  0.2191
  185MOL0     O24875   9.442   2.184  11.507  0.4395  0.5226  0.3253
  185MOL0     C24876   9.555   2.140  11.589 -0.2407  0.0429 -0.0229
  185MOL0     C24877   9.527   2.100  11.736 -0.3728 -0.4529  0.2855
  185MOL0     C24878   9.393   2.034  11.759  0.2929  1.0297  1.0569
  185MOL0     C24879   9.384   1.906  11.676 -0.8783 -0.1315  0.3839
  185MOL0     C24880   9.260   1.824  11.698  0.6634 -0.0732 -0.4319
  185MOL0     C24881   9.127   1.892  11.641  0.4502 -0.8810  0.3596
  185MOL0     C24882   9.110   1.898  11.490  0.3312 -0.0722 -0.1395
  185MOL0     C24883   8.976   1.950  11.438  0.6186  0.0949 -0.1519
  185MOL0    Cl24884   9.004   2.008  11.261  0.4217  0.1957 -0.0139
  185MOL0     C24885   9.327   2.230  11.299  0.4465 -0.0009  0.2216
  185MOL0     C24886   9.334   2.234  11.166  0.4128 -1.1619 -0.3942
  185MOL0     O24887   9.467   2.510  11.009  0.0659  0.2170 -0.5511
  185MOL0     C24888   9.396   2.586  10.761 -0.3290 -0.0126  0.6521
  185MOL0     C24889   9.360   2.607  10.630  0.4902 -0.0738  0.6117
  185MOL0     N24890   9.091   2.810   9.928 -0.0745 -0.7643  0.3049
  185MOL0     N24891   9.137   2.844   9.818  0.1139  0.8761  0.3068
  185MOL0     C24892   9.752   3.358   9.419  0.1801 -0.3762 -1.0837
  185MOL0     C24893   9.828   3.343   9.538 -0.6577  0.0616  0.2498
  185MOL0     C24894  10.066   3.313   9.877 -0.4831 -0.8789  0.6655
  185MOL0     C24895   9.999   3.413   9.967  0.2251  0.9691  1.4750
  185MOL0     C24896  10.079   3.490  10.054 -0.2347 -0.3206 -0.1333
  185MOL0     C24897  10.223   3.478  10.067 -0.4145 -0.9075  0.5104
  185MOL0     O24898  10.293   3.555  10.154 -0.3681 -0.5257  0.5770
  185MOL0     C24899  10.300   3.694  10.098  0.4870 -0.4694 -0.3714
  185MOL0     C24900  10.422   3.774  10.150 -0.3332 -0.4212  0.0343
  185MOL0     C24901  10.451   3.741  10.297 -0.3366 -0.3380  0.7988
  185MOL0     C24902  10.357   3.837  10.377  0.4447  0.0763 -0.1662
  185MOL0     C24903  10.380   3.822  10.523  0.7809 -0.0573  0.0991
  185MOL0     C24904  10.401   3.794  10.642 -0.4290  0.2207 -0.0462
  185MOL0     C24905  10.270   3.376   9.987 -0.1679  0.7873 -0.3196
  185MOL0     C24906  10.197   3.300   9.898 -0.3373  0.1487  0.0434
  185MOL0     C24907  10.289   3.229   9.799 -0.6071  0.3251  0.8504
  185MOL0     H24908   9.585   3.289   9.769 -2.2896  1.9407 -0.4381
  185MOL0     H24909   9.450   3.345   9.563  0.6124  2.0788 -0.4344
  185MOL0     H24910   9.594   3.355   9.154  1.4859 -0.5667  1.3868
  185MOL0     H24911   9.499   3.229   9.233 -0.9097  1.5031  1.2114
  185MOL0     H24912   9.360   3.334   9.053  0.9251 -0.2122  0.5086
  185MOL0     H24913   9.388   3.489   9.129  1.5818  0.2920 -0.3584
  185MOL0     H24914   9.170   3.418   9.192  0.7416  2.0068 -0.3471
  185MOL0     H24915   9.269   3.395   9.344  0.7369 -1.6427  0.2895
  185MOL0     H24916   9.129   3.193   9.183  1.1038 -0.4055 -0.7694
  185MOL0     H24917   9.281   3.131   9.247  3.4562  3.3675  1.8644
  185MOL0     H24918   9.117   3.278   9.444 -0.5064 -1.2684  1.0162
  185MOL0     H24919   9.060   3.125   9.373  1.6010 -1.6363 -1.8977
  185MOL0     H24920   9.227   3.003   9.439 -1.3134 -0.1126 -0.1472
  185MOL0     H24921   9.346   3.151   9.467 -0.9820  0.2879  0.4438
  185MOL0     H24922   9.109   3.065   9.647  1.1150 -2.2049  3.0480
  185MOL0     H24923   9.212   3.208   9.678 -0.6793 -1.4580  1.8089
  185MOL0     H24924   9.327   2.927   9.658  0.8261 -0.9697  0.8761
  185MOL0     H24925   9.378   3.056   9.764 -0.3453  0.8451  1.1070
  185MOL0     H24926   9.269   3.084   9.988 -3.1499  0.9686  1.1984
  185MOL0     H24927   9.067   2.958  10.214 -0.9103 -0.2280  1.1603
  185MOL0     H24928   9.066   2.786  10.183  0.0431 -0.0519 -1.7261
  185MOL0     H24929   9.334   2.912  10.211 -0.5530 -1.2040 -2.1503
  185MOL0     H24930   9.233   2.925  10.349  1.9139  1.8571 -1.3816
  185MOL0     H24931   9.392   2.711  10.331 -0.1277  0.4137 -0.4975
  185MOL0     H24932   9.290   2.653  10.201  1.7630  0.0065 -0.6605
  185MOL0     H24933   9.096   2.659  10.350  1.2891 -1.0003 -2.4926
  185MOL0     H24934   9.191   2.736  10.471 -1.6061 -3.4984  2.0122
  185MOL0     H24935   9.274   2.301  10.528 -1.7659  1.0073 -0.4799
  185MOL0     H24936   9.347   2.245  10.752  1.9555  0.1979  3.2872
  185MOL0     H24937   9.669   2.230  11.108 -0.1244 -0.1116 -0.2836
  185MOL0     H24938   9.669   2.179  11.354 -3.1965 -3.9900  3.0949
  185MOL0     H24939   9.601   2.054  11.540 -0.0167 -0.7692  1.5320
  185MOL0     H24940   9.625   2.222  11.601 -2.2769  1.5404  3.2217
  185MOL0     H24941   9.607   2.033  11.767 -0.5967 -0.3396  1.1188
  185MOL0     H24942   9.529   2.190  11.798  0.0918 -1.8488  2.3744
  185MOL0     H24943   9.366   2.012  11.863 -1.6902  1.4965  0.6899
  185MOL0     H24944   9.308   2.098  11.736 -0.1892  0.4889  1.3070
  185MOL0     H24945   9.479   1.854  11.695 -0.2640  0.1677 -1.6046
  185MOL0     H24946   9.387   1.942  11.572 -1.6827  3.4404  1.4550
  185MOL0     H24947   9.253   1.798  11.804 -0.4940 -0.4313 -0.5871
  185MOL0     H24948   9.262   1.727  11.647  0.8391  0.4107 -1.3565
  185MOL0     H24949   9.044   1.841  11.690  1.4228 -2.2453  0.6653
  185MOL0     H24950   9.133   1.992  11.684 -1.4151 -1.8451  3.1333
  185MOL0     H24951   9.126   1.797  11.449  0.6347  0.5165 -1.5330
  185MOL0     H24952   9.184   1.970  11.455  1.1648 -0.4757  0.7434
  185MOL0     H24953   8.898   1.874  11.450  0.3917  0.3079 -0.2750
  185MOL0     H24954   8.943   2.025  11.510  3.7498  1.5418 -0.1016
  185MOL0     H24955   9.232   2.214  11.348  0.4609  1.5769  0.8252
  185MOL0     H24956   9.240   2.240  11.112  1.2629  2.1813 -1.7528
  185MOL0     H24957   9.446   2.662  10.821 -0.2713 -0.7873  1.6202
  185MOL0     H24958   9.363   2.705  10.583 -0.1190 -0.3903 -0.0981
  185MOL0     H24959   9.814   3.382   9.332 -1.9145  0.8993 -2.2966
  185MOL0     H24960   9.935   3.360   9.536 -0.8439  1.2478 -1.8513
  185MOL0     H24961   9.892   3.426   9.956 -0.0578 -0.1390  2.7287
  185MOL0     H24962  10.024   3.549  10.127  1.1836  2.2179 -0.9769
  185MOL0     H24963  10.208   3.748  10.122  0.6004  0.5696 -2.1141
  185MOL0     H24964  10.308   3.702   9.989  1.2919  1.3502 -0.2119
  185MOL0     H24965  10.412   3.881  10.131 -0.7809 -0.6947 -1.4514
  185MOL0     H24966  10.511   3.740  10.096 -0.4602 -0.5812 -0.0777
  185MOL0     H24967  10.553   3.773  10.318 -0.5306 -0.8176  2.6702
  185MOL0     H24968  10.434   3.639  10.332 -1.2052  0.6732  3.6996
  185MOL0     H24969  10.375   3.942  10.352  2.0724 -0.5056 -1.6609
  185MOL0     H24970  10.254   3.811  10.354  0.3267  0.9754 -0.7007
  185MOL0     H24971  10.431   3.755  10.737  0.5183  0.4017 -0.2603
  185MOL0     H24972  10.379   3.372   9.988 -0.0618  2.1960  2.4347
  185MOL0     H24973  10.271   3.263   9.697 -0.0965  1.5271  1.1400
  185MOL0     H24974  10.394   3.249   9.822 -0.3710  1.0276 -0.7221
  185MOL0     H24975  10.271   3.121   9.804 -1.0051  0.3211 -0.4774
  186MOL0     O24976   2.023   8.971   6.494 -0.8665  0.7079  0.3800
  186MOL0     C24977   1.944   9.019   6.573 -0.0137 -0.0822  0.6811
  186MOL0     O24978   1.926   9.154   6.588  0.3930 -0.3808 -0.0420
  186MOL0     C24979   2.029   9.240   6.556  0.2395  0.3259  0.7084
  186MOL0     C24980   2.033   9.286   6.423  0.3649 -0.4008 -0.8546
  186MOL0     C24981   2.118   9.395   6.389 -0.5998  1.0342  0.3153
  186MOL0     C24982   2.220   9.444   6.486  1.3575  0.0846  1.5170
  186MOL0     O24983   2.295   9.557   6.464 -0.8826 -0.2035 -0.3510
  186MOL0     C24984   2.347   9.585   6.336  0.4162 -0.0581 -0.1179
  186MOL0     C24985   2.419   9.721   6.341 -0.5235  0.2067  0.0822
  186MOL0     C24986   2.492   9.755   6.216  0.4366  0.4581  0.5164
  186MOL0     C24987   2.593   9.869   6.230  0.6862 -0.1210 -0.9463
  186MOL0     C24988   2.641   9.908   6.092  0.8073  0.8409  0.2987
  186MOL0     C24989   2.734  10.030   6.095  0.2885 -0.0908 -0.8025
  186MOL0     C24990   2.781  10.075   5.957  0.3541 -1.0131  1.0231
  186MOL0     C24991   2.911  10.147   5.957  0.3596  0.0326  0.1203
  186MOL0     N24992   2.905  10.283   6.018 -0.0778 -0.0105  0.5254
  186MOL0     C24993   2.950  10.399   5.957  0.1593 -0.1739 -0.3286
  186MOL0     C24994   2.931  10.484   6.057  0.5960  0.3559  0.0341
  186MOL0     C24995   2.975  10.624   6.031 -0.6908 -0.3404 -0.1783
  186MOL0     C24996   3.088  10.666   6.133 -0.0797  0.1859  0.0686
  186MOL0     C24997   3.221  10.607   6.111 -0.2566  0.2343 -0.0410
  186MOL0     C24998   3.319  10.653   6.218  0.0159 -0.0055  0.5800
  186MOL0     O24999   3.435  10.574   6.200  0.4296 -0.1644 -0.1138
  186MOL0     C25000   3.553  10.636   6.239 -0.7174  0.6289 -0.3631
  186MOL0     C25001   3.626  10.719   6.156 -0.3660 -0.0626  0.0172
  186MOL0     C25002   3.753  10.774   6.207  0.3802 -0.3237  0.7283
  186MOL0     C25003   3.809  10.742   6.332  0.1203  0.0390 -0.0649
  186MOL0     C25004   3.923  10.810   6.389  0.1203  0.4114  0.5304
  186MOL0     O25005   3.964  10.764   6.504  0.0150  0.5987  0.2869
  186MOL0     C25006   4.077  10.810   6.568 -0.2384  0.6595 -0.4622
  186MOL0     C25007   4.112  10.944   6.586 -0.1548  0.1907  0.1243
  186MOL0     C25008   4.213  10.978   6.669  0.1208  0.7882  0.2990
  186MOL0     C25009   4.301  10.878   6.724 -0.1921 -0.3930  0.9396
  186MOL0     O25010   4.413  10.898   6.808 -0.1690  0.2732  0.2737
  186MOL0     C25011   4.438  11.015   6.880  0.8746 -0.1259  0.9135
  186MOL0     C25012   4.565  10.999   6.953  0.5633  0.8834  0.4170
  186MOL0     C25013   4.548  10.917   7.083  0.5102  0.6890  0.0123
  186MOL0     C25014   4.687  10.901   7.143 -1.0310 -0.0813 -0.6719
  186MOL0     C25015   4.712  10.776   7.224  0.2627 -0.4693 -0.2973
  186MOL0     C25016   4.847  10.773   7.294  0.2397 -0.2056  0.1093
  186MOL0     C25017   4.889  10.629   7.313  0.3247 -0.6524 -0.1376
  186MOL0     C25018   4.984  10.626   7.429  0.6966 -0.4432 -0.0303
  186MOL0    Cl25019   5.114  10.758   7.430 -0.3541 -0.6664  0.4362
  186MOL0     C25020   4.262  10.745   6.714  0.2516 -0.2845  1.0008
  186MOL0     C25021   4.146  10.711   6.639 -0.1676 -0.1214  0.2114
  186MOL0     O25022   3.976  10.899   6.324  0.0828  0.2645 -0.4459
  186MOL0     C25023   3.740  10.647   6.397  0.9579 -0.3336 -0.0825
  186MOL0     C25024   3.610  10.598   6.361  0.5559 -0.8106  1.2085
  186MOL0     N25025   2.879  10.422   6.164  0.4130 -0.2027 -0.1680
  186MOL0     N25026   2.869  10.295   6.147  0.1146 -0.2556 -0.3242
  186MOL0     C25027   2.207   9.394   6.616  0.1110 -0.1608 -0.2201
  186MOL0     C25028   2.111   9.295   6.650 -0.0349  0.0036 -0.5105
  186MOL0     C25029   1.864   8.937   6.662 -0.3562  0.0042 -0.3551
  186MOL0     C25030   1.779   8.991   6.760  0.3833 -0.6305 -0.4860
  186MOL0     C25031   1.691   8.920   6.838 -1.4090  0.2041 -0.4657
  186MOL0     C25032   1.692   8.780   6.829 -0.6062  1.3664 -0.7547
  186MOL0     O25033   1.608   8.712   6.906 -0.2605 -0.9270 -0.6370
  186MOL0     C25034   1.490   8.693   6.836 -0.5971  0.0587  0.3695
  186MOL0     C25035   1.440   8.556   6.888 -0.1055 -0.1752  0.0527
  186MOL0     C25036   1.373   8.467   6.780  0.7052  0.3718 -0.2088
  186MOL0     C25037   1.264   8.369   6.833  0.2067  0.1027  0.3258
  186MOL0     C25038   1.144   8.435   6.894  0.5944 -0.5295 -0.1445
  186MOL0     C25039   1.065   8.492   6.969 -0.6020 -0.3508  0.1848
  186MOL0     C25040   1.758   8.720   6.725  0.1370  0.6878 -0.6786
  186MOL0     C25041   1.841   8.796   6.639 -0.5585 -0.5118 -0.4438
  186MOL0     C25042   1.904   8.707   6.532 -0.7630 -0.0366  0.7582
  186MOL0     H25043   1.979   9.254   6.335  1.1102  0.5822 -1.6996
  186MOL0     H25044   2.132   9.447   6.295 -0.1705  1.5312  0.6484
  186MOL0     H25045   2.424   9.512   6.307 -0.4116 -0.5335 -1.1835
  186MOL0     H25046   2.268   9.575   6.261 -1.0157 -3.3833  1.6178
  186MOL0     H25047   2.493   9.700   6.419  1.1602  0.1725 -1.4638
  186MOL0     H25048   2.342   9.795   6.363  0.1881  0.9687  0.0740
  186MOL0     H25049   2.411   9.798   6.156 -0.8589 -0.6182  1.4312
  186MOL0     H25050   2.527   9.664   6.165  0.5724  0.7117  0.1480
  186MOL0     H25051   2.542   9.948   6.285 -2.3720 -2.6146  0.1137
  186MOL0     H25052   2.666   9.837   6.305 -0.4753  1.6570  1.0747
  186MOL0     H25053   2.696   9.822   6.053  1.4249 -0.8121  4.2326
  186MOL0     H25054   2.566   9.937   6.019  1.4335 -2.9572 -2.1691
  186MOL0     H25055   2.688  10.102   6.163 -0.1944 -3.2028  2.4816
  186MOL0     H25056   2.824  10.000   6.150  0.6985 -0.3438 -1.5943
  186MOL0     H25057   2.708  10.145   5.917  1.3721  0.0235  0.9374
  186MOL0     H25058   2.791   9.990   5.889  2.7806 -0.3710  0.4753
  186MOL0     H25059   2.999  10.094   5.996  2.3409  2.4029 -0.8166
  186MOL0     H25060   2.940  10.156   5.852  2.6298  0.2892  0.7049
  186MOL0     H25061   2.993  10.419   5.859 -0.9613  0.6857 -0.6616
  186MOL0     H25062   2.998  10.635   5.925 -0.3481 -1.0342 -0.1788
  186MOL0     H25063   2.882  10.677   6.052  0.4601  0.9943  2.0030
  186MOL0     H25064   3.100  10.775   6.134 -3.9731  0.7848  1.6703
  186MOL0     H25065   3.057  10.639   6.235 -1.9091  0.2177 -0.4292
  186MOL0     H25066   3.266  10.643   6.018  0.6558  0.2933  0.4125
  186MOL0     H25067   3.212  10.498   6.102 -1.5702  0.3242 -0.0578
  186MOL0     H25068   3.277  10.656   6.319  1.9198  1.5641  1.3810
  186MOL0     H25069   3.347  10.753   6.184 -2.1518 -0.7654 -4.2523
  186MOL0     H25070   3.595  10.766   6.063  0.2017 -0.5294 -0.4143
  186MOL0     H25071   3.796  10.852   6.146  0.0099 -0.4732  0.2650
  186MOL0     H25072   4.052  11.025   6.547  0.3422 -0.0039 -1.0832
  186MOL0     H25073   4.240  11.079   6.700  0.1695  0.0180  3.0443
  186MOL0     H25074   4.458  11.091   6.804 -0.0788 -0.4978  0.2693
  186MOL0     H25075   4.362  11.048   6.951 -0.5647 -1.9283  0.2921
  186MOL0     H25076   4.620  10.948   6.873 -2.5727  1.2761 -2.1836
  186MOL0     H25077   4.611  11.095   6.979  0.0941  1.3831 -0.5267
  186MOL0     H25078   4.473  10.962   7.149  1.1521 -0.5727  1.6618
  186MOL0     H25079   4.506  10.822   7.048  1.7833  0.6513 -1.5078
  186MOL0     H25080   4.717  10.978   7.215  3.0498 -1.1969 -0.9317
  186MOL0     H25081   4.765  10.901   7.066 -1.9049 -3.1869 -1.7113
  186MOL0     H25082   4.713  10.693   7.153  2.1994  1.6211 -2.9180
  186MOL0     H25083   4.634  10.753   7.298  0.3261  0.7045  0.1489
  186MOL0     H25084   4.926  10.808   7.227  1.9763 -2.8247  0.6225
  186MOL0     H25085   4.853  10.837   7.383  1.8880  0.3449 -0.3665
  186MOL0     H25086   4.932  10.590   7.220 -0.3189  2.4872 -1.8947
  186MOL0     H25087   4.803  10.568   7.341 -0.5948  0.6360 -0.0421
  186MOL0     H25088   4.924  10.649   7.517  0.1260  1.3076 -0.8343
  186MOL0     H25089   5.037  10.530   7.425 -0.0401 -0.8300 -0.9074
  186MOL0     H25090   4.328  10.676   6.766  2.9483  2.0552  0.9480
  186MOL0     H25091   4.114  10.608   6.631 -0.2864 -0.3890  3.0648
  186MOL0     H25092   3.778  10.613   6.493 -0.3710 -2.2657 -0.1682
  186MOL0     H25093   3.564  10.532   6.434 -0.8888 -0.9106  0.2419
  186MOL0     H25094   2.276   9.434   6.690  1.6013  0.3228 -1.8067
  186MOL0     H25095   2.102   9.260   6.752  0.1815 -0.1256 -0.5355
  186MOL0     H25096   1.775   9.099   6.764  0.5473 -0.6235 -0.5040
  186MOL0     H25097   1.620   8.979   6.896 -1.1461 -0.8198  0.9509
  186MOL0     H25098   1.495   8.694   6.727 -1.5682 -1.3882  0.2815
  186MOL0     H25099   1.414   8.764   6.869 -3.3790 -2.5412  0.0259
  186MOL0     H25100   1.378   8.575   6.976  1.3218  0.6992  0.9015
  186MOL0     H25101   1.517   8.493   6.934  2.1558  0.8134 -2.1636
  186MOL0     H25102   1.451   8.416   6.722  0.4409  0.8305 -0.9794
  186MOL0     H25103   1.312   8.526   6.711  1.7826  0.9544 -0.6811
  186MOL0     H25104   1.239   8.302   6.750  0.1698  1.2452 -0.6240
  186MOL0     H25105   1.308   8.301   6.906 -0.2966 -1.4217 -0.7453
  186MOL0     H25106   1.017   8.551   7.044 -0.5985  0.0512 -0.1241
  186MOL0     H25107   1.745   8.614   6.704  1.5118 -0.0106  1.6398
  186MOL0     H25108   1.830   8.632   6.504 -2.6678  1.4931  1.4090
  186MOL0     H25109   1.943   8.753   6.441  2.3452 -0.9409  1.5208
  186MOL0     H25110   1.996   8.668   6.575  0.7514  2.6682  0.2300
  187MOL0     O25111   3.793   1.249   8.170  0.6002  0.1110 -0.7797
  187MOL0     C25112   3.770   1.138   8.205  0.6818 -0.1400  0.1003
  187MOL0     O25113   3.856   1.051   8.270  0.6524 -0.5622 -0.7479
  187MOL0     C25114   3.984   1.078   8.298 -0.0604 -1.1761  0.4207
  187MOL0     C25115   4.041   1.004   8.396 -0.0739  0.6135  1.3065
  187MOL0     C25116   4.165   1.028   8.445 -0.5508 -0.5670 -0.5646
  187MOL0     C25117   4.241   1.135   8.392 -0.5118  0.3502  0.2504
  187MOL0     O25118   4.374   1.150   8.431  0.6242  0.3917  0.0901
  187MOL0     C25119   4.408   1.280   8.489 -0.6966  0.3999 -0.3574
  187MOL0     C25120   4.545   1.288   8.563 -0.8370 -0.0652 -0.0477
  187MOL0     C25121   4.565   1.443   8.583 -0.9572  0.6390  0.7433
  187MOL0     C25122   4.711   1.457   8.631  1.1375  1.1237 -0.4997
  187MOL0     C25123   4.750   1.602   8.633 -0.3169 -0.8089  0.3667
  187MOL0     C25124   4.897   1.623   8.671  0.8101 -0.3460  0.4388
  187MOL0     C25125   4.932   1.770   8.636 -0.1065  0.4642  0.2214
  187MOL0     C25126   5.059   1.811   8.715  0.5998  0.2856 -0.0712
  187MOL0     N25127   5.123   1.940   8.667  0.4974  0.8759 -0.0813
  187MOL0     C25128   5.111   2.061   8.734 -1.0046  0.2496  0.4262
  187MOL0     C25129   5.176   2.154   8.653  0.2459  0.3095 -0.1081
  187MOL0     C25130   5.196   2.292   8.689 -0.3934  1.1315 -0.7940
  187MOL0     C25131   5.318   2.334   8.779 -0.1930 -0.2405 -1.3226
  187MOL0     C25132   5.446   2.271   8.736 -0.1641 -0.1818  0.6929
  187MOL0     C25133   5.556   2.299   8.843 -0.7596  0.2212  0.2168
  187MOL0     O25134   5.652   2.188   8.829 -0.4404  0.0642  0.0757
  187MOL0     C25135   5.620   2.064   8.881  0.0009  0.1895  0.0235
  187MOL0     C25136   5.523   2.042   8.986 -0.0436  1.3758  0.1107
  187MOL0     C25137   5.501   1.914   9.041 -0.0586 -0.0007  0.2441
  187MOL0     C25138   5.563   1.803   8.984 -0.1433 -0.3083  0.3974
  187MOL0     C25139   5.535   1.664   9.027 -0.1552 -0.2096  0.0166
  187MOL0     O25140   5.428   1.643   9.107  0.2795 -0.1488 -0.5507
  187MOL0     C25141   5.391   1.518   9.154 -0.2973 -0.8512  0.8779
  187MOL0     C25142   5.395   1.403   9.088  0.0310  0.4043 -0.5798
  187MOL0     C25143   5.356   1.272   9.134  0.3326 -0.7928  0.4632
  187MOL0     C25144   5.290   1.259   9.263  0.4125  0.0303  0.2419
  187MOL0     O25145   5.242   1.139   9.317  0.6726 -0.0070 -0.7355
  187MOL0     C25146   5.242   1.018   9.241 -0.0861  0.4061 -0.2773
  187MOL0     C25147   5.123   0.928   9.290 -0.1316 -0.0007  0.2170
  187MOL0     C25148   5.056   0.948   9.428  0.7154 -0.3333  0.6225
  187MOL0     C25149   5.161   0.935   9.547  0.9772 -0.2932  0.3375
  187MOL0     C25150   5.098   0.979   9.680 -0.0912 -0.0070 -0.4156
  187MOL0     C25151   5.203   0.999   9.787  0.1321 -0.4945  0.1667
  187MOL0     C25152   5.273   1.142   9.789 -0.2375 -0.5803  0.3976
  187MOL0     C25153   5.321   1.171   9.929  0.1699 -1.5791 -0.9036
  187MOL0    Cl25154   5.388   1.343   9.935 -0.1533  0.3173 -0.2274
  187MOL0     C25155   5.282   1.387   9.335  0.6444  0.3627 -0.1020
  187MOL0     C25156   5.335   1.510   9.288 -0.5228 -0.7438 -0.7466
  187MOL0     O25157   5.604   1.573   8.977 -0.2646  0.0769  0.3263
  187MOL0     C25158   5.649   1.825   8.870  0.2180  1.6358 -0.3838
  187MOL0     C25159   5.682   1.953   8.825  0.2150 -0.1997  0.8427
  187MOL0     N25160   5.230   2.089   8.546 -0.7206  0.3590  0.4890
  187MOL0     N25161   5.188   1.968   8.552  0.4129  0.6203  0.7979
  187MOL0     C25162   4.194   1.211   8.283 -0.2510 -0.2468  0.9070
  187MOL0     C25163   4.062   1.184   8.240  0.4500  0.3675  0.1243
  187MOL0     C25164   3.637   1.080   8.185 -0.3490 -0.4659 -0.8515
  187MOL0     C25165   3.583   1.019   8.305 -0.0045  0.3117  0.3060
  187MOL0     C25166   3.455   0.970   8.307  0.0828 -0.0323 -0.4762
  187MOL0     C25167   3.372   0.993   8.202 -0.6771 -1.0382  0.1603
  187MOL0     O25168   3.243   0.950   8.191 -0.3160 -0.2023 -0.4322
  187MOL0     C25169   3.171   0.878   8.304 -0.1964  0.1622  0.0120
  187MOL0     C25170   3.023   0.883   8.277 -0.5658 -0.1404  0.7280
  187MOL0     C25171   2.938   0.793   8.362 -0.0010  0.4406 -0.2749
  187MOL0     C25172   2.928   0.653   8.312  0.0518  1.0772  0.5059
  187MOL0     C25173   2.821   0.593   8.384  0.0377 -0.5522 -0.2707
  187MOL0     C25174   2.705   0.566   8.420  0.0956 -0.1318  0.7131
  187MOL0     C25175   3.424   1.053   8.091 -0.9168  0.5243  0.1678
  187MOL0     C25176   3.561   1.087   8.066  1.2348 -0.2036  0.3739
  187MOL0     C25177   3.610   1.132   7.934 -0.6972 -0.1345 -0.2353
  187MOL0     H25178   3.987   0.916   8.431  2.0237 -0.2606  2.5443
  187MOL0     H25179   4.208   0.973   8.528 -0.3114 -0.4349 -0.6033
  187MOL0     H25180   4.391   1.364   8.422 -1.1343  1.1066  0.6117
  187MOL0     H25181   4.335   1.294   8.569 -2.1052  2.0255 -1.8569
  187MOL0     H25182   4.625   1.249   8.500  0.4258  0.0067  1.4608
  187MOL0     H25183   4.538   1.234   8.658 -0.1247  2.7956  1.7779
  187MOL0     H25184   4.489   1.473   8.655 -2.3085  0.5314 -0.6039
  187MOL0     H25185   4.567   1.493   8.486  0.1735 -2.1782 -0.8234
  187MOL0     H25186   4.705   1.411   8.730  1.7065 -3.0596 -2.1798
  187MOL0     H25187   4.781   1.396   8.573  1.5688  0.0579  1.0767
  187MOL0     H25188   4.731   1.654   8.539 -1.5929  0.4386  1.2508
  187MOL0     H25189   4.680   1.648   8.705 -2.5637 -1.0194 -1.5567
  187MOL0     H25190   4.909   1.600   8.777  0.6548 -0.9322  0.3291
  187MOL0     H25191   4.955   1.554   8.610  0.7183 -2.0297  2.1443
  187MOL0     H25192   4.851   1.840   8.661 -0.4085 -0.4676  2.0463
  187MOL0     H25193   4.955   1.777   8.529  0.7292  0.2177  0.3804
  187MOL0     H25194   5.052   1.808   8.824  1.0653 -0.7566 -0.0554
  187MOL0     H25195   5.128   1.734   8.679 -2.2217 -0.6467 -4.1132
  187MOL0     H25196   5.075   2.083   8.834  1.4832 -1.1836  1.7167
  187MOL0     H25197   5.221   2.337   8.593  3.4549  0.3392 -0.2976
  187MOL0     H25198   5.105   2.337   8.731  1.2276  2.4976  1.5148
  187MOL0     H25199   5.314   2.443   8.776 -2.2758 -0.1351  1.3536
  187MOL0     H25200   5.305   2.290   8.878 -0.1448 -3.4284 -2.6056
  187MOL0     H25201   5.492   2.316   8.648  2.0356  1.9002  2.7245
  187MOL0     H25202   5.432   2.163   8.730 -2.9753  0.1893 -3.1571
  187MOL0     H25203   5.514   2.329   8.940  1.7468 -0.5970  1.6481
  187MOL0     H25204   5.610   2.390   8.818 -0.0384  0.5760  2.7223
  187MOL0     H25205   5.465   2.125   9.023  2.6580  2.4305  2.3210
  187MOL0     H25206   5.422   1.906   9.116 -0.2056  0.7410  0.1686
  187MOL0     H25207   5.417   1.402   8.982 -2.4395 -1.0130 -1.1488
  187MOL0     H25208   5.369   1.189   9.065  0.5020 -0.7038  0.3916
  187MOL0     H25209   5.228   1.035   9.134  2.8283 -4.5442 -1.7340
  187MOL0     H25210   5.336   0.963   9.236  1.3270  2.6568 -0.0416
  187MOL0     H25211   5.044   0.954   9.219  1.3808 -0.2859 -1.6384
  187MOL0     H25212   5.145   0.823   9.270  1.7514  0.2313  0.8340
  187MOL0     H25213   4.994   1.038   9.423  2.6925  1.0647 -2.9547
  187MOL0     H25214   4.985   0.868   9.448  1.9357 -1.3067  1.2450
  187MOL0     H25215   5.248   1.000   9.535  0.6399  0.0752 -0.1804
  187MOL0     H25216   5.196   0.831   9.552  3.8569  0.5571 -0.3865
  187MOL0     H25217   5.036   0.890   9.697 -1.5097  0.7089 -1.5973
  187MOL0     H25218   5.036   1.069   9.684 -0.3971 -0.2555  0.8983
  187MOL0     H25219   5.150   0.972   9.878  0.1435 -4.8767 -0.8945
  187MOL0     H25220   5.281   0.922   9.785 -0.0850 -0.8635  2.9269
  187MOL0     H25221   5.210   1.223   9.750 -0.8172  0.0731  2.5866
  187MOL0     H25222   5.353   1.142   9.714  0.9016  1.1200  1.5232
  187MOL0     H25223   5.240   1.168  10.002  0.6564 -5.8451 -0.2863
  187MOL0     H25224   5.406   1.108   9.959  1.2181 -0.2251 -0.9068
  187MOL0     H25225   5.230   1.401   9.429  1.1506 -0.5895  0.3314
  187MOL0     H25226   5.355   1.602   9.342  1.1553  0.4217 -3.1340
  187MOL0     H25227   5.705   1.744   8.827 -3.7951 -0.6044 -1.9427
  187MOL0     H25228   5.732   1.954   8.729 -0.1645  1.1295  0.6448
  187MOL0     H25229   4.251   1.286   8.231  2.8631 -2.3140  1.0800
  187MOL0     H25230   4.025   1.249   8.161  0.1843 -0.6451 -0.5979
  187MOL0     H25231   3.642   1.018   8.396  0.5882  0.1664 -0.0731
  187MOL0     H25232   3.427   0.918   8.398  1.3966 -1.4883 -0.8671
  187MOL0     H25233   3.182   0.923   8.404 -0.2449 -0.8115  0.4707
  187MOL0     H25234   3.207   0.775   8.297  1.5273  0.8101 -1.2011
  187MOL0     H25235   3.007   0.850   8.174 -2.1952  1.7470  0.3322
  187MOL0     H25236   3.000   0.990   8.284  0.6656  0.3098 -1.2705
  187MOL0     H25237   2.844   0.845   8.342 -0.7966 -0.3581  1.2101
  187MOL0     H25238   2.946   0.791   8.471 -4.2335 -0.0394  0.1770
  187MOL0     H25239   2.906   0.665   8.206  0.8999  1.3887  0.3563
  187MOL0     H25240   3.030   0.615   8.320  1.5558  5.0131  3.0504
  187MOL0     H25241   2.605   0.553   8.456 -0.7452 -0.0537 -1.4605
  187MOL0     H25242   3.351   1.060   8.012 -1.6444 -0.9110  0.6779
  187MOL0     H25243   3.650   1.046   7.879 -2.4883 -2.0398  1.2590
  187MOL0     H25244   3.531   1.168   7.867  0.6145 -2.7391 -3.4854
  187MOL0     H25245   3.680   1.215   7.948 -1.2507  0.4472 -0.8712
  188MOL0     O25246  10.275   8.236   9.260  0.0349 -0.6369 -0.2892
  188MOL0     C25247  10.271   8.212   9.379 -0.3162 -0.3557 -0.0620
  188MOL0     O25248  10.325   8.104   9.444 -0.1102  0.1988  0.2112
  188MOL0     C25249  10.397   8.008   9.373  0.6438  0.6742  0.6231
  188MOL0     C25250  10.460   7.918   9.456  1.2884 -0.7354 -0.1563
  188MOL0     C25251  10.541   7.822   9.404 -0.5921  0.8733 -0.0735
  188MOL0     C25252  10.570   7.812   9.263  1.1251  0.3500 -0.1920
  188MOL0     O25253  10.642   7.707   9.208  0.1461 -0.3705 -0.6022
  188MOL0     C25254  10.649   7.590   9.293 -0.9404  0.2224 -0.1891
  188MOL0     C25255  10.702   7.470   9.212 -0.5547 -0.4830  0.5544
  188MOL0     C25256  10.751   7.375   9.321  1.3059  0.0117  0.2450
  188MOL0     C25257  10.855   7.279   9.271  0.0709  0.5056 -0.2889
  188MOL0     C25258  10.967   7.242   9.361 -0.1549  0.6133 -0.1401
  188MOL0     C25259  11.072   7.154   9.309  0.1650  0.0021 -0.2366
  188MOL0     C25260  11.172   7.201   9.212  0.9906 -0.4045 -0.4423
  188MOL0     C25261  11.308   7.263   9.260 -0.1068  0.1241  0.2351
  188MOL0     N25262  11.282   7.381   9.339  0.1429 -0.0230  0.5123
  188MOL0     C25263  11.241   7.499   9.279  0.1392  0.3658 -0.4734
  188MOL0     C25264  11.209   7.578   9.384 -0.0674 -0.3085  0.3716
  188MOL0     C25265  11.161   7.716   9.376 -0.2241  0.2126  0.1281
  188MOL0     C25266  11.013   7.723   9.372 -0.1342  0.3446 -0.3022
  188MOL0     C25267  10.957   7.864   9.405  0.1111 -0.9057 -0.8713
  188MOL0     C25268  10.922   7.876   9.560  0.1414 -0.1315  0.8370
  188MOL0     O25269  10.849   7.996   9.593  0.4408  0.1431  0.5445
  188MOL0     C25270  10.907   8.113   9.569 -0.4738 -0.3724  0.0924
  188MOL0     C25271  11.043   8.137   9.551 -0.1044  0.0060  0.2815
  188MOL0     C25272  11.101   8.261   9.529 -0.1078  0.2047 -0.6788
  188MOL0     C25273  11.023   8.367   9.525  0.0048  0.1420  0.4632
  188MOL0     C25274  11.089   8.506   9.498 -0.7743 -0.2667 -0.4609
  188MOL0     O25275  10.999   8.608   9.465  0.4422 -0.4076  0.1509
  188MOL0     C25276  11.041   8.734   9.440 -0.6422 -0.4659 -0.4882
  188MOL0     C25277  10.984   8.833   9.519 -0.1170  0.3141 -0.3888
  188MOL0     C25278  11.016   8.966   9.505  1.9321 -0.3344  0.1382
  188MOL0     C25279  11.091   9.007   9.396 -1.1172 -0.0562 -0.4212
  188MOL0     O25280  11.105   9.147   9.391 -1.0003  0.4806  0.1217
  188MOL0     C25281  11.168   9.198   9.267 -0.1828 -0.4020 -0.1341
  188MOL0     C25282  11.139   9.346   9.249  0.2744  0.3466  0.4029
  188MOL0     C25283  11.117   9.383   9.101 -0.3031  1.2825 -0.0902
  188MOL0     C25284  11.249   9.374   9.013 -0.2134  0.4955  0.2766
  188MOL0     C25285  11.252   9.409   8.868 -0.4270 -0.6844 -0.4573
  188MOL0     C25286  11.145   9.343   8.787 -0.0155  0.1688  0.3974
  188MOL0     C25287  11.164   9.369   8.629  0.0059  0.8320  0.5043
  188MOL0     C25288  11.171   9.517   8.580  0.4647  0.1354  0.4314
  188MOL0    Cl25289  11.086   9.544   8.426 -0.1566 -0.6230 -0.4748
  188MOL0     C25290  11.159   8.914   9.318  1.1015  0.4579 -0.8871
  188MOL0     C25291  11.131   8.776   9.337  0.0127 -0.5672 -0.5300
  188MOL0     O25292  11.208   8.520   9.510  0.2025  0.9203 -0.9892
  188MOL0     C25293  10.883   8.355   9.541  0.6854 -0.8444  0.4808
  188MOL0     C25294  10.822   8.232   9.551 -0.3232 -0.3659  0.5255
  188MOL0     N25295  11.238   7.507   9.495 -0.6043  1.2517 -0.6126
  188MOL0     N25296  11.284   7.392   9.473  0.7187  0.5066 -0.2148
  188MOL0     C25297  10.505   7.896   9.179  0.2233 -0.4154  0.7056
  188MOL0     C25298  10.422   7.996   9.235 -0.3397  0.0240  0.1837
  188MOL0     C25299  10.195   8.317   9.466 -0.4086 -0.2809  0.5190
  188MOL0     C25300  10.126   8.268   9.575  0.5258 -1.2440  0.3407
  188MOL0     C25301  10.035   8.359   9.647 -0.4476 -0.2016  0.7898
  188MOL0     C25302  10.041   8.502   9.627 -0.8082  0.3670 -0.4819
  188MOL0     O25303   9.976   8.601   9.687  0.0437  0.5901 -0.4070
  188MOL0     C25304   9.914   8.573   9.816 -0.0162 -0.0860  0.4769
  188MOL0     C25305   9.862   8.705   9.872  0.3302  0.1210 -0.2658
  188MOL0     C25306   9.776   8.781   9.769  0.2870  0.5512  0.2240
  188MOL0     C25307   9.634   8.744   9.756  0.1060 -0.2412  0.9805
  188MOL0     C25308   9.548   8.764   9.871  0.6619 -0.1149 -0.5977
  188MOL0     C25309   9.477   8.774   9.967  0.1790 -0.4131 -0.0473
  188MOL0     C25310  10.122   8.543   9.523  0.2557 -0.0147  0.2879
  188MOL0     C25311  10.195   8.455   9.445 -1.1306 -0.0135  0.0279
  188MOL0     C25312  10.279   8.525   9.349 -0.3096  0.1579  0.7481
  188MOL0     H25313  10.447   7.922   9.563  0.2650  1.2420 -0.3121
  188MOL0     H25314  10.587   7.757   9.478  1.2688 -0.2020 -2.0264
  188MOL0     H25315  10.712   7.624   9.376 -3.5073  1.3335  1.4097
  188MOL0     H25316  10.555   7.562   9.340 -0.3171  1.4309  1.9030
  188MOL0     H25317  10.793   7.499   9.158 -0.5912 -1.4701 -0.0728
  188MOL0     H25318  10.621   7.434   9.148  0.3162  1.5714 -1.8439
  188MOL0     H25319  10.662   7.318   9.352  1.2769  0.7456  1.5908
  188MOL0     H25320  10.786   7.433   9.407  3.3448  1.4821 -1.4645
  188MOL0     H25321  10.802   7.185   9.254 -1.1995  1.5809 -2.7290
  188MOL0     H25322  10.897   7.320   9.178  1.0859  0.1262 -0.0132
  188MOL0     H25323  11.010   7.340   9.386  1.1014 -0.4802  2.4409
  188MOL0     H25324  10.928   7.192   9.450  0.3595  1.3751  0.5436
  188MOL0     H25325  11.128   7.117   9.395  0.1464  2.3443  0.8563
  188MOL0     H25326  11.028   7.069   9.257  0.4581  0.6361 -1.5656
  188MOL0     H25327  11.124   7.273   9.144 -0.7796 -0.4600  0.6921
  188MOL0     H25328  11.195   7.108   9.160  0.1483 -1.0867  0.3821
  188MOL0     H25329  11.361   7.187   9.318  1.3005 -1.1122 -2.4977
  188MOL0     H25330  11.368   7.294   9.174  1.4724  0.4056  1.3855
  188MOL0     H25331  11.245   7.519   9.173  0.9254 -1.2387 -0.7836
  188MOL0     H25332  11.206   7.768   9.460  0.6016  0.4160 -0.4272
  188MOL0     H25333  11.211   7.768   9.294 -0.0015  0.9864  0.7432
  188MOL0     H25334  10.971   7.690   9.277 -0.7894 -3.3023  1.0760
  188MOL0     H25335  10.972   7.643   9.435  1.1396 -0.2626 -0.1958
  188MOL0     H25336  10.862   7.875   9.351 -1.4255 -0.3358  1.7992
  188MOL0     H25337  11.032   7.938   9.375 -0.0816  0.0337  0.8528
  188MOL0     H25338  11.015   7.865   9.616  1.3059  3.2546 -0.1935
  188MOL0     H25339  10.847   7.799   9.580  0.1864 -0.5020 -0.2943
  188MOL0     H25340  11.106   8.048   9.554 -0.7764 -0.4519  3.4599
  188MOL0     H25341  11.209   8.265   9.514 -0.3096  2.6548 -1.9528
  188MOL0     H25342  10.920   8.803   9.601  2.1229 -0.7742  1.0847
  188MOL0     H25343  10.973   9.046   9.564 -1.2404  0.3633 -2.7683
  188MOL0     H25344  11.276   9.192   9.254 -0.1909  2.5278 -2.8064
  188MOL0     H25345  11.125   9.140   9.185 -0.9614  1.1685 -0.8814
  188MOL0     H25346  11.052   9.362   9.313 -0.5351 -0.7753 -0.3832
  188MOL0     H25347  11.222   9.407   9.286  0.4194  0.5957 -0.3134
  188MOL0     H25348  11.052   9.309   9.053 -0.1290  2.0999 -1.6276
  188MOL0     H25349  11.059   9.475   9.092 -3.9896 -0.7754  0.4741
  188MOL0     H25350  11.284   9.270   9.009 -1.9414 -0.0846 -2.6760
  188MOL0     H25351  11.319   9.441   9.063  1.6665 -0.7315 -0.6069
  188MOL0     H25352  11.351   9.386   8.828 -0.1311 -0.1628 -0.0343
  188MOL0     H25353  11.265   9.518   8.860  0.6700 -0.8124 -0.5995
  188MOL0     H25354  11.124   9.239   8.816 -1.4149  0.3933  0.2879
  188MOL0     H25355  11.056   9.401   8.815 -0.5524 -1.0309  1.2740
  188MOL0     H25356  11.083   9.314   8.579  2.0046 -3.3825  1.4401
  188MOL0     H25357  11.257   9.316   8.608  0.2076  0.9140  1.1556
  188MOL0     H25358  11.143   9.588   8.659  0.1705  2.1303 -1.3815
  188MOL0     H25359  11.275   9.547   8.562  1.3374 -2.9001 -0.2864
  188MOL0     H25360  11.236   8.943   9.248  0.4469  0.2361 -1.7272
  188MOL0     H25361  11.194   8.717   9.271 -0.4336  0.0044 -1.4998
  188MOL0     H25362  10.810   8.436   9.539 -2.0546 -3.0736  2.2771
  188MOL0     H25363  10.714   8.219   9.557 -0.8154  0.7328 -3.1640
  188MOL0     H25364  10.514   7.889   9.071  2.8592  0.1122  0.8314
  188MOL0     H25365  10.366   8.061   9.169 -0.3707  0.5312  0.7116
  188MOL0     H25366  10.123   8.160   9.590 -2.5646 -1.5802 -1.8820
  188MOL0     H25367   9.952   8.312   9.699 -0.5086 -1.0203 -0.0276
  188MOL0     H25368   9.985   8.519   9.879  0.8216 -0.3763 -0.6779
  188MOL0     H25369   9.826   8.509   9.802  1.6076 -2.4378  0.3312
  188MOL0     H25370   9.944   8.776   9.889 -1.5259  3.0562 -2.5510
  188MOL0     H25371   9.816   8.690   9.970  1.7550 -0.9536  0.2787
  188MOL0     H25372   9.818   8.770   9.668  1.2771  1.5996  0.4877
  188MOL0     H25373   9.785   8.887   9.796  0.0444  0.9284 -1.0784
  188MOL0     H25374   9.607   8.796   9.664  1.9896 -1.5132 -0.3778
  188MOL0     H25375   9.633   8.637   9.731  1.7257  0.2087 -1.3280
  188MOL0     H25376   9.404   8.778  10.045  1.5118 -1.8509  1.3485
  188MOL0     H25377  10.136   8.649   9.506  3.2874 -0.0622  1.7535
  188MOL0     H25378  10.325   8.616   9.388  1.3488 -1.0796  1.8514
  188MOL0     H25379  10.350   8.459   9.297 -1.7794 -0.0088 -1.1381
  188MOL0     H25380  10.215   8.544   9.262 -0.3055 -0.3693  0.6255
  189MOL0     O25381   0.462   8.270   1.941 -0.6328 -0.4117 -0.1810
  189MOL0     C25382   0.467   8.186   1.852  0.4405 -0.3333  0.1920
  189MOL0     O25383   0.462   8.051   1.876  0.1537 -0.3362 -0.3574
  189MOL0     C25384   0.472   8.003   2.004  0.7307 -1.2304 -0.4338
  189MOL0     C25385   0.600   8.018   2.052 -0.5282 -0.1812 -0.1092
  189MOL0     C25386   0.637   7.992   2.184 -0.0836  0.3189  0.3888
  189MOL0     C25387   0.530   7.949   2.267  0.3896  1.3547  0.0478
  189MOL0     O25388   0.561   7.933   2.403  0.0711  0.7751 -0.4039
  189MOL0     C25389   0.547   7.792   2.460  0.9539  0.0191  0.2149
  189MOL0     C25390   0.659   7.769   2.561 -0.1059  0.4568 -0.9771
  189MOL0     C25391   0.642   7.641   2.635 -0.1889  0.8980 -0.9983
  189MOL0     C25392   0.755   7.627   2.723  0.3172  0.1524 -0.1623
  189MOL0     C25393   0.738   7.501   2.804 -0.5350 -0.0536  0.0221
  189MOL0     C25394   0.794   7.535   2.947  0.6432 -0.7107  0.7863
  189MOL0     C25395   0.782   7.411   3.033 -1.0241  0.5396 -0.8799
  189MOL0     C25396   0.854   7.444   3.172 -0.1147 -0.1783 -0.5421
  189MOL0     N25397   1.000   7.472   3.162 -0.1677  0.4192  0.2784
  189MOL0     C25398   1.106   7.394   3.213 -0.0708  0.4409 -0.0556
  189MOL0     C25399   1.210   7.474   3.196 -0.1131 -0.6320  0.6732
  189MOL0     C25400   1.363   7.453   3.210  0.6673 -0.1507 -0.2844
  189MOL0     C25401   1.452   7.572   3.176 -0.5090  0.1014 -0.0330
  189MOL0     C25402   1.464   7.666   3.295 -0.3434 -0.3873 -0.5780
  189MOL0     C25403   1.544   7.794   3.268 -1.0101  0.0287  0.1222
  189MOL0     O25404   1.528   7.875   3.392 -0.0497  0.4094 -0.3583
  189MOL0     C25405   1.581   8.002   3.399  0.1674  1.0784 -0.2242
  189MOL0     C25406   1.553   8.079   3.509  0.4199 -0.2362 -0.7029
  189MOL0     C25407   1.617   8.199   3.540 -0.1805 -0.7791  0.2080
  189MOL0     C25408   1.705   8.256   3.442  0.7252  0.2721 -0.3858
  189MOL0     C25409   1.782   8.371   3.483 -0.1602  0.1294 -0.0389
  189MOL0     O25410   1.832   8.438   3.382 -0.3575 -1.4619  0.2178
  189MOL0     C25411   1.888   8.573   3.386 -0.0827 -0.6513 -0.1550
  189MOL0     C25412   1.867   8.675   3.476  0.8245 -0.7055 -0.5133
  189MOL0     C25413   1.953   8.785   3.481 -1.1865 -0.0986 -0.5495
  189MOL0     C25414   2.055   8.809   3.378  1.0242  0.2977  0.9070
  189MOL0     O25415   2.147   8.911   3.381  0.2839  0.3587 -0.4029
  189MOL0     C25416   2.186   8.967   3.250 -0.3612  0.0401  0.6192
  189MOL0     C25417   2.250   9.102   3.265 -0.3644  0.0269  0.8678
  189MOL0     C25418   2.311   9.163   3.135  0.7483  0.2153 -0.5379
  189MOL0     C25419   2.352   9.311   3.151 -0.6021 -0.4618  0.3368
  189MOL0     C25420   2.330   9.405   3.025 -0.1394  0.6483  0.0460
  189MOL0     C25421   2.405   9.345   2.900 -0.8355 -0.3565 -0.0749
  189MOL0     C25422   2.553   9.321   2.922  0.6308 -0.1740 -0.2846
  189MOL0     C25423   2.649   9.432   2.953  0.1676  0.1527  0.1392
  189MOL0    Cl25424   2.625   9.573   2.849  0.0387  0.1942  0.1799
  189MOL0     C25425   2.071   8.709   3.282 -0.5011  0.0377  0.1154
  189MOL0     C25426   1.989   8.595   3.293 -0.5096 -0.4103  0.1525
  189MOL0     O25427   1.777   8.412   3.601  0.8756 -0.4055  0.4589
  189MOL0     C25428   1.716   8.189   3.318  0.3497 -0.2657  1.0840
  189MOL0     C25429   1.657   8.063   3.298  1.2029 -0.0290  0.7429
  189MOL0     N25430   1.168   7.598   3.144  0.1390  0.0622 -0.2825
  189MOL0     N25431   1.041   7.598   3.136  0.7467  0.5639 -0.3060
  189MOL0     C25432   0.397   7.930   2.224  0.4494  0.1518  0.2999
  189MOL0     C25433   0.375   7.963   2.093 -0.3114 -0.0865 -0.0163
  189MOL0     C25434   0.490   8.237   1.709  0.8204  0.7812  0.2361
  189MOL0     C25435   0.521   8.145   1.615  0.3701  0.0971 -0.1449
  189MOL0     C25436   0.533   8.173   1.481  0.4215  0.3070  1.0260
  189MOL0     C25437   0.514   8.302   1.436  0.4887 -0.6729 -0.0902
  189MOL0     O25438   0.517   8.357   1.306  0.2030  0.5688 -0.1113
  189MOL0     C25439   0.483   8.263   1.196 -0.8880  0.3304  0.4826
  189MOL0     C25440   0.608   8.184   1.132 -0.5242  0.0101 -0.2141
  189MOL0     C25441   0.732   8.266   1.130 -1.3188 -0.1670  0.3735
  189MOL0     C25442   0.739   8.352   0.995 -0.7627  0.2113 -0.4755
  189MOL0     C25443   0.833   8.304   0.889  0.7243  0.6105 -0.4022
  189MOL0     C25444   0.880   8.252   0.797 -1.1447  0.7038 -0.5905
  189MOL0     C25445   0.475   8.400   1.525 -0.9777 -0.6990  0.9589
  189MOL0     C25446   0.457   8.370   1.660  0.1517 -0.2284 -0.4967
  189MOL0     C25447   0.404   8.483   1.742  0.9860 -0.7649  0.3940
  189MOL0     H25448   0.674   8.066   1.989 -0.5403 -0.8228 -0.6194
  189MOL0     H25449   0.736   8.002   2.227 -0.2422 -1.1997  1.1932
  189MOL0     H25450   0.446   7.776   2.499  0.2298  1.0178 -1.1833
  189MOL0     H25451   0.549   7.723   2.376  0.2399  2.4728 -1.9486
  189MOL0     H25452   0.650   7.857   2.625  0.6105  1.4874 -2.2527
  189MOL0     H25453   0.747   7.757   2.497 -0.0152  0.4978 -0.8607
  189MOL0     H25454   0.632   7.553   2.571 -2.7214  0.2486  0.1382
  189MOL0     H25455   0.552   7.642   2.697  2.4476  0.2460  3.3048
  189MOL0     H25456   0.853   7.641   2.677 -0.9862  0.0670 -3.1844
  189MOL0     H25457   0.740   7.707   2.796  0.8426 -1.4924  1.8447
  189MOL0     H25458   0.634   7.466   2.809 -0.1445 -1.4669 -1.0646
  189MOL0     H25459   0.799   7.427   2.753 -1.6549 -2.4361  1.9495
  189MOL0     H25460   0.898   7.563   2.924 -0.8036  1.0206 -5.4243
  189MOL0     H25461   0.742   7.623   2.984 -1.1968 -1.3067 -0.2383
  189MOL0     H25462   0.819   7.319   2.987 -1.5865  0.3110 -0.8846
  189MOL0     H25463   0.676   7.396   3.056 -1.3094  1.6101 -1.4547
  189MOL0     H25464   0.796   7.529   3.208  0.1289 -0.1090 -0.3109
  189MOL0     H25465   0.836   7.358   3.237  2.4925 -0.0032  0.5383
  189MOL0     H25466   1.097   7.294   3.255 -1.9734 -0.7907 -3.0857
  189MOL0     H25467   1.382   7.419   3.313 -0.1054 -2.3169 -0.8083
  189MOL0     H25468   1.389   7.372   3.142  0.7885 -0.0197 -0.3944
  189MOL0     H25469   1.554   7.540   3.152  0.0041  0.6694  1.2872
  189MOL0     H25470   1.414   7.638   3.097 -1.1145  0.1544  0.2968
  189MOL0     H25471   1.491   7.610   3.385 -2.0123 -1.0554 -0.4426
  189MOL0     H25472   1.362   7.704   3.311 -0.0759  1.1491 -2.2393
  189MOL0     H25473   1.499   7.848   3.184  1.7552  3.3457  0.5395
  189MOL0     H25474   1.648   7.766   3.245  0.2173  3.5119  0.8050
  189MOL0     H25475   1.487   8.035   3.583  2.1696 -1.5085  0.1923
  189MOL0     H25476   1.592   8.238   3.638  1.9245 -2.2023  1.3809
  189MOL0     H25477   1.793   8.676   3.556 -0.3673  1.8563 -1.5314
  189MOL0     H25478   1.932   8.861   3.555 -2.1268 -0.7515 -0.1265
  189MOL0     H25479   2.266   8.906   3.208 -0.5167 -0.2474  0.7415
  189MOL0     H25480   2.103   8.973   3.178 -0.9596 -0.2285  1.2832
  189MOL0     H25481   2.183   9.169   3.320 -0.4248 -0.6481  1.6485
  189MOL0     H25482   2.326   9.079   3.341 -2.7098  0.4095  3.5221
  189MOL0     H25483   2.401   9.110   3.101  0.4989 -0.5451 -0.0519
  189MOL0     H25484   2.227   9.160   3.065  0.3789  0.1498 -0.1007
  189MOL0     H25485   2.454   9.303   3.188 -1.0245 -1.8967  1.2510
  189MOL0     H25486   2.309   9.361   3.238 -2.0545 -1.4118  0.1994
  189MOL0     H25487   2.361   9.507   3.049  2.3563  0.6259 -2.5747
  189MOL0     H25488   2.222   9.409   3.016 -0.5294  1.8323  3.5790
  189MOL0     H25489   2.358   9.248   2.882  1.3334 -1.3308 -0.8816
  189MOL0     H25490   2.381   9.410   2.815 -1.4065 -1.2794 -0.6396
  189MOL0     H25491   2.574   9.286   2.821 -3.9529 -4.7269 -0.0868
  189MOL0     H25492   2.575   9.234   2.986 -0.8767 -0.8264 -0.6172
  189MOL0     H25493   2.648   9.447   3.061  0.5255  1.9352 -0.0768
  189MOL0     H25494   2.749   9.392   2.934  0.3853  0.8574 -0.2477
  189MOL0     H25495   2.144   8.719   3.203 -0.9010 -2.2134 -0.6303
  189MOL0     H25496   2.006   8.514   3.223 -2.7981 -0.9694  0.1599
  189MOL0     H25497   1.779   8.227   3.238 -1.6084  0.6600 -0.1066
  189MOL0     H25498   1.668   8.018   3.200  3.1862  0.8343  0.5340
  189MOL0     H25499   0.318   7.909   2.296  1.1586  1.5477  1.5361
  189MOL0     H25500   0.277   7.962   2.047 -0.6225 -1.1686  0.6293
  189MOL0     H25501   0.532   8.041   1.645  0.9094  0.5530  1.3006
  189MOL0     H25502   0.562   8.096   1.411  1.3595  2.1925 -0.7798
  189MOL0     H25503   0.450   8.314   1.105 -0.7673  0.7551  0.6704
  189MOL0     H25504   0.414   8.185   1.230 -0.7427 -0.2126 -0.4563
  189MOL0     H25505   0.582   8.159   1.028  1.0259 -0.3016 -0.5411
  189MOL0     H25506   0.627   8.092   1.188  0.6581  0.1767 -0.3149
  189MOL0     H25507   0.815   8.194   1.128 -1.9262 -0.9180  1.1421
  189MOL0     H25508   0.748   8.338   1.210  2.1091 -0.3107 -0.0547
  189MOL0     H25509   0.650   8.362   0.932  0.5316  0.3641 -2.3714
  189MOL0     H25510   0.766   8.457   1.010 -1.3696  0.5222 -1.4690
  189MOL0     H25511   0.923   8.192   0.719 -1.8746 -1.1022  0.3354
  189MOL0     H25512   0.447   8.493   1.478  0.0348  0.5193  2.6581
  189MOL0     H25513   0.350   8.557   1.681  2.9455  0.1457 -0.3349
  189MOL0     H25514   0.333   8.466   1.823  1.0218 -1.4242  0.2905
  189MOL0     H25515   0.486   8.545   1.779 -1.4505  1.5280  2.2839
  190MOL0     O25516   1.160   5.822  10.435 -0.1077  0.1649 -0.4845
  190MOL0     C25517   1.109   5.924  10.377 -1.4844 -0.1353 -1.4708
  190MOL0     O25518   1.114   5.948  10.245  0.1405 -0.8045 -0.4457
  190MOL0     C25519   1.162   5.854  10.165 -0.0184  0.3640 -0.4274
  190MOL0     C25520   1.084   5.810  10.054 -0.1227 -0.7642 -0.3277
  190MOL0     C25521   1.129   5.710   9.964 -0.3140 -0.5910  0.0373
  190MOL0     C25522   1.259   5.660   9.981 -0.2399 -0.3751  0.7170
  190MOL0     O25523   1.315   5.562   9.901 -0.1586  0.0962  0.1089
  190MOL0     C25524   1.291   5.539   9.761  0.8308  0.1724  0.9950
  190MOL0     C25525   1.379   5.420   9.722  0.5413 -0.1144  0.9399
  190MOL0     C25526   1.529   5.448   9.711 -0.3846 -0.2372  0.3116
  190MOL0     C25527   1.583   5.573   9.635  0.3265  0.5206  0.4244
  190MOL0     C25528   1.734   5.587   9.681 -0.4317  0.4574  0.2577
  190MOL0     C25529   1.827   5.626   9.568 -0.8706 -0.8389  0.0352
  190MOL0     C25530   1.781   5.760   9.498  0.0799  0.4104 -0.0966
  190MOL0     C25531   1.863   5.786   9.368  0.9184 -0.9249  0.3313
  190MOL0     N25532   1.824   5.677   9.277  0.2696 -0.1552  0.5504
  190MOL0     C25533   1.909   5.616   9.189  0.1976 -0.5568 -0.2696
  190MOL0     C25534   1.840   5.518   9.128  1.3900 -0.1380  0.2542
  190MOL0     C25535   1.883   5.428   9.016  0.2502  0.4718 -0.3277
  190MOL0     C25536   1.898   5.287   9.084 -0.1801 -0.1502 -1.1719
  190MOL0     C25537   1.879   5.152   9.009 -0.5894  0.0852 -0.9842
  190MOL0     C25538   1.962   5.125   8.884  0.4841 -0.7151  0.1636
  190MOL0     O25539   1.932   5.012   8.796 -0.4101 -0.8310 -0.5089
  190MOL0     C25540   1.927   4.889   8.848 -0.4743  0.0959  1.3997
  190MOL0     C25541   1.839   4.796   8.783 -0.1329 -0.3490 -0.6311
  190MOL0     C25542   1.845   4.658   8.806 -0.2223  0.5607 -0.6587
  190MOL0     C25543   1.943   4.606   8.890 -0.2217 -0.1718 -0.3581
  190MOL0     C25544   1.934   4.461   8.908 -0.1132  0.4250 -0.1122
  190MOL0     O25545   1.849   4.395   8.821  0.2148  0.1275 -0.3104
  190MOL0     C25546   1.837   4.254   8.833 -0.3556 -0.1900 -0.0448
  190MOL0     C25547   1.712   4.189   8.889 -0.0144 -0.2379  0.6146
  190MOL0     C25548   1.703   4.050   8.862 -0.1589 -0.7456 -0.2869
  190MOL0     C25549   1.803   3.983   8.794 -0.4856  0.0550  0.0628
  190MOL0     O25550   1.810   3.844   8.782 -0.0584  0.0647  1.1282
  190MOL0     C25551   1.706   3.756   8.821  0.0089  0.6125  0.4578
  190MOL0     C25552   1.756   3.610   8.819 -0.7319  0.0392  0.5598
  190MOL0     C25553   1.795   3.553   8.675  0.6382 -0.8504 -0.0835
  190MOL0     C25554   1.824   3.400   8.674  0.2060 -0.1476  0.0234
  190MOL0     C25555   1.826   3.358   8.528 -0.0959 -0.1284  1.0594
  190MOL0     C25556   1.842   3.202   8.517 -0.4193 -0.6255  0.1260
  190MOL0     C25557   1.834   3.150   8.378  0.9350 -0.7388 -0.5706
  190MOL0     C25558   1.815   2.993   8.369 -0.1184  0.1730 -0.4663
  190MOL0    Cl25559   1.664   2.955   8.467  0.3269  0.0973  0.2744
  190MOL0     C25560   1.921   4.043   8.737  0.4529  0.2708  0.1961
  190MOL0     C25561   1.942   4.179   8.771 -0.1479 -0.5687 -0.1249
  190MOL0     O25562   2.018   4.406   8.981 -0.3431  0.0018  0.2732
  190MOL0     C25563   2.031   4.698   8.952  0.0850 -0.4378 -0.6255
  190MOL0     C25564   2.016   4.843   8.940 -0.4653  1.1264  0.0498
  190MOL0     N25565   1.710   5.541   9.150  0.3612 -0.1827 -0.8050
  190MOL0     N25566   1.701   5.639   9.239 -0.5720  0.0651 -0.3253
  190MOL0     C25567   1.331   5.700  10.091 -0.7944  0.3732 -0.0375
  190MOL0     C25568   1.296   5.806  10.174  0.3539 -0.2164  0.9995
  190MOL0     C25569   1.048   6.006  10.480  0.3310 -0.3176 -0.2759
  190MOL0     C25570   0.945   6.087  10.418 -0.0833 -1.3512 -0.3298
  190MOL0     C25571   0.857   6.153  10.501  0.4048 -0.2297  0.3150
  190MOL0     C25572   0.848   6.132  10.637  0.4982  0.2006  0.1801
  190MOL0     O25573   0.755   6.193  10.718  0.1928  0.2646  0.4718
  190MOL0     C25574   0.661   6.285  10.674 -0.7744 -0.0970 -0.1091
  190MOL0     C25575   0.631   6.386  10.781 -0.0174  0.0382  0.8009
  190MOL0     C25576   0.760   6.451  10.812 -0.9169 -0.4804 -0.1361
  190MOL0     C25577   0.755   6.589  10.877 -0.5715 -0.3799  0.2687
  190MOL0     C25578   0.889   6.634  10.908  0.0999  1.4087  0.1543
  190MOL0     C25579   1.000   6.666  10.946  0.3395  0.4402  0.4192
  190MOL0     C25580   0.941   6.055  10.703 -0.6209  0.5290  0.0157
  190MOL0     C25581   1.039   5.993  10.625 -1.6428  0.9683 -0.4444
  190MOL0     C25582   1.130   5.902  10.708  1.0499 -0.9871  0.2022
  190MOL0     H25583   0.991   5.862  10.031  1.3070  1.7678 -0.7155
  190MOL0     H25584   1.068   5.692   9.876 -0.6855 -1.4115  0.4491
  190MOL0     H25585   1.186   5.510   9.750  0.5864  0.7966  1.5542
  190MOL0     H25586   1.324   5.623   9.698 -2.0795  0.2715 -0.5862
  190MOL0     H25587   1.355   5.364   9.631  2.8039 -1.0326  0.8429
  190MOL0     H25588   1.368   5.344   9.799 -1.1083  0.0449  0.8934
  190MOL0     H25589   1.573   5.359   9.664 -0.5763  1.0533 -2.4912
  190MOL0     H25590   1.560   5.454   9.816 -1.0497  1.5446  0.4338
  190MOL0     H25591   1.583   5.548   9.529  0.0375 -0.7246  0.6998
  190MOL0     H25592   1.542   5.674   9.648  1.2109  1.2617 -1.9970
  190MOL0     H25593   1.735   5.670   9.752 -1.6698  0.3075  0.4711
  190MOL0     H25594   1.779   5.499   9.728 -0.7248 -0.7464 -1.6248
  190MOL0     H25595   1.920   5.646   9.622 -1.6700  0.5262  0.9730
  190MOL0     H25596   1.840   5.532   9.515  2.1070 -0.5016 -0.0090
  190MOL0     H25597   1.782   5.846   9.565 -4.2804  1.4240 -1.0310
  190MOL0     H25598   1.675   5.757   9.471  1.2136 -3.0206 -5.9083
  190MOL0     H25599   1.829   5.879   9.322  4.5195  2.3360  3.5207
  190MOL0     H25600   1.968   5.797   9.395  0.7964 -1.0939  0.8822
  190MOL0     H25601   2.016   5.631   9.175 -0.0821  0.6031 -1.3347
  190MOL0     H25602   1.809   5.435   8.935 -3.5838 -0.1681  2.7782
  190MOL0     H25603   1.974   5.473   8.976 -1.1943  1.6562 -2.4875
  190MOL0     H25604   1.993   5.283   9.138 -1.0860 -1.6481  0.3952
  190MOL0     H25605   1.827   5.279   9.166  2.8422 -3.7593  1.4297
  190MOL0     H25606   1.771   5.138   8.999 -1.0939  1.9872  1.0569
  190MOL0     H25607   1.900   5.069   9.078 -1.1148  0.7639  0.0222
  190MOL0     H25608   2.068   5.124   8.913  0.3884 -1.5424  0.5138
  190MOL0     H25609   1.946   5.205   8.811 -0.0323 -0.2582  0.7595
  190MOL0     H25610   1.766   4.831   8.712 -2.0217  0.3368  1.5330
  190MOL0     H25611   1.780   4.591   8.750  0.9378 -0.7075 -0.5467
  190MOL0     H25612   1.624   4.233   8.935 -0.7734 -2.0483  0.9595
  190MOL0     H25613   1.623   3.989   8.902 -0.4528 -0.4078 -0.3512
  190MOL0     H25614   1.668   3.784   8.920 -0.2934 -0.8032  0.7658
  190MOL0     H25615   1.621   3.765   8.753  0.3133 -0.9571 -0.1857
  190MOL0     H25616   1.846   3.605   8.881 -0.8009  1.4097  0.8003
  190MOL0     H25617   1.686   3.540   8.865  0.2629 -1.0781  0.4212
  190MOL0     H25618   1.714   3.572   8.604  0.4908  0.4652  0.4006
  190MOL0     H25619   1.880   3.613   8.641  0.2325 -0.3717 -0.2703
  190MOL0     H25620   1.739   3.348   8.720  1.0066 -2.2135 -0.7554
  190MOL0     H25621   1.908   3.373   8.738  1.5929 -1.6250 -2.3036
  190MOL0     H25622   1.909   3.407   8.475 -1.2538  0.1868 -0.5455
  190MOL0     H25623   1.726   3.394   8.501 -0.1743  0.5353  2.2018
  190MOL0     H25624   1.942   3.173   8.550  0.0383  0.8824  0.1459
  190MOL0     H25625   1.768   3.161   8.586 -1.9148 -1.6200 -1.9422
  190MOL0     H25626   1.926   3.181   8.327  0.2235  0.6765 -1.0600
  190MOL0     H25627   1.743   3.198   8.341  1.3021  0.2814 -0.1815
  190MOL0     H25628   1.806   2.975   8.262  3.2680  0.7237 -0.9593
  190MOL0     H25629   1.900   2.936   8.407  0.1056  1.6173  1.3828
  190MOL0     H25630   1.977   3.972   8.676 -0.3349  0.3173 -0.5951
  190MOL0     H25631   2.035   4.233   8.755 -0.6552  0.9490  1.7157
  190MOL0     H25632   2.105   4.669   9.026 -1.2948 -1.1545  0.5523
  190MOL0     H25633   2.071   4.904   9.011 -3.3848  1.0109  2.6155
  190MOL0     H25634   1.431   5.662  10.106 -0.9493  0.2153  0.6313
  190MOL0     H25635   1.358   5.842  10.256  2.5586  0.4963 -0.8711
  190MOL0     H25636   0.934   6.098  10.311  2.6187 -4.6542 -1.1227
  190MOL0     H25637   0.786   6.217  10.448 -0.2210 -0.7865  0.4640
  190MOL0     H25638   0.563   6.239  10.659 -0.7783  0.5074 -2.1932
  190MOL0     H25639   0.690   6.341  10.584 -0.9688 -2.0240 -1.4327
  190MOL0     H25640   0.598   6.349  10.879 -2.7853 -0.3305 -0.1891
  190MOL0     H25641   0.560   6.465  10.755 -0.1595  0.5607  2.6128
  190MOL0     H25642   0.826   6.468  10.726  0.3640 -2.1263  0.4778
  190MOL0     H25643   0.807   6.386  10.886 -2.4849 -0.5785  0.8345
  190MOL0     H25644   0.708   6.665  10.813  0.5148  1.9973  2.1719
  190MOL0     H25645   0.695   6.577  10.968  1.2321 -0.4897  1.4784
  190MOL0     H25646   1.089   6.701  10.994  1.0768 -1.9666  0.9445
  190MOL0     H25647   0.926   6.031  10.808  2.4626  0.3247  0.5109
  190MOL0     H25648   1.164   5.950  10.801 -0.8975 -1.5813  1.2720
  190MOL0     H25649   1.068   5.818  10.740 -2.8732  1.0197 -1.4070
  190MOL0     H25650   1.222   5.877  10.654  0.4402  0.3659 -1.5563
  191MOL0     O25651   1.685   4.659   7.502  0.6508 -0.9118 -0.3612
  191MOL0     C25652   1.680   4.547   7.550  0.7650 -0.1411 -0.4795
  191MOL0     O25653   1.564   4.478   7.573 -0.2672 -1.0500 -0.7158
  191MOL0     C25654   1.443   4.538   7.576  0.1292  0.6177  0.1389
  191MOL0     C25655   1.405   4.669   7.582  0.0564  0.0700  0.2015
  191MOL0     C25656   1.266   4.709   7.582 -0.2866 -0.7858 -0.4887
  191MOL0     C25657   1.167   4.615   7.594  0.6700 -0.2649 -0.2739
  191MOL0     O25658   1.031   4.653   7.619 -0.2248  0.3434 -0.0996
  191MOL0     C25659   1.005   4.769   7.695  0.3996 -0.2915  0.3026
  191MOL0     C25660   1.072   4.777   7.832  0.6185  0.4992  0.2897
  191MOL0     C25661   1.024   4.887   7.914  1.3345  0.5160  1.1677
  191MOL0     C25662   1.091   4.908   8.047 -0.2778 -0.2105 -0.6436
  191MOL0     C25663   1.063   5.052   8.097 -0.7924  0.7178 -1.0480
  191MOL0     C25664   0.933   5.070   8.167 -0.4472  0.5670 -0.0470
  191MOL0     C25665   0.919   5.202   8.236  0.2322  0.6569  0.1426
  191MOL0     C25666   0.773   5.224   8.272 -1.0401  0.3981 -0.6098
  191MOL0     N25667   0.763   5.266   8.411  1.4387  0.3129 -0.0462
  191MOL0     C25668   0.776   5.394   8.459  0.5569  0.4368  0.1727
  191MOL0     C25669   0.749   5.386   8.592  0.0212 -0.7606  1.0238
  191MOL0     C25670   0.757   5.500   8.678 -0.1954 -0.9269  0.6556
  191MOL0     C25671   0.651   5.615   8.659 -0.3266 -0.0623 -0.1174
  191MOL0     C25672   0.508   5.557   8.693 -0.2339 -0.0532  0.4915
  191MOL0     C25673   0.410   5.658   8.661  0.4327 -0.8138 -0.0572
  191MOL0     O25674   0.403   5.703   8.529  1.2104  0.2784 -0.1082
  191MOL0     C25675   0.299   5.794   8.509 -0.1578  0.2578  0.3306
  191MOL0     C25676   0.284   5.910   8.580  0.2024  1.0057  0.0562
  191MOL0     C25677   0.179   5.994   8.567 -0.0397  0.4436  0.2532
  191MOL0     C25678   0.083   5.972   8.471 -0.2511  0.3949  0.4146
  191MOL0     C25679  -0.032   6.052   8.442 -0.2180 -0.3810  0.0013
  191MOL0     O25680  -0.099   6.020   8.331 -0.3670 -1.0286 -0.4806
  191MOL0     C25681  -0.182   6.112   8.264 -0.2750 -0.0324  0.1129
  191MOL0     C25682  -0.294   6.043   8.202  0.7476  0.5862 -0.1760
  191MOL0     C25683  -0.393   6.111   8.134 -0.8843  0.5721 -0.0815
  191MOL0     C25684  -0.384   6.241   8.102  0.1739 -0.1011  0.0350
  191MOL0     O25685  -0.480   6.296   8.034 -0.5497 -0.8326 -0.2653
  191MOL0     C25686  -0.477   6.434   8.007  0.5406  0.5746  0.8504
  191MOL0     C25687  -0.621   6.477   7.952 -0.4487  0.0150 -0.9415
  191MOL0     C25688  -0.654   6.412   7.811 -0.1559  0.3932  0.1245
  191MOL0     C25689  -0.801   6.405   7.807  0.8987  0.9031 -0.5903
  191MOL0     C25690  -0.859   6.294   7.714 -0.8195 -0.5439  0.7524
  191MOL0     C25691  -0.833   6.152   7.767 -1.1073  0.7354 -0.4385
  191MOL0     C25692  -0.889   6.048   7.671 -0.0555  0.9904 -0.6044
  191MOL0     C25693  -0.838   5.904   7.685 -0.0883 -0.4529 -0.1836
  191MOL0    Cl25694  -0.935   5.812   7.569 -0.0632  0.3595 -0.7453
  191MOL0     C25695  -0.269   6.307   8.155  0.5088 -0.1535  0.2823
  191MOL0     C25696  -0.171   6.254   8.244  0.3525 -0.1910  0.6468
  191MOL0     O25697  -0.052   6.148   8.524  0.2699  0.2806  0.6970
  191MOL0     C25698   0.091   5.848   8.402  0.6528  1.2271 -1.1164
  191MOL0     C25699   0.191   5.754   8.437 -0.3772  0.1549 -0.0967
  191MOL0     N25700   0.706   5.254   8.615 -0.7926 -0.1692  0.0064
  191MOL0     N25701   0.718   5.185   8.510  0.0219 -0.7704  0.0138
  191MOL0     C25702   1.197   4.479   7.582 -1.1105 -0.3472 -0.1677
  191MOL0     C25703   1.333   4.444   7.567 -0.0358 -0.6795  0.5443
  191MOL0     C25704   1.790   4.470   7.604  0.6680 -0.3435 -0.4328
  191MOL0     C25705   1.775   4.329   7.638  0.1843 -0.6750 -0.6352
  191MOL0     C25706   1.877   4.254   7.697 -0.1101 -0.4652  0.3124
  191MOL0     C25707   2.007   4.303   7.706 -0.2187  1.2646 -0.9625
  191MOL0     O25708   2.115   4.223   7.757  0.2099 -0.2102 -0.3044
  191MOL0     C25709   2.248   4.278   7.741  0.0181  0.3149  0.8336
  191MOL0     C25710   2.300   4.379   7.842 -0.0164  0.3616  0.3308
  191MOL0     C25711   2.277   4.347   7.986 -0.2894 -0.3752 -0.0919
  191MOL0     C25712   2.136   4.386   8.026  0.7071  1.1469 -0.0275
  191MOL0     C25713   2.117   4.526   8.032 -0.0244 -0.3736  0.1319
  191MOL0     C25714   2.113   4.650   8.034 -0.5244  0.4317 -0.0675
  191MOL0     C25715   2.021   4.440   7.680  0.1140 -0.1492  0.1135
  191MOL0     C25716   1.917   4.525   7.634  0.0323 -0.3494  0.2788
  191MOL0     C25717   1.944   4.674   7.628 -0.4533 -1.2573 -0.9422
  191MOL0     H25718   1.477   4.749   7.575 -0.1109  0.2091  0.0421
  191MOL0     H25719   1.243   4.814   7.564 -0.6960 -0.9735 -1.0703
  191MOL0     H25720   1.029   4.860   7.640  4.0140  0.0196  2.1356
  191MOL0     H25721   0.895   4.767   7.696  0.1467 -2.6349 -4.4863
  191MOL0     H25722   1.180   4.791   7.819  0.2716  1.2131 -2.3487
  191MOL0     H25723   1.055   4.684   7.888  1.5559 -0.2707 -0.6571
  191MOL0     H25724   0.917   4.877   7.933  1.3300  0.1887  0.9607
  191MOL0     H25725   1.048   4.975   7.854  2.2668 -2.0463 -2.5435
  191MOL0     H25726   1.052   4.831   8.114  1.7133  0.3973  1.3775
  191MOL0     H25727   1.199   4.896   8.034 -0.2228 -1.2608  0.5723
  191MOL0     H25728   1.133   5.057   8.181  1.2061 -2.9872 -2.2666
  191MOL0     H25729   1.088   5.140   8.037 -1.7495  1.4534 -0.3974
  191MOL0     H25730   0.858   5.047   8.091 -2.7996 -2.3173  2.8545
  191MOL0     H25731   0.927   4.987   8.238  0.1945  0.1856 -0.4211
  191MOL0     H25732   0.954   5.286   8.175  0.8685 -0.0254 -0.4462
  191MOL0     H25733   0.980   5.195   8.327 -1.3526 -3.6440  1.1044
  191MOL0     H25734   0.735   5.309   8.216  0.2578  0.5291 -1.3185
  191MOL0     H25735   0.717   5.137   8.236 -0.4875 -0.0899 -0.3230
  191MOL0     H25736   0.809   5.481   8.403 -0.4706  2.0594  1.9415
  191MOL0     H25737   0.758   5.473   8.784  0.6915  0.3015  0.9828
  191MOL0     H25738   0.853   5.552   8.667 -1.8338  2.1147 -0.4804
  191MOL0     H25739   0.684   5.695   8.725 -1.9001 -0.4309  1.1819
  191MOL0     H25740   0.662   5.656   8.558  2.8820  2.3780  1.0637
  191MOL0     H25741   0.507   5.522   8.796  0.3606 -1.3860  0.0593
  191MOL0     H25742   0.495   5.480   8.616  1.0473  3.6680 -3.9323
  191MOL0     H25743   0.441   5.751   8.710  1.4764 -0.6003 -1.0916
  191MOL0     H25744   0.310   5.626   8.692  0.5724  0.4498  1.8890
  191MOL0     H25745   0.361   5.932   8.654 -1.0033 -0.9734  2.0179
  191MOL0     H25746   0.170   6.082   8.630  2.8575  2.0820 -1.4240
  191MOL0     H25747  -0.295   5.936   8.218  2.8742  0.5290 -0.1631
  191MOL0     H25748  -0.469   6.051   8.085  0.8680 -2.9371  1.1842
  191MOL0     H25749  -0.447   6.494   8.093 -2.5217 -0.4471  2.8091
  191MOL0     H25750  -0.403   6.455   7.930 -1.6589 -3.3769 -2.7639
  191MOL0     H25751  -0.697   6.448   8.024 -1.5889  1.9614 -1.2814
  191MOL0     H25752  -0.626   6.587   7.951  0.8902  0.2651  3.2164
  191MOL0     H25753  -0.630   6.486   7.735  0.2240  1.5081  1.2994
  191MOL0     H25754  -0.597   6.320   7.794  2.0186  1.6937  0.1211
  191MOL0     H25755  -0.844   6.504   7.789  1.7968  1.4373  0.1420
  191MOL0     H25756  -0.847   6.385   7.904  3.0567  0.1043  0.3252
  191MOL0     H25757  -0.813   6.306   7.615  0.5657  0.3603  1.4716
  191MOL0     H25758  -0.968   6.297   7.713 -0.8395 -0.6174  1.9720
  191MOL0     H25759  -0.726   6.136   7.755 -0.5052  2.0340  2.2683
  191MOL0     H25760  -0.855   6.140   7.874  0.5349  1.4715  0.0219
  191MOL0     H25761  -0.869   6.086   7.571 -1.3604  3.4253 -0.0248
  191MOL0     H25762  -0.997   6.035   7.665  0.0687 -0.4117 -0.1708
  191MOL0     H25763  -0.733   5.892   7.654  0.0745  1.0818 -0.3185
  191MOL0     H25764  -0.854   5.871   7.788  3.1157  0.9975  0.9075
  191MOL0     H25765  -0.256   6.413   8.134 -2.1914  0.7787  2.7192
  191MOL0     H25766  -0.099   6.328   8.280 -2.2761  3.6665 -1.2506
  191MOL0     H25767   0.017   5.804   8.336  2.2237 -3.5669 -0.1344
  191MOL0     H25768   0.186   5.652   8.399  4.1874 -0.3824  0.2119
  191MOL0     H25769   1.126   4.397   7.577  1.5678 -2.8064 -0.4948
  191MOL0     H25770   1.354   4.338   7.559  0.8400 -0.3597 -3.5467
  191MOL0     H25771   1.685   4.275   7.611 -0.2177  1.0933 -3.1599
  191MOL0     H25772   1.870   4.151   7.730  0.1295 -0.3919  0.6044
  191MOL0     H25773   2.276   4.314   7.641  0.3329  3.9401  2.0610
  191MOL0     H25774   2.299   4.182   7.750 -3.9772 -2.3244 -1.6393
  191MOL0     H25775   2.271   4.479   7.808  1.5325  0.8433  0.3234
  191MOL0     H25776   2.409   4.382   7.835 -0.1307  1.8487 -2.3414
  191MOL0     H25777   2.351   4.410   8.037  0.6012 -0.8104 -0.8099
  191MOL0     H25778   2.288   4.239   7.998 -1.7335 -0.6328 -0.8802
  191MOL0     H25779   2.058   4.350   7.958 -1.1294  1.9296  1.5534
  191MOL0     H25780   2.109   4.329   8.116 -1.5882  1.9677 -0.1339
  191MOL0     H25781   2.086   4.750   8.005 -0.1951 -0.0568 -2.2824
  191MOL0     H25782   2.121   4.481   7.694  0.6380 -1.4423  0.2410
  191MOL0     H25783   1.929   4.708   7.525  0.6651  4.8462  0.4976
  191MOL0     H25784   1.864   4.718   7.689  0.2364 -2.2118  0.6906
  191MOL0     H25785   2.045   4.698   7.661 -0.3732  0.6018 -2.3499
  192MOL0     O25786  10.186   5.801   8.018  0.2274  0.4373  0.1013
  192MOL0     C25787  10.271   5.894   8.018  0.0638 -0.1892 -0.7799
  192MOL0     O25788  10.246   6.025   8.005 -0.9360 -0.0671 -0.5860
  192MOL0     C25789  10.118   6.071   8.020 -0.3865  0.5743  0.7617
  192MOL0     C25790  10.072   6.132   8.136  0.3073  0.5950  0.2670
  192MOL0     C25791   9.933   6.162   8.143  0.6174  0.2676  0.6464
  192MOL0     C25792   9.851   6.154   8.030  0.4440 -0.8929  0.9102
  192MOL0     O25793   9.723   6.203   8.024 -0.4144 -0.8410  0.1945
  192MOL0     C25794   9.650   6.201   8.148 -0.5915 -0.0716 -0.0844
  192MOL0     C25795   9.497   6.225   8.137 -0.0456 -0.0486  0.1578
  192MOL0     C25796   9.465   6.348   8.050  0.0276 -0.3903 -0.0582
  192MOL0     C25797   9.311   6.366   8.041 -0.7653 -0.1484 -0.9505
  192MOL0     C25798   9.270   6.459   7.929  0.2101  0.9257 -0.0636
  192MOL0     C25799   9.121   6.450   7.902  0.1253  0.0831 -0.1216
  192MOL0     C25800   9.079   6.540   7.781 -0.3434  0.2295  1.1122
  192MOL0     C25801   8.936   6.522   7.743  0.7532 -0.1193  0.2542
  192MOL0     N25802   8.894   6.611   7.635 -0.5120  0.2825 -0.3886
  192MOL0     C25803   8.899   6.745   7.630 -0.9792  0.4263  0.1206
  192MOL0     C25804   8.873   6.776   7.503  0.8801  0.6655  0.1499
  192MOL0     C25805   8.903   6.908   7.433  0.3942  0.4244 -0.2687
  192MOL0     C25806   8.788   6.973   7.354  0.0289 -1.0189  0.0712
  192MOL0     C25807   8.825   7.097   7.269  0.4540  0.3756  0.5554
  192MOL0     C25808   8.714   7.125   7.165 -0.2498 -0.1051 -0.5729
  192MOL0     O25809   8.588   7.139   7.227 -0.1838  0.1125  0.5971
  192MOL0     C25810   8.484   7.067   7.165 -0.3854 -0.8398 -0.1804
  192MOL0     C25811   8.386   7.001   7.236 -0.5213  0.6608 -0.5166
  192MOL0     C25812   8.276   6.954   7.172  0.6391  0.1994  0.4684
  192MOL0     C25813   8.254   6.967   7.029 -0.2412  0.9031  0.5159
  192MOL0     C25814   8.137   6.902   6.962  0.6549 -0.6416  0.0001
  192MOL0     O25815   8.058   6.821   7.043 -0.4703 -0.6579  0.8356
  192MOL0     C25816   7.942   6.774   6.989  0.5611  0.8463 -1.2090
  192MOL0     C25817   7.821   6.801   7.048 -0.1649  0.2207  0.1143
  192MOL0     C25818   7.707   6.724   7.002 -0.1932 -0.4763  0.7636
  192MOL0     C25819   7.705   6.636   6.895  0.3200  0.4383 -0.9886
  192MOL0     O25820   7.586   6.572   6.860 -0.7444 -0.1747  0.4898
  192MOL0     C25821   7.597   6.432   6.835 -0.2732 -0.1536 -0.0892
  192MOL0     C25822   7.469   6.357   6.866  0.9402 -0.6452  0.4803
  192MOL0     C25823   7.497   6.214   6.883  0.9984 -0.0317 -0.0987
  192MOL0     C25824   7.514   6.141   6.754  0.3003  0.4166  0.1322
  192MOL0     C25825   7.507   5.987   6.771  0.8041  0.3038 -0.3839
  192MOL0     C25826   7.382   5.934   6.843 -0.0424  0.2677 -0.1314
  192MOL0     C25827   7.378   5.785   6.854  0.2964 -0.8631  0.4282
  192MOL0     C25828   7.504   5.730   6.922  0.2634 -0.2206 -1.2432
  192MOL0    Cl25829   7.614   5.642   6.807 -0.0118 -0.0481  0.1049
  192MOL0     C25830   7.825   6.629   6.824 -0.2205 -0.5625 -0.2579
  192MOL0     C25831   7.942   6.690   6.886  0.7206 -0.1272  0.0610
  192MOL0     O25832   8.115   6.938   6.841  0.2613  0.0255 -0.3103
  192MOL0     C25833   8.357   7.034   6.958  0.0245 -0.3794  0.4587
  192MOL0     C25834   8.462   7.084   7.029  0.0646  0.1651 -0.2815
  192MOL0     N25835   8.833   6.658   7.438 -0.0202  0.1933  0.5995
  192MOL0     N25836   8.855   6.568   7.517 -0.3222 -0.0761  0.5249
  192MOL0     C25837   9.902   6.110   7.916  0.2611  0.1310 -0.1546
  192MOL0     C25838  10.029   6.053   7.910 -1.1700 -0.9309 -0.5324
  192MOL0     C25839  10.410   5.850   8.044 -0.6318  0.3069  1.0565
  192MOL0     C25840  10.447   5.716   7.997  0.6410 -0.4938  0.1069
  192MOL0     C25841  10.580   5.669   7.996 -0.2708 -0.0217  0.4131
  192MOL0     C25842  10.680   5.750   8.036  0.6942  0.1032 -0.1377
  192MOL0     O25843  10.806   5.697   8.027  0.0396 -0.7967  0.4178
  192MOL0     C25844  10.918   5.786   8.050 -0.7310  0.3435 -0.1234
  192MOL0     C25845  11.039   5.743   7.978  0.1021 -0.1031  0.2195
  192MOL0     C25846  11.093   5.622   8.040  0.8259 -0.0923 -0.1786
  192MOL0     C25847  11.211   5.562   7.964  0.0135  0.3131  0.2204
  192MOL0     C25848  11.339   5.599   8.015 -0.4750  1.3791 -0.0145
  192MOL0     C25849  11.454   5.618   8.062  0.7343  0.3260  0.5737
  192MOL0     C25850  10.650   5.878   8.085 -0.0664  0.0942  0.2985
  192MOL0     C25851  10.523   5.933   8.092  0.6707 -0.6732 -0.0527
  192MOL0     C25852  10.515   6.074   8.149  0.0580  0.3887  0.2642
  192MOL0     H25853  10.145   6.138   8.216 -0.2916  0.7639  0.8141
  192MOL0     H25854   9.895   6.204   8.236 -2.5097  1.3302 -0.9712
  192MOL0     H25855   9.659   6.105   8.200 -1.0741  1.4722  3.0663
  192MOL0     H25856   9.701   6.276   8.210  0.3123  0.9457 -1.9841
  192MOL0     H25857   9.467   6.232   8.242  2.9884 -1.4142  1.2458
  192MOL0     H25858   9.453   6.131   8.103 -0.7187  0.2713  0.1436
  192MOL0     H25859   9.501   6.323   7.950 -0.8643  0.0445 -0.4922
  192MOL0     H25860   9.518   6.441   8.074 -1.3655  0.2238  0.7413
  192MOL0     H25861   9.269   6.268   8.018 -1.1950 -0.9885  2.8787
  192MOL0     H25862   9.275   6.397   8.139 -0.5095  1.0392 -1.2061
  192MOL0     H25863   9.293   6.565   7.946  1.8408  1.4017 -4.0880
  192MOL0     H25864   9.318   6.432   7.835 -3.3574  2.4888 -2.5314
  192MOL0     H25865   9.097   6.346   7.876 -1.1577 -0.3321  2.4700
  192MOL0     H25866   9.062   6.469   7.992  0.9474  2.8193 -0.0747
  192MOL0     H25867   9.141   6.533   7.691 -0.3959 -2.2362  1.2016
  192MOL0     H25868   9.108   6.637   7.822  0.2183 -0.7597  3.1981
  192MOL0     H25869   8.909   6.418   7.723  0.3483  0.1474 -0.6631
  192MOL0     H25870   8.876   6.552   7.829  2.7726 -0.1276  1.7161
  192MOL0     H25871   8.925   6.814   7.710 -1.8215  1.7547 -0.6993
  192MOL0     H25872   8.937   6.978   7.511  3.1230 -1.6812  0.5903
  192MOL0     H25873   8.992   6.897   7.370  0.4977 -0.1386 -0.0296
  192MOL0     H25874   8.750   6.891   7.292 -0.5815 -0.0812 -0.8231
  192MOL0     H25875   8.702   7.000   7.417 -0.3413 -0.2648 -0.7359
  192MOL0     H25876   8.921   7.084   7.217  0.5265  3.1459 -0.1807
  192MOL0     H25877   8.835   7.186   7.331 -0.5759  1.9441 -1.4178
  192MOL0     H25878   8.728   7.037   7.102 -0.8163 -3.0186  3.0161
  192MOL0     H25879   8.745   7.220   7.121 -0.2793  1.2758  2.1392
  192MOL0     H25880   8.404   6.975   7.340 -0.1253  2.5898 -0.0537
  192MOL0     H25881   8.200   6.912   7.237 -0.6116  0.5206 -0.7232
  192MOL0     H25882   7.808   6.859   7.139  1.9855  1.6523 -0.4439
  192MOL0     H25883   7.611   6.751   7.045 -1.4920 -1.6128 -1.2710
  192MOL0     H25884   7.624   6.408   6.731  0.9168 -0.5414  0.2958
  192MOL0     H25885   7.679   6.391   6.895  0.7505  3.0427  0.9219
  192MOL0     H25886   7.426   6.404   6.955 -0.3706 -0.6505 -0.1379
  192MOL0     H25887   7.394   6.372   6.788  0.5694 -0.5343  0.8556
  192MOL0     H25888   7.583   6.191   6.947  1.8579  0.8350 -0.9060
  192MOL0     H25889   7.409   6.178   6.936  0.4764  3.2694  1.5838
  192MOL0     H25890   7.607   6.171   6.705  0.2494  1.4618  0.6412
  192MOL0     H25891   7.443   6.189   6.686  2.2869  1.1273 -1.5666
  192MOL0     H25892   7.603   5.948   6.805  0.2649 -1.2958 -0.5737
  192MOL0     H25893   7.494   5.944   6.671 -2.6550  4.7571 -2.1933
  192MOL0     H25894   7.353   5.976   6.940  1.5030  1.7427 -0.2533
  192MOL0     H25895   7.290   5.957   6.788 -0.1201  0.7000  0.1732
  192MOL0     H25896   7.360   5.737   6.757  1.1483 -0.6471  0.1562
  192MOL0     H25897   7.299   5.765   6.927  0.4865  0.0960  0.9119
  192MOL0     H25898   7.555   5.807   6.980  0.6370 -0.0458 -1.7990
  192MOL0     H25899   7.475   5.655   6.996 -1.2483  1.0831 -0.4372
  192MOL0     H25900   7.826   6.580   6.727 -0.1417 -3.2269  1.0071
  192MOL0     H25901   8.039   6.681   6.838 -0.9131 -1.0927 -3.3568
  192MOL0     H25902   8.348   7.039   6.850 -1.8166 -3.6790  0.3082
  192MOL0     H25903   8.543   7.135   6.977  0.3569  0.8061  0.7652
  192MOL0     H25904   9.820   6.084   7.849 -0.3232 -3.0051  1.6126
  192MOL0     H25905  10.071   6.008   7.821  0.6939  2.5227 -1.5695
  192MOL0     H25906  10.369   5.655   7.952  1.5009 -1.0542 -0.6521
  192MOL0     H25907  10.610   5.566   7.980  0.8382  0.6615 -2.4700
  192MOL0     H25908  10.935   5.771   8.157  0.4093 -3.4817 -0.6967
  192MOL0     H25909  10.897   5.888   8.016 -0.6236  0.6776  0.7737
  192MOL0     H25910  11.121   5.816   7.978  0.0263  0.0308  2.2389
  192MOL0     H25911  11.005   5.731   7.875 -4.3652  4.5066  0.7450
  192MOL0     H25912  11.009   5.551   8.045 -0.1536  0.8134 -2.6331
  192MOL0     H25913  11.117   5.637   8.146 -1.1381  0.4009  0.2478
  192MOL0     H25914  11.198   5.453   7.963 -3.0041  0.5611 -1.7458
  192MOL0     H25915  11.194   5.592   7.860 -0.3826 -1.1539 -0.1743
  192MOL0     H25916  11.553   5.648   8.091  1.2835 -0.0059 -0.8941
  192MOL0     H25917  10.733   5.938   8.123 -1.5124  2.1033  0.4628
  192MOL0     H25918  10.576   6.142   8.090  2.0004 -0.3841  1.2967
  192MOL0     H25919  10.411   6.107   8.139 -0.8915 -2.2742  0.5771
  192MOL0     H25920  10.544   6.063   8.254 -2.1908  0.6867  0.9746
  193MOL0     O25921   9.777   4.766   9.084 -0.3765  0.3173 -0.1555
  193MOL0     C25922   9.897   4.794   9.075 -0.3532  0.2626  0.3501
  193MOL0     O25923   9.948   4.918   9.098  0.1198 -0.6794 -1.0055
  193MOL0     C25924   9.869   5.037   9.096 -0.3652 -0.3096  0.1735
  193MOL0     C25925   9.955   5.145   9.089 -0.5542 -0.1883 -0.1394
  193MOL0     C25926   9.891   5.268   9.085 -0.5154 -0.9278  0.5478
  193MOL0     C25927   9.757   5.296   9.082 -0.4998 -0.0072  0.1896
  193MOL0     O25928   9.721   5.428   9.074 -0.1492  0.5253  0.4562
  193MOL0     C25929   9.583   5.464   9.111 -0.7835 -0.0512  0.2893
  193MOL0     C25930   9.575   5.619   9.082 -0.1282 -0.3291 -0.9578
  193MOL0     C25931   9.541   5.663   8.935  0.2871  0.4410  0.3280
  193MOL0     C25932   9.597   5.558   8.824  0.4540  0.1744  1.1230
  193MOL0     C25933   9.556   5.584   8.676  0.4919  0.9263  0.8339
  193MOL0     C25934   9.410   5.595   8.638 -0.7366 -0.9877  1.0777
  193MOL0     C25935   9.389   5.611   8.481 -0.7810  0.1434  0.0866
  193MOL0     C25936   9.246   5.632   8.430  0.0781  0.1953 -0.4060
  193MOL0     N25937   9.163   5.513   8.469 -0.6544  0.8786 -0.1377
  193MOL0     C25938   9.036   5.517   8.515 -0.5242 -0.8005  1.0610
  193MOL0     C25939   8.996   5.386   8.534 -0.6709 -0.0827  1.1135
  193MOL0     C25940   8.857   5.338   8.566  0.7178  0.6504 -0.0340
  193MOL0     C25941   8.861   5.234   8.686  1.3020 -1.0079 -0.3871
  193MOL0     C25942   8.759   5.264   8.801 -0.1332 -0.5212  0.5297
  193MOL0     C25943   8.817   5.215   8.933 -0.2605 -0.3272 -0.6739
  193MOL0     O25944   8.743   5.272   9.041 -0.0731 -0.3612  0.4961
  193MOL0     C25945   8.784   5.246   9.171 -0.1092  0.8825 -0.0608
  193MOL0     C25946   8.901   5.171   9.207 -0.6632  0.1797  0.4401
  193MOL0     C25947   8.924   5.128   9.337  0.0890  0.3652 -0.8698
  193MOL0     C25948   8.830   5.160   9.438 -0.1158 -0.3658  1.2987
  193MOL0     C25949   8.853   5.130   9.572  0.4395 -0.3315  0.0379
  193MOL0     O25950   8.800   5.214   9.671 -0.6955 -0.3689  0.4383
  193MOL0     C25951   8.835   5.165   9.797 -0.6002 -0.3678 -0.4239
  193MOL0     C25952   8.960   5.195   9.849  0.0700  0.2635 -0.6796
  193MOL0     C25953   8.996   5.134   9.969 -0.1015  0.6442  0.4044
  193MOL0     C25954   8.901   5.053  10.036  0.2890 -0.4476  0.2461
  193MOL0     O25955   8.943   4.973  10.139  0.2976  0.5568 -0.5188
  193MOL0     C25956   9.035   5.022  10.231 -0.6152  0.0164 -0.3476
  193MOL0     C25957   9.042   4.933  10.354  0.0178  0.6076 -0.2068
  193MOL0     C25958   8.912   4.948  10.438 -0.7976 -0.2827  0.2580
  193MOL0     C25959   8.904   5.065  10.538  0.3905 -0.2904 -0.5206
  193MOL0     C25960   8.796   5.035  10.648 -0.1018 -0.5497  0.7406
  193MOL0     C25961   8.789   5.137  10.771 -0.0928  0.4945  0.8345
  193MOL0     C25962   8.686   5.105  10.876 -0.1285  0.9506 -0.9677
  193MOL0     C25963   8.713   5.173  11.009  0.6809 -1.0065  0.5380
  193MOL0    Cl25964   8.878   5.153  11.058 -0.4397 -0.2202  0.1000
  193MOL0     C25965   8.770   5.035   9.986  0.5931  0.6433  0.6133
  193MOL0     C25966   8.736   5.096   9.866 -0.8814 -0.4834  0.5475
  193MOL0     O25967   8.927   5.041   9.599  0.0506  0.2943 -0.0948
  193MOL0     C25968   8.717   5.245   9.404 -0.6404  0.0184  0.2683
  193MOL0     C25969   8.697   5.284   9.274  0.0964 -0.2026 -0.9265
  193MOL0     N25970   9.107   5.308   8.483 -1.0267  0.0839 -0.1165
  193MOL0     N25971   9.198   5.382   8.446 -0.8135 -0.3727 -0.2508
  193MOL0     C25972   9.677   5.182   9.068  0.0153 -0.1346 -0.0916
  193MOL0     C25973   9.726   5.053   9.080  0.4492  0.7383  0.0624
  193MOL0     C25974   9.985   4.674   9.049  0.6003 -0.4166  0.1022
  193MOL0     C25975   9.925   4.544   9.075  0.5730  0.8372 -0.6665
  193MOL0     C25976   9.997   4.426   9.056 -0.8511  0.3757  1.1964
  193MOL0     C25977  10.134   4.429   9.025  0.1262  0.1152 -1.2625
  193MOL0     O25978  10.218   4.321   9.027  0.1679  1.0234  0.2282
  193MOL0     C25979  10.166   4.193   9.002  0.1840 -0.7061  0.0166
  193MOL0     C25980  10.140   4.159   8.855 -0.0776 -0.1973  0.7248
  193MOL0     C25981  10.147   4.006   8.821  0.1808 -0.5674 -0.4010
  193MOL0     C25982  10.289   3.957   8.819 -0.6659  1.0038 -0.0627
  193MOL0     C25983  10.355   3.920   8.949 -0.2689  0.3308  0.5125
  193MOL0     C25984  10.400   3.887   9.055 -0.2019  0.3044 -0.1310
  193MOL0     C25985  10.187   4.557   9.010  1.0322 -0.4332 -0.1673
  193MOL0     C25986  10.117   4.685   9.015  0.2735 -0.3567  0.1410
  193MOL0     C25987  10.192   4.808   8.979 -0.6546 -1.4149  0.7814
  193MOL0     H25988  10.063   5.151   9.100 -0.3892 -0.3617 -1.5682
  193MOL0     H25989   9.948   5.359   9.102 -0.2850 -0.8023 -0.7653
  193MOL0     H25990   9.517   5.408   9.045 -0.6754  1.2082 -0.9329
  193MOL0     H25991   9.556   5.450   9.217 -1.7240 -1.1053 -0.0689
  193MOL0     H25992   9.676   5.654   9.107  0.7056 -2.8527 -0.4623
  193MOL0     H25993   9.501   5.671   9.144  2.6325  1.7578  0.8536
  193MOL0     H25994   9.575   5.760   8.898 -0.7495  0.3759 -0.8113
  193MOL0     H25995   9.432   5.669   8.929  0.2899  1.5722  0.9814
  193MOL0     H25996   9.706   5.565   8.835  0.6168 -1.5135  0.8994
  193MOL0     H25997   9.571   5.457   8.858  0.0744 -0.0945  0.0604
  193MOL0     H25998   9.608   5.674   8.644  0.2801  0.3522 -1.2848
  193MOL0     H25999   9.600   5.508   8.611 -1.8886  0.1453  0.0135
  193MOL0     H26000   9.354   5.509   8.675  0.4564 -1.2085  2.4508
  193MOL0     H26001   9.374   5.680   8.697  1.2151 -0.4078  1.4916
  193MOL0     H26002   9.421   5.517   8.434  0.9247  0.9539 -0.4355
  193MOL0     H26003   9.448   5.696   8.448  2.7468 -1.9343  0.4740
  193MOL0     H26004   9.195   5.722   8.465 -1.6837 -0.3644 -1.4288
  193MOL0     H26005   9.246   5.638   8.321  2.1911 -1.1116 -0.5456
  193MOL0     H26006   8.985   5.610   8.538 -1.4203 -0.1188 -2.8152
  193MOL0     H26007   8.786   5.415   8.596 -1.2543 -0.7681 -0.8211
  193MOL0     H26008   8.809   5.291   8.479 -0.2907  0.2067  0.7423
  193MOL0     H26009   8.850   5.128   8.659  0.3709 -0.2927 -3.1266
  193MOL0     H26010   8.962   5.238   8.728  1.3409  2.6044 -0.5798
  193MOL0     H26011   8.665   5.217   8.772  0.3647  1.5032 -5.7792
  193MOL0     H26012   8.734   5.369   8.816 -1.5978 -0.6044 -1.0580
  193MOL0     H26013   8.915   5.263   8.943  0.4665 -1.2510 -2.8518
  193MOL0     H26014   8.825   5.106   8.930  0.1266 -0.3405  0.4421
  193MOL0     H26015   8.980   5.152   9.135 -0.8608  1.6556 -0.1972
  193MOL0     H26016   9.018   5.077   9.359 -0.7407 -0.2390  1.6983
  193MOL0     H26017   9.018   5.270   9.797 -1.1296  1.5424 -0.2331
  193MOL0     H26018   9.089   5.149  10.023 -0.7007  3.4287  0.7989
  193MOL0     H26019   9.131   5.009  10.179 -0.7032 -0.5751 -0.3656
  193MOL0     H26020   9.024   5.126  10.262 -1.8050 -0.3019  0.3352
  193MOL0     H26021   9.055   4.827  10.331 -0.5812  0.3045  0.7790
  193MOL0     H26022   9.128   4.955  10.419 -0.7966  0.7592  0.8598
  193MOL0     H26023   8.822   4.969  10.380 -1.1123 -1.6170  0.2253
  193MOL0     H26024   8.892   4.853  10.489 -1.2061  0.1723  0.9550
  193MOL0     H26025   8.876   5.155  10.484 -1.5030 -1.8959 -2.3937
  193MOL0     H26026   9.002   5.071  10.586  1.1116 -1.0856 -1.8402
  193MOL0     H26027   8.842   4.945  10.690  2.9370  0.6569  0.2963
  193MOL0     H26028   8.699   5.018  10.601 -0.5045  2.0720  0.4570
  193MOL0     H26029   8.888   5.147  10.817 -0.5350  0.3383  1.8564
  193MOL0     H26030   8.762   5.236  10.735 -0.9397 -0.1421 -0.3395
  193MOL0     H26031   8.681   4.998  10.899 -1.3356  1.6869  2.9150
  193MOL0     H26032   8.586   5.125  10.837 -0.5816 -0.1097 -0.3978
  193MOL0     H26033   8.691   5.279  11.001  2.5216 -0.5013  1.4437
  193MOL0     H26034   8.658   5.128  11.093  0.1032 -2.2756 -0.4919
  193MOL0     H26035   8.707   4.962  10.036  3.0367 -2.0370  0.0337
  193MOL0     H26036   8.645   5.071   9.812 -0.4515 -1.1508  0.1188
  193MOL0     H26037   8.644   5.284   9.474 -2.6000 -0.3987 -1.4401
  193MOL0     H26038   8.619   5.359   9.264 -1.7461 -1.8223  0.4281
  193MOL0     H26039   9.571   5.195   9.047  0.4563  4.9992 -0.4452
  193MOL0     H26040   9.661   4.967   9.078  2.7583 -1.1012 -0.5592
  193MOL0     H26041   9.818   4.528   9.083  0.7378  0.3452  1.0808
  193MOL0     H26042   9.943   4.333   9.069 -1.6835  0.6439 -0.1010
  193MOL0     H26043  10.071   4.166   9.050  0.1950 -1.2568 -0.2584
  193MOL0     H26044  10.241   4.124   9.040  2.9359  3.3887  2.7088
  193MOL0     H26045  10.215   4.210   8.794  0.6287 -1.3682  0.5840
  193MOL0     H26046  10.040   4.193   8.829  0.1961  0.4466  0.5107
  193MOL0     H26047  10.109   3.993   8.720 -1.2893  0.4651 -0.0095
  193MOL0     H26048  10.095   3.944   8.895  1.9846  0.6996  2.1119
  193MOL0     H26049  10.289   3.857   8.774  0.1216  0.7366  0.5103
  193MOL0     H26050  10.355   4.023   8.762 -1.3997  1.4602 -0.3971
  193MOL0     H26051  10.446   3.867   9.149  0.7097 -1.4031 -0.8841
  193MOL0     H26052  10.294   4.567   8.997  1.2348 -0.5287  1.2740
  193MOL0     H26053  10.157   4.860   8.890  0.2056 -2.5719 -0.2592
  193MOL0     H26054  10.197   4.890   9.052  0.8094  1.0877 -1.9281
  193MOL0     H26055  10.297   4.788   8.954 -0.2923  0.8303  0.2770
  194MOL0     O26056   5.773   0.585   9.715 -0.0411 -0.3685 -0.0783
  194MOL0     C26057   5.754   0.667   9.807  0.2695  0.5801  0.3887
  194MOL0     O26058   5.841   0.768   9.846 -0.1754 -0.5331 -0.2675
  194MOL0     C26059   5.942   0.795   9.756  0.1701 -0.0202  0.4070
  194MOL0     C26060   6.030   0.698   9.708  0.2608  0.2655 -0.2372
  194MOL0     C26061   6.119   0.735   9.608 -0.2013 -0.4768 -0.7179
  194MOL0     C26062   6.145   0.861   9.579 -0.3729  0.2477 -0.3146
  194MOL0     O26063   6.240   0.868   9.480  0.1175 -0.1370  0.0204
  194MOL0     C26064   6.254   0.995   9.427 -1.1932 -0.4249 -0.7623
  194MOL0     C26065   6.348   1.009   9.313 -0.1461  0.2268  0.1419
  194MOL0     C26066   6.366   1.156   9.274 -0.4894 -0.1467  0.3246
  194MOL0     C26067   6.232   1.245   9.296 -0.3799 -0.8457 -0.3951
  194MOL0     C26068   6.246   1.376   9.207 -0.4150 -0.3400 -0.5804
  194MOL0     C26069   6.358   1.470   9.244 -0.4085  0.2262 -0.2701
  194MOL0     C26070   6.403   1.559   9.127  0.6386  0.5755 -1.1132
  194MOL0     C26071   6.294   1.660   9.098 -0.0129 -0.1950  1.2788
  194MOL0     N26072   6.286   1.755   9.210 -0.1514  0.2713  0.2758
  194MOL0     C26073   6.181   1.768   9.303 -0.1427  0.2291 -0.2106
  194MOL0     C26074   6.210   1.865   9.391 -1.3465  0.0533  0.1796
  194MOL0     C26075   6.132   1.928   9.495 -0.0897 -0.6406 -0.2265
  194MOL0     C26076   6.053   1.834   9.595  0.6639  0.2228  0.0492
  194MOL0     C26077   5.913   1.902   9.634 -0.0916  0.4835  0.0553
  194MOL0     C26078   5.930   2.049   9.682 -0.6463 -0.4140  0.4354
  194MOL0     O26079   5.810   2.119   9.715 -0.1032 -0.1593 -0.0295
  194MOL0     C26080   5.742   2.176   9.607  0.0404 -0.2810  0.1536
  194MOL0     C26081   5.649   2.269   9.642  0.8945 -0.5502  0.1121
  194MOL0     C26082   5.573   2.349   9.553 -0.6717 -0.0114  0.4198
  194MOL0     C26083   5.576   2.308   9.417  0.4400  0.8380 -0.3602
  194MOL0     C26084   5.490   2.373   9.320 -1.5876 -0.0892 -0.2700
  194MOL0     O26085   5.450   2.502   9.352 -0.1687 -0.2123  1.2950
  194MOL0     C26086   5.407   2.598   9.263  0.0471 -0.3264 -0.4638
  194MOL0     C26087   5.477   2.647   9.155 -0.0281  0.2708  0.3397
  194MOL0     C26088   5.422   2.746   9.067 -0.2058 -0.5717  0.4310
  194MOL0     C26089   5.296   2.801   9.100 -1.2687 -0.0061  0.2196
  194MOL0     O26090   5.235   2.889   9.020  0.2157  0.1323 -1.6112
  194MOL0     C26091   5.286   2.921   8.888 -0.1582  0.7134 -0.0485
  194MOL0     C26092   5.171   2.993   8.810 -0.4602 -0.1991  0.4500
  194MOL0     C26093   5.132   3.125   8.865 -0.7110 -0.0684  0.7441
  194MOL0     C26094   5.247   3.227   8.834  0.3638 -0.5705 -0.0041
  194MOL0     C26095   5.188   3.377   8.807 -0.0120 -0.6304 -0.6561
  194MOL0     C26096   5.087   3.412   8.911 -0.2511 -0.9128  1.5773
  194MOL0     C26097   5.062   3.565   8.908 -0.6488 -0.3681  0.0207
  194MOL0     C26098   4.921   3.607   8.962  0.2892  0.5923 -0.5606
  194MOL0    Cl26099   4.936   3.626   9.133 -0.5946  0.4162 -0.3125
  194MOL0     C26100   5.238   2.778   9.226 -0.1262  0.4242 -0.2063
  194MOL0     C26101   5.297   2.676   9.306 -0.0338  0.4927  0.1692
  194MOL0     O26102   5.475   2.325   9.212  0.4083 -0.8607 -0.1406
  194MOL0     C26103   5.670   2.209   9.369 -0.6975  0.0085  0.0034
  194MOL0     C26104   5.758   2.155   9.466  0.2951 -0.4103  0.2469
  194MOL0     N26105   6.331   1.915   9.340  0.2169 -0.3091  0.2203
  194MOL0     N26106   6.375   1.849   9.240 -1.3071 -0.0843 -0.4661
  194MOL0     C26107   6.070   0.966   9.640  0.0356  0.2114 -0.5882
  194MOL0     C26108   5.961   0.927   9.720  1.0170 -1.9280 -0.8099
  194MOL0     C26109   5.629   0.681   9.879  0.2889 -0.2287  0.1927
  194MOL0     C26110   5.600   0.809   9.947 -0.2251 -0.5035  0.7416
  194MOL0     C26111   5.474   0.824  10.014  0.3405  0.0389  0.0844
  194MOL0     C26112   5.389   0.719  10.019 -0.5291 -0.4082  1.1378
  194MOL0     O26113   5.268   0.754  10.087 -0.1193 -0.1116  0.2850
  194MOL0     C26114   5.186   0.652  10.149  0.1437 -0.2384  0.0103
  194MOL0     C26115   5.030   0.672  10.155 -0.0673 -0.6191  0.3000
  194MOL0     C26116   4.976   0.612  10.022 -0.2349  0.1659 -0.1146
  194MOL0     C26117   4.824   0.590  10.016 -0.0410 -0.5581  0.1431
  194MOL0     C26118   4.791   0.458  10.081 -0.1111 -1.1294  0.3843
  194MOL0     C26119   4.752   0.371  10.148 -0.0384 -0.2016  0.1480
  194MOL0     C26120   5.409   0.601   9.943  0.0534  0.5309 -0.4296
  194MOL0     C26121   5.524   0.583   9.872 -0.3660  0.1614 -0.1518
  194MOL0     C26122   5.545   0.432   9.822 -0.1234 -0.6591 -0.4563
  194MOL0     H26123   6.010   0.593   9.725  1.0542  0.2766  0.8692
  194MOL0     H26124   6.170   0.654   9.557  0.0135 -0.4237 -0.5868
  194MOL0     H26125   6.154   1.026   9.393 -2.2071 -3.2728 -0.6799
  194MOL0     H26126   6.291   1.068   9.499  1.2160 -1.7409 -0.5606
  194MOL0     H26127   6.308   0.948   9.232  2.1580  0.2592 -1.0995
  194MOL0     H26128   6.446   0.966   9.335  1.0755  3.9669  3.0079
  194MOL0     H26129   6.405   1.164   9.172 -0.8747  0.4629  0.2197
  194MOL0     H26130   6.442   1.214   9.328 -0.4179  1.3636 -1.3375
  194MOL0     H26131   6.140   1.188   9.277 -0.4497 -1.3384  1.2774
  194MOL0     H26132   6.231   1.279   9.400  1.0831  3.4356 -1.5407
  194MOL0     H26133   6.255   1.340   9.104 -0.3139 -0.4051 -0.5476
  194MOL0     H26134   6.149   1.427   9.216  0.7195  1.6069  1.8653
  194MOL0     H26135   6.331   1.524   9.335  0.2571 -2.4261  1.6563
  194MOL0     H26136   6.446   1.408   9.264 -0.2908  0.5200  0.1364
  194MOL0     H26137   6.425   1.503   9.035 -0.1183  1.0685 -1.6049
  194MOL0     H26138   6.492   1.611   9.162  0.1760 -0.2377  1.4481
  194MOL0     H26139   6.316   1.713   9.005 -1.5154 -2.6670 -0.6179
  194MOL0     H26140   6.198   1.616   9.071 -0.1363 -0.4308  2.0784
  194MOL0     H26141   6.096   1.700   9.295  2.1478 -3.2909  2.6038
  194MOL0     H26142   6.205   1.987   9.552 -0.5247  1.1088 -1.4128
  194MOL0     H26143   6.081   2.008   9.440  1.9319  0.9389  0.0757
  194MOL0     H26144   6.033   1.746   9.533  2.0193 -1.1702  1.5093
  194MOL0     H26145   6.104   1.820   9.690 -1.8910  2.9616  2.0157
  194MOL0     H26146   5.872   1.849   9.720 -2.4621  0.6955 -0.8637
  194MOL0     H26147   5.843   1.902   9.549  1.3551 -1.2389 -1.2123
  194MOL0     H26148   5.976   2.101   9.597 -2.0943  0.3184  0.0577
  194MOL0     H26149   5.994   2.068   9.769 -3.2672  1.8686  2.0741
  194MOL0     H26150   5.639   2.297   9.747 -2.2915  0.7585 -0.4154
  194MOL0     H26151   5.505   2.420   9.598 -2.0043 -0.1741 -1.2784
  194MOL0     H26152   5.569   2.596   9.128 -1.7244 -1.7039 -2.2248
  194MOL0     H26153   5.478   2.774   8.978 -3.1412  0.7595 -1.1483
  194MOL0     H26154   5.373   2.988   8.892  0.1804  0.2281  1.6115
  194MOL0     H26155   5.314   2.831   8.833  0.4128  1.3343 -0.7888
  194MOL0     H26156   5.201   3.006   8.705 -2.3357 -0.3921 -0.1448
  194MOL0     H26157   5.080   2.933   8.810 -2.1853  2.1438  3.3937
  194MOL0     H26158   5.043   3.161   8.813  1.0152  2.0821 -0.8998
  194MOL0     H26159   5.108   3.108   8.971 -2.5099  1.6034  0.6756
  194MOL0     H26160   5.309   3.201   8.748  2.4805 -1.6530  1.7554
  194MOL0     H26161   5.318   3.209   8.916 -0.7768  0.5739  1.2793
  194MOL0     H26162   5.142   3.381   8.708  0.3248  0.3359 -0.7813
  194MOL0     H26163   5.271   3.447   8.804  0.1644 -0.6189  1.8230
  194MOL0     H26164   4.988   3.365   8.905 -1.4522  1.4941  1.5905
  194MOL0     H26165   5.122   3.381   9.010 -0.4185 -0.6933  1.7073
  194MOL0     H26166   5.072   3.611   8.810 -2.3946  1.4174  0.6048
  194MOL0     H26167   5.140   3.625   8.955  2.1899 -3.1923 -0.7664
  194MOL0     H26168   4.891   3.696   8.906  0.5982  0.7357 -0.5005
  194MOL0     H26169   4.853   3.525   8.937  1.8262 -0.3765 -1.8045
  194MOL0     H26170   5.149   2.831   9.257  0.5631  0.9711  0.9116
  194MOL0     H26171   5.248   2.643   9.397 -0.6171  2.2747  0.5272
  194MOL0     H26172   5.697   2.183   9.267  1.5386 -3.1300  1.2172
  194MOL0     H26173   5.842   2.095   9.430  0.6566 -0.3552  0.9912
  194MOL0     H26174   6.084   1.073   9.633  0.6372  0.0316 -2.8323
  194MOL0     H26175   5.903   0.997   9.779  1.4040 -1.1212 -1.3654
  194MOL0     H26176   5.658   0.900   9.941 -2.3313  0.8608  0.3554
  194MOL0     H26177   5.455   0.910  10.077  0.5399 -1.7679  2.7848
  194MOL0     H26178   5.211   0.640  10.255 -2.7721 -0.1117  0.7913
  194MOL0     H26179   5.205   0.561  10.093 -1.8209 -1.5252  1.3108
  194MOL0     H26180   5.007   0.777  10.177  4.1431  1.2221 -2.8025
  194MOL0     H26181   4.979   0.612  10.231 -2.9911 -0.2086 -1.1710
  194MOL0     H26182   5.021   0.514  10.006  0.5627  0.5408 -0.2124
  194MOL0     H26183   5.006   0.674   9.937  0.2199  0.7406  0.4568
  194MOL0     H26184   4.774   0.682  10.049  1.4529  0.1737  0.4511
  194MOL0     H26185   4.791   0.577   9.913 -3.0736  2.2401  0.5934
  194MOL0     H26186   4.716   0.295  10.214 -1.8502  1.2025  0.8553
  194MOL0     H26187   5.327   0.530   9.944  0.2384  0.2826  1.8122
  194MOL0     H26188   5.574   0.449   9.717 -0.0833  0.7190 -0.2493
  194MOL0     H26189   5.634   0.387   9.866 -0.5954  0.8950  2.3238
  194MOL0     H26190   5.450   0.378   9.825  1.7906 -4.2049  1.9215
  195MOL0     O26191   9.686  10.634  10.883 -0.5480  0.2550 -0.1490
  195MOL0     C26192   9.667  10.734  10.947 -0.6269  1.1940  0.1267
  195MOL0     O26193   9.607  10.842  10.897 -0.6999 -0.4732  0.6108
  195MOL0     C26194   9.620  10.859  10.754  0.6196  0.5499 -0.0493
  195MOL0     C26195   9.520  10.805  10.680  0.4426 -0.6745  0.5979
  195MOL0     C26196   9.522  10.822  10.549 -0.6052  0.3349 -0.1085
  195MOL0     C26197   9.637  10.888  10.480  0.4080 -0.1881  0.4241
  195MOL0     O26198   9.644  10.906  10.344  0.3647  0.0800 -0.0081
  195MOL0     C26199   9.533  10.882  10.264  0.6246  0.1948 -0.9756
  195MOL0     C26200   9.576  10.895  10.123 -0.1796  1.1265 -0.0266
  195MOL0     C26201   9.684  10.798  10.075 -1.2261  0.4985 -0.2042
  195MOL0     C26202   9.651  10.719   9.955  0.6060 -0.5351 -0.0844
  195MOL0     C26203   9.742  10.598   9.913  0.6130 -0.2122  0.3095
  195MOL0     C26204   9.684  10.479   9.837 -0.1815  0.2589  0.0297
  195MOL0     C26205   9.666  10.504   9.689  0.7501  0.3843 -0.2033
  195MOL0     C26206   9.682  10.367   9.610  0.0180 -0.9812 -1.4561
  195MOL0     N26207   9.695  10.373   9.463 -0.4204  0.2059 -0.1544
  195MOL0     C26208   9.721  10.259   9.393 -0.0927  0.5748 -0.1242
  195MOL0     C26209   9.730  10.311   9.272  0.5407 -1.1882  0.8436
  195MOL0     C26210   9.755  10.233   9.145 -0.0977  0.4958  0.4587
  195MOL0     C26211   9.626  10.206   9.063 -0.7142  0.6271 -0.5843
  195MOL0     C26212   9.534  10.104   9.124  0.7644  1.1522  0.3724
  195MOL0     C26213   9.397  10.118   9.053  1.1413  0.4157  0.3741
  195MOL0     O26214   9.299  10.018   9.106  0.2327 -0.3585 -0.2978
  195MOL0     C26215   9.163  10.037   9.075 -0.1777 -0.3953  0.0697
  195MOL0     C26216   9.112  10.142   8.994  0.1134 -0.1161  1.5832
  195MOL0     C26217   8.979  10.159   8.983 -0.5524 -0.2677 -0.2763
  195MOL0     C26218   8.887  10.086   9.060 -0.6062 -0.6996  0.1296
  195MOL0     C26219   8.752  10.123   9.057  0.5641  0.0346  0.3857
  195MOL0     O26220   8.725  10.242   9.002 -0.0538 -0.0914  0.2863
  195MOL0     C26221   8.594  10.280   8.991  0.8794  0.9221  0.1790
  195MOL0     C26222   8.521  10.212   8.890  0.6375 -1.2047  0.6740
  195MOL0     C26223   8.386  10.233   8.863 -0.2802 -0.6637 -0.1803
  195MOL0     C26224   8.320  10.329   8.941 -0.5272  0.7078 -0.6976
  195MOL0     O26225   8.181  10.337   8.920 -0.5096  0.2088 -0.4948
  195MOL0     C26226   8.104  10.380   9.028  0.7574 -0.4529 -0.6291
  195MOL0     C26227   7.961  10.400   8.968  0.7130 -0.1341  0.2432
  195MOL0     C26228   7.955  10.530   8.883 -0.8338  0.0079  0.1677
  195MOL0     C26229   7.815  10.547   8.807  0.5390  0.4403  0.6678
  195MOL0     C26230   7.799  10.695   8.752  0.2515  0.1559  0.3023
  195MOL0     C26231   7.895  10.729   8.638 -0.4426  0.5094  0.9157
  195MOL0     C26232   7.861  10.869   8.583  0.9889  0.0063  0.2709
  195MOL0     C26233   7.962  10.933   8.478 -0.0642 -0.2228 -0.6485
  195MOL0    Cl26234   7.994  10.835   8.324 -0.1289 -0.0167 -0.1265
  195MOL0     C26235   8.391  10.400   9.038 -0.1976 -0.2093 -0.4351
  195MOL0     C26236   8.525  10.376   9.060 -0.2103 -0.2287  0.0965
  195MOL0     O26237   8.672  10.045   9.114 -0.4832 -0.4507 -0.0707
  195MOL0     C26238   8.939   9.979   9.124  0.5311  0.9253  0.2451
  195MOL0     C26239   9.073   9.952   9.131  0.1886  0.2127 -0.0808
  195MOL0     N26240   9.724  10.448   9.264 -0.2706 -0.2104  0.5244
  195MOL0     N26241   9.697  10.487   9.383 -0.7977  0.3613  0.3525
  195MOL0     C26242   9.735  10.938  10.562 -0.3598  1.2336  0.1320
  195MOL0     C26243   9.728  10.923  10.703  0.5257 -0.6227  0.3485
  195MOL0     C26244   9.675  10.719  11.096 -0.9441 -0.3660 -0.1266
  195MOL0     C26245   9.601  10.807  11.179 -0.5690 -0.1687  0.2052
  195MOL0     C26246   9.588  10.787  11.320 -0.0985  0.9835  0.3307
  195MOL0     C26247   9.672  10.690  11.383 -1.0841  0.4769  0.7836
  195MOL0     O26248   9.672  10.678  11.515 -0.3537  0.5635  0.4737
  195MOL0     C26249   9.758  10.778  11.576  0.4205 -0.3043 -0.3470
  195MOL0     C26250   9.694  10.831  11.709 -0.0765  0.4775  0.9107
  195MOL0     C26251   9.790  10.941  11.761  0.0875  0.2476  0.2780
  195MOL0     C26252   9.761  10.996  11.897  0.0229 -0.0655  0.4985
  195MOL0     C26253   9.753  10.889  11.993  0.2124 -1.1130 -0.2146
  195MOL0     C26254   9.750  10.799  12.070 -0.0033  0.8698  0.4268
  195MOL0     C26255   9.760  10.610  11.309  1.0298  0.3308  0.0568
  195MOL0     C26256   9.758  10.619  11.167 -0.0258  0.1139 -0.3554
  195MOL0     C26257   9.863  10.535  11.097 -0.8489  0.3611 -0.7052
  195MOL0     H26258   9.441  10.747  10.726 -0.3084  1.1261  1.7029
  195MOL0     H26259   9.445  10.779  10.486 -1.5270  1.3169  0.3251
  195MOL0     H26260   9.490  10.784  10.285  2.4967 -0.4021  0.3811
  195MOL0     H26261   9.454  10.956  10.281 -0.8273 -1.6907  1.0803
  195MOL0     H26262   9.626  10.992  10.115  1.6007  0.4123  1.7005
  195MOL0     H26263   9.491  10.883  10.054  2.1534 -2.2390 -2.6384
  195MOL0     H26264   9.712  10.724  10.150  1.0254  0.8296 -0.6679
  195MOL0     H26265   9.772  10.858  10.050 -1.9697  0.6804 -2.6970
  195MOL0     H26266   9.555  10.666   9.964  1.1102 -1.3992  0.3821
  195MOL0     H26267   9.647  10.796   9.878 -0.4072  2.1997  2.5125
  195MOL0     H26268   9.833  10.632   9.861 -0.0544 -2.4084 -2.5573
  195MOL0     H26269   9.770  10.562  10.012  0.1755  1.3854  1.0356
  195MOL0     H26270   9.751  10.395   9.858  1.3960  0.8117 -2.4310
  195MOL0     H26271   9.586  10.468   9.885  1.0276  0.5300  2.7283
  195MOL0     H26272   9.752  10.560   9.653  0.1751  0.3824 -1.6740
  195MOL0     H26273   9.571  10.550   9.660  1.5663  0.0819 -3.7990
  195MOL0     H26274   9.765  10.310   9.652 -2.1794 -3.0719  0.3201
  195MOL0     H26275   9.583  10.321   9.626 -1.1394  1.6364 -0.4101
  195MOL0     H26276   9.730  10.158   9.431  1.0005  0.2622 -1.1640
  195MOL0     H26277   9.817  10.303   9.088 -0.4945 -0.1752 -0.8328
  195MOL0     H26278   9.801  10.136   9.169  0.8672  1.2275  1.7334
  195MOL0     H26279   9.570  10.299   9.057 -1.2097  0.4905  1.3155
  195MOL0     H26280   9.657  10.183   8.960 -2.0028 -0.5553 -0.7386
  195MOL0     H26281   9.531  10.125   9.232 -0.5248  2.4762  0.1147
  195MOL0     H26282   9.579  10.005   9.111  0.8549  1.5468 -3.1320
  195MOL0     H26283   9.423  10.097   8.949 -0.4943 -0.2293  0.0601
  195MOL0     H26284   9.364  10.222   9.058 -1.3431 -0.2377 -0.9128
  195MOL0     H26285   9.178  10.202   8.933  1.2255 -2.0466  0.8121
  195MOL0     H26286   8.961  10.238   8.910 -1.2036 -0.5314 -0.4034
  195MOL0     H26287   8.574  10.144   8.823  2.3770 -0.4194  1.1977
  195MOL0     H26288   8.334  10.171   8.790 -2.7558 -1.2826  1.9682
  195MOL0     H26289   8.107  10.307   9.109 -0.8472  0.5240  0.3842
  195MOL0     H26290   8.138  10.479   9.061  1.1715 -0.4076 -1.1710
  195MOL0     H26291   7.947  10.321   8.893  2.0415  1.3339 -1.6461
  195MOL0     H26292   7.887  10.378   9.045  1.7235 -3.8234  0.3627
  195MOL0     H26293   7.967  10.616   8.948  1.7377  1.5056 -2.0555
  195MOL0     H26294   8.044  10.531   8.818 -0.6082 -2.9980  0.2926
  195MOL0     H26295   7.726  10.516   8.864 -1.2748 -0.3195 -2.3361
  195MOL0     H26296   7.831  10.482   8.721 -0.8995  1.7746 -0.6625
  195MOL0     H26297   7.811  10.768   8.832  0.1643  0.9347 -0.3831
  195MOL0     H26298   7.705  10.701   8.697 -0.0451 -1.2456  0.5912
  195MOL0     H26299   7.997  10.728   8.679  1.3993 -1.9869 -3.1281
  195MOL0     H26300   7.909  10.659   8.555  0.6606  0.5545  1.0429
  195MOL0     H26301   7.840  10.940   8.663 -0.1526  2.7271 -2.2651
  195MOL0     H26302   7.764  10.856   8.534  0.0411  0.6953  1.8934
  195MOL0     H26303   7.927  11.033   8.450  0.0390 -0.2862 -1.0095
  195MOL0     H26304   8.061  10.937   8.524  0.4769 -1.2741 -1.6721
  195MOL0     H26305   8.344  10.475   9.101 -1.7722 -1.0054 -0.6120
  195MOL0     H26306   8.569  10.447   9.129  0.0237  0.9490 -1.2186
  195MOL0     H26307   8.870   9.918   9.181 -1.9013  2.1172 -1.2824
  195MOL0     H26308   9.108   9.867   9.189  7.1202  1.6800 -1.2232
  195MOL0     H26309   9.827  10.979  10.522  2.0243 -1.7760  2.0898
  195MOL0     H26310   9.810  10.946  10.770  1.0410 -2.8918  0.6056
  195MOL0     H26311   9.548  10.893  11.140  1.5967  1.8169  1.4184
  195MOL0     H26312   9.543  10.853  11.393 -0.6533  0.3689  0.5463
  195MOL0     H26313   9.778  10.862  11.509  3.9499  0.2978  1.2187
  195MOL0     H26314   9.855  10.730  11.591  0.1235 -1.2083 -1.2491
  195MOL0     H26315   9.685  10.747  11.778  1.5191 -0.9527 -0.5280
  195MOL0     H26316   9.594  10.868  11.688  0.5193  1.9992  0.6148
  195MOL0     H26317   9.769  11.024  11.692  2.3699  0.6377 -0.0466
  195MOL0     H26318   9.896  10.914  11.753  1.2383  4.0635  0.3723
  195MOL0     H26319   9.837  11.067  11.931 -0.6380  1.2538 -0.6726
  195MOL0     H26320   9.664  11.046  11.905 -0.0657 -0.3945  1.5458
  195MOL0     H26321   9.746  10.735  12.156  1.2807  1.3347  0.8581
  195MOL0     H26322   9.825  10.539  11.360  1.9502 -0.2117 -1.7645
  195MOL0     H26323   9.899  10.458  11.166 -3.4836  1.7242  2.4502
  195MOL0     H26324   9.826  10.485  11.007  1.6677  0.2331 -1.7685
  195MOL0     H26325   9.941  10.610  11.081  0.9302 -0.9285  1.3712
  196MOL0     O26326  10.661   2.915   6.540  0.6641 -0.2659  0.2869
  196MOL0     C26327  10.660   2.923   6.664 -0.3277 -0.9672 -0.0813
  196MOL0     O26328  10.557   2.885   6.748 -0.4372 -0.3509  0.1326
  196MOL0     C26329  10.439   2.834   6.686  0.2436 -0.5160  0.3500
  196MOL0     C26330  10.400   2.710   6.726  0.4686  1.0330 -0.7860
  196MOL0     C26331  10.280   2.648   6.665  0.2375  0.1458  0.0020
  196MOL0     C26332  10.197   2.709   6.572  0.2767  0.1800 -0.2515
  196MOL0     O26333  10.085   2.656   6.525  0.1844 -0.7131  0.1304
  196MOL0     C26334  10.062   2.516   6.508 -0.7080 -0.2306  0.1076
  196MOL0     C26335   9.922   2.488   6.452 -0.5075  0.0148  0.3654
  196MOL0     C26336   9.917   2.355   6.406 -1.3104  0.7396  0.7933
  196MOL0     C26337   9.781   2.309   6.362 -0.3791 -0.1714  0.1546
  196MOL0     C26338   9.778   2.152   6.340  0.6902 -0.3840 -0.4723
  196MOL0     C26339   9.873   2.084   6.242  0.3502 -0.3015  1.2477
  196MOL0     C26340   9.842   1.936   6.244  0.5332 -0.0067  0.6412
  196MOL0     C26341   9.933   1.859   6.141  0.5423 -0.6092 -0.8742
  196MOL0     N26342   9.906   1.718   6.158 -1.3772  0.7354 -0.0057
  196MOL0     C26343   9.809   1.641   6.097  0.0849 -0.3599  0.3848
  196MOL0     C26344   9.838   1.521   6.131 -0.2851 -0.9087  0.7332
  196MOL0     C26345   9.781   1.404   6.073  0.3045  0.6109 -0.6092
  196MOL0     C26346   9.631   1.374   6.107  0.0459 -0.8804  0.4191
  196MOL0     C26347   9.594   1.341   6.249  0.1045  0.2273  0.6763
  196MOL0     C26348   9.553   1.461   6.334 -0.9059  0.4369  0.3002
  196MOL0     O26349   9.451   1.541   6.272 -0.0063 -0.4888 -0.0022
  196MOL0     C26350   9.440   1.668   6.305 -0.3296 -0.7729  0.3983
  196MOL0     C26351   9.473   1.767   6.208 -0.7538  0.4712 -0.3352
  196MOL0     C26352   9.426   1.893   6.215 -0.6416 -0.0805 -0.1723
  196MOL0     C26353   9.362   1.942   6.336 -0.0439  0.0616  0.1366
  196MOL0     C26354   9.348   2.094   6.355 -0.0290 -0.7148  0.6174
  196MOL0     O26355   9.416   2.171   6.257  0.4897 -0.0383 -0.7629
  196MOL0     C26356   9.434   2.307   6.276 -0.3561  0.3980  0.2349
  196MOL0     C26357   9.458   2.380   6.159 -1.1632  0.4208 -0.5170
  196MOL0     C26358   9.518   2.508   6.168  0.9221  0.3613  1.2450
  196MOL0     C26359   9.545   2.566   6.286  0.5178  0.2407 -0.0315
  196MOL0     O26360   9.605   2.686   6.284 -0.0298 -0.4888  0.8667
  196MOL0     C26361   9.642   2.737   6.408 -0.3195 -0.6866  0.4857
  196MOL0     C26362   9.751   2.845   6.377  0.4448  0.3424  0.1126
  196MOL0     C26363   9.790   2.921   6.505  0.4732 -0.7746 -0.1377
  196MOL0     C26364   9.887   3.024   6.468 -0.2585  0.5548  0.0883
  196MOL0     C26365   9.933   3.115   6.585  0.0114 -0.1095 -0.2530
  196MOL0     C26366  10.046   3.214   6.538 -0.2289  0.6811 -1.5338
  196MOL0     C26367   9.995   3.311   6.434  0.9829 -0.7284  0.0630
  196MOL0     C26368   9.874   3.400   6.467  0.3005  0.9011 -0.0891
  196MOL0    Cl26369   9.857   3.535   6.342  0.2242 -0.0353  0.4266
  196MOL0     C26370   9.512   2.493   6.402  0.0666  0.6290  0.6426
  196MOL0     C26371   9.448   2.374   6.391 -0.4418 -0.0580 -0.8734
  196MOL0     O26372   9.282   2.139   6.451  0.2066 -0.1793 -0.1221
  196MOL0     C26373   9.335   1.841   6.429  0.3861  0.3039  0.6522
  196MOL0     C26374   9.361   1.703   6.414 -0.8983 -0.5592 -0.1507
  196MOL0     N26375   9.942   1.524   6.226 -0.4540  0.3940 -0.0830
  196MOL0     N26376   9.985   1.638   6.239 -0.2647 -0.5136 -0.7549
  196MOL0     C26377  10.244   2.841   6.538 -0.2882  0.6908 -0.0677
  196MOL0     C26378  10.360   2.902   6.596 -0.8277  0.3033 -0.5515
  196MOL0     C26379  10.783   2.963   6.727 -0.2220  0.2275 -0.2631
  196MOL0     C26380  10.799   2.924   6.856 -0.1877  0.1588 -0.6198
  196MOL0     C26381  10.928   2.941   6.923 -0.3526 -0.1140  0.2843
  196MOL0     C26382  11.040   2.988   6.849  0.3658  0.1219  0.5689
  196MOL0     O26383  11.161   2.989   6.901 -0.3938  0.0419 -0.3241
  196MOL0     C26384  11.175   2.943   7.038  0.3380  0.1676  0.1828
  196MOL0     C26385  11.323   2.930   7.070 -0.8560  0.2651 -0.5396
  196MOL0     C26386  11.419   3.045   7.025  0.7199 -0.0030 -0.8574
  196MOL0     C26387  11.376   3.170   7.103 -0.0997  0.2961  0.1612
  196MOL0     C26388  11.399   3.172   7.244 -0.2791 -0.6653  1.6537
  196MOL0     C26389  11.423   3.179   7.364  0.4699 -0.0974 -0.7991
  196MOL0     C26390  11.024   3.032   6.717  0.2863 -1.1987 -0.4511
  196MOL0     C26391  10.895   3.023   6.656 -0.1836  0.2191  0.0413
  196MOL0     C26392  10.880   3.102   6.523  0.3364 -0.9521  0.3556
  196MOL0     H26393  10.449   2.646   6.800 -0.2245  1.1790 -0.1897
  196MOL0     H26394  10.275   2.547   6.704 -1.0684  0.2935  0.2621
  196MOL0     H26395  10.133   2.486   6.430 -3.6125 -1.6863 -2.2011
  196MOL0     H26396  10.075   2.462   6.602 -0.2099 -0.5372 -0.1326
  196MOL0     H26397   9.892   2.558   6.374  1.8630 -0.7492 -1.3621
  196MOL0     H26398   9.869   2.495   6.548 -2.4151 -0.5906 -0.5977
  196MOL0     H26399   9.958   2.296   6.488  0.8906  2.3012  0.9095
  196MOL0     H26400   9.987   2.349   6.322 -2.2936 -1.9115  0.0753
  196MOL0     H26401   9.713   2.329   6.445  0.5132  0.9194  0.6384
  196MOL0     H26402   9.743   2.362   6.275  0.8360  1.4119  0.5512
  196MOL0     H26403   9.799   2.114   6.440 -0.6949  1.9346  0.7773
  196MOL0     H26404   9.673   2.124   6.327 -0.5093  2.8512  1.1062
  196MOL0     H26405   9.845   2.111   6.140 -3.5233  1.1440  2.5252
  196MOL0     H26406   9.978   2.107   6.266  0.9186 -0.1397 -1.1650
  196MOL0     H26407   9.735   1.925   6.221  0.7085 -1.3289  0.3690
  196MOL0     H26408   9.850   1.883   6.339  1.0341 -1.8649 -0.3927
  196MOL0     H26409   9.896   1.890   6.043 -1.8207 -1.3531 -0.2825
  196MOL0     H26410  10.032   1.898   6.168 -0.5050  0.1337  2.3830
  196MOL0     H26411   9.729   1.679   6.033 -0.7152  1.1582  2.1941
  196MOL0     H26412   9.780   1.406   5.964 -0.2925 -1.9123 -0.6982
  196MOL0     H26413   9.841   1.315   6.095 -0.0861  0.4954  0.0328
  196MOL0     H26414   9.575   1.461   6.073  0.6921  0.4081  2.4772
  196MOL0     H26415   9.587   1.296   6.044 -1.7278 -0.4956  1.1030
  196MOL0     H26416   9.676   1.286   6.296 -1.1427 -1.1489  1.3578
  196MOL0     H26417   9.509   1.272   6.254 -1.2954  1.7782 -0.5788
  196MOL0     H26418   9.641   1.525   6.343 -1.2317  1.2201 -1.5453
  196MOL0     H26419   9.519   1.429   6.433 -0.8425  2.2333  0.9501
  196MOL0     H26420   9.516   1.726   6.118 -0.1452  0.6723 -0.1394
  196MOL0     H26421   9.442   1.952   6.125 -3.6952  0.6721 -0.3485
  196MOL0     H26422   9.451   2.311   6.075  3.3812 -0.6405 -0.2844
  196MOL0     H26423   9.553   2.559   6.079  1.6319 -2.0108  0.0637
  196MOL0     H26424   9.550   2.773   6.456 -0.2117 -1.0096  0.9387
  196MOL0     H26425   9.698   2.664   6.467  3.7795  0.9211 -1.0868
  196MOL0     H26426   9.833   2.802   6.320  1.9341  2.0036  0.8862
  196MOL0     H26427   9.702   2.913   6.306 -1.9512  0.1489  1.4606
  196MOL0     H26428   9.703   2.962   6.555  3.1583  3.2160  1.7924
  196MOL0     H26429   9.820   2.842   6.575 -0.4572  1.4328  2.9282
  196MOL0     H26430   9.850   3.087   6.386  3.8442 -2.0888 -4.3516
  196MOL0     H26431   9.968   2.961   6.429 -1.2288  0.5851 -2.1409
  196MOL0     H26432   9.962   3.053   6.670  0.9291 -2.6625 -2.3059
  196MOL0     H26433   9.861   3.185   6.628 -0.2467 -1.3893  1.4863
  196MOL0     H26434  10.088   3.259   6.629 -0.9545  0.1605 -0.9270
  196MOL0     H26435  10.123   3.157   6.486  1.2773  1.4532 -0.2481
  196MOL0     H26436   9.974   3.261   6.338  0.8725  0.7057 -0.6814
  196MOL0     H26437  10.072   3.387   6.417 -0.5228  0.6500 -0.8388
  196MOL0     H26438   9.777   3.348   6.472  1.0899 -0.5289  0.9127
  196MOL0     H26439   9.882   3.444   6.566 -1.2470 -2.1024  1.5117
  196MOL0     H26440   9.534   2.511   6.507  1.4225 -2.4747  0.9904
  196MOL0     H26441   9.437   2.333   6.491  0.4064  2.3077  0.2700
  196MOL0     H26442   9.289   1.870   6.523 -3.6615  2.0140 -1.5894
  196MOL0     H26443   9.343   1.628   6.490  1.0947 -0.2945  0.6374
  196MOL0     H26444  10.201   2.911   6.467  2.4197  0.8735 -1.6690
  196MOL0     H26445  10.383   3.006   6.572 -1.9608  1.1691  1.8536
  196MOL0     H26446  10.725   2.866   6.911  3.1073 -1.3990  2.6478
  196MOL0     H26447  10.939   2.900   7.023  0.1255 -1.5566 -0.3252
  196MOL0     H26448  11.133   2.847   7.069  0.7265  0.6858  2.4811
  196MOL0     H26449  11.119   3.017   7.098  0.1177  0.2489 -0.1207
  196MOL0     H26450  11.356   2.837   7.023 -0.8961 -0.5297  0.9422
  196MOL0     H26451  11.352   2.920   7.175  0.1805  3.6111 -0.3986
  196MOL0     H26452  11.412   3.060   6.917 -1.0412 -3.4647 -1.3785
  196MOL0     H26453  11.524   3.021   7.041  0.3788 -0.8596  0.2358
  196MOL0     H26454  11.430   3.254   7.059  0.6919 -0.8947 -1.2508
  196MOL0     H26455  11.270   3.194   7.086 -0.4719 -0.7074  0.9877
  196MOL0     H26456  11.443   3.195   7.468  1.7275 -0.1293 -1.0252
  196MOL0     H26457  11.089   3.083   6.647 -3.8769  1.4117 -2.8107
  196MOL0     H26458  10.889   3.033   6.438  2.6118  0.7556 -0.9118
  196MOL0     H26459  10.785   3.153   6.505  1.4122  0.6000 -1.3653
  196MOL0     H26460  10.958   3.178   6.509  0.1560 -0.2533  2.7419
  197MOL0     O26461   0.605  10.539   6.762  0.0242 -0.4563 -0.1174
  197MOL0     C26462   0.585  10.539   6.884  0.8695 -0.8010 -0.6484
  197MOL0     O26463   0.526  10.431   6.951  0.0931  0.0893  0.7026
  197MOL0     C26464   0.486  10.316   6.885  0.3541  0.5092 -0.1611
  197MOL0     C26465   0.412  10.306   6.763 -0.5852  0.6404  0.7815
  197MOL0     C26466   0.409  10.184   6.695 -0.2390 -0.1763  1.1240
  197MOL0     C26467   0.471  10.067   6.738 -0.3850  0.2197  0.1694
  197MOL0     O26468   0.466   9.939   6.676 -0.3486 -0.4875  0.3913
  197MOL0     C26469   0.487   9.933   6.530 -0.3985  0.2046 -0.3101
  197MOL0     C26470   0.450   9.793   6.477  0.1458  0.1488  0.3339
  197MOL0     C26471   0.535   9.753   6.356  0.1749 -0.4632 -0.0435
  197MOL0     C26472   0.488   9.831   6.234 -0.1552 -0.6794  0.3938
  197MOL0     C26473   0.503   9.730   6.111  0.7422  0.1751  0.4656
  197MOL0     C26474   0.478   9.806   5.975 -0.7654 -0.5298 -0.0768
  197MOL0     C26475   0.535   9.735   5.850  0.7949  0.3347  0.5950
  197MOL0     C26476   0.480   9.594   5.819 -0.4226 -0.4112  0.4693
  197MOL0     N26477   0.531   9.534   5.696 -0.3301  0.0070 -0.4838
  197MOL0     C26478   0.461   9.489   5.588  0.0525 -0.5401 -0.2025
  197MOL0     C26479   0.549   9.429   5.502 -0.8552  0.5471  0.1756
  197MOL0     C26480   0.530   9.369   5.368  0.2302  0.3166  0.8132
  197MOL0     C26481   0.404   9.403   5.292  0.2159  0.1909  0.4787
  197MOL0     C26482   0.404   9.550   5.245  1.0457  1.0244  0.3822
  197MOL0     C26483   0.263   9.625   5.237  0.3019  1.1418  0.0155
  197MOL0     O26484   0.185   9.535   5.160  0.3773  0.3764  0.7439
  197MOL0     C26485   0.172   9.566   5.026  0.1046  0.5012 -0.3290
  197MOL0     C26486   0.253   9.646   4.942 -0.6045 -1.0593  0.5775
  197MOL0     C26487   0.221   9.671   4.808  0.4812  0.3591 -0.4887
  197MOL0     C26488   0.112   9.619   4.748 -0.2570 -0.2038  0.3287
  197MOL0     C26489   0.089   9.634   4.602  0.3152 -0.8075  0.0021
  197MOL0     O26490  -0.038   9.615   4.565 -0.6019 -0.7493  0.0521
  197MOL0     C26491  -0.096   9.671   4.450  0.2857 -0.8410 -0.2261
  197MOL0     C26492  -0.088   9.799   4.393  1.1344 -0.2302  0.1755
  197MOL0     C26493  -0.158   9.833   4.279 -1.6167 -0.2328 -0.2874
  197MOL0     C26494  -0.247   9.741   4.228 -0.2792  0.0048 -0.2824
  197MOL0     O26495  -0.305   9.762   4.109  0.0720  0.8023  0.0912
  197MOL0     C26496  -0.439   9.804   4.118  0.0071  1.6715  0.3481
  197MOL0     C26497  -0.502   9.768   3.971  0.7805 -0.4879 -0.0863
  197MOL0     C26498  -0.640   9.838   3.945  0.8606 -0.2870  0.2784
  197MOL0     C26499  -0.689   9.850   3.804  0.6003 -0.1889  0.0863
  197MOL0     C26500  -0.842   9.902   3.817  0.4925 -0.0432 -0.4623
  197MOL0     C26501  -0.902   9.933   3.675  0.2347 -1.1274  0.2903
  197MOL0     C26502  -1.025  10.023   3.673 -0.8488 -0.1310 -0.0296
  197MOL0     C26503  -1.148   9.951   3.730 -0.5681 -0.3878  0.0720
  197MOL0    Cl26504  -1.192   9.824   3.595  0.3940 -0.1977 -0.1668
  197MOL0     C26505  -0.262   9.615   4.287  0.0985 -0.9830  0.6644
  197MOL0     C26506  -0.192   9.584   4.398  0.4890  1.7333  0.0104
  197MOL0     O26507   0.171   9.680   4.530 -0.5882 -0.3244 -0.2553
  197MOL0     C26508   0.036   9.522   4.823  0.9065  0.1748  0.1497
  197MOL0     C26509   0.062   9.504   4.957  0.1947 -0.0939 -0.8355
  197MOL0     N26510   0.670   9.437   5.566 -0.0414  0.1025 -0.1845
  197MOL0     N26511   0.664   9.497   5.679 -0.3436  0.2328  0.2040
  197MOL0     C26512   0.534  10.076   6.865  0.1773 -0.5298 -0.1375
  197MOL0     C26513   0.533  10.194   6.945  0.0370 -0.3870 -0.0030
  197MOL0     C26514   0.612  10.660   6.959 -0.4781  0.0524 -0.4557
  197MOL0     C26515   0.726  10.735   6.928  0.2872 -0.6133 -0.0256
  197MOL0     C26516   0.763  10.845   7.013 -0.2718  0.4027  0.1892
  197MOL0     C26517   0.678  10.895   7.111  0.1716 -0.2241 -0.7497
  197MOL0     O26518   0.725  10.998   7.188  0.4226  0.0681  0.2413
  197MOL0     C26519   0.620  11.100   7.204 -0.4963 -0.5882  0.6686
  197MOL0     C26520   0.679  11.227   7.279  0.4195 -0.0955 -0.3340
  197MOL0     C26521   0.813  11.213   7.350 -1.4042 -1.1154  0.4693
  197MOL0     C26522   0.875  11.345   7.420 -0.6668  0.4317  0.7215
  197MOL0     C26523   0.799  11.385   7.541 -0.4509  0.1989  0.0948
  197MOL0     C26524   0.758  11.419   7.652 -0.2410  0.7322  0.3666
  197MOL0     C26525   0.559  10.825   7.136  0.6577  0.2815 -0.2134
  197MOL0     C26526   0.528  10.708   7.060  0.2871 -0.6353 -0.7345
  197MOL0     C26527   0.388  10.642   7.095  0.0420 -0.5658 -0.0047
  197MOL0     H26528   0.359  10.390   6.719  0.4999  1.8669  1.7308
  197MOL0     H26529   0.357  10.200   6.602 -0.2870  0.4238  1.2525
  197MOL0     H26530   0.429  10.006   6.473 -1.7611 -1.6669 -1.4316
  197MOL0     H26531   0.592   9.953   6.509 -0.3712  0.6099  0.1909
  197MOL0     H26532   0.344   9.785   6.449 -0.1874  0.8585  1.3309
  197MOL0     H26533   0.459   9.722   6.560 -1.9717 -0.9063 -0.2433
  197MOL0     H26534   0.508   9.648   6.337 -1.1908 -0.1720  0.1911
  197MOL0     H26535   0.639   9.784   6.366  0.2014  0.5269 -2.5852
  197MOL0     H26536   0.384   9.855   6.255  0.7746  2.0272  2.3988
  197MOL0     H26537   0.538   9.927   6.219 -1.2898 -0.4225 -2.3309
  197MOL0     H26538   0.605   9.690   6.115  0.5250 -0.3853  0.5275
  197MOL0     H26539   0.434   9.647   6.127  2.6080 -1.8423 -1.2541
  197MOL0     H26540   0.373   9.825   5.949 -0.0243  2.1619 -1.4155
  197MOL0     H26541   0.528   9.902   5.991 -1.0476 -0.1822 -1.2383
  197MOL0     H26542   0.641   9.714   5.869  0.5019  0.0423  1.9745
  197MOL0     H26543   0.517   9.796   5.761 -3.9986  0.8920  1.7032
  197MOL0     H26544   0.500   9.517   5.894  0.0976 -0.6206  0.1162
  197MOL0     H26545   0.371   9.604   5.814 -0.4276 -1.0552 -1.1632
  197MOL0     H26546   0.355   9.502   5.568  0.1344  1.6949  0.5656
  197MOL0     H26547   0.611   9.395   5.299 -1.5629  3.5008 -0.2968
  197MOL0     H26548   0.534   9.260   5.381  2.2587  0.5856  3.2961
  197MOL0     H26549   0.390   9.321   5.221  1.3562 -0.8577  1.4004
  197MOL0     H26550   0.331   9.401   5.372  2.1611  0.7400  2.3630
  197MOL0     H26551   0.455   9.561   5.149  0.7560 -4.4735 -0.7050
  197MOL0     H26552   0.466   9.601   5.320 -0.1675 -0.6650  2.6851
  197MOL0     H26553   0.263   9.729   5.202  0.3187  0.9571 -0.5405
  197MOL0     H26554   0.229   9.625   5.341  2.1816 -1.1478  0.7058
  197MOL0     H26555   0.342   9.697   4.976 -1.6620  0.1753  1.5944
  197MOL0     H26556   0.286   9.737   4.752  0.7274 -0.3056 -1.0029
  197MOL0     H26557  -0.012   9.860   4.441  0.4325  1.5331 -0.8758
  197MOL0     H26558  -0.132   9.931   4.239  1.8135 -0.7012  0.4732
  197MOL0     H26559  -0.491   9.741   4.190 -0.4892 -2.1265 -2.9632
  197MOL0     H26560  -0.449   9.910   4.141  1.4485  1.6955  0.9306
  197MOL0     H26561  -0.438   9.795   3.887  2.3070 -1.4844  0.7064
  197MOL0     H26562  -0.524   9.661   3.971 -3.1565  0.1464  0.5694
  197MOL0     H26563  -0.716   9.795   4.011  1.0334  2.1137  2.2232
  197MOL0     H26564  -0.625   9.939   3.987 -0.7534 -1.2038  3.4128
  197MOL0     H26565  -0.698   9.759   3.744 -0.0776 -0.9107  1.2379
  197MOL0     H26566  -0.624   9.920   3.752 -2.6260  4.0024  1.1256
  197MOL0     H26567  -0.844   9.991   3.881 -0.6696  0.8884 -1.7307
  197MOL0     H26568  -0.902   9.829   3.873 -2.3624  2.0816 -0.5594
  197MOL0     H26569  -0.817   9.994   3.645 -0.2762 -0.8772 -0.6984
  197MOL0     H26570  -0.908   9.839   3.618  2.1256 -0.1378 -1.6706
  197MOL0     H26571  -1.036  10.059   3.571  0.8347 -0.7401 -0.4539
  197MOL0     H26572  -1.003  10.100   3.747  2.1308 -1.8855  1.0919
  197MOL0     H26573  -1.122   9.918   3.831  0.0259 -0.1799 -0.0153
  197MOL0     H26574  -1.226  10.027   3.738 -1.3913 -1.2219  0.1436
  197MOL0     H26575  -0.326   9.539   4.244 -0.7201 -0.5917  1.1739
  197MOL0     H26576  -0.226   9.491   4.444  2.7618  0.5088 -0.6497
  197MOL0     H26577  -0.038   9.460   4.774 -1.0498  3.3041 -1.1466
  197MOL0     H26578   0.008   9.431   5.017  4.3425 -0.0962  3.3786
  197MOL0     H26579   0.583   9.982   6.886  0.6805 -0.6824 -1.8076
  197MOL0     H26580   0.587  10.202   7.039 -0.4730 -0.3007  0.2875
  197MOL0     H26581   0.793  10.696   6.853 -0.9502  1.9003 -2.6223
  197MOL0     H26582   0.854  10.904   7.004 -1.3502  2.1183  0.1206
  197MOL0     H26583   0.531  11.067   7.259 -1.5015 -0.4280 -0.8180
  197MOL0     H26584   0.574  11.122   7.108 -1.4633 -2.1239  0.7423
  197MOL0     H26585   0.597  11.238   7.350  0.6446 -3.0169  0.4923
  197MOL0     H26586   0.679  11.307   7.205 -0.9503  0.2704  0.0320
  197MOL0     H26587   0.889  11.196   7.274 -0.2886  1.2184  0.9473
  197MOL0     H26588   0.800  11.129   7.418 -0.1591 -2.6064 -1.0528
  197MOL0     H26589   0.977  11.322   7.451 -0.2590 -0.1079 -0.9146
  197MOL0     H26590   0.884  11.426   7.347  0.4295  0.9932  1.4519
  197MOL0     H26591   0.706  11.459   7.737 -2.8445  1.2325 -1.3246
  197MOL0     H26592   0.507  10.849   7.228  0.2684 -1.9894  0.2251
  197MOL0     H26593   0.407  10.562   7.167 -1.9439 -0.8858  0.2068
  197MOL0     H26594   0.324  10.719   7.140  0.6514 -0.4751  0.7280
  197MOL0     H26595   0.335  10.609   7.006 -2.4991  0.4117  1.0693
  198MOL0     O26596   8.888   5.210   1.791 -0.0136  0.1822 -0.1767
  198MOL0     C26597   8.964   5.123   1.748  0.5582 -0.1832 -0.0732
  198MOL0     O26598   9.100   5.107   1.766  0.3090  0.9021 -0.0060
  198MOL0     C26599   9.183   5.208   1.798  0.1621 -0.2355 -0.7630
  198MOL0     C26600   9.146   5.326   1.870 -0.8427 -0.5657 -1.1688
  198MOL0     C26601   9.244   5.421   1.898  0.6512 -0.4442 -1.1725
  198MOL0     C26602   9.370   5.414   1.856  0.4784 -0.3335  0.1475
  198MOL0     O26603   9.445   5.523   1.887 -0.4114  0.3889 -0.4697
  198MOL0     C26604   9.575   5.525   1.831 -0.8443  0.6727  0.0248
  198MOL0     C26605   9.622   5.664   1.826 -0.4168 -0.7909 -0.5240
  198MOL0     C26606   9.664   5.709   1.971 -0.4907  0.1130 -0.0666
  198MOL0     C26607   9.697   5.866   1.983  0.5615  0.2256 -0.2031
  198MOL0     C26608   9.807   5.887   2.092 -0.4795  0.3905 -0.4311
  198MOL0     C26609   9.818   6.028   2.143  0.3066 -0.0484  0.1543
  198MOL0     C26610   9.886   6.050   2.292  1.3460 -0.1475  0.8121
  198MOL0     C26611  10.049   6.065   2.265  0.5076  0.5760  0.0252
  198MOL0     N26612  10.126   5.998   2.368  0.4202  0.4842  0.1769
  198MOL0     C26613  10.199   5.891   2.327 -0.2925  0.1728  0.7990
  198MOL0     C26614  10.238   5.846   2.443 -0.7606  0.6908 -0.7855
  198MOL0     C26615  10.336   5.723   2.456 -0.0492  0.3876 -0.1859
  198MOL0     C26616  10.263   5.593   2.421 -0.0377 -0.9567  0.0485
  198MOL0     C26617  10.352   5.484   2.486  0.3182  0.0025 -0.1879
  198MOL0     C26618  10.299   5.351   2.435  0.0766 -0.4952 -0.4107
  198MOL0     O26619  10.388   5.248   2.505 -0.2456 -0.7700 -0.2842
  198MOL0     C26620  10.359   5.115   2.487 -0.1906  0.3654  0.8734
  198MOL0     C26621  10.396   5.046   2.373 -0.4567  1.2059  0.7905
  198MOL0     C26622  10.371   4.905   2.373  0.0530 -1.2270  0.1324
  198MOL0     C26623  10.311   4.831   2.473 -0.4548  0.1108  0.3830
  198MOL0     C26624  10.285   4.688   2.466 -0.4916  0.1220  0.7429
  198MOL0     O26625  10.348   4.613   2.370  0.3870 -0.1024 -0.2223
  198MOL0     C26626  10.305   4.487   2.357 -0.4487  0.3257 -0.4626
  198MOL0     C26627  10.241   4.456   2.238 -0.3712  0.1685 -1.0499
  198MOL0     C26628  10.206   4.330   2.209  0.5879  0.1788 -0.3464
  198MOL0     C26629  10.232   4.228   2.297 -0.5941  1.1413  0.6116
  198MOL0     O26630  10.187   4.102   2.264  0.0283  0.0620  0.8707
  198MOL0     C26631  10.268   4.027   2.169  0.2298 -0.6433  0.3083
  198MOL0     C26632  10.393   3.977   2.247  0.4626 -0.4109 -0.4781
  198MOL0     C26633  10.493   3.892   2.158 -0.0379 -0.8449 -0.9258
  198MOL0     C26634  10.623   3.877   2.232 -0.3717 -1.1011  0.0303
  198MOL0     C26635  10.724   3.806   2.142  0.3823  0.9360 -0.1958
  198MOL0     C26636  10.859   3.783   2.216 -0.3179 -0.5660 -0.0260
  198MOL0     C26637  10.972   3.824   2.121 -0.4381  0.1208 -0.3867
  198MOL0     C26638  11.098   3.899   2.183  0.4185 -0.2305  0.2717
  198MOL0    Cl26639  11.181   3.782   2.271 -0.1388  0.0690 -0.1744
  198MOL0     C26640  10.289   4.259   2.417  0.2239  0.6120  0.4819
  198MOL0     C26641  10.326   4.392   2.448  0.4546  1.4565 -0.5094
  198MOL0     O26642  10.207   4.644   2.551  0.3212  0.0560  0.5156
  198MOL0     C26643  10.273   4.906   2.586  0.1163  0.3226 -0.4260
  198MOL0     C26644  10.296   5.045   2.591  0.3776  0.2849 -1.2651
  198MOL0     N26645  10.208   5.929   2.548 -0.0401 -0.1428  0.4060
  198MOL0     N26646  10.130   6.019   2.500  0.4531  0.4563  0.1081
  198MOL0     C26647   9.406   5.298   1.784 -0.6997  0.2312 -0.1660
  198MOL0     C26648   9.316   5.196   1.760  0.1860  0.3511 -0.5511
  198MOL0     C26649   8.891   5.004   1.702  0.7727 -0.0228  0.8620
  198MOL0     C26650   8.765   4.974   1.754  0.3064  0.8195  1.4106
  198MOL0     C26651   8.683   4.866   1.716  0.5774  0.2112 -0.2445
  198MOL0     C26652   8.723   4.779   1.618 -0.4453  0.3787 -0.4892
  198MOL0     O26653   8.650   4.667   1.566  0.3381  0.0672  0.2341
  198MOL0     C26654   8.550   4.603   1.640 -0.4011  0.0380 -0.5130
  198MOL0     C26655   8.498   4.485   1.558 -1.0008  0.2500  0.2298
  198MOL0     C26656   8.355   4.460   1.545 -0.4824 -0.4571 -0.0717
  198MOL0     C26657   8.323   4.355   1.445  0.0188 -0.6923 -0.5671
  198MOL0     C26658   8.182   4.325   1.423  0.2745 -0.8748 -0.1594
  198MOL0     C26659   8.065   4.301   1.404  1.0913 -0.5753 -1.1945
  198MOL0     C26660   8.843   4.815   1.553  0.1790  1.1245 -0.1086
  198MOL0     C26661   8.932   4.914   1.593  0.4908  0.1393  0.5868
  198MOL0     C26662   9.062   4.943   1.524 -0.0411  0.0630 -1.1725
  198MOL0     H26663   9.053   5.341   1.923  0.1600 -1.1094  0.8078
  198MOL0     H26664   9.216   5.501   1.965  0.0613  0.5083 -2.5048
  198MOL0     H26665   9.645   5.457   1.881 -2.2430 -1.5463 -0.8800
  198MOL0     H26666   9.569   5.475   1.734 -3.9710 -1.9895  1.4149
  198MOL0     H26667   9.540   5.726   1.788  0.4809  0.7823  0.0051
  198MOL0     H26668   9.701   5.671   1.751  3.3817  0.6637  3.1738
  198MOL0     H26669   9.755   5.657   1.999  0.2282  1.4847  0.2316
  198MOL0     H26670   9.583   5.683   2.040 -1.0507 -4.1613 -2.0213
  198MOL0     H26671   9.729   5.907   1.887 -3.1839  1.0269 -1.2560
  198MOL0     H26672   9.607   5.919   2.015 -0.4459 -0.2846 -2.0464
  198MOL0     H26673   9.792   5.822   2.180 -1.1063 -0.6047 -1.2490
  198MOL0     H26674   9.907   5.864   2.055  0.5892  0.2051  2.3165
  198MOL0     H26675   9.848   6.083   2.054 -0.3906 -0.8781 -0.6233
  198MOL0     H26676   9.712   6.053   2.151 -0.4765 -2.8794 -0.0964
  198MOL0     H26677   9.864   5.968   2.361 -1.2942  0.9295  1.3308
  198MOL0     H26678   9.837   6.137   2.334 -0.4245  0.8579 -2.8808
  198MOL0     H26679  10.075   6.030   2.164  3.1987 -2.2484  1.5092
  198MOL0     H26680  10.082   6.169   2.266  0.2413  0.7615 -2.8919
  198MOL0     H26681  10.222   5.859   2.226  2.2763  0.7045  1.1447
  198MOL0     H26682  10.414   5.734   2.380 -0.9412  0.1513 -1.1597
  198MOL0     H26683  10.372   5.710   2.559 -0.4396 -3.1178 -0.3600
  198MOL0     H26684  10.166   5.586   2.472 -0.5085  0.9246 -0.5002
  198MOL0     H26685  10.256   5.576   2.313 -0.3339  2.5062 -0.5808
  198MOL0     H26686  10.348   5.482   2.595 -5.0674 -2.5652 -0.1585
  198MOL0     H26687  10.457   5.494   2.455 -0.3748 -0.1881 -2.8267
  198MOL0     H26688  10.316   5.329   2.330 -0.0446 -3.2901  0.0806
  198MOL0     H26689  10.194   5.330   2.459 -0.1266  1.5231  0.6663
  198MOL0     H26690  10.438   5.113   2.299 -2.3847  2.8708  1.0902
  198MOL0     H26691  10.406   4.848   2.288  2.8930 -0.6273  0.7939
  198MOL0     H26692  10.227   4.541   2.172  3.6691  1.2274 -0.8080
  198MOL0     H26693  10.160   4.304   2.115  3.0087 -2.6156 -0.9066
  198MOL0     H26694  10.202   3.946   2.136  0.4789  0.2310 -2.6788
  198MOL0     H26695  10.295   4.079   2.076 -0.6149 -1.0449 -0.1749
  198MOL0     H26696  10.448   4.056   2.298  0.1665 -0.8445  0.5553
  198MOL0     H26697  10.365   3.912   2.331  1.3917  1.0385  1.0342
  198MOL0     H26698  10.447   3.793   2.146 -1.7303  0.0293 -2.0135
  198MOL0     H26699  10.498   3.940   2.060 -0.9982 -1.6764 -1.3960
  198MOL0     H26700  10.607   3.816   2.322 -0.0515 -0.3339  0.6234
  198MOL0     H26701  10.651   3.977   2.266  0.4514 -1.2625 -0.1685
  198MOL0     H26702  10.736   3.850   2.042  4.3828 -0.0787 -0.3251
  198MOL0     H26703  10.678   3.707   2.127 -2.1687  1.7202  1.7922
  198MOL0     H26704  10.862   3.848   2.303  1.1219 -1.8364  0.9270
  198MOL0     H26705  10.865   3.682   2.258 -0.4599  0.1882  1.9003
  198MOL0     H26706  10.939   3.891   2.041  1.3016  1.0536 -0.3858
  198MOL0     H26707  11.008   3.733   2.071 -1.7068  0.4080 -1.9029
  198MOL0     H26708  11.168   3.936   2.107  0.2260  1.1914  0.7521
  198MOL0     H26709  11.071   3.993   2.232 -0.2586  0.8383 -1.9765
  198MOL0     H26710  10.308   4.174   2.482  2.7920 -1.7578 -2.9836
  198MOL0     H26711  10.377   4.399   2.544 -0.8247 -3.1373  0.7568
  198MOL0     H26712  10.216   4.866   2.669  3.5413  1.1673  2.5905
  198MOL0     H26713  10.270   5.099   2.681 -2.2660 -0.5407 -1.4472
  198MOL0     H26714   9.504   5.286   1.739 -0.3682  2.5571 -0.2252
  198MOL0     H26715   9.336   5.106   1.704 -0.8103 -1.1780  1.4164
  198MOL0     H26716   8.714   5.038   1.825  0.4259  1.9832  0.4827
  198MOL0     H26717   8.592   4.871   1.773  0.3003 -0.4480 -0.6188
  198MOL0     H26718   8.470   4.677   1.654 -0.8349 -0.7288  1.3181
  198MOL0     H26719   8.579   4.575   1.742 -2.2116  2.7604  0.8949
  198MOL0     H26720   8.539   4.391   1.596 -1.2285  1.0929  2.7902
  198MOL0     H26721   8.527   4.507   1.455 -2.4365  1.5976  0.0909
  198MOL0     H26722   8.304   4.553   1.517  0.7768  0.2055 -0.2439
  198MOL0     H26723   8.309   4.440   1.642 -1.5225  1.5054 -0.1053
  198MOL0     H26724   8.374   4.373   1.350  0.1448  0.8937 -0.2283
  198MOL0     H26725   8.358   4.257   1.478 -3.1884 -1.4647  0.9396
  198MOL0     H26726   7.959   4.300   1.390  0.8886  2.6851 -0.7780
  198MOL0     H26727   8.863   4.755   1.464 -2.2316 -0.3615  0.2437
  198MOL0     H26728   9.055   4.903   1.422  2.3458 -0.9019 -1.0323
  198MOL0     H26729   9.077   5.052   1.519 -0.0659  0.1580  0.3305
  198MOL0     H26730   9.150   4.904   1.576 -0.7929 -0.0601  0.0389
  199MOL0     O26731   9.807  11.435   9.850  0.0574 -0.2971 -0.3112
  199MOL0     C26732   9.854  11.513   9.928  0.6041 -1.0848 -1.3394
  199MOL0     O26733   9.960  11.498  10.023  0.8086  0.4589  0.7238
  199MOL0     C26734   9.995  11.366  10.051 -0.5179  0.2755 -0.0632
  199MOL0     C26735   9.899  11.293  10.137  0.1867 -0.2290 -0.2350
  199MOL0     C26736   9.929  11.169  10.190 -0.2641  0.5510  0.9322
  199MOL0     C26737  10.044  11.097  10.146 -0.3115  0.3673 -0.9650
  199MOL0     O26738  10.074  10.962  10.176 -0.0231 -0.4829  0.3182
  199MOL0     C26739   9.995  10.904  10.278 -0.4894 -0.2018 -0.1878
  199MOL0     C26740  10.026  10.757  10.311 -0.7919  0.1532 -0.1901
  199MOL0     C26741   9.954  10.700  10.427 -0.1098  0.0345 -0.3551
  199MOL0     C26742   9.994  10.552  10.444  0.7352 -0.5938  0.6862
  199MOL0     C26743   9.928  10.519  10.578 -0.3998  0.5090  0.9451
  199MOL0     C26744   9.945  10.365  10.616 -0.1242 -0.1019 -0.3057
  199MOL0     C26745  10.087  10.329  10.636  0.3513  0.5163 -0.0224
  199MOL0     C26746  10.165  10.396  10.753 -0.1023  0.3507 -0.4592
  199MOL0     N26747  10.218  10.529  10.715 -0.3886  0.6222  0.3112
  199MOL0     C26748  10.306  10.546  10.610  0.5381 -0.8739  0.0183
  199MOL0     C26749  10.338  10.676  10.612 -0.0120  0.4297 -0.5716
  199MOL0     C26750  10.458  10.736  10.538  0.2580 -0.5804 -0.1328
  199MOL0     C26751  10.464  10.685  10.389 -0.5377 -0.2304 -1.2040
  199MOL0     C26752  10.532  10.787  10.295 -0.2156  0.0296  0.5272
  199MOL0     C26753  10.447  10.911  10.278 -0.0569  0.2467 -0.4905
  199MOL0     O26754  10.517  11.016  10.205  0.1648  0.2632 -0.0673
  199MOL0     C26755  10.471  11.147  10.195 -0.4803  0.4528  0.3995
  199MOL0     C26756  10.536  11.235  10.117  1.0357 -0.7519  0.2816
  199MOL0     C26757  10.516  11.376  10.118 -0.2699 -0.2302  0.3053
  199MOL0     C26758  10.423  11.438  10.199 -0.5423  0.2690  0.8106
  199MOL0     C26759  10.393  11.586  10.170 -0.7492 -0.3191 -0.1983
  199MOL0     O26760  10.269  11.630  10.213 -0.6075  0.0964 -0.1377
  199MOL0     C26761  10.237  11.764  10.218 -0.2672  0.1235 -0.4126
  199MOL0     C26762  10.105  11.796  10.192  0.0932  0.2082 -0.4852
  199MOL0     C26763  10.053  11.927  10.194  0.9700 -0.3568 -0.5927
  199MOL0     C26764  10.146  12.035  10.213 -0.0202  0.5684  0.2072
  199MOL0     O26765  10.094  12.157  10.218  1.1573 -0.4487  0.1363
  199MOL0     C26766  10.184  12.271  10.225  0.0797 -0.9376 -0.6689
  199MOL0     C26767  10.099  12.397  10.241  1.0149  0.5593 -1.0487
  199MOL0     C26768   9.986  12.395  10.351 -0.2402  0.2604 -0.3195
  199MOL0     C26769   9.934  12.539  10.383  0.1273 -0.2837  0.3285
  199MOL0     C26770   9.824  12.590  10.291  0.0482  1.0713  0.1808
  199MOL0     C26771   9.754  12.711  10.341  0.7243  0.7310 -0.2226
  199MOL0     C26772   9.659  12.762  10.231 -0.4593  0.4903  0.0024
  199MOL0     C26773   9.521  12.717  10.260  0.2176  0.2430 -0.3001
  199MOL0    Cl26774   9.418  12.775  10.122 -0.3575 -0.0115 -0.5195
  199MOL0     C26775  10.283  12.008  10.235 -0.2079  0.0409  0.2919
  199MOL0     C26776  10.322  11.867  10.237  0.1053 -0.1494 -0.4530
  199MOL0     O26777  10.480  11.656  10.109 -0.0987 -0.6694  0.1804
  199MOL0     C26778  10.351  11.353  10.280  1.4866 -0.4971 -1.1415
  199MOL0     C26779  10.379  11.213  10.285  0.0346 -0.3628 -0.2621
  199MOL0     N26780  10.272  10.739  10.720 -0.5942 -0.7989 -1.1448
  199MOL0     N26781  10.199  10.647  10.780  0.1457 -0.4312  0.0084
  199MOL0     C26782  10.135  11.157  10.067 -0.5389 -0.5071 -0.4663
  199MOL0     C26783  10.117  11.291  10.016  0.7375  0.2406 -0.1365
  199MOL0     C26784   9.792  11.652   9.952 -0.0760 -0.2918 -0.3358
  199MOL0     C26785   9.776  11.690  10.086  0.5148  0.1606  0.9882
  199MOL0     C26786   9.728  11.818  10.123 -0.4186  0.9433  0.7198
  199MOL0     C26787   9.699  11.919  10.031  0.7181 -0.2076  0.2153
  199MOL0     O26788   9.679  12.058  10.048 -0.5849  0.6902 -0.3392
  199MOL0     C26789   9.710  12.119  10.178  0.2506  0.7411  0.3658
  199MOL0     C26790   9.609  12.234  10.199 -0.2406  0.6232 -0.5154
  199MOL0     C26791   9.486  12.194  10.276 -0.2096  1.2646  0.8707
  199MOL0     C26792   9.414  12.313  10.334  0.6698 -0.0548 -1.1415
  199MOL0     C26793   9.350  12.385  10.225 -0.9205 -0.4565  0.4818
  199MOL0     C26794   9.298  12.448  10.134  2.1496  0.0721 -0.0227
  199MOL0     C26795   9.702  11.880   9.897  0.3668  0.0722 -0.0173
  199MOL0     C26796   9.744  11.750   9.859  0.9463  1.1002  0.8944
  199MOL0     C26797   9.754  11.721   9.709  0.4813 -0.3761  0.0978
  199MOL0     H26798   9.810  11.348  10.164  1.1617  0.3094  2.0872
  199MOL0     H26799   9.853  11.118  10.247 -1.2767 -0.4894 -1.2298
  199MOL0     H26800   9.993  10.961  10.371 -1.5511 -0.0053 -0.3141
  199MOL0     H26801   9.892  10.893  10.241 -1.2602 -0.3502  1.8759
  199MOL0     H26802  10.131  10.727  10.315 -0.4910  0.8578 -1.8584
  199MOL0     H26803   9.990  10.708  10.220  1.8077  2.7269 -2.8455
  199MOL0     H26804   9.848  10.722  10.414 -0.1616  0.2385  0.3502
  199MOL0     H26805   9.990  10.741  10.522  0.2355 -0.5790 -0.2189
  199MOL0     H26806   9.961  10.492  10.359 -1.1033 -1.0203  1.6450
  199MOL0     H26807  10.102  10.541  10.451  0.9161  0.7446  0.1579
  199MOL0     H26808   9.967  10.585  10.657  1.6115 -0.7377  1.0571
  199MOL0     H26809   9.826  10.559  10.574  1.1592  5.2481  2.0457
  199MOL0     H26810   9.895  10.353  10.713  4.6013  3.3597  3.0462
  199MOL0     H26811   9.909  10.294  10.541 -0.3511 -2.3763  1.7931
  199MOL0     H26812  10.141  10.329  10.540  0.7609  0.8610  0.2033
  199MOL0     H26813  10.090  10.225  10.669  1.9373  0.7793  0.7184
  199MOL0     H26814  10.085  10.416  10.825 -0.7241  2.0970 -1.5573
  199MOL0     H26815  10.256  10.342  10.778  1.6403  3.0326 -0.6815
  199MOL0     H26816  10.349  10.474  10.542  3.6864  2.2609 -1.6663
  199MOL0     H26817  10.466  10.844  10.550  2.0777 -0.4588 -1.9581
  199MOL0     H26818  10.537  10.707  10.608 -1.4613 -0.4594  1.9771
  199MOL0     H26819  10.522  10.593  10.383  0.1478  0.1311 -0.4119
  199MOL0     H26820  10.368  10.670  10.340 -1.2601 -0.3291  0.2040
  199MOL0     H26821  10.540  10.749  10.193 -0.1387  0.2272  0.4575
  199MOL0     H26822  10.635  10.804  10.327  0.2255 -3.1770  1.0671
  199MOL0     H26823  10.415  10.952  10.375  2.1367  0.0992  0.3377
  199MOL0     H26824  10.357  10.874  10.226 -0.5720 -2.5842  2.0903
  199MOL0     H26825  10.611  11.208  10.044 -0.8988 -4.1360 -0.6586
  199MOL0     H26826  10.544  11.430  10.028 -0.5440 -1.9343 -0.8683
  199MOL0     H26827  10.033  11.727  10.149  1.4948 -0.4828 -1.7699
  199MOL0     H26828   9.947  11.945  10.180  0.9668  0.8083  0.7283
  199MOL0     H26829  10.239  12.261  10.319  0.8786  5.9321  0.1409
  199MOL0     H26830  10.240  12.266  10.131 -0.8198  1.4630 -1.4352
  199MOL0     H26831  10.164  12.479  10.273 -0.2650  1.4177 -0.5592
  199MOL0     H26832  10.049  12.413  10.145 -0.1762 -1.9487 -0.9322
  199MOL0     H26833   9.916  12.320  10.313  0.9097  0.1614 -2.3316
  199MOL0     H26834  10.031  12.350  10.441 -0.8310  1.2405  0.4861
  199MOL0     H26835  10.015  12.613  10.377  0.2604 -0.4793 -0.2645
  199MOL0     H26836   9.889  12.540  10.483  1.7684  1.8003  1.1295
  199MOL0     H26837   9.749  12.511  10.288  1.8261 -0.6947 -0.1454
  199MOL0     H26838   9.869  12.597  10.192  0.9523 -0.4891  0.4463
  199MOL0     H26839   9.695  12.677  10.427  0.7490 -2.8640 -1.4700
  199MOL0     H26840   9.824  12.791  10.368  1.8494  0.9876 -3.4839
  199MOL0     H26841   9.698  12.721  10.137  3.6490 -0.8816  2.0409
  199MOL0     H26842   9.672  12.870  10.226  0.9079  0.3138 -0.7292
  199MOL0     H26843   9.522  12.609  10.272 -2.0159  0.1622 -0.5060
  199MOL0     H26844   9.475  12.762  10.349  0.4891 -1.8115  0.9256
  199MOL0     H26845  10.356  12.087  10.249 -1.8556  1.6972 -0.0743
  199MOL0     H26846  10.427  11.847  10.256 -0.3574  0.6268  3.9408
  199MOL0     H26847  10.276  11.397  10.345  1.9190  0.0839 -1.0278
  199MOL0     H26848  10.315  11.157  10.352 -0.8984  1.0271  0.0628
  199MOL0     H26849  10.228  11.107  10.045  0.7285 -0.1613  3.4401
  199MOL0     H26850  10.198  11.341   9.964  1.3981 -0.4728  0.1738
  199MOL0     H26851   9.797  11.612  10.159  3.6797 -0.5808 -0.5198
  199MOL0     H26852   9.731  11.827  10.231 -1.7016  0.4626  0.8182
  199MOL0     H26853   9.813  12.154  10.164  0.7861 -0.7675  0.3361
  199MOL0     H26854   9.706  12.046  10.259  1.8109 -1.9517 -1.7688
  199MOL0     H26855   9.584  12.280  10.103 -0.7853  1.9057  0.2177
  199MOL0     H26856   9.660  12.304  10.266 -0.4787 -0.4728  0.8710
  199MOL0     H26857   9.503  12.123  10.358  1.5667  0.5923 -0.0165
  199MOL0     H26858   9.415  12.151  10.205 -1.0152  0.4617  2.1263
  199MOL0     H26859   9.339  12.270  10.402  0.6166  2.2826  0.3734
  199MOL0     H26860   9.478  12.380  10.392 -3.1658  3.3146 -0.2796
  199MOL0     H26861   9.268  12.504  10.048  3.6780 -2.7967 -2.6056
  199MOL0     H26862   9.686  11.964   9.831  1.6891 -1.5014 -2.4789
  199MOL0     H26863   9.658  11.734   9.659  0.3731  0.8476  0.5907
  199MOL0     H26864   9.813  11.807   9.676 -2.5334  1.8255  0.0189
  199MOL0     H26865   9.786  11.619   9.685 -1.6852 -1.1534  0.2441
  200MOL0     O26866   9.939   2.879   9.609  0.8338 -0.7727 -0.3895
  200MOL0     C26867   9.826   2.881   9.567  0.6131 -0.3713  0.2672
  200MOL0     O26868   9.714   2.904   9.640  0.1748  0.1414 -0.3901
  200MOL0     C26869   9.702   2.911   9.775 -0.1576 -0.2284 -0.8201
  200MOL0     C26870   9.597   2.842   9.850 -0.4499  0.2018  0.6623
  200MOL0     C26871   9.571   2.874   9.980  0.0423 -0.1323  0.7346
  200MOL0     C26872   9.660   2.957  10.051  0.0758 -0.4600 -0.1358
  200MOL0     O26873   9.647   2.982  10.184  0.0160  0.7368  0.3394
  200MOL0     C26874   9.647   2.868  10.265 -0.5835  0.0855 -0.5828
  200MOL0     C26875   9.689   2.874  10.409 -0.4919  0.4092 -0.2211
  200MOL0     C26876   9.820   2.960  10.425 -0.1352 -0.3049  0.1092
  200MOL0     C26877   9.852   2.995  10.564  0.6972  0.2432  0.4869
  200MOL0     C26878   9.755   3.077  10.641 -1.1363 -0.0391  0.0415
  200MOL0     C26879   9.800   3.111  10.779  0.8576 -1.0436  0.7595
  200MOL0     C26880   9.687   3.174  10.869 -0.5525 -0.3747 -0.5152
  200MOL0     C26881   9.726   3.211  11.014 -0.2714 -0.4191  0.4665
  200MOL0     N26882   9.750   3.351  11.011  1.1736 -0.1193 -0.5395
  200MOL0     C26883   9.859   3.408  10.961 -0.5012 -0.3905 -0.2947
  200MOL0     C26884   9.831   3.544  10.985  0.3204  0.7347  0.4624
  200MOL0     C26885   9.921   3.648  10.936 -0.6047 -0.6959  0.2224
  200MOL0     C26886   9.905   3.676  10.786  0.2862  1.2731 -0.5132
  200MOL0     C26887  10.044   3.689  10.725  1.1469 -0.0144 -0.5808
  200MOL0     C26888  10.015   3.755  10.584  0.2197  0.0621 -0.0226
  200MOL0     O26889   9.956   3.681  10.485 -0.4477  0.2740 -0.2237
  200MOL0     C26890  10.023   3.567  10.443  0.0389 -0.1887 -0.6634
  200MOL0     C26891   9.941   3.465  10.391 -0.0327 -1.0639 -0.3092
  200MOL0     C26892   9.991   3.348  10.336 -0.0646 -0.6951 -0.5438
  200MOL0     C26893  10.126   3.319  10.346 -0.3513  0.3595 -0.9709
  200MOL0     C26894  10.187   3.204  10.273  0.8606 -0.4581 -0.3058
  200MOL0     O26895  10.323   3.196  10.275 -0.0549 -0.0103 -0.0525
  200MOL0     C26896  10.387   3.075  10.261 -0.1484  0.1842 -0.7308
  200MOL0     C26897  10.421   3.007  10.377  0.1339 -0.4086  0.7340
  200MOL0     C26898  10.504   2.889  10.370 -0.1178 -0.0155  0.1792
  200MOL0     C26899  10.554   2.848  10.241  0.3176  0.0208 -0.4201
  200MOL0     O26900  10.634   2.735  10.234  0.3910  0.2492 -0.4130
  200MOL0     C26901  10.621   2.666  10.109  0.1973 -0.5282  0.0166
  200MOL0     C26902  10.684   2.530  10.082  0.5688  0.8827 -0.9962
  200MOL0     C26903  10.840   2.525  10.113 -0.3825  0.3664 -0.3426
  200MOL0     C26904  10.885   2.388  10.135 -0.4672 -0.4326  0.2296
  200MOL0     C26905  11.033   2.346  10.104 -0.7948 -0.0942  0.1661
  200MOL0     C26906  11.060   2.198  10.146 -0.0302  1.0290 -0.8748
  200MOL0     C26907  11.114   2.196  10.292  0.7960  0.1715 -0.3483
  200MOL0     C26908  11.139   2.046  10.331 -0.4710 -0.5508  0.3226
  200MOL0    Cl26909  11.177   2.062  10.509 -0.0299  0.2053  0.6053
  200MOL0     C26910  10.527   2.930  10.126  1.3743 -0.2266  0.4147
  200MOL0     C26911  10.424   3.031  10.133 -1.2854  0.4371 -0.7129
  200MOL0     O26912  10.109   3.127  10.215  0.4920  0.1295 -0.5609
  200MOL0     C26913  10.212   3.420  10.406  1.0279 -0.6286 -0.3621
  200MOL0     C26914  10.163   3.541  10.456 -0.2626  0.0443  0.3170
  200MOL0     N26915   9.711   3.567  11.052 -0.5950  0.5702  0.2388
  200MOL0     N26916   9.657   3.444  11.060 -0.2190 -0.7324  0.0951
  200MOL0     C26917   9.778   3.012   9.992  0.7793  0.1039  0.0220
  200MOL0     C26918   9.795   2.984   9.857 -0.3034 -0.0723 -0.1797
  200MOL0     C26919   9.813   2.821   9.432  0.1592  0.5922 -0.6846
  200MOL0     C26920   9.915   2.738   9.383  0.7750 -0.2308  0.1527
  200MOL0     C26921   9.897   2.681   9.251 -0.7340 -0.4931 -0.7534
  200MOL0     C26922   9.789   2.707   9.174  0.3700  0.4030 -0.0825
  200MOL0     O26923   9.803   2.659   9.047 -0.2720  0.1208 -0.3690
  200MOL0     C26924   9.814   2.772   8.964  0.0184 -0.1794 -0.0385
  200MOL0     C26925   9.896   2.749   8.826  0.3229 -0.2181 -0.0488
  200MOL0     C26926  10.020   2.660   8.832  0.1693  1.1484  0.6433
  200MOL0     C26927  10.140   2.713   8.912  0.6300 -0.4317  0.6809
  200MOL0     C26928  10.209   2.825   8.852 -0.5773  1.1862  1.2978
  200MOL0     C26929  10.287   2.903   8.802 -0.5073  0.4791 -0.1544
  200MOL0     C26930   9.694   2.792   9.220  1.2860 -1.4451  0.3984
  200MOL0     C26931   9.692   2.843   9.356 -0.9153  0.4228  0.5022
  200MOL0     C26932   9.575   2.930   9.390 -0.4351  0.1346  0.8069
  200MOL0     H26933   9.530   2.781   9.791  2.1192 -0.2918 -1.9599
  200MOL0     H26934   9.495   2.811  10.025 -0.6242 -1.1807 -1.7424
  200MOL0     H26935   9.541   2.842  10.265 -1.1245  1.9905  1.2953
  200MOL0     H26936   9.691   2.780  10.219  2.3723  0.7300  0.7967
  200MOL0     H26937   9.710   2.777  10.456  0.6097  2.0757  3.0067
  200MOL0     H26938   9.613   2.932  10.462  0.3188 -1.5563  3.4710
  200MOL0     H26939   9.810   3.051  10.365  0.0076 -0.8789 -0.8054
  200MOL0     H26940   9.904   2.902  10.384  0.0420 -0.0029  0.0419
  200MOL0     H26941   9.849   2.897  10.612 -0.2694  0.5203  1.0259
  200MOL0     H26942   9.950   3.043  10.565  1.4495 -1.0551 -2.3258
  200MOL0     H26943   9.727   3.164  10.581 -0.3947 -1.1563 -2.0430
  200MOL0     H26944   9.671   3.008  10.657 -0.3794 -0.6320  1.6918
  200MOL0     H26945   9.843   3.018  10.816  2.3756 -1.9203 -2.7968
  200MOL0     H26946   9.881   3.185  10.786  1.6313 -1.7053 -0.7247
  200MOL0     H26947   9.597   3.113  10.876 -0.9685  0.1896 -0.8842
  200MOL0     H26948   9.654   3.258  10.806 -0.6363  0.3340  0.4534
  200MOL0     H26949   9.638   3.192  11.076  0.0337  1.7182  1.6542
  200MOL0     H26950   9.804   3.146  11.055  0.1581  1.0426  2.0545
  200MOL0     H26951   9.952   3.359  10.932 -1.2294 -1.5577 -0.7731
  200MOL0     H26952   9.901   3.738  10.994 -0.7028 -0.2499 -0.4934
  200MOL0     H26953  10.021   3.604  10.947 -0.2784  0.0502  0.2871
  200MOL0     H26954   9.864   3.586  10.739  0.9157  1.2874 -1.1102
  200MOL0     H26955   9.837   3.760  10.769 -0.3609  1.6024  3.0017
  200MOL0     H26956  10.107   3.599  10.719  2.0950  0.4194  1.6453
  200MOL0     H26957  10.099   3.755  10.794  1.4098 -0.3177 -0.4945
  200MOL0     H26958  10.106   3.794  10.538  1.0823 -2.8535 -0.9892
  200MOL0     H26959   9.953   3.843  10.602  0.2969 -0.4655  3.6887
  200MOL0     H26960   9.837   3.494  10.377  0.3428  1.5084  1.4016
  200MOL0     H26961   9.916   3.280  10.295  0.3520 -2.8984  2.0885
  200MOL0     H26962  10.369   3.028  10.470 -1.7131 -0.5702 -0.2250
  200MOL0     H26963  10.529   2.837  10.461 -2.9009  0.6434  1.4307
  200MOL0     H26964  10.516   2.657  10.080  0.3419 -0.5759 -0.5152
  200MOL0     H26965  10.674   2.730  10.037 -3.3560  1.5790 -0.9648
  200MOL0     H26966  10.637   2.464  10.156  1.9182  0.0890 -0.8048
  200MOL0     H26967  10.652   2.505   9.981 -1.6770  2.1617 -0.6439
  200MOL0     H26968  10.890   2.565  10.025 -1.5618  1.8943 -0.3529
  200MOL0     H26969  10.854   2.585  10.204 -5.1611  5.0024 -2.1181
  200MOL0     H26970  10.827   2.326  10.067  2.0878 -0.4144 -2.1589
  200MOL0     H26971  10.849   2.358  10.234 -1.6278  2.3167  0.7412
  200MOL0     H26972  11.104   2.412  10.155 -0.6131  2.3800 -2.9658
  200MOL0     H26973  11.053   2.364   9.998  0.7672 -1.1287  0.2495
  200MOL0     H26974  10.971   2.136  10.131  1.0813 -1.0725  0.7302
  200MOL0     H26975  11.146   2.159  10.092  1.3345 -5.2716  4.5334
  200MOL0     H26976  11.045   2.253  10.355  3.2080  1.0488  1.6787
  200MOL0     H26977  11.211   2.246  10.288  0.7936  0.2611 -4.6535
  200MOL0     H26978  11.054   1.983  10.302 -2.0717  1.7213 -0.2405
  200MOL0     H26979  11.232   2.009  10.287  1.1398  0.5086  2.6053
  200MOL0     H26980  10.563   2.904  10.027  1.0485 -2.5863  0.8671
  200MOL0     H26981  10.398   3.078  10.039  0.9867  3.2486 -0.0651
  200MOL0     H26982  10.320   3.415  10.402  1.0663  0.6758 -1.8688
  200MOL0     H26983  10.233   3.602  10.512 -2.1880  2.5365  0.1733
  200MOL0     H26984   9.864   3.047  10.048  2.7678 -1.7026 -1.7114
  200MOL0     H26985   9.884   3.025   9.809  1.4817 -4.3506 -0.9874
  200MOL0     H26986  10.004   2.719   9.442  1.2852 -0.7447 -0.7628
  200MOL0     H26987   9.969   2.617   9.201 -0.0896  0.8168 -1.5768
  200MOL0     H26988   9.856   2.860   9.013 -1.4339  0.8619 -0.5835
  200MOL0     H26989   9.718   2.804   8.923  0.7307  0.3307 -1.3726
  200MOL0     H26990   9.913   2.846   8.779 -0.0488  0.0903  0.4405
  200MOL0     H26991   9.817   2.700   8.767 -1.3523  2.5535 -0.2688
  200MOL0     H26992  10.054   2.642   8.729  0.4529 -1.1465  1.0954
  200MOL0     H26993   9.992   2.567   8.881 -1.5327  0.9356 -0.6467
  200MOL0     H26994  10.100   2.750   9.006  0.0120 -1.0175  0.6552
  200MOL0     H26995  10.204   2.625   8.920  1.4792 -0.0285 -1.0212
  200MOL0     H26996  10.349   2.978   8.758  0.9085 -0.8091 -0.4163
  200MOL0     H26997   9.617   2.827   9.152 -0.4015 -0.7478  2.5377
  200MOL0     H26998   9.524   2.911   9.485  1.3768  1.2113  2.0510
  200MOL0     H26999   9.612   3.032   9.402 -0.7683  0.0778  2.5919
  200MOL0     H27000   9.490   2.919   9.321  0.8791 -0.7573 -0.7559
  201MOL0     O27001   4.204   3.321   4.832  0.2063  0.5150 -0.5351
  201MOL0     C27002   4.109   3.394   4.805  0.0699  0.5243 -0.4587
  201MOL0     O27003   4.063   3.422   4.679  0.0225  0.4477  1.2237
  201MOL0     C27004   4.122   3.356   4.576 -0.1160  0.2584 -0.2998
  201MOL0     C27005   4.164   3.426   4.467  0.6129  0.5697  0.1049
  201MOL0     C27006   4.219   3.360   4.351 -0.0396  0.7224 -0.6097
  201MOL0     C27007   4.233   3.222   4.348  0.0667 -1.2764  0.0458
  201MOL0     O27008   4.278   3.152   4.234  0.1989 -0.2720 -0.2821
  201MOL0     C27009   4.344   3.231   4.143 -0.7756  0.4517  0.2755
  201MOL0     C27010   4.396   3.143   4.025 -0.3706 -0.1957  0.7185
  201MOL0     C27011   4.476   3.229   3.921  0.5844 -0.4457 -0.2667
  201MOL0     C27012   4.489   3.157   3.788 -0.3775  0.1162  1.8180
  201MOL0     C27013   4.633   3.090   3.781  0.1236 -0.6912  0.2913
  201MOL0     C27014   4.744   3.206   3.754 -0.0099  0.1351 -0.2371
  201MOL0     C27015   4.886   3.139   3.758  0.6832  0.1475 -0.4314
  201MOL0     C27016   4.912   3.048   3.877 -0.4039 -0.1736  0.1187
  201MOL0     N27017   4.900   3.113   4.007  0.0277  0.1760  0.3974
  201MOL0     C27018   4.794   3.087   4.089  1.2435 -0.2908  1.1045
  201MOL0     C27019   4.791   3.194   4.177 -0.2188  0.0098 -1.2331
  201MOL0     C27020   4.693   3.217   4.292 -0.2346  0.4697 -0.1672
  201MOL0     C27021   4.759   3.210   4.430 -0.3098  0.1068  0.3953
  201MOL0     C27022   4.658   3.150   4.532  0.6248 -0.0155  0.0823
  201MOL0     C27023   4.720   3.150   4.670 -0.1964 -0.2304 -0.0603
  201MOL0     O27024   4.628   3.077   4.761 -0.8083  0.3671 -0.5174
  201MOL0     C27025   4.660   3.063   4.891 -0.0253  0.0656 -0.2790
  201MOL0     C27026   4.627   3.165   4.979  0.0994 -0.0078  0.7368
  201MOL0     C27027   4.668   3.149   5.112  0.4775 -0.7635 -0.0715
  201MOL0     C27028   4.722   3.029   5.158 -0.7705 -0.5494  0.0087
  201MOL0     C27029   4.763   3.007   5.298 -0.1713  0.6476  0.3543
  201MOL0     O27030   4.752   2.884   5.338 -0.2067  0.5187  0.1136
  201MOL0     C27031   4.801   2.835   5.458  0.0372  0.4042 -0.2956
  201MOL0     C27032   4.774   2.696   5.479  0.4900  0.5590  0.3614
  201MOL0     C27033   4.826   2.625   5.592 -0.1392 -0.5738  1.2549
  201MOL0     C27034   4.903   2.694   5.683  1.0866 -0.8221 -0.1304
  201MOL0     O27035   4.958   2.634   5.792 -0.0931 -0.2744  0.1984
  201MOL0     C27036   5.076   2.568   5.761 -0.2349  0.0905 -0.6901
  201MOL0     C27037   5.196   2.598   5.862 -0.0221  0.6962  0.2845
  201MOL0     C27038   5.213   2.737   5.909 -0.5009 -0.5707 -0.0959
  201MOL0     C27039   5.124   2.770   6.030 -0.8222 -0.1487 -0.0825
  201MOL0     C27040   5.161   2.901   6.107 -0.0467 -0.3951 -0.1272
  201MOL0     C27041   5.064   2.931   6.222  0.2417  0.4315 -0.3286
  201MOL0     C27042   5.129   2.854   6.343  0.1383 -0.4369  1.0693
  201MOL0     C27043   5.033   2.853   6.457  0.2897  0.3219  0.2241
  201MOL0    Cl27044   4.998   3.017   6.515 -0.3615  0.3883  0.5065
  201MOL0     C27045   4.938   2.828   5.666 -0.1319 -0.2650 -0.6079
  201MOL0     C27046   4.888   2.897   5.563  0.5519  0.1767 -0.5940
  201MOL0     O27047   4.799   3.103   5.358 -1.1050 -0.2103 -0.3134
  201MOL0     C27048   4.749   2.927   5.072 -1.5053 -0.0032  0.7835
  201MOL0     C27049   4.726   2.942   4.934 -0.1938 -0.7582  0.0993
  201MOL0     N27050   4.902   3.273   4.156 -0.6841  0.5923 -0.0630
  201MOL0     N27051   4.968   3.216   4.055  0.0058 -0.5609 -0.3042
  201MOL0     C27052   4.180   3.152   4.452 -0.3430 -0.3383 -0.8970
  201MOL0     C27053   4.135   3.214   4.568 -0.2988 -0.0946  0.5490
  201MOL0     C27054   4.034   3.460   4.913 -0.4310  0.0962  0.3556
  201MOL0     C27055   3.900   3.495   4.880 -0.4717 -0.0302 -0.1979
  201MOL0     C27056   3.833   3.562   4.985  0.6738 -0.8031 -1.3916
  201MOL0     C27057   3.886   3.591   5.108  0.3223  0.8887 -0.9914
  201MOL0     O27058   3.812   3.643   5.209  0.0004 -0.8537  0.6182
  201MOL0     C27059   3.822   3.789   5.210  1.4954 -0.2653  0.3155
  201MOL0     C27060   3.933   3.853   5.286  0.8472  1.0003 -0.3508
  201MOL0     C27061   3.924   3.797   5.430  0.8359  0.2764  0.6461
  201MOL0     C27062   4.004   3.867   5.536  0.8758  0.3647 -0.8076
  201MOL0     C27063   3.984   4.013   5.547 -0.3390 -0.3328 -0.6216
  201MOL0     C27064   3.967   4.135   5.556 -0.3384 -0.0989 -1.0031
  201MOL0     C27065   4.021   3.568   5.130 -0.2362 -0.2891  0.3921
  201MOL0     C27066   4.099   3.498   5.038  0.1571 -0.4941  0.1628
  201MOL0     C27067   4.243   3.464   5.066 -0.3460 -0.4856  0.3583
  201MOL0     H27068   4.188   3.532   4.473  0.8841  0.6674 -1.9730
  201MOL0     H27069   4.246   3.428   4.271 -0.8119  0.9208 -0.7090
  201MOL0     H27070   4.276   3.308   4.105 -0.2317  2.9871  3.8856
  201MOL0     H27071   4.432   3.271   4.196 -1.9485  0.5368  2.2426
  201MOL0     H27072   4.309   3.098   3.977  1.5721 -2.2561 -1.0824
  201MOL0     H27073   4.457   3.059   4.060  2.7314  1.2577 -0.7171
  201MOL0     H27074   4.569   3.259   3.970 -1.5482  0.4948  3.6270
  201MOL0     H27075   4.413   3.316   3.901  0.7667 -0.3857 -0.5679
  201MOL0     H27076   4.403   3.095   3.764  0.3605 -0.4437  0.5399
  201MOL0     H27077   4.490   3.229   3.706 -2.2504 -2.0400 -0.2453
  201MOL0     H27078   4.651   3.027   3.868  0.4186 -0.3696  0.4637
  201MOL0     H27079   4.626   3.035   3.686 -1.9032  0.8844 -0.5426
  201MOL0     H27080   4.717   3.248   3.657 -1.1356  0.7234  0.3078
  201MOL0     H27081   4.735   3.277   3.837  3.5592 -1.8901  2.1636
  201MOL0     H27082   4.960   3.219   3.755  0.0352  0.7499 -0.4951
  201MOL0     H27083   4.899   3.093   3.660 -0.9893  0.0598 -0.6385
  201MOL0     H27084   4.857   2.954   3.875  1.3443 -1.2692  0.6405
  201MOL0     H27085   5.019   3.024   3.880  0.5584  3.3049 -1.0825
  201MOL0     H27086   4.724   3.004   4.089  0.5666  0.2518 -0.1113
  201MOL0     H27087   4.635   3.309   4.284  2.4300  2.6903  3.3060
  201MOL0     H27088   4.628   3.128   4.291  3.1051 -2.2084  1.3523
  201MOL0     H27089   4.849   3.148   4.420 -0.3891  0.3649 -3.9491
  201MOL0     H27090   4.796   3.309   4.458  0.0870  0.4497 -1.2488
  201MOL0     H27091   4.629   3.052   4.492 -0.8795  0.1250  0.7513
  201MOL0     H27092   4.564   3.205   4.543  0.1212 -0.5916 -1.0743
  201MOL0     H27093   4.729   3.252   4.706 -0.2858 -0.4369  0.5552
  201MOL0     H27094   4.820   3.106   4.672  0.9793  2.1012 -2.2386
  201MOL0     H27095   4.577   3.255   4.945 -0.6100 -0.9888 -0.9253
  201MOL0     H27096   4.654   3.226   5.188  3.7682 -1.1686  1.1294
  201MOL0     H27097   4.724   2.643   5.398  0.7891 -1.4729  1.4470
  201MOL0     H27098   4.826   2.517   5.604 -0.4402 -0.6540  0.5763
  201MOL0     H27099   5.065   2.459   5.762  2.8406 -0.3697  3.0743
  201MOL0     H27100   5.116   2.594   5.663  1.3545 -0.8598 -0.3276
  201MOL0     H27101   5.203   2.533   5.949  2.3189 -1.0397 -1.0904
  201MOL0     H27102   5.290   2.565   5.816  0.0376 -2.2571  2.3065
  201MOL0     H27103   5.317   2.741   5.943 -0.4021  1.3335 -0.5624
  201MOL0     H27104   5.206   2.811   5.829  2.7933  0.7794  0.7165
  201MOL0     H27105   5.129   2.691   6.105 -1.0392 -0.4542 -0.3861
  201MOL0     H27106   5.026   2.798   5.990  0.8485  2.6620 -2.7183
  201MOL0     H27107   5.168   2.981   6.032  3.3244  0.7090  1.1687
  201MOL0     H27108   5.263   2.889   6.146 -0.4298  1.5558  1.6220
  201MOL0     H27109   5.058   3.038   6.244 -0.6241 -0.1981  3.0554
  201MOL0     H27110   4.969   2.886   6.193  0.5415  1.0975 -2.5649
  201MOL0     H27111   5.227   2.895   6.368 -0.2393  1.5680 -0.4283
  201MOL0     H27112   5.159   2.753   6.314  3.2367  1.4688 -3.5763
  201MOL0     H27113   4.937   2.810   6.427  0.2059  0.6192  0.0558
  201MOL0     H27114   5.082   2.786   6.529  4.5801  2.8000 -0.0225
  201MOL0     H27115   4.998   2.877   5.742 -3.0694  0.0965  1.6253
  201MOL0     H27116   4.910   3.003   5.563  0.2856  0.2406 -1.4377
  201MOL0     H27117   4.791   2.832   5.106 -0.1532  0.3700  0.2120
  201MOL0     H27118   4.762   2.875   4.857 -1.1419 -0.8290 -0.3007
  201MOL0     H27119   4.186   3.043   4.449 -2.5818 -0.6041  1.1739
  201MOL0     H27120   4.089   3.166   4.654 -4.8565  1.4203 -0.7620
  201MOL0     H27121   3.861   3.480   4.780 -0.8090  0.2954 -0.1171
  201MOL0     H27122   3.726   3.577   4.974  0.4744 -1.8530 -0.9444
  201MOL0     H27123   3.733   3.845   5.240  2.4944  4.3211 -3.9377
  201MOL0     H27124   3.827   3.824   5.106 -0.3729 -0.3002  0.1728
  201MOL0     H27125   3.929   3.963   5.283 -1.8068  0.9947  0.4957
  201MOL0     H27126   4.031   3.826   5.244  1.1629  4.6969 -2.5121
  201MOL0     H27127   3.948   3.692   5.415 -2.2455 -0.2591 -1.5320
  201MOL0     H27128   3.823   3.785   5.472  1.0544 -3.1810  0.4675
  201MOL0     H27129   3.967   3.819   5.627 -1.6116  0.2559 -1.7904
  201MOL0     H27130   4.110   3.844   5.530  0.3250 -2.8877 -0.0903
  201MOL0     H27131   3.948   4.240   5.568 -2.2117 -0.6544  2.1610
  201MOL0     H27132   4.058   3.606   5.225 -0.0554 -0.3263  0.3382
  201MOL0     H27133   4.273   3.492   5.167 -1.2319 -0.1848  0.5465
  201MOL0     H27134   4.245   3.355   5.066 -2.1162 -0.6241  3.1907
  201MOL0     H27135   4.308   3.506   4.990  1.4706 -0.8992  1.6319
  202MOL0     O27136   0.830   8.797   6.344 -0.2257 -0.6302  0.0251
  202MOL0     C27137   0.953   8.801   6.364  0.6178  0.2743  0.2570
  202MOL0     O27138   1.045   8.774   6.274  0.4729  0.3711  1.2420
  202MOL0     C27139   1.009   8.752   6.144  0.1661 -0.0522  0.0444
  202MOL0     C27140   0.974   8.861   6.054  0.4936 -0.4913  0.5849
  202MOL0     C27141   0.942   8.831   5.925 -0.8523 -0.4156  1.0923
  202MOL0     C27142   0.915   8.697   5.878 -0.5921 -1.0780 -0.1344
  202MOL0     O27143   0.842   8.675   5.761 -0.8291  0.0042  0.3047
  202MOL0     C27144   0.883   8.560   5.682  0.7266  0.4499 -0.8981
  202MOL0     C27145   1.016   8.582   5.599  0.1703 -0.9769 -0.0900
  202MOL0     C27146   1.073   8.463   5.514  0.2175 -0.8526 -0.4668
  202MOL0     C27147   1.117   8.349   5.596 -0.2625 -0.4592  0.1632
  202MOL0     C27148   1.255   8.306   5.545  0.5857 -0.5469  0.2043
  202MOL0     C27149   1.309   8.173   5.611  0.5876 -0.7058 -0.9135
  202MOL0     C27150   1.453   8.141   5.554 -0.3915 -0.0527 -0.0709
  202MOL0     C27151   1.489   7.987   5.575 -0.4918  0.7962 -0.9564
  202MOL0     N27152   1.605   7.939   5.508  0.3522  0.2460  0.3068
  202MOL0     C27153   1.698   7.866   5.567 -0.4384  1.2863 -0.4872
  202MOL0     C27154   1.778   7.814   5.467 -0.1869 -0.3607 -0.3563
  202MOL0     C27155   1.907   7.746   5.494  0.2012 -0.7508  1.0076
  202MOL0     C27156   1.898   7.613   5.415 -0.3991  0.1456  0.0301
  202MOL0     C27157   2.033   7.548   5.415 -0.4242  0.6911  0.2307
  202MOL0     C27158   2.047   7.462   5.285 -0.3561 -0.2904 -0.2146
  202MOL0     O27159   2.060   7.323   5.309 -0.3808 -0.8145  0.0133
  202MOL0     C27160   1.941   7.270   5.347 -0.3802  0.1363  0.6773
  202MOL0     C27161   1.835   7.245   5.253 -0.3273  0.4594  0.2112
  202MOL0     C27162   1.711   7.190   5.305 -0.4340 -1.0804  1.0372
  202MOL0     C27163   1.697   7.161   5.437 -0.1565  0.4388 -0.5265
  202MOL0     C27164   1.571   7.097   5.481 -0.8396  0.1892 -0.8941
  202MOL0     O27165   1.536   7.127   5.611  0.4369  0.3996 -0.0552
  202MOL0     C27166   1.404   7.134   5.660 -0.7572 -0.5958  0.3589
  202MOL0     C27167   1.286   7.103   5.589 -0.0567  0.6208  0.1605
  202MOL0     C27168   1.160   7.121   5.649 -0.3286  0.3851  0.3456
  202MOL0     C27169   1.147   7.161   5.786 -0.1671  0.8619  0.4234
  202MOL0     O27170   1.028   7.172   5.863 -0.3378  0.6705 -0.0143
  202MOL0     C27171   0.994   7.307   5.894 -0.7010  0.4538 -0.5987
  202MOL0     C27172   0.945   7.387   5.772 -0.4141  0.2717  0.0282
  202MOL0     C27173   0.799   7.337   5.735  0.5580 -0.1760  0.0002
  202MOL0     C27174   0.727   7.413   5.623  0.0768 -0.3932  1.0304
  202MOL0     C27175   0.584   7.359   5.610 -0.5583 -0.0155 -0.3792
  202MOL0     C27176   0.567   7.224   5.542  0.1585  0.5009  0.9854
  202MOL0     C27177   0.614   7.201   5.401  0.9063  0.1331  0.3715
  202MOL0     C27178   0.566   7.304   5.299 -0.1935 -0.1206 -0.3104
  202MOL0    Cl27179   0.395   7.281   5.239  0.1103  0.2886 -0.0525
  202MOL0     C27180   1.272   7.199   5.847  0.5408  0.0736 -1.3774
  202MOL0     C27181   1.392   7.188   5.786 -0.1925  0.1525 -0.5149
  202MOL0     O27182   1.522   7.016   5.405  0.8371  0.1264  0.5168
  202MOL0     C27183   1.799   7.193   5.530 -0.3298 -1.2139 -1.1276
  202MOL0     C27184   1.921   7.244   5.481  0.7997 -0.0636 -0.1667
  202MOL0     N27185   1.722   7.853   5.349 -0.5702  0.5953  0.0487
  202MOL0     N27186   1.621   7.924   5.376 -0.2818  0.0397  0.7365
  202MOL0     C27187   0.950   8.596   5.965 -0.5599 -0.1396 -0.7385
  202MOL0     C27188   0.999   8.619   6.094  0.0050  0.5655  0.1453
  202MOL0     C27189   1.008   8.829   6.500  0.2602  0.7863 -0.2535
  202MOL0     C27190   1.092   8.940   6.517  0.6674 -0.2867  0.0465
  202MOL0     C27191   1.125   8.987   6.646 -0.4534  0.4984 -0.2770
  202MOL0     C27192   1.095   8.909   6.758 -0.5242  0.5293  0.1920
  202MOL0     O27193   1.126   8.971   6.878  0.4153 -0.3663 -0.1159
  202MOL0     C27194   1.097   8.915   7.009  0.8708 -0.8261 -0.5714
  202MOL0     C27195   1.199   8.832   7.071 -0.5360  0.0240  0.6760
  202MOL0     C27196   1.161   8.779   7.212 -0.3317 -0.3097  0.4933
  202MOL0     C27197   1.269   8.690   7.266  0.2005  0.0070  0.7561
  202MOL0     C27198   1.407   8.738   7.287  0.6681  0.2171 -0.2904
  202MOL0     C27199   1.518   8.778   7.307 -0.1611 -0.5160 -0.0891
  202MOL0     C27200   1.028   8.786   6.739 -0.6641  0.7570  0.0976
  202MOL0     C27201   0.988   8.748   6.611  0.0967 -1.0622 -0.1531
  202MOL0     C27202   0.901   8.635   6.600 -0.7769  0.1031  0.1091
  202MOL0     H27203   0.978   8.966   6.079 -1.9150  0.4180 -2.3481
  202MOL0     H27204   0.937   8.908   5.848  3.0471  1.2408  2.2238
  202MOL0     H27205   0.900   8.466   5.734  0.5519 -1.7204 -4.4250
  202MOL0     H27206   0.805   8.538   5.609 -0.2319 -0.0188  0.2353
  202MOL0     H27207   1.101   8.628   5.650 -0.6040 -2.2616  2.5436
  202MOL0     H27208   0.984   8.657   5.526  0.8976 -0.7899 -0.2261
  202MOL0     H27209   1.152   8.502   5.450 -0.0201  1.2404  0.4382
  202MOL0     H27210   0.992   8.429   5.450 -0.1523  1.2914 -1.2342
  202MOL0     H27211   1.129   8.387   5.697 -2.5677  0.0067  0.3229
  202MOL0     H27212   1.059   8.257   5.585 -0.6315 -0.4014  1.5336
  202MOL0     H27213   1.256   8.294   5.437  2.5649 -4.2357  0.4674
  202MOL0     H27214   1.319   8.385   5.587 -0.1234 -1.5516  3.5171
  202MOL0     H27215   1.298   8.186   5.719 -1.0160  2.8493 -1.3637
  202MOL0     H27216   1.241   8.093   5.585  1.5289 -0.9659 -2.7163
  202MOL0     H27217   1.533   8.208   5.587  0.6725 -0.2655 -2.0763
  202MOL0     H27218   1.444   8.152   5.446 -1.8657 -0.4016 -0.0027
  202MOL0     H27219   1.491   7.962   5.682  0.5367  0.0992 -1.1247
  202MOL0     H27220   1.404   7.925   5.545 -0.9153 -0.2364  1.9936
  202MOL0     H27221   1.715   7.844   5.672 -4.7812 -1.8877 -0.1921
  202MOL0     H27222   1.988   7.813   5.463  0.2170  0.4245  3.3899
  202MOL0     H27223   1.919   7.734   5.602 -0.9472  0.1317  1.2562
  202MOL0     H27224   1.826   7.546   5.463  0.2657  0.4623  1.5060
  202MOL0     H27225   1.858   7.630   5.314 -3.4905  0.2353  1.1421
  202MOL0     H27226   2.032   7.491   5.509  0.0321  1.1525  0.5229
  202MOL0     H27227   2.106   7.629   5.421 -0.5442  0.9152 -1.1255
  202MOL0     H27228   2.141   7.488   5.235  0.4659 -1.3182  0.7315
  202MOL0     H27229   1.961   7.473   5.218 -0.9340  1.7149  0.7827
  202MOL0     H27230   1.855   7.257   5.147 -2.6393  1.2225 -0.2111
  202MOL0     H27231   1.627   7.176   5.238 -0.1598  0.2278  0.3771
  202MOL0     H27232   1.285   7.057   5.491 -0.8295  0.7993  0.0817
  202MOL0     H27233   1.071   7.095   5.592 -0.8318 -0.5134  1.4763
  202MOL0     H27234   0.918   7.317   5.971  0.7727  2.8608  0.6782
  202MOL0     H27235   1.075   7.372   5.928 -3.2141  3.1448  0.6961
  202MOL0     H27236   0.953   7.496   5.784  1.7349  0.2581 -0.8634
  202MOL0     H27237   1.010   7.374   5.685  1.8566 -1.0543  1.8007
  202MOL0     H27238   0.810   7.230   5.715 -1.0922 -0.5251  0.7282
  202MOL0     H27239   0.738   7.354   5.824 -0.1894 -0.1131 -0.5068
  202MOL0     H27240   0.780   7.382   5.533 -1.8616 -3.6961  0.8216
  202MOL0     H27241   0.714   7.521   5.633 -2.6884 -0.5049 -0.1717
  202MOL0     H27242   0.528   7.431   5.551 -3.4838  0.0566  2.2440
  202MOL0     H27243   0.537   7.354   5.709  2.3183  0.1756  1.0991
  202MOL0     H27244   0.607   7.146   5.608  0.7854 -0.2285 -0.2002
  202MOL0     H27245   0.459   7.205   5.537  0.1409  0.8431 -1.7393
  202MOL0     H27246   0.568   7.106   5.370  0.2560 -0.4168  2.7639
  202MOL0     H27247   0.721   7.179   5.400  0.8400 -0.3688  1.8982
  202MOL0     H27248   0.601   7.405   5.320  1.6132 -0.5411 -1.0725
  202MOL0     H27249   0.622   7.271   5.210 -0.7397 -1.8633 -0.0512
  202MOL0     H27250   1.262   7.255   5.940  0.0311 -1.7355 -0.2858
  202MOL0     H27251   1.474   7.240   5.836 -1.2313 -0.3759  1.8607
  202MOL0     H27252   1.774   7.188   5.635 -0.7761 -1.5332 -1.2449
  202MOL0     H27253   1.992   7.280   5.555  0.7003  1.5951 -0.8221
  202MOL0     H27254   0.902   8.499   5.954 -2.2047  0.3001  1.7526
  202MOL0     H27255   1.036   8.547   6.166 -0.2003  0.7232  0.4116
  202MOL0     H27256   1.123   9.008   6.439  0.9830  0.7778  1.0643
  202MOL0     H27257   1.181   9.076   6.673 -1.2424  0.9261 -0.0160
  202MOL0     H27258   0.998   8.869   6.999  1.5316 -2.2505 -0.7744
  202MOL0     H27259   1.079   8.999   7.077  0.8815 -0.1082 -1.4298
  202MOL0     H27260   1.296   8.882   7.067  0.0591 -1.0191  1.3912
  202MOL0     H27261   1.200   8.743   7.006 -1.4505 -2.0218  3.2814
  202MOL0     H27262   1.076   8.711   7.198 -1.0036  0.9858 -2.8926
  202MOL0     H27263   1.140   8.858   7.284 -0.8860 -1.0586  1.1722
  202MOL0     H27264   1.231   8.640   7.355 -3.3619  0.5020 -0.3132
  202MOL0     H27265   1.278   8.607   7.194 -1.7817 -2.4626  3.0959
  202MOL0     H27266   1.620   8.811   7.313  0.1117 -0.6493 -2.8335
  202MOL0     H27267   0.996   8.722   6.820  2.2357 -1.1022 -0.0701
  202MOL0     H27268   0.804   8.681   6.580 -0.5375  1.3415  1.6007
  202MOL0     H27269   0.930   8.567   6.519 -1.8876 -1.4550  0.9694
  202MOL0     H27270   0.887   8.581   6.694 -5.8629  3.4748  1.7368
  203MOL0     O27271  10.469   6.561   0.926 -0.1029 -0.9254  0.1637
  203MOL0     C27272  10.501   6.439   0.938 -0.2507 -0.4032 -0.3168
  203MOL0     O27273  10.586   6.378   0.856  0.3408  0.9248  0.4547
  203MOL0     C27274  10.673   6.439   0.771  0.5712 -0.9641  0.0036
  203MOL0     C27275  10.722   6.567   0.778 -0.5105  0.4430 -0.3851
  203MOL0     C27276  10.823   6.614   0.697 -0.4904 -0.0456 -0.1661
  203MOL0     C27277  10.883   6.532   0.603  0.7638  0.6307 -1.3515
  203MOL0     O27278  10.977   6.577   0.510  0.0681  0.5132  0.0859
  203MOL0     C27279  10.920   6.688   0.435  0.6667  0.4884  0.1910
  203MOL0     C27280  11.016   6.720   0.321 -0.5200 -0.2103  0.2789
  203MOL0     C27281  10.949   6.820   0.220 -0.5504 -0.2628  0.0590
  203MOL0     C27282  10.849   6.926   0.291  0.1580  0.5643 -0.2557
  203MOL0     C27283  10.804   7.024   0.175  0.0052  0.1503 -0.2728
  203MOL0     C27284  10.709   7.134   0.225  0.0735  0.7291  0.7004
  203MOL0     C27285  10.661   7.213   0.109  1.0326 -0.5093  0.6531
  203MOL0     C27286  10.531   7.283   0.142 -0.4451 -0.0089  0.4595
  203MOL0     N27287  10.462   7.341   0.024  0.7002  0.3902  1.1150
  203MOL0     C27288  10.374   7.281  -0.058  0.9607  0.3971  1.1599
  203MOL0     C27289  10.339   7.372  -0.153 -0.8566 -0.2307 -1.3914
  203MOL0     C27290  10.230   7.354  -0.247  0.6293  1.0995 -0.5773
  203MOL0     C27291  10.105   7.443  -0.221 -0.2114  0.2448 -0.0070
  203MOL0     C27292  10.131   7.577  -0.286 -0.7327 -0.3922 -0.4433
  203MOL0     C27293  10.027   7.678  -0.250 -0.2274  0.0578 -0.0850
  203MOL0     O27294  10.052   7.804  -0.305  0.4747 -0.4700  0.3492
  203MOL0     C27295   9.984   7.847  -0.418 -0.1140 -0.3596 -0.2880
  203MOL0     C27296   9.906   7.762  -0.499 -0.2580 -0.3782  0.2932
  203MOL0     C27297   9.845   7.813  -0.613 -1.1060  0.0163  0.6518
  203MOL0     C27298   9.861   7.954  -0.642 -0.6928 -0.2536  1.1499
  203MOL0     C27299   9.805   8.007  -0.780  0.6891 -0.0790  0.2057
  203MOL0     O27300   9.795   8.146  -0.802 -0.0436 -0.6785  0.4621
  203MOL0     C27301   9.769   8.197  -0.929 -0.2213 -0.8610  0.3136
  203MOL0     C27302   9.671   8.294  -0.936  0.5658 -0.4720  1.1714
  203MOL0     C27303   9.646   8.359  -1.060  0.8879 -0.0082 -0.7152
  203MOL0     C27304   9.703   8.323  -1.181  0.3712 -0.0550 -0.2425
  203MOL0     O27305   9.663   8.390  -1.287 -0.8355 -0.1305  0.5995
  203MOL0     C27306   9.727   8.371  -1.413  0.0458  0.5445  0.0869
  203MOL0     C27307   9.671   8.239  -1.485 -0.4536 -0.1399  0.5416
  203MOL0     C27308   9.556   8.278  -1.572  0.1880 -0.5682  0.6250
  203MOL0     C27309   9.532   8.179  -1.681 -1.0428  0.6952  0.3518
  203MOL0     C27310   9.460   8.045  -1.638 -0.1901 -0.8504 -0.4363
  203MOL0     C27311   9.504   7.931  -1.725 -0.8627  0.2372  0.9507
  203MOL0     C27312   9.425   7.943  -1.853 -0.1126 -0.8567  0.3742
  203MOL0     C27313   9.495   7.885  -1.971  0.1503 -0.9439  0.4810
  203MOL0    Cl27314   9.511   7.707  -1.935  0.2621  0.4192  0.5665
  203MOL0     C27315   9.791   8.209  -1.172  0.3792  0.6658  0.3188
  203MOL0     C27316   9.832   8.145  -1.048  0.2582  0.3360 -0.6224
  203MOL0     O27317   9.773   7.927  -0.866  1.1718 -0.4551  0.7089
  203MOL0     C27318   9.938   8.042  -0.561 -0.8158  0.8313  0.4854
  203MOL0     C27319  10.013   7.978  -0.457 -0.2063  0.5478  0.9305
  203MOL0     N27320  10.406   7.492  -0.129 -1.4056  0.6794  0.2778
  203MOL0     N27321  10.480   7.474  -0.021 -0.4765 -0.7276  0.2970
  203MOL0     C27322  10.828   6.406   0.586 -0.3690 -0.6715  0.1520
  203MOL0     C27323  10.721   6.357   0.668 -1.2523  0.2941  0.0140
  203MOL0     C27324  10.448   6.375   1.055  0.2483  1.4910  0.1358
  203MOL0     C27325  10.502   6.247   1.078  0.3219 -0.4673  0.0620
  203MOL0     C27326  10.472   6.189   1.198 -0.0726  0.0113 -0.6518
  203MOL0     C27327  10.380   6.240   1.294  0.0402  0.4524 -0.5934
  203MOL0     O27328  10.363   6.175   1.417 -0.8797  0.3045  0.0768
  203MOL0     C27329  10.239   6.181   1.489 -0.2574  0.9827 -0.3163
  203MOL0     C27330  10.158   6.049   1.485 -0.1380 -0.1148  0.7533
  203MOL0     C27331  10.240   5.921   1.495 -0.6186  0.7771  0.6064
  203MOL0     C27332  10.145   5.796   1.501  0.6395 -1.3860 -0.1282
  203MOL0     C27333  10.095   5.781   1.635  0.1252 -0.9803  0.6626
  203MOL0     C27334  10.025   5.773   1.731  0.3741 -0.3225 -0.7445
  203MOL0     C27335  10.321   6.361   1.256  0.2512 -0.1054 -1.0076
  203MOL0     C27336  10.347   6.428   1.140 -0.7761  0.1091  0.5026
  203MOL0     C27337  10.265   6.563   1.115 -0.0371 -0.2304 -0.1525
  203MOL0     H27338  10.689   6.640   0.852  1.5038  1.2741 -0.2485
  203MOL0     H27339  10.854   6.718   0.701  0.6390 -0.3962  1.5510
  203MOL0     H27340  10.829   6.646   0.390  0.2402  0.2084  1.2766
  203MOL0     H27341  10.905   6.772   0.503 -1.4247 -0.2395  0.7013
  203MOL0     H27342  11.053   6.636   0.261  2.1476 -0.0744  1.5544
  203MOL0     H27343  11.104   6.775   0.357  0.8812 -2.8894  1.2258
  203MOL0     H27344  10.891   6.756   0.153  1.4302  0.2462 -2.2656
  203MOL0     H27345  11.026   6.875   0.165 -1.4927  0.5717 -0.4354
  203MOL0     H27346  10.761   6.879   0.336  1.4238 -2.4808 -0.7524
  203MOL0     H27347  10.909   6.976   0.368 -1.2883  1.3904  0.3697
  203MOL0     H27348  10.894   7.072   0.135 -0.7685  2.0597  0.1905
  203MOL0     H27349  10.763   6.970   0.088 -1.8969  0.0213  0.6637
  203MOL0     H27350  10.622   7.085   0.269 -2.1605  3.9096  0.1088
  203MOL0     H27351  10.752   7.194   0.306 -0.8246 -0.5285  2.1610
  203MOL0     H27352  10.636   7.154   0.020  0.9429  2.2333 -1.2774
  203MOL0     H27353  10.738   7.284   0.076  0.0847  0.4065  0.3671
  203MOL0     H27354  10.456   7.207   0.167 -0.2038  0.0760  1.4725
  203MOL0     H27355  10.541   7.362   0.217 -0.5446  2.6406 -2.1296
  203MOL0     H27356  10.347   7.177  -0.043  0.9806  0.2087 -0.0358
  203MOL0     H27357  10.265   7.373  -0.349  2.1166  1.0862 -0.1055
  203MOL0     H27358  10.196   7.250  -0.239  1.9977  0.6624 -0.0225
  203MOL0     H27359  10.022   7.401  -0.278 -1.9082  2.1664  0.9404
  203MOL0     H27360  10.090   7.446  -0.113  1.1024 -2.4512  0.3174
  203MOL0     H27361  10.127   7.561  -0.394 -0.4653 -1.5372 -0.2912
  203MOL0     H27362  10.226   7.621  -0.255 -0.5538 -1.3487  0.4113
  203MOL0     H27363  10.040   7.686  -0.141 -0.9690 -0.2033  0.0272
  203MOL0     H27364   9.931   7.629  -0.272 -0.9199  0.9930  0.7526
  203MOL0     H27365   9.893   7.655  -0.489 -0.0670 -0.6420 -1.9774
  203MOL0     H27366   9.787   7.740  -0.670  0.3939 -0.4647 -0.3028
  203MOL0     H27367   9.617   8.342  -0.855 -0.3693  1.7335 -0.6704
  203MOL0     H27368   9.582   8.447  -1.055  3.1798  1.7357  2.9300
  203MOL0     H27369   9.727   8.452  -1.486 -0.2776  0.2839 -0.2103
  203MOL0     H27370   9.834   8.361  -1.396  0.1727  0.2467 -0.8272
  203MOL0     H27371   9.748   8.186  -1.542 -1.1433 -4.2539  2.9609
  203MOL0     H27372   9.651   8.163  -1.408 -0.1512 -0.8769 -0.0951
  203MOL0     H27373   9.468   8.295  -1.509 -0.6116  0.3671 -0.6965
  203MOL0     H27374   9.582   8.371  -1.623  0.0115 -1.3396 -0.9258
  203MOL0     H27375   9.627   8.162  -1.732 -0.1253  1.6307  1.6734
  203MOL0     H27376   9.462   8.215  -1.757  0.1210  0.7790 -0.7088
  203MOL0     H27377   9.351   8.057  -1.640 -0.0698  2.4296  2.4200
  203MOL0     H27378   9.496   8.025  -1.536  1.3914 -2.0866 -1.1973
  203MOL0     H27379   9.610   7.951  -1.746 -1.6346  2.9512 -0.8506
  203MOL0     H27380   9.501   7.824  -1.699 -0.0310 -0.7058 -2.2865
  203MOL0     H27381   9.411   8.047  -1.885 -3.4821 -1.1982  0.3404
  203MOL0     H27382   9.325   7.901  -1.837  0.4770 -1.9557  1.3562
  203MOL0     H27383   9.439   7.915  -2.060  0.4245  0.0560  0.6296
  203MOL0     H27384   9.599   7.918  -1.981 -0.3038  0.1320 -1.0854
  203MOL0     H27385   9.836   8.167  -1.261 -0.1489  0.2927  0.2235
  203MOL0     H27386   9.897   8.058  -1.046 -1.0110 -0.6403  1.4713
  203MOL0     H27387   9.970   8.141  -0.592 -0.1835  0.7478  0.8592
  203MOL0     H27388  10.081   8.040  -0.398  2.4557  1.0879 -2.4075
  203MOL0     H27389  10.871   6.348   0.505 -1.7175 -0.1409 -0.9894
  203MOL0     H27390  10.685   6.263   0.629  3.1040 -2.1120  1.1208
  203MOL0     H27391  10.578   6.198   1.019  0.1351  3.2196 -3.7590
  203MOL0     H27392  10.528   6.102   1.231 -2.3883 -0.9642  0.9828
  203MOL0     H27393  10.175   6.264   1.455 -1.5330 -0.3151 -1.1937
  203MOL0     H27394  10.259   6.211   1.592 -1.9325  0.7600  0.1076
  203MOL0     H27395  10.099   6.050   1.393 -1.3982  2.6967  1.4631
  203MOL0     H27396  10.076   6.047   1.557 -0.8315 -1.0285 -0.0332
  203MOL0     H27397  10.323   5.913   1.566 -1.4256  0.0376  1.4968
  203MOL0     H27398  10.290   5.919   1.398  1.1188  0.8469  1.4679
  203MOL0     H27399  10.064   5.792   1.428 -0.1757 -5.2881  0.7666
  203MOL0     H27400  10.202   5.709   1.467  1.0340 -1.2395  0.1566
  203MOL0     H27401   9.951   5.773   1.808 -0.6578  0.4798 -1.6879
  203MOL0     H27402  10.254   6.418   1.320  0.8172  1.6926 -1.9707
  203MOL0     H27403  10.172   6.572   1.172 -1.0233  2.4298 -1.9571
  203MOL0     H27404  10.338   6.642   1.134 -0.8601  0.8983 -1.4509
  203MOL0     H27405  10.235   6.575   1.010  1.6066 -0.8539 -0.7220
  204MOL0     O27406   1.973   1.729   4.138 -0.1283 -0.3051  0.0557
  204MOL0     C27407   2.044   1.628   4.150 -0.0378 -0.3772 -0.6579
  204MOL0     O27408   2.007   1.502   4.193  0.6023  0.1689 -0.2493
  204MOL0     C27409   1.880   1.447   4.166  0.3106  0.2889 -0.1279
  204MOL0     C27410   1.836   1.339   4.247 -1.5673 -0.7063  0.6338
  204MOL0     C27411   1.711   1.281   4.229 -0.6375  0.5052 -0.5149
  204MOL0     C27412   1.638   1.306   4.118  0.0360 -0.1935 -0.3026
  204MOL0     O27413   1.519   1.243   4.114 -0.4488 -0.0956  0.5000
  204MOL0     C27414   1.448   1.235   3.985 -0.3169  0.3611  0.9971
  204MOL0     C27415   1.405   1.088   3.970  0.6403 -0.0606 -0.4921
  204MOL0     C27416   1.328   1.050   3.842 -0.0058  0.1725  0.1447
  204MOL0     C27417   1.265   0.914   3.894 -0.1504  0.5722 -0.2433
  204MOL0     C27418   1.209   0.824   3.785 -0.4680 -0.4070  0.1293
  204MOL0     C27419   1.118   0.722   3.846 -0.7407  0.3748  0.0046
  204MOL0     C27420   1.180   0.615   3.942 -0.9333 -0.0057 -0.4056
  204MOL0     C27421   1.296   0.530   3.882  0.4063 -0.5001 -0.2572
  204MOL0     N27422   1.244   0.429   3.787 -0.1392 -0.0817  0.1409
  204MOL0     C27423   1.208   0.442   3.653  0.2765 -0.4999 -1.0572
  204MOL0     C27424   1.165   0.314   3.620 -0.0667 -0.4123 -0.3716
  204MOL0     C27425   1.115   0.267   3.486  1.0760  0.0872  0.0730
  204MOL0     C27426   1.014   0.157   3.507 -0.2232  0.2397  0.1541
  204MOL0     C27427   0.970   0.085   3.383  0.0326  0.5339  0.1070
  204MOL0     C27428   0.884  -0.030   3.428  0.5930  0.8050 -0.2886
  204MOL0     O27429   0.806  -0.082   3.317  0.0609  0.1384  0.3643
  204MOL0     C27430   0.876  -0.152   3.218  0.0574 -0.2243 -0.2883
  204MOL0     C27431   1.003  -0.201   3.232 -0.3275  0.5472  0.4295
  204MOL0     C27432   1.059  -0.277   3.132 -0.4828 -0.3677  0.3313
  204MOL0     C27433   0.990  -0.309   3.019 -0.7674 -0.3095 -0.5909
  204MOL0     C27434   1.054  -0.389   2.908  0.1409  1.0263  0.0606
  204MOL0     O27435   0.971  -0.436   2.805  0.7134  0.4090 -0.8946
  204MOL0     C27436   1.021  -0.511   2.706 -0.7481 -0.0422  0.5998
  204MOL0     C27437   1.142  -0.500   2.638  0.1282  0.1983 -0.2145
  204MOL0     C27438   1.171  -0.578   2.531 -0.1762  0.8849  0.7350
  204MOL0     C27439   1.072  -0.662   2.474  0.6524  0.1702 -0.2799
  204MOL0     O27440   1.112  -0.724   2.359  0.7056 -0.0544 -0.6484
  204MOL0     C27441   1.016  -0.731   2.248  0.1500  0.2818  0.4218
  204MOL0     C27442   1.090  -0.702   2.118 -0.7644 -0.7366 -0.5723
  204MOL0     C27443   1.131  -0.556   2.094 -0.0933  0.4485 -0.0414
  204MOL0     C27444   1.157  -0.560   1.939  0.8529  0.0519 -0.9602
  204MOL0     C27445   1.192  -0.413   1.906  0.5824  0.4451 -0.0990
  204MOL0     C27446   1.246  -0.421   1.761 -0.6683 -0.7194 -0.5747
  204MOL0     C27447   1.140  -0.426   1.660 -0.4366  0.4088 -0.0693
  204MOL0     C27448   1.188  -0.496   1.541  0.3383 -0.9965 -0.4071
  204MOL0    Cl27449   1.047  -0.550   1.425 -0.1929 -0.1786 -0.2859
  204MOL0     C27450   0.951  -0.680   2.535  1.6098  0.6096 -0.3679
  204MOL0     C27451   0.933  -0.615   2.659 -0.1337  0.5031  0.0945
  204MOL0     O27452   1.176  -0.403   2.916  0.6332  0.0743  0.1455
  204MOL0     C27453   0.860  -0.254   3.004  0.1972 -0.1421 -0.6967
  204MOL0     C27454   0.803  -0.174   3.097 -0.5866 -0.8006 -0.8311
  204MOL0     N27455   1.192   0.232   3.724 -0.0262 -0.6837 -0.2491
  204MOL0     N27456   1.227   0.302   3.823 -0.4290  0.2597  0.0282
  204MOL0     C27457   1.676   1.414   4.036 -0.5636  0.6253  0.0211
  204MOL0     C27458   1.797   1.480   4.058  0.2770  0.5288  0.1429
  204MOL0     C27459   2.191   1.647   4.118  0.3153  0.8365 -0.2303
  204MOL0     C27460   2.262   1.532   4.101 -0.0067  0.8454  0.4515
  204MOL0     C27461   2.401   1.533   4.072 -0.4268  0.8193 -0.0566
  204MOL0     C27462   2.472   1.653   4.053  0.9862  0.4814 -0.6006
  204MOL0     O27463   2.608   1.677   4.046 -0.3498  0.0032  0.5546
  204MOL0     C27464   2.688   1.570   3.998 -0.7108 -0.1789 -0.6431
  204MOL0     C27465   2.774   1.523   4.108 -0.1923 -0.3259 -0.4106
  204MOL0     C27466   2.901   1.620   4.150 -0.1514 -0.6600 -0.8639
  204MOL0     C27467   2.851   1.762   4.195 -0.1754  1.0854  0.0164
  204MOL0     C27468   2.956   1.854   4.262  0.4650 -0.0252 -0.1678
  204MOL0     C27469   3.041   1.917   4.324 -0.0746  0.3071 -1.4692
  204MOL0     C27470   2.397   1.768   4.066 -0.2345 -0.0263  0.3771
  204MOL0     C27471   2.260   1.766   4.099 -0.9109  0.2912 -0.8558
  204MOL0     C27472   2.195   1.906   4.108  0.2674 -0.1226  0.1050
  204MOL0     H27473   1.888   1.301   4.334  3.7778 -0.5415 -2.0836
  204MOL0     H27474   1.672   1.215   4.306 -1.1103 -0.0356 -1.1972
  204MOL0     H27475   1.360   1.300   3.980  0.7741  1.9009 -3.9763
  204MOL0     H27476   1.514   1.250   3.899  4.2339 -2.7942  3.4895
  204MOL0     H27477   1.339   1.063   4.054  0.8006  0.1658 -0.3020
  204MOL0     H27478   1.498   1.031   3.966  1.0918  0.6028  0.4860
  204MOL0     H27479   1.403   1.048   3.762  0.8810 -1.0572  0.9716
  204MOL0     H27480   1.245   1.116   3.817 -0.3156 -1.0104 -2.1399
  204MOL0     H27481   1.338   0.858   3.953 -1.5785 -1.2796 -0.1257
  204MOL0     H27482   1.186   0.932   3.967 -2.8463 -0.2375 -2.7644
  204MOL0     H27483   1.156   0.888   3.714  1.6133  3.8849  2.0655
  204MOL0     H27484   1.292   0.782   3.729  0.2668 -0.4637  1.2355
  204MOL0     H27485   1.034   0.769   3.898 -0.2423  1.6448 -0.3053
  204MOL0     H27486   1.072   0.663   3.766 -1.4659 -1.5765  1.7787
  204MOL0     H27487   1.101   0.546   3.970 -0.0869 -0.8495 -0.0411
  204MOL0     H27488   1.212   0.670   4.032 -1.3908  1.0410 -0.8742
  204MOL0     H27489   1.377   0.592   3.843 -0.0023 -0.5325 -1.1833
  204MOL0     H27490   1.338   0.471   3.964 -0.0286  1.8180  1.7301
  204MOL0     H27491   1.224   0.536   3.600  2.2571  1.1584  2.1675
  204MOL0     H27492   1.069   0.355   3.440 -0.2913 -1.7170 -2.2463
  204MOL0     H27493   1.194   0.224   3.422  1.4075  0.0398  0.5140
  204MOL0     H27494   1.050   0.086   3.582 -1.3307 -2.1097 -1.4138
  204MOL0     H27495   0.936   0.199   3.571 -1.8921 -4.5142  1.6549
  204MOL0     H27496   1.052   0.046   3.322  0.3955  1.5165 -0.0639
  204MOL0     H27497   0.912   0.154   3.322 -0.8482 -0.9674 -0.7824
  204MOL0     H27498   0.810   0.013   3.496  0.0321  2.0686 -1.6278
  204MOL0     H27499   0.940  -0.105   3.484  1.5936  0.1486 -2.0888
  204MOL0     H27500   1.071  -0.173   3.312  1.1480 -3.2486  0.6828
  204MOL0     H27501   1.163  -0.309   3.132 -0.5802 -0.7224 -0.6659
  204MOL0     H27502   1.223  -0.439   2.678  0.9101 -1.2852  0.5663
  204MOL0     H27503   1.272  -0.592   2.493  0.1365 -1.0782  2.1191
  204MOL0     H27504   0.986  -0.836   2.240  0.8141 -0.0182  1.6765
  204MOL0     H27505   0.935  -0.658   2.257  1.2587  1.3189  2.7332
  204MOL0     H27506   1.181  -0.763   2.117 -0.4707 -0.3281  0.1489
  204MOL0     H27507   1.033  -0.742   2.034 -0.6907 -0.8176 -0.5840
  204MOL0     H27508   1.048  -0.487   2.110  0.8025  1.2379  1.4024
  204MOL0     H27509   1.217  -0.534   2.158 -0.3038  2.5043 -0.3941
  204MOL0     H27510   1.060  -0.588   1.896  0.8638 -0.1418 -0.8619
  204MOL0     H27511   1.232  -0.636   1.915  0.1047 -0.2018 -2.5976
  204MOL0     H27512   1.271  -0.378   1.973  2.3530  1.6664 -2.6345
  204MOL0     H27513   1.104  -0.348   1.910  1.7712  2.1099  0.0100
  204MOL0     H27514   1.314  -0.335   1.751  0.0681 -1.3840 -1.4462
  204MOL0     H27515   1.312  -0.508   1.755 -1.3758 -1.3877  0.8136
  204MOL0     H27516   1.112  -0.321   1.647 -0.8411  0.5184  1.4539
  204MOL0     H27517   1.056  -0.484   1.700 -1.0814  0.1996 -1.6820
  204MOL0     H27518   1.248  -0.419   1.491 -1.0184  1.9364  2.1424
  204MOL0     H27519   1.246  -0.583   1.572  1.1401 -0.5361 -0.6009
  204MOL0     H27520   0.875  -0.744   2.492 -1.8041  3.4316  0.9490
  204MOL0     H27521   0.836  -0.622   2.707  0.4578 -0.5427  1.1679
  204MOL0     H27522   0.794  -0.271   2.919 -0.5304  1.1312 -0.4030
  204MOL0     H27523   0.707  -0.135   3.063 -1.3926 -2.2479 -0.3271
  204MOL0     H27524   1.620   1.455   3.953 -3.6452 -0.6308  1.3083
  204MOL0     H27525   1.824   1.552   3.980 -1.5627  0.3310 -0.7373
  204MOL0     H27526   2.213   1.435   4.105  0.4507  0.5439 -0.7067
  204MOL0     H27527   2.455   1.440   4.078  0.4547  1.3233  0.0648
  204MOL0     H27528   2.734   1.606   3.906  0.4557  1.8024  0.6586
  204MOL0     H27529   2.635   1.478   3.969 -1.0820  0.7171 -3.0843
  204MOL0     H27530   2.821   1.433   4.066 -2.0126  0.3978 -4.5486
  204MOL0     H27531   2.717   1.497   4.197 -0.6547  0.2867 -0.5230
  204MOL0     H27532   2.984   1.624   4.079 -0.5626  1.6831 -1.2999
  204MOL0     H27533   2.948   1.572   4.236  0.7928  2.5439  0.5728
  204MOL0     H27534   2.837   1.805   4.096  2.2202 -3.8568 -2.8636
  204MOL0     H27535   2.758   1.747   4.251 -1.5861  1.6865 -2.0604
  204MOL0     H27536   3.110   1.972   4.385 -1.6196 -0.2773  0.9929
  204MOL0     H27537   2.449   1.862   4.062 -2.1782  1.2017  1.9329
  204MOL0     H27538   2.270   1.984   4.091  0.0569 -0.3847 -2.3824
  204MOL0     H27539   2.132   1.901   4.019 -1.2323 -0.5559  1.1522
  204MOL0     H27540   2.136   1.912   4.200  0.4512  2.7036  0.1109
  205MOL0     O27541   1.552   9.319   5.686 -0.4041 -0.8346 -0.5482
  205MOL0     C27542   1.468   9.399   5.641 -0.4636 -0.2478  0.2287
  205MOL0     O27543   1.450   9.435   5.502  0.6672 -0.8469  0.2882
  205MOL0     C27544   1.535   9.394   5.409 -1.7542  0.5240 -0.5313
  205MOL0     C27545   1.529   9.264   5.361  0.1303 -0.5677  0.2508
  205MOL0     C27546   1.619   9.235   5.266 -0.5162 -0.0618 -0.0581
  205MOL0     C27547   1.715   9.326   5.214  0.7275 -0.5689  0.5369
  205MOL0     O27548   1.811   9.287   5.127  0.3000 -0.0638 -0.9765
  205MOL0     C27549   1.756   9.283   4.992  0.6763  0.3582 -0.3190
  205MOL0     C27550   1.873   9.309   4.887  0.1179 -0.3311 -0.1694
  205MOL0     C27551   1.815   9.318   4.746 -0.9234 -0.4245  0.7996
  205MOL0     C27552   1.929   9.342   4.646 -0.2399 -0.4504  0.4637
  205MOL0     C27553   1.869   9.289   4.511 -0.3058 -0.1703  1.1863
  205MOL0     C27554   1.963   9.308   4.383  0.5372 -0.0147 -0.8541
  205MOL0     C27555   1.905   9.252   4.254 -0.3274 -0.6134  0.4163
  205MOL0     C27556   1.846   9.382   4.180 -0.4222 -0.1154  0.6413
  205MOL0     N27557   1.775   9.334   4.065  0.3488 -0.2785 -0.9622
  205MOL0     C27558   1.659   9.272   4.071  0.5620  0.0424 -0.2394
  205MOL0     C27559   1.640   9.235   3.941  0.4971  0.1708  0.2148
  205MOL0     C27560   1.524   9.152   3.905 -0.0924 -0.1921  0.7227
  205MOL0     C27561   1.531   9.117   3.752 -0.0808 -0.3180  1.3061
  205MOL0     C27562   1.413   9.023   3.720  0.9833 -0.4695  0.1210
  205MOL0     C27563   1.435   8.884   3.780  0.5794 -0.1378 -0.3986
  205MOL0     O27564   1.326   8.797   3.765 -0.0435  0.1940 -0.4725
  205MOL0     C27565   1.278   8.779   3.639 -0.3782  0.2105 -0.2747
  205MOL0     C27566   1.361   8.733   3.530  0.0447  0.2806 -1.1582
  205MOL0     C27567   1.305   8.711   3.404  0.3366  0.3969  0.3331
  205MOL0     C27568   1.173   8.736   3.389  1.4027  0.3664  0.3208
  205MOL0     C27569   1.108   8.700   3.254  0.1066 -0.8687 -0.7962
  205MOL0     O27570   1.194   8.670   3.153  0.6449  0.3928 -0.1239
  205MOL0     C27571   1.136   8.625   3.034  0.4774  0.2738 -0.0750
  205MOL0     C27572   1.079   8.713   2.940 -0.1225 -0.4595 -0.5486
  205MOL0     C27573   1.032   8.668   2.818 -0.2067  0.4099 -0.0408
  205MOL0     C27574   1.041   8.534   2.789 -0.8512  0.9576 -0.0700
  205MOL0     O27575   0.998   8.474   2.672 -0.5186  0.6791  0.6087
  205MOL0     C27576   1.018   8.541   2.546  0.6243  0.0841 -0.4266
  205MOL0     C27577   1.047   8.438   2.432 -0.2759 -0.8556  0.4664
  205MOL0     C27578   0.936   8.346   2.412 -1.0080  0.0335 -0.4245
  205MOL0     C27579   0.791   8.395   2.433  0.1059 -0.7800  0.5052
  205MOL0     C27580   0.681   8.306   2.370  0.3959 -0.2644 -1.2684
  205MOL0     C27581   0.544   8.379   2.384 -1.0663  0.8257  0.1032
  205MOL0     C27582   0.528   8.453   2.253 -0.0432 -0.3449  0.0148
  205MOL0     C27583   0.387   8.510   2.245 -0.7464 -0.3023  0.8794
  205MOL0    Cl27584   0.271   8.406   2.176  0.2997  0.3739 -0.2339
  205MOL0     C27585   1.095   8.441   2.882  0.1844 -1.2374  0.2223
  205MOL0     C27586   1.141   8.487   3.002 -0.4333 -0.1733  0.2129
  205MOL0     O27587   0.986   8.687   3.255  0.2152  0.0427  0.5463
  205MOL0     C27588   1.091   8.774   3.499 -0.0246 -0.1947 -0.2884
  205MOL0     C27589   1.144   8.795   3.624 -0.0231 -0.0485 -0.1431
  205MOL0     N27590   1.744   9.276   3.862  0.0130 -0.5662 -0.4206
  205MOL0     N27591   1.822   9.339   3.939 -0.2043  0.0451 -0.3878
  205MOL0     C27592   1.725   9.448   5.281 -0.6153 -0.1790  0.2713
  205MOL0     C27593   1.631   9.489   5.377 -0.8439  1.4061 -0.3190
  205MOL0     C27594   1.370   9.459   5.721 -0.3131 -0.5237 -0.5074
  205MOL0     C27595   1.274   9.543   5.659 -0.0746  0.2847 -0.1460
  205MOL0     C27596   1.175   9.605   5.729  0.2094  0.9119  0.9131
  205MOL0     C27597   1.165   9.585   5.864  0.4798  0.0535 -1.5399
  205MOL0     O27598   1.072   9.655   5.937  0.8667  0.6708  0.5168
  205MOL0     C27599   0.976   9.753   5.882 -0.4317 -0.4250 -0.7940
  205MOL0     C27600   0.911   9.815   6.008 -0.7465  0.1197  0.4533
  205MOL0     C27601   1.006   9.912   6.078 -0.0202 -0.8040 -0.1818
  205MOL0     C27602   0.956   9.952   6.223  0.6140 -1.6277 -0.3609
  205MOL0     C27603   1.038  10.061   6.278 -0.1497 -0.2685  0.3341
  205MOL0     C27604   1.102  10.140   6.350  0.7786  0.3253  0.1117
  205MOL0     C27605   1.254   9.503   5.937 -0.0131  0.0824  0.2314
  205MOL0     C27606   1.349   9.439   5.866 -0.2631  0.3523 -0.7206
  205MOL0     C27607   1.446   9.354   5.947 -0.0379 -0.9376 -0.1393
  205MOL0     H27608   1.455   9.200   5.406 -1.9581  0.6986 -1.1845
  205MOL0     H27609   1.623   9.138   5.217  1.6304  1.4858 -3.2761
  205MOL0     H27610   1.698   9.190   4.984 -1.1136  1.3193  0.9080
  205MOL0     H27611   1.682   9.359   4.966  1.2092  1.1022  0.3014
  205MOL0     H27612   1.939   9.223   4.903  0.5512 -0.0441 -0.3994
  205MOL0     H27613   1.943   9.391   4.903  1.7741 -1.0128 -3.2189
  205MOL0     H27614   1.749   9.405   4.748 -2.4424 -1.4954 -0.3629
  205MOL0     H27615   1.752   9.234   4.714 -2.1558  0.6032  0.4501
  205MOL0     H27616   1.947   9.450   4.643  0.2842 -0.5198  0.9747
  205MOL0     H27617   2.023   9.297   4.679 -0.1169 -2.0225 -1.7754
  205MOL0     H27618   1.839   9.184   4.504 -0.5143 -0.0122 -3.9472
  205MOL0     H27619   1.785   9.353   4.481  1.9676  3.3867  1.8114
  205MOL0     H27620   1.974   9.415   4.361 -0.0963  0.0369 -0.9520
  205MOL0     H27621   2.058   9.263   4.412 -0.3684 -2.1992 -1.0673
  205MOL0     H27622   1.837   9.172   4.286 -0.2290  0.0248  2.3678
  205MOL0     H27623   1.977   9.199   4.191  1.0005  1.2443  0.3005
  205MOL0     H27624   1.774   9.439   4.239 -0.7140  4.1473 -3.2991
  205MOL0     H27625   1.921   9.455   4.150  3.0568 -1.6210  4.7260
  205MOL0     H27626   1.601   9.249   4.160  1.5027 -0.0503  0.3531
  205MOL0     H27627   1.538   9.062   3.966  3.6137  0.4683  1.1089
  205MOL0     H27628   1.429   9.203   3.924 -1.0112 -1.6077  0.0500
  205MOL0     H27629   1.517   9.201   3.683 -1.2992 -2.9222 -1.8492
  205MOL0     H27630   1.621   9.063   3.722 -0.6706 -0.4248 -0.3525
  205MOL0     H27631   1.407   9.018   3.611  3.2150  0.5788 -0.1061
  205MOL0     H27632   1.323   9.073   3.756  0.3420 -1.8674  0.4999
  205MOL0     H27633   1.450   8.904   3.886 -4.5698  2.4455  0.1186
  205MOL0     H27634   1.521   8.844   3.725  2.3885  4.4220 -1.3420
  205MOL0     H27635   1.465   8.718   3.560 -0.2141 -0.1910 -0.4673
  205MOL0     H27636   1.363   8.670   3.322 -2.8019  0.5481 -2.1706
  205MOL0     H27637   1.077   8.817   2.971 -1.1922 -0.7509  0.4438
  205MOL0     H27638   0.975   8.732   2.752 -0.7648  0.3876  0.4062
  205MOL0     H27639   0.934   8.608   2.526  0.0724 -0.4974 -0.0899
  205MOL0     H27640   1.101   8.612   2.553  0.9894 -0.2509 -1.2060
  205MOL0     H27641   1.067   8.495   2.341 -1.0615 -0.7675  0.3417
  205MOL0     H27642   1.141   8.384   2.446  0.2410 -0.0570  0.1176
  205MOL0     H27643   0.947   8.317   2.307 -1.4583  1.6761 -0.9629
  205MOL0     H27644   0.965   8.261   2.474  3.4279  2.0432  0.6543
  205MOL0     H27645   0.766   8.488   2.382  0.2836 -1.5463 -1.0130
  205MOL0     H27646   0.770   8.429   2.535  0.6985  0.3893  0.2607
  205MOL0     H27647   0.676   8.222   2.440  1.6685  0.7316  0.0837
  205MOL0     H27648   0.709   8.276   2.269 -1.3656 -0.6039 -1.6923
  205MOL0     H27649   0.469   8.301   2.396  0.1887 -0.3208  0.7632
  205MOL0     H27650   0.549   8.427   2.482 -0.2852 -1.9397  1.5177
  205MOL0     H27651   0.546   8.380   2.173  1.4060 -0.4999  0.4619
  205MOL0     H27652   0.610   8.526   2.255 -0.1040 -0.1638  4.1232
  205MOL0     H27653   0.354   8.538   2.346  0.1378 -3.0401  2.0098
  205MOL0     H27654   0.395   8.598   2.181  0.5788 -0.8891  0.1970
  205MOL0     H27655   1.120   8.338   2.859  1.3468 -1.2538  1.4476
  205MOL0     H27656   1.193   8.412   3.061  0.2291  0.2631  0.1910
  205MOL0     H27657   0.984   8.788   3.490  0.0513  0.1794 -0.6502
  205MOL0     H27658   1.075   8.816   3.705 -2.1681  2.5564 -2.4109
  205MOL0     H27659   1.806   9.511   5.246 -0.6296  0.2675  1.0137
  205MOL0     H27660   1.650   9.582   5.430  1.1049  1.6199 -1.2985
  205MOL0     H27661   1.282   9.566   5.553  3.3601 -0.7989 -0.2392
  205MOL0     H27662   1.117   9.674   5.669  2.2731  1.4806 -0.5726
  205MOL0     H27663   0.897   9.703   5.824  0.4490  1.0211 -3.3778
  205MOL0     H27664   1.039   9.827   5.832  0.1223  1.1599  2.0709
  205MOL0     H27665   0.880   9.732   6.074 -0.9470 -3.6728 -3.9144
  205MOL0     H27666   0.818   9.866   5.980 -1.3123 -1.4660 -0.7452
  205MOL0     H27667   1.018  10.003   6.018 -1.8617 -1.0697 -1.0138
  205MOL0     H27668   1.101   9.858   6.078  0.0148 -0.7558  0.7313
  205MOL0     H27669   0.848   9.968   6.233  0.5353 -0.8099 -2.1727
  205MOL0     H27670   0.979   9.866   6.287  3.3632  1.0742  2.6404
  205MOL0     H27671   1.164  10.209   6.403 -0.7427 -0.8002  3.7329
  205MOL0     H27672   1.244   9.495   6.045  1.4377  0.5671  0.4280
  205MOL0     H27673   1.475   9.265   5.890 -0.7300 -0.2496 -1.6119
  205MOL0     H27674   1.544   9.402   5.957 -0.5660  0.2639 -0.5713
  205MOL0     H27675   1.402   9.336   6.046  1.9052 -0.0359  0.9413
  206MOL0     O27676   9.631   4.184   7.267 -0.9979  0.9096  0.2376
  206MOL0     C27677   9.528   4.236   7.227 -0.4137  0.1257 -0.2537
  206MOL0     O27678   9.463   4.326   7.298  0.5317 -0.7744  0.2575
  206MOL0     C27679   9.513   4.356   7.422 -0.1961  0.0722 -0.2406
  206MOL0     C27680   9.493   4.269   7.534 -1.0390 -1.2007 -0.6639
  206MOL0     C27681   9.565   4.302   7.659 -0.0948 -0.1184  0.2251
  206MOL0     C27682   9.657   4.407   7.665  0.5613 -0.4230  1.7117
  206MOL0     O27683   9.709   4.427   7.781  0.2017  0.4508 -1.2981
  206MOL0     C27684   9.791   4.536   7.797  0.1587  0.2364 -0.3898
  206MOL0     C27685   9.869   4.523   7.930 -0.9284  0.0774  0.7994
  206MOL0     C27686   9.969   4.401   7.931 -0.7884 -0.1807 -0.0491
  206MOL0     C27687  10.081   4.415   7.834  0.6423  0.5236  0.5735
  206MOL0     C27688  10.178   4.291   7.852 -0.3209 -0.1261  0.4827
  206MOL0     C27689  10.269   4.280   7.978 -0.5439 -0.2351 -0.8856
  206MOL0     C27690  10.365   4.403   7.977 -0.4054 -0.5633  0.2513
  206MOL0     C27691  10.428   4.425   8.107  0.0662 -0.3358 -0.2904
  206MOL0     N27692  10.538   4.333   8.126  0.3729  0.9540 -0.0535
  206MOL0     C27693  10.515   4.212   8.191  0.4217  0.0896 -0.3051
  206MOL0     C27694  10.630   4.150   8.179 -0.0439  0.6769 -0.2053
  206MOL0     C27695  10.636   4.018   8.244 -0.2272 -0.5361 -0.2021
  206MOL0     C27696  10.596   3.898   8.159 -0.4243  0.1212 -0.0403
  206MOL0     C27697  10.448   3.916   8.105  0.3702  0.1339  0.8413
  206MOL0     C27698  10.396   3.786   8.038  0.5405  0.3128 -0.6870
  206MOL0     O27699  10.250   3.797   8.033 -0.8179  0.2185 -0.7633
  206MOL0     C27700  10.182   3.689   7.985 -0.7705  0.2195  0.1811
  206MOL0     C27701  10.252   3.570   7.933  0.9324  0.1833 -1.2017
  206MOL0     C27702  10.176   3.479   7.860 -0.1838  0.6403 -0.2273
  206MOL0     C27703  10.039   3.490   7.839 -0.3038 -0.5868 -0.9497
  206MOL0     C27704   9.963   3.400   7.751 -0.5771  0.2861  0.2732
  206MOL0     O27705   9.832   3.413   7.735 -0.7819 -0.7415  0.0429
  206MOL0     C27706   9.755   3.322   7.657  0.1707  0.6057 -0.2562
  206MOL0     C27707   9.794   3.215   7.576 -1.1542  0.0400 -0.0415
  206MOL0     C27708   9.697   3.127   7.525 -0.0371  0.5159  0.4944
  206MOL0     C27709   9.556   3.146   7.545  0.2011 -0.7388 -0.0483
  206MOL0     O27710   9.462   3.062   7.499 -0.1115 -1.1739  0.1049
  206MOL0     C27711   9.500   2.954   7.417  0.5826  0.7225  1.3732
  206MOL0     C27712   9.387   2.895   7.332 -0.4656 -0.6646 -0.7849
  206MOL0     C27713   9.275   2.831   7.422  0.2214 -0.2549  1.1275
  206MOL0     C27714   9.203   2.717   7.331  0.0851 -0.1293 -1.2787
  206MOL0     C27715   9.094   2.643   7.408  0.1279 -0.4566  0.5507
  206MOL0     C27716   8.977   2.727   7.462  0.5380 -0.1153  0.1191
  206MOL0     C27717   8.882   2.786   7.357  1.0753 -0.5710  0.0589
  206MOL0     C27718   8.737   2.808   7.410 -0.3491 -0.6955 -0.1424
  206MOL0    Cl27719   8.733   2.922   7.550 -0.2086 -0.4579 -0.3549
  206MOL0     C27720   9.520   3.267   7.595  1.2363  0.3647 -0.4387
  206MOL0     C27721   9.612   3.347   7.668  0.4389  0.5592 -0.8388
  206MOL0     O27722  10.032   3.317   7.692 -0.3476 -0.0758  0.0171
  206MOL0     C27723   9.974   3.599   7.896 -0.2892  0.1903 -0.1254
  206MOL0     C27724  10.049   3.700   7.963 -0.0420 -0.4996  0.2665
  206MOL0     N27725  10.721   4.232   8.122 -1.3333 -1.0486 -0.6609
  206MOL0     N27726  10.663   4.339   8.075 -0.8355 -0.0666 -0.4876
  206MOL0     C27727   9.667   4.490   7.550 -0.2145  0.0119  0.2587
  206MOL0     C27728   9.592   4.467   7.431 -0.3684 -0.7770 -0.1026
  206MOL0     C27729   9.465   4.208   7.095 -0.6058 -0.2680 -1.0151
  206MOL0     C27730   9.367   4.306   7.049  0.7631  0.3660  1.3578
  206MOL0     C27731   9.322   4.301   6.916 -0.1580  0.0278 -0.4422
  206MOL0     C27732   9.366   4.206   6.826 -0.3189  0.4230 -0.5141
  206MOL0     O27733   9.341   4.194   6.694 -0.3442  0.0014  0.2493
  206MOL0     C27734   9.289   4.305   6.627 -0.4911 -0.0295  0.1345
  206MOL0     C27735   9.252   4.264   6.479  0.9007 -0.4154 -1.3036
  206MOL0     C27736   9.369   4.203   6.402  0.0670 -0.3410 -0.5528
  206MOL0     C27737   9.486   4.299   6.386  0.5407  0.9442  0.0208
  206MOL0     C27738   9.462   4.448   6.379 -0.5485 -0.0991  0.2313
  206MOL0     C27739   9.461   4.572   6.391  0.7202  0.0731  0.6897
  206MOL0     C27740   9.457   4.109   6.872  0.0220 -0.9445  0.1454
  206MOL0     C27741   9.505   4.108   7.005  0.3080  0.2741  0.0900
  206MOL0     C27742   9.610   3.995   7.022  0.1293 -0.5929  0.1487
  206MOL0     H27743   9.426   4.185   7.522 -2.2514  0.0603 -3.6650
  206MOL0     H27744   9.573   4.235   7.744  2.9120 -0.8697 -0.5211
  206MOL0     H27745   9.863   4.538   7.715  1.0831  2.6074  0.3934
  206MOL0     H27746   9.740   4.632   7.806  0.4062  0.2741  0.7726
  206MOL0     H27747   9.801   4.518   8.015 -0.9832 -1.1039  0.7014
  206MOL0     H27748   9.930   4.613   7.943 -1.6989  1.7648 -4.5264
  206MOL0     H27749   9.917   4.307   7.907  0.6892 -1.4110  1.3275
  206MOL0     H27750  10.004   4.385   8.034 -1.0843 -1.9156 -0.1874
  206MOL0     H27751  10.040   4.422   7.733  0.3643 -3.1062  0.3091
  206MOL0     H27752  10.126   4.513   7.852 -0.5020  0.4841  4.4055
  206MOL0     H27753  10.128   4.195   7.835 -2.2244  0.7493  0.9729
  206MOL0     H27754  10.250   4.295   7.769  0.2603  1.1484  1.0285
  206MOL0     H27755  10.207   4.266   8.067  1.5392 -2.4242  0.3359
  206MOL0     H27756  10.331   4.190   7.979 -0.9425 -0.5214 -1.3028
  206MOL0     H27757  10.309   4.493   7.949  1.2140 -0.4899 -3.2737
  206MOL0     H27758  10.439   4.388   7.898  0.1185 -0.6066  0.7441
  206MOL0     H27759  10.472   4.524   8.096  0.8650 -0.3648  2.0767
  206MOL0     H27760  10.366   4.416   8.197  2.6889 -3.3117  1.4651
  206MOL0     H27761  10.428   4.180   8.246  2.4320  0.2050  3.2289
  206MOL0     H27762  10.738   4.000   8.277 -0.6079 -0.5134  1.0547
  206MOL0     H27763  10.569   4.018   8.331 -1.0694 -0.7062 -0.8285
  206MOL0     H27764  10.668   3.898   8.076  2.2092  2.0751  2.0978
  206MOL0     H27765  10.615   3.798   8.199  1.5827  0.7788  0.7890
  206MOL0     H27766  10.443   3.992   8.026 -0.5510 -0.3560  0.4153
  206MOL0     H27767  10.390   3.946   8.193  1.4892  3.0355  0.7122
  206MOL0     H27768  10.422   3.696   8.095  1.3308  0.0681 -1.4088
  206MOL0     H27769  10.435   3.778   7.936  1.3047  1.8148 -0.5311
  206MOL0     H27770  10.357   3.547   7.949  0.1730 -2.3356  0.6657
  206MOL0     H27771  10.231   3.396   7.816 -2.3939 -0.9909 -0.0788
  206MOL0     H27772   9.896   3.184   7.553  0.3564  1.9513  3.2707
  206MOL0     H27773   9.733   3.045   7.464  1.3411  1.5565 -0.1667
  206MOL0     H27774   9.570   2.990   7.342  0.5129  3.5664  2.5676
  206MOL0     H27775   9.540   2.864   7.466 -3.5280 -2.3209 -0.2226
  206MOL0     H27776   9.341   2.973   7.271 -1.4915  0.4385  1.3252
  206MOL0     H27777   9.414   2.814   7.263 -1.3071 -3.0917  1.5681
  206MOL0     H27778   9.309   2.773   7.508 -1.2266 -0.8246  1.3579
  206MOL0     H27779   9.207   2.913   7.446 -2.4384 -1.2659 -2.1255
  206MOL0     H27780   9.280   2.657   7.283  1.7771  1.4117 -0.5965
  206MOL0     H27781   9.160   2.750   7.236 -0.8164 -0.8879 -1.1495
  206MOL0     H27782   9.127   2.585   7.495 -0.7763 -3.0540 -0.7273
  206MOL0     H27783   9.054   2.563   7.345  2.3875 -1.1576 -0.0794
  206MOL0     H27784   8.928   2.655   7.529 -0.8492 -1.3441 -2.0873
  206MOL0     H27785   9.012   2.810   7.524 -2.8689  1.4073  0.2488
  206MOL0     H27786   8.873   2.709   7.279  0.6779  1.1663 -1.6944
  206MOL0     H27787   8.924   2.876   7.310  3.2762 -2.2126 -1.3327
  206MOL0     H27788   8.675   2.856   7.334  0.7667 -0.4183 -0.9067
  206MOL0     H27789   8.694   2.709   7.430  2.3050 -1.6766  1.2673
  206MOL0     H27790   9.415   3.294   7.598 -0.4652 -5.1052  2.1528
  206MOL0     H27791   9.569   3.428   7.725 -5.5728 -0.6809 -2.8225
  206MOL0     H27792   9.866   3.611   7.896 -0.3593 -0.4490 -0.2338
  206MOL0     H27793   9.992   3.784   8.003 -1.5745 -0.6474 -1.4960
  206MOL0     H27794   9.726   4.581   7.555 -0.9921  0.4614  3.5634
  206MOL0     H27795   9.603   4.534   7.346 -1.7608 -1.2202 -0.6496
  206MOL0     H27796   9.328   4.386   7.111  0.7963  2.7377 -1.4318
  206MOL0     H27797   9.247   4.369   6.878  0.0008 -0.9423 -2.6691
  206MOL0     H27798   9.357   4.390   6.625 -1.8599  1.1932  2.1391
  206MOL0     H27799   9.190   4.331   6.666 -0.2870 -0.4076  0.9225
  206MOL0     H27800   9.220   4.357   6.433  0.8206  2.3348  3.5887
  206MOL0     H27801   9.174   4.188   6.471 -1.5531  1.7067  0.8434
  206MOL0     H27802   9.317   4.175   6.310 -1.2125  2.1931 -0.6995
  206MOL0     H27803   9.402   4.115   6.458 -0.5266 -0.4292 -0.3450
  206MOL0     H27804   9.558   4.284   6.467 -0.6634  2.9815  1.5643
  206MOL0     H27805   9.539   4.279   6.292  0.6596  1.1499  0.0416
  206MOL0     H27806   9.457   4.679   6.392  2.7028  0.1798  1.2707
  206MOL0     H27807   9.484   4.031   6.802  0.6790  0.0052 -0.6864
  206MOL0     H27808   9.545   3.907   7.015 -1.5959  0.7472 -1.4390
  206MOL0     H27809   9.691   3.995   6.949  0.3767 -0.6714  0.4174
  206MOL0     H27810   9.665   3.996   7.117  1.5888 -1.6716 -0.6389
  207MOL0     O27811   5.495   8.505  10.094 -0.0417 -0.2437 -0.3370
  207MOL0     C27812   5.498   8.391  10.041  0.4738  0.1029 -0.4362
  207MOL0     O27813   5.495   8.275  10.115  0.4571  0.6107  0.8553
  207MOL0     C27814   5.456   8.295  10.247 -0.1370  0.0425 -0.0284
  207MOL0     C27815   5.548   8.274  10.361  1.1470  0.0141  0.7239
  207MOL0     C27816   5.504   8.306  10.490 -0.1897  0.3371  0.6508
  207MOL0     C27817   5.375   8.341  10.522 -0.8723 -1.1973 -0.0778
  207MOL0     O27818   5.340   8.361  10.649  0.3952 -0.5394 -0.2030
  207MOL0     C27819   5.209   8.417  10.680 -0.0163  0.4684  0.4394
  207MOL0     C27820   5.179   8.405  10.831 -0.4275  0.2230  0.7800
  207MOL0     C27821   5.296   8.446  10.927  0.7869 -0.2358 -0.5397
  207MOL0     C27822   5.263   8.405  11.078 -0.4357  0.3716  0.0826
  207MOL0     C27823   5.264   8.528  11.158 -0.4873 -0.2494 -0.3562
  207MOL0     C27824   5.255   8.504  11.308  0.4019 -0.5110  0.8243
  207MOL0     C27825   5.125   8.410  11.338 -0.3833  1.0196  0.6170
  207MOL0     C27826   5.043   8.446  11.467  0.0418  0.4150  0.7213
  207MOL0     N27827   5.136   8.466  11.578  0.0360 -0.7750  0.4354
  207MOL0     C27828   5.197   8.369  11.663  0.6260 -0.4646 -0.0478
  207MOL0     C27829   5.273   8.438  11.753 -0.0703  0.5340  0.3055
  207MOL0     C27830   5.374   8.378  11.855 -0.4358  0.4228  0.0443
  207MOL0     C27831   5.478   8.300  11.779 -0.4383  0.2447  0.3790
  207MOL0     C27832   5.572   8.399  11.710  0.7301  0.4887 -0.1287
  207MOL0     C27833   5.691   8.338  11.636 -0.0358 -0.1940 -0.2843
  207MOL0     O27834   5.635   8.278  11.521  0.3999 -0.5876 -0.5018
  207MOL0     C27835   5.631   8.342  11.406 -0.0744  0.9779  0.0790
  207MOL0     C27836   5.641   8.253  11.298 -0.3125 -0.5420 -0.2241
  207MOL0     C27837   5.640   8.294  11.165 -0.5922 -0.6797 -0.4150
  207MOL0     C27838   5.635   8.433  11.132 -1.0435 -0.1640 -0.3431
  207MOL0     C27839   5.650   8.474  10.997  0.0231 -0.3814  0.0977
  207MOL0     O27840   5.614   8.607  10.976 -0.4216 -0.4067 -0.1321
  207MOL0     C27841   5.615   8.661  10.848 -0.3754 -0.8910 -0.1607
  207MOL0     C27842   5.565   8.601  10.736 -0.7955 -0.0650  0.6512
  207MOL0     C27843   5.572   8.677  10.611  0.0074  0.9830 -0.6718
  207MOL0     C27844   5.603   8.812  10.609  0.4298 -0.4682 -1.0516
  207MOL0     O27845   5.591   8.880  10.490 -0.0756 -0.3452  0.6526
  207MOL0     C27846   5.640   8.822  10.372  0.5937 -0.1032  0.7740
  207MOL0     C27847   5.676   8.933  10.280  0.4675 -0.1984  0.0303
  207MOL0     C27848   5.774   9.042  10.333 -0.1401  1.6344  0.3337
  207MOL0     C27849   5.832   9.120  10.224 -0.1258 -0.0748  0.2344
  207MOL0     C27850   5.901   9.242  10.278  1.4257 -0.0960 -0.3262
  207MOL0     C27851   6.015   9.207  10.369 -1.4181 -0.7536  0.6059
  207MOL0     C27852   6.099   9.337  10.396 -0.6964 -0.0164  0.4227
  207MOL0     C27853   6.135   9.375  10.541  0.1217  0.8983  0.5551
  207MOL0    Cl27854   5.976   9.435  10.628  0.0437 -0.0349  0.1563
  207MOL0     C27855   5.648   8.872  10.727  0.6141  0.4510 -0.5992
  207MOL0     C27856   5.663   8.795  10.841  0.4131 -0.3350 -0.2955
  207MOL0     O27857   5.680   8.385  10.906  1.0827  0.6269 -0.0626
  207MOL0     C27858   5.634   8.524  11.245 -0.1901  1.5360 -0.1655
  207MOL0     C27859   5.630   8.472  11.380  0.5542 -0.2588  0.6322
  207MOL0     N27860   5.265   8.575  11.720  0.7260 -0.0229  0.2483
  207MOL0     N27861   5.173   8.588  11.630 -0.2049 -1.0588  0.7837
  207MOL0     C27862   5.282   8.335  10.424 -1.1053 -0.0904  0.8948
  207MOL0     C27863   5.324   8.314  10.283  1.0088  1.0621 -0.6029
  207MOL0     C27864   5.542   8.364   9.899 -0.6958  0.8594  0.4484
  207MOL0     C27865   5.572   8.231   9.855 -0.6385 -0.6040  0.2667
  207MOL0     C27866   5.641   8.203   9.735  0.9749  0.3286  1.1292
  207MOL0     C27867   5.679   8.312   9.656  0.1810 -0.6472  0.6683
  207MOL0     O27868   5.749   8.269   9.538  0.0707 -0.5873 -0.4523
  207MOL0     C27869   5.788   8.365   9.441 -0.0441  0.3539 -0.0029
  207MOL0     C27870   5.743   8.295   9.312  0.4199 -0.2321  0.4552
  207MOL0     C27871   5.589   8.310   9.301 -0.4319  0.0781  0.7107
  207MOL0     C27872   5.548   8.327   9.151 -0.9043  0.0865  0.4950
  207MOL0     C27873   5.399   8.336   9.140 -0.0364 -0.1664 -0.6074
  207MOL0     C27874   5.281   8.334   9.133 -0.4770 -0.7102  0.5719
  207MOL0     C27875   5.648   8.442   9.694  0.3885 -0.6438  0.5840
  207MOL0     C27876   5.584   8.470   9.808  0.7078 -1.2620 -0.6566
  207MOL0     C27877   5.568   8.623   9.839  0.4713  0.6332 -0.0802
  207MOL0     H27878   5.653   8.255  10.339  0.7414  0.5468 -1.9687
  207MOL0     H27879   5.580   8.303  10.567 -0.7714  0.4129  1.2349
  207MOL0     H27880   5.219   8.521  10.650  2.7889 -0.9620 -5.0563
  207MOL0     H27881   5.120   8.381  10.628  1.6403  0.1077 -2.3612
  207MOL0     H27882   5.127   8.309  10.837 -5.3694  2.4738 -0.6693
  207MOL0     H27883   5.103   8.482  10.847 -0.0461  0.2688  2.6025
  207MOL0     H27884   5.316   8.554  10.922 -1.4899  0.2027 -1.5311
  207MOL0     H27885   5.385   8.397  10.888  1.3947 -0.1993  0.7578
  207MOL0     H27886   5.173   8.342  11.081 -1.9042  1.7140 -5.3664
  207MOL0     H27887   5.351   8.346  11.106  0.1950  1.1938 -0.1418
  207MOL0     H27888   5.360   8.580  11.144 -0.7960 -0.0756 -2.0479
  207MOL0     H27889   5.190   8.606  11.135  0.2665  1.1821  1.7226
  207MOL0     H27890   5.344   8.447  11.338  0.1195 -2.2715 -1.3695
  207MOL0     H27891   5.266   8.597  11.363  0.5518  2.3844 -3.6094
  207MOL0     H27892   5.151   8.304  11.332  1.0262  1.4221 -2.2404
  207MOL0     H27893   5.058   8.426  11.252  1.7901 -0.5209 -1.5018
  207MOL0     H27894   4.982   8.537  11.463 -1.0645 -0.2842  1.2681
  207MOL0     H27895   4.971   8.368  11.493 -1.7656  2.1216  1.1034
  207MOL0     H27896   5.182   8.263  11.651  1.2339 -0.3383 -2.4664
  207MOL0     H27897   5.411   8.467  11.907 -0.9175  1.3577 -1.1581
  207MOL0     H27898   5.324   8.312  11.926  1.8510 -2.9214 -1.2159
  207MOL0     H27899   5.548   8.232  11.828 -0.6790 -0.1655  0.1613
  207MOL0     H27900   5.441   8.221  11.712  2.4748 -0.8230 -0.1568
  207MOL0     H27901   5.622   8.452  11.792  0.4647 -0.4523  0.6639
  207MOL0     H27902   5.526   8.475  11.647 -1.1314  1.8062  2.6242
  207MOL0     H27903   5.738   8.250  11.680  1.7754 -1.6777 -4.6199
  207MOL0     H27904   5.763   8.417  11.613 -2.0273  2.0552  0.7275
  207MOL0     H27905   5.650   8.146  11.306  1.9500 -0.8526 -4.1049
  207MOL0     H27906   5.628   8.213  11.093  1.6816 -2.5305  1.1170
  207MOL0     H27907   5.516   8.504  10.732  1.4791 -1.3054 -3.7228
  207MOL0     H27908   5.559   8.626  10.517 -0.2365 -1.8855  0.8221
  207MOL0     H27909   5.735   8.776  10.401  0.6539  0.5673  1.6665
  207MOL0     H27910   5.568   8.754  10.326  0.4101  1.9647 -2.3061
  207MOL0     H27911   5.717   8.887  10.190  0.8684  0.8692 -0.3437
  207MOL0     H27912   5.582   8.982  10.254  1.9569  1.7595 -2.0606
  207MOL0     H27913   5.710   9.101  10.399  0.4063  5.5153 -2.3198
  207MOL0     H27914   5.853   8.982  10.380 -0.4759  1.0807  0.2100
  207MOL0     H27915   5.765   9.169  10.153 -1.3622 -0.6861  0.9659
  207MOL0     H27916   5.900   9.054  10.168  1.2399  0.8662  0.7233
  207MOL0     H27917   5.827   9.298  10.335  1.4872  0.0052 -0.3474
  207MOL0     H27918   5.928   9.300  10.190 -2.6795  1.9789 -0.4455
  207MOL0     H27919   5.975   9.172  10.465 -0.8471  3.3964  2.5654
  207MOL0     H27920   6.075   9.129  10.320 -1.5598  0.4510 -1.6199
  207MOL0     H27921   6.049   9.420  10.345  1.4423  1.8644  1.1981
  207MOL0     H27922   6.197   9.338  10.346 -0.6277  0.3247  0.5613
  207MOL0     H27923   6.173   9.288  10.596 -4.5641 -1.7292  0.1885
  207MOL0     H27924   6.210   9.454  10.540  1.9828 -0.8006 -0.3956
  207MOL0     H27925   5.647   8.980  10.733 -1.5417  0.3819  1.5546
  207MOL0     H27926   5.698   8.844  10.931 -0.1698  3.1511 -1.7912
  207MOL0     H27927   5.631   8.631  11.223 -1.4818  1.3028 -1.2914
  207MOL0     H27928   5.636   8.546  11.460  2.3246  0.5270 -0.1670
  207MOL0     H27929   5.175   8.338  10.438 -1.2932 -1.2923 -0.0835
  207MOL0     H27930   5.243   8.317  10.210  1.5570  0.6620 -1.2382
  207MOL0     H27931   5.542   8.146   9.916 -2.2407 -1.2155 -1.2715
  207MOL0     H27932   5.655   8.103   9.695  1.2961  2.0966 -3.9278
  207MOL0     H27933   5.897   8.364   9.432 -0.2347  0.3783 -4.7032
  207MOL0     H27934   5.752   8.468   9.441 -0.4727  0.2050 -0.0630
  207MOL0     H27935   5.772   8.190   9.323 -3.8052 -1.5872  0.2673
  207MOL0     H27936   5.795   8.330   9.222 -1.8311 -1.8032 -1.5904
  207MOL0     H27937   5.555   8.399   9.355  1.8613  2.9008 -2.1032
  207MOL0     H27938   5.549   8.215   9.335  1.1510 -0.9854 -0.2654
  207MOL0     H27939   5.587   8.418   9.106  0.1858 -0.5978  0.0135
  207MOL0     H27940   5.589   8.248   9.087  0.7212  0.4235  1.0986
  207MOL0     H27941   5.174   8.333   9.126 -0.5957  2.2861  0.6872
  207MOL0     H27942   5.693   8.520   9.633  2.1555 -3.1191 -1.5002
  207MOL0     H27943   5.461   8.645   9.847  0.2576  1.7435 -3.9087
  207MOL0     H27944   5.614   8.647   9.935 -1.6718 -1.6741  1.6821
  207MOL0     H27945   5.612   8.681   9.757  0.3928  1.6128  0.5638
  208MOL0     O27946   2.471   7.602   9.691  0.1023 -0.6482 -0.2540
  208MOL0     C27947   2.547   7.616   9.598  0.1651  0.9908 -0.3480
  208MOL0     O27948   2.595   7.515   9.516  0.1635 -0.5079  0.0357
  208MOL0     C27949   2.562   7.380   9.522 -0.4805 -0.9678 -0.2937
  208MOL0     C27950   2.663   7.291   9.504  0.6037  0.5476  0.9937
  208MOL0     C27951   2.640   7.149   9.513 -0.3007  0.8082 -0.0357
  208MOL0     C27952   2.516   7.097   9.551 -0.7528 -0.4452  0.1486
  208MOL0     O27953   2.491   6.964   9.581 -0.0984  0.0471  0.1582
  208MOL0     C27954   2.585   6.862   9.545 -0.7729 -0.1607  0.5181
  208MOL0     C27955   2.489   6.740   9.543 -0.0184  0.9307 -0.6668
  208MOL0     C27956   2.395   6.744   9.421  0.1378 -0.0794 -0.4822
  208MOL0     C27957   2.473   6.688   9.301 -0.0459  0.5249  0.8005
  208MOL0     C27958   2.382   6.628   9.192  0.3346 -0.0699 -0.2495
  208MOL0     C27959   2.291   6.727   9.126 -0.7009  0.3616 -1.4881
  208MOL0     C27960   2.194   6.665   9.019 -0.0134  0.8350 -0.6234
  208MOL0     C27961   2.068   6.618   9.097 -0.0414 -0.5204  0.3391
  208MOL0     N27962   1.975   6.570   8.993 -0.3069  0.1330  0.0657
  208MOL0     C27963   1.953   6.622   8.873 -0.3153 -0.1386  0.2539
  208MOL0     C27964   1.842   6.549   8.830 -0.0122 -0.0078 -0.9851
  208MOL0     C27965   1.779   6.566   8.704 -0.4412  0.4553  0.2149
  208MOL0     C27966   1.850   6.487   8.586  0.6487 -0.1293  0.5611
  208MOL0     C27967   1.957   6.573   8.507 -0.2199  0.3089  0.1166
  208MOL0     C27968   2.046   6.496   8.411 -0.6133  0.5370 -0.1387
  208MOL0     O27969   1.978   6.500   8.292 -0.0115  0.4724  0.5003
  208MOL0     C27970   2.033   6.605   8.216  0.8806 -0.3995 -0.0188
  208MOL0     C27971   2.169   6.613   8.177  0.5358  0.7236 -0.8269
  208MOL0     C27972   2.199   6.717   8.089  0.2060  0.3150  0.5845
  208MOL0     C27973   2.110   6.791   8.019  1.1960 -0.4962 -1.1071
  208MOL0     C27974   2.145   6.891   7.920 -0.2319  0.4942 -0.3854
  208MOL0     O27975   2.270   6.878   7.869  0.6743 -0.1240  0.0849
  208MOL0     C27976   2.303   6.951   7.756  0.2261 -0.1470 -0.7685
  208MOL0     C27977   2.269   6.897   7.632 -0.2759 -0.1922  0.5689
  208MOL0     C27978   2.292   6.969   7.516  1.1647  0.3840 -0.4416
  208MOL0     C27979   2.343   7.099   7.527  0.1619 -0.1870  0.1008
  208MOL0     O27980   2.343   7.172   7.410  0.6821  0.3718  0.0854
  208MOL0     C27981   2.202   7.207   7.387 -0.6239  0.0839  1.1218
  208MOL0     C27982   2.178   7.183   7.238  0.4776 -0.7562 -0.4509
  208MOL0     C27983   2.052   7.250   7.203  0.5263 -0.0469  0.1399
  208MOL0     C27984   2.060   7.281   7.050  0.2208  0.6305 -0.0524
  208MOL0     C27985   1.923   7.324   6.992  0.0965 -0.1956  0.7111
  208MOL0     C27986   1.932   7.363   6.842  0.6222  0.2378 -0.5960
  208MOL0     C27987   1.799   7.435   6.814  0.2746  0.5343 -0.2582
  208MOL0     C27988   1.811   7.528   6.693  0.9295  0.2289  0.0663
  208MOL0    Cl27989   1.648   7.546   6.606 -0.3068 -0.0962 -0.0030
  208MOL0     C27990   2.387   7.156   7.652 -0.3054  0.1322 -0.2326
  208MOL0     C27991   2.367   7.076   7.771  0.2198  0.4540 -0.3994
  208MOL0     O27992   2.073   6.983   7.887  0.3831  0.9385  0.6155
  208MOL0     C27993   1.974   6.782   8.064 -1.2007 -0.0828 -0.1495
  208MOL0     C27994   1.940   6.697   8.166  0.2952  0.3418 -0.7192
  208MOL0     N27995   1.815   6.458   8.932  0.7463  0.5814  1.0101
  208MOL0     N27996   1.895   6.469   9.029 -0.2687  0.0386 -0.6872
  208MOL0     C27997   2.413   7.190   9.569 -0.0701  0.3743 -0.3055
  208MOL0     C27998   2.437   7.325   9.561  0.7541 -0.4767  0.1894
  208MOL0     C27999   2.606   7.751   9.571 -0.2565  0.1950  0.5565
  208MOL0     C28000   2.726   7.786   9.637 -0.4699 -0.5044 -0.4050
  208MOL0     C28001   2.784   7.912   9.619 -0.4697  0.1804 -0.7753
  208MOL0     C28002   2.728   8.004   9.539  0.3531 -0.6953  0.5241
  208MOL0     O28003   2.792   8.122   9.528  1.5054 -0.8016 -0.8873
  208MOL0     C28004   2.720   8.234   9.588  0.1791 -0.5221 -0.1405
  208MOL0     C28005   2.669   8.331   9.477 -0.6172  0.4067  0.1205
  208MOL0     C28006   2.648   8.476   9.536  0.3602 -0.2713  0.7567
  208MOL0     C28007   2.524   8.480   9.629  0.7222 -0.3651 -1.0696
  208MOL0     C28008   2.555   8.444   9.763  0.3764 -0.7592 -1.0388
  208MOL0     C28009   2.582   8.419   9.884  0.8936  0.1031 -0.6544
  208MOL0     C28010   2.601   7.966   9.475 -0.0534  0.1426 -0.2597
  208MOL0     C28011   2.548   7.838   9.487  0.1862  0.4688  0.4260
  208MOL0     C28012   2.454   7.794   9.382 -0.3729 -0.9336  1.2562
  208MOL0     H28013   2.759   7.308   9.456  0.1396  0.0221 -0.1413
  208MOL0     H28014   2.720   7.080   9.487 -1.9957 -1.8813  1.3812
  208MOL0     H28015   2.625   6.878   9.445 -3.1340  1.7848 -0.1856
  208MOL0     H28016   2.671   6.844   9.611 -1.4041  1.4090  1.8406
  208MOL0     H28017   2.426   6.739   9.632  0.0674 -0.5486 -0.5904
  208MOL0     H28018   2.544   6.646   9.546 -1.2023  0.2389  2.1491
  208MOL0     H28019   2.354   6.845   9.410  0.0566 -0.2505 -1.9635
  208MOL0     H28020   2.304   6.686   9.441  1.3598 -1.2136  2.1873
  208MOL0     H28021   2.543   6.758   9.254 -0.0355 -1.6753 -2.8084
  208MOL0     H28022   2.532   6.603   9.336 -0.0785  0.4161  0.5921
  208MOL0     H28023   2.450   6.595   9.112 -1.4888  0.1794 -1.9827
  208MOL0     H28024   2.330   6.544   9.238  1.0092 -0.4669 -0.1935
  208MOL0     H28025   2.235   6.764   9.212  1.1709 -2.9544  1.4441
  208MOL0     H28026   2.348   6.812   9.088  2.8943 -1.6267 -0.9996
  208MOL0     H28027   2.244   6.582   8.969  0.7131  0.6971  0.2918
  208MOL0     H28028   2.163   6.746   8.953 -1.2061  1.6754  0.8903
  208MOL0     H28029   2.102   6.535   9.160  1.0601  0.8030  1.5522
  208MOL0     H28030   2.033   6.705   9.154  0.1736 -0.7939  0.9000
  208MOL0     H28031   1.995   6.703   8.815 -0.1689 -0.2473  0.2086
  208MOL0     H28032   1.675   6.539   8.724 -0.4325  0.5879  0.4486
  208MOL0     H28033   1.770   6.673   8.681 -0.1601  0.1407 -1.5269
  208MOL0     H28034   1.890   6.396   8.632  1.1827  0.9291  2.2836
  208MOL0     H28035   1.782   6.444   8.512  1.9407 -0.7088 -0.3253
  208MOL0     H28036   2.022   6.635   8.570  1.8841  0.5538 -2.1282
  208MOL0     H28037   1.889   6.636   8.450 -0.8347 -1.0859 -0.7594
  208MOL0     H28038   2.060   6.394   8.448 -0.9659  0.9709  1.2574
  208MOL0     H28039   2.146   6.541   8.420 -0.4720 -0.1561  3.1056
  208MOL0     H28040   2.248   6.551   8.217  1.7960  4.2163  2.7808
  208MOL0     H28041   2.301   6.725   8.052  0.0964 -0.0418  0.1914
  208MOL0     H28042   2.223   6.800   7.616 -0.3684 -0.2211  1.0118
  208MOL0     H28043   2.256   6.934   7.420 -0.7056  2.0053 -0.3898
  208MOL0     H28044   2.124   7.149   7.438  0.9409 -2.6658  0.5535
  208MOL0     H28045   2.173   7.308   7.418 -0.2401 -0.1178  2.1763
  208MOL0     H28046   2.254   7.226   7.173  1.4313  0.7351  1.5426
  208MOL0     H28047   2.168   7.075   7.220  0.7865 -0.8169 -0.2619
  208MOL0     H28048   1.976   7.174   7.222  3.4533 -2.8048  1.8212
  208MOL0     H28049   2.026   7.338   7.263  0.9861 -0.5051  1.0387
  208MOL0     H28050   2.103   7.196   6.996  0.1482 -0.7774  1.9858
  208MOL0     H28051   2.133   7.362   7.044  2.8091 -1.5715 -0.1173
  208MOL0     H28052   1.896   7.408   7.057  0.1676 -0.3730  0.9755
  208MOL0     H28053   1.853   7.241   7.006 -1.9265  1.2808 -0.1244
  208MOL0     H28054   2.019   7.428   6.834  2.4226 -2.0505 -0.6149
  208MOL0     H28055   1.951   7.276   6.779  2.3009 -0.4997  0.8288
  208MOL0     H28056   1.775   7.504   6.896 -0.1825  1.0710 -0.8229
  208MOL0     H28057   1.720   7.359   6.819  0.4407  0.3219 -0.8663
  208MOL0     H28058   1.838   7.628   6.728 -1.4640  2.0960 -2.9342
  208MOL0     H28059   1.879   7.498   6.613 -0.1584 -1.0768 -0.4125
  208MOL0     H28060   2.450   7.244   7.658  1.0442 -0.7241 -1.0172
  208MOL0     H28061   2.379   7.111   7.873 -0.6677 -0.5715  0.0735
  208MOL0     H28062   1.906   6.845   8.007  1.0423  2.0725 -0.6402
  208MOL0     H28063   1.837   6.683   8.194  0.0339  3.6047  0.3657
  208MOL0     H28064   2.312   7.152   9.579  1.0285 -2.9436 -0.7882
  208MOL0     H28065   2.363   7.403   9.575  1.9295  0.9635 -1.1440
  208MOL0     H28066   2.778   7.719   9.704 -0.5284 -2.8694 -2.5893
  208MOL0     H28067   2.871   7.935   9.681 -0.5377 -0.7553 -0.3077
  208MOL0     H28068   2.780   8.287   9.662  0.6801 -0.1258 -0.8183
  208MOL0     H28069   2.636   8.204   9.651 -0.1661  0.3950 -0.1502
  208MOL0     H28070   2.575   8.289   9.440  0.3942 -2.0651  0.2258
  208MOL0     H28071   2.736   8.317   9.392 -1.3805 -0.3527 -0.3741
  208MOL0     H28072   2.634   8.539   9.448  0.0696  0.4788  1.3245
  208MOL0     H28073   2.733   8.513   9.595  0.0789  0.3958  0.7504
  208MOL0     H28074   2.476   8.577   9.642 -2.2646 -2.0318  2.1162
  208MOL0     H28075   2.450   8.401   9.614  0.1378 -0.9509  3.3860
  208MOL0     H28076   2.605   8.402   9.988 -1.1911  0.0035 -0.1732
  208MOL0     H28077   2.563   8.048   9.414 -0.9157 -1.2806 -1.7148
  208MOL0     H28078   2.436   7.686   9.378  2.4723 -1.4781 -2.5916
  208MOL0     H28079   2.371   7.866   9.390  2.1099  2.1459  1.3031
  208MOL0     H28080   2.492   7.810   9.281 -0.8255 -1.3214  1.0181
  209MOL0     O28081   6.208   8.738   0.482 -0.6117 -0.5993  0.9014
  209MOL0     C28082   6.255   8.808   0.390  0.5044 -0.2983 -0.1589
  209MOL0     O28083   6.198   8.834   0.273 -1.2180 -0.4969 -0.4975
  209MOL0     C28084   6.063   8.794   0.259  0.4626 -0.6046 -1.1314
  209MOL0     C28085   6.043   8.734   0.131 -0.0498 -0.2794 -0.0713
  209MOL0     C28086   5.910   8.714   0.088  0.1228  0.4012 -0.0311
  209MOL0     C28087   5.804   8.742   0.180  0.2722  0.6858 -0.9282
  209MOL0     O28088   5.671   8.711   0.140  0.1338 -0.1204 -0.5734
  209MOL0     C28089   5.556   8.767   0.199  0.6815  0.2149 -0.6005
  209MOL0     C28090   5.449   8.789   0.085 -0.2127 -0.2131 -0.3108
  209MOL0     C28091   5.479   8.892  -0.013  0.6940 -0.0700  0.2952
  209MOL0     C28092   5.359   8.917  -0.115  0.0734  0.5898 -0.0260
  209MOL0     C28093   5.375   9.050  -0.194  0.0359  0.3787  0.3144
  209MOL0     C28094   5.273   9.059  -0.307 -0.0418 -0.0043 -0.3088
  209MOL0     C28095   5.279   9.192  -0.393  0.0929  0.6087  0.1794
  209MOL0     C28096   5.145   9.207  -0.478  0.4500  0.4755 -0.2620
  209MOL0     N28097   5.139   9.089  -0.580  0.1185 -0.0695 -0.3221
  209MOL0     C28098   5.203   9.062  -0.693  0.0187 -0.0219 -0.0429
  209MOL0     C28099   5.175   8.933  -0.719 -0.7720 -0.3826  0.4470
  209MOL0     C28100   5.262   8.862  -0.826  0.0526  0.5144  0.3589
  209MOL0     C28101   5.174   8.807  -0.946  0.0300 -0.2021 -0.2653
  209MOL0     C28102   5.258   8.792  -1.075  0.5265  0.0106 -0.6049
  209MOL0     C28103   5.187   8.710  -1.192  0.2489  0.2774  0.0405
  209MOL0     O28104   5.037   8.691  -1.176 -0.0203 -0.0513 -0.8062
  209MOL0     C28105   4.990   8.570  -1.214 -0.2851 -0.6854  0.0109
  209MOL0     C28106   4.871   8.534  -1.152  0.0063 -0.4786  0.5757
  209MOL0     C28107   4.781   8.437  -1.202 -0.2123  0.3846 -0.5672
  209MOL0     C28108   4.827   8.358  -1.313  0.0386 -0.5146 -0.0090
  209MOL0     C28109   4.748   8.245  -1.384  0.6678  0.4840 -0.5655
  209MOL0     O28110   4.823   8.151  -1.454 -0.0256 -0.6047 -0.1024
  209MOL0     C28111   4.740   8.050  -1.511  0.3125  0.2305  0.2405
  209MOL0     C28112   4.712   7.944  -1.434  0.3532 -0.1894  0.3979
  209MOL0     C28113   4.620   7.849  -1.489 -0.6394 -0.2704  0.0822
  209MOL0     C28114   4.573   7.858  -1.618 -0.2992  0.8886 -0.3990
  209MOL0     O28115   4.486   7.772  -1.674 -0.8412 -0.2975  0.1022
  209MOL0     C28116   4.457   7.645  -1.609 -0.0026  0.9198  0.1631
  209MOL0     C28117   4.365   7.561  -1.688 -0.8872  0.6978 -0.3996
  209MOL0     C28118   4.225   7.617  -1.717  0.1364  1.1962  0.1811
  209MOL0     C28119   4.176   7.720  -1.621  0.1057 -0.5242  0.0402
  209MOL0     C28120   4.026   7.757  -1.635 -0.3583  0.1071  0.8129
  209MOL0     C28121   4.005   7.876  -1.727  0.8225  0.1608 -0.1720
  209MOL0     C28122   4.011   7.858  -1.877 -1.1542  0.3478 -0.2780
  209MOL0     C28123   4.139   7.918  -1.938 -0.0568  0.8333  0.3732
  209MOL0    Cl28124   4.135   8.101  -1.944  0.7909  0.3318 -0.0759
  209MOL0     C28125   4.624   7.954  -1.699  0.5905 -0.0518  0.1728
  209MOL0     C28126   4.693   8.061  -1.636 -1.0439  0.5180  0.3935
  209MOL0     O28127   4.623   8.238  -1.357 -0.2341  0.5439  0.1241
  209MOL0     C28128   4.949   8.386  -1.372  0.6412  0.0968 -0.9024
  209MOL0     C28129   5.028   8.497  -1.319 -0.2004  0.9627 -0.8444
  209MOL0     N28130   5.089   8.882  -0.630 -0.0323 -0.0475  0.5743
  209MOL0     N28131   5.063   8.979  -0.548 -0.0413  0.0882 -0.7531
  209MOL0     C28132   5.835   8.788   0.307  0.0701 -0.3465 -0.2315
  209MOL0     C28133   5.961   8.824   0.352 -0.2837 -0.5576  0.8381
  209MOL0     C28134   6.388   8.876   0.421 -0.8704 -0.5866 -0.4021
  209MOL0     C28135   6.412   8.999   0.348 -0.3513  1.3168  0.5496
  209MOL0     C28136   6.531   9.068   0.372  0.7202  0.1312  0.0352
  209MOL0     C28137   6.613   9.027   0.476  0.9514  0.0248 -0.4833
  209MOL0     O28138   6.725   9.109   0.492  0.1657 -0.3029  0.9020
  209MOL0     C28139   6.809   9.084   0.605  0.7247 -0.7960 -0.2526
  209MOL0     C28140   6.917   9.198   0.639 -0.2953 -0.2451 -0.2934
  209MOL0     C28141   7.021   9.152   0.745  0.0295  0.1624  0.7559
  209MOL0     C28142   7.131   9.254   0.775  0.6667  0.1801 -0.8844
  209MOL0     C28143   7.224   9.275   0.663  0.2234 -0.5520 -0.1836
  209MOL0     C28144   7.301   9.312   0.576  0.3981  0.0491 -0.1401
  209MOL0     C28145   6.596   8.907   0.540  0.6758  0.4148 -0.7501
  209MOL0     C28146   6.488   8.825   0.512  0.8860 -0.1607 -0.5428
  209MOL0     C28147   6.487   8.678   0.567  0.7597  0.3839 -0.4020
  209MOL0     H28148   6.133   8.700   0.080 -0.3617 -1.2158 -0.0209
  209MOL0     H28149   5.896   8.679  -0.014  1.4831 -0.6824  0.1321
  209MOL0     H28150   5.522   8.696   0.275 -0.5562  0.5745 -0.7952
  209MOL0     H28151   5.573   8.868   0.239  2.4846 -0.3400  0.1306
  209MOL0     H28152   5.353   8.816   0.132 -0.7717 -1.7926 -0.4921
  209MOL0     H28153   5.433   8.695   0.032  0.5336  0.3476 -1.5583
  209MOL0     H28154   5.572   8.869  -0.066  0.4471 -2.9503  0.9267
  209MOL0     H28155   5.489   8.981   0.049  1.4677 -1.6621  2.5823
  209MOL0     H28156   5.361   8.834  -0.186 -1.0480 -1.3403  2.0567
  209MOL0     H28157   5.265   8.911  -0.059  1.4211 -1.7181  2.2190
  209MOL0     H28158   5.371   9.132  -0.121  3.1975  1.0794 -0.1757
  209MOL0     H28159   5.472   9.045  -0.243  0.2598 -1.6245  0.8690
  209MOL0     H28160   5.296   8.972  -0.370 -2.7179 -3.6231  3.2007
  209MOL0     H28161   5.170   9.041  -0.274  0.9563 -4.9954  0.9055
  209MOL0     H28162   5.356   9.184  -0.469 -2.3393 -0.3369 -2.3472
  209MOL0     H28163   5.283   9.283  -0.332  0.7277  2.2689 -2.2211
  209MOL0     H28164   5.057   9.205  -0.414 -0.2358  0.8481 -1.1693
  209MOL0     H28165   5.144   9.297  -0.541  0.6296 -0.5245 -1.7363
  209MOL0     H28166   5.280   9.115  -0.748  0.8151 -3.1246 -2.1488
  209MOL0     H28167   5.338   8.933  -0.860 -0.1008  1.9543  2.7952
  209MOL0     H28168   5.310   8.781  -0.770 -0.0084 -0.0634 -0.4083
  209MOL0     H28169   5.133   8.712  -0.910 -0.4916 -0.0248 -0.3831
  209MOL0     H28170   5.097   8.885  -0.949  1.9043  2.0259  2.7775
  209MOL0     H28171   5.355   8.744  -1.058  1.7450  2.2936 -0.7691
  209MOL0     H28172   5.274   8.887  -1.126  5.2835 -0.3444 -0.2178
  209MOL0     H28173   5.238   8.615  -1.211  4.0165  2.2709 -0.8530
  209MOL0     H28174   5.205   8.774  -1.279  1.9215  0.3535  0.4043
  209MOL0     H28175   4.831   8.591  -1.070 -2.2584 -0.3490 -0.5409
  209MOL0     H28176   4.690   8.404  -1.155 -0.5793  2.3845  0.2160
  209MOL0     H28177   4.755   7.937  -1.334  0.2330 -0.6922  0.4129
  209MOL0     H28178   4.609   7.773  -1.412 -2.6743 -0.8221 -0.7031
  209MOL0     H28179   4.551   7.589  -1.602  0.1792  0.6683 -2.9275
  209MOL0     H28180   4.410   7.654  -1.511  0.5066  1.6981  0.3493
  209MOL0     H28181   4.420   7.550  -1.782 -1.5720  0.6908 -0.8007
  209MOL0     H28182   4.358   7.461  -1.644  0.0157 -0.3448 -2.4643
  209MOL0     H28183   4.228   7.649  -1.822  5.6553  0.9274 -0.0543
  209MOL0     H28184   4.162   7.527  -1.713  3.7825 -1.6796 -0.9611
  209MOL0     H28185   4.226   7.817  -1.632  0.1056 -0.4568  0.5936
  209MOL0     H28186   4.185   7.686  -1.517  0.0528 -2.1778 -0.4621
  209MOL0     H28187   3.988   7.795  -1.540 -1.0476  2.7708 -0.4413
  209MOL0     H28188   3.969   7.665  -1.655 -1.8454  1.0278  0.7041
  209MOL0     H28189   3.906   7.918  -1.711  1.7930  2.6628 -0.3788
  209MOL0     H28190   4.078   7.953  -1.701  1.6379 -0.6256 -0.0650
  209MOL0     H28191   3.923   7.902  -1.924 -3.6569 -0.2194  3.4113
  209MOL0     H28192   4.011   7.751  -1.901 -0.9535 -0.4986  2.9814
  209MOL0     H28193   4.232   7.893  -1.885 -0.4601  2.0177  1.7123
  209MOL0     H28194   4.153   7.892  -2.043  3.7084 -0.9389  1.1278
  209MOL0     H28195   4.603   7.955  -1.806  2.4732 -1.4341 -0.2559
  209MOL0     H28196   4.716   8.158  -1.678 -2.5474  2.0322  2.8520
  209MOL0     H28197   4.977   8.331  -1.461  2.2599  1.0643 -1.0316
  209MOL0     H28198   5.112   8.523  -1.383  1.2299 -4.8643 -1.8747
  209MOL0     H28199   5.756   8.809   0.378 -2.3609 -0.0376 -2.8543
  209MOL0     H28200   5.991   8.846   0.453 -0.9212 -1.7221  1.3078
  209MOL0     H28201   6.343   9.034   0.272 -2.2054 -3.0414 -0.0568
  209MOL0     H28202   6.538   9.153   0.305  0.5298  0.5531  0.5406
  209MOL0     H28203   6.859   8.991   0.578  0.5733 -1.9298  2.8968
  209MOL0     H28204   6.737   9.063   0.684 -3.1724 -2.2430 -3.8508
  209MOL0     H28205   6.865   9.283   0.686 -0.0758 -1.6919  2.8041
  209MOL0     H28206   6.956   9.233   0.543 -1.2811  0.5356 -0.4329
  209MOL0     H28207   7.070   9.057   0.723 -1.3418 -0.7886  1.6158
  209MOL0     H28208   6.971   9.130   0.840  1.1460  0.8538  1.5326
  209MOL0     H28209   7.083   9.346   0.809  2.1485  1.5060 -2.2061
  209MOL0     H28210   7.186   9.207   0.857 -1.5911  1.9149  1.7718
  209MOL0     H28211   7.378   9.336   0.506 -1.1213  0.3931 -1.7646
  209MOL0     H28212   6.671   8.877   0.612  0.6221  2.0788  0.0573
  209MOL0     H28213   6.589   8.645   0.589  0.3723 -0.2554  0.4921
  209MOL0     H28214   6.428   8.673   0.660  1.8523  1.9860  0.4219
  209MOL0     H28215   6.449   8.618   0.484 -0.2003 -1.2293  1.1156
  210MOL0     O28216   7.362   3.052   6.248 -0.3625 -0.1277  0.3408
  210MOL0     C28217   7.291   2.994   6.162 -0.2544  0.3730 -0.3539
  210MOL0     O28218   7.326   2.885   6.081  0.4169  0.1854 -0.3372
  210MOL0     C28219   7.450   2.839   6.070  0.1393 -0.1122 -0.4943
  210MOL0     C28220   7.453   2.731   5.974  0.2392 -0.1113  0.7252
  210MOL0     C28221   7.575   2.685   5.914 -0.1394  0.1567 -0.7757
  210MOL0     C28222   7.699   2.731   5.963  0.4625 -0.1018 -0.4994
  210MOL0     O28223   7.819   2.683   5.915  0.5005  0.3264 -0.0786
  210MOL0     C28224   7.818   2.605   5.792 -0.9584  0.0361 -0.2227
  210MOL0     C28225   7.959   2.588   5.750 -0.6317  0.0547  0.7925
  210MOL0     C28226   7.965   2.492   5.631 -0.0326  0.0102  0.1830
  210MOL0     C28227   8.097   2.428   5.599 -0.7114 -0.1903  0.2926
  210MOL0     C28228   8.062   2.302   5.513 -0.6379 -0.5791 -0.2300
  210MOL0     C28229   8.181   2.245   5.442 -0.7871  1.5059  0.1824
  210MOL0     C28230   8.289   2.179   5.527 -0.4971  0.2423  0.3367
  210MOL0     C28231   8.418   2.143   5.445 -0.2373 -0.4580 -0.2389
  210MOL0     N28232   8.494   2.258   5.387  0.7031  1.2736  0.1866
  210MOL0     C28233   8.546   2.364   5.453  0.2468  0.6030 -0.4384
  210MOL0     C28234   8.620   2.429   5.370 -0.7486 -0.6096  0.6233
  210MOL0     C28235   8.677   2.570   5.404 -0.0448  0.8447  0.8607
  210MOL0     C28236   8.596   2.691   5.361 -0.0041 -0.8448  0.2972
  210MOL0     C28237   8.650   2.833   5.398  0.4527 -0.7734 -0.9795
  210MOL0     C28238   8.568   2.949   5.329 -0.4219  0.4024 -0.2628
  210MOL0     O28239   8.554   2.924   5.193 -0.7204 -0.3516  0.0330
  210MOL0     C28240   8.653   2.974   5.109  0.2617  1.2528  0.4000
  210MOL0     C28241   8.777   3.033   5.125 -0.0067 -0.7063 -0.3571
  210MOL0     C28242   8.847   3.077   5.008  0.1115 -0.4118  0.3844
  210MOL0     C28243   8.792   3.060   4.879  0.7678  0.2058  0.2126
  210MOL0     C28244   8.873   3.083   4.756  0.4537 -0.3586 -0.3586
  210MOL0     O28245   8.985   3.148   4.780 -0.4708 -0.2529  0.4694
  210MOL0     C28246   9.082   3.187   4.679  0.8066  0.9278  0.8724
  210MOL0     C28247   9.215   3.178   4.720  0.0839  0.3663 -0.0020
  210MOL0     C28248   9.319   3.213   4.633 -0.2464  0.3798 -0.5256
  210MOL0     C28249   9.294   3.238   4.500 -0.1463  0.5702  0.0228
  210MOL0     O28250   9.402   3.267   4.415 -0.2413 -0.0464 -0.3871
  210MOL0     C28251   9.513   3.171   4.406 -0.1513 -0.3547  0.8270
  210MOL0     C28252   9.578   3.184   4.267  1.0696 -0.0887 -0.3173
  210MOL0     C28253   9.465   3.171   4.166 -0.0236 -0.0269 -1.0003
  210MOL0     C28254   9.434   3.302   4.103  0.3751  0.8481  1.1535
  210MOL0     C28255   9.344   3.285   3.983  0.4385 -0.3090 -0.2123
  210MOL0     C28256   9.291   3.418   3.914 -0.1972  1.0241 -0.4069
  210MOL0     C28257   9.245   3.391   3.773  0.2252  0.4133 -0.6331
  210MOL0     C28258   9.187   3.513   3.696 -0.5377 -0.1558  0.8312
  210MOL0    Cl28259   9.118   3.450   3.542 -0.3523  0.1874  0.2149
  210MOL0     C28260   9.160   3.251   4.460  0.3239 -0.2599 -0.0832
  210MOL0     C28261   9.055   3.228   4.545 -0.4403 -1.0533 -0.3637
  210MOL0     O28262   8.829   3.043   4.650 -0.5819  0.2178  0.9987
  210MOL0     C28263   8.671   2.994   4.864 -0.5667  0.4218 -0.1802
  210MOL0     C28264   8.602   2.957   4.976  0.7500 -0.0958  0.4545
  210MOL0     N28265   8.603   2.374   5.245 -0.1468  0.5261 -0.6206
  210MOL0     N28266   8.523   2.275   5.259 -0.2563  0.1458  0.4226
  210MOL0     C28267   7.692   2.830   6.071  0.5724  0.7737 -0.1345
  210MOL0     C28268   7.574   2.890   6.118 -0.7227 -0.6713 -0.7102
  210MOL0     C28269   7.172   3.071   6.124 -0.0376 -0.9642 -0.1824
  210MOL0     C28270   7.140   3.074   5.983 -0.2335  0.2011  0.3001
  210MOL0     C28271   7.026   3.143   5.941 -1.1882 -0.5262 -0.2526
  210MOL0     C28272   6.956   3.232   6.018 -0.1210 -0.4616  0.1298
  210MOL0     O28273   6.847   3.304   5.972 -0.0154 -1.0587  0.6590
  210MOL0     C28274   6.840   3.339   5.831  0.1053 -0.5153  0.1074
  210MOL0     C28275   6.737   3.458   5.825  0.5221 -0.9619 -0.4771
  210MOL0     C28276   6.586   3.409   5.850 -0.6056  1.1240 -0.5496
  210MOL0     C28277   6.511   3.383   5.716 -0.6828  0.8226 -1.1783
  210MOL0     C28278   6.408   3.277   5.718  0.3434  0.1790  0.6340
  210MOL0     C28279   6.316   3.196   5.699 -0.0043 -1.0271 -0.4534
  210MOL0     C28280   6.990   3.238   6.152 -0.7931 -0.1328  0.5461
  210MOL0     C28281   7.099   3.168   6.208 -0.1027  0.2008  0.2535
  210MOL0     C28282   7.129   3.194   6.356  0.1249 -1.1704  1.0520
  210MOL0     H28283   7.361   2.699   5.926 -0.0279  2.0498 -0.3362
  210MOL0     H28284   7.556   2.626   5.825 -2.9635 -0.3346  0.0434
  210MOL0     H28285   7.775   2.505   5.792  1.4280 -1.0529 -0.7562
  210MOL0     H28286   7.779   2.669   5.712 -1.1991  0.4568  0.2271
  210MOL0     H28287   8.005   2.541   5.838 -2.5927 -2.9515  0.3775
  210MOL0     H28288   8.009   2.680   5.717  1.2782 -1.7832 -1.7842
  210MOL0     H28289   7.948   2.542   5.535  0.1223 -2.6720 -1.3518
  210MOL0     H28290   7.892   2.410   5.633 -0.2171  0.1554 -0.3721
  210MOL0     H28291   8.155   2.495   5.536 -0.7085 -2.0052 -1.7419
  210MOL0     H28292   8.146   2.395   5.691 -2.6252  0.2931  1.5521
  210MOL0     H28293   8.009   2.225   5.570 -0.0875  0.1167  1.2968
  210MOL0     H28294   8.000   2.339   5.431  1.5524  3.3939 -0.3616
  210MOL0     H28295   8.130   2.180   5.370  0.3760  0.9224 -0.1264
  210MOL0     H28296   8.220   2.327   5.382  0.7313  0.5735 -0.1425
  210MOL0     H28297   8.251   2.086   5.569  1.5363 -0.1775  1.3963
  210MOL0     H28298   8.325   2.239   5.611 -0.7267 -1.5743  1.7777
  210MOL0     H28299   8.481   2.086   5.513 -0.3549  0.0993  0.3445
  210MOL0     H28300   8.397   2.072   5.364 -2.1097 -0.3649  0.1139
  210MOL0     H28301   8.523   2.393   5.555 -0.8480 -1.9672  0.1080
  210MOL0     H28302   8.711   2.573   5.508  1.1156 -1.1994  0.6073
  210MOL0     H28303   8.771   2.583   5.349 -0.6962 -0.8507 -0.7525
  210MOL0     H28304   8.601   2.697   5.252  0.2763  0.7746  0.3729
  210MOL0     H28305   8.490   2.680   5.385 -0.1199  1.4669  1.1536
  210MOL0     H28306   8.750   2.848   5.354 -0.1845  3.3558 -1.3756
  210MOL0     H28307   8.643   2.845   5.506 -0.7900 -2.4683 -0.8267
  210MOL0     H28308   8.608   3.044   5.368  0.4304 -0.6076  1.4609
  210MOL0     H28309   8.465   2.935   5.363 -0.2281 -1.0092 -0.2280
  210MOL0     H28310   8.818   3.041   5.226 -1.9147  0.1140  0.4141
  210MOL0     H28311   8.946   3.119   5.024  0.0705  0.1845 -0.8379
  210MOL0     H28312   9.234   3.156   4.825 -1.2043  0.0378  0.1817
  210MOL0     H28313   9.422   3.219   4.666  0.7238 -1.1157 -3.0038
  210MOL0     H28314   9.596   3.191   4.473  3.7617  0.8730 -3.8278
  210MOL0     H28315   9.471   3.071   4.424 -0.1353 -0.0775  2.4760
  210MOL0     H28316   9.623   3.283   4.270  0.0158  0.4487 -1.4388
  210MOL0     H28317   9.653   3.107   4.247 -1.6738 -3.0947 -0.0280
  210MOL0     H28318   9.490   3.099   4.089 -1.1659 -1.0090 -0.4851
  210MOL0     H28319   9.374   3.130   4.211 -1.2239  0.7755 -2.5774
  210MOL0     H28320   9.526   3.353   4.074  0.7057 -0.1159  0.4478
  210MOL0     H28321   9.384   3.354   4.185 -0.2763 -0.0232  1.3243
  210MOL0     H28322   9.259   3.219   4.000  0.8973 -0.6529  0.8571
  210MOL0     H28323   9.408   3.227   3.917 -0.7454 -1.3500 -0.4810
  210MOL0     H28324   9.220   3.466   3.981  0.2838 -0.4179  1.2299
  210MOL0     H28325   9.376   3.486   3.913  1.8077 -1.3083 -0.3810
  210MOL0     H28326   9.158   3.325   3.775  0.1565  0.3530  3.2209
  210MOL0     H28327   9.325   3.338   3.720  0.0439  0.5632 -1.0531
  210MOL0     H28328   9.110   3.550   3.763  0.2153  0.6478  1.2710
  210MOL0     H28329   9.263   3.589   3.676 -0.1544 -1.2927 -2.7266
  210MOL0     H28330   9.129   3.259   4.357 -0.7223 -0.6281  0.1895
  210MOL0     H28331   8.962   3.207   4.493  0.2057  0.4572 -2.2332
  210MOL0     H28332   8.631   2.973   4.766 -0.1772 -2.4766  0.1736
  210MOL0     H28333   8.514   2.903   4.944 -1.2346  2.8029  0.5819
  210MOL0     H28334   7.787   2.860   6.114  1.0330 -1.3543  0.4464
  210MOL0     H28335   7.577   2.980   6.178 -1.0846  0.5095 -2.3616
  210MOL0     H28336   7.202   3.029   5.906 -1.3619  2.0537 -1.8126
  210MOL0     H28337   7.004   3.131   5.836  2.6224  3.6140 -1.8201
  210MOL0     H28338   6.809   3.249   5.777  1.9842 -2.1624  1.6252
  210MOL0     H28339   6.941   3.362   5.797  1.1196 -2.4904  1.5586
  210MOL0     H28340   6.748   3.520   5.736  2.0667 -0.5475 -0.0256
  210MOL0     H28341   6.753   3.523   5.911  1.6027 -1.3658 -0.3687
  210MOL0     H28342   6.531   3.471   5.921 -0.1036 -0.2033  1.0616
  210MOL0     H28343   6.598   3.317   5.908  0.7698  1.4471 -0.2859
  210MOL0     H28344   6.470   3.479   5.684  0.1334  0.9277 -1.9225
  210MOL0     H28345   6.581   3.350   5.639  0.4301 -3.0735  1.1804
  210MOL0     H28346   6.225   3.141   5.690 -0.9788  0.4904 -0.2899
  210MOL0     H28347   6.933   3.310   6.211 -0.1449  0.6756  0.2079
  210MOL0     H28348   7.048   3.256   6.396  1.8758  2.0303  0.0065
  210MOL0     H28349   7.126   3.100   6.413  1.9217 -2.5170 -0.9293
  210MOL0     H28350   7.221   3.249   6.375 -0.1156  0.8174 -2.7381
  211MOL0     O28351   8.324  10.482   5.451 -0.4190  0.3135 -0.1669
  211MOL0     C28352   8.415  10.511   5.520 -0.2525 -1.3280 -0.1202
  211MOL0     O28353   8.456  10.446   5.630  0.3241  0.1405  0.2683
  211MOL0     C28354   8.387  10.332   5.674 -0.2071 -0.2216 -0.7965
  211MOL0     C28355   8.461  10.215   5.699 -0.0838 -0.6379 -0.0139
  211MOL0     C28356   8.401  10.100   5.743  1.1642 -0.3175 -0.4105
  211MOL0     C28357   8.261  10.083   5.753 -0.0100  0.5299 -0.4408
  211MOL0     O28358   8.210   9.968   5.779  0.2185 -0.0922  0.0621
  211MOL0     C28359   8.081   9.936   5.729 -0.1233 -0.0906 -0.1567
  211MOL0     C28360   8.051   9.789   5.735 -0.2703 -0.5609 -0.0818
  211MOL0     C28361   7.923   9.759   5.660 -0.6449  0.6495 -0.0226
  211MOL0     C28362   7.863   9.644   5.732 -0.1625  0.4922 -0.7388
  211MOL0     C28363   7.792   9.669   5.865 -0.7459  0.3825 -0.1586
  211MOL0     C28364   7.736   9.528   5.897  0.3376 -0.6289 -0.3755
  211MOL0     C28365   7.630   9.533   6.013  0.4206 -0.7667  0.8600
  211MOL0     C28366   7.692   9.581   6.147  0.0979  0.8046  0.4391
  211MOL0     N28367   7.773   9.470   6.207 -0.1414  0.0377  0.4114
  211MOL0     C28368   7.727   9.374   6.292  0.5508 -0.2175 -0.7217
  211MOL0     C28369   7.832   9.307   6.330  0.4288 -0.1270 -0.0614
  211MOL0     C28370   7.835   9.188   6.426  0.2883  0.8269  0.4036
  211MOL0     C28371   7.970   9.169   6.500  0.3253  0.4548  0.9147
  211MOL0     C28372   7.937   9.098   6.637 -0.3141 -0.3936 -0.2033
  211MOL0     C28373   8.056   9.054   6.721 -0.0473  0.1188 -0.5238
  211MOL0     O28374   7.999   9.022   6.852  0.1984  0.3291  0.1484
  211MOL0     C28375   8.042   9.101   6.952 -1.2766 -0.3263 -0.1517
  211MOL0     C28376   7.959   9.127   7.059 -0.0947 -0.9273  0.9607
  211MOL0     C28377   8.006   9.198   7.177  0.7378  1.0054  1.1945
  211MOL0     C28378   8.135   9.246   7.183  0.2661  0.4236  0.0589
  211MOL0     C28379   8.190   9.308   7.304  0.5175 -0.8046  1.0624
  211MOL0     O28380   8.327   9.304   7.314  0.2199 -1.0456 -0.1504
  211MOL0     C28381   8.384   9.367   7.415 -0.1864 -0.8502 -0.4629
  211MOL0     C28382   8.350   9.343   7.553  0.1536 -0.4576  0.3334
  211MOL0     C28383   8.416   9.395   7.661  0.2705  0.6596  0.9418
  211MOL0     C28384   8.522   9.481   7.631 -0.5146 -0.6187 -0.4280
  211MOL0     O28385   8.608   9.522   7.732 -0.4176  0.9009  0.0931
  211MOL0     C28386   8.575   9.530   7.872 -0.0652 -0.3949 -0.0647
  211MOL0     C28387   8.467   9.636   7.898  0.2678  0.4608  1.0847
  211MOL0     C28388   8.341   9.584   7.977 -0.3123 -1.1843  0.4990
  211MOL0     C28389   8.213   9.658   7.947 -1.0009  0.4247  0.0571
  211MOL0     C28390   8.164   9.612   7.810 -0.4256 -0.3074 -0.6783
  211MOL0     C28391   8.078   9.482   7.822 -0.4552  0.5601 -0.4687
  211MOL0     C28392   7.997   9.479   7.698 -0.3777 -1.0922  0.0074
  211MOL0     C28393   7.930   9.342   7.682  0.0223 -0.9492  0.0136
  211MOL0    Cl28394   7.809   9.300   7.819  0.5355 -0.2883 -0.0135
  211MOL0     C28395   8.567   9.503   7.499  0.6136  1.1117  0.7928
  211MOL0     C28396   8.499   9.442   7.391 -0.2474  0.9074 -0.2745
  211MOL0     O28397   8.115   9.374   7.370  0.1449  0.3980 -0.4724
  211MOL0     C28398   8.225   9.218   7.077  0.7085 -0.6654 -0.6439
  211MOL0     C28399   8.181   9.143   6.963  0.3857  0.4203 -0.2180
  211MOL0     N28400   7.943   9.345   6.262 -0.2964  0.0956 -0.3605
  211MOL0     N28401   7.912   9.446   6.189  0.8535  0.2589  0.3530
  211MOL0     C28402   8.186  10.201   5.728 -0.8631  1.1124 -0.2890
  211MOL0     C28403   8.246  10.323   5.687  0.0485 -0.4624 -0.2455
  211MOL0     C28404   8.450  10.657   5.505 -0.3612 -0.0324  0.3146
  211MOL0     C28405   8.493  10.698   5.376 -0.3181 -0.4743  1.1457
  211MOL0     C28406   8.520  10.828   5.357  0.2901  0.5961 -0.7721
  211MOL0     C28407   8.509  10.931   5.457 -0.3834 -0.0089 -0.1978
  211MOL0     O28408   8.508  11.063   5.420 -0.4104 -0.1979  0.0538
  211MOL0     C28409   8.503  11.162   5.529  0.2184  0.2982  0.8925
  211MOL0     C28410   8.522  11.294   5.459 -0.6179 -1.4638  0.5821
  211MOL0     C28411   8.662  11.304   5.394 -1.1407  0.0230  0.4213
  211MOL0     C28412   8.766  11.356   5.492 -0.1476  0.8216 -0.0128
  211MOL0     C28413   8.762  11.494   5.518 -0.1786 -1.9090  0.6375
  211MOL0     C28414   8.759  11.616   5.548 -0.4337  0.0689 -0.5741
  211MOL0     C28415   8.458  10.886   5.580 -1.7037  0.2705 -1.0383
  211MOL0     C28416   8.432  10.753   5.611  0.3319 -0.3419 -0.2273
  211MOL0     C28417   8.388  10.727   5.756  0.8742 -0.3111  0.4141
  211MOL0     H28418   8.569  10.226   5.705  0.1067 -2.9860  2.5109
  211MOL0     H28419   8.465  10.019   5.778 -1.0964 -0.7572  3.2883
  211MOL0     H28420   8.009   9.999   5.781 -0.4115  0.8059 -1.5738
  211MOL0     H28421   8.088   9.970   5.625  2.2448  1.9181  0.5703
  211MOL0     H28422   8.048   9.756   5.840  0.6336  1.4520  0.6226
  211MOL0     H28423   8.137   9.747   5.682  0.7631  2.5364 -1.0386
  211MOL0     H28424   7.947   9.733   5.557  2.8652 -0.6642  0.9913
  211MOL0     H28425   7.861   9.848   5.652 -0.2878  1.1742  2.1912
  211MOL0     H28426   7.787   9.597   5.669 -0.8620  1.6700 -0.8048
  211MOL0     H28427   7.934   9.562   5.747 -0.7257  0.1861  0.4594
  211MOL0     H28428   7.865   9.686   5.945 -0.5094 -1.7902  0.1513
  211MOL0     H28429   7.720   9.748   5.845  0.6503  1.1634 -2.5186
  211MOL0     H28430   7.691   9.483   5.808 -2.3781  1.3832 -0.1745
  211MOL0     H28431   7.822   9.467   5.926  1.9131  1.5808 -0.1547
  211MOL0     H28432   7.576   9.438   6.019  0.5033 -1.0207 -1.4126
  211MOL0     H28433   7.559   9.603   5.967  1.1342 -0.4786  0.1686
  211MOL0     H28434   7.757   9.667   6.130  2.9302 -1.5583 -1.6917
  211MOL0     H28435   7.618   9.610   6.222  1.0771 -0.3280  1.9043
  211MOL0     H28436   7.622   9.365   6.319  0.0576  0.9138 -2.1849
  211MOL0     H28437   7.754   9.212   6.496  0.1739 -0.2568  0.6481
  211MOL0     H28438   7.810   9.107   6.357 -0.2570  1.9281 -0.7366
  211MOL0     H28439   8.030   9.100   6.440 -0.3286  1.4854 -0.9937
  211MOL0     H28440   8.020   9.265   6.514  2.5911 -0.5116 -0.0288
  211MOL0     H28441   7.873   9.014   6.610 -0.4979 -0.0168 -0.9526
  211MOL0     H28442   7.880   9.171   6.695 -2.7751 -0.1183 -2.7561
  211MOL0     H28443   8.130   9.134   6.717 -0.8469  0.8217 -3.1506
  211MOL0     H28444   8.115   8.970   6.682 -1.9786 -0.6789 -1.8910
  211MOL0     H28445   7.855   9.098   7.050 -0.2910  0.0766 -0.3805
  211MOL0     H28446   7.936   9.217   7.258 -0.9291 -2.7165  0.8325
  211MOL0     H28447   8.260   9.289   7.579 -0.6789  1.0677  0.7122
  211MOL0     H28448   8.381   9.384   7.764  0.3185 -0.8915  0.8153
  211MOL0     H28449   8.531   9.437   7.910 -2.3677  0.5703 -0.1742
  211MOL0     H28450   8.663   9.559   7.931 -0.2780 -0.9812  0.5612
  211MOL0     H28451   8.503   9.721   7.956  1.7864 -0.1704  1.1099
  211MOL0     H28452   8.445   9.678   7.800  1.8887 -0.1227  0.4361
  211MOL0     H28453   8.328   9.478   7.954  2.2975 -1.2789 -0.8534
  211MOL0     H28454   8.371   9.589   8.082 -1.5394 -1.1113  0.8653
  211MOL0     H28455   8.244   9.763   7.952 -2.1703  0.7411  1.2802
  211MOL0     H28456   8.134   9.641   8.020  0.2113 -0.7679  1.1534
  211MOL0     H28457   8.255   9.606   7.750  1.7297 -1.6330  2.4862
  211MOL0     H28458   8.092   9.691   7.785 -1.4493 -0.7762  0.6363
  211MOL0     H28459   8.152   9.404   7.844 -1.6611 -0.2265  1.0328
  211MOL0     H28460   8.013   9.474   7.910 -1.9825  0.1669 -1.5877
  211MOL0     H28461   8.058   9.497   7.609 -2.0099 -1.9267 -1.3422
  211MOL0     H28462   7.922   9.558   7.693  0.5450 -0.3017 -2.7466
  211MOL0     H28463   7.875   9.343   7.588  1.8411 -1.2320 -1.0945
  211MOL0     H28464   8.004   9.262   7.674 -1.1874 -1.9370 -2.1005
  211MOL0     H28465   8.660   9.557   7.483  1.6980 -0.7922  0.3527
  211MOL0     H28466   8.535   9.457   7.290 -0.1485 -1.2445 -0.6067
  211MOL0     H28467   8.328   9.249   7.089  0.3166  0.0829  0.9500
  211MOL0     H28468   8.252   9.115   6.885  0.4980  0.2880 -0.0686
  211MOL0     H28469   8.078  10.200   5.736 -0.8289  1.6478  0.2977
  211MOL0     H28470   8.189  10.411   5.661  1.1433 -0.0159 -1.2272
  211MOL0     H28471   8.498  10.630   5.292  0.2892  1.1728 -0.2252
  211MOL0     H28472   8.548  10.874   5.262  2.9389  1.0159  0.1303
  211MOL0     H28473   8.578  11.151   5.609 -0.5137 -0.2504  1.5135
  211MOL0     H28474   8.409  11.167   5.585  1.3792  3.1083  2.8375
  211MOL0     H28475   8.507  11.384   5.520  1.5216  1.6335 -3.0465
  211MOL0     H28476   8.444  11.303   5.384  0.0870  5.2632  0.0433
  211MOL0     H28477   8.674  11.358   5.299  3.3822  1.0500  1.3221
  211MOL0     H28478   8.695  11.206   5.359 -0.7773  1.3717 -3.5724
  211MOL0     H28479   8.752  11.281   5.571  1.0785  2.1320  1.5126
  211MOL0     H28480   8.868  11.340   5.456 -0.3629  0.8271 -0.6354
  211MOL0     H28481   8.760  11.723   5.555  1.7762  0.0305  0.6633
  211MOL0     H28482   8.445  10.957   5.662 -1.1244 -1.2281  0.4108
  211MOL0     H28483   8.281  10.748   5.767  0.6363  0.0702 -1.9384
  211MOL0     H28484   8.403  10.622   5.781  1.2145  0.1073  2.0757
  211MOL0     H28485   8.452  10.784   5.824  3.2129 -4.2698  1.8711
  212MOL0     O28486   7.525   0.458   5.283 -0.2413 -0.1924  0.1532
  212MOL0     C28487   7.422   0.502   5.236 -0.1851 -1.1414  0.5005
  212MOL0     O28488   7.363   0.477   5.112  0.8590  0.1393 -0.1166
  212MOL0     C28489   7.392   0.366   5.035 -0.0873 -0.4011  0.2122
  212MOL0     C28490   7.463   0.253   5.077 -0.5230  0.4144 -0.2407
  212MOL0     C28491   7.483   0.137   4.991 -0.9648  0.4375 -0.1694
  212MOL0     C28492   7.429   0.135   4.861  0.1924 -0.2895  0.0279
  212MOL0     O28493   7.448   0.036   4.768 -0.4584  0.3836 -0.1784
  212MOL0     C28494   7.463  -0.094   4.814 -0.1131  0.5131 -1.1148
  212MOL0     C28495   7.615  -0.137   4.805  0.8887  0.0451 -0.0129
  212MOL0     C28496   7.633  -0.182   4.657  0.3142  0.5098 -0.2352
  212MOL0     C28497   7.778  -0.184   4.628 -0.6622 -0.3592 -0.4076
  212MOL0     C28498   7.815  -0.261   4.498  0.1842 -0.1038 -0.4477
  212MOL0     C28499   7.879  -0.176   4.386  0.2503  0.5607 -0.1139
  212MOL0     C28500   7.776  -0.102   4.304 -0.5037 -0.8477 -0.4636
  212MOL0     C28501   7.815   0.033   4.244 -0.1194  0.0694 -0.5978
  212MOL0     N28502   7.859   0.136   4.333 -0.1850  0.3015 -1.1662
  212MOL0     C28503   7.821   0.164   4.460  0.3410  0.4574 -0.3329
  212MOL0     C28504   7.886   0.280   4.491 -0.1133  0.5108  0.3023
  212MOL0     C28505   7.886   0.357   4.617  0.7204 -0.8626  0.1667
  212MOL0     C28506   7.824   0.288   4.731 -0.3997 -0.0200 -1.2310
  212MOL0     C28507   7.854   0.363   4.866  0.6761  0.0074 -0.1218
  212MOL0     C28508   7.733   0.456   4.899 -0.6646  0.6158  0.2622
  212MOL0     O28509   7.732   0.563   4.806 -0.6417 -0.2841 -0.0557
  212MOL0     C28510   7.685   0.687   4.833  0.4243  0.0905 -0.2186
  212MOL0     C28511   7.723   0.796   4.749  0.1855 -0.4745 -0.0636
  212MOL0     C28512   7.682   0.928   4.771 -0.0136  0.0760  0.3917
  212MOL0     C28513   7.585   0.955   4.876 -0.9435  0.1589 -0.1448
  212MOL0     C28514   7.545   1.096   4.907  0.1019  0.0637  0.3299
  212MOL0     O28515   7.468   1.124   5.016  0.7483 -0.0750 -1.8050
  212MOL0     C28516   7.418   1.248   5.037  0.6819 -0.8192 -0.5451
  212MOL0     C28517   7.422   1.307   5.171  0.9051  0.8978  0.8823
  212MOL0     C28518   7.367   1.437   5.195 -0.3452 -0.2852  0.3747
  212MOL0     C28519   7.322   1.518   5.094  0.4544  0.0393 -0.9308
  212MOL0     O28520   7.284   1.647   5.126 -0.0649 -0.0178  0.1105
  212MOL0     C28521   7.207   1.721   5.023 -0.8059  0.3362  0.2303
  212MOL0     C28522   7.056   1.676   5.044 -0.8533  0.0462 -0.7908
  212MOL0     C28523   6.957   1.717   4.931  0.1181  0.3243  0.3259
  212MOL0     C28524   6.991   1.640   4.804  1.0720  0.4256  0.1320
  212MOL0     C28525   6.913   1.675   4.678  0.2669 -1.0737 -0.1326
  212MOL0     C28526   6.973   1.615   4.551 -0.2716 -0.9710  0.0778
  212MOL0     C28527   6.875   1.630   4.436  0.1424  0.1340 -0.9576
  212MOL0     C28528   6.729   1.582   4.464  0.2363  0.1197  0.1536
  212MOL0    Cl28529   6.650   1.587   4.309  0.2636 -0.2819  0.5886
  212MOL0     C28530   7.315   1.462   4.967 -0.2816 -0.2071 -0.2147
  212MOL0     C28531   7.358   1.321   4.936 -0.3857 -0.1260 -0.1206
  212MOL0     O28532   7.577   1.182   4.823 -0.1611  0.3273 -0.0250
  212MOL0     C28533   7.540   0.850   4.954 -0.6964 -0.3216  0.1781
  212MOL0     C28534   7.587   0.724   4.933  0.3127  0.4419 -0.0715
  212MOL0     N28535   7.953   0.321   4.379  0.2772  0.1260 -0.4521
  212MOL0     N28536   7.935   0.231   4.288 -0.1371 -0.4237 -0.2760
  212MOL0     C28537   7.370   0.263   4.821 -0.8526  0.9615  0.0492
  212MOL0     C28538   7.344   0.377   4.907 -0.9540 -0.0934 -0.9882
  212MOL0     C28539   7.391   0.638   5.289  0.0620 -0.2111 -0.6832
  212MOL0     C28540   7.332   0.735   5.198 -0.9472  0.0640 -0.2847
  212MOL0     C28541   7.321   0.864   5.240  0.5663  0.4245 -0.5914
  212MOL0     C28542   7.357   0.902   5.373 -0.8836  0.1656 -0.1039
  212MOL0     O28543   7.359   1.035   5.399  0.2957  0.0002  0.1660
  212MOL0     C28544   7.357   1.081   5.536  0.2463 -0.2284 -0.3075
  212MOL0     C28545   7.266   1.207   5.529  0.0397 -0.6383  0.1541
  212MOL0     C28546   7.271   1.288   5.670 -0.1740  0.5957  0.0070
  212MOL0     C28547   7.153   1.380   5.675  1.6763 -0.1789  0.2809
  212MOL0     C28548   7.148   1.481   5.566  0.2061  0.3755  0.9227
  212MOL0     C28549   7.139   1.562   5.475 -0.2903 -0.1861 -0.0423
  212MOL0     C28550   7.396   0.805   5.463  0.3495  0.5558  0.6514
  212MOL0     C28551   7.415   0.678   5.426  0.0863 -1.0666  0.2747
  212MOL0     C28552   7.478   0.584   5.530  0.1634 -0.1502 -0.1683
  212MOL0     H28553   7.520   0.244   5.168  1.2180  2.0372 -1.0993
  212MOL0     H28554   7.544   0.058   5.033 -1.5101  0.0976 -0.0062
  212MOL0     H28555   7.442  -0.104   4.921  2.0948  0.2601 -0.6659
  212MOL0     H28556   7.384  -0.153   4.767  1.4602 -1.8252 -0.9685
  212MOL0     H28557   7.622  -0.228   4.866 -1.3334  0.1948  0.5555
  212MOL0     H28558   7.683  -0.056   4.833 -0.3810  3.1601 -4.7476
  212MOL0     H28559   7.589  -0.107   4.590 -1.2726 -0.2601 -0.0938
  212MOL0     H28560   7.581  -0.273   4.628  1.6314  0.1460 -1.5745
  212MOL0     H28561   7.817  -0.082   4.633 -2.8626  0.4762  1.4927
  212MOL0     H28562   7.826  -0.251   4.701  1.5746 -0.8543 -2.2127
  212MOL0     H28563   7.878  -0.348   4.520 -2.9057 -2.0823  1.4126
  212MOL0     H28564   7.725  -0.315   4.467  0.3355 -1.0479  0.6636
  212MOL0     H28565   7.951  -0.106   4.431  0.8522 -0.7741  1.0894
  212MOL0     H28566   7.938  -0.230   4.311  1.6200  2.4009 -0.4204
  212MOL0     H28567   7.697  -0.080   4.378 -0.5158 -0.8896 -0.4644
  212MOL0     H28568   7.723  -0.165   4.232 -0.7391  1.7124 -2.6738
  212MOL0     H28569   7.898   0.011   4.177  0.7010 -0.5699  0.5880
  212MOL0     H28570   7.725   0.074   4.196 -2.2522 -1.1163  2.0764
  212MOL0     H28571   7.749   0.104   4.516 -1.9561  0.5363 -3.0162
  212MOL0     H28572   7.988   0.391   4.636 -0.1489  1.4672  1.1025
  212MOL0     H28573   7.832   0.451   4.600  0.0248 -1.0521  1.2359
  212MOL0     H28574   7.718   0.274   4.712 -0.1624  1.4192 -4.2429
  212MOL0     H28575   7.875   0.192   4.722  0.7975  0.2646  1.3964
  212MOL0     H28576   7.953   0.411   4.862 -0.6629  3.5124  2.7580
  212MOL0     H28577   7.850   0.286   4.943 -1.6516 -0.1959 -0.3903
  212MOL0     H28578   7.751   0.501   4.997 -0.6292 -0.8140  0.9442
  212MOL0     H28579   7.636   0.405   4.899 -1.1184  1.3644 -1.8650
  212MOL0     H28580   7.788   0.768   4.667  0.6953  0.3748  0.0430
  212MOL0     H28581   7.722   0.993   4.694  0.9528  0.3101  1.0658
  212MOL0     H28582   7.452   1.240   5.251  2.8175 -0.0679 -0.5627
  212MOL0     H28583   7.355   1.476   5.296  1.4170  0.8232  0.2041
  212MOL0     H28584   7.222   1.829   5.024  5.8766 -0.0328 -3.5974
  212MOL0     H28585   7.242   1.706   4.921 -1.8212  0.5162 -0.1572
  212MOL0     H28586   7.059   1.568   5.058  2.1439  0.2301  0.8376
  212MOL0     H28587   7.026   1.734   5.132  1.3228  1.2806 -0.7795
  212MOL0     H28588   6.856   1.687   4.959  0.9081 -3.7885 -0.6143
  212MOL0     H28589   6.947   1.826   4.928 -4.0746  0.0901 -2.2941
  212MOL0     H28590   6.967   1.537   4.832 -0.2282  0.9157  0.8962
  212MOL0     H28591   7.098   1.647   4.785  1.9470 -2.7868  2.7701
  212MOL0     H28592   6.902   1.784   4.676 -5.3975 -1.2845  1.9603
  212MOL0     H28593   6.816   1.627   4.690 -0.3609  0.4278  1.0763
  212MOL0     H28594   7.059   1.674   4.517 -0.0179 -1.7704 -0.7170
  212MOL0     H28595   7.000   1.510   4.568  3.0892 -0.4212 -0.9812
  212MOL0     H28596   6.897   1.559   4.356 -0.3199 -1.9001  0.6448
  212MOL0     H28597   6.881   1.725   4.383 -1.0891  0.3850 -0.6744
  212MOL0     H28598   6.729   1.486   4.515 -0.4852 -0.9752 -1.7935
  212MOL0     H28599   6.678   1.660   4.522  0.1937 -1.3006  2.0973
  212MOL0     H28600   7.267   1.504   4.879  3.4330  1.7999 -1.5047
  212MOL0     H28601   7.339   1.281   4.837 -0.0373 -1.0677  0.1858
  212MOL0     H28602   7.466   0.870   5.031 -1.3304  2.0621 -0.9611
  212MOL0     H28603   7.556   0.641   4.996  1.4864 -1.1521 -1.4974
  212MOL0     H28604   7.315   0.271   4.728 -0.5169  2.2656 -0.0511
  212MOL0     H28605   7.287   0.459   4.866 -3.5509 -2.0613 -1.5695
  212MOL0     H28606   7.285   0.727   5.100 -3.6125  2.8772  0.5732
  212MOL0     H28607   7.306   0.952   5.178  2.2145  2.1931  1.3731
  212MOL0     H28608   7.460   1.105   5.564 -0.2585  0.4754  1.0024
  212MOL0     H28609   7.322   1.010   5.610  1.3194  0.1260  0.5693
  212MOL0     H28610   7.164   1.178   5.505  0.5228 -3.8652  1.5126
  212MOL0     H28611   7.313   1.268   5.451 -0.2317 -2.0184 -1.1222
  212MOL0     H28612   7.364   1.346   5.673  1.0524 -1.2954  1.2980
  212MOL0     H28613   7.288   1.224   5.757  6.1994  0.5484 -0.7974
  212MOL0     H28614   7.064   1.318   5.669  0.9643  0.9620 -2.4101
  212MOL0     H28615   7.146   1.434   5.770 -1.7481  2.2159 -1.1416
  212MOL0     H28616   7.124   1.629   5.393 -0.9251  0.7516  0.8153
  212MOL0     H28617   7.420   0.828   5.566  0.7615 -2.9014  1.4590
  212MOL0     H28618   7.587   0.579   5.518  0.4204  1.0188  1.3839
  212MOL0     H28619   7.444   0.618   5.628 -1.1746  1.6853 -1.1983
  212MOL0     H28620   7.438   0.483   5.518  0.1811 -0.2371  0.4815
  213MOL0     O28621   7.983   0.755   8.592 -0.3389  0.2406  0.4707
  213MOL0     C28622   8.098   0.743   8.622 -0.3717 -0.1340  0.2182
  213MOL0     O28623   8.211   0.792   8.556  0.3506 -1.0500  0.1494
  213MOL0     C28624   8.204   0.882   8.447 -0.4825  0.2817  0.0113
  213MOL0     C28625   8.087   0.938   8.387 -0.8222 -0.7121  0.0417
  213MOL0     C28626   8.091   1.039   8.287 -0.3279 -0.5339 -0.4083
  213MOL0     C28627   8.213   1.091   8.239  0.6067 -0.3655  0.6012
  213MOL0     O28628   8.213   1.201   8.148 -0.6546 -0.0922  1.5731
  213MOL0     C28629   8.338   1.226   8.083 -0.5094  0.6868 -0.2665
  213MOL0     C28630   8.311   1.307   7.951  0.1104  0.0649 -0.5410
  213MOL0     C28631   8.445   1.352   7.902  0.0710 -0.2308  0.8116
  213MOL0     C28632   8.429   1.423   7.770  0.2385 -0.3395  0.8311
  213MOL0     C28633   8.575   1.464   7.733 -0.3012  0.4191 -0.0946
  213MOL0     C28634   8.586   1.519   7.593  0.5336 -0.8293  0.4637
  213MOL0     C28635   8.729   1.520   7.551 -0.7179 -0.6287 -0.8792
  213MOL0     C28636   8.775   1.561   7.415  0.3320 -0.6027  0.1263
  213MOL0     N28637   8.921   1.600   7.413  0.1103  0.3771  0.0252
  213MOL0     C28638   9.024   1.560   7.494  0.4790  0.2878  0.2497
  213MOL0     C28639   9.130   1.651   7.472  1.4909  0.1334  0.8182
  213MOL0     C28640   9.251   1.641   7.562 -0.9586 -0.7368 -0.8102
  213MOL0     C28641   9.244   1.753   7.669  0.1029 -0.4370 -1.0308
  213MOL0     C28642   9.370   1.768   7.763 -0.6185  0.1086  0.3614
  213MOL0     C28643   9.339   1.847   7.881  0.0596 -0.4776  0.1662
  213MOL0     O28644   9.462   1.857   7.962  0.2547  0.8249 -0.2595
  213MOL0     C28645   9.540   1.967   7.941 -0.5567 -0.2061  0.1681
  213MOL0     C28646   9.531   2.056   7.829 -0.6750  0.4079  0.5921
  213MOL0     C28647   9.630   2.153   7.810  0.6038 -0.7115 -0.4270
  213MOL0     C28648   9.728   2.181   7.900  0.2846  0.6189 -0.7675
  213MOL0     C28649   9.833   2.287   7.874  1.3139 -0.2010  0.4766
  213MOL0     O28650   9.931   2.313   7.954 -0.8005 -1.0630 -0.8104
  213MOL0     C28651  10.035   2.393   7.910  0.8843 -1.1002 -0.5524
  213MOL0     C28652  10.083   2.411   7.786  0.3210 -0.3089  0.4197
  213MOL0     C28653  10.197   2.496   7.761  0.5148 -0.1676  0.2892
  213MOL0     C28654  10.242   2.580   7.870  0.8077  0.7073  0.3695
  213MOL0     O28655  10.335   2.671   7.850 -0.0470 -0.9539  0.5260
  213MOL0     C28656  10.356   2.728   7.721  0.6310  0.3759 -0.1108
  213MOL0     C28657  10.450   2.850   7.737 -0.3324 -0.4765  1.5041
  213MOL0     C28658  10.479   2.909   7.598  0.2463 -0.4147 -1.0477
  213MOL0     C28659  10.374   2.997   7.535  0.2310  0.0899 -0.1936
  213MOL0     C28660  10.404   3.010   7.383 -0.4035  0.0746  0.0898
  213MOL0     C28661  10.507   3.121   7.360  0.0324 -0.4142  0.2501
  213MOL0     C28662  10.509   3.159   7.208 -0.0579 -0.7151  0.1756
  213MOL0     C28663  10.640   3.238   7.177  0.8406 -0.3207 -0.5685
  213MOL0    Cl28664  10.774   3.122   7.178  0.1195 -0.0615  0.0025
  213MOL0     C28665  10.189   2.562   7.999  0.0913 -0.3456  0.3218
  213MOL0     C28666  10.091   2.466   8.019 -0.4479  0.3995 -0.2588
  213MOL0     O28667   9.807   2.347   7.767 -0.2674  0.8230  0.0839
  213MOL0     C28668   9.723   2.108   8.025  0.3715  0.0115  0.3377
  213MOL0     C28669   9.644   1.998   8.036  1.0688  1.1388 -0.1613
  213MOL0     N28670   9.092   1.730   7.366 -0.7320  1.2700 -0.2829
  213MOL0     N28671   8.973   1.696   7.330  0.1883 -0.5118  0.0985
  213MOL0     C28672   8.330   1.027   8.297 -0.3295 -0.2665 -0.4695
  213MOL0     C28673   8.329   0.928   8.397  0.4570  0.1222 -0.2460
  213MOL0     C28674   8.118   0.657   8.741 -0.7008 -0.1730  0.5129
  213MOL0     C28675   8.032   0.671   8.850  0.2118 -0.5727  0.7033
  213MOL0     C28676   8.042   0.593   8.968 -0.3195 -0.2351 -0.3224
  213MOL0     C28677   8.145   0.501   8.968  0.3338  0.7862 -1.6457
  213MOL0     O28678   8.183   0.434   9.084  0.1561  0.6593  0.1957
  213MOL0     C28679   8.111   0.446   9.209 -0.0824  0.4426 -0.3088
  213MOL0     C28680   8.205   0.380   9.308  0.4374 -0.0147 -0.1486
  213MOL0     C28681   8.236   0.231   9.265 -0.7609 -0.3466  0.2382
  213MOL0     C28682   8.279   0.150   9.375  0.5200 -0.0305  0.0661
  213MOL0     C28683   8.421   0.173   9.402 -0.2087 -0.3290  0.9285
  213MOL0     C28684   8.540   0.173   9.432  1.2588 -0.8405 -0.1586
  213MOL0     C28685   8.224   0.478   8.862  0.1363  0.2577 -0.3706
  213MOL0     C28686   8.212   0.555   8.744  0.7202  0.4044 -0.7191
  213MOL0     C28687   8.295   0.511   8.627  0.4006  0.4010  0.1659
  213MOL0     H28688   7.989   0.899   8.411 -0.5010 -0.8643  1.1439
  213MOL0     H28689   7.998   1.089   8.263  0.8728  4.2162  3.2500
  213MOL0     H28690   8.410   1.278   8.148  0.8886 -0.5906 -0.7269
  213MOL0     H28691   8.386   1.131   8.055 -0.4862 -0.1450  2.3668
  213MOL0     H28692   8.249   1.389   7.987  0.7715 -0.3944  1.8303
  213MOL0     H28693   8.254   1.247   7.879  0.0736 -1.9310  1.0497
  213MOL0     H28694   8.510   1.264   7.897 -2.8476 -2.4988 -1.5567
  213MOL0     H28695   8.487   1.423   7.973 -0.4220  0.2839  0.6053
  213MOL0     H28696   8.383   1.349   7.703 -0.0946  1.0426 -0.5249
  213MOL0     H28697   8.368   1.513   7.788  0.7493  0.2398 -0.2344
  213MOL0     H28698   8.627   1.529   7.804 -1.0838 -1.5473  2.4601
  213MOL0     H28699   8.619   1.364   7.731 -0.4282  0.3407 -3.1357
  213MOL0     H28700   8.537   1.454   7.521 -4.4508  0.2325  2.5198
  213MOL0     H28701   8.545   1.620   7.586 -0.0343 -1.1369 -0.9084
  213MOL0     H28702   8.778   1.424   7.572 -1.7922 -0.8878  0.5659
  213MOL0     H28703   8.760   1.600   7.619 -5.0923 -1.7500  2.9533
  213MOL0     H28704   8.751   1.484   7.340  1.1336 -1.0198  0.2913
  213MOL0     H28705   8.718   1.650   7.388 -0.4498 -0.7478  1.2362
  213MOL0     H28706   9.031   1.486   7.573  2.9041 -0.1718 -0.2959
  213MOL0     H28707   9.264   1.538   7.599 -3.9626 -0.7672  0.4257
  213MOL0     H28708   9.339   1.662   7.501 -1.2957 -0.1182 -1.0841
  213MOL0     H28709   9.231   1.854   7.628  0.8360 -0.3702 -1.0979
  213MOL0     H28710   9.162   1.735   7.740  2.4930  0.1947  2.1006
  213MOL0     H28711   9.451   1.812   7.704  0.4765 -2.1945  0.0410
  213MOL0     H28712   9.407   1.669   7.790 -2.5299 -0.3786  1.3918
  213MOL0     H28713   9.261   1.783   7.923  0.4873 -1.1215  0.0100
  213MOL0     H28714   9.302   1.948   7.861  2.7598  0.8111  1.1409
  213MOL0     H28715   9.457   2.057   7.749  0.9960 -2.1671 -1.1264
  213MOL0     H28716   9.607   2.228   7.735 -0.2528  0.2537  0.7840
  213MOL0     H28717  10.049   2.345   7.707  5.2741 -1.5369 -0.9887
  213MOL0     H28718  10.246   2.504   7.665 -0.0962  2.3386  0.1234
  213MOL0     H28719  10.395   2.653   7.651 -1.4516 -1.6676  0.7779
  213MOL0     H28720  10.259   2.759   7.680  0.4479  0.8986  0.6939
  213MOL0     H28721  10.406   2.923   7.806  2.9983 -0.3096  3.7032
  213MOL0     H28722  10.541   2.831   7.794  0.0252 -1.5431  0.5996
  213MOL0     H28723  10.567   2.974   7.609  0.3380 -0.8810  1.3670
  213MOL0     H28724  10.515   2.832   7.528 -0.7828 -1.3920 -0.5253
  213MOL0     H28725  10.357   3.083   7.600 -1.0984 -1.9755  2.3760
  213MOL0     H28726  10.276   2.949   7.534 -0.5093  1.4796 -2.5954
  213MOL0     H28727  10.314   3.034   7.325 -1.1129  2.9531  2.1859
  213MOL0     H28728  10.444   2.917   7.341  1.6494  0.3128  1.3992
  213MOL0     H28729  10.480   3.209   7.420 -0.1599  0.8639 -1.6100
  213MOL0     H28730  10.607   3.087   7.385  0.1999  0.5535  0.9723
  213MOL0     H28731  10.425   3.226   7.183  1.7983  1.0380 -1.7835
  213MOL0     H28732  10.504   3.069   7.146  2.2299 -0.7701  0.0076
  213MOL0     H28733  10.633   3.283   7.078 -0.5858 -1.1348 -0.8685
  213MOL0     H28734  10.646   3.317   7.253 -0.0275  1.0308 -1.8711
  213MOL0     H28735  10.216   2.625   8.084  0.5874  2.4211 -1.7280
  213MOL0     H28736  10.049   2.453   8.118 -0.9626 -5.0082 -0.8913
  213MOL0     H28737   9.792   2.134   8.104  0.4089  1.4502 -0.1277
  213MOL0     H28738   9.647   1.932   8.122 -1.9457 -2.3002 -2.3835
  213MOL0     H28739   8.431   1.051   8.265 -0.8714  0.5477 -1.6546
  213MOL0     H28740   8.426   0.886   8.420 -0.3891 -0.4778  2.5953
  213MOL0     H28741   7.949   0.739   8.834  0.4325 -0.3401  0.5475
  213MOL0     H28742   7.966   0.599   9.045 -1.3116  2.6271 -1.3836
  213MOL0     H28743   8.016   0.393   9.203  0.5885 -0.8074 -0.3051
  213MOL0     H28744   8.082   0.546   9.241  0.4247 -0.3034  2.8235
  213MOL0     H28745   8.133   0.373   9.389 -1.6150 -0.5814 -1.9360
  213MOL0     H28746   8.290   0.446   9.329 -0.2801  1.1384 -0.7739
  213MOL0     H28747   8.308   0.217   9.184 -0.5663 -2.8928  0.7885
  213MOL0     H28748   8.146   0.193   9.215 -0.6454  0.5433 -0.6792
  213MOL0     H28749   8.220   0.173   9.464 -0.0297  1.4061 -0.6480
  213MOL0     H28750   8.279   0.045   9.343  1.4616  0.0378 -0.2046
  213MOL0     H28751   8.640   0.165   9.470  0.3825  1.4644  3.0975
  213MOL0     H28752   8.301   0.403   8.872 -0.2482  0.1027  1.8205
  213MOL0     H28753   8.377   0.579   8.601 -0.4759  1.4058 -0.0123
  213MOL0     H28754   8.340   0.412   8.637  1.0541  0.5350 -1.1279
  213MOL0     H28755   8.236   0.514   8.535  0.8435  1.4137 -0.1015
  214MOL0     O28756  11.470   1.852   9.615  0.0290 -0.2529  0.0484
  214MOL0     C28757  11.475   1.777   9.521  0.3855  0.1926  0.5898
  214MOL0     O28758  11.410   1.655   9.519  0.3490  0.0524  0.1829
  214MOL0     C28759  11.370   1.593   9.635 -0.7850  0.6414  0.3637
  214MOL0     C28760  11.443   1.487   9.681  0.3481  0.3588 -0.6868
  214MOL0     C28761  11.410   1.422   9.801  0.1532 -1.2275 -0.8173
  214MOL0     C28762  11.291   1.448   9.863 -0.4489  0.4392  0.8895
  214MOL0     O28763  11.249   1.378   9.977 -1.0410  0.2756  0.4931
  214MOL0     C28764  11.357   1.303  10.043 -0.1753  0.0464 -0.3775
  214MOL0     C28765  11.299   1.211  10.151  0.1994  0.0813 -0.3456
  214MOL0     C28766  11.217   1.090  10.102  0.1225  0.6749  0.0876
  214MOL0     C28767  11.201   0.989  10.223 -0.6999  0.1168 -0.8525
  214MOL0     C28768  11.084   1.046  10.310 -0.3301 -1.2511  0.5421
  214MOL0     C28769  11.055   0.943  10.412 -0.0603 -0.3783 -0.1502
  214MOL0     C28770  10.954   0.999  10.508 -1.0599  0.2055  0.0851
  214MOL0     C28771  10.997   1.116  10.595  0.0913  0.3681  0.3113
  214MOL0     N28772  11.139   1.128  10.631  0.1774  0.4136 -0.0771
  214MOL0     C28773  11.203   1.047  10.714 -0.2291  0.5873  0.4615
  214MOL0     C28774  11.329   1.073  10.707 -1.2957  0.4286 -0.5389
  214MOL0     C28775  11.446   1.001  10.786  0.0127  0.5736  0.1369
  214MOL0     C28776  11.471   1.049  10.934  0.1061  0.8958 -0.4865
  214MOL0     C28777  11.603   1.003  10.990 -0.0471  0.8221 -0.2979
  214MOL0     C28778  11.632   0.853  11.007  0.1989  0.3679  0.7229
  214MOL0     O28779  11.580   0.795  11.118 -0.1563  0.3532 -0.1652
  214MOL0     C28780  11.653   0.780  11.231  0.0835  0.3584  0.5956
  214MOL0     C28781  11.787   0.817  11.266  0.5863  0.3493  0.0267
  214MOL0     C28782  11.856   0.778  11.390 -0.0498 -0.7629  0.5758
  214MOL0     C28783  11.783   0.697  11.480  0.2556  0.6213  0.6681
  214MOL0     C28784  11.847   0.639  11.598 -0.5957  0.1765  0.0419
  214MOL0     O28785  11.787   0.526  11.658  0.1577  0.4451 -0.0726
  214MOL0     C28786  11.857   0.460  11.752  0.7303 -1.0077 -0.3426
  214MOL0     C28787  11.931   0.347  11.712  0.1226 -0.5439 -0.1690
  214MOL0     C28788  12.025   0.300  11.802 -0.3075 -0.1186  0.4499
  214MOL0     C28789  12.037   0.342  11.930  0.5323 -0.1950  0.5196
  214MOL0     O28790  12.131   0.292  12.016  0.3709  0.3118  0.1622
  214MOL0     C28791  12.259   0.280  11.959  0.0288  0.0139 -0.1559
  214MOL0     C28792  12.374   0.236  12.050  0.9138  0.0442 -0.3851
  214MOL0     C28793  12.435   0.355  12.118  0.7120  0.6644  0.4182
  214MOL0     C28794  12.563   0.318  12.190 -0.7026 -0.1799  0.1811
  214MOL0     C28795  12.663   0.443  12.204 -0.0139 -1.1971 -0.1581
  214MOL0     C28796  12.597   0.551  12.294  0.1065 -0.3605  0.3364
  214MOL0     C28797  12.687   0.677  12.300  0.5482  0.5674 -0.2395
  214MOL0     C28798  12.830   0.645  12.348 -0.3915 -0.6314  0.9638
  214MOL0    Cl28799  12.855   0.554  12.492  0.4461  0.8646 -0.7020
  214MOL0     C28800  11.949   0.438  11.967  0.5436  0.0839 -1.3116
  214MOL0     C28801  11.860   0.505  11.886 -0.0325  0.4231  0.6440
  214MOL0     O28802  11.957   0.687  11.631 -0.1766  0.1990 -0.0551
  214MOL0     C28803  11.646   0.665  11.446 -0.4534  0.1186 -0.5729
  214MOL0     C28804  11.583   0.700  11.327 -0.1977  1.3638  0.3613
  214MOL0     N28805  11.341   1.182  10.623 -0.4506 -0.4099 -0.0010
  214MOL0     N28806  11.227   1.211  10.580  0.0554 -0.5018  1.0859
  214MOL0     C28807  11.213   1.554   9.814 -0.4505  0.1580 -0.4658
  214MOL0     C28808  11.250   1.620   9.705  0.4353 -0.8773  0.2259
  214MOL0     C28809  11.556   1.817   9.396 -0.0768  0.2857 -0.3700
  214MOL0     C28810  11.618   1.948   9.399  0.4125  0.4791  0.2787
  214MOL0     C28811  11.684   1.998   9.292 -0.4080 -1.0850  0.7780
  214MOL0     C28812  11.702   1.927   9.176 -0.7868 -0.2284 -0.3358
  214MOL0     O28813  11.780   1.972   9.075 -0.2309 -0.5581 -0.3633
  214MOL0     C28814  11.848   2.100   9.084 -0.2900  1.3538  0.3674
  214MOL0     C28815  11.938   2.103   8.969  0.0142 -0.6283  0.2819
  214MOL0     C28816  11.879   2.103   8.821  0.5102 -0.1820  0.7028
  214MOL0     C28817  11.966   2.178   8.713 -0.1741 -1.0865  0.0044
  214MOL0     C28818  12.106   2.138   8.726  0.0497  0.0388  0.4384
  214MOL0     C28819  12.224   2.097   8.722  0.0309  0.0889 -0.8460
  214MOL0     C28820  11.653   1.793   9.174  0.5671  0.4705 -0.2446
  214MOL0     C28821  11.584   1.738   9.284 -0.1423 -0.4049 -0.3321
  214MOL0     C28822  11.527   1.591   9.276  0.6853 -1.6278 -0.4989
  214MOL0     H28823  11.542   1.461   9.644  1.4237 -1.1648  2.7946
  214MOL0     H28824  11.469   1.336   9.832  0.4857 -0.9301 -0.6140
  214MOL0     H28825  11.403   1.233   9.972  0.6525  0.8275 -0.6260
  214MOL0     H28826  11.433   1.369  10.084  0.9741  0.0911 -2.4504
  214MOL0     H28827  11.239   1.271  10.220  2.0644 -0.7241  2.1305
  214MOL0     H28828  11.387   1.173  10.205  0.6475 -0.1254 -1.2033
  214MOL0     H28829  11.284   1.037  10.034  1.6212  1.2647  1.0645
  214MOL0     H28830  11.121   1.118  10.057 -0.1886 -3.1293 -2.0319
  214MOL0     H28831  11.179   0.887  10.190  3.3164 -1.4238  0.6146
  214MOL0     H28832  11.292   0.975  10.281 -1.6036 -3.0348 -0.0050
  214MOL0     H28833  11.116   1.141  10.354  0.6764 -0.1427 -2.3384
  214MOL0     H28834  11.001   1.070  10.245  0.0039 -1.1720  0.1419
  214MOL0     H28835  11.015   0.850  10.371 -2.7909  1.6429 -2.5432
  214MOL0     H28836  11.144   0.918  10.470 -0.2742 -2.0873 -0.5006
  214MOL0     H28837  10.932   0.915  10.575 -2.4537  0.0335 -0.5608
  214MOL0     H28838  10.870   1.030  10.445 -1.4568  0.4017  0.7046
  214MOL0     H28839  10.956   1.203  10.542 -0.5384 -1.5700 -2.6592
  214MOL0     H28840  10.947   1.124  10.692 -1.1132 -0.0232 -0.2585
  214MOL0     H28841  11.169   0.959  10.768  0.0681 -0.7512 -1.3907
  214MOL0     H28842  11.429   0.893  10.784 -1.7200  0.8048  1.1422
  214MOL0     H28843  11.531   1.021  10.720 -0.3131 -2.6757 -1.4626
  214MOL0     H28844  11.467   1.158  10.940  0.4447  0.8814  0.1588
  214MOL0     H28845  11.388   1.022  11.000  0.7189  1.8508  0.7214
  214MOL0     H28846  11.615   1.059  11.083  0.0487  2.1578 -1.0897
  214MOL0     H28847  11.687   1.040  10.931  0.6143  1.1966  0.8686
  214MOL0     H28848  11.740   0.836  11.007  0.0479 -0.6560  0.6133
  214MOL0     H28849  11.582   0.804  10.923  3.0838 -1.3887 -0.1326
  214MOL0     H28850  11.832   0.885  11.194 -0.9482  1.3153 -0.0821
  214MOL0     H28851  11.958   0.804  11.415 -0.1058 -0.2738  0.3169
  214MOL0     H28852  11.913   0.309  11.612 -2.2241 -2.2506  0.8032
  214MOL0     H28853  12.089   0.220  11.767 -0.8286  0.3506 -1.7907
  214MOL0     H28854  12.260   0.197  11.888  1.7849 -0.6913  0.6174
  214MOL0     H28855  12.293   0.370  11.906 -1.3297  3.2074  3.8287
  214MOL0     H28856  12.350   0.158  12.124  1.4631  2.2027  2.2428
  214MOL0     H28857  12.455   0.199  11.987  1.5634  0.1138  0.3945
  214MOL0     H28858  12.454   0.432  12.043  1.5786  0.7811  0.7514
  214MOL0     H28859  12.358   0.392  12.186 -0.6581  2.6254 -2.0432
  214MOL0     H28860  12.611   0.241  12.128  2.3105 -1.0394  3.2911
  214MOL0     H28861  12.546   0.269  12.286 -1.9245 -0.2815 -0.0649
  214MOL0     H28862  12.690   0.469  12.101 -0.9191 -2.4465 -0.7377
  214MOL0     H28863  12.748   0.402  12.259  0.3899 -1.7551 -1.1716
  214MOL0     H28864  12.495   0.578  12.266 -0.2874 -0.0956  1.9053
  214MOL0     H28865  12.578   0.511  12.394 -2.9003  3.0611  1.3571
  214MOL0     H28866  12.648   0.755  12.365  0.4382 -0.3542  0.8197
  214MOL0     H28867  12.686   0.729  12.203  0.0901  1.7357  0.3652
  214MOL0     H28868  12.865   0.583  12.265 -0.5596  1.5546 -0.8564
  214MOL0     H28869  12.881   0.742  12.353 -2.0929  0.6432 -2.6377
  214MOL0     H28870  11.948   0.461  12.073 -0.4317  0.3789 -1.3753
  214MOL0     H28871  11.788   0.581  11.915 -1.1308 -0.0265 -0.8045
  214MOL0     H28872  11.587   0.614  11.521 -0.5026  1.9158  0.6715
  214MOL0     H28873  11.481   0.665  11.314 -0.5202  2.2319  0.4837
  214MOL0     H28874  11.116   1.570   9.860 -0.7494  0.0790 -1.0649
  214MOL0     H28875  11.189   1.704   9.674  0.1586  0.2278  3.4397
  214MOL0     H28876  11.605   2.003   9.492 -3.3004 -0.2376  0.3448
  214MOL0     H28877  11.732   2.094   9.310  0.0336 -0.2501 -3.7526
  214MOL0     H28878  11.904   2.095   9.177  0.6094  2.2035 -0.1121
  214MOL0     H28879  11.787   2.191   9.092 -0.0515  1.5388  0.1305
  214MOL0     H28880  12.004   2.016   8.971 -1.8145 -2.0781  1.9419
  214MOL0     H28881  12.000   2.193   8.975  0.2882 -0.7772 -0.2622
  214MOL0     H28882  11.780   2.149   8.824  1.4471  2.2007 -1.3258
  214MOL0     H28883  11.865   2.001   8.783  1.8462  0.2036 -0.9287
  214MOL0     H28884  11.920   2.154   8.617  2.7953 -0.0325 -1.7905
  214MOL0     H28885  11.942   2.284   8.721 -0.5826 -1.2959  2.6164
  214MOL0     H28886  12.326   2.064   8.723  1.4879  3.7630  3.1234
  214MOL0     H28887  11.670   1.733   9.085  0.2025 -1.4293  0.9004
  214MOL0     H28888  11.419   1.598   9.268  0.2438  2.3958  4.0731
  214MOL0     H28889  11.558   1.533   9.189  2.2551 -0.0175 -1.0881
  214MOL0     H28890  11.549   1.533   9.366  0.8794 -1.8659 -0.6975
  215MOL0     O28891   6.228   8.075   7.990 -0.6130  0.0441 -0.5344
  215MOL0     C28892   6.171   8.163   7.924 -0.2487 -1.2954  0.1456
  215MOL0     O28893   6.237   8.257   7.843  0.0993  0.0954  0.4156
  215MOL0     C28894   6.376   8.277   7.863  0.0160 -0.1832  0.8419
  215MOL0     C28895   6.453   8.285   7.746 -0.0323 -0.3579  0.1569
  215MOL0     C28896   6.586   8.316   7.746 -0.5392  0.3612 -0.1180
  215MOL0     C28897   6.653   8.348   7.871  0.6701  0.3094  1.3605
  215MOL0     O28898   6.788   8.376   7.879 -0.1118 -0.5861  1.3342
  215MOL0     C28899   6.862   8.267   7.832 -0.1690  0.4275 -0.3544
  215MOL0     C28900   7.013   8.288   7.856  0.2846  0.0639 -1.3731
  215MOL0     C28901   7.073   8.425   7.810  0.3461  0.6010 -0.4855
  215MOL0     C28902   7.216   8.415   7.755 -0.0947 -0.5804  0.0378
  215MOL0     C28903   7.244   8.559   7.716 -0.1541  0.3168  0.0669
  215MOL0     C28904   7.336   8.560   7.579 -0.0402  0.6079  0.2688
  215MOL0     C28905   7.479   8.555   7.629 -0.0341  0.5136 -0.2882
  215MOL0     C28906   7.554   8.488   7.522  0.1321  0.8247  0.0663
  215MOL0     N28907   7.530   8.349   7.513 -0.2186 -0.0627  0.0011
  215MOL0     C28908   7.528   8.266   7.618 -0.9946 -0.0103  0.0996
  215MOL0     C28909   7.488   8.153   7.572  0.1710 -0.1942  1.5209
  215MOL0     C28910   7.444   8.035   7.649 -1.0324  1.0215  0.2947
  215MOL0     C28911   7.294   8.033   7.679 -0.0355  0.1605  0.1490
  215MOL0     C28912   7.217   7.946   7.593 -0.1225 -0.8524  0.5528
  215MOL0     C28913   7.215   7.980   7.444  0.1000 -0.4752  0.1653
  215MOL0     O28914   7.094   7.920   7.390 -0.0430  1.0001  0.1291
  215MOL0     C28915   7.073   7.934   7.259  0.4793 -0.1253 -0.1669
  215MOL0     C28916   6.939   7.926   7.219  0.1513 -0.0988  0.1773
  215MOL0     C28917   6.898   7.928   7.089  0.4508  0.8568  0.5394
  215MOL0     C28918   6.993   7.933   6.984 -1.5301  0.3504  0.0218
  215MOL0     C28919   6.973   7.908   6.841 -0.2012  0.2513  0.5090
  215MOL0     O28920   7.053   7.978   6.755 -0.2596  0.4196  0.1966
  215MOL0     C28921   7.012   8.001   6.629  0.1227  0.7777  0.4089
  215MOL0     C28922   6.914   8.090   6.599 -1.0040 -0.6235  0.1108
  215MOL0     C28923   6.880   8.114   6.465 -0.2636  0.0324  0.3706
  215MOL0     C28924   6.938   8.037   6.363  0.6828 -0.2600  0.4086
  215MOL0     O28925   6.905   8.057   6.226  0.5571 -0.3001 -0.6175
  215MOL0     C28926   6.818   7.963   6.163  0.1183  0.0099 -0.0500
  215MOL0     C28927   6.721   8.047   6.087  0.3706 -0.2893 -0.2744
  215MOL0     C28928   6.625   7.960   6.005 -0.1456 -1.0912 -0.0066
  215MOL0     C28929   6.680   7.935   5.863  0.5967  0.2114  0.1942
  215MOL0     C28930   6.617   7.807   5.800 -0.4425  1.0124  0.4668
  215MOL0     C28931   6.466   7.806   5.783  0.0998  0.2334  1.0504
  215MOL0     C28932   6.431   7.676   5.724  0.3308 -0.1833  0.5384
  215MOL0     C28933   6.416   7.558   5.821  0.1828 -1.0547  0.0090
  215MOL0    Cl28934   6.271   7.584   5.919  0.1914 -0.6910  0.3483
  215MOL0     C28935   7.043   7.955   6.390  0.0823 -0.1622 -0.2179
  215MOL0     C28936   7.084   7.939   6.527 -0.4916  0.0144  0.2471
  215MOL0     O28937   6.864   7.863   6.816  0.3950  0.2614  0.6524
  215MOL0     C28938   7.130   7.941   7.024  0.5124  0.1611  0.5358
  215MOL0     C28939   7.166   7.929   7.158 -0.2568 -0.5003  0.2529
  215MOL0     N28940   7.450   8.171   7.443  0.6072  0.0262 -0.3859
  215MOL0     N28941   7.483   8.287   7.406 -0.8156 -0.5293 -0.0163
  215MOL0     C28942   6.572   8.343   7.990 -0.3678 -0.9878  0.1207
  215MOL0     C28943   6.438   8.303   7.983 -0.2882 -0.6965  0.5689
  215MOL0     C28944   6.021   8.162   7.927  0.3550  0.9335  0.7403
  215MOL0     C28945   5.968   8.115   8.049 -0.3177  0.1310 -0.0734
  215MOL0     C28946   5.835   8.078   8.062  0.3545 -0.0230  0.8508
  215MOL0     C28947   5.746   8.104   7.952  0.2205 -0.9826 -0.4713
  215MOL0     O28948   5.619   8.058   7.985 -0.8565 -0.4411  0.2183
  215MOL0     C28949   5.509   8.088   7.884 -1.0871 -1.4031 -0.8112
  215MOL0     C28950   5.379   8.047   7.942  0.4353  0.4993  0.7752
  215MOL0     C28951   5.359   8.075   8.091 -0.1575  0.1862  0.4184
  215MOL0     C28952   5.215   8.046   8.149 -0.7669 -0.2807  0.4115
  215MOL0     C28953   5.179   8.149   8.238  0.2545 -1.0905 -0.5573
  215MOL0     C28954   5.153   8.224   8.339 -0.7258 -1.1203  0.5732
  215MOL0     C28955   5.796   8.161   7.833 -0.5955 -0.2934  1.0171
  215MOL0     C28956   5.938   8.182   7.818  0.5054 -0.2342  0.3160
  215MOL0     C28957   5.988   8.239   7.689 -0.6515 -0.3154 -1.0758
  215MOL0     H28958   6.406   8.271   7.649 -0.1209 -1.8244  0.3863
  215MOL0     H28959   6.637   8.321   7.651 -2.5988 -0.0722 -1.3127
  215MOL0     H28960   6.823   8.175   7.876  1.6638  0.2127  0.9576
  215MOL0     H28961   6.848   8.257   7.724  0.6270 -2.3138 -0.2696
  215MOL0     H28962   7.062   8.201   7.813 -2.5236 -2.6250  0.4195
  215MOL0     H28963   7.024   8.283   7.965 -3.4796 -0.1520 -0.8538
  215MOL0     H28964   7.065   8.502   7.887 -1.1535  0.2900 -0.2985
  215MOL0     H28965   7.010   8.466   7.731  0.1318 -0.1513 -0.7114
  215MOL0     H28966   7.291   8.393   7.832 -0.5909 -2.3724  0.0721
  215MOL0     H28967   7.226   8.341   7.675  1.3607  0.0537 -0.3941
  215MOL0     H28968   7.156   8.621   7.697 -1.2982 -1.4966 -0.8606
  215MOL0     H28969   7.298   8.613   7.794  0.3076  0.5178 -0.3814
  215MOL0     H28970   7.309   8.470   7.523  1.4157  0.4416 -0.1851
  215MOL0     H28971   7.326   8.651   7.520  0.6724 -1.4757 -3.3073
  215MOL0     H28972   7.479   8.491   7.717  0.0698  2.4143  1.1729
  215MOL0     H28973   7.513   8.657   7.653 -0.7974  0.4915  0.9904
  215MOL0     H28974   7.520   8.532   7.428 -0.0490  1.7619  0.5588
  215MOL0     H28975   7.662   8.500   7.537  0.4860 -0.2128 -1.4679
  215MOL0     H28976   7.557   8.285   7.720  2.9754 -0.8448 -0.7030
  215MOL0     H28977   7.467   7.958   7.574  0.7184  2.3912 -0.6552
  215MOL0     H28978   7.500   8.015   7.741 -0.4937 -2.1370 -0.5755
  215MOL0     H28979   7.301   7.981   7.775 -1.6389 -4.0517 -1.7647
  215MOL0     H28980   7.245   8.130   7.693 -1.9540 -0.5470 -1.2004
  215MOL0     H28981   7.119   7.939   7.641 -0.4292  0.2700  0.1142
  215MOL0     H28982   7.254   7.845   7.609 -2.6627 -2.0546 -0.5751
  215MOL0     H28983   7.309   7.936   7.410 -0.5566  0.2368 -2.8319
  215MOL0     H28984   7.215   8.089   7.433 -0.5321 -0.3664  1.0900
  215MOL0     H28985   6.857   7.932   7.290 -0.8976  0.7147 -1.0715
  215MOL0     H28986   6.793   7.938   7.062 -0.2241 -1.5357  2.0033
  215MOL0     H28987   6.851   8.141   6.672 -1.2643  0.2617 -0.7172
  215MOL0     H28988   6.793   8.174   6.440  0.5580  1.8426  1.6805
  215MOL0     H28989   6.872   7.906   6.088 -2.3759  0.1092 -2.0399
  215MOL0     H28990   6.775   7.900   6.241  0.5546  1.2896  1.2784
  215MOL0     H28991   6.666   8.107   6.160  1.2019 -2.0556  1.9443
  215MOL0     H28992   6.772   8.124   6.028 -1.5829 -0.0067 -1.6685
  215MOL0     H28993   6.603   7.870   6.064  1.7239 -0.9097  1.0394
  215MOL0     H28994   6.528   8.008   5.988 -0.1976 -1.1723  0.0597
  215MOL0     H28995   6.788   7.931   5.849  0.7476  0.4160  1.2032
  215MOL0     H28996   6.646   8.023   5.807 -0.4017 -0.0417  0.3702
  215MOL0     H28997   6.649   7.716   5.851 -1.4135 -0.0679 -0.7645
  215MOL0     H28998   6.656   7.809   5.698  0.6654 -2.0378  0.7388
  215MOL0     H28999   6.407   7.820   5.874 -5.7544 -3.3286 -1.5865
  215MOL0     H29000   6.441   7.876   5.703  2.9950 -2.3327 -2.4000
  215MOL0     H29001   6.493   7.646   5.639  0.9682  0.0113  0.9297
  215MOL0     H29002   6.327   7.691   5.693  0.1555  0.9009  1.5820
  215MOL0     H29003   6.401   7.466   5.765 -2.0381 -0.7019 -0.0456
  215MOL0     H29004   6.506   7.550   5.884 -0.7110  1.2895  1.7263
  215MOL0     H29005   7.098   7.904   6.312  3.7511  2.4510  0.3978
  215MOL0     H29006   7.166   7.874   6.555 -0.5500 -2.1878 -3.9848
  215MOL0     H29007   7.211   7.950   6.952  3.3096  0.9757  3.5593
  215MOL0     H29008   7.274   7.928   7.171 -0.0619  2.0768 -0.6595
  215MOL0     H29009   6.621   8.357   8.085  1.1302  1.4348 -0.9197
  215MOL0     H29010   6.382   8.282   8.073  2.9869 -2.4899  2.3869
  215MOL0     H29011   6.032   8.087   8.131 -0.2400 -0.7355 -0.4170
  215MOL0     H29012   5.790   8.053   8.157 -0.8767 -1.5520 -0.0903
  215MOL0     H29013   5.528   8.054   7.782 -1.1813  0.2333 -1.4038
  215MOL0     H29014   5.508   8.196   7.871  3.1998 -1.5011 -4.2606
  215MOL0     H29015   5.381   7.938   7.929 -1.2818  0.2691  2.0661
  215MOL0     H29016   5.313   8.091   7.867  2.7660 -1.9966 -3.0746
  215MOL0     H29017   5.387   8.181   8.099  0.4043  0.5685 -3.9924
  215MOL0     H29018   5.438   8.024   8.146  1.6005  1.4056 -0.8336
  215MOL0     H29019   5.144   8.045   8.066 -1.9558  0.4468  1.3840
  215MOL0     H29020   5.222   7.949   8.198  3.0683 -1.0858 -1.3356
  215MOL0     H29021   5.130   8.282   8.425 -1.5274 -1.1810  0.4006
  215MOL0     H29022   5.744   8.200   7.746  0.3283  1.1193  1.0731
  215MOL0     H29023   6.085   8.197   7.661  0.0820  0.8187 -0.3203
  215MOL0     H29024   5.913   8.237   7.609  1.4964 -0.4362 -3.1671
  215MOL0     H29025   6.005   8.340   7.728 -3.3921  1.4301 -3.9644
  216MOL0     O29026   0.058   2.341   2.113  0.2410 -0.0730 -0.7677
  216MOL0     C29027   0.016   2.331   1.993  0.2904 -0.5012  0.3744
  216MOL0     O29028   0.087   2.354   1.883  0.8893  0.5408 -0.2305
  216MOL0     C29029   0.220   2.335   1.901 -0.3079 -0.0267  0.2904
  216MOL0     C29030   0.289   2.454   1.909 -0.6202  0.6914  0.0017
  216MOL0     C29031   0.428   2.443   1.939  0.0614 -0.5090  0.2141
  216MOL0     C29032   0.494   2.322   1.939 -0.3769 -0.5169 -0.0033
  216MOL0     O29033   0.628   2.311   1.961 -0.6730  0.1892  0.0471
  216MOL0     C29034   0.700   2.249   1.849 -0.3028 -0.6974 -0.5191
  216MOL0     C29035   0.770   2.119   1.911  0.6842  0.7634  0.4725
  216MOL0     C29036   0.879   2.119   2.014 -1.0100 -0.2394 -0.4163
  216MOL0     C29037   1.003   2.180   1.966 -0.2548 -0.3000 -0.1803
  216MOL0     C29038   1.111   2.168   2.080  0.4183  0.2033  0.7775
  216MOL0     C29039   1.146   2.030   2.128 -0.7753 -0.0895 -0.5653
  216MOL0     C29040   1.216   1.961   2.019  0.1360 -0.2808 -0.2860
  216MOL0     C29041   1.244   1.817   2.060 -0.3249  0.8769 -0.0290
  216MOL0     N29042   1.337   1.795   2.169  0.4727  1.0961 -0.5954
  216MOL0     C29043   1.311   1.744   2.288  0.2602  0.2868  0.9019
  216MOL0     C29044   1.436   1.743   2.345  0.0677  0.4357 -0.0068
  216MOL0     C29045   1.464   1.705   2.485  0.4192  0.7675 -1.3687
  216MOL0     C29046   1.612   1.666   2.531  0.2722  0.1601  0.3349
  216MOL0     C29047   1.615   1.648   2.683 -0.0100 -0.2022  0.1374
  216MOL0     C29048   1.522   1.554   2.762 -0.1399 -0.0756 -0.5244
  216MOL0     O29049   1.544   1.545   2.908 -0.2448 -0.6628 -0.1725
  216MOL0     C29050   1.456   1.623   2.992 -0.6281  0.0318 -0.9368
  216MOL0     C29051   1.447   1.595   3.132  0.1036  0.3028 -0.1282
  216MOL0     C29052   1.368   1.688   3.213  0.5398  0.6419 -0.8384
  216MOL0     C29053   1.302   1.797   3.159 -0.3325 -0.3693 -0.3783
  216MOL0     C29054   1.203   1.866   3.243  0.4941  0.5277 -0.4473
  216MOL0     O29055   1.191   1.831   3.374  1.2227 -0.1560 -0.2074
  216MOL0     C29056   1.116   1.922   3.455  0.4165 -0.6260  0.2705
  216MOL0     C29057   1.034   1.867   3.557 -1.1701 -0.5751  1.0992
  216MOL0     C29058   0.976   1.952   3.654  0.1111 -0.3347  0.7731
  216MOL0     C29059   0.977   2.092   3.638  0.7389 -0.6658  0.5331
  216MOL0     O29060   0.911   2.167   3.732  0.2603  0.2304 -0.1340
  216MOL0     C29061   0.771   2.158   3.717  0.7697 -1.3931 -0.5351
  216MOL0     C29062   0.728   2.291   3.665  0.8955  0.7152  0.8908
  216MOL0     C29063   0.703   2.406   3.768 -0.9774  0.9099  0.0291
  216MOL0     C29064   0.662   2.540   3.704  0.0861  0.5322  0.3231
  216MOL0     C29065   0.582   2.623   3.816  0.4692 -0.6902 -0.6154
  216MOL0     C29066   0.576   2.777   3.790 -0.0371 -0.5246  0.0897
  216MOL0     C29067   0.525   2.855   3.910  0.1469 -0.8324  0.9496
  216MOL0     C29068   0.522   3.008   3.879 -0.0893  0.4322 -0.1057
  216MOL0    Cl29069   0.380   3.086   3.791 -0.2765 -0.3470  0.3275
  216MOL0     C29070   1.052   2.147   3.533  0.7579 -0.4050  0.1443
  216MOL0     C29071   1.125   2.062   3.448 -0.7642 -0.6367  0.5809
  216MOL0     O29072   1.131   1.952   3.192  0.1851  0.4105  0.0287
  216MOL0     C29073   1.298   1.814   3.025 -0.3906  0.0082  0.3693
  216MOL0     C29074   1.382   1.732   2.944 -0.3464 -0.3308 -0.2612
  216MOL0     N29075   1.527   1.776   2.247  0.0038 -0.9108  0.0730
  216MOL0     N29076   1.468   1.799   2.140  0.0370 -0.7502  0.2115
  216MOL0     C29077   0.424   2.202   1.919  0.8491 -0.4207 -0.0968
  216MOL0     C29078   0.289   2.210   1.907 -0.4977  0.1152 -0.6637
  216MOL0     C29079  -0.133   2.337   1.974  0.6452  0.6172 -0.6048
  216MOL0     C29080  -0.214   2.354   2.090 -0.2341  0.3543 -0.5402
  216MOL0     C29081  -0.352   2.330   2.096 -0.8445  0.3475 -0.6231
  216MOL0     C29082  -0.418   2.298   1.973 -0.2332  0.4493  0.0084
  216MOL0     O29083  -0.550   2.254   1.982  1.1990 -0.6677 -0.0238
  216MOL0     C29084  -0.641   2.250   1.864  0.4132  0.0172  0.4732
  216MOL0     C29085  -0.657   2.102   1.836 -0.3710  0.7401  0.9401
  216MOL0     C29086  -0.767   2.038   1.921  0.0926 -0.1498  0.3242
  216MOL0     C29087  -0.783   1.884   1.878  0.9525  0.3602  0.8623
  216MOL0     C29088  -0.900   1.852   1.804  0.4371  0.8644 -0.1410
  216MOL0     C29089  -0.992   1.814   1.735 -0.7472 -0.2999 -0.7681
  216MOL0     C29090  -0.348   2.308   1.858  0.2644  0.3646 -0.6300
  216MOL0     C29091  -0.204   2.310   1.860  0.7532  0.4969 -0.0670
  216MOL0     C29092  -0.138   2.280   1.731 -0.3180  0.0303 -0.0793
  216MOL0     H29093   0.234   2.548   1.909 -3.6707 -0.9487 -0.2848
  216MOL0     H29094   0.486   2.530   1.966 -0.8619  1.0862 -2.5099
  216MOL0     H29095   0.633   2.226   1.765  0.0775  0.8040 -1.2747
  216MOL0     H29096   0.783   2.305   1.805 -1.0546  0.4825 -0.4522
  216MOL0     H29097   0.825   2.074   1.828 -2.1336 -3.1307  0.4140
  216MOL0     H29098   0.693   2.047   1.940  0.8465  1.1462  1.9348
  216MOL0     H29099   0.882   2.017   2.052 -0.3836  0.5516  1.8210
  216MOL0     H29100   0.844   2.167   2.106 -2.0624 -2.6425  0.5027
  216MOL0     H29101   1.026   2.126   1.874 -3.6920  0.6428 -1.7501
  216MOL0     H29102   0.985   2.282   1.933 -1.3248 -0.7798 -1.1217
  216MOL0     H29103   1.198   2.222   2.043 -1.5577  3.7103  0.8368
  216MOL0     H29104   1.080   2.222   2.169  0.8745  1.1473  0.3751
  216MOL0     H29105   1.221   2.028   2.208  2.0155 -0.0419 -2.9973
  216MOL0     H29106   1.054   1.979   2.158 -3.0653  4.9215  2.1306
  216MOL0     H29107   1.306   2.018   1.994 -0.6054  1.0402  0.0227
  216MOL0     H29108   1.163   1.961   1.924 -0.4753 -2.2629  0.0113
  216MOL0     H29109   1.151   1.759   2.061  1.3197 -1.9848 -0.7374
  216MOL0     H29110   1.292   1.779   1.969 -1.8673 -1.8519  0.2049
  216MOL0     H29111   1.219   1.706   2.331 -0.8399  0.8193 -0.8879
  216MOL0     H29112   1.424   1.779   2.555  5.4766  1.4806  1.2525
  216MOL0     H29113   1.408   1.611   2.495 -0.5081  1.3625 -0.8841
  216MOL0     H29114   1.644   1.579   2.473 -0.9068  0.9714 -1.6324
  216MOL0     H29115   1.677   1.750   2.501  0.3552 -0.4807 -1.3721
  216MOL0     H29116   1.612   1.746   2.731 -1.0332 -0.3885  0.4724
  216MOL0     H29117   1.714   1.605   2.704 -0.8381 -2.9342 -1.0496
  216MOL0     H29118   1.523   1.452   2.721  2.9372  0.1700 -1.2584
  216MOL0     H29119   1.418   1.568   2.730 -0.2845 -2.2451 -1.2318
  216MOL0     H29120   1.505   1.511   3.169  0.4849  0.0233 -1.3401
  216MOL0     H29121   1.363   1.670   3.320  2.0008 -0.1354 -0.8739
  216MOL0     H29122   1.036   1.759   3.550  1.7601 -0.5928  0.7725
  216MOL0     H29123   0.926   1.908   3.740  0.5427  0.7746  1.6181
  216MOL0     H29124   0.729   2.075   3.660 -0.8158  0.3207 -1.9738
  216MOL0     H29125   0.728   2.142   3.817 -3.1535  0.8217 -1.6686
  216MOL0     H29126   0.804   2.308   3.587  0.5489 -2.3540 -0.2537
  216MOL0     H29127   0.642   2.267   3.603  0.0264 -0.6953  2.5415
  216MOL0     H29128   0.612   2.374   3.820 -0.9505  1.0033  0.1326
  216MOL0     H29129   0.786   2.414   3.839 -3.1951 -2.0648  3.3075
  216MOL0     H29130   0.598   2.515   3.620  1.1993 -3.7209  0.4978
  216MOL0     H29131   0.748   2.599   3.672  1.6333  0.4684  3.8762
  216MOL0     H29132   0.634   2.610   3.912  0.5782  2.1238 -0.1986
  216MOL0     H29133   0.482   2.586   3.842 -0.1872  0.2069 -1.7785
  216MOL0     H29134   0.680   2.812   3.782 -0.3105  0.8183  1.7705
  216MOL0     H29135   0.511   2.806   3.708 -3.1910  0.5166  2.7127
  216MOL0     H29136   0.601   2.835   3.987  1.8344 -0.1282 -0.4675
  216MOL0     H29137   0.430   2.820   3.950  0.5276 -0.1009  2.5916
  216MOL0     H29138   0.532   3.053   3.978  0.5574 -0.3888  0.2165
  216MOL0     H29139   0.621   3.038   3.843  0.5436  3.0728  3.3244
  216MOL0     H29140   1.051   2.254   3.510 -3.2999  0.0978  1.7350
  216MOL0     H29141   1.183   2.120   3.376 -3.1273  0.2046 -0.7567
  216MOL0     H29142   1.252   1.905   2.988 -0.7741 -0.4218 -0.2306
  216MOL0     H29143   1.384   1.745   2.836 -0.8982 -1.9268 -0.4958
  216MOL0     H29144   0.469   2.104   1.931  1.4575 -0.4180 -2.0327
  216MOL0     H29145   0.239   2.114   1.901 -1.4797  0.6303 -0.9016
  216MOL0     H29146  -0.163   2.370   2.185 -2.8039 -0.3970  1.0533
  216MOL0     H29147  -0.402   2.325   2.192  1.8571 -0.0373  0.8583
  216MOL0     H29148  -0.618   2.312   1.778 -4.7960  2.1880  0.2914
  216MOL0     H29149  -0.732   2.287   1.912  2.0738  3.2643  1.4199
  216MOL0     H29150  -0.563   2.046   1.842 -0.1202  0.7750 -1.6232
  216MOL0     H29151  -0.686   2.111   1.731  2.0947  1.1580  0.2344
  216MOL0     H29152  -0.868   2.080   1.915 -1.5397 -3.5870  1.1568
  216MOL0     H29153  -0.747   2.043   2.028  0.5105 -2.0072  0.3781
  216MOL0     H29154  -0.696   1.857   1.818 -0.9114 -4.0317 -0.2740
  216MOL0     H29155  -0.774   1.821   1.967 -1.6287  0.7601  1.4890
  216MOL0     H29156  -1.076   1.786   1.675 -1.4301 -1.7622  0.7713
  216MOL0     H29157  -0.401   2.271   1.771 -1.6585 -1.3434  1.1387
  216MOL0     H29158  -0.209   2.229   1.665  0.5438  0.2951 -1.2516
  216MOL0     H29159  -0.106   2.376   1.689 -1.3175  0.2451 -0.3777
  216MOL0     H29160  -0.047   2.219   1.740 -0.8642 -1.0244 -1.4315
  217MOL0     O29161   6.695   2.005   6.128 -0.2403 -0.9185  0.1653
  217MOL0     C29162   6.662   2.118   6.102 -1.0695  0.4710 -0.6393
  217MOL0     O29163   6.706   2.185   5.988 -0.2319 -0.7315 -0.4199
  217MOL0     C29164   6.782   2.111   5.900  0.5629 -0.1417 -0.0160
  217MOL0     C29165   6.736   2.027   5.796 -0.3265 -0.2427 -0.1813
  217MOL0     C29166   6.829   1.990   5.702 -0.5690  1.5265 -0.5959
  217MOL0     C29167   6.965   2.038   5.693  0.1332 -0.4394 -0.0153
  217MOL0     O29168   7.051   2.033   5.587 -0.4550  0.3863  0.0057
  217MOL0     C29169   6.995   1.972   5.466  0.5503  0.3443  0.7532
  217MOL0     C29170   7.103   1.984   5.354 -0.2602 -1.0648  0.1777
  217MOL0     C29171   7.109   2.128   5.298  0.6679 -0.5744  0.2984
  217MOL0     C29172   7.145   2.133   5.154  0.0246 -0.0151 -0.0935
  217MOL0     C29173   7.293   2.085   5.129  0.3457  0.4390  0.4640
  217MOL0     C29174   7.330   2.095   4.976  0.2231  1.0273 -0.3646
  217MOL0     C29175   7.383   2.225   4.928  0.0789 -0.8237 -1.0331
  217MOL0     C29176   7.540   2.240   4.952 -0.0076  1.3741 -0.0756
  217MOL0     N29177   7.598   2.195   5.078 -0.5252  0.4890  0.4242
  217MOL0     C29178   7.589   2.262   5.192  0.0108 -0.0352  0.5692
  217MOL0     C29179   7.658   2.185   5.268  1.1653 -0.6678  0.1253
  217MOL0     C29180   7.661   2.205   5.417 -0.1284 -0.5327 -0.3024
  217MOL0     C29181   7.526   2.234   5.481  0.4732 -0.8910  0.1814
  217MOL0     C29182   7.540   2.285   5.626 -0.2461 -0.4623 -0.6538
  217MOL0     C29183   7.407   2.321   5.677 -0.4890 -0.2287 -0.0338
  217MOL0     O29184   7.427   2.372   5.811  0.3122  0.8460 -0.0114
  217MOL0     C29185   7.316   2.414   5.878  1.0991  0.5222 -0.1773
  217MOL0     C29186   7.184   2.423   5.816 -0.1042  0.2156 -0.1238
  217MOL0     C29187   7.070   2.478   5.883 -0.9476  0.6901  1.1422
  217MOL0     C29188   7.092   2.513   6.020 -0.7769  0.0874 -0.7367
  217MOL0     C29189   6.984   2.578   6.092  0.6646  0.5552  0.3804
  217MOL0     O29190   7.015   2.649   6.206  0.5038 -0.6613  0.0391
  217MOL0     C29191   6.905   2.710   6.274 -0.0516 -0.4481 -0.1793
  217MOL0     C29192   6.918   2.848   6.293 -0.0269  0.1856  0.5653
  217MOL0     C29193   6.837   2.923   6.373  0.7858  0.4747 -0.6215
  217MOL0     C29194   6.727   2.855   6.442 -1.2844  0.6467  0.3892
  217MOL0     O29195   6.632   2.896   6.531  0.2712 -0.5616  0.0667
  217MOL0     C29196   6.637   3.039   6.569  0.7750  0.1960 -0.2143
  217MOL0     C29197   6.535   3.072   6.679  1.0910 -0.9955 -0.1660
  217MOL0     C29198   6.517   3.221   6.694  0.5283  0.6888 -0.3864
  217MOL0     C29199   6.419   3.251   6.815 -0.5159  0.4640 -0.1960
  217MOL0     C29200   6.359   3.389   6.812  0.5050 -0.4849  0.7780
  217MOL0     C29201   6.251   3.422   6.913 -0.1699 -1.1301 -0.6801
  217MOL0     C29202   6.136   3.324   6.910 -0.8622  1.8850 -0.7849
  217MOL0     C29203   6.003   3.368   6.960 -0.2085  0.0728 -0.1870
  217MOL0    Cl29204   6.014   3.380   7.141 -0.3449 -0.0813 -0.0299
  217MOL0     C29205   6.714   2.721   6.409  1.2108  0.5772 -0.2005
  217MOL0     C29206   6.807   2.642   6.342 -0.1549  0.1554  0.0626
  217MOL0     O29207   6.868   2.569   6.053 -0.1956  0.0762 -0.4834
  217MOL0     C29208   7.211   2.486   6.090 -0.2077  0.0984  0.3569
  217MOL0     C29209   7.321   2.438   6.020 -0.1792 -0.8981  0.4070
  217MOL0     N29210   7.716   2.075   5.208 -0.8750  0.4706  0.1303
  217MOL0     N29211   7.668   2.078   5.087  0.5252  0.3996  0.2748
  217MOL0     C29212   7.009   2.122   5.790  0.5470  0.5873  0.6898
  217MOL0     C29213   6.919   2.150   5.897  0.7363 -0.2489  0.7292
  217MOL0     C29214   6.562   2.198   6.181 -0.4239 -0.7943 -0.3760
  217MOL0     C29215   6.561   2.338   6.168 -0.6087  0.3869 -0.8357
  217MOL0     C29216   6.487   2.425   6.255 -0.1365  0.8453  0.1353
  217MOL0     C29217   6.403   2.359   6.350  0.3230 -0.2236 -0.7619
  217MOL0     O29218   6.320   2.434   6.426 -0.2061  0.3786  0.1888
  217MOL0     C29219   6.301   2.408   6.567  0.3945 -1.0640  0.3914
  217MOL0     C29220   6.408   2.493   6.632 -0.1886 -0.1492  1.5395
  217MOL0     C29221   6.348   2.551   6.759  1.0099  0.6365  0.0323
  217MOL0     C29222   6.444   2.554   6.873  0.0292 -0.3409 -0.6053
  217MOL0     C29223   6.459   2.417   6.919 -0.6744 -0.4039  0.2725
  217MOL0     C29224   6.479   2.292   6.942 -0.1703 -0.5759  0.3069
  217MOL0     C29225   6.399   2.225   6.353  0.0921 -0.0562 -0.7933
  217MOL0     C29226   6.472   2.140   6.278 -0.3879 -0.2631  0.1027
  217MOL0     C29227   6.458   1.988   6.294 -0.1250 -0.8288  0.0865
  217MOL0     H29228   6.634   1.991   5.785  0.2198 -2.4525  1.1905
  217MOL0     H29229   6.792   1.924   5.624 -0.4338  2.2268 -1.2652
  217MOL0     H29230   6.972   1.865   5.471  3.0262 -0.4436 -2.2106
  217MOL0     H29231   6.906   2.030   5.440 -0.4213 -0.1354  2.7574
  217MOL0     H29232   7.087   1.906   5.278 -1.3193  1.0974 -1.9590
  217MOL0     H29233   7.203   1.976   5.396  0.9968  2.4142 -1.7109
  217MOL0     H29234   7.183   2.184   5.356  2.0637  1.0269 -2.7896
  217MOL0     H29235   7.011   2.174   5.312  0.3124 -1.5982  1.4102
  217MOL0     H29236   7.074   2.063   5.109 -2.9287  1.7136  1.5887
  217MOL0     H29237   7.145   2.232   5.108  1.4539 -0.2543 -0.6646
  217MOL0     H29238   7.365   2.142   5.188 -0.8254  2.4536  0.0515
  217MOL0     H29239   7.310   1.981   5.158  1.6545  0.1809 -1.0520
  217MOL0     H29240   7.400   2.015   4.952 -2.1934 -1.6160  0.6764
  217MOL0     H29241   7.243   2.073   4.914 -0.3054  0.2821  0.5999
  217MOL0     H29242   7.332   2.306   4.981 -0.3630 -1.4714 -0.4604
  217MOL0     H29243   7.362   2.250   4.823 -1.7136  2.8763  0.0382
  217MOL0     H29244   7.580   2.168   4.881  2.2633 -0.0136  2.4418
  217MOL0     H29245   7.569   2.344   4.930 -0.2044  1.4303 -0.0722
  217MOL0     H29246   7.526   2.349   5.209  0.7325  0.5282  0.4137
  217MOL0     H29247   7.694   2.111   5.462  2.7397  1.3416  1.8505
  217MOL0     H29248   7.732   2.283   5.446  0.8342 -1.9985  1.4724
  217MOL0     H29249   7.493   2.319   5.421  1.0314 -1.5520 -1.1050
  217MOL0     H29250   7.469   2.143   5.459 -0.7640  0.3654 -2.0671
  217MOL0     H29251   7.602   2.375   5.633 -1.2460  0.6268 -4.1845
  217MOL0     H29252   7.572   2.202   5.691  0.4746  0.1411 -0.2266
  217MOL0     H29253   7.331   2.243   5.676 -1.8757  1.0801 -1.0941
  217MOL0     H29254   7.366   2.392   5.605  1.6817  0.9007 -0.2409
  217MOL0     H29255   7.168   2.384   5.716  0.1431 -0.7630  0.2177
  217MOL0     H29256   6.977   2.497   5.829 -0.2222 -0.0526 -0.4267
  217MOL0     H29257   6.996   2.910   6.250  1.0258 -0.6321  1.2534
  217MOL0     H29258   6.851   3.029   6.389 -0.7664  1.0450 -2.6307
  217MOL0     H29259   6.734   3.068   6.610  0.0802  1.4322  0.5940
  217MOL0     H29260   6.614   3.097   6.479  1.6431  0.8863  0.0021
  217MOL0     H29261   6.445   3.018   6.649  1.5360 -2.8365  1.5361
  217MOL0     H29262   6.567   3.028   6.774  0.4370 -0.6879  0.1948
  217MOL0     H29263   6.614   3.271   6.706 -1.0553  3.4965  1.7086
  217MOL0     H29264   6.473   3.263   6.604  3.0252  0.3500 -1.8820
  217MOL0     H29265   6.477   3.243   6.908 -2.2015  0.3985  0.8995
  217MOL0     H29266   6.338   3.178   6.811 -0.8260  0.7094  1.0349
  217MOL0     H29267   6.319   3.413   6.713 -0.1302  0.8657  1.3482
  217MOL0     H29268   6.434   3.468   6.821  2.6134 -2.5048  2.3089
  217MOL0     H29269   6.293   3.420   7.014  0.1672  2.6327 -0.5936
  217MOL0     H29270   6.209   3.520   6.888  0.9625 -0.9786 -2.0516
  217MOL0     H29271   6.165   3.227   6.953 -0.9877  3.2083  2.6230
  217MOL0     H29272   6.114   3.303   6.805  0.1889 -1.5798 -0.4518
  217MOL0     H29273   5.981   3.465   6.914  0.7476 -0.4595 -1.8473
  217MOL0     H29274   5.923   3.297   6.937 -0.9606  0.9461 -0.3605
  217MOL0     H29275   6.625   2.668   6.442  1.4050  0.3863  0.0162
  217MOL0     H29276   6.807   2.536   6.319 -2.3319  0.1302  0.0232
  217MOL0     H29277   7.219   2.498   6.197 -3.5256  1.0121  0.6195
  217MOL0     H29278   7.421   2.427   6.060 -0.3455 -1.4585  0.6801
  217MOL0     H29279   7.107   2.167   5.801  1.2642 -0.4455 -0.9541
  217MOL0     H29280   6.959   2.218   5.971 -1.5399  0.2762  1.5402
  217MOL0     H29281   6.630   2.385   6.098 -1.4366  0.7391 -1.4479
  217MOL0     H29282   6.477   2.533   6.262  2.6424  1.2582 -1.0958
  217MOL0     H29283   6.308   2.303   6.600  0.4446 -1.4641 -0.8585
  217MOL0     H29284   6.200   2.444   6.592  0.4687  1.5440 -2.5101
  217MOL0     H29285   6.442   2.578   6.573 -1.9213  1.1736  2.3771
  217MOL0     H29286   6.495   2.427   6.637 -0.8273 -0.9712  2.0892
  217MOL0     H29287   6.267   2.482   6.784  0.7593  1.0379  0.3450
  217MOL0     H29288   6.299   2.646   6.737 -1.5815 -0.9819 -1.7565
  217MOL0     H29289   6.538   2.604   6.848  0.6736 -1.3370 -0.2560
  217MOL0     H29290   6.399   2.611   6.955  0.1164  0.1366 -0.8835
  217MOL0     H29291   6.487   2.186   6.954 -1.4751 -1.0726 -2.2995
  217MOL0     H29292   6.345   2.180   6.435 -1.8121  2.9196 -0.2465
  217MOL0     H29293   6.552   1.933   6.284 -0.5164 -1.9089  1.8240
  217MOL0     H29294   6.417   1.966   6.393  0.1259  0.6267  0.5366
  217MOL0     H29295   6.380   1.967   6.219 -0.3080  3.6917 -1.2645
  218MOL0     O29296   4.986   6.054   5.287  0.5364  0.3459  0.3500
  218MOL0     C29297   4.929   6.138   5.226  1.0784 -0.2918 -0.3465
  218MOL0     O29298   4.888   6.255   5.279 -0.5983 -0.2108 -0.5237
  218MOL0     C29299   4.941   6.264   5.410  0.2088  0.4615 -0.3280
  218MOL0     C29300   4.867   6.201   5.505 -0.1048  0.7637  0.5065
  218MOL0     C29301   4.905   6.198   5.637  0.5005 -0.1061  0.6345
  218MOL0     C29302   5.025   6.257   5.679  0.0368 -0.6216 -0.5730
  218MOL0     O29303   5.092   6.248   5.797  0.3484 -0.4068 -0.2483
  218MOL0     C29304   5.156   6.128   5.812  0.4254  0.5869  0.3908
  218MOL0     C29305   5.304   6.137   5.804 -0.2859  1.8687 -0.3359
  218MOL0     C29306   5.379   6.009   5.772  0.1641 -0.3111 -0.2476
  218MOL0     C29307   5.416   5.991   5.620  0.4017 -0.1129 -0.7801
  218MOL0     C29308   5.521   5.873   5.616  0.3051  0.3894 -0.7982
  218MOL0     C29309   5.556   5.828   5.469  0.3182 -0.5059 -0.5097
  218MOL0     C29310   5.429   5.783   5.388  0.0337  0.7454  0.7519
  218MOL0     C29311   5.466   5.701   5.261 -0.3136  0.5499  0.1291
  218MOL0     N29312   5.529   5.774   5.152 -0.2166 -0.3477 -0.4787
  218MOL0     C29313   5.657   5.812   5.127 -0.2028  0.4502 -0.2080
  218MOL0     C29314   5.663   5.871   5.009 -0.1411 -0.0706  0.2480
  218MOL0     C29315   5.790   5.925   4.943  0.5599  0.3725 -0.6423
  218MOL0     C29316   5.799   5.898   4.793 -0.4855  0.3606  0.4831
  218MOL0     C29317   5.694   5.976   4.708  0.4278 -0.3945 -0.0230
  218MOL0     C29318   5.717   5.978   4.558 -0.0815 -0.4671 -0.3561
  218MOL0     O29319   5.608   6.049   4.496  0.3648  0.3237 -0.1740
  218MOL0     C29320   5.601   6.042   4.361  0.6937  0.1267 -0.3450
  218MOL0     C29321   5.539   5.939   4.286  0.2258 -0.9008  0.3540
  218MOL0     C29322   5.517   5.964   4.144 -0.3527 -0.4879  0.6370
  218MOL0     C29323   5.557   6.075   4.079 -0.1270 -0.1397 -0.3337
  218MOL0     C29324   5.524   6.094   3.936 -0.5925  0.2147 -0.2120
  218MOL0     O29325   5.596   6.193   3.874 -0.2621  0.4154  0.4373
  218MOL0     C29326   5.571   6.227   3.747  0.8517 -0.4953  0.6326
  218MOL0     C29327   5.640   6.164   3.651 -0.6658  0.6132  0.5751
  218MOL0     C29328   5.623   6.189   3.514  0.9203 -0.6234 -0.0572
  218MOL0     C29329   5.557   6.312   3.477  0.3173  0.5952 -0.8056
  218MOL0     O29330   5.533   6.361   3.349 -0.0303 -0.5536 -0.2420
  218MOL0     C29331   5.620   6.316   3.238  0.6230  0.5246 -0.5080
  218MOL0     C29332   5.621   6.412   3.117  0.5233 -0.3036 -0.4268
  218MOL0     C29333   5.746   6.366   3.039 -1.2980 -0.4377 -0.9598
  218MOL0     C29334   5.795   6.460   2.927  0.3285  0.0199  0.3991
  218MOL0     C29335   5.887   6.576   2.980 -0.2548 -0.2407  0.7148
  218MOL0     C29336   5.997   6.617   2.885 -0.5221  0.2117 -0.0097
  218MOL0     C29337   6.136   6.661   2.949 -0.6530  0.0744  0.1936
  218MOL0     C29338   6.151   6.799   2.998 -0.1978  0.1308  0.2262
  218MOL0    Cl29339   6.073   6.800   3.155  0.0685 -0.2368  0.4993
  218MOL0     C29340   5.498   6.387   3.575 -0.1484 -0.0595 -0.1539
  218MOL0     C29341   5.509   6.349   3.707  0.1125  0.3595 -0.8043
  218MOL0     O29342   5.455   6.011   3.883  0.7144 -0.0384 -0.8412
  218MOL0     C29343   5.647   6.162   4.146 -0.4019  0.4902 -0.1586
  218MOL0     C29344   5.671   6.145   4.291 -0.0169 -0.1850  0.9107
  218MOL0     N29345   5.535   5.858   4.960  0.4624  0.2730 -0.6725
  218MOL0     N29346   5.457   5.811   5.042 -0.2584  1.2250 -0.5254
  218MOL0     C29347   5.100   6.333   5.580 -0.9787 -0.6609  0.5400
  218MOL0     C29348   5.049   6.340   5.451  0.0005  0.1632 -0.1669
  218MOL0     C29349   4.914   6.118   5.078 -0.7564  0.9484 -0.9859
  218MOL0     C29350   4.807   6.170   5.007  0.2197  0.7456  0.2502
  218MOL0     C29351   4.800   6.155   4.869  0.5140 -0.1572  0.4882
  218MOL0     C29352   4.883   6.068   4.805  0.2476 -0.2107  0.1199
  218MOL0     O29353   4.894   6.062   4.666  0.2802  0.1671  0.5085
  218MOL0     C29354   4.802   5.976   4.611 -0.0159 -0.6418  0.0324
  218MOL0     C29355   4.829   5.949   4.457  0.1164  0.0644 -1.1098
  218MOL0     C29356   4.872   5.807   4.414  0.5626 -0.8222  0.2619
  218MOL0     C29357   4.855   5.787   4.269 -0.0291  0.7774  0.2362
  218MOL0     C29358   4.720   5.730   4.227 -0.0921  0.6279 -0.0983
  218MOL0     C29359   4.611   5.682   4.208 -0.2394  0.5587 -0.2284
  218MOL0     C29360   4.996   6.023   4.869  1.1836 -0.1324 -0.7990
  218MOL0     C29361   5.018   6.040   5.006 -0.1009 -0.4960  0.6543
  218MOL0     C29362   5.147   5.974   5.072  0.3842 -0.3062  0.1818
  218MOL0     H29363   4.776   6.154   5.469 -0.4356  2.7119 -1.4691
  218MOL0     H29364   4.829   6.150   5.699  1.1375 -4.1978 -1.4057
  218MOL0     H29365   5.140   6.094   5.915  1.0435  0.3725  0.4191
  218MOL0     H29366   5.114   6.045   5.754  1.0017 -1.3748  2.6229
  218MOL0     H29367   5.341   6.147   5.907 -0.5861 -3.1578  0.5151
  218MOL0     H29368   5.341   6.220   5.742 -3.0670  2.8925 -0.7512
  218MOL0     H29369   5.317   5.922   5.795  0.5800 -1.1417 -2.0821
  218MOL0     H29370   5.470   5.999   5.833  1.1823  2.8277 -1.0503
  218MOL0     H29371   5.322   5.965   5.570 -0.5698 -1.3875  1.5520
  218MOL0     H29372   5.464   6.081   5.581  3.8039 -1.5691 -0.3137
  218MOL0     H29373   5.611   5.897   5.673 -0.5828 -0.6607  1.1252
  218MOL0     H29374   5.486   5.787   5.674 -0.9346  0.5647 -1.2373
  218MOL0     H29375   5.603   5.913   5.419 -0.0248  0.5384  0.8883
  218MOL0     H29376   5.626   5.744   5.468 -0.0819 -0.8528  0.1969
  218MOL0     H29377   5.371   5.873   5.363  0.6599  0.8581 -0.3457
  218MOL0     H29378   5.358   5.727   5.449 -1.0084 -0.4919 -1.4669
  218MOL0     H29379   5.538   5.624   5.292 -0.2255  1.7230  3.0407
  218MOL0     H29380   5.378   5.651   5.219 -0.3105  0.0564  0.6998
  218MOL0     H29381   5.746   5.792   5.185  2.4000  0.6213 -3.7648
  218MOL0     H29382   5.800   6.032   4.961  2.1193  0.1205  0.1483
  218MOL0     H29383   5.883   5.885   4.984  0.4587  0.7391 -0.0479
  218MOL0     H29384   5.893   5.945   4.764  0.3101 -1.0242  0.7451
  218MOL0     H29385   5.799   5.792   4.767 -0.7354 -0.6210  4.0147
  218MOL0     H29386   5.706   6.078   4.744  0.8284 -0.5272  0.2351
  218MOL0     H29387   5.595   5.940   4.734 -0.0463 -1.2295 -2.6438
  218MOL0     H29388   5.723   5.876   4.520 -1.3513 -0.6204 -0.1815
  218MOL0     H29389   5.810   6.032   4.537 -0.6283 -0.6625 -3.7740
  218MOL0     H29390   5.512   5.845   4.334 -0.7658  0.2097  2.0706
  218MOL0     H29391   5.462   5.887   4.090  0.9487 -0.6084 -0.5643
  218MOL0     H29392   5.709   6.085   3.679 -0.7771  0.5891  0.7849
  218MOL0     H29393   5.668   6.122   3.442 -0.9870 -1.5726 -0.4292
  218MOL0     H29394   5.721   6.302   3.276  0.8909 -0.9502 -1.6407
  218MOL0     H29395   5.587   6.214   3.212  0.6031  0.4382 -0.1415
  218MOL0     H29396   5.536   6.399   3.049  2.0217 -0.1123 -2.4379
  218MOL0     H29397   5.624   6.515   3.155 -2.2789  0.0486 -0.8923
  218MOL0     H29398   5.837   6.357   3.098 -1.6814 -0.9031 -0.4338
  218MOL0     H29399   5.734   6.264   3.002  1.4492 -0.4133 -2.1547
  218MOL0     H29400   5.711   6.498   2.870  0.3167 -1.0651 -0.3361
  218MOL0     H29401   5.859   6.400   2.861  1.2439 -0.2404  1.4793
  218MOL0     H29402   5.933   6.546   3.075 -3.6532  2.1072  3.3912
  218MOL0     H29403   5.827   6.667   2.989  3.0564  2.1162  0.3894
  218MOL0     H29404   6.025   6.532   2.822  0.9299  2.2744 -2.3203
  218MOL0     H29405   5.957   6.693   2.817  1.0376 -0.7673 -2.1738
  218MOL0     H29406   6.205   6.635   2.868  0.1635 -0.2425  0.9687
  218MOL0     H29407   6.163   6.587   3.025  0.9719  2.7568  2.3863
  218MOL0     H29408   6.255   6.831   3.008 -0.1286 -0.1259  0.3207
  218MOL0     H29409   6.100   6.857   2.920 -0.3354 -0.6360 -0.2682
  218MOL0     H29410   5.437   6.470   3.542 -0.9735 -0.8517 -0.6958
  218MOL0     H29411   5.481   6.414   3.788 -1.1448 -0.4365 -0.5652
  218MOL0     H29412   5.705   6.240   4.097  0.8438 -0.4988 -0.3443
  218MOL0     H29413   5.734   6.222   4.335  0.8668  0.6998 -1.7646
  218MOL0     H29414   5.186   6.392   5.608 -4.3386  4.1029  2.2284
  218MOL0     H29415   5.092   6.415   5.385 -0.5113  1.4972  0.9672
  218MOL0     H29416   4.732   6.235   5.051 -1.6894 -3.2318  3.4918
  218MOL0     H29417   4.738   6.209   4.798  2.2107  0.8521 -0.2971
  218MOL0     H29418   4.699   6.013   4.619 -0.6000 -2.2639  0.4154
  218MOL0     H29419   4.796   5.880   4.664  0.2803 -0.7336 -0.0997
  218MOL0     H29420   4.916   6.013   4.436  1.2168 -0.3318  1.7990
  218MOL0     H29421   4.738   5.966   4.399 -0.7688 -0.4139  0.1165
  218MOL0     H29422   4.814   5.736   4.473 -0.3404 -0.9054 -0.7136
  218MOL0     H29423   4.980   5.793   4.432  0.8404  1.1161  0.3201
  218MOL0     H29424   4.871   5.883   4.219 -3.9440  1.6235  0.3263
  218MOL0     H29425   4.931   5.716   4.234 -1.1977 -1.0056  1.1778
  218MOL0     H29426   4.533   5.610   4.192  0.2195  0.3109 -1.4735
  218MOL0     H29427   5.070   5.971   4.809  2.3410  2.6697 -1.9383
  218MOL0     H29428   5.222   5.946   4.998  0.1480  0.3987 -0.3398
  218MOL0     H29429   5.178   6.033   5.159  0.8915 -1.0392  0.5136
  218MOL0     H29430   5.107   5.883   5.117  1.8391 -2.0155 -1.8099
  219MOL0     O29431   5.945  10.739   4.593  1.0621  0.2470 -0.7816
  219MOL0     C29432   5.869  10.830   4.630 -0.3734  0.4982 -0.6484
  219MOL0     O29433   5.765  10.811   4.722 -0.0981  0.2837  0.2605
  219MOL0     C29434   5.720  10.691   4.769 -0.2533  0.1286  0.3161
  219MOL0     C29435   5.744  10.563   4.711  0.9687 -1.5154 -0.3118
  219MOL0     C29436   5.681  10.453   4.757  1.4912  0.3727  0.0496
  219MOL0     C29437   5.596  10.453   4.879  0.7077  0.4148  0.2170
  219MOL0     O29438   5.533  10.344   4.927 -1.0027  0.5195  0.0559
  219MOL0     C29439   5.399  10.364   4.981 -0.1730 -0.5489 -0.1086
  219MOL0     C29440   5.326  10.229   4.995  0.6781 -0.3297 -0.0683
  219MOL0     C29441   5.200  10.227   5.078  0.2131  0.3728 -0.8264
  219MOL0     C29442   5.081  10.305   5.022  0.1462  0.0629 -0.7230
  219MOL0     C29443   4.959  10.314   5.114  0.7412 -0.4148  0.3350
  219MOL0     C29444   4.909  10.187   5.183  0.6955 -0.2744  0.2070
  219MOL0     C29445   4.813  10.226   5.302 -0.9955 -0.3585  0.0930
  219MOL0     C29446   4.788  10.099   5.374  0.5978  1.1031  0.2242
  219MOL0     N29447   4.692  10.003   5.310  0.0870 -0.2034  0.6738
  219MOL0     C29448   4.743   9.912   5.217 -0.3985 -0.3317 -0.2903
  219MOL0     C29449   4.632   9.879   5.148 -0.1514 -0.4392  1.0311
  219MOL0     C29450   4.611   9.779   5.037 -1.4622 -0.5534 -0.7037
  219MOL0     C29451   4.705   9.663   5.070 -0.3255 -0.1124  0.2466
  219MOL0     C29452   4.678   9.549   4.975 -0.3566  0.7166 -0.3786
  219MOL0     C29453   4.798   9.445   4.993 -1.1897  0.2885  0.2997
  219MOL0     O29454   4.919   9.485   4.942 -0.1240 -0.7984 -0.0909
  219MOL0     C29455   5.012   9.386   4.972  0.3299  0.3438  0.4960
  219MOL0     C29456   5.012   9.253   4.917  0.6776 -0.5700  0.1237
  219MOL0     C29457   5.109   9.159   4.971 -1.3433 -0.3980  1.1764
  219MOL0     C29458   5.213   9.199   5.057  0.0661  0.4180  1.3382
  219MOL0     C29459   5.322   9.108   5.092  0.3435  0.3950 -0.1381
  219MOL0     O29460   5.326   8.997   5.012  0.0227  0.7506  0.4509
  219MOL0     C29461   5.392   8.885   5.037  0.0744  0.6618  0.1297
  219MOL0     C29462   5.315   8.776   5.081  0.5342  0.1632 -0.2927
  219MOL0     C29463   5.376   8.648   5.095  0.3595 -0.1911 -0.0978
  219MOL0     C29464   5.514   8.636   5.078 -0.4810 -0.6343 -0.8790
  219MOL0     O29465   5.569   8.510   5.082 -0.1480  0.4370 -0.6375
  219MOL0     C29466   5.626   8.463   4.959  0.1691  0.6368 -0.5403
  219MOL0     C29467   5.532   8.382   4.877  0.5144  0.0843 -0.1501
  219MOL0     C29468   5.594   8.291   4.770  0.1327  0.2635 -0.2761
  219MOL0     C29469   5.643   8.153   4.826  0.3159  0.2779  0.5167
  219MOL0     C29470   5.638   8.047   4.710  0.2359  0.2530  0.4597
  219MOL0     C29471   5.627   7.907   4.758  0.7092  0.7953 -0.4811
  219MOL0     C29472   5.604   7.801   4.648  0.1274 -0.0553  1.3750
  219MOL0     C29473   5.452   7.766   4.627  0.0166  0.8532  0.6199
  219MOL0    Cl29474   5.359   7.913   4.620  0.1898 -0.2929 -0.3183
  219MOL0     C29475   5.585   8.745   5.039  0.0982  0.5656  0.2676
  219MOL0     C29476   5.533   8.872   5.017 -0.0451 -0.3800 -0.2222
  219MOL0     O29477   5.378   9.124   5.203  0.5326  0.0654  0.0367
  219MOL0     C29478   5.224   9.331   5.092  0.9277 -1.1573 -0.2523
  219MOL0     C29479   5.120   9.422   5.051 -0.0724  0.3588 -0.3253
  219MOL0     N29480   4.530   9.947   5.189  0.0099  0.5576  0.0846
  219MOL0     N29481   4.564  10.027   5.285  0.2134  0.0895  0.2920
  219MOL0     C29482   5.588  10.574   4.938  0.3897  0.3407 -0.5071
  219MOL0     C29483   5.648  10.690   4.890  0.9155 -0.1184 -0.3349
  219MOL0     C29484   5.895  10.976   4.591  0.0429  0.6230 -0.3191
  219MOL0     C29485   5.811  11.074   4.652  1.0324 -0.7307  0.8498
  219MOL0     C29486   5.844  11.209   4.630  0.1694  0.4825 -0.6848
  219MOL0     C29487   5.929  11.262   4.528  0.8835  0.9024  0.1657
  219MOL0     O29488   5.931  11.396   4.493 -0.8270  0.6800  0.2299
  219MOL0     C29489   6.024  11.437   4.396 -0.1715 -0.2765 -0.0928
  219MOL0     C29490   6.007  11.585   4.365 -0.3077 -0.2339 -0.2734
  219MOL0     C29491   5.867  11.619   4.312 -0.0702 -0.6784  0.0469
  219MOL0     C29492   5.780  11.713   4.401  1.0111  0.0209  0.2914
  219MOL0     C29493   5.734  11.668   4.524  0.3390  0.4816 -0.0333
  219MOL0     C29494   5.696  11.623   4.630  0.1264  0.1272 -0.3584
  219MOL0     C29495   5.996  11.160   4.467 -0.5700  0.8151  0.2442
  219MOL0     C29496   5.985  11.028   4.492 -0.3078 -0.4036 -0.2724
  219MOL0     C29497   6.073  10.935   4.409  0.5624  0.2568 -0.1745
  219MOL0     H29498   5.807  10.554   4.623  0.1797  2.5478 -1.5139
  219MOL0     H29499   5.671  10.360   4.703 -2.3548 -0.2910  1.5709
  219MOL0     H29500   5.401  10.403   5.083 -3.0096  0.4458 -0.3411
  219MOL0     H29501   5.347  10.435   4.916  0.9707 -0.3709 -0.8765
  219MOL0     H29502   5.398  10.170   5.052  1.5279  2.3488  1.8032
  219MOL0     H29503   5.313  10.185   4.896 -0.6069 -1.3999  0.5506
  219MOL0     H29504   5.235  10.266   5.174  0.5042  0.6965 -1.0656
  219MOL0     H29505   5.178  10.120   5.085 -1.6994  0.7707 -0.0271
  219MOL0     H29506   5.125  10.403   5.005  0.5065  0.5025  2.2168
  219MOL0     H29507   5.058  10.256   4.926  1.2302  0.4973 -1.2153
  219MOL0     H29508   4.968  10.389   5.193 -4.5677  1.7547 -0.7375
  219MOL0     H29509   4.885  10.359   5.047 -0.1819  0.1608  1.7152
  219MOL0     H29510   4.849  10.139   5.106 -1.4886  3.5638 -0.7907
  219MOL0     H29511   4.982  10.117   5.223  0.5083 -0.2328  0.6292
  219MOL0     H29512   4.724  10.266   5.252  1.0842  1.6008 -2.3218
  219MOL0     H29513   4.858  10.302   5.366 -2.2935 -0.1018  0.7352
  219MOL0     H29514   4.878  10.044   5.403  1.0885  2.5818  1.6716
  219MOL0     H29515   4.732  10.129   5.462 -1.4617  0.7483 -0.8982
  219MOL0     H29516   4.845   9.881   5.196 -0.7334 -4.1918  2.5364
  219MOL0     H29517   4.508   9.743   5.038 -2.0737  1.1295  0.9182
  219MOL0     H29518   4.638   9.821   4.940 -0.1592  2.1094  0.7101
  219MOL0     H29519   4.810   9.693   5.069 -0.8583  1.8335 -1.1912
  219MOL0     H29520   4.681   9.621   5.169 -0.6774 -0.3394  0.0668
  219MOL0     H29521   4.656   9.573   4.870  0.3993 -0.5666 -0.8425
  219MOL0     H29522   4.579   9.513   5.006 -2.4772  4.9961 -1.3273
  219MOL0     H29523   4.777   9.349   4.943 -0.6608  1.3113 -2.0298
  219MOL0     H29524   4.807   9.433   5.101  1.7378 -0.3011  0.0756
  219MOL0     H29525   4.946   9.214   4.841  0.4109  2.9828 -1.6573
  219MOL0     H29526   5.096   9.057   4.939  0.1718  0.7721 -4.1410
  219MOL0     H29527   5.208   8.794   5.091  0.5852  0.9184 -1.0193
  219MOL0     H29528   5.304   8.568   5.107  2.7669 -2.6805 -1.2355
  219MOL0     H29529   5.658   8.551   4.904  0.7485  0.6798 -0.1467
  219MOL0     H29530   5.724   8.416   4.974  0.4044  1.6019  1.2493
  219MOL0     H29531   5.471   8.316   4.939  1.6784 -0.8379  0.0650
  219MOL0     H29532   5.457   8.445   4.828 -1.6825  0.5716  3.4450
  219MOL0     H29533   5.521   8.270   4.691  0.5727 -4.4353  0.3175
  219MOL0     H29534   5.680   8.344   4.728  1.8273  0.1729  2.8251
  219MOL0     H29535   5.576   8.121   4.907 -0.7998  1.0304 -0.0756
  219MOL0     H29536   5.744   8.149   4.866  1.7398  0.7831 -2.7731
  219MOL0     H29537   5.727   8.065   4.649  0.5969 -0.5498  0.7272
  219MOL0     H29538   5.556   8.078   4.645  0.6477  0.6900  0.1419
  219MOL0     H29539   5.723   7.886   4.808  0.3575 -0.0256 -0.1279
  219MOL0     H29540   5.553   7.903   4.839  2.2009  2.9131  1.1309
  219MOL0     H29541   5.659   7.709   4.671  0.6289  0.1394  0.9615
  219MOL0     H29542   5.633   7.842   4.551  2.2282 -0.2722  1.8653
  219MOL0     H29543   5.433   7.714   4.533  0.0057  1.0802  0.4946
  219MOL0     H29544   5.417   7.705   4.710 -2.2641 -1.1779 -1.6875
  219MOL0     H29545   5.692   8.729   5.026 -0.3684 -1.8076 -1.5328
  219MOL0     H29546   5.594   8.952   4.977 -0.1711 -0.7495 -1.1604
  219MOL0     H29547   5.302   9.379   5.150 -0.7283  0.4981  0.7096
  219MOL0     H29548   5.123   9.525   5.083 -3.1282  0.8294 -1.2884
  219MOL0     H29549   5.515  10.586   5.018 -1.1679  1.8853 -2.0692
  219MOL0     H29550   5.635  10.790   4.930 -1.8939 -0.0769 -1.1452
  219MOL0     H29551   5.723  11.052   4.712 -0.7953  1.0821 -1.0070
  219MOL0     H29552   5.801  11.286   4.692 -0.2606  0.0494 -0.4392
  219MOL0     H29553   6.014  11.378   4.304 -0.6956  0.7115 -0.6860
  219MOL0     H29554   6.126  11.426   4.436 -0.2667 -0.7624  0.0314
  219MOL0     H29555   6.088  11.608   4.295 -0.0384 -1.7616 -0.4947
  219MOL0     H29556   6.034  11.646   4.452  3.0504  0.1076 -1.4073
  219MOL0     H29557   5.814  11.525   4.291  0.6927 -1.1878  0.3768
  219MOL0     H29558   5.884  11.670   4.217 -2.7379 -0.8649 -0.6158
  219MOL0     H29559   5.835  11.802   4.432  0.7605  0.0077  0.7767
  219MOL0     H29560   5.684  11.727   4.352 -1.4435 -0.4264  4.5471
  219MOL0     H29561   5.657  11.581   4.721  1.9419 -1.7219 -0.3544
  219MOL0     H29562   6.064  11.177   4.385 -0.9334  0.1986 -0.1904
  219MOL0     H29563   6.098  10.994   4.320  0.7095 -1.0325 -1.0256
  219MOL0     H29564   6.161  10.910   4.468 -0.4374  0.6158  1.5451
  219MOL0     H29565   6.015  10.850   4.372  0.1457  1.2162 -1.8461
  220MOL0     O29566   9.559   1.623   0.905 -0.2918  0.0482  0.3341
  220MOL0     C29567   9.492   1.671   0.820 -0.1736  0.1147  0.6556
  220MOL0     O29568   9.531   1.696   0.692  0.6785 -0.2481  0.0445
  220MOL0     C29569   9.662   1.700   0.635 -0.3743  0.4520 -0.2279
  220MOL0     C29570   9.786   1.705   0.718  0.0775  0.5600  0.7869
  220MOL0     C29571   9.910   1.701   0.651  0.6466 -0.6379 -0.0625
  220MOL0     C29572   9.916   1.690   0.508 -0.2368  0.1938  0.2097
  220MOL0     O29573  10.033   1.697   0.434  0.3284  0.5069  0.7076
  220MOL0     C29574  10.148   1.749   0.483 -0.2746  0.5805 -1.4165
  220MOL0     C29575  10.241   1.761   0.366  1.4391  0.1180 -0.2518
  220MOL0     C29576  10.360   1.656   0.355  0.1932  0.1442 -0.0177
  220MOL0     C29577  10.401   1.630   0.212 -0.3667  1.0985 -0.0941
  220MOL0     C29578  10.421   1.763   0.122  0.4044  0.6196 -0.5382
  220MOL0     C29579  10.467   1.739  -0.022 -0.3882  0.3173 -0.4031
  220MOL0     C29580  10.479   1.883  -0.097 -0.4988  0.4228  0.9352
  220MOL0     C29581  10.519   1.859  -0.236  0.3028 -0.4021 -0.3224
  220MOL0     N29582  10.514   1.976  -0.317  0.2485  0.8850  0.4859
  220MOL0     C29583  10.598   2.015  -0.420 -0.4951  0.0653  0.5821
  220MOL0     C29584  10.552   2.137  -0.458  0.4083  0.2597 -0.8457
  220MOL0     C29585  10.643   2.227  -0.547 -0.7087 -0.8131 -0.5896
  220MOL0     C29586  10.694   2.348  -0.464  0.6921 -1.3901  1.1078
  220MOL0     C29587  10.774   2.304  -0.342 -0.1893 -0.4422 -0.5753
  220MOL0     C29588  10.875   2.406  -0.281  0.5644 -0.4227  0.2082
  220MOL0     O29589  10.959   2.346  -0.180  1.1048  0.1772 -0.1438
  220MOL0     C29590  10.898   2.329  -0.058 -0.7446 -0.3042  0.0193
  220MOL0     C29591  10.878   2.202  -0.004 -0.2396  0.1810  0.2396
  220MOL0     C29592  10.818   2.181   0.117 -0.6862 -0.4999  0.1097
  220MOL0     C29593  10.767   2.293   0.191  0.0674 -1.0684 -0.2445
  220MOL0     C29594  10.699   2.268   0.322  0.8288  0.3012  0.0374
  220MOL0     O29595  10.667   2.136   0.353  0.9571 -0.5386 -0.8224
  220MOL0     C29596  10.602   2.107   0.470 -0.1989 -0.4041  0.6001
  220MOL0     C29597  10.624   1.972   0.501 -1.1328 -0.2808  0.0596
  220MOL0     C29598  10.569   1.916   0.614  0.9450 -0.1219  0.4407
  220MOL0     C29599  10.481   1.997   0.702  0.3520 -0.4074 -0.8074
  220MOL0     O29600  10.427   1.932   0.806  0.2066  0.2779 -0.7493
  220MOL0     C29601  10.407   2.010   0.927 -0.1316 -0.2008  0.9736
  220MOL0     C29602  10.426   1.937   1.056 -0.1079  0.0562  0.2879
  220MOL0     C29603  10.557   1.939   1.140 -0.0782  0.3752  0.0603
  220MOL0     C29604  10.526   1.853   1.265 -0.0708  0.4946 -0.1625
  220MOL0     C29605  10.648   1.805   1.349 -0.0331 -0.0357 -0.4168
  220MOL0     C29606  10.737   1.911   1.400  0.2461  0.5754 -0.0995
  220MOL0     C29607  10.842   1.848   1.494  0.4174 -0.4122  0.3976
  220MOL0     C29608  10.965   1.941   1.522  0.0932  0.3409  1.4524
  220MOL0    Cl29609  11.069   1.941   1.384 -0.0825  0.2920 -0.7675
  220MOL0     C29610  10.454   2.131   0.665  0.2095  0.4125  0.7851
  220MOL0     C29611  10.515   2.180   0.556 -0.0210 -0.2442 -0.9100
  220MOL0     O29612  10.683   2.369   0.392  0.8383 -0.2123 -0.2065
  220MOL0     C29613  10.803   2.426   0.140 -0.1211  0.6250  0.5201
  220MOL0     C29614  10.864   2.440   0.017 -0.2585  0.5502  0.0893
  220MOL0     N29615  10.441   2.174  -0.394 -0.5679 -0.1605 -0.5345
  220MOL0     N29616  10.418   2.076  -0.315 -0.4875 -0.4205  0.1623
  220MOL0     C29617   9.796   1.693   0.427 -0.8356 -0.8199  0.2839
  220MOL0     C29618   9.670   1.699   0.497 -0.8593  0.2409 -0.5124
  220MOL0     C29619   9.352   1.717   0.854  0.4354  0.1361  0.9868
  220MOL0     C29620   9.315   1.726   0.986 -0.0436 -0.0491 -0.6612
  220MOL0     C29621   9.183   1.746   1.022  0.0511  0.4937  0.1332
  220MOL0     C29622   9.085   1.786   0.930  0.7636 -0.0677 -0.7685
  220MOL0     O29623   8.959   1.832   0.958  0.6446 -0.2634 -0.4214
  220MOL0     C29624   8.904   1.818   1.091  0.5317  0.5031 -0.3342
  220MOL0     C29625   8.913   1.953   1.167 -0.4218  0.5505  0.3684
  220MOL0     C29626   8.857   1.948   1.309 -0.4550  0.2457  0.8093
  220MOL0     C29627   8.703   1.967   1.308 -0.3992 -0.0207 -0.1059
  220MOL0     C29628   8.665   2.002   1.438 -0.6405 -0.1300  0.0276
  220MOL0     C29629   8.648   2.029   1.558 -0.0017 -0.0191  0.4263
  220MOL0     C29630   9.119   1.789   0.801  0.5441 -0.4406  0.2720
  220MOL0     C29631   9.247   1.744   0.758  0.6374  1.1254 -0.5513
  220MOL0     C29632   9.258   1.736   0.606 -0.6647  0.7237  0.1533
  220MOL0     H29633   9.771   1.717   0.824 -4.0265  0.6481  0.3739
  220MOL0     H29634  10.000   1.696   0.712  1.1346  1.9887 -0.4336
  220MOL0     H29635  10.126   1.847   0.527  0.5479  0.9752 -1.8482
  220MOL0     H29636  10.190   1.684   0.560 -0.5063 -1.5912 -3.0249
  220MOL0     H29637  10.272   1.866   0.366  3.6338 -0.4439  1.8487
  220MOL0     H29638  10.182   1.730   0.279 -1.3068 -3.2548  2.5110
  220MOL0     H29639  10.327   1.559   0.395  0.8534  0.4599  1.3581
  220MOL0     H29640  10.442   1.696   0.416  1.4897 -1.9354 -0.2939
  220MOL0     H29641  10.499   1.582   0.222 -0.1993  1.4461 -0.0254
  220MOL0     H29642  10.335   1.562   0.158 -0.7199  0.5408  1.0090
  220MOL0     H29643  10.320   1.805   0.113 -0.8169 -1.7295  0.9362
  220MOL0     H29644  10.487   1.826   0.181  1.8608  0.4049 -1.8650
  220MOL0     H29645  10.568   1.699  -0.009 -0.3807  0.9333  1.8482
  220MOL0     H29646  10.404   1.670  -0.078 -0.6200  1.1079 -1.1430
  220MOL0     H29647  10.543   1.955  -0.045 -1.5730  1.5661  0.7276
  220MOL0     H29648  10.380   1.928  -0.108  0.4777  2.1437 -1.4849
  220MOL0     H29649  10.619   1.814  -0.234  0.7035  0.4678 -0.0015
  220MOL0     H29650  10.442   1.793  -0.274 -0.4279  0.4115 -0.2954
  220MOL0     H29651  10.692   1.962  -0.434  0.1670  1.3552 -0.0441
  220MOL0     H29652  10.731   2.170  -0.580  0.4777 -0.2826  1.4810
  220MOL0     H29653  10.590   2.260  -0.637  1.6093 -0.8747 -2.0556
  220MOL0     H29654  10.773   2.389  -0.528 -0.1452 -0.7860  0.4409
  220MOL0     H29655  10.617   2.426  -0.459  0.0995 -1.2528 -4.4783
  220MOL0     H29656  10.840   2.220  -0.364  0.5000 -0.0666 -0.0149
  220MOL0     H29657  10.697   2.282  -0.267 -0.5832  1.3964 -0.3767
  220MOL0     H29658  10.834   2.498  -0.238  0.2978 -1.2734  1.8600
  220MOL0     H29659  10.944   2.438  -0.359  0.1839  2.0124  0.7774
  220MOL0     H29660  10.925   2.124  -0.063 -1.9140 -2.5654  2.3158
  220MOL0     H29661  10.804   2.081   0.157 -2.2547 -0.3223  0.0907
  220MOL0     H29662  10.694   1.926   0.431 -0.8735 -1.0927  0.8364
  220MOL0     H29663  10.592   1.813   0.636  2.2921 -0.3435 -1.6926
  220MOL0     H29664  10.463   2.104   0.926 -2.9697  1.6134 -0.2016
  220MOL0     H29665  10.303   2.038   0.909 -0.6220 -3.4130 -2.2985
  220MOL0     H29666  10.351   1.973   1.128 -2.2891  1.1264 -2.3473
  220MOL0     H29667  10.388   1.836   1.037  0.0811 -0.4467  2.3542
  220MOL0     H29668  10.639   1.893   1.083  1.1104  2.5200 -0.0376
  220MOL0     H29669  10.586   2.037   1.179  0.4269  0.4733 -0.5430
  220MOL0     H29670  10.475   1.761   1.235 -1.5947  0.6073  1.8669
  220MOL0     H29671  10.450   1.900   1.329 -0.1058 -0.2330  0.3457
  220MOL0     H29672  10.712   1.739   1.291  2.7134  2.0353  0.0523
  220MOL0     H29673  10.605   1.737   1.422 -0.9706  1.6335  0.6667
  220MOL0     H29674  10.779   1.959   1.311 -0.9933 -2.1857 -2.3386
  220MOL0     H29675  10.684   1.993   1.450  1.9969  2.5749 -1.3133
  220MOL0     H29676  10.868   1.755   1.443 -1.6680 -1.0275  0.3826
  220MOL0     H29677  10.810   1.825   1.596 -0.1542  2.7302  1.0374
  220MOL0     H29678  10.937   2.046   1.533 -2.2391 -0.1114  0.4294
  220MOL0     H29679  11.027   1.898   1.601 -2.3484 -3.2183  1.6533
  220MOL0     H29680  10.392   2.195   0.727 -0.6008 -0.5483  0.9889
  220MOL0     H29681  10.501   2.282   0.524 -2.6475  0.1783  1.2336
  220MOL0     H29682  10.764   2.516   0.188 -4.6135 -0.4183 -0.7127
  220MOL0     H29683  10.897   2.535  -0.024  0.3570 -0.4415 -1.8559
  220MOL0     H29684   9.806   1.688   0.319  1.4155  1.4687  0.2935
  220MOL0     H29685   9.581   1.692   0.434  1.4361 -1.7630 -3.8366
  220MOL0     H29686   9.389   1.695   1.058  0.7628  1.2340 -0.8921
  220MOL0     H29687   9.164   1.749   1.129 -0.2686  0.9155  0.0648
  220MOL0     H29688   8.951   1.735   1.145 -2.9278 -4.1851 -3.6506
  220MOL0     H29689   8.801   1.782   1.085 -0.4298  2.8544  0.7045
  220MOL0     H29690   8.866   2.038   1.117  0.7117  3.0248  3.1780
  220MOL0     H29691   9.018   1.978   1.186 -1.4219  3.4492  3.0455
  220MOL0     H29692   8.909   2.022   1.371  2.0221  0.0807 -0.9372
  220MOL0     H29693   8.880   1.849   1.349 -1.0436 -1.0079 -1.7581
  220MOL0     H29694   8.673   2.040   1.232  0.5231  0.4672 -0.0188
  220MOL0     H29695   8.644   1.876   1.297  3.5252 -3.2190  2.4771
  220MOL0     H29696   8.624   2.057   1.659  0.8957 -1.9531  1.2373
  220MOL0     H29697   9.048   1.836   0.734  1.2646  1.7255  0.9256
  220MOL0     H29698   9.308   1.645   0.573  3.0039  2.1340  1.3861
  220MOL0     H29699   9.162   1.750   0.555 -1.0184 -2.5938 -0.2730
  220MOL0     H29700   9.314   1.825   0.577 -4.4497  3.3090 -0.0283
  221MOL0     O29701   0.605   3.128   8.614 -0.3137 -0.2482  0.6167
  221MOL0     C29702   0.622   3.248   8.636 -1.6710 -1.0239 -0.7401
  221MOL0     O29703   0.744   3.310   8.617  0.8838 -0.5981  0.1377
  221MOL0     C29704   0.839   3.242   8.542  0.7211  0.1960  0.0461
  221MOL0     C29705   0.962   3.252   8.594 -0.6339 -0.1055 -0.1916
  221MOL0     C29706   1.071   3.196   8.516 -0.1119 -1.0394 -0.4961
  221MOL0     C29707   1.052   3.147   8.385 -0.6858 -1.0912 -1.7195
  221MOL0     O29708   1.154   3.092   8.304  0.4309  1.0346 -0.4757
  221MOL0     C29709   1.174   3.158   8.182 -0.2680  0.4095 -0.6111
  221MOL0     C29710   1.251   3.072   8.086 -0.3121  0.7222  0.0292
  221MOL0     C29711   1.374   3.025   8.138 -0.8154 -0.5323  0.0941
  221MOL0     C29712   1.453   2.951   8.024  0.1413  0.1851 -0.1377
  221MOL0     C29713   1.590   2.926   8.070 -0.0895 -0.2936 -0.3174
  221MOL0     C29714   1.673   2.850   7.967  0.3328 -0.7211  0.0290
  221MOL0     C29715   1.821   2.853   8.008  0.1038 -0.2119  0.1258
  221MOL0     C29716   1.867   2.748   8.104  0.1232 -0.1929  0.1082
  221MOL0     N29717   2.001   2.781   8.167 -0.5877  0.1291 -0.2319
  221MOL0     C29718   2.056   2.754   8.291  0.4164  1.1131 -0.4021
  221MOL0     C29719   2.183   2.798   8.291 -0.1252  0.5866  0.0344
  221MOL0     C29720   2.279   2.793   8.404  0.8380 -0.8791  0.0185
  221MOL0     C29721   2.255   2.911   8.508  0.1281 -0.7654 -0.3274
  221MOL0     C29722   2.358   2.919   8.622 -1.3343 -0.1068 -0.3578
  221MOL0     C29723   2.496   2.993   8.591  0.5054  1.1327 -0.0055
  221MOL0     O29724   2.469   3.129   8.630 -0.7853  0.0427 -0.2561
  221MOL0     C29725   2.581   3.197   8.661  0.0063  0.0294 -0.0455
  221MOL0     C29726   2.600   3.261   8.790 -1.3034 -0.3274  0.5084
  221MOL0     C29727   2.715   3.336   8.808  0.3374  0.7792  0.2854
  221MOL0     C29728   2.797   3.365   8.699 -1.0234 -0.0983 -0.4362
  221MOL0     C29729   2.925   3.449   8.712  0.0315 -0.5926 -0.1694
  221MOL0     O29730   2.973   3.518   8.602  0.0700  0.0549 -0.5245
  221MOL0     C29731   3.056   3.625   8.602 -1.3188  0.2673  0.1854
  221MOL0     C29732   3.128   3.653   8.478  0.7661 -0.1850  0.7326
  221MOL0     C29733   3.204   3.774   8.483 -0.0511  0.3889  0.0455
  221MOL0     C29734   3.214   3.857   8.593 -0.6698 -0.6224 -0.1315
  221MOL0     O29735   3.294   3.978   8.587  0.4454 -0.2401  0.5476
  221MOL0     C29736   3.400   3.998   8.483 -0.3200 -0.6994  0.1284
  221MOL0     C29737   3.464   4.134   8.511  0.9092 -0.3564 -0.6951
  221MOL0     C29738   3.457   4.180   8.659 -0.9881 -0.5074  0.6259
  221MOL0     C29739   3.513   4.325   8.664  0.6636 -0.5916  0.3098
  221MOL0     C29740   3.526   4.387   8.802 -0.0442 -0.2726  0.3583
  221MOL0     C29741   3.592   4.522   8.799  0.3016  0.2264 -0.1624
  221MOL0     C29742   3.744   4.527   8.831 -0.6234 -0.4409  0.0827
  221MOL0     C29743   3.811   4.626   8.742 -0.5788 -0.3066  0.2169
  221MOL0    Cl29744   3.740   4.785   8.794 -0.3954  0.5314  0.2288
  221MOL0     C29745   3.147   3.819   8.709  0.0030  0.8076 -0.4504
  221MOL0     C29746   3.067   3.707   8.718  0.0597 -0.7164  0.2523
  221MOL0     O29747   2.968   3.460   8.827 -0.0010 -0.4829  0.2191
  221MOL0     C29748   2.783   3.298   8.575 -0.1269 -0.0053 -1.0807
  221MOL0     C29749   2.671   3.216   8.560 -0.5819  0.0035 -0.0217
  221MOL0     N29750   2.214   2.832   8.165 -0.0484 -0.0690  0.8634
  221MOL0     N29751   2.105   2.824   8.089 -0.0815 -0.2081 -0.5863
  221MOL0     C29752   0.926   3.149   8.331 -0.5535 -0.1474  0.2117
  221MOL0     C29753   0.816   3.205   8.409  0.2677 -0.6846  0.3223
  221MOL0     C29754   0.516   3.329   8.711  0.0244  0.1100  0.6197
  221MOL0     C29755   0.547   3.460   8.722  0.2178 -0.2628  0.4550
  221MOL0     C29756   0.466   3.545   8.803 -0.0462  0.1664  0.3456
  221MOL0     C29757   0.353   3.499   8.853  0.8296  0.1075 -0.2233
  221MOL0     O29758   0.258   3.577   8.921 -0.7387 -0.1214 -0.3553
  221MOL0     C29759   0.260   3.724   8.918 -0.1068  0.0446  1.5868
  221MOL0     C29760   0.216   3.789   8.788 -0.3279 -0.3774 -0.7767
  221MOL0     C29761   0.090   3.727   8.727 -0.0839 -0.1206  0.2654
  221MOL0     C29762   0.052   3.812   8.611  0.2743 -0.0030  0.4364
  221MOL0     C29763  -0.057   3.749   8.530  0.4814  0.7494  1.1730
  221MOL0     C29764  -0.148   3.697   8.459  0.3980  0.2732 -0.6425
  221MOL0     C29765   0.317   3.366   8.831  0.7093 -1.0394  0.0334
  221MOL0     C29766   0.401   3.275   8.768  0.0328  0.4468 -0.6544
  221MOL0     C29767   0.368   3.132   8.764 -0.0864  0.1376  0.1524
  221MOL0     H29768   0.979   3.287   8.696  2.2212 -1.2833 -0.1767
  221MOL0     H29769   1.169   3.194   8.562 -0.5299  1.3012  0.6159
  221MOL0     H29770   1.084   3.196   8.132 -0.8964 -0.0817  0.1195
  221MOL0     H29771   1.239   3.241   8.211  0.0346 -0.0295 -0.0213
  221MOL0     H29772   1.283   3.123   7.995  1.8253  0.0732  0.3480
  221MOL0     H29773   1.200   2.979   8.058  2.2474 -0.3535 -1.4769
  221MOL0     H29774   1.358   2.973   8.233 -0.3266  2.0622  1.7218
  221MOL0     H29775   1.442   3.111   8.151 -1.0304 -0.2546 -0.5963
  221MOL0     H29776   1.404   2.854   8.010 -0.9132  0.5521  0.8670
  221MOL0     H29777   1.442   3.009   7.932  0.0542  1.7563  0.8314
  221MOL0     H29778   1.634   3.022   8.101  3.9901 -1.4445 -1.9191
  221MOL0     H29779   1.566   2.870   8.161  1.3571  1.2003  1.0583
  221MOL0     H29780   1.639   2.748   7.947  0.2313 -0.4364 -1.3417
  221MOL0     H29781   1.661   2.906   7.874 -2.0706  0.1769  0.7802
  221MOL0     H29782   1.845   2.949   8.054 -2.2182 -0.1858  1.4154
  221MOL0     H29783   1.889   2.848   7.922  1.7878  2.4236  1.1782
  221MOL0     H29784   1.790   2.735   8.181 -0.5369 -1.6079 -0.7579
  221MOL0     H29785   1.878   2.653   8.051  1.0796 -0.3493  0.5665
  221MOL0     H29786   2.008   2.715   8.380  2.6633 -1.8967 -0.3655
  221MOL0     H29787   2.269   2.697   8.456 -2.2940 -1.5113 -1.4844
  221MOL0     H29788   2.377   2.798   8.356  0.1657 -4.8930 -2.2224
  221MOL0     H29789   2.274   3.004   8.454  1.9148 -1.4802 -1.0059
  221MOL0     H29790   2.157   2.906   8.557  0.2408 -1.9430 -0.1946
  221MOL0     H29791   2.375   2.814   8.645  2.8596  0.2261 -1.0928
  221MOL0     H29792   2.314   2.948   8.717 -0.3936 -4.0160  1.4455
  221MOL0     H29793   2.510   2.982   8.483  1.4559 -0.9930  0.2840
  221MOL0     H29794   2.575   2.944   8.649 -1.0884 -0.4424  0.9503
  221MOL0     H29795   2.537   3.250   8.878  0.7009 -4.6809  1.6648
  221MOL0     H29796   2.748   3.359   8.909 -1.6024  4.2974  0.2665
  221MOL0     H29797   3.135   3.606   8.380  1.1151  0.7486  0.3032
  221MOL0     H29798   3.256   3.811   8.395 -1.1228 -1.2325 -1.3308
  221MOL0     H29799   3.467   3.911   8.479  0.3537 -0.1458 -2.4951
  221MOL0     H29800   3.363   4.001   8.381  0.5701 -0.0365 -0.1853
  221MOL0     H29801   3.568   4.131   8.477  1.8501  2.0362  1.6301
  221MOL0     H29802   3.411   4.207   8.450 -1.1157 -1.0964  0.0795
  221MOL0     H29803   3.359   4.180   8.707 -0.0727 -0.3809  2.6210
  221MOL0     H29804   3.512   4.118   8.731 -1.9403 -1.8211  0.2595
  221MOL0     H29805   3.443   4.384   8.605 -2.3793 -3.4092  0.8411
  221MOL0     H29806   3.612   4.340   8.619  0.9745  2.2308  1.7646
  221MOL0     H29807   3.593   4.329   8.866  0.8434 -2.3199 -2.2532
  221MOL0     H29808   3.424   4.388   8.843 -0.4708  0.3185 -0.6694
  221MOL0     H29809   3.555   4.572   8.710 -1.2933 -1.4458 -0.5217
  221MOL0     H29810   3.543   4.572   8.883 -0.6146 -1.9892  0.7199
  221MOL0     H29811   3.800   4.434   8.842  0.3102  0.1529  0.3954
  221MOL0     H29812   3.755   4.570   8.930  1.1991  0.7638 -0.5875
  221MOL0     H29813   3.919   4.620   8.762 -0.6718 -0.4168  0.7211
  221MOL0     H29814   3.797   4.603   8.636 -3.9425 -0.3933  0.5967
  221MOL0     H29815   3.147   3.883   8.797 -1.0262  1.0669 -0.6210
  221MOL0     H29816   3.018   3.689   8.813  0.8999 -0.1775  0.7955
  221MOL0     H29817   2.858   3.320   8.500  3.3624  0.7534  2.3016
  221MOL0     H29818   2.667   3.158   8.468  0.1314 -0.1549  0.0349
  221MOL0     H29819   0.898   3.119   8.230 -1.8630  1.7874 -0.0491
  221MOL0     H29820   0.713   3.212   8.377  0.4460 -0.0194 -0.1408
  221MOL0     H29821   0.629   3.511   8.673  1.1156 -1.7186  0.3772
  221MOL0     H29822   0.496   3.650   8.802  2.2554 -0.4009 -2.2201
  221MOL0     H29823   0.361   3.763   8.934  0.6197 -2.3406  3.6585
  221MOL0     H29824   0.195   3.770   8.993 -2.3140  5.7941 -3.0631
  221MOL0     H29825   0.295   3.770   8.714 -0.2867  2.0003 -1.4277
  221MOL0     H29826   0.206   3.896   8.805  0.8959 -0.8342  4.2076
  221MOL0     H29827   0.011   3.737   8.802  1.4988  3.4398  1.6833
  221MOL0     H29828   0.121   3.632   8.683  0.9960  0.5845 -0.5562
  221MOL0     H29829  -0.007   3.899   8.644 -0.8779 -1.8222  3.6430
  221MOL0     H29830   0.139   3.839   8.552  0.6995 -0.5047  0.8230
  221MOL0     H29831  -0.225   3.648   8.403  0.3037  1.5608 -1.7064
  221MOL0     H29832   0.215   3.337   8.856  0.0251 -0.7168 -2.1101
  221MOL0     H29833   0.282   3.114   8.829  0.7120 -0.6026  1.0362
  221MOL0     H29834   0.349   3.101   8.661  0.5415 -1.2986  0.4434
  221MOL0     H29835   0.448   3.078   8.814  1.0000  2.9696  1.7233
  222MOL0     O29836   4.958   4.135   0.349  0.4677 -0.0534 -0.7061
  222MOL0     C29837   4.939   4.259   0.323  0.2222  0.3499  0.0902
  222MOL0     O29838   5.031   4.346   0.266  0.4252 -0.3082 -0.5485
  222MOL0     C29839   5.164   4.313   0.266  0.3203  0.2859 -0.0485
  222MOL0     C29840   5.251   4.336   0.158  0.3359 -0.4960 -0.0634
  222MOL0     C29841   5.387   4.323   0.161 -0.1438  0.3882  0.5699
  222MOL0     C29842   5.455   4.278   0.271 -0.0172 -0.5966 -1.0721
  222MOL0     O29843   5.592   4.252   0.283  0.3753  1.5055  0.4958
  222MOL0     C29844   5.672   4.215   0.168  0.0111 -0.0321  0.0328
  222MOL0     C29845   5.794   4.151   0.227  0.1703 -0.6842  0.2513
  222MOL0     C29846   5.757   4.031   0.319 -0.6868  0.2980  0.1745
  222MOL0     C29847   5.869   3.948   0.371 -0.2102 -0.3667  0.2829
  222MOL0     C29848   5.819   3.846   0.473  0.3189  0.5106  0.7289
  222MOL0     C29849   5.918   3.738   0.516 -0.2613  0.6848 -0.4630
  222MOL0     C29850   6.036   3.794   0.592 -0.9761  0.4377  0.8402
  222MOL0     C29851   6.141   3.845   0.500 -1.3419  0.3664  0.9824
  222MOL0     N29852   6.273   3.816   0.549  0.3401 -0.0545 -0.1933
  222MOL0     C29853   6.335   3.693   0.546  0.3930  0.3166 -0.6500
  222MOL0     C29854   6.443   3.701   0.622 -0.2928  0.0516 -0.3126
  222MOL0     C29855   6.545   3.597   0.652 -0.4277 -0.1200  0.5124
  222MOL0     C29856   6.680   3.633   0.590 -0.4708 -0.1672  0.3422
  222MOL0     C29857   6.677   3.663   0.438  0.1115 -0.3166  1.0527
  222MOL0     C29858   6.727   3.805   0.407 -0.0685 -0.2893 -0.4992
  222MOL0     O29859   6.709   3.824   0.270 -0.5142 -0.0333  0.5684
  222MOL0     C29860   6.587   3.867   0.219  0.6197 -0.9073 -0.0249
  222MOL0     C29861   6.471   3.922   0.286  0.1424  1.1845  0.0166
  222MOL0     C29862   6.363   3.967   0.213 -0.7975 -0.0149 -0.3705
  222MOL0     C29863   6.354   3.957   0.076  0.4272  0.6580  0.2688
  222MOL0     C29864   6.239   4.008  -0.001  0.2394  0.3973 -0.5590
  222MOL0     O29865   6.243   4.016  -0.140  0.3291  0.5370 -0.3340
  222MOL0     C29866   6.176   4.108  -0.203  0.9153  1.9411  0.4053
  222MOL0     C29867   6.101   4.079  -0.321 -0.6551  0.2336  0.1481
  222MOL0     C29868   6.038   4.186  -0.390  0.4807 -0.6158  0.1943
  222MOL0     C29869   6.061   4.323  -0.346 -0.6218  0.5275 -0.7077
  222MOL0     O29870   6.031   4.432  -0.424  0.4433 -0.1794 -0.3696
  222MOL0     C29871   5.932   4.421  -0.512  0.2311  0.2948 -0.2404
  222MOL0     C29872   5.901   4.557  -0.575 -0.8357 -0.1881  0.1745
  222MOL0     C29873   6.008   4.594  -0.685 -0.4955 -0.4970  0.7104
  222MOL0     C29874   5.934   4.670  -0.795  0.5834 -0.5636 -0.5804
  222MOL0     C29875   5.879   4.572  -0.891 -0.1745  0.1562  0.6304
  222MOL0     C29876   5.775   4.635  -0.984 -0.2014  0.2113  0.2838
  222MOL0     C29877   5.685   4.531  -1.051 -0.5555 -0.0496 -0.6762
  222MOL0     C29878   5.690   4.550  -1.201  1.1571 -0.2051  0.4583
  222MOL0    Cl29879   5.586   4.430  -1.281  0.0297 -0.0718  0.2941
  222MOL0     C29880   6.119   4.337  -0.220 -0.3225 -0.0343  0.3661
  222MOL0     C29881   6.177   4.238  -0.156  0.1868  1.0010 -0.8334
  222MOL0     O29882   6.141   4.034   0.068  0.1284 -0.6723 -0.2373
  222MOL0     C29883   6.460   3.893   0.008 -0.3622 -0.2025 -0.2908
  222MOL0     C29884   6.582   3.867   0.081  0.5005  0.7108 -0.0147
  222MOL0     N29885   6.458   3.836   0.661  1.4416  0.8939 -0.1396
  222MOL0     N29886   6.341   3.898   0.631 -0.3565 -0.0834 -0.6235
  222MOL0     C29887   5.381   4.262   0.389  0.6661 -0.3214 -0.6771
  222MOL0     C29888   5.243   4.289   0.380  0.2505 -0.6688 -0.5191
  222MOL0     C29889   4.802   4.313   0.347  0.4277 -0.1170  0.3314
  222MOL0     C29890   4.769   4.444   0.309 -0.9536 -0.4057  0.9592
  222MOL0     C29891   4.647   4.508   0.332  0.0202 -0.5363 -0.0084
  222MOL0     C29892   4.537   4.441   0.390 -0.9562 -0.3896  0.9446
  222MOL0     O29893   4.410   4.487   0.399  0.4016 -0.5770 -0.5057
  222MOL0     C29894   4.383   4.628   0.428  0.9006 -0.1053 -0.4473
  222MOL0     C29895   4.235   4.639   0.388  0.0419 -0.1290  0.0272
  222MOL0     C29896   4.187   4.786   0.382  0.6709 -0.6939 -0.5367
  222MOL0     C29897   4.197   4.860   0.511  0.0163  0.0666 -0.0492
  222MOL0     C29898   4.138   4.785   0.620 -0.2461  0.8261 -0.1419
  222MOL0     C29899   4.084   4.728   0.711 -0.0255 -0.4972 -0.2685
  222MOL0     C29900   4.576   4.311   0.435  0.4480 -0.9081 -0.2384
  222MOL0     C29901   4.700   4.244   0.415  0.8451  0.3481  0.0690
  222MOL0     C29902   4.710   4.103   0.478 -0.4870 -0.4022  0.2393
  222MOL0     H29903   5.196   4.368   0.070  2.1922  2.6715 -0.2101
  222MOL0     H29904   5.434   4.322   0.063 -0.9287  0.1882  0.1876
  222MOL0     H29905   5.621   4.154   0.094  1.5026 -0.9462 -0.2870
  222MOL0     H29906   5.709   4.309   0.127  0.4750  0.2696  1.1006
  222MOL0     H29907   5.824   4.233   0.292  1.9953 -1.0435 -0.0930
  222MOL0     H29908   5.871   4.125   0.154 -1.1356 -1.4233 -0.9174
  222MOL0     H29909   5.696   3.964   0.257 -0.1053  4.1343 -5.1796
  222MOL0     H29910   5.712   4.067   0.412  0.9073 -0.8230  1.4297
  222MOL0     H29911   5.932   3.892   0.301 -1.0524  0.5853 -1.2903
  222MOL0     H29912   5.938   4.015   0.422  2.7655 -0.8606 -2.7458
  222MOL0     H29913   5.790   3.889   0.569 -0.6690  0.6151  0.3945
  222MOL0     H29914   5.729   3.801   0.431 -1.0186  3.6264 -0.0532
  222MOL0     H29915   5.862   3.685   0.594  2.3983 -2.0068 -0.1934
  222MOL0     H29916   5.953   3.665   0.443 -0.2605 -2.4329  2.4156
  222MOL0     H29917   6.077   3.705   0.640 -4.5253 -1.2572  1.0771
  222MOL0     H29918   6.018   3.862   0.676  1.2046 -0.2885  1.9616
  222MOL0     H29919   6.127   3.802   0.401 -1.5623 -0.4309  1.3569
  222MOL0     H29920   6.140   3.954   0.493  1.3573  0.3887 -0.6332
  222MOL0     H29921   6.300   3.612   0.483  1.9772  0.5684 -1.9278
  222MOL0     H29922   6.557   3.584   0.760  1.9043  2.7005  0.7081
  222MOL0     H29923   6.520   3.500   0.609  0.4959  0.9004 -2.5358
  222MOL0     H29924   6.727   3.725   0.627  0.6925  1.7973 -5.1283
  222MOL0     H29925   6.741   3.545   0.614 -0.1595  0.0155  0.2192
  222MOL0     H29926   6.577   3.649   0.396  0.9773 -0.2816 -1.1380
  222MOL0     H29927   6.745   3.591   0.392  0.3325  1.1199 -1.0001
  222MOL0     H29928   6.835   3.810   0.423 -0.0246  1.7625 -1.2067
  222MOL0     H29929   6.671   3.888   0.451  3.4210  2.4199 -0.6867
  222MOL0     H29930   6.467   3.921   0.394  1.2560 -0.4744  0.0638
  222MOL0     H29931   6.276   4.014   0.258  0.4028  3.7678 -1.6013
  222MOL0     H29932   6.091   3.975  -0.350 -1.1677  0.8805 -2.1240
  222MOL0     H29933   5.977   4.164  -0.477  1.7137 -0.0251 -0.8557
  222MOL0     H29934   5.968   4.348  -0.585  0.4437 -0.7906  0.9196
  222MOL0     H29935   5.841   4.378  -0.470 -0.4756  0.6249 -1.4020
  222MOL0     H29936   5.798   4.569  -0.609 -1.0791  0.4570  1.0997
  222MOL0     H29937   5.890   4.631  -0.495 -3.4838  1.2434 -1.3616
  222MOL0     H29938   6.086   4.655  -0.638  1.4696  0.1992 -3.0787
  222MOL0     H29939   6.052   4.503  -0.727 -2.5310 -0.2528 -2.2524
  222MOL0     H29940   6.007   4.747  -0.823 -0.8768 -0.1317 -3.6377
  222MOL0     H29941   5.851   4.733  -0.762  0.0687  0.0312 -2.8292
  222MOL0     H29942   5.825   4.496  -0.834 -1.3597  2.4113  2.6885
  222MOL0     H29943   5.954   4.519  -0.950  0.5563 -1.0541  2.5391
  222MOL0     H29944   5.712   4.699  -0.923 -2.1530 -1.0711 -0.2982
  222MOL0     H29945   5.828   4.693  -1.060  0.4957 -1.3604 -0.4869
  222MOL0     H29946   5.581   4.524  -1.019 -0.8468  0.7755 -1.3987
  222MOL0     H29947   5.721   4.434  -1.017 -1.5775 -0.8908 -1.9088
  222MOL0     H29948   5.658   4.653  -1.215 -1.5368 -0.8890  1.0666
  222MOL0     H29949   5.791   4.545  -1.243  0.7993  0.3980 -0.4942
  222MOL0     H29950   6.126   4.440  -0.185  3.6488 -0.3606  1.0190
  222MOL0     H29951   6.230   4.253  -0.063  0.9615 -4.5888 -0.0148
  222MOL0     H29952   6.473   3.881  -0.099  2.9169  1.3636 -0.2130
  222MOL0     H29953   6.678   3.836   0.040  1.7714 -0.7005  3.6693
  222MOL0     H29954   5.421   4.238   0.487  1.5330  1.0279 -0.6829
  222MOL0     H29955   5.184   4.284   0.471  2.9849 -0.0558  1.3997
  222MOL0     H29956   4.849   4.492   0.253 -3.0517 -0.4742 -2.3172
  222MOL0     H29957   4.637   4.609   0.295 -2.5932 -1.1683 -1.2592
  222MOL0     H29958   4.441   4.691   0.361  3.2882 -1.2088  0.4640
  222MOL0     H29959   4.404   4.644   0.534  0.8769 -1.1516 -0.2672
  222MOL0     H29960   4.171   4.589   0.461 -0.6196  1.7424  0.8135
  222MOL0     H29961   4.213   4.600   0.289  1.5093  2.0460 -1.2428
  222MOL0     H29962   4.081   4.794   0.355  0.2652 -1.6559  0.7218
  222MOL0     H29963   4.250   4.831   0.305  2.2978  0.3790  1.3626
  222MOL0     H29964   4.303   4.884   0.527  0.2635  0.8742 -2.4328
  222MOL0     H29965   4.138   4.951   0.506 -0.7622 -0.3516  1.1646
  222MOL0     H29966   4.019   4.686   0.785 -0.3523 -0.5716 -0.5957
  222MOL0     H29967   4.500   4.255   0.490  0.7697 -0.0982  1.0742
  222MOL0     H29968   4.624   4.075   0.539 -1.2400 -0.4413 -0.7976
  222MOL0     H29969   4.718   4.026   0.401  2.0383  2.1959 -2.3779
  222MOL0     H29970   4.796   4.108   0.545 -2.8125  0.3553  3.3785
  223MOL0     O29971   2.111   2.059   7.141  0.2495  0.2806 -0.1475
  223MOL0     C29972   2.100   2.063   7.023 -0.1237 -0.9356  0.1925
  223MOL0     O29973   2.195   2.031   6.934  0.4964 -0.3584 -0.8409
  223MOL0     C29974   2.296   1.945   6.963  1.3125 -0.0986  1.0470
  223MOL0     C29975   2.302   1.863   7.077 -0.7429 -0.7229  0.4091
  223MOL0     C29976   2.412   1.773   7.085 -0.1198 -0.2704 -0.1103
  223MOL0     C29977   2.507   1.760   6.992 -0.2268 -0.3718  0.8072
  223MOL0     O29978   2.608   1.672   7.010 -0.6355  0.1156 -0.8042
  223MOL0     C29979   2.568   1.541   7.048 -0.2625 -1.4102  0.3217
  223MOL0     C29980   2.683   1.439   7.048  0.3389  1.1263  0.0756
  223MOL0     C29981   2.760   1.455   6.924  0.0765  0.5609  0.0971
  223MOL0     C29982   2.836   1.332   6.879 -0.1377 -0.3895 -1.0136
  223MOL0     C29983   2.898   1.338   6.738 -0.0909 -0.4559  0.4194
  223MOL0     C29984   2.980   1.214   6.714  0.5439  0.2553 -0.1286
  223MOL0     C29985   3.008   1.199   6.563 -0.1390  0.2999  0.0502
  223MOL0     C29986   3.134   1.289   6.525  0.5164 -0.0461  0.3971
  223MOL0     N29987   3.158   1.267   6.378  0.1230 -0.0713 -0.4169
  223MOL0     C29988   3.248   1.174   6.323  0.1237 -0.3440  1.2635
  223MOL0     C29989   3.229   1.180   6.189 -0.0068  0.2437 -0.2786
  223MOL0     C29990   3.305   1.102   6.085  0.7998 -0.3866 -0.2133
  223MOL0     C29991   3.246   0.952   6.069 -0.7400 -0.6081  0.5186
  223MOL0     C29992   3.290   0.870   6.193  0.7503 -0.7222 -0.2988
  223MOL0     C29993   3.238   0.733   6.174  0.2426  1.0114  0.0134
  223MOL0     O29994   3.092   0.728   6.163 -0.1895 -0.1431  0.2081
  223MOL0     C29995   3.036   0.607   6.189 -0.3570 -0.5121  0.5823
  223MOL0     C29996   2.903   0.608   6.166 -0.8692  0.3031 -0.8752
  223MOL0     C29997   2.829   0.500   6.187  0.3395 -0.0915  0.6258
  223MOL0     C29998   2.878   0.382   6.235  0.2370 -0.2963 -1.2104
  223MOL0     C29999   2.798   0.268   6.255 -0.4251  0.5420 -1.5300
  223MOL0     O30000   2.859   0.151   6.307  1.0618  0.1249  0.9158
  223MOL0     C30001   2.778   0.039   6.325 -1.0148  0.3301  0.6038
  223MOL0     C30002   2.801  -0.035   6.433 -0.4397  0.7358  0.1115
  223MOL0     C30003   2.726  -0.151   6.458 -0.0828 -0.0468  0.2718
  223MOL0     C30004   2.641  -0.205   6.357  0.7508  0.2821  0.5649
  223MOL0     O30005   2.577  -0.320   6.391  0.5801 -0.3201  0.2903
  223MOL0     C30006   2.507  -0.399   6.288 -0.7155 -0.1137 -0.1182
  223MOL0     C30007   2.430  -0.509   6.362  0.5487  0.3465  0.0091
  223MOL0     C30008   2.363  -0.605   6.269 -0.8256 -0.4095  0.2226
  223MOL0     C30009   2.239  -0.664   6.311  1.0490  0.8498 -0.5526
  223MOL0     C30010   2.254  -0.757   6.430  0.4847  0.4631  0.0732
  223MOL0     C30011   2.120  -0.799   6.505 -0.2430 -0.1298 -1.1719
  223MOL0     C30012   2.139  -0.890   6.631 -0.3815 -0.3161 -0.3325
  223MOL0     C30013   2.009  -0.944   6.697  0.0463  0.0972 -0.5985
  223MOL0    Cl30014   1.912  -1.029   6.579  0.4165 -0.0339  0.1391
  223MOL0     C30015   2.627  -0.132   6.236 -0.5923  0.5613  0.3786
  223MOL0     C30016   2.692  -0.013   6.222 -0.8058 -0.4763  0.1756
  223MOL0     O30017   2.676   0.294   6.255 -0.1132  0.2255  0.5768
  223MOL0     C30018   3.007   0.388   6.283 -0.4489 -1.0330  0.3053
  223MOL0     C30019   3.092   0.497   6.253 -0.0653  0.3356  0.1164
  223MOL0     N30020   3.124   1.267   6.165  0.4879 -0.3469  0.1139
  223MOL0     N30021   3.085   1.321   6.283 -0.7083 -0.4769  0.4827
  223MOL0     C30022   2.497   1.840   6.877  1.2505 -0.1070  0.3847
  223MOL0     C30023   2.390   1.930   6.862 -0.2035 -0.0469 -0.3266
  223MOL0     C30024   1.979   2.121   6.959  0.8875 -0.6829 -0.5357
  223MOL0     C30025   1.996   2.166   6.830  0.3945  0.6470  0.6224
  223MOL0     C30026   1.892   2.240   6.766 -0.2033  0.3371 -0.1903
  223MOL0     C30027   1.756   2.250   6.823 -1.5101 -1.6208 -0.0775
  223MOL0     O30028   1.652   2.328   6.763  0.1347  1.0699  0.7836
  223MOL0     C30029   1.640   2.341   6.622  0.9599  1.1635 -0.6432
  223MOL0     C30030   1.607   2.201   6.568  0.0531 -0.3948  0.3854
  223MOL0     C30031   1.485   2.141   6.640 -0.4052 -0.4042 -0.4867
  223MOL0     C30032   1.349   2.203   6.610 -0.4538  1.0729  0.1422
  223MOL0     C30033   1.241   2.114   6.669 -0.4409 -1.2332 -0.9207
  223MOL0     C30034   1.147   2.065   6.721  1.0799 -0.0563  0.1320
  223MOL0     C30035   1.750   2.208   6.949  0.0931  0.3048 -0.3053
  223MOL0     C30036   1.850   2.154   7.022 -0.0733 -0.7839 -0.0000
  223MOL0     C30037   1.835   2.122   7.168 -0.6363 -0.0242 -0.3035
  223MOL0     H30038   2.221   1.859   7.149 -0.6581  0.5848  0.6103
  223MOL0     H30039   2.443   1.727   7.178 -1.1884 -1.3306 -0.2512
  223MOL0     H30040   2.516   1.545   7.145 -0.6587  2.0668  0.1073
  223MOL0     H30041   2.499   1.501   6.973 -0.6738 -2.4770  1.2383
  223MOL0     H30042   2.652   1.335   7.061 -1.9110  1.5036 -1.4545
  223MOL0     H30043   2.745   1.465   7.134 -1.4771 -0.7838  2.0911
  223MOL0     H30044   2.815   1.550   6.931 -0.9257  1.0899  1.1606
  223MOL0     H30045   2.688   1.471   6.843  3.5622  0.4191 -3.3641
  223MOL0     H30046   2.918   1.315   6.950 -0.6922 -3.7696 -1.0099
  223MOL0     H30047   2.767   1.247   6.889 -0.3214 -0.4810 -2.7601
  223MOL0     H30048   2.818   1.352   6.665 -1.8985  3.0425  2.7358
  223MOL0     H30049   2.963   1.425   6.724  2.0458 -1.9828  0.4012
  223MOL0     H30050   3.066   1.222   6.781  0.3631 -2.1153  0.4591
  223MOL0     H30051   2.932   1.122   6.746 -0.0146  1.6415  3.4636
  223MOL0     H30052   2.917   1.228   6.510 -1.2337 -1.0559  1.1218
  223MOL0     H30053   3.040   1.095   6.550 -0.6851  0.1802 -0.3292
  223MOL0     H30054   3.131   1.396   6.545  2.5494 -0.1250  1.3581
  223MOL0     H30055   3.230   1.255   6.565  3.3037  0.6888 -4.7999
  223MOL0     H30056   3.325   1.104   6.354  1.2818 -0.4344 -1.5185
  223MOL0     H30057   3.285   1.162   5.996 -3.0736  2.1600  2.1285
  223MOL0     H30058   3.414   1.102   6.094  0.7502 -1.9135  0.9147
  223MOL0     H30059   3.138   0.962   6.058 -0.4870  2.1309 -0.1688
  223MOL0     H30060   3.290   0.913   5.977 -2.3950 -1.0321 -0.1275
  223MOL0     H30061   3.232   0.906   6.279  2.5938  0.8170  0.3923
  223MOL0     H30062   3.399   0.881   6.201  0.7460  0.1613 -1.2275
  223MOL0     H30063   3.279   0.664   6.248  0.1615  1.0303  0.0759
  223MOL0     H30064   3.282   0.695   6.082 -1.6956 -0.6846 -0.2941
  223MOL0     H30065   2.857   0.694   6.119 -1.9765  0.1197 -0.1436
  223MOL0     H30066   2.726   0.518   6.159  0.4077  0.5327  0.7455
  223MOL0     H30067   2.875  -0.002   6.506 -2.4024  1.8876  1.7053
  223MOL0     H30068   2.746  -0.223   6.537  1.6952 -1.2396 -1.1972
  223MOL0     H30069   2.434  -0.338   6.235 -0.8907  0.5272  0.8354
  223MOL0     H30070   2.590  -0.439   6.229  1.1961  2.0261  0.9565
  223MOL0     H30071   2.499  -0.565   6.425  3.3116 -0.7743 -3.6473
  223MOL0     H30072   2.351  -0.459   6.420  0.2311  1.4915 -1.3387
  223MOL0     H30073   2.355  -0.559   6.170 -2.7496 -1.3427 -0.1038
  223MOL0     H30074   2.435  -0.684   6.243 -0.1122  0.6058 -1.0275
  223MOL0     H30075   2.215  -0.727   6.224  0.1289 -0.8075  0.8446
  223MOL0     H30076   2.162  -0.588   6.326 -0.3304 -0.2997 -1.5439
  223MOL0     H30077   2.321  -0.721   6.509  1.2097  0.5988 -0.5961
  223MOL0     H30078   2.301  -0.850   6.398 -1.5057 -0.8257  0.7217
  223MOL0     H30079   2.072  -0.706   6.537 -0.7338 -0.2032 -1.6777
  223MOL0     H30080   2.049  -0.855   6.443 -0.1774 -1.4728 -0.0694
  223MOL0     H30081   2.200  -0.843   6.709 -0.7771 -1.7547  0.8765
  223MOL0     H30082   2.204  -0.974   6.604 -2.4210 -1.1112 -3.2558
  223MOL0     H30083   2.031  -1.012   6.780  2.6966  1.1170 -0.3439
  223MOL0     H30084   1.946  -0.871   6.749  2.1524  0.0854  2.2666
  223MOL0     H30085   2.554  -0.158   6.160 -1.0366  0.4251  0.8472
  223MOL0     H30086   2.673   0.045   6.132  0.6927  1.3783  0.9881
  223MOL0     H30087   3.056   0.306   6.335 -0.4170 -2.6570 -2.0900
  223MOL0     H30088   3.198   0.480   6.268  0.2670  2.4491  0.5109
  223MOL0     H30089   2.559   1.823   6.789 -0.8750  2.5156 -1.7932
  223MOL0     H30090   2.384   1.981   6.767  2.1237 -2.6710 -2.0593
  223MOL0     H30091   2.094   2.173   6.782  0.2465  2.0845  0.4969
  223MOL0     H30092   1.934   2.299   6.684  0.0177  0.5595  0.0807
  223MOL0     H30093   1.726   2.387   6.573  0.5987  1.4098 -1.0564
  223MOL0     H30094   1.552   2.400   6.597  0.2839  0.5819  0.2722
  223MOL0     H30095   1.690   2.134   6.591  0.3267 -0.1455  0.1238
  223MOL0     H30096   1.595   2.208   6.460 -0.2750  2.3504  0.5179
  223MOL0     H30097   1.493   2.144   6.749  2.1420  2.0729 -0.6243
  223MOL0     H30098   1.470   2.038   6.606  0.0758  0.0556 -2.1529
  223MOL0     H30099   1.343   2.306   6.645 -0.2705  1.1269  0.0110
  223MOL0     H30100   1.336   2.195   6.502 -1.5822  2.2467  0.1739
  223MOL0     H30101   1.076   2.014   6.783  0.6118  0.9373  0.4427
  223MOL0     H30102   1.653   2.220   6.998  0.4459  3.5536 -0.1882
  223MOL0     H30103   1.733   2.136   7.203 -0.4640  1.2702 -0.2800
  223MOL0     H30104   1.862   2.023   7.207 -3.9031  0.7984  4.9459
  223MOL0     H30105   1.900   2.193   7.219 -1.0259  2.0178 -2.4845
  224MOL0     O30106   1.545   0.386   9.560  0.0811 -1.0395 -0.5131
  224MOL0     C30107   1.550   0.269   9.585  0.3078  0.4740 -0.7171
  224MOL0     O30108   1.572   0.214   9.715  1.1796 -0.0817  0.1319
  224MOL0     C30109   1.561   0.293   9.829 -0.0497  0.1483 -0.1651
  224MOL0     C30110   1.445   0.304   9.905 -0.2705 -0.4009  0.5886
  224MOL0     C30111   1.440   0.372  10.025 -0.0738  0.4760  0.0275
  224MOL0     C30112   1.556   0.423  10.076 -0.4489 -0.5470  0.4897
  224MOL0     O30113   1.546   0.483  10.205  0.1068 -0.5367 -0.6565
  224MOL0     C30114   1.667   0.493  10.281 -0.1919  1.0709 -0.3335
  224MOL0     C30115   1.642   0.512  10.426  0.5546 -0.4567 -0.1786
  224MOL0     C30116   1.558   0.411  10.503 -0.1572 -0.8142  0.6153
  224MOL0     C30117   1.638   0.282  10.521  0.8445  1.0210  0.1816
  224MOL0     C30118   1.605   0.208  10.655 -0.0572  0.3330 -0.3977
  224MOL0     C30119   1.655   0.075  10.661 -0.0198 -0.3236  0.1206
  224MOL0     C30120   1.613   0.024  10.801 -0.0889  0.8794 -0.5867
  224MOL0     C30121   1.639  -0.129  10.792  0.2436 -0.5176 -0.8950
  224MOL0     N30122   1.604  -0.183  10.923  0.5094  0.8342 -0.7286
  224MOL0     C30123   1.675  -0.180  11.037  0.0349  0.0991  0.0152
  224MOL0     C30124   1.593  -0.230  11.136 -0.0333  1.2540  0.0625
  224MOL0     C30125   1.621  -0.267  11.279 -0.1456  0.1612  0.0242
  224MOL0     C30126   1.494  -0.247  11.366 -0.2192 -0.9803  0.0940
  224MOL0     C30127   1.529  -0.268  11.514 -0.3534 -0.5932  0.7395
  224MOL0     C30128   1.387  -0.259  11.590 -0.4031 -0.7370 -0.3894
  224MOL0     O30129   1.338  -0.126  11.597 -0.0173  0.6638  0.9151
  224MOL0     C30130   1.202  -0.106  11.611  0.1381 -0.3334  1.2455
  224MOL0     C30131   1.146   0.018  11.558 -0.2477 -0.5407  0.5218
  224MOL0     C30132   1.005   0.040  11.575  0.1750 -0.2694  0.3550
  224MOL0     C30133   0.927  -0.047  11.651  0.5802 -0.5538  0.8194
  224MOL0     C30134   0.779  -0.023  11.663 -0.9023 -0.0536  0.6294
  224MOL0     O30135   0.700  -0.110  11.739 -0.0767  0.4841  0.1313
  224MOL0     C30136   0.571  -0.070  11.762  0.3150  0.4137 -1.8059
  224MOL0     C30137   0.545  -0.008  11.883  0.5815  0.3437  0.1833
  224MOL0     C30138   0.422   0.057  11.906 -0.4865 -0.1225 -0.0743
  224MOL0     C30139   0.329   0.060  11.800  0.4838 -0.0231  0.1554
  224MOL0     O30140   0.199   0.117  11.816 -0.5347  0.1664  1.0051
  224MOL0     C30141   0.155   0.162  11.950 -0.4572 -0.9055  0.0172
  224MOL0     C30142   0.020   0.222  11.930  0.2502  0.0257  0.2322
  224MOL0     C30143  -0.028   0.317  12.036  0.2056 -0.0269 -0.3887
  224MOL0     C30144   0.042   0.454  12.021 -0.0928  0.1759  0.0110
  224MOL0     C30145   0.037   0.522  12.165 -0.0742  0.7240  0.4830
  224MOL0     C30146   0.150   0.449  12.253 -0.2186 -0.2144 -0.0557
  224MOL0     C30147   0.175   0.516  12.393 -0.8356 -1.0485 -0.7682
  224MOL0     C30148   0.276   0.445  12.490  0.0154 -0.0690 -0.3735
  224MOL0    Cl30149   0.219   0.274  12.516  0.6926  0.0462 -0.0539
  224MOL0     C30150   0.355  -0.003  11.677  0.4067  1.0980 -0.2369
  224MOL0     C30151   0.479  -0.064  11.659  0.7891 -0.3435  0.0281
  224MOL0     O30152   0.744   0.085  11.621  0.1503  0.3544 -0.0151
  224MOL0     C30153   0.990  -0.161  11.707 -0.9023 -0.5735 -0.5061
  224MOL0     C30154   1.123  -0.188  11.687  0.3596  0.2783 -0.0114
  224MOL0     N30155   1.462  -0.245  11.077 -1.1866  0.3534  0.3055
  224MOL0     N30156   1.472  -0.209  10.954 -0.3250  0.0246  0.4132
  224MOL0     C30157   1.681   0.406  10.003  0.1422 -0.6931 -0.3133
  224MOL0     C30158   1.675   0.346   9.882 -0.8377 -0.1808  0.6740
  224MOL0     C30159   1.521   0.175   9.469 -0.8031  0.7122  0.8765
  224MOL0     C30160   1.534   0.037   9.488  0.7020 -0.8336 -0.7556
  224MOL0     C30161   1.521  -0.055   9.385  0.6423 -0.8125 -0.6043
  224MOL0     C30162   1.478  -0.024   9.257  0.4460  0.8372 -0.9073
  224MOL0     O30163   1.458  -0.134   9.177  0.5346 -0.3609 -0.9459
  224MOL0     C30164   1.371  -0.107   9.062 -0.2380 -0.5235  0.2089
  224MOL0     C30165   1.401  -0.216   8.953 -0.1166  0.3205 -0.6342
  224MOL0     C30166   1.286  -0.216   8.839 -0.1812 -0.6229 -0.5491
  224MOL0     C30167   1.325  -0.311   8.730  0.6770  0.3213 -0.3775
  224MOL0     C30168   1.304  -0.450   8.787 -0.7528  0.2046 -0.2005
  224MOL0     C30169   1.297  -0.555   8.841  0.1300  0.1924  0.1405
  224MOL0     C30170   1.441   0.111   9.243 -0.2565  0.5014  0.6005
  224MOL0     C30171   1.477   0.215   9.337 -1.0255  0.1532 -0.2265
  224MOL0     C30172   1.458   0.354   9.295 -0.3473  0.2121  0.1129
  224MOL0     H30173   1.368   0.238   9.869 -0.4922  2.1942 -4.6180
  224MOL0     H30174   1.355   0.368  10.094  0.3098 -0.8786  0.4524
  224MOL0     H30175   1.728   0.403  10.271 -2.5654 -0.9462  2.1376
  224MOL0     H30176   1.723   0.573  10.231  2.4208 -1.3786 -1.6747
  224MOL0     H30177   1.589   0.605  10.446  4.1869  1.2023  3.0691
  224MOL0     H30178   1.739   0.519  10.475 -0.6366  4.1808  2.0338
  224MOL0     H30179   1.466   0.389  10.447  0.9913 -3.2646 -0.4644
  224MOL0     H30180   1.538   0.456  10.601  2.7073  3.9287 -0.6999
  224MOL0     H30181   1.606   0.229  10.431  0.6853  1.5554 -0.0768
  224MOL0     H30182   1.747   0.290  10.516  0.7170  2.0257 -3.0426
  224MOL0     H30183   1.655   0.269  10.732 -2.6649  0.9356  0.9410
  224MOL0     H30184   1.499   0.212  10.681  0.1289  1.9598  0.2896
  224MOL0     H30185   1.612   0.021  10.577  1.7297 -0.2587 -0.8788
  224MOL0     H30186   1.764   0.077  10.651 -0.0101  0.0115  0.2492
  224MOL0     H30187   1.509   0.047  10.824 -1.1771 -2.3872 -1.6520
  224MOL0     H30188   1.668   0.072  10.882  0.5692  0.7491 -0.9477
  224MOL0     H30189   1.585  -0.181  10.712 -1.0941 -0.6583  0.0664
  224MOL0     H30190   1.748  -0.145  10.794  0.3660  0.1841  1.6956
  224MOL0     H30191   1.778  -0.146  11.036 -0.0247  0.5769 -3.7199
  224MOL0     H30192   1.638  -0.375  11.282  1.0812  0.3569  0.8224
  224MOL0     H30193   1.702  -0.203  11.316  1.6567 -1.8001 -0.3494
  224MOL0     H30194   1.463  -0.143  11.354  2.8503 -0.0546 -0.8016
  224MOL0     H30195   1.423  -0.326  11.338 -1.4681  0.9634 -2.7558
  224MOL0     H30196   1.591  -0.183  11.543  0.9363 -0.4636 -2.0346
  224MOL0     H30197   1.586  -0.361  11.524  2.6859  1.1219  0.7227
  224MOL0     H30198   1.398  -0.293  11.693  0.0609  1.5346  0.3550
  224MOL0     H30199   1.312  -0.324  11.543 -2.4901  0.9364  0.4642
  224MOL0     H30200   1.209   0.090  11.508 -0.4613 -0.3756  0.4940
  224MOL0     H30201   0.962   0.138  11.553  1.0214 -0.1878 -1.0809
  224MOL0     H30202   0.619  -0.012  11.962 -1.3702 -0.6628  2.0446
  224MOL0     H30203   0.398   0.107  12.000 -3.0827  1.3182 -1.4149
  224MOL0     H30204   0.151   0.078  12.019  2.0208 -0.9053  0.2481
  224MOL0     H30205   0.220   0.235  11.999 -1.6965 -1.1441  2.1441
  224MOL0     H30206   0.022   0.286  11.841 -1.2620 -1.1587 -0.7024
  224MOL0     H30207  -0.059   0.147  11.924 -1.6598  1.9359  0.0773
  224MOL0     H30208  -0.134   0.338  12.019 -0.4678 -1.2024  1.8530
  224MOL0     H30209  -0.011   0.269  12.133  0.6249  2.3058  0.7578
  224MOL0     H30210   0.001   0.525  11.949 -1.0620 -0.2349  0.1486
  224MOL0     H30211   0.147   0.431  11.997 -0.4394 -0.6290 -0.7737
  224MOL0     H30212  -0.061   0.511  12.214  0.8303 -1.9846  1.8608
  224MOL0     H30213   0.047   0.631  12.161 -0.5070  0.8656  2.3027
  224MOL0     H30214   0.115   0.347  12.270  2.3402 -0.9791  1.0862
  224MOL0     H30215   0.237   0.433  12.189  2.2701  0.0885  3.0403
  224MOL0     H30216   0.084   0.518  12.453  0.0221  2.2544  0.6794
  224MOL0     H30217   0.206   0.620  12.382  1.7748 -1.6201  0.3120
  224MOL0     H30218   0.380   0.448  12.456  0.5732  0.0363  1.2403
  224MOL0     H30219   0.281   0.492  12.589  4.4577  1.5703 -1.0993
  224MOL0     H30220   0.283   0.004  11.596 -2.6227  0.0233  2.1842
  224MOL0     H30221   0.481  -0.104  11.558  0.6643  3.0941 -1.5063
  224MOL0     H30222   0.931  -0.236  11.758 -0.9889  1.0965  2.0007
  224MOL0     H30223   1.148  -0.286  11.727 -0.8746  0.1409  0.4683
  224MOL0     H30224   1.778   0.447  10.028  0.5105  0.2005 -2.8505
  224MOL0     H30225   1.765   0.335   9.822 -0.3231 -1.2705  1.5967
  224MOL0     H30226   1.568  -0.003   9.584  2.8351 -4.4811 -2.8075
  224MOL0     H30227   1.547  -0.152   9.427 -2.2575 -0.8365  1.4780
  224MOL0     H30228   1.388  -0.010   9.015 -1.8199 -0.9423 -1.3221
  224MOL0     H30229   1.267  -0.118   9.094 -0.2918 -1.9931 -0.4077
  224MOL0     H30230   1.409  -0.310   9.009  1.0795  0.4349 -0.5947
  224MOL0     H30231   1.499  -0.203   8.905  1.9055 -4.4958  1.4918
  224MOL0     H30232   1.278  -0.114   8.803  3.9844  0.4736  1.0363
  224MOL0     H30233   1.192  -0.232   8.893  0.4803  0.9172  1.1422
  224MOL0     H30234   1.264  -0.294   8.641  3.4712 -0.0004 -2.4851
  224MOL0     H30235   1.427  -0.303   8.692  0.2697  0.2610 -1.5372
  224MOL0     H30236   1.293  -0.651   8.888  0.3011 -0.1547 -0.5329
  224MOL0     H30237   1.403   0.151   9.150 -0.4841 -0.9918  0.0324
  224MOL0     H30238   1.408   0.411   9.373  0.4480  2.2783 -0.7974
  224MOL0     H30239   1.560   0.394   9.286 -0.3455  0.1689 -0.0598
  224MOL0     H30240   1.397   0.355   9.204 -0.2171 -3.5830 -0.1729
  225MOL0     O30241   5.283   3.654   6.919 -0.5565 -0.0188  0.6252
  225MOL0     C30242   5.332   3.666   7.033 -0.5397 -0.8512  0.8900
  225MOL0     O30243   5.256   3.666   7.144  0.3209  0.3535  0.2919
  225MOL0     C30244   5.122   3.663   7.144  1.3551 -0.7032  0.4524
  225MOL0     C30245   5.050   3.572   7.216 -0.0951  0.2790 -0.6608
  225MOL0     C30246   4.912   3.577   7.212  0.6304 -0.5758  0.5516
  225MOL0     C30247   4.843   3.682   7.147  0.0999  0.5622 -0.4308
  225MOL0     O30248   4.707   3.681   7.170 -0.3195 -0.4766 -0.2774
  225MOL0     C30249   4.627   3.711   7.060 -0.0017 -0.1999 -0.3905
  225MOL0     C30250   4.502   3.624   7.061 -0.5626  0.0055  0.0436
  225MOL0     C30251   4.414   3.676   6.956 -0.6827 -0.7945 -0.4100
  225MOL0     C30252   4.305   3.572   6.922 -0.5035 -0.7164  0.3444
  225MOL0     C30253   4.209   3.639   6.809 -0.6870 -0.0215  0.1341
  225MOL0     C30254   4.106   3.733   6.875 -0.1589 -0.3721  0.6345
  225MOL0     C30255   4.042   3.820   6.759  0.4992 -0.4207  0.0627
  225MOL0     C30256   4.114   3.947   6.716 -0.0547  0.9307 -0.5186
  225MOL0     N30257   4.077   3.998   6.586  0.4259 -0.2092 -0.6694
  225MOL0     C30258   3.955   4.051   6.551  0.5602  0.2942 -1.0783
  225MOL0     C30259   3.949   4.065   6.419 -0.2021 -0.0168  0.4722
  225MOL0     C30260   3.835   4.133   6.347  0.8304 -0.4293 -0.6412
  225MOL0     C30261   3.698   4.083   6.376  0.0893  0.0194 -0.1803
  225MOL0     C30262   3.590   4.143   6.281 -0.1899  0.1023  0.7069
  225MOL0     C30263   3.451   4.095   6.308  0.2955 -0.8253  1.2427
  225MOL0     O30264   3.419   4.150   6.437  0.0430 -0.4406 -0.1224
  225MOL0     C30265   3.302   4.130   6.503 -0.7181  0.7893  1.0668
  225MOL0     C30266   3.219   4.028   6.459 -0.4645 -0.2221 -1.0976
  225MOL0     C30267   3.108   3.999   6.536  0.1179 -0.0587 -0.8106
  225MOL0     C30268   3.076   4.080   6.654 -0.4200 -0.3607  0.0523
  225MOL0     C30269   2.962   4.041   6.724  1.0895  0.4465 -0.3614
  225MOL0     O30270   2.874   3.953   6.668 -0.3627  0.7475 -0.2803
  225MOL0     C30271   2.774   3.903   6.743 -0.1012  0.4102 -0.3850
  225MOL0     C30272   2.667   3.986   6.762  0.4979 -0.8517 -0.4735
  225MOL0     C30273   2.560   3.952   6.836  0.4776  0.8377  0.2873
  225MOL0     C30274   2.562   3.828   6.912 -0.2023 -0.1599 -0.5480
  225MOL0     O30275   2.453   3.779   6.969  0.3924 -0.8345  0.2252
  225MOL0     C30276   2.389   3.677   6.897  0.0855  0.4231 -0.1205
  225MOL0     C30277   2.259   3.657   6.971  1.2947  0.4356 -0.1978
  225MOL0     C30278   2.154   3.602   6.872 -0.3139 -0.0783  1.1169
  225MOL0     C30279   2.027   3.575   6.945  1.4930 -0.3505 -0.2258
  225MOL0     C30280   1.921   3.507   6.868 -0.1125  1.1676  1.0322
  225MOL0     C30281   1.781   3.515   6.929  0.3810  0.9830  0.0102
  225MOL0     C30282   1.689   3.444   6.843 -0.2922  0.2408  0.7310
  225MOL0     C30283   1.550   3.467   6.887  0.0920 -0.8819 -0.2852
  225MOL0    Cl30284   1.515   3.368   7.037  0.2313  0.2879  0.1832
  225MOL0     C30285   2.673   3.748   6.898 -0.0851  0.0878  0.5841
  225MOL0     C30286   2.781   3.784   6.824 -0.5249  0.0214  0.5650
  225MOL0     O30287   2.941   4.105   6.833  0.1515 -0.0884  0.4439
  225MOL0     C30288   3.154   4.195   6.682 -0.1997 -0.4938 -0.2341
  225MOL0     C30289   3.274   4.216   6.608 -0.1409  0.1767 -0.2349
  225MOL0     N30290   4.083   4.034   6.380  0.1696  0.3041 -0.8330
  225MOL0     N30291   4.163   4.005   6.484 -0.8150  0.1337  0.0028
  225MOL0     C30292   4.913   3.774   7.078 -0.1780 -0.6899  0.3395
  225MOL0     C30293   5.050   3.761   7.064 -0.3694 -1.0956 -0.9492
  225MOL0     C30294   5.483   3.684   7.037 -0.1344 -0.6086  0.1281
  225MOL0     C30295   5.534   3.774   6.942 -0.3866 -0.1754  0.6023
  225MOL0     C30296   5.666   3.785   6.920 -1.4007 -0.6309 -0.3063
  225MOL0     C30297   5.762   3.728   7.001 -0.4693 -0.8380 -0.6357
  225MOL0     O30298   5.901   3.731   6.992 -0.0554  0.4090 -0.6053
  225MOL0     C30299   5.961   3.803   6.885  0.4984  0.1483  0.2364
  225MOL0     C30300   6.112   3.845   6.926  0.5648  0.2845  0.1131
  225MOL0     C30301   6.117   3.956   7.039 -0.1998 -0.3390 -0.9818
  225MOL0     C30302   6.224   4.053   7.009 -0.7080 -0.1955  0.7438
  225MOL0     C30303   6.195   4.145   6.899  0.1511  0.0360  0.1149
  225MOL0     C30304   6.153   4.229   6.816  0.2332  0.8413 -0.2187
  225MOL0     C30305   5.705   3.651   7.108 -0.0421  0.3167  0.1353
  225MOL0     C30306   5.570   3.627   7.126 -0.4608 -0.5707 -0.4665
  225MOL0     C30307   5.525   3.548   7.255  0.5903  0.1295 -0.0931
  225MOL0     H30308   5.087   3.492   7.279 -1.0867  0.0441 -0.3684
  225MOL0     H30309   4.861   3.502   7.271 -1.1117  0.6453  0.6807
  225MOL0     H30310   4.608   3.819   7.061  1.6721  0.1264 -0.8723
  225MOL0     H30311   4.680   3.688   6.968 -0.7039 -0.5835 -0.6995
  225MOL0     H30312   4.462   3.619   7.163 -0.1526 -0.6000  0.1858
  225MOL0     H30313   4.539   3.524   7.035  3.3791  1.9521 -3.0445
  225MOL0     H30314   4.470   3.700   6.865  1.6773 -1.0607  0.8897
  225MOL0     H30315   4.373   3.774   6.981  2.7543 -0.0542  3.2784
  225MOL0     H30316   4.353   3.480   6.888 -0.7833 -0.2631 -1.3670
  225MOL0     H30317   4.249   3.550   7.014  0.9274 -2.3730  0.8742
  225MOL0     H30318   4.262   3.703   6.738  2.4330  3.4929  4.9295
  225MOL0     H30319   4.151   3.559   6.762 -0.3553 -0.6145  0.7175
  225MOL0     H30320   4.041   3.663   6.928 -0.6908  0.0385  0.5358
  225MOL0     H30321   4.150   3.803   6.947 -1.6456  0.6831  0.5700
  225MOL0     H30322   3.937   3.840   6.786  0.1787  1.0614 -1.9879
  225MOL0     H30323   4.038   3.756   6.670  2.3757  0.8195 -0.9891
  225MOL0     H30324   4.096   4.019   6.797  2.9521  0.2861  0.9009
  225MOL0     H30325   4.222   3.934   6.727  0.1980  2.5156 -0.7690
  225MOL0     H30326   3.892   4.069   6.637 -0.5580 -2.6325 -1.1805
  225MOL0     H30327   3.838   4.237   6.379  0.5063 -1.4676  3.2205
  225MOL0     H30328   3.858   4.135   6.240  3.3368  0.3858 -0.1759
  225MOL0     H30329   3.689   3.975   6.357  0.5094 -0.7332  3.2712
  225MOL0     H30330   3.677   4.113   6.479  0.3603 -0.0292 -0.1106
  225MOL0     H30331   3.615   4.126   6.176 -0.5188  2.2833  0.2287
  225MOL0     H30332   3.604   4.251   6.297  2.2334  0.0881 -0.8558
  225MOL0     H30333   3.454   3.986   6.315 -2.3193 -1.0157  0.4080
  225MOL0     H30334   3.378   4.111   6.228  1.1401 -0.9989  0.4215
  225MOL0     H30335   3.242   3.961   6.377  0.7493  1.3314 -2.0719
  225MOL0     H30336   3.062   3.902   6.519 -1.4105  0.0446  2.1507
  225MOL0     H30337   2.656   4.085   6.718  0.8652 -0.2479  0.7443
  225MOL0     H30338   2.466   4.007   6.841  0.2449  0.3950  0.9854
  225MOL0     H30339   2.375   3.698   6.791 -1.1342 -0.5117 -0.1680
  225MOL0     H30340   2.447   3.586   6.915 -2.6752 -1.0901  2.0203
  225MOL0     H30341   2.272   3.584   7.051  2.5631 -2.6537 -2.9902
  225MOL0     H30342   2.223   3.753   7.008 -0.8778 -1.1516  2.0967
  225MOL0     H30343   2.140   3.670   6.787  1.9717 -2.1082 -1.0378
  225MOL0     H30344   2.194   3.509   6.830  2.5235  1.6307 -0.2446
  225MOL0     H30345   1.986   3.663   6.995  1.1771 -1.3228  1.2837
  225MOL0     H30346   2.048   3.518   7.035 -0.4795  2.2553  2.0729
  225MOL0     H30347   1.941   3.400   6.855 -0.5014  0.8946  2.5155
  225MOL0     H30348   1.911   3.539   6.764  0.2264 -2.9319 -0.4824
  225MOL0     H30349   1.785   3.466   7.027  2.0942 -1.6415 -1.2755
  225MOL0     H30350   1.747   3.619   6.937 -2.0796  0.2036  0.5850
  225MOL0     H30351   1.719   3.339   6.836  1.6022  0.5922  2.5587
  225MOL0     H30352   1.691   3.480   6.740 -1.7629 -1.0810  0.1891
  225MOL0     H30353   1.523   3.571   6.910 -1.4153 -1.1387 -0.7695
  225MOL0     H30354   1.483   3.428   6.810  1.3924  1.0064 -2.5187
  225MOL0     H30355   2.680   3.650   6.944 -0.8645  0.1450  0.8494
  225MOL0     H30356   2.871   3.724   6.839 -0.4485  0.2665  1.1235
  225MOL0     H30357   3.124   4.279   6.744  1.9617 -0.0117  0.2322
  225MOL0     H30358   3.345   4.290   6.642  3.9151 -3.6669  0.7083
  225MOL0     H30359   4.870   3.855   7.020  1.4619  1.1536  1.5520
  225MOL0     H30360   5.106   3.842   7.019 -0.5417  0.7350  1.8593
  225MOL0     H30361   5.469   3.831   6.876 -0.6891 -0.4264  0.6819
  225MOL0     H30362   5.693   3.842   6.832 -1.6242 -0.4104 -0.2312
  225MOL0     H30363   5.908   3.890   6.845  1.6295 -0.8124 -3.7927
  225MOL0     H30364   5.960   3.734   6.800  0.0454  3.2720 -2.4698
  225MOL0     H30365   6.161   3.884   6.836  0.8466  5.7090  2.1872
  225MOL0     H30366   6.163   3.758   6.968  0.7042  1.4938  2.6299
  225MOL0     H30367   6.137   3.908   7.135 -0.2821  2.0991  0.3213
  225MOL0     H30368   6.027   4.019   7.043  1.2077  1.7224  0.5010
  225MOL0     H30369   6.258   4.101   7.101  3.4290 -3.4130  1.1934
  225MOL0     H30370   6.304   3.986   6.976 -1.3430  0.3272 -2.1089
  225MOL0     H30371   6.107   4.305   6.756  1.6764  1.5317 -0.4966
  225MOL0     H30372   5.755   3.608   7.195 -1.1084  0.5459  0.8708
  225MOL0     H30373   5.483   3.616   7.329  1.6234 -0.9631  1.5574
  225MOL0     H30374   5.435   3.490   7.234  0.6370  0.3148 -0.8337
  225MOL0     H30375   5.606   3.480   7.285  0.8221  0.2534 -0.4268
  226MOL0     O30376   8.004   4.800   7.736  0.3988  0.2918 -0.2702
  226MOL0     C30377   7.968   4.903   7.672  0.3859  0.0630  0.0747
  226MOL0     O30378   8.026   4.948   7.551 -0.9136 -0.2132 -0.2369
  226MOL0     C30379   8.129   4.875   7.491 -0.2632  0.0355  0.3895
  226MOL0     C30380   8.141   4.737   7.482 -0.2200 -0.0172 -0.0865
  226MOL0     C30381   8.240   4.679   7.408 -0.1269 -1.0119  0.5539
  226MOL0     C30382   8.342   4.757   7.353 -0.3658  1.2644 -0.6874
  226MOL0     O30383   8.436   4.690   7.275  0.3916  0.1171 -0.0928
  226MOL0     C30384   8.562   4.747   7.245  0.0667 -0.4225  0.2415
  226MOL0     C30385   8.673   4.660   7.302 -0.3700  0.7755  0.1597
  226MOL0     C30386   8.673   4.644   7.459  1.2521  0.0346  2.0396
  226MOL0     C30387   8.816   4.606   7.502  0.4477 -0.0103  0.3378
  226MOL0     C30388   8.797   4.530   7.637  0.1769 -0.0045 -0.5688
  226MOL0     C30389   8.754   4.617   7.752 -0.0462 -0.2185 -0.2799
  226MOL0     C30390   8.709   4.534   7.873  0.0341  0.5599  0.8797
  226MOL0     C30391   8.696   4.615   8.003 -0.2365  0.9793  0.2287
  226MOL0     N30392   8.679   4.536   8.123  0.1002  0.1654  0.3732
  226MOL0     C30393   8.563   4.475   8.169  1.0542 -0.0448  0.0446
  226MOL0     C30394   8.592   4.392   8.276  0.4670  0.2243 -0.7273
  226MOL0     C30395   8.503   4.343   8.393 -1.2238  0.4087  0.2356
  226MOL0     C30396   8.442   4.454   8.473 -0.4971 -0.7687  0.5656
  226MOL0     C30397   8.314   4.408   8.535 -0.1460  0.3776 -0.3235
  226MOL0     C30398   8.286   4.493   8.651  0.5447  0.7116  0.1247
  226MOL0     O30399   8.158   4.455   8.709 -0.2252 -0.7790  0.5954
  226MOL0     C30400   8.084   4.558   8.763  0.1102  1.0621 -0.0096
  226MOL0     C30401   7.947   4.577   8.750  0.5366  0.9980  0.4492
  226MOL0     C30402   7.878   4.682   8.819  0.7456  0.8780 -0.2073
  226MOL0     C30403   7.947   4.775   8.898 -0.6491  0.0442 -0.2298
  226MOL0     C30404   7.871   4.888   8.956  0.3159  0.6128 -0.1082
  226MOL0     O30405   7.736   4.867   8.996 -0.3128  0.7656  0.6410
  226MOL0     C30406   7.658   4.972   9.032  0.8149 -0.6508 -0.8204
  226MOL0     C30407   7.529   4.957   9.002 -0.3513 -0.6183  0.4550
  226MOL0     C30408   7.422   5.049   9.040 -0.2239  0.0047 -0.2669
  226MOL0     C30409   7.459   5.169   9.099 -0.4234 -0.3530  0.5250
  226MOL0     O30410   7.357   5.250   9.151 -0.0473  0.2784  0.0414
  226MOL0     C30411   7.367   5.345   9.254 -0.7561  0.3940 -0.3435
  226MOL0     C30412   7.407   5.272   9.391 -0.2637 -0.1264 -0.1606
  226MOL0     C30413   7.385   5.361   9.505 -0.2788 -1.0672  0.2406
  226MOL0     C30414   7.244   5.378   9.547  0.2270  0.2050 -1.3581
  226MOL0     C30415   7.228   5.496   9.649 -0.9567  0.3151  0.0630
  226MOL0     C30416   7.076   5.505   9.680 -0.5206 -0.5499  0.4044
  226MOL0     C30417   7.043   5.590   9.803  0.6974  0.1621  1.2196
  226MOL0     C30418   7.086   5.509   9.926  0.6975  0.1983  0.2732
  226MOL0    Cl30419   7.244   5.563  10.000 -0.2142  0.2682 -0.1869
  226MOL0     C30420   7.593   5.186   9.125 -0.5462 -0.9599 -0.8560
  226MOL0     C30421   7.686   5.090   9.102 -0.4697 -0.5983 -0.4494
  226MOL0     O30422   7.934   4.987   8.978 -0.0762 -0.2768  0.5689
  226MOL0     C30423   8.087   4.762   8.897  1.1696  0.3967 -0.4651
  226MOL0     C30424   8.149   4.650   8.848 -0.1871  0.1777  0.0692
  226MOL0     N30425   8.730   4.395   8.284  0.5909  0.6533 -0.2477
  226MOL0     N30426   8.776   4.483   8.198 -0.5388  0.8271 -0.4674
  226MOL0     C30427   8.323   4.897   7.353  0.2257 -0.0492 -0.0608
  226MOL0     C30428   8.213   4.957   7.418 -0.2685  0.0721  0.3116
  226MOL0     C30429   7.868   4.998   7.732  0.5118  0.7846  0.1106
  226MOL0     C30430   7.829   5.107   7.653  0.5942  0.2414  0.3035
  226MOL0     C30431   7.739   5.198   7.699  0.1614 -0.1534  0.9434
  226MOL0     C30432   7.665   5.182   7.824  0.4960  0.1531 -0.9912
  226MOL0     O30433   7.564   5.278   7.859  0.6637 -0.4983 -0.0029
  226MOL0     C30434   7.568   5.339   7.984 -1.2315  0.4925  0.4945
  226MOL0     C30435   7.695   5.421   8.017  0.9412 -1.2936  0.5037
  226MOL0     C30436   7.667   5.568   8.006  0.4752  0.7484  0.9982
  226MOL0     C30437   7.550   5.612   8.101  0.0099  0.2230  0.3096
  226MOL0     C30438   7.557   5.564   8.234  0.2131  0.5250 -0.1375
  226MOL0     C30439   7.564   5.516   8.347  0.0426  0.0943 -0.8263
  226MOL0     C30440   7.703   5.073   7.904  0.8770  0.5924  0.5782
  226MOL0     C30441   7.799   4.977   7.864 -0.5925 -0.5615  0.6148
  226MOL0     C30442   7.837   4.863   7.951 -0.8697  0.4425  0.0846
  226MOL0     H30443   8.058   4.692   7.536  1.5801 -1.0198  1.9599
  226MOL0     H30444   8.236   4.571   7.411  1.6407 -1.1238  0.0438
  226MOL0     H30445   8.588   4.748   7.139 -1.3093  0.2574 -0.1220
  226MOL0     H30446   8.567   4.849   7.285  4.1009 -0.9137  1.3921
  226MOL0     H30447   8.770   4.699   7.272 -0.8216  0.0862 -2.5376
  226MOL0     H30448   8.681   4.558   7.263  1.5445  1.8034 -2.4134
  226MOL0     H30449   8.598   4.566   7.473 -0.3409  0.4461 -2.3762
  226MOL0     H30450   8.635   4.731   7.514 -0.5299  0.4036  0.3601
  226MOL0     H30451   8.871   4.554   7.423  0.5409  0.8743 -0.1906
  226MOL0     H30452   8.865   4.702   7.521  1.2074 -0.7973  2.7593
  226MOL0     H30453   8.732   4.443   7.624  1.4293 -0.9890 -0.4078
  226MOL0     H30454   8.897   4.492   7.659  1.3870  0.8143 -4.0089
  226MOL0     H30455   8.838   4.679   7.786 -0.1484  1.0025 -2.0642
  226MOL0     H30456   8.679   4.690   7.720 -1.0606  1.3612  4.7789
  226MOL0     H30457   8.779   4.451   7.884 -0.0591  0.5508  1.4527
  226MOL0     H30458   8.608   4.503   7.843  0.2710  1.3344 -0.7771
  226MOL0     H30459   8.789   4.672   8.007  1.8249 -1.9024 -2.2554
  226MOL0     H30460   8.606   4.672   7.978 -0.8489  0.0090  0.1623
  226MOL0     H30461   8.465   4.508   8.137  1.9834  0.4740 -2.4538
  226MOL0     H30462   8.422   4.287   8.346 -0.1316  0.2453 -1.5679
  226MOL0     H30463   8.561   4.269   8.449  0.2360  1.3403  0.0350
  226MOL0     H30464   8.517   4.485   8.546  1.9566 -3.1377 -0.7746
  226MOL0     H30465   8.429   4.536   8.402  1.4933  0.3343  1.3868
  226MOL0     H30466   8.310   4.308   8.578  2.8934  1.7074  3.6648
  226MOL0     H30467   8.234   4.417   8.460 -1.8980  1.4338  1.5705
  226MOL0     H30468   8.287   4.600   8.624  1.8175  1.1618  1.7553
  226MOL0     H30469   8.359   4.476   8.731 -0.6229 -1.2076  0.8283
  226MOL0     H30470   7.876   4.508   8.705  0.3469  1.4527  0.0401
  226MOL0     H30471   7.771   4.682   8.805  0.6074  0.7556  0.7751
  226MOL0     H30472   7.505   4.856   8.969  0.2193 -0.6765  0.2050
  226MOL0     H30473   7.317   5.039   9.014 -0.2236  3.6141 -2.2532
  226MOL0     H30474   7.448   5.418   9.242 -0.1241 -0.3547 -0.7379
  226MOL0     H30475   7.269   5.394   9.259 -2.6574 -2.8748 -2.1290
  226MOL0     H30476   7.364   5.172   9.401  0.7448 -0.9206 -2.8602
  226MOL0     H30477   7.516   5.262   9.394  0.1101  2.9068  0.6562
  226MOL0     H30478   7.440   5.316   9.588 -0.2793 -1.6650 -0.0798
  226MOL0     H30479   7.425   5.458   9.471  0.2639 -1.9195 -1.7025
  226MOL0     H30480   7.206   5.282   9.585  0.4861  0.1083 -1.3397
  226MOL0     H30481   7.182   5.398   9.460  1.2782 -1.6659 -2.6225
  226MOL0     H30482   7.273   5.591   9.621 -1.3823  1.1471  2.0156
  226MOL0     H30483   7.284   5.448   9.730  1.6850 -0.4071 -2.0407
  226MOL0     H30484   7.026   5.549   9.592 -1.7167 -2.2867  0.1674
  226MOL0     H30485   7.041   5.402   9.682  1.2665 -1.1761  0.8480
  226MOL0     H30486   6.934   5.599   9.801  0.2935 -3.1476 -1.9101
  226MOL0     H30487   7.100   5.683   9.809 -0.1354  0.7472  0.3776
  226MOL0     H30488   7.010   5.523  10.003  0.1553 -1.5113  0.0803
  226MOL0     H30489   7.097   5.403   9.900 -1.5210 -0.9438  3.3791
  226MOL0     H30490   7.626   5.269   9.188  4.2732 -1.1388 -2.7807
  226MOL0     H30491   7.790   5.092   9.134 -0.7097  0.2643  0.2999
  226MOL0     H30492   8.150   4.835   8.947  0.2066  0.7645  0.2400
  226MOL0     H30493   8.256   4.638   8.864 -0.6280 -1.6868  2.1688
  226MOL0     H30494   8.377   4.970   7.294 -1.4487  0.7462 -0.6816
  226MOL0     H30495   8.187   5.063   7.414 -3.4582 -0.4960  2.3141
  226MOL0     H30496   7.866   5.119   7.551 -0.5213 -0.9485 -0.2716
  226MOL0     H30497   7.714   5.282   7.635 -1.7611 -0.8067  0.7491
  226MOL0     H30498   7.545   5.261   8.057 -0.4217 -0.8987 -0.6696
  226MOL0     H30499   7.484   5.409   7.989 -1.1878  0.9708 -2.8316
  226MOL0     H30500   7.767   5.373   7.950 -0.4804 -1.8767 -0.6544
  226MOL0     H30501   7.732   5.404   8.119  0.7172  0.6330  0.9487
  226MOL0     H30502   7.641   5.598   7.904  0.1952  1.5549  1.2944
  226MOL0     H30503   7.753   5.630   8.037  1.9531  0.3382 -1.9341
  226MOL0     H30504   7.559   5.720   8.114  0.8085  0.3443 -1.0244
  226MOL0     H30505   7.454   5.599   8.049 -1.3027 -2.7953  3.0755
  226MOL0     H30506   7.554   5.473   8.444  0.4619 -0.0688 -0.8536
  226MOL0     H30507   7.651   5.067   7.999 -0.9308 -1.4622 -0.4705
  226MOL0     H30508   7.774   4.862   8.040 -1.2532  0.3146 -0.1867
  226MOL0     H30509   7.827   4.769   7.895  1.2155  1.1479 -1.6073
  226MOL0     H30510   7.939   4.874   7.989 -0.9477  2.0870 -0.0956
  227MOL0     O30511   0.510   2.804   4.986  0.1665 -0.6760  0.5371
  227MOL0     C30512   0.460   2.893   5.057  1.5112 -0.6497 -0.4885
  227MOL0     O30513   0.410   2.867   5.178 -0.0618  0.1614 -1.3940
  227MOL0     C30514   0.420   2.734   5.229 -0.5356  0.0571 -0.2702
  227MOL0     C30515   0.527   2.690   5.316 -0.8251  0.4598  0.5713
  227MOL0     C30516   0.534   2.549   5.348 -0.2678 -0.7575 -0.2380
  227MOL0     C30517   0.453   2.461   5.299  0.2056 -0.6620 -0.0748
  227MOL0     O30518   0.488   2.340   5.337  0.0944  0.2716  0.3260
  227MOL0     C30519   0.399   2.232   5.315 -0.5375  0.2325 -0.3800
  227MOL0     C30520   0.441   2.108   5.392  0.5042  0.2978  0.4960
  227MOL0     C30521   0.467   2.115   5.545  0.7601 -0.1564  0.5726
  227MOL0     C30522   0.365   2.212   5.619  0.4024  0.2841  0.1391
  227MOL0     C30523   0.420   2.239   5.754  0.0797 -0.5472 -0.1614
  227MOL0     C30524   0.533   2.341   5.776  0.0843  0.3443  0.4895
  227MOL0     C30525   0.501   2.488   5.749  0.1636 -0.4672  0.6953
  227MOL0     C30526   0.613   2.580   5.801  0.6054  0.0615  0.2519
  227MOL0     N30527   0.742   2.571   5.732  0.4245  0.1120  0.3318
  227MOL0     C30528   0.834   2.478   5.753  0.4044 -0.4135 -0.0882
  227MOL0     C30529   0.944   2.523   5.694 -0.5238 -0.2901  0.3346
  227MOL0     C30530   1.074   2.461   5.687  0.4853  0.5787  0.4993
  227MOL0     C30531   1.185   2.568   5.696 -0.4136  0.2611 -0.2838
  227MOL0     C30532   1.180   2.626   5.844 -0.2211  0.0440  0.0973
  227MOL0     C30533   1.307   2.717   5.875  0.2326 -0.3053  0.2499
  227MOL0     O30534   1.402   2.624   5.908  0.2111  0.5847 -0.4912
  227MOL0     C30535   1.540   2.661   5.892  0.5053  0.5422 -0.6133
  227MOL0     C30536   1.597   2.792   5.906  1.1708  0.1362  0.5533
  227MOL0     C30537   1.733   2.814   5.903 -0.5588  0.5275  0.0239
  227MOL0     C30538   1.826   2.710   5.908  0.0313 -0.1885  0.1425
  227MOL0     C30539   1.961   2.749   5.915 -0.1033 -0.5461 -0.3219
  227MOL0     O30540   1.997   2.856   5.840  0.0131  0.1316  0.2209
  227MOL0     C30541   2.126   2.908   5.844 -0.4432 -0.1002  0.4427
  227MOL0     C30542   2.184   2.952   5.728  0.2961 -0.2301  0.6505
  227MOL0     C30543   2.306   3.014   5.734 -0.2064 -1.4318  0.1430
  227MOL0     C30544   2.389   3.019   5.848 -1.0798  0.0795  0.2843
  227MOL0     O30545   2.517   3.067   5.861  0.7967  0.1327  0.0843
  227MOL0     C30546   2.511   3.204   5.875  0.3220 -0.4954  0.4963
  227MOL0     C30547   2.627   3.254   5.970 -0.7453  0.2534 -0.3370
  227MOL0     C30548   2.654   3.406   5.966  0.9419 -0.5151 -0.1247
  227MOL0     C30549   2.777   3.450   6.045  0.2859  0.8182 -0.8037
  227MOL0     C30550   2.748   3.572   6.131  0.1018  0.4069  0.4959
  227MOL0     C30551   2.869   3.610   6.213  0.3968  0.1608  0.9058
  227MOL0     C30552   2.895   3.532   6.342 -1.0823  0.4422 -0.8127
  227MOL0     C30553   2.855   3.613   6.461  1.2193 -0.2420 -0.2574
  227MOL0    Cl30554   2.900   3.548   6.612  0.0538 -0.1910 -0.2400
  227MOL0     C30555   2.320   2.971   5.969 -0.5088  0.3121  0.1589
  227MOL0     C30556   2.190   2.927   5.963  0.4268 -0.7989  0.7965
  227MOL0     O30557   2.039   2.692   6.001 -0.3605  0.2125 -0.1869
  227MOL0     C30558   1.775   2.580   5.908 -0.2721 -0.4768  0.0280
  227MOL0     C30559   1.633   2.559   5.898 -0.6460  0.3537  0.8868
  227MOL0     N30560   0.914   2.634   5.618 -0.4025 -0.7655 -0.5053
  227MOL0     N30561   0.793   2.664   5.651 -0.7976  0.2873  0.3231
  227MOL0     C30562   0.350   2.499   5.204  0.1958  0.4974  1.1437
  227MOL0     C30563   0.334   2.632   5.167  0.0223  0.2114 -0.8698
  227MOL0     C30564   0.467   3.034   5.009  0.6951  0.4098 -0.9673
  227MOL0     C30565   0.355   3.113   5.032 -0.2497  0.0260 -0.0729
  227MOL0     C30566   0.366   3.252   5.014  0.4259 -0.9875 -0.1661
  227MOL0     C30567   0.472   3.302   4.949 -0.0575 -0.6858 -0.1962
  227MOL0     O30568   0.461   3.434   4.906  0.4456 -0.0112 -0.8894
  227MOL0     C30569   0.562   3.493   4.816  0.2056  0.6011  0.4513
  227MOL0     C30570   0.655   3.599   4.875 -0.1551  0.3309  0.1558
  227MOL0     C30571   0.578   3.718   4.894 -0.3063 -0.1547 -0.3515
  227MOL0     C30572   0.639   3.827   4.977  0.0334  0.0572  0.0554
  227MOL0     C30573   0.581   3.958   4.947 -0.5913 -0.4500  0.2529
  227MOL0     C30574   0.513   4.051   4.906 -0.1642  0.3494  0.5443
  227MOL0     C30575   0.581   3.220   4.929  0.5196 -0.6576 -0.8412
  227MOL0     C30576   0.588   3.081   4.958  0.4640 -0.3026  0.8664
  227MOL0     C30577   0.711   3.006   4.928  0.1906 -0.1454  0.0256
  227MOL0     H30578   0.598   2.759   5.361  0.9843  0.4674 -2.0711
  227MOL0     H30579   0.626   2.525   5.399  1.4460  3.9419 -0.6024
  227MOL0     H30580   0.298   2.259   5.348  0.6004  0.4684  3.3084
  227MOL0     H30581   0.401   2.219   5.206  0.5145  0.1098 -0.3595
  227MOL0     H30582   0.535   2.085   5.340 -0.1199  2.2261 -1.6381
  227MOL0     H30583   0.378   2.021   5.369  1.4893 -0.3223  0.0836
  227MOL0     H30584   0.567   2.152   5.570  0.0678  0.0055  3.3713
  227MOL0     H30585   0.465   2.013   5.583  2.9270 -0.2478  0.5481
  227MOL0     H30586   0.369   2.305   5.562 -0.6174 -0.0094 -0.4381
  227MOL0     H30587   0.263   2.170   5.624 -0.0502  1.2597 -0.6305
  227MOL0     H30588   0.332   2.281   5.804 -0.5708 -0.6186 -1.2075
  227MOL0     H30589   0.439   2.140   5.795  3.5920 -0.5713 -1.4855
  227MOL0     H30590   0.550   2.342   5.884  0.0049  1.8861  0.5148
  227MOL0     H30591   0.626   2.313   5.725  0.3307 -2.4678  2.2602
  227MOL0     H30592   0.406   2.517   5.794  0.6945  1.0388  0.8928
  227MOL0     H30593   0.495   2.518   5.644  0.8245 -2.1368  0.1364
  227MOL0     H30594   0.578   2.681   5.779 -0.8655 -0.6426 -0.8774
  227MOL0     H30595   0.628   2.557   5.907  0.2755  1.3915  0.6028
  227MOL0     H30596   0.833   2.394   5.822  0.6056 -0.6997 -0.4288
  227MOL0     H30597   1.093   2.400   5.776  4.2704  2.3351  1.0995
  227MOL0     H30598   1.081   2.405   5.594 -0.7534  1.0008  0.1400
  227MOL0     H30599   1.285   2.526   5.677  0.9024  3.0548 -0.1327
  227MOL0     H30600   1.163   2.653   5.631  0.2500  1.8392  1.4585
  227MOL0     H30601   1.168   2.545   5.917  2.3708 -1.0385 -0.5573
  227MOL0     H30602   1.085   2.679   5.858 -0.2112 -0.4964  2.6416
  227MOL0     H30603   1.279   2.790   5.951  0.2153  0.3694 -0.3956
  227MOL0     H30604   1.328   2.779   5.787 -3.5237  1.0623  0.1121
  227MOL0     H30605   1.535   2.881   5.914  0.4787 -0.2798 -0.0150
  227MOL0     H30606   1.761   2.919   5.906 -1.2704  0.7628 -0.9085
  227MOL0     H30607   2.128   2.930   5.637  2.3500  1.9830 -1.2674
  227MOL0     H30608   2.340   3.046   5.636 -0.6396  0.5843  0.6089
  227MOL0     H30609   2.520   3.252   5.778  1.6261  1.8216  1.6799
  227MOL0     H30610   2.427   3.238   5.936 -0.4201 -4.1550  1.7647
  227MOL0     H30611   2.629   3.218   6.073  3.0651 -0.8079 -0.6324
  227MOL0     H30612   2.716   3.202   5.932  0.5315  0.7420  1.8146
  227MOL0     H30613   2.652   3.451   5.866 -1.0498  2.7435  1.2242
  227MOL0     H30614   2.567   3.440   6.023  0.8400 -1.9492  0.6291
  227MOL0     H30615   2.864   3.474   5.983  0.4624  0.6002 -0.6400
  227MOL0     H30616   2.810   3.369   6.111  3.1795  0.2473 -2.7771
  227MOL0     H30617   2.655   3.564   6.188  1.6239 -1.3686  2.8963
  227MOL0     H30618   2.737   3.657   6.063  3.1821  0.8848  0.4357
  227MOL0     H30619   2.950   3.594   6.143 -1.1343 -0.3742 -0.8306
  227MOL0     H30620   2.868   3.716   6.238 -2.0130  1.2292 -2.8774
  227MOL0     H30621   3.002   3.518   6.363 -0.4204  3.0259 -1.9622
  227MOL0     H30622   2.848   3.434   6.338 -1.6777  0.7020 -0.3173
  227MOL0     H30623   2.899   3.713   6.457  1.5537 -0.2383  1.9659
  227MOL0     H30624   2.746   3.625   6.459  1.2870  1.1538  1.3326
  227MOL0     H30625   2.363   2.985   6.067 -0.1523  1.9909 -0.2040
  227MOL0     H30626   2.143   2.892   6.055  2.0332  0.0170  1.9890
  227MOL0     H30627   1.843   2.498   5.926  1.4112  1.1304  1.4543
  227MOL0     H30628   1.601   2.456   5.885 -1.8287  0.9755 -1.8502
  227MOL0     H30629   0.293   2.420   5.157 -0.0116  0.7984  0.8876
  227MOL0     H30630   0.270   2.656   5.083  0.0207  3.0535 -0.1595
  227MOL0     H30631   0.263   3.071   5.073  0.4695 -0.7177  0.8181
  227MOL0     H30632   0.277   3.314   5.027 -0.2519 -1.6235 -1.5212
  227MOL0     H30633   0.504   3.541   4.736 -0.5981  1.3193  1.4348
  227MOL0     H30634   0.623   3.427   4.753  1.7488  2.6532 -0.3176
  227MOL0     H30635   0.739   3.615   4.807 -0.5779 -1.6741 -0.9055
  227MOL0     H30636   0.703   3.555   4.963  0.6188 -0.9149 -0.8481
  227MOL0     H30637   0.480   3.694   4.939 -0.2856 -2.6988 -1.4764
  227MOL0     H30638   0.559   3.754   4.793 -1.7953  2.6552  0.8032
  227MOL0     H30639   0.615   3.793   5.078 -4.1622 -1.3720 -1.2113
  227MOL0     H30640   0.747   3.822   4.958  0.0527 -2.9957  0.4590
  227MOL0     H30641   0.451   4.106   4.838  1.8801  1.5106 -0.4416
  227MOL0     H30642   0.666   3.272   4.886  0.8079  0.4548  0.9771
  227MOL0     H30643   0.730   2.926   5.000 -0.7672  2.2343  3.1435
  227MOL0     H30644   0.697   2.958   4.831  2.9443  2.0448 -1.6212
  227MOL0     H30645   0.804   3.061   4.906  1.3117 -1.0580  2.1825
  228MOL0     O30646   9.383   1.596  10.540 -0.6628 -0.3116  0.2971
  228MOL0     C30647   9.420   1.660  10.640  0.1851 -0.1626  0.0141
  228MOL0     O30648   9.515   1.751  10.637  0.6416 -0.4325  0.0545
  228MOL0     C30649   9.555   1.791  10.514 -0.2752  0.8707  0.6711
  228MOL0     C30650   9.617   1.698  10.417 -0.5821 -0.3883 -0.0730
  228MOL0     C30651   9.647   1.744  10.290 -0.6682  2.3520 -0.2665
  228MOL0     C30652   9.628   1.873  10.248 -0.6088 -0.5375  0.8950
  228MOL0     O30653   9.673   1.931  10.131 -0.4070  0.0045  0.7536
  228MOL0     C30654   9.814   1.902  10.097  0.5463  0.0132  0.7378
  228MOL0     C30655   9.900   2.021  10.045 -0.2548  0.7627 -0.3802
  228MOL0     C30656   9.839   2.090   9.924 -0.1050  0.6660 -0.1344
  228MOL0     C30657   9.942   2.203   9.877 -0.3102 -0.5745 -0.4047
  228MOL0     C30658   9.898   2.292   9.766 -0.6887  0.2726  0.0650
  228MOL0     C30659   9.790   2.388   9.792  0.0167  0.1550  0.6273
  228MOL0     C30660   9.799   2.508   9.694  0.0293  0.0925  1.0662
  228MOL0     C30661   9.778   2.465   9.554  0.6079 -0.3211  0.1382
  228MOL0     N30662   9.633   2.431   9.531 -0.1835  0.7149 -0.3962
  228MOL0     C30663   9.514   2.502   9.554 -0.7152  0.0159 -0.9811
  228MOL0     C30664   9.414   2.417   9.512  0.6312  0.0088 -0.6310
  228MOL0     C30665   9.264   2.440   9.493 -0.4833  0.7774 -0.2881
  228MOL0     C30666   9.247   2.521   9.363  0.1259 -0.6640 -0.1128
  228MOL0     C30667   9.095   2.509   9.323  0.2512 -0.0593 -0.3302
  228MOL0     C30668   8.988   2.546   9.433  0.2646 -0.3945 -1.3435
  228MOL0     O30669   9.026   2.666   9.500 -0.0911 -0.2774 -0.0492
  228MOL0     C30670   8.920   2.743   9.543 -0.4661 -0.2644  0.6874
  228MOL0     C30671   8.878   2.746   9.677  0.6936  0.2988  0.0956
  228MOL0     C30672   8.769   2.827   9.708 -0.2476 -0.0058 -0.2359
  228MOL0     C30673   8.696   2.902   9.610  0.0159 -0.3826  0.6054
  228MOL0     C30674   8.594   2.995   9.660 -0.3787  0.1616  0.4568
  228MOL0     O30675   8.549   3.094   9.578  0.1446 -0.1478  0.4558
  228MOL0     C30676   8.471   3.199   9.629 -0.5094  0.6030  0.4098
  228MOL0     C30677   8.375   3.254   9.546  1.3589  0.3236  0.1087
  228MOL0     C30678   8.283   3.351   9.594 -0.1576 -0.1067 -1.2667
  228MOL0     C30679   8.308   3.397   9.725  0.0274 -0.8854  0.4766
  228MOL0     O30680   8.250   3.512   9.788 -0.4534  0.2887 -0.5030
  228MOL0     C30681   8.162   3.602   9.711  0.6369 -0.7806  0.3363
  228MOL0     C30682   8.191   3.747   9.737 -0.6790 -0.4180  0.3547
  228MOL0     C30683   8.116   3.804   9.865  0.0044  0.5648 -0.1822
  228MOL0     C30684   8.104   3.957   9.869 -1.1907  1.1956  0.4963
  228MOL0     C30685   8.117   4.002  10.013 -0.7553 -0.8308  0.3369
  228MOL0     C30686   8.041   4.142  10.043  0.6023 -0.4384 -0.5200
  228MOL0     C30687   8.067   4.182  10.186  0.7063 -1.6062 -0.1318
  228MOL0     C30688   7.981   4.306  10.229 -0.5433 -0.2006 -0.7680
  228MOL0    Cl30689   8.007   4.448  10.117 -0.4012  0.0255 -0.4796
  228MOL0     C30690   8.405   3.353   9.798 -0.5314 -0.8220 -1.5222
  228MOL0     C30691   8.490   3.251   9.760 -0.1900 -0.8296 -0.2116
  228MOL0     O30692   8.559   2.971   9.778 -0.8126  0.7491  0.4783
  228MOL0     C30693   8.737   2.897   9.477 -0.0150 -0.8300 -0.1635
  228MOL0     C30694   8.849   2.819   9.445  0.4077  0.0123  0.1524
  228MOL0     N30695   9.475   2.306   9.464  0.1618  0.7789 -0.8275
  228MOL0     N30696   9.606   2.312   9.472  0.1979  0.9581 -0.4196
  228MOL0     C30697   9.565   1.962  10.336  0.4030  0.0684 -0.3986
  228MOL0     C30698   9.529   1.921  10.459 -0.0821 -0.3951 -1.4098
  228MOL0     C30699   9.364   1.626  10.770  1.1461 -0.0346 -0.1287
  228MOL0     C30700   9.367   1.723  10.873 -0.0860  0.7043  0.6189
  228MOL0     C30701   9.311   1.703  11.002 -0.3466 -0.6898  0.5947
  228MOL0     C30702   9.250   1.583  11.035 -0.0861 -0.4051  0.3153
  228MOL0     O30703   9.217   1.574  11.167  0.0865  0.2511 -0.0053
  228MOL0     C30704   9.091   1.495  11.185 -0.0980 -0.5237  0.8678
  228MOL0     C30705   9.024   1.522  11.319 -0.0205  0.6211 -0.3123
  228MOL0     C30706   9.113   1.474  11.440  0.3301  0.6215 -0.1397
  228MOL0     C30707   9.048   1.508  11.572 -0.5645  0.2593  0.7543
  228MOL0     C30708   8.927   1.423  11.594 -0.2178 -0.1952 -0.2430
  228MOL0     C30709   8.825   1.365  11.622  0.2653 -0.0036 -0.8174
  228MOL0     C30710   9.223   1.490  10.931 -0.0393  0.2780 -0.2897
  228MOL0     C30711   9.291   1.502  10.805 -0.7787 -0.0889  0.7204
  228MOL0     C30712   9.295   1.388  10.722  0.0540  0.9491  0.4178
  228MOL0     H30713   9.632   1.593  10.439 -1.5332 -0.4469  0.3519
  228MOL0     H30714   9.686   1.668  10.223 -3.2696 -1.4930  2.1879
  228MOL0     H30715   9.871   1.856  10.179  2.0427  0.8219  0.1966
  228MOL0     H30716   9.811   1.838  10.008  1.0712  0.0323  0.6996
  228MOL0     H30717  10.001   1.982  10.031 -1.3261 -2.8508  0.9204
  228MOL0     H30718   9.930   2.087  10.128 -2.1872  1.6794 -0.3527
  228MOL0     H30719   9.746   2.144   9.942 -1.0780 -0.1253 -2.4148
  228MOL0     H30720   9.823   2.024   9.838 -0.7653  0.6412  0.0059
  228MOL0     H30721   9.971   2.256   9.968  1.4518 -0.1437 -1.1775
  228MOL0     H30722  10.036   2.159   9.841 -0.5017 -2.2621  1.0063
  228MOL0     H30723   9.988   2.345   9.733  0.4755 -1.6082  0.0508
  228MOL0     H30724   9.855   2.235   9.684 -1.5792  0.8336  0.1396
  228MOL0     H30725   9.691   2.342   9.786  0.1027  0.1375 -2.2488
  228MOL0     H30726   9.804   2.434   9.890 -0.5502  3.0533 -0.5335
  228MOL0     H30727   9.897   2.557   9.702 -0.3199  1.1800 -0.8304
  228MOL0     H30728   9.720   2.576   9.726 -2.3017 -1.0922 -1.7261
  228MOL0     H30729   9.799   2.551   9.491  1.8687 -1.7255 -1.4529
  228MOL0     H30730   9.842   2.384   9.517 -0.8736 -0.2852 -2.8387
  228MOL0     H30731   9.505   2.599   9.603  3.6864  0.1001  0.0526
  228MOL0     H30732   9.208   2.346   9.487 -0.4806  0.8133 -0.9929
  228MOL0     H30733   9.228   2.491   9.582 -3.0987  1.4969 -1.6569
  228MOL0     H30734   9.274   2.627   9.366  1.6874 -0.9180 -2.4615
  228MOL0     H30735   9.318   2.477   9.292  0.9846 -0.0458  0.3438
  228MOL0     H30736   9.070   2.406   9.295  0.9950 -1.0920  2.4911
  228MOL0     H30737   9.074   2.578   9.240  0.5862  0.0006 -0.3674
  228MOL0     H30738   9.000   2.473   9.513 -0.5113  1.8883  0.9985
  228MOL0     H30739   8.887   2.541   9.392 -0.5359 -0.4596  0.5318
  228MOL0     H30740   8.929   2.680   9.746 -0.2776  0.1223  0.6661
  228MOL0     H30741   8.737   2.829   9.812 -0.9816  1.8414 -0.4660
  228MOL0     H30742   8.357   3.226   9.443 -3.0221  0.7536  0.5824
  228MOL0     H30743   8.195   3.378   9.536 -0.8041  0.9711  0.1331
  228MOL0     H30744   8.182   3.585   9.605 -1.2061  1.4065 -0.4418
  228MOL0     H30745   8.055   3.585   9.721  1.1658 -4.2140  1.2357
  228MOL0     H30746   8.300   3.754   9.741 -0.6979  0.5394 -0.2447
  228MOL0     H30747   8.152   3.809   9.655  2.7168  1.4623 -0.0446
  228MOL0     H30748   8.020   3.754   9.875  1.9268 -3.4150  0.2235
  228MOL0     H30749   8.184   3.773   9.945  0.3234 -0.8193 -0.9548
  228MOL0     H30750   8.008   3.982   9.823 -0.4973 -1.0464 -2.5537
  228MOL0     H30751   8.179   4.001   9.803 -1.5551 -2.5488 -2.8601
  228MOL0     H30752   8.221   3.996  10.047  0.0084  0.3396 -1.6474
  228MOL0     H30753   8.054   3.939  10.077 -0.0278 -0.9080  0.9887
  228MOL0     H30754   8.066   4.222   9.973 -1.8612  0.4037 -0.5294
  228MOL0     H30755   7.935   4.127  10.020  0.4363 -3.6348  1.6854
  228MOL0     H30756   8.166   4.227  10.201 -1.9569  4.5431  2.3252
  228MOL0     H30757   8.054   4.095  10.251  0.8002 -0.4495  1.4995
  228MOL0     H30758   7.875   4.279  10.221 -1.2125  1.0072  2.5269
  228MOL0     H30759   8.006   4.341  10.330  2.6882  2.3418 -2.2469
  228MOL0     H30760   8.417   3.398   9.896 -1.0728 -0.8827 -1.4246
  228MOL0     H30761   8.558   3.210   9.833 -3.1090 -4.4569  0.7385
  228MOL0     H30762   8.696   2.963   9.402  2.1897  3.2627  1.8771
  228MOL0     H30763   8.879   2.802   9.342 -1.6021 -4.0209  0.0390
  228MOL0     H30764   9.549   2.064  10.303  0.0829 -0.2254 -1.1997
  228MOL0     H30765   9.489   2.009  10.509 -2.3875 -1.3765 -1.4132
  228MOL0     H30766   9.410   1.819  10.849  0.0921  0.0639 -1.9877
  228MOL0     H30767   9.327   1.789  11.065  0.2214 -0.2235 -0.1647
  228MOL0     H30768   9.106   1.388  11.173 -0.3447 -0.4776  0.1112
  228MOL0     H30769   9.017   1.515  11.107  0.9469 -0.6529 -0.1734
  228MOL0     H30770   8.920   1.488  11.318 -0.6477  2.4649 -0.2355
  228MOL0     H30771   9.021   1.631  11.327  0.9174  0.5027  3.8115
  228MOL0     H30772   9.209   1.526  11.426  0.9537 -0.7516 -1.1546
  228MOL0     H30773   9.126   1.366  11.430 -1.3154  0.3410  0.4931
  228MOL0     H30774   9.120   1.498  11.654  0.3559 -3.8966 -0.3520
  228MOL0     H30775   9.025   1.615  11.567  0.7961  0.5462  0.3114
  228MOL0     H30776   8.744   1.299  11.644  1.4332 -0.7328  1.6978
  228MOL0     H30777   9.167   1.401  10.961  0.5079  0.1756  0.4702
  228MOL0     H30778   9.298   1.299  10.785  0.1531 -0.4327 -1.4597
  228MOL0     H30779   9.207   1.394  10.658  1.6784 -0.1571 -2.0542
  228MOL0     H30780   9.381   1.380  10.655 -2.7783 -0.3201 -3.4311
  229MOL0     O30781  10.716   4.828   9.522 -0.0642 -1.0641  0.2303
  229MOL0     C30782  10.690   4.764   9.419 -0.2495 -0.1822  0.0451
  229MOL0     O30783  10.563   4.721   9.386 -0.2550  0.0707  0.1574
  229MOL0     C30784  10.455   4.747   9.472 -0.0299 -0.2975  0.6835
  229MOL0     C30785  10.381   4.861   9.446 -0.3685 -1.0262 -0.5107
  229MOL0     C30786  10.269   4.899   9.513 -1.0324 -0.0592 -0.3763
  229MOL0     C30787  10.220   4.815   9.620  0.1921 -0.1749 -0.4051
  229MOL0     O30788  10.101   4.821   9.678 -0.1542 -0.1778  0.3634
  229MOL0     C30789  10.026   4.944   9.692 -0.2105 -0.8268  0.1263
  229MOL0     C30790   9.890   4.917   9.759 -0.6826  0.5337 -0.7250
  229MOL0     C30791   9.912   4.863   9.896 -0.8110  0.0951 -0.5756
  229MOL0     C30792   9.780   4.839   9.976 -0.9977 -0.5177  0.8474
  229MOL0     C30793   9.807   4.771  10.099  0.5219  0.0978  0.1739
  229MOL0     C30794   9.678   4.704  10.153 -0.3330  0.3767  0.0201
  229MOL0     C30795   9.647   4.566  10.076  0.0997 -0.0359  0.8882
  229MOL0     C30796   9.567   4.469  10.157  0.1114 -0.3176 -0.3110
  229MOL0     N30797   9.577   4.342  10.094  0.4981 -0.1838  0.3924
  229MOL0     C30798   9.473   4.288  10.021  0.0461 -0.4915  0.3919
  229MOL0     C30799   9.534   4.169   9.978  0.1420 -0.7958 -0.2306
  229MOL0     C30800   9.472   4.071   9.889 -0.5142 -0.0443  0.2862
  229MOL0     C30801   9.374   3.981   9.956  0.1019  0.3823  0.0501
  229MOL0     C30802   9.443   3.889  10.063  0.4825 -0.2625  0.3435
  229MOL0     C30803   9.362   3.778  10.126  0.4173 -0.0489  0.1769
  229MOL0     O30804   9.226   3.824  10.130 -0.2323 -0.3376  0.3812
  229MOL0     C30805   9.157   3.749  10.222 -0.3072 -0.5874 -0.2024
  229MOL0     C30806   9.068   3.651  10.184 -0.7152  1.7695 -0.2502
  229MOL0     C30807   8.989   3.574  10.272 -0.2324  0.2702 -0.3981
  229MOL0     C30808   9.017   3.588  10.407  0.5643 -0.1434  0.4203
  229MOL0     C30809   8.950   3.496  10.506 -0.0493 -0.3501  0.1100
  229MOL0     O30810   9.003   3.486  10.624 -0.1722 -0.6291  0.2807
  229MOL0     C30811   8.937   3.399  10.710 -0.0601 -0.0557 -0.5310
  229MOL0     C30812   8.929   3.434  10.846  0.2920  0.4066 -0.4408
  229MOL0     C30813   8.883   3.342  10.938 -0.3231 -1.0469 -1.0184
  229MOL0     C30814   8.867   3.207  10.905  0.2938 -0.9957 -0.5406
  229MOL0     O30815   8.854   3.111  11.003  0.0530 -0.1407 -0.1107
  229MOL0     C30816   8.866   3.145  11.141  0.2722 -0.0760 -0.1465
  229MOL0     C30817   8.864   3.022  11.227 -0.2489 -1.1768 -0.2336
  229MOL0     C30818   8.909   3.039  11.369 -0.8338  0.7586  0.3703
  229MOL0     C30819   8.890   2.902  11.428  0.2359 -0.3022  0.8926
  229MOL0     C30820   8.947   2.889  11.565 -0.0091  0.6086 -0.2087
  229MOL0     C30821   8.933   2.739  11.605  0.0004  0.7416  0.5479
  229MOL0     C30822   8.988   2.695  11.757  0.5905 -0.0464 -0.0299
  229MOL0     C30823   8.897   2.582  11.813 -0.6053 -0.1201  0.1072
  229MOL0    Cl30824   8.888   2.453  11.682  0.4602  0.3992 -0.0139
  229MOL0     C30825   8.882   3.171  10.775  0.3303  0.6228 -0.4575
  229MOL0     C30826   8.915   3.264  10.682  0.0873  0.3143  1.0275
  229MOL0     O30827   8.845   3.448  10.466 -0.9157 -0.1960  0.0489
  229MOL0     C30828   9.109   3.690  10.453 -0.0577  0.0403  0.0932
  229MOL0     C30829   9.162   3.780  10.357  0.7123 -0.1218 -0.1244
  229MOL0     N30830   9.665   4.159  10.039  0.5734 -0.5680 -0.4114
  229MOL0     N30831   9.690   4.261  10.109 -0.9360 -0.7477 -0.4690
  229MOL0     C30832  10.307   4.706   9.654  0.0768 -0.2841  0.3815
  229MOL0     C30833  10.428   4.677   9.591  0.4399  0.0299 -0.8175
  229MOL0     C30834  10.802   4.735   9.324 -0.0929  0.0048 -0.0394
  229MOL0     C30835  10.794   4.620   9.244 -0.0323  0.4352  0.4696
  229MOL0     C30836  10.892   4.608   9.143  0.1826 -0.3377  0.3543
  229MOL0     C30837  10.995   4.700   9.114  1.1267  0.8561  0.0501
  229MOL0     O30838  11.084   4.677   9.011 -0.0286  0.2419  0.5878
  229MOL0     C30839  11.055   4.598   8.899 -0.1329  0.8913  0.2721
  229MOL0     C30840  11.098   4.673   8.769  0.0355 -0.0057  0.2353
  229MOL0     C30841  11.244   4.720   8.764  0.4973  0.0985  0.1992
  229MOL0     C30842  11.260   4.823   8.646 -0.1271  0.0743 -0.7828
  229MOL0     C30843  11.260   4.755   8.514 -0.5588  0.6745 -0.2509
  229MOL0     C30844  11.260   4.699   8.405  0.2126 -0.7270 -0.6217
  229MOL0     C30845  10.994   4.814   9.196  0.0695  0.8356 -0.3163
  229MOL0     C30846  10.909   4.828   9.312  0.2318 -0.2654  0.9679
  229MOL0     C30847  10.925   4.964   9.389  0.0929  0.6226  0.7165
  229MOL0     H30848  10.426   4.930   9.375  0.2787  0.3646  1.1473
  229MOL0     H30849  10.209   4.987   9.492 -2.5791 -0.6684  1.2812
  229MOL0     H30850  10.089   5.015   9.746 -3.9956  2.1114  1.1268
  229MOL0     H30851  10.002   4.983   9.593  1.0216 -2.2903 -0.7890
  229MOL0     H30852   9.829   4.856   9.692 -1.7604 -0.3587  1.0007
  229MOL0     H30853   9.846   5.017   9.763 -0.3120  0.7259 -1.4344
  229MOL0     H30854   9.986   4.917   9.954  1.6518 -4.3950  0.9554
  229MOL0     H30855   9.955   4.763   9.887  1.0964  0.7822  0.5362
  229MOL0     H30856   9.734   4.938   9.983 -0.9323 -0.0008 -3.4120
  229MOL0     H30857   9.719   4.774   9.912  1.2745  0.6661 -2.8363
  229MOL0     H30858   9.885   4.694  10.092 -0.0555 -0.6116  1.2035
  229MOL0     H30859   9.846   4.844  10.171  2.1343 -0.8670  0.3258
  229MOL0     H30860   9.700   4.670  10.254  2.6232  0.2031 -0.5898
  229MOL0     H30861   9.597   4.777  10.150 -0.9574 -0.2691  0.5986
  229MOL0     H30862   9.744   4.521  10.053 -0.0430  1.5652 -4.3076
  229MOL0     H30863   9.596   4.588   9.981  0.5372 -1.1410  0.3782
  229MOL0     H30864   9.606   4.451  10.258 -3.4750  0.6554  1.4084
  229MOL0     H30865   9.462   4.499  10.158  0.8825  2.8010 -1.9704
  229MOL0     H30866   9.374   4.326  10.000 -0.0089 -0.7799  0.1168
  229MOL0     H30867   9.415   4.124   9.813 -1.4508 -2.6310 -0.9052
  229MOL0     H30868   9.547   4.002   9.849  0.0703  0.1185  1.0607
  229MOL0     H30869   9.290   4.027  10.009 -0.4904 -4.8189  4.3988
  229MOL0     H30870   9.339   3.910   9.880  2.9686  0.7800 -1.8176
  229MOL0     H30871   9.476   3.947  10.150  1.3422 -1.2727  0.7188
  229MOL0     H30872   9.540   3.860  10.019  0.8341 -2.7313  2.5266
  229MOL0     H30873   9.419   3.755  10.216  3.1420 -1.0994 -1.6542
  229MOL0     H30874   9.360   3.689  10.063 -2.2759  0.9662 -1.3197
  229MOL0     H30875   9.077   3.630  10.078  5.0132  1.0748  0.0393
  229MOL0     H30876   8.921   3.497  10.237  1.3807  0.1993 -3.8339
  229MOL0     H30877   8.946   3.535  10.882  0.9446  0.3678 -0.6383
  229MOL0     H30878   8.883   3.374  11.042 -0.2624  0.9812 -1.5889
  229MOL0     H30879   8.962   3.196  11.157  0.5809 -0.2282 -1.4171
  229MOL0     H30880   8.782   3.207  11.173 -0.1053 -0.9947  0.6809
  229MOL0     H30881   8.760   2.989  11.229 -0.4776 -0.4752  2.0464
  229MOL0     H30882   8.926   2.945  11.179 -3.1957 -1.2228 -4.5922
  229MOL0     H30883   9.016   3.065  11.371 -0.8484  1.0858 -1.4731
  229MOL0     H30884   8.855   3.120  11.419 -0.0158  3.1462 -2.3794
  229MOL0     H30885   8.932   2.827  11.361  0.8834 -0.0116  0.9648
  229MOL0     H30886   8.785   2.874  11.433  0.3483 -0.6189  1.6011
  229MOL0     H30887   8.890   2.941  11.642 -0.6468 -1.0432  0.4722
  229MOL0     H30888   9.050   2.926  11.564  0.6629 -1.1432 -1.1586
  229MOL0     H30889   8.826   2.719  11.591 -0.4003  2.2044  1.2954
  229MOL0     H30890   8.990   2.677  11.535  2.6070 -0.6841  3.6739
  229MOL0     H30891   8.982   2.777  11.829  0.9045 -0.6999  0.7543
  229MOL0     H30892   9.085   2.644  11.753  0.5889  0.0365 -2.1703
  229MOL0     H30893   8.912   2.544  11.915 -2.7144  0.6500  0.7582
  229MOL0     H30894   8.798   2.623  11.835 -0.5792 -0.8176  1.6540
  229MOL0     H30895   8.867   3.067  10.748  1.3870  0.6717 -1.2967
  229MOL0     H30896   8.924   3.239  10.576 -0.8869  0.8475  0.8122
  229MOL0     H30897   9.112   3.714  10.559  1.6611  0.5104 -0.0350
  229MOL0     H30898   9.209   3.870  10.395 -2.2322  0.6033  2.0834
  229MOL0     H30899  10.265   4.643   9.731 -2.2452 -0.4088 -0.8873
  229MOL0     H30900  10.492   4.598   9.629  0.2020  1.4320  2.8522
  229MOL0     H30901  10.727   4.537   9.262 -1.7541  1.5575 -0.5178
  229MOL0     H30902  10.895   4.523   9.076 -0.4759  1.6511 -2.3857
  229MOL0     H30903  10.949   4.573   8.889  0.2247 -0.1606 -1.2042
  229MOL0     H30904  11.111   4.505   8.911 -2.1915 -0.4288  0.1336
  229MOL0     H30905  11.033   4.761   8.759 -0.4125 -0.6468 -4.6495
  229MOL0     H30906  11.085   4.596   8.692  3.5028  0.4447 -0.9801
  229MOL0     H30907  11.307   4.634   8.741 -0.3472 -1.4924  3.2758
  229MOL0     H30908  11.284   4.749   8.861  0.8940  1.0909 -0.2454
  229MOL0     H30909  11.185   4.902   8.656  0.8101  0.8214  0.9385
  229MOL0     H30910  11.356   4.868   8.673  0.6467 -1.1115 -1.4925
  229MOL0     H30911  11.261   4.655   8.307 -1.1649  0.1717 -1.0703
  229MOL0     H30912  11.074   4.883   9.171  2.7947 -1.4229  1.4780
  229MOL0     H30913  10.844   5.035   9.366  1.8566  1.9236 -2.0863
  229MOL0     H30914  10.939   4.953   9.496  2.7686 -1.5151  0.2495
  229MOL0     H30915  11.013   5.015   9.348 -1.0451  1.7091 -0.4894
  230MOL0     O30916   8.954   9.903   5.115  0.6150  0.9644  0.5086
  230MOL0     C30917   8.942  10.020   5.143  0.3504  0.5313 -0.5512
  230MOL0     O30918   8.839  10.092   5.095  0.6134  0.6764 -0.0003
  230MOL0     C30919   8.731  10.013   5.052 -0.8767 -0.7097 -0.0146
  230MOL0     C30920   8.647   9.959   5.142 -0.4772 -0.1126 -0.2454
  230MOL0     C30921   8.525   9.904   5.099  0.9169  0.2185  0.1419
  230MOL0     C30922   8.501   9.892   4.967  0.6180  0.3293  0.3419
  230MOL0     O30923   8.384   9.835   4.924  0.6922  0.1634  0.2034
  230MOL0     C30924   8.259   9.917   4.948 -0.1769  0.0081  0.3120
  230MOL0     C30925   8.157   9.815   4.916 -0.6021  0.0072 -0.2176
  230MOL0     C30926   8.157   9.692   5.011 -1.4483 -0.3834 -1.0085
  230MOL0     C30927   8.060   9.587   4.971  0.5692 -0.2826  0.3694
  230MOL0     C30928   8.049   9.464   5.062 -0.1625  0.3960  0.5656
  230MOL0     C30929   8.029   9.507   5.219  0.4158 -0.7555  0.2391
  230MOL0     C30930   8.024   9.373   5.287  0.1061  0.2771  0.3182
  230MOL0     C30931   8.014   9.384   5.441  0.4430 -0.4202  1.2015
  230MOL0     N30932   7.867   9.362   5.469 -0.5529  0.3375  0.6204
  230MOL0     C30933   7.767   9.438   5.436  0.7281  0.4396 -0.4212
  230MOL0     C30934   7.661   9.391   5.507  0.1328  0.2017 -0.0238
  230MOL0     C30935   7.521   9.453   5.507  0.3059  0.1048 -0.1105
  230MOL0     C30936   7.512   9.589   5.571  0.2301 -0.0652 -0.5977
  230MOL0     C30937   7.376   9.673   5.559 -0.8893 -0.2564 -0.4407
  230MOL0     C30938   7.390   9.810   5.631  0.2819  1.3867 -0.2850
  230MOL0     O30939   7.487   9.895   5.564  0.5733 -0.3856 -0.0714
  230MOL0     C30940   7.533  10.014   5.606  0.2495  0.0154 -0.3993
  230MOL0     C30941   7.497  10.063   5.730  0.1292  0.2505  0.1285
  230MOL0     C30942   7.550  10.180   5.769 -0.0685 -0.3640  0.4355
  230MOL0     C30943   7.647  10.250   5.683  0.4426 -0.1053 -0.6525
  230MOL0     C30944   7.714  10.378   5.723 -0.0160 -0.1874  0.6266
  230MOL0     O30945   7.672  10.435   5.840 -0.1802  0.5879 -0.0431
  230MOL0     C30946   7.745  10.535   5.896  0.7361 -0.5420 -0.3085
  230MOL0     C30947   7.788  10.519   6.034  0.2351 -0.0766  0.1055
  230MOL0     C30948   7.849  10.632   6.097 -0.5279  0.1868  0.1877
  230MOL0     C30949   7.892  10.741   6.023 -0.2286 -0.6682 -0.4397
  230MOL0     O30950   7.975  10.831   6.084 -0.3022  0.8692  0.3680
  230MOL0     C30951   8.118  10.798   6.106 -0.0877 -0.0458  0.2106
  230MOL0     C30952   8.218  10.914   6.130 -0.2881 -0.1328 -0.1350
  230MOL0     C30953   8.341  10.877   6.213  0.3957 -0.4394  0.3653
  230MOL0     C30954   8.413  10.757   6.142 -0.6000 -0.1987 -0.1825
  230MOL0     C30955   8.549  10.709   6.216  0.6184  0.9894 -0.8899
  230MOL0     C30956   8.617  10.590   6.138 -0.0498  0.0868 -0.0024
  230MOL0     C30957   8.537  10.470   6.095 -0.5415  0.2178 -0.4393
  230MOL0     C30958   8.618  10.366   6.020 -0.1675 -0.1379 -0.9109
  230MOL0    Cl30959   8.726  10.414   5.887  0.1322 -0.0980 -0.0783
  230MOL0     C30960   7.861  10.748   5.883  0.7266  0.0516 -0.3924
  230MOL0     C30961   7.783  10.648   5.824  0.4840  0.3070  0.1087
  230MOL0     O30962   7.798  10.425   5.647 -0.3686 -0.1381 -0.3798
  230MOL0     C30963   7.676  10.194   5.559  1.1434 -0.2488 -0.2107
  230MOL0     C30964   7.617  10.080   5.528 -0.1213  0.0779  0.1518
  230MOL0     N30965   7.707   9.285   5.587  0.7548  0.2093  0.3373
  230MOL0     N30966   7.834   9.267   5.564  0.3934 -0.5776  0.6056
  230MOL0     C30967   8.592   9.939   4.871  0.5865  0.2346  0.4490
  230MOL0     C30968   8.710  10.004   4.914  0.3171  0.9308  0.2255
  230MOL0     C30969   9.045  10.088   5.225  0.1739 -0.0560 -0.1631
  230MOL0     C30970   9.036  10.222   5.258  0.3623  0.3682  1.1591
  230MOL0     C30971   9.124  10.299   5.336 -1.5634  0.5397 -0.2007
  230MOL0     C30972   9.228  10.222   5.404 -0.4527 -0.7518 -1.1802
  230MOL0     O30973   9.316  10.281   5.503 -0.1481 -0.0923 -0.3664
  230MOL0     C30974   9.251  10.384   5.584  0.0013 -0.1814  0.0940
  230MOL0     C30975   9.291  10.390   5.735  0.2385  0.0626  0.4379
  230MOL0     C30976   9.184  10.459   5.830  0.2842  0.3000  0.3077
  230MOL0     C30977   9.217  10.488   5.974 -0.3621 -0.5430  0.0052
  230MOL0     C30978   9.112  10.582   6.028 -0.1784 -0.0311  0.3863
  230MOL0     C30979   9.018  10.650   6.071  0.0042  0.3304  0.0627
  230MOL0     C30980   9.242  10.088   5.375 -0.1246  0.3496 -0.1030
  230MOL0     C30981   9.159  10.023   5.278 -0.2419 -0.2045 -0.5509
  230MOL0     C30982   9.200   9.887   5.242  0.4389  0.4127  0.2370
  230MOL0     H30983   8.665   9.967   5.248 -2.1097 -0.6540  0.0996
  230MOL0     H30984   8.444   9.869   5.162  1.1804  1.4448  1.2168
  230MOL0     H30985   8.244   9.951   5.051  0.7759  0.3515  0.3432
  230MOL0     H30986   8.244   9.997   4.876 -0.4666 -1.1641 -0.9817
  230MOL0     H30987   8.179   9.766   4.821 -0.2392  0.8045 -0.5519
  230MOL0     H30988   8.060   9.865   4.909 -0.9114 -0.7433 -1.5972
  230MOL0     H30989   8.124   9.719   5.111 -2.3693  0.7549 -1.6074
  230MOL0     H30990   8.257   9.646   5.015 -0.8215  0.5482 -3.7459
  230MOL0     H30991   7.957   9.623   4.963  1.2581  1.5861 -0.6235
  230MOL0     H30992   8.079   9.549   4.870 -2.4708  0.7003 -0.6668
  230MOL0     H30993   7.960   9.412   5.024  0.2139  1.5386 -2.0837
  230MOL0     H30994   8.137   9.400   5.054  1.8409  3.2513 -2.6947
  230MOL0     H30995   8.114   9.560   5.263 -1.9681  1.1398  2.9747
  230MOL0     H30996   7.945   9.576   5.234  1.2372  0.3706 -0.1816
  230MOL0     H30997   8.124   9.332   5.270  0.4637 -0.6596  3.9611
  230MOL0     H30998   7.953   9.300   5.248  1.1548 -0.2503 -0.6571
  230MOL0     H30999   8.079   9.308   5.487  2.0778 -0.5163 -1.0863
  230MOL0     H31000   8.037   9.489   5.462 -1.1626  0.4740 -1.0581
  230MOL0     H31001   7.762   9.523   5.369  0.6172  2.0952  1.5760
  230MOL0     H31002   7.494   9.459   5.401 -0.3183 -3.3956 -0.2819
  230MOL0     H31003   7.451   9.384   5.555 -0.2250  0.4819 -0.3313
  230MOL0     H31004   7.530   9.588   5.679 -2.3836 -0.6936 -0.0888
  230MOL0     H31005   7.584   9.649   5.516 -1.2427 -0.1577 -2.7384
  230MOL0     H31006   7.293   9.618   5.603 -1.0911  1.1420  1.0479
  230MOL0     H31007   7.348   9.712   5.461  4.3742  2.2828 -1.3384
  230MOL0     H31008   7.417   9.788   5.735 -1.8647  2.2166  0.5068
  230MOL0     H31009   7.292   9.860   5.633 -0.4725 -0.0377  1.1114
  230MOL0     H31010   7.422  10.013   5.790  1.4690 -2.4435 -0.2789
  230MOL0     H31011   7.532  10.222   5.867 -2.4367 -0.6636  0.1914
  230MOL0     H31012   7.773  10.422   6.080  1.8320 -0.2089  0.3942
  230MOL0     H31013   7.879  10.619   6.201  2.5136 -1.6810 -0.8091
  230MOL0     H31014   8.118  10.733   6.194  0.6351  0.9111  0.9319
  230MOL0     H31015   8.149  10.738   6.020 -1.1317 -0.6506  0.2344
  230MOL0     H31016   8.238  10.950   6.029 -3.1065 -0.7372 -0.9937
  230MOL0     H31017   8.169  11.004   6.170 -0.1471  0.3337 -0.9826
  230MOL0     H31018   8.420  10.952   6.225  2.2214 -2.2543  0.2886
  230MOL0     H31019   8.309  10.841   6.311 -3.0058 -1.0789 -0.8739
  230MOL0     H31020   8.434  10.783   6.038  0.4040 -1.2178 -0.2550
  230MOL0     H31021   8.347  10.670   6.138  0.1767 -0.7792 -0.6760
  230MOL0     H31022   8.514  10.665   6.310 -1.5302 -0.0465 -2.0975
  230MOL0     H31023   8.615  10.793   6.240  3.5577 -1.9949  2.6316
  230MOL0     H31024   8.667  10.630   6.050  2.1843 -0.8564  0.7687
  230MOL0     H31025   8.684  10.558   6.219  1.3862  4.3030  0.7233
  230MOL0     H31026   8.469  10.514   6.021 -0.8358  1.2803  0.4436
  230MOL0     H31027   8.485  10.436   6.184  0.7743  3.2262  1.6541
  230MOL0     H31028   8.681  10.315   6.094 -2.3471 -1.0038  0.4426
  230MOL0     H31029   8.538  10.304   5.980 -2.2977  2.7341 -1.4713
  230MOL0     H31030   7.878  10.847   5.842 -0.9907  1.4542  2.0272
  230MOL0     H31031   7.780  10.652   5.716  1.4777 -0.3855  0.0375
  230MOL0     H31032   7.753  10.243   5.500  0.6683  0.9052  0.1000
  230MOL0     H31033   7.636  10.034   5.432  1.7003  1.0165  0.0274
  230MOL0     H31034   8.572   9.922   4.766  2.3057  2.7433 -0.3757
  230MOL0     H31035   8.767  10.048   4.833 -2.2025  1.1950 -1.5204
  230MOL0     H31036   8.958  10.285   5.217  0.2268 -1.2932 -1.3037
  230MOL0     H31037   9.119  10.407   5.347 -4.0270  0.3497  1.6071
  230MOL0     H31038   9.145  10.358   5.589  0.2190 -0.9900  0.6835
  230MOL0     H31039   9.269  10.482   5.537 -1.4413  0.8243  1.5184
  230MOL0     H31040   9.385  10.445   5.748 -0.3265  1.1419  0.0819
  230MOL0     H31041   9.307  10.284   5.756  3.7446 -0.0980 -2.0526
  230MOL0     H31042   9.105  10.384   5.838  1.1035 -0.5029  1.2619
  230MOL0     H31043   9.141  10.549   5.784  0.3977  0.5931  0.7695
  230MOL0     H31044   9.225  10.400   6.038 -2.5892  0.8759  2.4628
  230MOL0     H31045   9.311  10.536   6.001 -0.2967 -1.9321  2.6148
  230MOL0     H31046   8.934  10.716   6.068  0.2993  0.9042  2.4766
  230MOL0     H31047   9.330  10.032   5.406 -0.6200 -1.7846 -2.2130
  230MOL0     H31048   9.178   9.869   5.136  0.5941  1.1175  0.0815
  230MOL0     H31049   9.307   9.863   5.251  0.1929 -0.3250  1.3418
  230MOL0     H31050   9.150   9.810   5.302 -1.8465  1.5229 -0.1567
  231MOL0     O31051   4.540   4.608  10.121 -0.7373 -0.0558 -0.3399
  231MOL0     C31052   4.419   4.579  10.116 -0.3017 -0.9705  0.1058
  231MOL0     O31053   4.374   4.474  10.049 -0.5398 -0.2441 -0.7594
  231MOL0     C31054   4.457   4.416   9.957  0.2185 -0.7563  0.8518
  231MOL0     C31055   4.506   4.491   9.842  0.6015 -0.2938  1.1164
  231MOL0     C31056   4.574   4.420   9.734  0.5769 -0.4805 -0.4002
  231MOL0     C31057   4.585   4.278   9.736 -0.3919 -0.1187 -0.5708
  231MOL0     O31058   4.633   4.213   9.625  0.5702  0.0756  0.0399
  231MOL0     C31059   4.750   4.137   9.654 -0.7195  0.4189 -0.4763
  231MOL0     C31060   4.851   4.161   9.547  0.2770  0.3394 -0.1939
  231MOL0     C31061   4.804   4.143   9.398  0.4931 -0.3395 -0.7872
  231MOL0     C31062   4.906   4.197   9.304 -0.0515  0.2048 -0.3315
  231MOL0     C31063   4.860   4.211   9.159 -0.2341 -0.0900 -0.1761
  231MOL0     C31064   4.894   4.080   9.085  0.3851 -0.0943 -0.1071
  231MOL0     C31065   4.824   4.068   8.959  0.0322 -0.3108  0.5543
  231MOL0     C31066   4.681   4.014   8.962 -0.6848  0.0414 -0.6765
  231MOL0     N31067   4.661   3.868   8.965 -0.7021 -0.6227  0.4686
  231MOL0     C31068   4.651   3.794   9.082  0.5033 -0.1662  0.4788
  231MOL0     C31069   4.583   3.682   9.051  0.5362 -0.3552  0.2034
  231MOL0     C31070   4.555   3.570   9.150 -0.2198  0.2509 -0.6603
  231MOL0     C31071   4.393   3.563   9.171  0.2385  0.4453 -0.3173
  231MOL0     C31072   4.363   3.691   9.250 -0.0278  0.3025  0.1767
  231MOL0     C31073   4.209   3.711   9.259  0.2475  0.2248  0.4527
  231MOL0     O31074   4.147   3.727   9.129  0.1954 -0.2414  0.5073
  231MOL0     C31075   4.201   3.829   9.053 -0.3754  0.4848  1.1662
  231MOL0     C31076   4.229   3.955   9.107 -0.1296 -0.0316  0.0211
  231MOL0     C31077   4.257   4.061   9.026  0.0134 -0.1834  0.0889
  231MOL0     C31078   4.288   4.035   8.888  0.4637  0.6433 -0.5512
  231MOL0     C31079   4.356   4.142   8.812  0.3990  0.1717 -0.1745
  231MOL0     O31080   4.417   4.109   8.692  0.6282  0.0554 -0.2408
  231MOL0     C31081   4.482   4.207   8.615 -0.4689  0.1348  0.8983
  231MOL0     C31082   4.532   4.151   8.495 -0.2479 -0.1644  0.1203
  231MOL0     C31083   4.600   4.227   8.394 -0.2253 -0.7364 -0.2617
  231MOL0     C31084   4.627   4.359   8.413 -0.0946 -0.0158 -0.3471
  231MOL0     O31085   4.679   4.431   8.314 -0.0824 -0.1397 -0.0927
  231MOL0     C31086   4.803   4.492   8.349  0.1592 -0.3127 -0.0659
  231MOL0     C31087   4.844   4.556   8.219  0.0717  0.4675  0.2320
  231MOL0     C31088   4.868   4.463   8.102 -0.2997 -0.8531  0.1571
  231MOL0     C31089   4.960   4.355   8.131  0.2548 -0.1177 -0.3647
  231MOL0     C31090   4.994   4.265   8.015 -0.5265  0.0304 -0.3979
  231MOL0     C31091   5.104   4.335   7.928 -0.4906 -0.9409 -0.3204
  231MOL0     C31092   5.122   4.241   7.802  0.4212 -0.7659 -1.3893
  231MOL0     C31093   5.214   4.308   7.694  0.9647  0.5081 -0.6009
  231MOL0    Cl31094   5.205   4.214   7.546 -0.0899 -0.2019  0.3590
  231MOL0     C31095   4.577   4.419   8.528 -0.4236 -1.4602 -1.0609
  231MOL0     C31096   4.509   4.347   8.629 -1.2360  0.4932 -0.0053
  231MOL0     O31097   4.349   4.259   8.862 -0.0777  0.4552 -0.6160
  231MOL0     C31098   4.281   3.902   8.839 -0.1328  0.4781  0.3372
  231MOL0     C31099   4.237   3.800   8.918  0.4064  0.3018  0.7563
  231MOL0     N31100   4.554   3.693   8.916 -0.4665 -0.3464  0.1093
  231MOL0     N31101   4.593   3.808   8.874 -0.1916  0.7691 -0.6549
  231MOL0     C31102   4.548   4.212   9.850  0.5096 -0.0731 -0.1967
  231MOL0     C31103   4.482   4.280   9.958 -0.1604 -0.2711 -0.1410
  231MOL0     C31104   4.331   4.673  10.201 -0.5455  0.8793  0.1220
  231MOL0     C31105   4.194   4.644  10.200 -0.1480  0.3830 -0.5251
  231MOL0     C31106   4.102   4.715  10.285 -0.0098 -0.0194  0.7617
  231MOL0     C31107   4.144   4.823  10.359  0.7109  0.2877  0.1088
  231MOL0     O31108   4.057   4.894  10.442 -0.0949  0.1655  0.8614
  231MOL0     C31109   4.091   4.863  10.574 -0.5230  0.0487 -0.3808
  231MOL0     C31110   4.041   4.973  10.672  0.6456  0.1278 -0.3904
  231MOL0     C31111   4.078   5.117  10.629  0.4251  0.9962  0.3532
  231MOL0     C31112   4.069   5.224  10.737  0.0068 -0.4363 -0.0918
  231MOL0     C31113   4.081   5.359  10.684  0.2799 -0.1222  0.0395
  231MOL0     C31114   4.090   5.472  10.645 -0.1333 -0.6785  0.0691
  231MOL0     C31115   4.280   4.855  10.346  0.6306 -0.8565  0.1809
  231MOL0     C31116   4.369   4.785  10.269  0.3653  0.0209 -0.3321
  231MOL0     C31117   4.511   4.837  10.285 -0.4807  1.0070  0.5751
  231MOL0     H31118   4.498   4.599   9.840 -0.2022 -0.2972  2.5546
  231MOL0     H31119   4.624   4.473   9.654  1.7838 -1.9976 -0.7016
  231MOL0     H31120   4.794   4.166   9.750 -2.9177 -2.0934  1.4382
  231MOL0     H31121   4.733   4.030   9.670  5.5403 -0.5475  2.4552
  231MOL0     H31122   4.931   4.091   9.574 -1.2721 -0.5274  2.5101
  231MOL0     H31123   4.883   4.266   9.551  0.8696  0.2970 -2.3292
  231MOL0     H31124   4.707   4.193   9.394  0.4464  0.1372  2.7295
  231MOL0     H31125   4.775   4.039   9.381  1.1684 -0.6125 -0.2960
  231MOL0     H31126   4.934   4.299   9.330  0.0626 -0.1067  0.7879
  231MOL0     H31127   5.001   4.144   9.309 -0.0309  0.2547 -0.2043
  231MOL0     H31128   4.754   4.230   9.175 -0.2629 -0.6302  0.3271
  231MOL0     H31129   4.903   4.303   9.119 -1.9036  0.5378 -0.5926
  231MOL0     H31130   5.003   4.084   9.085  0.3768  0.1156 -0.1900
  231MOL0     H31131   4.861   4.000   9.153 -1.5355  1.6828  1.1593
  231MOL0     H31132   4.863   3.993   8.889 -4.2488 -1.4220 -0.9669
  231MOL0     H31133   4.824   4.163   8.906 -1.6611 -1.3363 -1.4388
  231MOL0     H31134   4.634   4.060   9.050  0.6326  1.9415 -0.8920
  231MOL0     H31135   4.630   4.045   8.870 -2.9907 -2.2777 -0.2822
  231MOL0     H31136   4.669   3.827   9.184 -1.5150  0.8463  0.5605
  231MOL0     H31137   4.581   3.481   9.091 -6.2635 -1.9016 -0.6954
  231MOL0     H31138   4.618   3.583   9.238  1.3595 -0.7605 -1.5835
  231MOL0     H31139   4.329   3.563   9.083 -0.2427  1.1841  0.0278
  231MOL0     H31140   4.359   3.480   9.235 -0.1748  1.2398  0.5123
  231MOL0     H31141   4.407   3.784   9.212  2.5277 -1.0309 -0.3030
  231MOL0     H31142   4.405   3.674   9.350 -0.0995  3.1186  0.7709
  231MOL0     H31143   4.173   3.799   9.314 -0.4381  0.5181 -0.4412
  231MOL0     H31144   4.161   3.634   9.320 -3.8372  1.2043 -1.1890
  231MOL0     H31145   4.199   3.979   9.209  0.2520  1.3224 -0.1646
  231MOL0     H31146   4.260   4.166   9.052  2.2749 -0.5889  1.7511
  231MOL0     H31147   4.517   4.046   8.472  2.0174 -0.8121  1.2461
  231MOL0     H31148   4.618   4.190   8.293 -1.7421 -2.0387 -0.1077
  231MOL0     H31149   4.786   4.575   8.418  1.2032  0.9163 -1.2348
  231MOL0     H31150   4.882   4.423   8.382 -0.2789 -0.5867  0.4336
  231MOL0     H31151   4.780   4.634   8.178  2.7544  3.4111  1.2387
  231MOL0     H31152   4.943   4.599   8.237  3.3352 -5.2279 -1.3308
  231MOL0     H31153   4.773   4.417   8.071  0.1643 -2.9650  1.6382
  231MOL0     H31154   4.901   4.523   8.018  1.3564 -1.2975  0.4637
  231MOL0     H31155   4.923   4.296   8.215  0.4035  0.4057  0.0813
  231MOL0     H31156   5.050   4.404   8.170  0.1886  0.7556 -1.2793
  231MOL0     H31157   4.905   4.235   7.959 -0.4235  0.7474 -0.9716
  231MOL0     H31158   5.046   4.181   8.060  0.4816 -0.1671 -1.8424
  231MOL0     H31159   5.079   4.440   7.910 -1.5962 -0.9309  1.0626
  231MOL0     H31160   5.199   4.332   7.980 -0.5771  1.4711  0.0745
  231MOL0     H31161   5.025   4.215   7.758  0.5606 -0.5854 -1.8072
  231MOL0     H31162   5.168   4.147   7.833  1.8292 -0.1469 -1.5694
  231MOL0     H31163   5.163   4.401   7.667 -0.7878 -0.0601  0.5801
  231MOL0     H31164   5.318   4.313   7.728  1.1480 -0.0949 -1.0493
  231MOL0     H31165   4.593   4.526   8.536  3.2928 -1.7391 -2.5320
  231MOL0     H31166   4.499   4.394   8.727  0.7038 -1.2085  1.1001
  231MOL0     H31167   4.313   3.881   8.737 -1.2533  1.7969 -0.3249
  231MOL0     H31168   4.231   3.700   8.874 -0.7691  0.5936  0.2143
  231MOL0     H31169   4.545   4.104   9.854 -1.7308 -0.0524  0.1407
  231MOL0     H31170   4.435   4.226  10.040 -2.9509  0.8972 -0.8589
  231MOL0     H31171   4.158   4.575  10.125 -0.3308  3.0719 -3.0734
  231MOL0     H31172   3.995   4.698  10.288 -0.2724  0.1833 -3.2115
  231MOL0     H31173   4.200   4.862  10.584 -0.7161  0.8000  2.8616
  231MOL0     H31174   4.051   4.763  10.589 -2.6639  1.0855  1.3555
  231MOL0     H31175   4.073   4.945  10.773  2.2850 -1.4670 -1.2740
  231MOL0     H31176   3.932   4.965  10.664  0.4268  3.3218 -2.0860
  231MOL0     H31177   4.016   5.141  10.542  2.0232 -3.1239 -2.2011
  231MOL0     H31178   4.179   5.120  10.586  0.0190  0.3511 -0.6780
  231MOL0     H31179   3.969   5.221  10.782  0.8192  0.7731  1.9404
  231MOL0     H31180   4.144   5.215  10.815 -1.6036  3.6349  2.2692
  231MOL0     H31181   4.094   5.573  10.610  1.1961 -0.9572 -0.6604
  231MOL0     H31182   4.321   4.944  10.392 -0.3526  0.9190 -2.1941
  231MOL0     H31183   4.568   4.759  10.336 -1.4724 -1.2697 -1.6166
  231MOL0     H31184   4.556   4.874  10.192  0.4046 -1.0012  0.1571
  231MOL0     H31185   4.521   4.925  10.350  1.5587 -0.3809  2.2811
  232MOL0     O31186   9.614   1.560   0.072 -0.7665 -0.0983 -0.3368
  232MOL0     C31187   9.515   1.506   0.032  0.1472  0.3922 -0.1772
  232MOL0     O31188   9.470   1.516  -0.098 -0.2348 -0.6265  0.2282
  232MOL0     C31189   9.537   1.615  -0.175  0.1411  0.5503  0.4176
  232MOL0     C31190   9.629   1.570  -0.276  0.8963 -0.4173  0.2600
  232MOL0     C31191   9.694   1.667  -0.356  0.2346 -0.8106 -0.0207
  232MOL0     C31192   9.681   1.806  -0.330 -0.5852  0.4182 -0.0507
  232MOL0     O31193   9.747   1.906  -0.398 -0.2334  0.1705  0.2733
  232MOL0     C31194   9.809   1.884  -0.528 -0.1478  0.3467  0.2789
  232MOL0     C31195   9.862   2.011  -0.580 -0.2663  0.8172  0.3954
  232MOL0     C31196   9.770   2.078  -0.679  0.0523 -0.4805  0.1842
  232MOL0     C31197   9.841   2.205  -0.739 -0.3149  0.3056  0.2792
  232MOL0     C31198   9.743   2.282  -0.829 -0.6637  1.0402 -0.1777
  232MOL0     C31199   9.746   2.218  -0.962 -0.3038  0.4687 -0.0047
  232MOL0     C31200   9.662   2.296  -1.061  0.5047 -0.2800 -0.0111
  232MOL0     C31201   9.728   2.289  -1.205 -0.5864  0.5624 -0.9451
  232MOL0     N31202   9.653   2.347  -1.306  0.2323  0.7687  0.1316
  232MOL0     C31203   9.553   2.288  -1.371  0.6541  0.1770 -0.1440
  232MOL0     C31204   9.494   2.384  -1.450  0.2024 -0.7433 -0.6160
  232MOL0     C31205   9.389   2.377  -1.552  0.3962 -0.0929  0.3362
  232MOL0     C31206   9.268   2.272  -1.519 -0.4675  1.0415 -0.4803
  232MOL0     C31207   9.178   2.322  -1.395  0.7866 -0.2365  0.5886
  232MOL0     C31208   9.241   2.297  -1.270  0.4359 -0.8583 -0.1143
  232MOL0     O31209   9.293   2.168  -1.249  0.2938  0.9320  0.1513
  232MOL0     C31210   9.221   2.065  -1.196 -0.4065 -0.1010  0.1531
  232MOL0     C31211   9.114   2.081  -1.100 -1.5014 -0.2064 -0.1441
  232MOL0     C31212   9.060   1.960  -1.047 -0.2163 -0.6988  0.2907
  232MOL0     C31213   9.101   1.834  -1.107  0.8138 -0.0094 -0.2660
  232MOL0     C31214   9.027   1.712  -1.068  0.1430 -0.4017 -0.2650
  232MOL0     O31215   9.071   1.594  -1.133  0.5182  0.1582  0.5567
  232MOL0     C31216   9.022   1.465  -1.123 -0.0012  1.4023 -0.9408
  232MOL0     C31217   8.897   1.417  -1.066 -0.7301  0.2804 -0.2496
  232MOL0     C31218   8.861   1.283  -1.078 -0.1237 -0.8375 -0.4172
  232MOL0     C31219   8.940   1.192  -1.148 -0.0731 -0.5353 -0.1930
  232MOL0     O31220   8.886   1.066  -1.162 -0.3033 -0.2345 -0.1437
  232MOL0     C31221   8.889   0.999  -1.289 -1.4753 -0.2854 -0.3010
  232MOL0     C31222   8.987   0.882  -1.270 -0.7044 -0.6254  0.2216
  232MOL0     C31223   8.912   0.762  -1.210  0.1616  0.5106 -0.3029
  232MOL0     C31224   9.009   0.641  -1.189  0.2703 -0.2504 -0.1980
  232MOL0     C31225   9.099   0.604  -1.311 -0.2036 -0.9423  0.4883
  232MOL0     C31226   9.145   0.459  -1.299 -0.6012  1.0915 -0.5491
  232MOL0     C31227   9.264   0.438  -1.402 -0.6611  0.8803  0.3781
  232MOL0     C31228   9.340   0.307  -1.360  0.1572  0.0650 -0.4389
  232MOL0    Cl31229   9.436   0.322  -1.206  0.2986 -0.6287 -0.0132
  232MOL0     C31230   9.050   1.242  -1.218  0.2810 -0.3312 -0.7495
  232MOL0     C31231   9.094   1.369  -1.187 -0.0982 -0.1193  0.7886
  232MOL0     O31232   8.920   1.715  -1.003 -0.3475  0.0349 -0.0118
  232MOL0     C31233   9.199   1.829  -1.203  0.2209 -0.7323 -0.7912
  232MOL0     C31234   9.262   1.937  -1.244 -1.1754 -0.2410 -0.0485
  232MOL0     N31235   9.579   2.498  -1.453 -0.2484  0.3782 -0.8161
  232MOL0     N31236   9.673   2.471  -1.360  0.2537  0.0189 -0.1839
  232MOL0     C31237   9.576   1.841  -0.239 -0.2810  0.2768 -0.2386
  232MOL0     C31238   9.497   1.746  -0.174 -0.6009  0.9361  0.8397
  232MOL0     C31239   9.447   1.408   0.124 -0.4213 -0.1056 -0.1198
  232MOL0     C31240   9.442   1.446   0.261  0.1978 -0.8977  0.2570
  232MOL0     C31241   9.387   1.357   0.352 -0.0519 -0.2730  0.6153
  232MOL0     C31242   9.316   1.241   0.315 -0.4428 -0.3126 -0.2059
  232MOL0     O31243   9.251   1.165   0.408 -0.9124  0.8144 -0.4339
  232MOL0     C31244   9.106   1.161   0.397 -0.9711  0.2174  0.0060
  232MOL0     C31245   9.051   1.286   0.472 -0.6092 -0.5219  0.5188
  232MOL0     C31246   8.916   1.248   0.534 -0.0965  0.0834 -0.1941
  232MOL0     C31247   8.819   1.363   0.519  0.9055 -0.1753  0.4171
  232MOL0     C31248   8.854   1.479   0.603  1.3865  0.5450 -0.0464
  232MOL0     C31249   8.882   1.559   0.687 -0.5355 -0.7553  1.1449
  232MOL0     C31250   9.319   1.205   0.174 -0.6302 -0.3213 -0.1774
  232MOL0     C31251   9.387   1.287   0.083  0.0876 -0.1647  0.1942
  232MOL0     C31252   9.389   1.236  -0.060  0.4454  0.3356  0.3912
  232MOL0     H31253   9.654   1.465  -0.293  3.2085  0.3880 -2.1518
  232MOL0     H31254   9.761   1.625  -0.430 -0.6795 -3.2486  0.4334
  232MOL0     H31255   9.900   1.823  -0.531 -0.1387  0.3970 -2.0331
  232MOL0     H31256   9.735   1.851  -0.601  0.2996  2.1439 -1.0498
  232MOL0     H31257   9.961   1.987  -0.620  0.2528  2.0236  0.8735
  232MOL0     H31258   9.891   2.084  -0.503  0.2640  1.7915 -0.6934
  232MOL0     H31259   9.678   2.099  -0.623 -0.9073  1.8733 -2.1128
  232MOL0     H31260   9.736   2.017  -0.763  0.7154  1.8614 -1.8651
  232MOL0     H31261   9.882   2.269  -0.660  3.2310 -0.2472 -0.9623
  232MOL0     H31262   9.932   2.181  -0.794  0.2817  1.3210  0.7820
  232MOL0     H31263   9.642   2.273  -0.786 -0.0603 -0.8873  0.9507
  232MOL0     H31264   9.773   2.387  -0.832  3.2005  0.0988  0.2158
  232MOL0     H31265   9.848   2.199  -0.998 -0.4765 -0.5451  0.0105
  232MOL0     H31266   9.712   2.115  -0.947  1.4243 -0.1826 -0.3355
  232MOL0     H31267   9.656   2.404  -1.041 -2.0398 -0.6384  1.4612
  232MOL0     H31268   9.560   2.259  -1.072  0.6269 -0.0960 -2.4087
  232MOL0     H31269   9.828   2.331  -1.193  0.1224 -1.5438  1.1946
  232MOL0     H31270   9.755   2.186  -1.227  2.7123  1.0090  0.4164
  232MOL0     H31271   9.522   2.184  -1.359  0.0552  0.2991 -0.5651
  232MOL0     H31272   9.346   2.477  -1.551  1.6172  0.4523  0.2774
  232MOL0     H31273   9.435   2.368  -1.651  0.8637  5.4287 -0.2629
  232MOL0     H31274   9.209   2.265  -1.611  0.9729  1.9156 -1.5322
  232MOL0     H31275   9.317   2.176  -1.499  0.5385  1.3679 -1.2417
  232MOL0     H31276   9.079   2.274  -1.396 -0.1114  1.5396 -0.5680
  232MOL0     H31277   9.162   2.429  -1.408 -0.6264 -0.2751  1.7447
  232MOL0     H31278   9.169   2.319  -1.191  0.8730 -1.4978  0.4689
  232MOL0     H31279   9.326   2.366  -1.259  0.0144 -0.3022 -0.2577
  232MOL0     H31280   9.080   2.174  -1.057  1.9014  2.4234 -2.6564
  232MOL0     H31281   8.989   1.974  -0.967  1.5255 -2.6322  2.3152
  232MOL0     H31282   8.836   1.490  -1.013  1.5746  2.6570 -0.6475
  232MOL0     H31283   8.764   1.252  -1.043 -0.8640  2.2150  0.5363
  232MOL0     H31284   8.794   0.959  -1.326 -0.6462 -1.8831 -0.8120
  232MOL0     H31285   8.946   1.054  -1.364  1.4869 -1.0200  1.2547
  232MOL0     H31286   9.038   0.849  -1.361  3.0246  0.3353  1.7956
  232MOL0     H31287   9.073   0.912  -1.210 -0.0976 -0.5516 -0.6712
  232MOL0     H31288   8.869   0.797  -1.116  2.2733  2.6705 -0.0416
  232MOL0     H31289   8.831   0.731  -1.276 -0.8281  0.9787  0.6572
  232MOL0     H31290   8.953   0.552  -1.162  0.0870  0.5184  2.2108
  232MOL0     H31291   9.081   0.660  -1.109 -0.7236  1.6915  0.2929
  232MOL0     H31292   9.185   0.671  -1.315 -0.9429 -0.0054 -0.1110
  232MOL0     H31293   9.044   0.615  -1.405 -1.1359  3.4178  1.3441
  232MOL0     H31294   9.178   0.441  -1.196 -0.1542 -1.6472 -1.0854
  232MOL0     H31295   9.068   0.384  -1.321  0.2973 -0.3705  1.0263
  232MOL0     H31296   9.331   0.524  -1.403  2.0830 -1.0662 -1.3715
  232MOL0     H31297   9.231   0.424  -1.506  1.2974 -2.4515  0.0346
  232MOL0     H31298   9.269   0.224  -1.346 -1.0604  1.3143  1.2821
  232MOL0     H31299   9.407   0.272  -1.438  1.0114 -1.0508  0.7549
  232MOL0     H31300   9.111   1.181  -1.284  0.5678  0.8484 -1.6068
  232MOL0     H31301   9.187   1.399  -1.235 -0.5710  0.3111  0.1232
  232MOL0     H31302   9.231   1.728  -1.227  0.3481 -0.9797  0.3515
  232MOL0     H31303   9.335   1.932  -1.324 -1.9504  0.9560 -0.8660
  232MOL0     H31304   9.554   1.946  -0.220 -2.0574 -0.1885  0.4742
  232MOL0     H31305   9.429   1.794  -0.104 -0.4111  4.2962 -1.0893
  232MOL0     H31306   9.493   1.536   0.292 -1.5347  0.0282  0.5182
  232MOL0     H31307   9.409   1.393   0.452  2.1252  1.1650 -0.2998
  232MOL0     H31308   9.071   1.072   0.448  0.3901 -1.3633 -1.6561
  232MOL0     H31309   9.068   1.167   0.294  0.3549  0.0823 -0.5186
  232MOL0     H31310   9.031   1.366   0.400 -0.7681 -1.1630 -0.1512
  232MOL0     H31311   9.127   1.324   0.542 -0.9073  0.9607  0.0869
  232MOL0     H31312   8.938   1.215   0.636 -0.3044  1.5209  0.3372
  232MOL0     H31313   8.871   1.163   0.482  0.0654  0.6882 -1.3410
  232MOL0     H31314   8.821   1.402   0.416 -0.1277 -0.2739  0.3466
  232MOL0     H31315   8.718   1.333   0.547  1.1324  0.2968  1.8177
  232MOL0     H31316   8.930   1.626   0.756 -1.2648  2.8021 -1.5139
  232MOL0     H31317   9.267   1.115   0.145  0.7525 -2.0003  2.2195
  232MOL0     H31318   9.494   1.219  -0.083  0.2709  0.9133 -0.8888
  232MOL0     H31319   9.349   1.135  -0.076  0.1066  0.8912 -2.9627
  232MOL0     H31320   9.336   1.298  -0.132  0.7843  0.4633  0.2519
  233MOL0     O31321   6.318   7.409   7.829  0.1453 -0.0378 -0.2426
  233MOL0     C31322   6.409   7.492   7.807  0.5975  0.1983  1.1524
  233MOL0     O31323   6.389   7.632   7.778 -1.1951  1.0266 -0.6822
  233MOL0     C31324   6.262   7.661   7.745 -0.3433 -0.3148  0.6740
  233MOL0     C31325   6.215   7.776   7.800 -1.0249  0.1884 -0.8449
  233MOL0     C31326   6.087   7.827   7.762  0.0300 -0.5131 -0.1779
  233MOL0     C31327   6.012   7.764   7.657 -0.2836 -0.1486  0.3086
  233MOL0     O31328   5.887   7.812   7.637 -0.0784 -0.0520  0.4795
  233MOL0     C31329   5.797   7.736   7.567  0.8668  0.2161  0.1744
  233MOL0     C31330   5.726   7.642   7.668  0.8087  0.8082 -0.3882
  233MOL0     C31331   5.594   7.578   7.613 -0.7515  0.6304 -0.0681
  233MOL0     C31332   5.624   7.464   7.507  0.1678 -0.0752  0.1367
  233MOL0     C31333   5.514   7.484   7.405 -0.6909 -1.1105  0.3435
  233MOL0     C31334   5.533   7.601   7.303 -0.6469  0.9065  0.6363
  233MOL0     C31335   5.437   7.580   7.190 -0.4478  0.0901  0.4627
  233MOL0     C31336   5.455   7.453   7.105  0.1212 -0.9227 -1.1919
  233MOL0     N31337   5.585   7.420   7.048 -0.6370 -0.7855 -0.1508
  233MOL0     C31338   5.671   7.510   6.991  0.8274  1.6752  0.4748
  233MOL0     C31339   5.778   7.438   6.955 -0.2978 -0.4301 -0.6802
  233MOL0     C31340   5.895   7.487   6.870 -0.5755  0.1162  0.1851
  233MOL0     C31341   6.031   7.416   6.891  0.6209 -0.1034 -0.0991
  233MOL0     C31342   6.147   7.480   6.806 -0.4765  0.5440  0.6494
  233MOL0     C31343   6.282   7.433   6.855  0.0393  0.8654  0.3727
  233MOL0     O31344   6.371   7.496   6.761 -0.1407  0.1890  0.3101
  233MOL0     C31345   6.505   7.468   6.773  1.5912  0.8774  0.0963
  233MOL0     C31346   6.591   7.500   6.666  0.3517 -0.5288 -0.1518
  233MOL0     C31347   6.730   7.496   6.693  0.7183 -0.0610  0.6733
  233MOL0     C31348   6.785   7.464   6.816 -0.1898  0.2824 -0.5335
  233MOL0     C31349   6.933   7.466   6.846  0.0220 -0.7330 -0.0070
  233MOL0     O31350   7.010   7.523   6.740 -0.4861  0.5642  0.5113
  233MOL0     C31351   7.132   7.587   6.760 -0.1468 -0.4642 -0.2742
  233MOL0     C31352   7.181   7.619   6.894 -0.0208 -1.0948  0.4462
  233MOL0     C31353   7.304   7.692   6.909  0.1827  0.7569 -0.4930
  233MOL0     C31354   7.381   7.724   6.796 -0.5176  0.6247  0.6312
  233MOL0     O31355   7.507   7.795   6.811  0.0288  0.9206  0.2377
  233MOL0     C31356   7.622   7.718   6.758  0.7792  0.0889 -0.3729
  233MOL0     C31357   7.743   7.703   6.848 -0.3842  0.3805 -0.4817
  233MOL0     C31358   7.853   7.645   6.771  0.0902  1.1167 -0.4219
  233MOL0     C31359   7.978   7.654   6.848  0.5936 -0.3615 -0.1980
  233MOL0     C31360   8.086   7.571   6.769  0.3504 -0.7020 -0.0485
  233MOL0     C31361   8.226   7.598   6.822  0.1122  0.3128  0.8393
  233MOL0     C31362   8.254   7.528   6.955  0.1741  1.0832 -0.3947
  233MOL0     C31363   8.358   7.615   7.027 -0.2542  0.0614 -0.3292
  233MOL0    Cl31364   8.427   7.531   7.156  0.5499  0.2335 -0.2520
  233MOL0     C31365   7.328   7.693   6.673  0.9582 -0.2723  0.4368
  233MOL0     C31366   7.210   7.629   6.644 -0.0095 -0.0289 -0.2915
  233MOL0     O31367   6.974   7.442   6.959 -0.1492 -0.0143 -0.4845
  233MOL0     C31368   6.697   7.433   6.916 -0.2935  0.4306 -0.4502
  233MOL0     C31369   6.563   7.436   6.892 -0.4292 -1.3779 -0.0591
  233MOL0     N31370   5.754   7.306   7.001  0.0034 -0.2228 -0.0262
  233MOL0     N31371   5.640   7.294   7.054  0.2156 -0.3449 -1.1644
  233MOL0     C31372   6.063   7.640   7.611  0.5140  0.1827 -1.1347
  233MOL0     C31373   6.186   7.593   7.658  0.6825 -0.3323  0.7291
  233MOL0     C31374   6.545   7.445   7.816 -0.3699  0.4521 -0.6993
  233MOL0     C31375   6.640   7.516   7.892  1.1768 -0.2850 -0.0948
  233MOL0     C31376   6.775   7.480   7.898 -0.9397 -0.3512  0.3989
  233MOL0     C31377   6.819   7.367   7.835  0.0556 -0.3359 -0.2049
  233MOL0     O31378   6.953   7.339   7.866 -0.1578  0.3803  0.5127
  233MOL0     C31379   7.014   7.260   7.769  0.2143  0.4425 -0.0199
  233MOL0     C31380   7.063   7.137   7.852 -0.3528 -0.3042 -0.5795
  233MOL0     C31381   6.945   7.045   7.900  0.5843  0.5754  0.4916
  233MOL0     C31382   7.007   6.907   7.938  0.0463 -0.4812  0.0292
  233MOL0     C31383   6.908   6.830   8.015  0.8568  0.5347 -0.3272
  233MOL0     C31384   6.842   6.763   8.094  0.5963  0.2245 -0.2535
  233MOL0     C31385   6.721   7.286   7.763  0.1369 -0.1146 -0.2722
  233MOL0     C31386   6.590   7.328   7.751 -1.0718 -0.8544  0.0516
  233MOL0     C31387   6.501   7.257   7.660  0.4962  0.8089 -0.0540
  233MOL0     H31388   6.273   7.825   7.878 -2.2124 -2.8252  2.1984
  233MOL0     H31389   6.026   7.891   7.825 -0.5455 -0.7160 -0.5201
  233MOL0     H31390   5.719   7.797   7.522  2.0921 -0.2143 -2.7846
  233MOL0     H31391   5.832   7.681   7.479 -2.2828 -1.9196  0.0757
  233MOL0     H31392   5.692   7.690   7.760 -0.1285 -3.1831  1.5967
  233MOL0     H31393   5.789   7.554   7.688 -2.9704 -2.4025 -1.3232
  233MOL0     H31394   5.532   7.658   7.571 -1.1021  0.4879  0.1691
  233MOL0     H31395   5.538   7.522   7.689 -0.3139 -2.9361 -2.1419
  233MOL0     H31396   5.722   7.475   7.460  0.1207  2.9218  0.5675
  233MOL0     H31397   5.616   7.365   7.553 -0.2636  0.6497  1.7138
  233MOL0     H31398   5.533   7.398   7.340  7.0435  2.1633 -2.9978
  233MOL0     H31399   5.422   7.493   7.463 -0.4673  1.5924  0.3772
  233MOL0     H31400   5.512   7.696   7.352  0.4204  0.4241  2.1126
  233MOL0     H31401   5.638   7.597   7.272 -0.3075 -1.4570  1.8705
  233MOL0     H31402   5.447   7.663   7.120  2.0015  0.4266  1.1286
  233MOL0     H31403   5.334   7.598   7.222 -1.6086  1.5274 -3.5792
  233MOL0     H31404   5.417   7.370   7.166 -0.2303 -0.4664 -0.7863
  233MOL0     H31405   5.382   7.448   7.023 -1.8783 -3.0498  0.5482
  233MOL0     H31406   5.666   7.612   6.954 -0.6175  0.6922 -2.3083
  233MOL0     H31407   5.879   7.486   6.762 -1.1770  1.4134  0.2516
  233MOL0     H31408   5.887   7.595   6.881  1.2795  0.3500 -0.4911
  233MOL0     H31409   6.058   7.421   6.997 -0.9217 -1.7082  0.4241
  233MOL0     H31410   6.024   7.312   6.856  2.6014  0.3491 -2.0395
  233MOL0     H31411   6.153   7.589   6.810  0.5435  0.5940 -1.2046
  233MOL0     H31412   6.146   7.440   6.704  4.0717  2.1356 -0.2775
  233MOL0     H31413   6.291   7.325   6.845  1.6317  1.1450 -2.2818
  233MOL0     H31414   6.303   7.464   6.958  2.2770  3.8111 -0.8032
  233MOL0     H31415   6.546   7.545   6.579 -1.2608 -2.1755 -0.2235
  233MOL0     H31416   6.791   7.534   6.612  2.0389 -0.4506  1.4507
  233MOL0     H31417   7.135   7.608   6.992 -0.8965  0.0344  0.1923
  233MOL0     H31418   7.344   7.716   7.007 -1.4443 -1.0682  0.7219
  233MOL0     H31419   7.591   7.620   6.719 -2.7194  1.4137 -1.3328
  233MOL0     H31420   7.649   7.778   6.671  0.6092  0.1581 -0.3786
  233MOL0     H31421   7.759   7.803   6.891  0.4102 -0.9184  2.5146
  233MOL0     H31422   7.720   7.629   6.924 -1.5206 -0.2508 -1.4206
  233MOL0     H31423   7.837   7.540   6.747 -0.9100  1.0401  0.4967
  233MOL0     H31424   7.882   7.697   6.679 -1.1337 -0.0587 -1.5118
  233MOL0     H31425   7.967   7.600   6.942  1.7563 -1.1079 -0.4667
  233MOL0     H31426   8.001   7.761   6.857 -2.4721  0.5516 -1.8213
  233MOL0     H31427   8.075   7.609   6.667 -1.3525  0.9694  0.6759
  233MOL0     H31428   8.047   7.469   6.773 -0.1359 -0.5343 -0.4087
  233MOL0     H31429   8.306   7.550   6.765  0.4864 -1.9725  3.0868
  233MOL0     H31430   8.239   7.706   6.823 -0.0597  0.5871 -4.0546
  233MOL0     H31431   8.294   7.428   6.936 -2.6540 -0.4750  1.0803
  233MOL0     H31432   8.159   7.510   7.007 -0.3944  2.5633 -0.8610
  233MOL0     H31433   8.431   7.645   6.951  1.2985 -0.6557  0.8166
  233MOL0     H31434   8.308   7.703   7.067  2.7791  1.4114  0.7858
  233MOL0     H31435   7.395   7.726   6.594 -0.5726 -1.2666 -1.3587
  233MOL0     H31436   7.175   7.604   6.544 -3.7548  1.7308  0.3706
  233MOL0     H31437   6.734   7.419   7.017  1.3075  2.1527 -0.7318
  233MOL0     H31438   6.500   7.418   6.978 -2.2518 -1.8562 -1.4366
  233MOL0     H31439   6.008   7.569   7.552 -0.3744  1.5531 -2.0232
  233MOL0     H31440   6.229   7.500   7.623 -0.5676 -0.5029 -0.4764
  233MOL0     H31441   6.601   7.606   7.938 -0.0460 -1.0971  0.4991
  233MOL0     H31442   6.842   7.540   7.959 -0.9681  0.1073 -0.0125
  233MOL0     H31443   7.112   7.304   7.746  0.0814  1.7763  1.8068
  233MOL0     H31444   6.971   7.250   7.669  2.8305  2.5566 -1.4977
  233MOL0     H31445   7.109   7.167   7.946 -1.8915 -1.9031  0.7567
  233MOL0     H31446   7.148   7.089   7.803  1.2510 -0.5892  2.2643
  233MOL0     H31447   6.882   7.035   7.811  3.0551 -1.9936 -1.1347
  233MOL0     H31448   6.888   7.081   7.986 -1.3514 -4.9696  1.9655
  233MOL0     H31449   7.043   6.854   7.849 -1.8077 -1.0520 -0.4232
  233MOL0     H31450   7.097   6.941   7.990  0.2310  1.0838 -1.2315
  233MOL0     H31451   6.782   6.736   8.179 -0.4998 -0.9189 -1.3303
  233MOL0     H31452   6.740   7.194   7.709  0.6193  0.8407 -1.7934
  233MOL0     H31453   6.443   7.320   7.592 -1.0812 -0.2968  0.2175
  233MOL0     H31454   6.554   7.189   7.593  0.1253  2.3866 -2.0366
  233MOL0     H31455   6.423   7.200   7.711 -0.3883  1.3822 -0.7483
  234MOL0     O31456   0.594   2.195   4.115  0.2792  0.1233  0.2843
  234MOL0     C31457   0.514   2.157   4.206 -0.7851 -0.0049  1.0419
  234MOL0     O31458   0.544   2.063   4.296 -0.6572 -0.8895  0.4766
  234MOL0     C31459   0.654   1.975   4.271  0.5776 -0.4419  0.4823
  234MOL0     C31460   0.734   1.943   4.374 -1.1134  1.0646 -0.1634
  234MOL0     C31461   0.853   1.864   4.363 -0.4128  0.1034 -0.0297
  234MOL0     C31462   0.900   1.833   4.231  0.1888 -0.5419 -0.3799
  234MOL0     O31463   1.023   1.776   4.212  0.1638 -0.1471 -0.1939
  234MOL0     C31464   1.119   1.805   4.318 -0.2732 -0.1835  0.6692
  234MOL0     C31465   1.263   1.780   4.271  0.3849  0.3503  0.3766
  234MOL0     C31466   1.358   1.804   4.386  0.2453  0.1062 -0.5785
  234MOL0     C31467   1.498   1.746   4.360 -0.9089  0.7611 -0.1617
  234MOL0     C31468   1.591   1.835   4.277 -0.0517  0.5305 -0.6152
  234MOL0     C31469   1.637   1.961   4.368  0.6589 -0.4569 -0.0912
  234MOL0     C31470   1.786   1.975   4.366 -0.2886 -0.8381  0.3541
  234MOL0     C31471   1.859   1.881   4.457 -1.0368 -0.2145  0.1591
  234MOL0     N31472   2.001   1.921   4.466  0.5817  0.2920 -0.7002
  234MOL0     C31473   2.100   1.823   4.449 -1.3280 -0.8567 -0.2592
  234MOL0     C31474   2.209   1.873   4.516  0.0262  0.0678  0.2278
  234MOL0     C31475   2.341   1.802   4.508  1.3857 -1.2309  0.2374
  234MOL0     C31476   2.438   1.873   4.607 -0.3649 -0.1980  0.4158
  234MOL0     C31477   2.555   1.781   4.655  0.4072  0.5049 -0.2533
  234MOL0     C31478   2.625   1.853   4.773 -0.0854  0.2823  1.0661
  234MOL0     O31479   2.737   1.766   4.808  0.4171 -0.8049 -0.0587
  234MOL0     C31480   2.857   1.820   4.783 -1.7874  0.4456  0.3288
  234MOL0     C31481   2.897   1.930   4.704  0.3284  0.5432  0.0925
  234MOL0     C31482   3.026   1.967   4.692  0.0214 -0.5927 -0.3768
  234MOL0     C31483   3.135   1.882   4.730  0.5479  0.5401 -0.2883
  234MOL0     C31484   3.276   1.906   4.702  0.0007  0.1207  0.4692
  234MOL0     O31485   3.358   1.793   4.713 -0.0904 -0.2104 -0.7782
  234MOL0     C31486   3.479   1.783   4.649 -0.8285  0.7873 -0.7590
  234MOL0     C31487   3.568   1.704   4.712  0.3132 -0.0078 -0.0387
  234MOL0     C31488   3.707   1.713   4.682 -0.1677  0.0868  0.2659
  234MOL0     C31489   3.752   1.798   4.579 -0.3072 -0.6307  0.4400
  234MOL0     O31490   3.884   1.816   4.547  0.0310  0.0902 -0.0235
  234MOL0     C31491   3.935   1.952   4.524 -0.7048 -0.0777 -0.0975
  234MOL0     C31492   3.951   2.021   4.665  0.7823  0.2806  0.0719
  234MOL0     C31493   4.034   2.153   4.655  0.1560 -1.2122 -0.0079
  234MOL0     C31494   3.953   2.268   4.602 -0.5889 -0.1420  0.5119
  234MOL0     C31495   4.022   2.407   4.634 -0.3215  0.4423 -0.4209
  234MOL0     C31496   3.986   2.515   4.531 -0.8887 -0.2558 -0.7073
  234MOL0     C31497   3.868   2.601   4.586 -0.3861 -0.1002 -0.5727
  234MOL0     C31498   3.840   2.735   4.521  0.3597 -0.0268  0.4416
  234MOL0    Cl31499   3.938   2.861   4.593  0.0382  0.1219 -0.4354
  234MOL0     C31500   3.655   1.867   4.507  0.2254  0.0947 -0.1690
  234MOL0     C31501   3.515   1.858   4.543  0.2191  0.6804 -0.3166
  234MOL0     O31502   3.299   2.017   4.654 -0.1523  0.1203 -0.2009
  234MOL0     C31503   3.101   1.773   4.808  0.0062 -0.3747 -1.0192
  234MOL0     C31504   2.968   1.751   4.844 -0.4566  0.1188 -0.8501
  234MOL0     N31505   2.165   1.993   4.575  0.0849 -0.2502 -0.0078
  234MOL0     N31506   2.048   2.021   4.540  0.0296  0.1477 -0.0171
  234MOL0     C31507   0.820   1.863   4.130 -0.3446 -0.0146 -0.0121
  234MOL0     C31508   0.699   1.931   4.145 -0.8568 -1.0787  0.1836
  234MOL0     C31509   0.376   2.220   4.226  0.1174 -0.5497  0.5095
  234MOL0     C31510   0.334   2.317   4.125  0.4762 -0.5342 -0.0027
  234MOL0     C31511   0.208   2.368   4.136 -0.0583  0.1551  0.6198
  234MOL0     C31512   0.119   2.346   4.250  0.3628 -0.9393 -0.6751
  234MOL0     O31513   0.000   2.410   4.265  0.6291 -0.2436 -0.0474
  234MOL0     C31514  -0.004   2.518   4.357 -1.0306  0.6824  0.2559
  234MOL0     C31515  -0.039   2.657   4.297 -0.2970 -0.4938 -0.3038
  234MOL0     C31516  -0.134   2.645   4.182  0.8328  0.8393  0.2562
  234MOL0     C31517  -0.179   2.780   4.126  0.6186  0.2101  0.1863
  234MOL0     C31518  -0.304   2.751   4.055  0.7140  0.1657 -0.4688
  234MOL0     C31519  -0.410   2.728   3.991 -0.3594 -0.9020  0.1918
  234MOL0     C31520   0.159   2.250   4.341  0.0468  0.7461 -0.0231
  234MOL0     C31521   0.279   2.186   4.338 -0.8293 -0.5108  0.1000
  234MOL0     C31522   0.318   2.090   4.449  0.0567  0.0741 -0.1512
  234MOL0     H31523   0.721   1.969   4.479  0.3604  0.1420  0.2903
  234MOL0     H31524   0.908   1.836   4.452 -0.5297  1.9407  0.6509
  234MOL0     H31525   1.104   1.907   4.354  2.7499  0.0887  1.3919
  234MOL0     H31526   1.100   1.739   4.404  0.4764  0.1617  1.1090
  234MOL0     H31527   1.279   1.856   4.194 -0.1437  1.9744  1.8087
  234MOL0     H31528   1.262   1.680   4.227  1.5504  0.4978 -0.0059
  234MOL0     H31529   1.317   1.746   4.469 -1.2040  1.9402  0.0492
  234MOL0     H31530   1.366   1.907   4.421  2.1293  0.5012 -1.9977
  234MOL0     H31531   1.543   1.741   4.459 -1.0095  2.0312 -0.0322
  234MOL0     H31532   1.479   1.647   4.319 -2.1020 -0.9104  3.9464
  234MOL0     H31533   1.672   1.771   4.240  1.4658  1.7284  0.4951
  234MOL0     H31534   1.545   1.874   4.186  2.1343 -1.5620 -2.7807
  234MOL0     H31535   1.600   2.050   4.316  2.4766 -0.7019 -1.9165
  234MOL0     H31536   1.596   1.955   4.470  1.8720 -2.5397  0.3200
  234MOL0     H31537   1.807   2.077   4.397 -1.0549 -0.3145 -0.7857
  234MOL0     H31538   1.822   1.966   4.263  1.5313 -0.4940  0.9204
  234MOL0     H31539   1.806   1.884   4.553  0.6823  3.2250  1.1414
  234MOL0     H31540   1.846   1.778   4.422 -2.7379  1.1409 -3.6783
  234MOL0     H31541   2.112   1.725   4.405  1.2929 -1.4618  1.6044
  234MOL0     H31542   2.329   1.697   4.536  1.7866 -1.1701  0.6508
  234MOL0     H31543   2.379   1.803   4.405  2.4767 -2.5096  0.5924
  234MOL0     H31544   2.477   1.965   4.561 -2.6384  0.5559 -0.1104
  234MOL0     H31545   2.369   1.897   4.689 -3.8920 -0.3614 -2.2930
  234MOL0     H31546   2.628   1.765   4.574 -1.2484 -3.0421 -1.2560
  234MOL0     H31547   2.525   1.682   4.692  1.7227 -0.3805 -1.4363
  234MOL0     H31548   2.553   1.869   4.854 -1.2234  4.1755 -0.5084
  234MOL0     H31549   2.649   1.952   4.735  0.4372  0.9799  3.0908
  234MOL0     H31550   2.821   1.986   4.650  0.0134 -1.6443 -1.8727
  234MOL0     H31551   3.047   2.061   4.642 -4.8511 -0.0710 -1.9820
  234MOL0     H31552   3.541   1.655   4.805  1.1554 -0.5611 -0.0706
  234MOL0     H31553   3.786   1.663   4.737  1.8345  3.2654  0.5207
  234MOL0     H31554   4.041   1.942   4.499 -0.1529 -1.1189  2.3720
  234MOL0     H31555   3.880   2.010   4.449  0.0254  0.4764 -0.2195
  234MOL0     H31556   3.856   2.049   4.713  0.1614 -1.9541  0.2385
  234MOL0     H31557   3.992   1.955   4.742 -2.3856 -2.9205 -0.7451
  234MOL0     H31558   4.062   2.177   4.758 -1.3396  0.8281 -0.0077
  234MOL0     H31559   4.124   2.141   4.594  0.8344 -0.4362  0.8174
  234MOL0     H31560   3.848   2.269   4.631 -0.6353  3.8888  0.7724
  234MOL0     H31561   3.954   2.261   4.493  2.0626 -0.1711  0.4631
  234MOL0     H31562   4.131   2.397   4.629 -0.1980  1.8053 -0.6737
  234MOL0     H31563   3.994   2.433   4.737 -0.5762 -0.2499 -0.3124
  234MOL0     H31564   4.071   2.583   4.525 -0.8418  0.0597  2.1359
  234MOL0     H31565   3.974   2.462   4.436 -4.1310 -4.8757  1.8701
  234MOL0     H31566   3.886   2.631   4.690 -1.3577 -4.3299  0.9987
  234MOL0     H31567   3.777   2.542   4.587 -1.7307  1.8586  1.4216
  234MOL0     H31568   3.866   2.721   4.416 -0.0236 -1.3468  0.5079
  234MOL0     H31569   3.733   2.754   4.531  0.1032 -1.8476  1.7071
  234MOL0     H31570   3.663   1.929   4.418 -4.1035 -0.7896 -1.4413
  234MOL0     H31571   3.440   1.909   4.484  1.1458  2.5181  0.0326
  234MOL0     H31572   3.176   1.715   4.863 -1.5945 -2.2623 -0.7163
  234MOL0     H31573   2.952   1.674   4.918 -1.7458  1.8826  0.7972
  234MOL0     H31574   0.838   1.810   4.037 -2.5983 -0.5097 -0.2474
  234MOL0     H31575   0.650   1.951   4.050  1.2237 -1.8708 -1.1185
  234MOL0     H31576   0.404   2.338   4.045  0.0371 -0.3808 -0.3523
  234MOL0     H31577   0.177   2.423   4.048  2.9263  0.2538 -0.4877
  234MOL0     H31578   0.090   2.525   4.412 -1.3995  1.4960  0.7913
  234MOL0     H31579  -0.082   2.497   4.431  2.2309  1.0660  4.1584
  234MOL0     H31580   0.056   2.697   4.261  0.7692 -4.2657 -2.1780
  234MOL0     H31581  -0.079   2.716   4.380 -0.6119  1.7650 -1.9742
  234MOL0     H31582  -0.223   2.609   4.236  0.9324  4.5932  3.4114
  234MOL0     H31583  -0.104   2.577   4.103  1.0643  0.7277  0.4407
  234MOL0     H31584  -0.207   2.847   4.207 -2.6242 -0.2738 -0.3899
  234MOL0     H31585  -0.109   2.826   4.056  0.9007  0.6456  0.7510
  234MOL0     H31586  -0.499   2.713   3.933 -0.7306 -0.1066  0.5473
  234MOL0     H31587   0.075   2.232   4.408 -1.1638  0.0966 -1.6349
  234MOL0     H31588   0.361   1.994   4.418 -2.6414 -0.4589 -2.7818
  234MOL0     H31589   0.393   2.142   4.508  2.5030 -0.0856 -2.9201
  234MOL0     H31590   0.229   2.069   4.510 -0.1547  2.6129  0.5022
  235MOL0     O31591  10.128   7.811   7.133  0.1812  0.0547 -0.0731
  235MOL0     C31592  10.132   7.880   7.027  0.2669 -0.1606 -0.3429
  235MOL0     O31593  10.027   7.950   6.969 -0.4949  0.0410 -0.1819
  235MOL0     C31594   9.904   7.965   7.028  0.1397  0.3912  0.4594
  235MOL0     C31595   9.826   8.059   6.964 -0.1327 -1.1210 -0.5474
  235MOL0     C31596   9.695   8.094   7.012 -0.1400  0.0795  0.1666
  235MOL0     C31597   9.649   8.037   7.130  0.3741  0.2856  0.4485
  235MOL0     O31598   9.524   8.073   7.160  0.7526 -0.5425 -0.0130
  235MOL0     C31599   9.477   8.047   7.291 -1.0421 -0.4039  0.7408
  235MOL0     C31600   9.325   8.080   7.292  0.4672  0.1227  0.6369
  235MOL0     C31601   9.266   8.041   7.431 -0.4612  0.1533  0.4592
  235MOL0     C31602   9.118   8.060   7.420 -0.2491 -0.6413 -0.1234
  235MOL0     C31603   9.066   8.045   7.574  0.5774  0.7501 -0.1438
  235MOL0     C31604   8.928   8.100   7.581 -0.2910 -0.2045 -0.2487
  235MOL0     C31605   8.875   8.120   7.720  0.4603 -0.2158 -0.3791
  235MOL0     C31606   8.961   8.217   7.801 -1.0442 -0.2260  0.3376
  235MOL0     N31607   8.884   8.260   7.920  0.1220 -0.3057  0.2826
  235MOL0     C31608   8.819   8.191   8.025  0.2891  0.0237  0.4451
  235MOL0     C31609   8.764   8.284   8.104  0.0453  0.6753 -1.1638
  235MOL0     C31610   8.678   8.265   8.224 -0.9296 -0.0663 -0.0831
  235MOL0     C31611   8.701   8.130   8.293  0.1229  0.0799  0.0849
  235MOL0     C31612   8.837   8.124   8.381  0.9407 -0.4546  0.2394
  235MOL0     C31613   8.835   8.005   8.481 -0.4163  0.7397  1.0560
  235MOL0     O31614   8.836   7.869   8.425 -0.7732  0.4982  0.4500
  235MOL0     C31615   8.853   7.761   8.506 -0.2043 -0.6523  0.3663
  235MOL0     C31616   8.833   7.639   8.443  0.0272  0.7911  0.0386
  235MOL0     C31617   8.855   7.519   8.511  0.2217 -0.3240  0.2437
  235MOL0     C31618   8.900   7.513   8.636 -0.0302  0.5787 -0.7670
  235MOL0     C31619   8.941   7.380   8.701  1.2098 -0.1356 -0.4756
  235MOL0     O31620   8.976   7.389   8.832  0.0032 -0.2184 -0.1079
  235MOL0     C31621   8.992   7.274   8.906  0.1860  0.3428  0.1948
  235MOL0     C31622   9.062   7.165   8.871  0.2118  0.3456  0.6422
  235MOL0     C31623   9.062   7.049   8.952 -0.1277 -1.0535 -0.6735
  235MOL0     C31624   8.981   7.039   9.070  0.6102  0.5268  0.6149
  235MOL0     O31625   8.972   6.927   9.148 -0.9234 -0.5569 -0.2052
  235MOL0     C31626   9.024   6.802   9.094 -0.0003 -0.1706  0.3353
  235MOL0     C31627   9.022   6.703   9.212 -0.1445 -1.0779 -0.3924
  235MOL0     C31628   9.118   6.736   9.329  0.5199 -0.4662 -0.4735
  235MOL0     C31629   9.130   6.628   9.443 -0.0623  0.1232 -0.4332
  235MOL0     C31630   9.198   6.487   9.406  0.1720 -0.2799 -0.5248
  235MOL0     C31631   9.097   6.384   9.365  0.0787 -0.1255 -0.0697
  235MOL0     C31632   9.158   6.272   9.289  0.1025 -0.8880 -0.1003
  235MOL0     C31633   9.139   6.128   9.343 -0.4288  0.0496 -0.1401
  235MOL0    Cl31634   8.961   6.096   9.370  0.5266 -0.0258 -0.3830
  235MOL0     C31635   8.929   7.161   9.116  0.8774 -0.2490  0.2251
  235MOL0     C31636   8.930   7.278   9.031  0.1225  0.4417 -0.4623
  235MOL0     O31637   8.928   7.271   8.641  0.3770 -0.5045 -0.6717
  235MOL0     C31638   8.920   7.628   8.706 -0.6043 -0.5075  1.0317
  235MOL0     C31639   8.888   7.755   8.645 -0.2329  0.2214 -0.0975
  235MOL0     N31640   8.795   8.407   8.052  0.1769 -0.3475  0.1574
  235MOL0     N31641   8.861   8.397   7.941  0.8440  0.0479  0.3403
  235MOL0     C31642   9.727   7.931   7.183  0.9156 -0.7178 -0.5456
  235MOL0     C31643   9.846   7.901   7.141 -0.0321 -0.8944 -0.1378
  235MOL0     C31644  10.262   7.892   6.952 -1.1740  0.1838  0.1319
  235MOL0     C31645  10.284   8.013   6.889  0.4416  0.0602  1.0278
  235MOL0     C31646  10.401   8.037   6.813 -0.5491 -0.1784  0.3468
  235MOL0     C31647  10.510   7.955   6.823  0.1959 -0.4304 -1.0654
  235MOL0     O31648  10.616   7.989   6.741  0.3401  0.3185 -0.3267
  235MOL0     C31649  10.744   7.933   6.759  0.7640  0.8306 -0.4918
  235MOL0     C31650  10.863   8.024   6.749  0.3304  0.5213 -0.0241
  235MOL0     C31651  10.835   8.155   6.824  0.2465  0.0565  1.0376
  235MOL0     C31652  10.924   8.260   6.785 -0.0249  0.4612  0.0372
  235MOL0     C31653  11.068   8.226   6.787  0.8693 -0.7904  0.5644
  235MOL0     C31654  11.184   8.195   6.818  0.2242  0.5368 -0.2817
  235MOL0     C31655  10.487   7.838   6.895  0.2901 -0.7523  0.6614
  235MOL0     C31656  10.379   7.807   6.966 -0.7401  0.5010  0.3883
  235MOL0     C31657  10.375   7.674   7.036  0.9413  0.3875  0.4327
  235MOL0     H31658   9.867   8.109   6.877 -3.0406  1.0759 -0.7992
  235MOL0     H31659   9.629   8.169   6.970 -0.8178 -0.5183  0.1489
  235MOL0     H31660   9.499   7.942   7.310  4.8070  0.0266 -1.6985
  235MOL0     H31661   9.528   8.113   7.362 -0.6145  1.7449 -1.4433
  235MOL0     H31662   9.279   8.015   7.216  1.2221  0.0853  0.1933
  235MOL0     H31663   9.313   8.186   7.268  2.2570  0.1999 -0.0766
  235MOL0     H31664   9.311   8.112   7.501  1.6445  0.2271 -0.8911
  235MOL0     H31665   9.294   7.937   7.450  0.5090  0.0068 -1.5628
  235MOL0     H31666   9.095   8.162   7.389  2.0796 -0.0383 -0.0123
  235MOL0     H31667   9.065   7.987   7.358 -0.2117  0.6473 -1.7256
  235MOL0     H31668   9.052   7.943   7.611  0.7685  1.4868  2.1346
  235MOL0     H31669   9.136   8.093   7.643 -0.1063 -3.0366  3.5980
  235MOL0     H31670   8.918   8.194   7.527 -0.6600  0.5218  1.0493
  235MOL0     H31671   8.862   8.029   7.530 -1.4412  0.4258  0.3127
  235MOL0     H31672   8.856   8.025   7.771  1.6815 -1.7877 -2.6684
  235MOL0     H31673   8.774   8.161   7.708  0.0755 -0.6809  0.9908
  235MOL0     H31674   9.055   8.168   7.828 -1.9734 -2.8764 -0.9151
  235MOL0     H31675   8.975   8.301   7.733 -0.8254 -0.2263  0.3813
  235MOL0     H31676   8.801   8.084   8.022  1.1869 -0.1102 -1.2330
  235MOL0     H31677   8.692   8.351   8.290 -1.5145 -0.3757  0.4672
  235MOL0     H31678   8.574   8.266   8.190 -1.6176 -0.6186  1.8466
  235MOL0     H31679   8.611   8.105   8.350  0.1777  0.3468  0.2935
  235MOL0     H31680   8.717   8.050   8.220 -1.6115  1.1126 -1.5292
  235MOL0     H31681   8.870   8.216   8.430  1.2735 -1.7514  2.6041
  235MOL0     H31682   8.916   8.113   8.306 -1.4202  0.7331 -2.6357
  235MOL0     H31683   8.749   8.022   8.546 -1.3192  2.7291 -0.5347
  235MOL0     H31684   8.923   8.021   8.544 -0.1823  0.7411  0.7328
  235MOL0     H31685   8.811   7.645   8.337 -3.1572 -0.5109  0.5178
  235MOL0     H31686   8.845   7.425   8.459  0.0067  1.7831 -3.9602
  235MOL0     H31687   9.114   7.170   8.777 -3.8903  0.3549 -1.8713
  235MOL0     H31688   9.117   6.964   8.912  3.2617 -0.4327  2.2017
  235MOL0     H31689   8.986   6.773   8.996  3.9963  0.0649 -1.4877
  235MOL0     H31690   9.131   6.793   9.073  0.0255 -1.2189  0.8383
  235MOL0     H31691   8.920   6.693   9.249 -0.8862 -0.8666 -2.2652
  235MOL0     H31692   9.038   6.604   9.167  1.4097 -1.5350  1.0513
  235MOL0     H31693   9.219   6.756   9.294  0.7190  0.0751  0.3786
  235MOL0     H31694   9.076   6.829   9.369  0.9423  0.9304 -3.0576
  235MOL0     H31695   9.035   6.594   9.483  0.4715 -4.0883 -2.2315
  235MOL0     H31696   9.188   6.672   9.525 -1.9982  2.7851 -0.3761
  235MOL0     H31697   9.251   6.439   9.489 -0.0177  0.8088  0.2563
  235MOL0     H31698   9.275   6.505   9.330  2.4969 -0.9912  1.5215
  235MOL0     H31699   9.044   6.356   9.456  1.1354  0.0050  0.6129
  235MOL0     H31700   9.014   6.419   9.303 -1.9226  0.5083  2.8051
  235MOL0     H31701   9.259   6.293   9.252 -1.5253  0.2252 -4.5895
  235MOL0     H31702   9.106   6.259   9.193 -0.8905 -1.0830  0.4494
  235MOL0     H31703   9.163   6.052   9.268  0.2849  1.1155 -1.0190
  235MOL0     H31704   9.186   6.107   9.439 -1.1944  1.5962  0.6063
  235MOL0     H31705   8.883   7.144   9.213  0.8545 -1.9363 -0.0379
  235MOL0     H31706   8.900   7.370   9.079  0.3939  0.3939 -0.1945
  235MOL0     H31707   8.960   7.628   8.807 -2.3388  0.3925  1.7499
  235MOL0     H31708   8.916   7.846   8.697 -0.2144 -1.0231  2.2113
  235MOL0     H31709   9.685   7.885   7.272 -2.1433  0.3046 -1.3481
  235MOL0     H31710   9.906   7.837   7.205 -0.8344 -0.3142  1.2459
  235MOL0     H31711  10.216   8.099   6.888  2.3540  1.7191 -1.7571
  235MOL0     H31712  10.419   8.134   6.768 -0.4932 -0.4319 -0.1777
  235MOL0     H31713  10.773   7.852   6.691 -1.6728  0.5260 -1.2610
  235MOL0     H31714  10.741   7.876   6.852 -0.9638  1.0757 -0.3688
  235MOL0     H31715  10.884   8.051   6.645  1.1774  0.7058  0.1913
  235MOL0     H31716  10.948   7.972   6.794 -0.0012 -0.0148 -0.0099
  235MOL0     H31717  10.838   8.138   6.932  2.3848 -1.9618  0.7644
  235MOL0     H31718  10.732   8.184   6.805  0.2929 -0.0606  0.5898
  235MOL0     H31719  10.896   8.290   6.684 -0.1978  2.8103  0.7303
  235MOL0     H31720  10.902   8.348   6.847  1.0691 -2.1760  4.6575
  235MOL0     H31721  11.289   8.191   6.839  0.0467 -2.2439  0.4920
  235MOL0     H31722  10.572   7.771   6.888  1.7232  0.6697  2.9235
  235MOL0     H31723  10.452   7.605   7.000 -1.2343 -2.0155  0.1011
  235MOL0     H31724  10.406   7.701   7.138 -1.9758 -1.4507  1.9554
  235MOL0     H31725  10.275   7.630   7.042  0.7501  0.9015  4.9134
  236MOL0     O31726   7.247   8.507   7.247  0.3022 -0.0526 -0.1844
  236MOL0     C31727   7.125   8.468   7.241 -0.2266  0.2303 -1.0903
  236MOL0     O31728   7.081   8.360   7.170 -0.5675  0.1797  0.3862
  236MOL0     C31729   7.169   8.310   7.072  0.5669  1.0213  0.0449
  236MOL0     C31730   7.112   8.305   6.950 -0.5107 -0.5705  0.5105
  236MOL0     C31731   7.173   8.241   6.842 -0.0280  0.1207  0.6282
  236MOL0     C31732   7.310   8.187   6.859  0.8258  0.3462 -0.0068
  236MOL0     O31733   7.377   8.112   6.760 -0.1243  0.4705 -0.5226
  236MOL0     C31734   7.380   8.158   6.625  0.5251 -0.3798  1.2395
  236MOL0     C31735   7.448   8.294   6.589 -0.3453  0.0748 -0.3430
  236MOL0     C31736   7.442   8.352   6.453  0.4467  0.3171 -0.5946
  236MOL0     C31737   7.301   8.413   6.420 -0.1158 -0.5948 -0.2599
  236MOL0     C31738   7.278   8.434   6.268  0.7845 -1.6931 -0.4245
  236MOL0     C31739   7.385   8.518   6.205  0.8544  0.0012  0.5807
  236MOL0     C31740   7.338   8.575   6.066  0.6365  0.0913  0.1724
  236MOL0     C31741   7.427   8.683   6.012  0.4611 -0.5836 -0.6703
  236MOL0     N31742   7.568   8.664   6.007  1.0361  1.2359  1.1144
  236MOL0     C31743   7.645   8.641   5.896  0.3276  1.2315  0.3071
  236MOL0     C31744   7.774   8.614   5.948 -0.4767  0.7221  0.1681
  236MOL0     C31745   7.897   8.589   5.867  0.2709  0.9132 -0.3238
  236MOL0     C31746   7.899   8.629   5.721  1.2380  0.9383  0.9630
  236MOL0     C31747   7.820   8.517   5.637  0.5415  0.4904  0.1546
  236MOL0     C31748   7.751   8.544   5.497  0.0083 -1.7011 -0.2620
  236MOL0     O31749   7.668   8.671   5.515 -0.5192  0.4232 -0.2641
  236MOL0     C31750   7.697   8.761   5.411 -1.0143  0.6531 -0.1065
  236MOL0     C31751   7.709   8.886   5.451 -0.1938 -0.2745 -0.2050
  236MOL0     C31752   7.717   8.982   5.353 -1.0309 -1.2552  0.6967
  236MOL0     C31753   7.724   8.955   5.213  0.4937  0.3070  0.6418
  236MOL0     C31754   7.720   9.063   5.111 -0.2500  1.2892  0.1565
  236MOL0     O31755   7.722   9.039   4.974  0.2035 -0.7216 -0.0996
  236MOL0     C31756   7.732   9.140   4.895  0.2301 -0.0684  0.0278
  236MOL0     C31757   7.857   9.174   4.828  1.1674 -0.5429 -1.0276
  236MOL0     C31758   7.868   9.296   4.764  0.3066 -0.2551 -0.0972
  236MOL0     C31759   7.760   9.380   4.747 -0.2568 -0.0123  0.1538
  236MOL0     O31760   7.763   9.498   4.676 -0.7279 -0.1582  0.7095
  236MOL0     C31761   7.887   9.547   4.616  0.3272  0.4621  0.1828
  236MOL0     C31762   7.921   9.472   4.492 -0.1429  0.4402 -0.1451
  236MOL0     C31763   7.831   9.501   4.366  1.2730  0.6941 -0.2936
  236MOL0     C31764   7.870   9.426   4.242  0.3733  0.6283 -0.3903
  236MOL0     C31765   8.009   9.485   4.188 -0.6342 -0.2461 -0.2252
  236MOL0     C31766   8.037   9.446   4.038 -0.2971  0.4119  0.1532
  236MOL0     C31767   7.998   9.300   4.018  0.4016  0.0438  0.3847
  236MOL0     C31768   8.038   9.244   3.882 -0.9055  0.1438 -0.3682
  236MOL0    Cl31769   8.067   9.075   3.907 -0.2081 -0.2993  0.3149
  236MOL0     C31770   7.638   9.344   4.803  0.1407 -0.3471 -0.4781
  236MOL0     C31771   7.625   9.232   4.887  0.2171  0.4076  0.3179
  236MOL0     O31772   7.718   9.173   5.164  0.0848 -0.0023 -0.3383
  236MOL0     C31773   7.723   8.822   5.169 -0.5078  0.5966 -0.1777
  236MOL0     C31774   7.709   8.731   5.269 -0.2688 -0.3342 -0.5629
  236MOL0     N31775   7.764   8.616   6.084  0.2809 -0.6868  0.0852
  236MOL0     N31776   7.643   8.636   6.112 -0.1939  0.4763 -0.4123
  236MOL0     C31777   7.368   8.210   6.987 -0.4380 -0.4099 -0.0375
  236MOL0     C31778   7.299   8.261   7.094 -0.3544 -0.2747 -0.1072
  236MOL0     C31779   7.020   8.533   7.324 -1.0341  0.5518  0.8806
  236MOL0     C31780   7.000   8.664   7.296 -0.7305  0.4010  0.0342
  236MOL0     C31781   6.891   8.729   7.353 -0.0987  0.7342  0.1054
  236MOL0     C31782   6.803   8.653   7.432 -0.9397  0.3459 -1.3917
  236MOL0     O31783   6.712   8.731   7.497 -0.2412 -0.1195 -0.2304
  236MOL0     C31784   6.623   8.700   7.600  0.2359  0.1239  0.0971
  236MOL0     C31785   6.703   8.730   7.723 -0.4555  0.4556 -0.6308
  236MOL0     C31786   6.623   8.732   7.852  0.7082  1.0412 -0.7667
  236MOL0     C31787   6.698   8.776   7.976 -0.9341 -0.7386 -0.2106
  236MOL0     C31788   6.626   8.812   8.093  0.7857  0.5906  0.5531
  236MOL0     C31789   6.554   8.845   8.190  0.2378  0.2563  1.0064
  236MOL0     C31790   6.817   8.513   7.452 -0.8057 -0.3780  0.2584
  236MOL0     C31791   6.938   8.459   7.401  0.3802  0.5356 -0.9444
  236MOL0     C31792   6.958   8.308   7.420  0.7197  0.2511  0.4092
  236MOL0     H31793   7.014   8.344   6.925 -1.3338 -1.9521  1.4244
  236MOL0     H31794   7.134   8.228   6.742  0.7420  1.5948  0.1160
  236MOL0     H31795   7.430   8.090   6.555  0.2485 -0.7813  1.4284
  236MOL0     H31796   7.277   8.162   6.588  1.4269 -1.7685 -1.7154
  236MOL0     H31797   7.553   8.293   6.622 -0.6921 -0.4578  0.7706
  236MOL0     H31798   7.398   8.371   6.648 -3.3706 -1.9152 -0.0926
  236MOL0     H31799   7.467   8.267   6.388 -1.5626  1.1884 -2.5914
  236MOL0     H31800   7.516   8.431   6.440  0.3316  0.2459 -1.7293
  236MOL0     H31801   7.221   8.348   6.456 -0.8447  0.2926 -0.2327
  236MOL0     H31802   7.288   8.511   6.466 -1.2638 -1.4045  1.2161
  236MOL0     H31803   7.276   8.342   6.208 -1.1813  0.9654 -4.9980
  236MOL0     H31804   7.181   8.484   6.262  0.3731 -2.3232  0.7874
  236MOL0     H31805   7.402   8.603   6.273 -5.3563  0.8737  1.6265
  236MOL0     H31806   7.484   8.473   6.191 -0.2031 -1.5386 -3.1464
  236MOL0     H31807   7.237   8.617   6.075  1.2476  2.6144 -2.9647
  236MOL0     H31808   7.342   8.499   5.988  2.4933 -2.1684  2.2809
  236MOL0     H31809   7.394   8.709   5.911 -0.6283  1.2196  0.0994
  236MOL0     H31810   7.402   8.766   6.078  0.7124 -0.6581 -0.4795
  236MOL0     H31811   7.606   8.632   5.795 -4.4292 -2.4182  2.0584
  236MOL0     H31812   7.984   8.627   5.923  1.7780 -3.4256  0.6634
  236MOL0     H31813   7.907   8.481   5.880 -1.0516  0.9367  1.1449
  236MOL0     H31814   7.841   8.721   5.715  1.6996  1.3662  2.6533
  236MOL0     H31815   8.001   8.634   5.680  0.9099  0.2145 -0.0075
  236MOL0     H31816   7.748   8.478   5.709 -2.3369  1.1937 -2.1351
  236MOL0     H31817   7.894   8.438   5.630  1.2322  1.0093  1.3074
  236MOL0     H31818   7.692   8.465   5.450  0.2884 -2.6051  0.8648
  236MOL0     H31819   7.837   8.559   5.431 -0.0191 -2.0611 -0.3831
  236MOL0     H31820   7.689   8.923   5.551 -2.8467  0.3235 -0.8801
  236MOL0     H31821   7.722   9.085   5.385 -0.5188 -0.7769 -0.8291
  236MOL0     H31822   7.941   9.105   4.826 -0.8054 -3.2088  0.4017
  236MOL0     H31823   7.960   9.318   4.711 -0.1190  1.8434 -0.0463
  236MOL0     H31824   7.870   9.652   4.590 -3.7034 -0.0399  0.1518
  236MOL0     H31825   7.970   9.541   4.687  1.6254 -2.0213 -1.4134
  236MOL0     H31826   8.021   9.509   4.469 -1.0472  2.4352 -1.2244
  236MOL0     H31827   7.914   9.364   4.508 -0.7565  0.1257 -2.2110
  236MOL0     H31828   7.725   9.475   4.372  1.0533  1.8013  1.5441
  236MOL0     H31829   7.841   9.607   4.344  2.1699  0.9235  1.0777
  236MOL0     H31830   7.792   9.411   4.166 -1.6041 -3.4625  2.0939
  236MOL0     H31831   7.887   9.325   4.282 -0.4629  1.3564  1.8967
  236MOL0     H31832   8.092   9.460   4.255 -2.4839 -2.3730  1.4608
  236MOL0     H31833   8.001   9.594   4.194 -0.6677  0.0074 -3.3316
  236MOL0     H31834   7.959   9.500   3.983 -0.1803  0.2153 -0.2067
  236MOL0     H31835   8.137   9.474   4.003 -1.0615 -0.7247 -3.3560
  236MOL0     H31836   7.894   9.272   4.036  0.3874  0.1181  0.4213
  236MOL0     H31837   8.052   9.244   4.095  0.2411  1.9001  1.9215
  236MOL0     H31838   7.958   9.266   3.811  0.2677  2.5347 -1.0578
  236MOL0     H31839   8.120   9.303   3.839 -0.8860  0.7694  0.4932
  236MOL0     H31840   7.557   9.414   4.784 -0.8618  0.3600  4.7930
  236MOL0     H31841   7.541   9.204   4.949  0.7012  1.2340  1.3946
  236MOL0     H31842   7.731   8.787   5.066  2.2865 -0.7713  0.3906
  236MOL0     H31843   7.706   8.624   5.248 -4.7278 -0.8276  1.5484
  236MOL0     H31844   7.472   8.188   7.006  0.4358  2.1671 -1.4237
  236MOL0     H31845   7.350   8.276   7.188  0.0979 -4.0956  0.3804
  236MOL0     H31846   7.074   8.721   7.241 -1.3942  2.7508  1.4203
  236MOL0     H31847   6.881   8.837   7.354 -2.9510  0.6154  3.5896
  236MOL0     H31848   6.590   8.596   7.592  1.0149 -0.0504 -1.0517
  236MOL0     H31849   6.531   8.759   7.606 -1.5346 -1.8302 -4.1023
  236MOL0     H31850   6.755   8.826   7.713  0.1516 -0.0762 -3.3345
  236MOL0     H31851   6.784   8.657   7.728 -0.8744  0.0485  0.8274
  236MOL0     H31852   6.581   8.633   7.870 -2.7770  2.2705 -1.3395
  236MOL0     H31853   6.530   8.786   7.831  0.1987 -0.2124 -1.9365
  236MOL0     H31854   6.761   8.696   8.015  1.3371  0.8711 -0.3453
  236MOL0     H31855   6.768   8.856   7.951  0.7175 -0.7046  3.8008
  236MOL0     H31856   6.493   8.887   8.268  0.3647 -1.5854  2.1530
  236MOL0     H31857   6.755   8.468   7.529 -1.7096  3.0080  1.6862
  236MOL0     H31858   7.063   8.290   7.445  1.2395 -1.6921 -2.6080
  236MOL0     H31859   6.898   8.255   7.494 -1.7038  0.2842 -1.4337
  236MOL0     H31860   6.930   8.259   7.326 -2.8665 -1.9977  2.4526
  237MOL0     O31861   2.436   4.829   7.218 -0.7476 -0.1312 -0.2545
  237MOL0     C31862   2.319   4.784   7.250 -0.9864  0.0699 -0.1456
  237MOL0     O31863   2.300   4.682   7.340 -0.1067  0.4237 -0.4947
  237MOL0     C31864   2.414   4.646   7.417  1.1168 -0.6253  0.5363
  237MOL0     C31865   2.476   4.523   7.386 -0.0854  0.1181 -1.2687
  237MOL0     C31866   2.586   4.480   7.460  0.8852  0.2737  0.0278
  237MOL0     C31867   2.636   4.556   7.564 -0.8829 -0.2159 -0.1726
  237MOL0     O31868   2.756   4.505   7.620 -0.5911  0.3452  0.6653
  237MOL0     C31869   2.861   4.603   7.643  0.7979  0.8975  0.4971
  237MOL0     C31870   2.881   4.652   7.782 -0.5468  0.5898 -0.1010
  237MOL0     C31871   3.020   4.694   7.793  0.8756 -0.3504  0.2597
  237MOL0     C31872   3.062   4.724   7.931 -0.5625  0.2637  0.4429
  237MOL0     C31873   3.217   4.723   7.951 -0.3743 -0.7765  0.3734
  237MOL0     C31874   3.278   4.850   8.003  0.8298 -0.1916 -0.0717
  237MOL0     C31875   3.418   4.837   8.066  0.4425  0.2542 -1.2677
  237MOL0     C31876   3.519   4.818   7.965  0.3352  0.4544 -0.2238
  237MOL0     N31877   3.531   4.946   7.894  0.2177 -0.6496  1.0380
  237MOL0     C31878   3.536   4.952   7.757 -0.6542  0.8248  0.7981
  237MOL0     C31879   3.548   5.085   7.743 -0.2530 -0.4943 -0.1063
  237MOL0     C31880   3.549   5.147   7.600  0.4280  0.1974  0.0591
  237MOL0     C31881   3.643   5.274   7.584  0.1242  0.5951  0.0988
  237MOL0     C31882   3.688   5.288   7.434 -0.7136  0.4709 -0.0589
  237MOL0     C31883   3.799   5.408   7.418 -0.3703  0.3536 -0.7286
  237MOL0     O31884   3.915   5.354   7.483  0.8024  0.0480  0.1312
  237MOL0     C31885   4.028   5.431   7.497  1.1413 -0.2737 -0.3286
  237MOL0     C31886   4.135   5.385   7.565 -0.8391 -0.0856  0.1162
  237MOL0     C31887   4.251   5.455   7.567 -0.9339 -0.5226 -1.3448
  237MOL0     C31888   4.267   5.587   7.511  0.8247 -0.9103 -0.2094
  237MOL0     C31889   4.388   5.676   7.534  0.0463  0.5801 -0.6987
  237MOL0     O31890   4.489   5.606   7.589 -0.8928  0.1850 -0.5807
  237MOL0     C31891   4.610   5.676   7.596  0.4826  1.2305 -0.1244
  237MOL0     C31892   4.699   5.683   7.485  0.9769  0.2701 -0.5552
  237MOL0     C31893   4.825   5.740   7.512  0.5623  0.9296  0.9997
  237MOL0     C31894   4.862   5.792   7.639  0.3917 -0.1293  0.8517
  237MOL0     O31895   4.990   5.826   7.681 -0.0910 -0.7101  0.5523
  237MOL0     C31896   5.090   5.832   7.591 -0.1144  0.0799  0.1681
  237MOL0     C31897   5.203   5.923   7.653  0.0635  0.8847  0.4734
  237MOL0     C31898   5.158   6.068   7.687 -1.0465 -0.5147 -0.9284
  237MOL0     C31899   5.144   6.158   7.568  0.2939  0.5296  1.7218
  237MOL0     C31900   5.131   6.309   7.597 -0.8650 -0.5439 -0.0140
  237MOL0     C31901   5.000   6.347   7.667 -0.3829  0.4824 -0.5266
  237MOL0     C31902   4.997   6.501   7.682 -0.7581  0.0376 -0.4717
  237MOL0     C31903   4.936   6.549   7.819 -0.3713 -0.4327  0.0455
  237MOL0    Cl31904   5.060   6.538   7.941 -0.2534  0.1583  0.0288
  237MOL0     C31905   4.763   5.786   7.736  0.7547  0.7029 -0.0007
  237MOL0     C31906   4.637   5.724   7.719 -0.6074 -0.5243  0.3091
  237MOL0     O31907   4.394   5.794   7.486 -0.5004 -0.4202 -0.7814
  237MOL0     C31908   4.164   5.628   7.433 -0.8721  0.8209  0.0306
  237MOL0     C31909   4.043   5.555   7.434 -0.1167  0.2526  0.0936
  237MOL0     N31910   3.543   5.154   7.852  0.6265 -0.8297  0.3355
  237MOL0     N31911   3.547   5.070   7.943  0.6393 -0.1029  0.6046
  237MOL0     C31912   2.573   4.682   7.593 -0.6576 -0.4150  0.0486
  237MOL0     C31913   2.464   4.724   7.516  0.7109 -0.2095  0.1010
  237MOL0     C31914   2.194   4.833   7.194 -0.0063 -1.0853 -0.0744
  237MOL0     C31915   2.074   4.765   7.220  0.0135  0.0833 -0.8254
  237MOL0     C31916   1.947   4.795   7.170  0.5039 -0.4209  0.8099
  237MOL0     C31917   1.927   4.907   7.089 -0.9618  0.9867  0.2171
  237MOL0     O31918   1.815   4.952   7.026  0.5428  0.7121  1.4380
  237MOL0     C31919   1.690   4.892   7.066 -0.3810  0.2245 -0.2408
  237MOL0     C31920   1.593   5.010   7.051 -0.7272  0.5594 -0.0973
  237MOL0     C31921   1.459   4.969   7.116 -0.3368 -0.5750 -0.6961
  237MOL0     C31922   1.351   5.081   7.138 -0.1092  0.2598  0.4119
  237MOL0     C31923   1.246   5.035   7.223 -0.8866  0.0732  0.2774
  237MOL0     C31924   1.166   4.985   7.290  0.3464 -0.7875 -0.4659
  237MOL0     C31925   2.045   4.987   7.079  1.0916  0.6834 -0.6845
  237MOL0     C31926   2.176   4.946   7.116 -0.7520  0.6003  0.9643
  237MOL0     C31927   2.282   5.040   7.059  0.1533  0.3931  0.4510
  237MOL0     H31928   2.433   4.473   7.300 -0.9563 -2.6833  0.6393
  237MOL0     H31929   2.623   4.385   7.422 -0.9272 -0.3043 -0.3860
  237MOL0     H31930   2.953   4.552   7.614  1.3054  2.2699 -0.4213
  237MOL0     H31931   2.847   4.693   7.582 -1.6047 -0.1341 -0.5958
  237MOL0     H31932   2.860   4.586   7.866  0.4809  0.1095 -0.2160
  237MOL0     H31933   2.814   4.738   7.793 -1.0151  0.1738  0.3551
  237MOL0     H31934   3.037   4.780   7.727  0.5095  1.6726  2.6673
  237MOL0     H31935   3.090   4.620   7.754  1.8907 -0.0600  1.4890
  237MOL0     H31936   3.017   4.816   7.969 -2.6997 -1.2691  1.8592
  237MOL0     H31937   3.009   4.664   8.005 -1.9207  1.9087  0.8624
  237MOL0     H31938   3.237   4.658   8.036  0.4434 -1.1788 -0.1109
  237MOL0     H31939   3.276   4.684   7.868  1.7582  0.9774  0.9455
  237MOL0     H31940   3.276   4.924   7.923 -0.9420  2.2595  2.0652
  237MOL0     H31941   3.215   4.894   8.081  3.4781  1.9558  1.0278
  237MOL0     H31942   3.402   4.757   8.139 -1.9555 -1.0816 -3.1044
  237MOL0     H31943   3.451   4.924   8.124  3.1543 -1.4457 -0.0539
  237MOL0     H31944   3.615   4.798   8.013  0.3543  2.6529  0.7778
  237MOL0     H31945   3.504   4.727   7.907  2.9744 -0.3234  0.1993
  237MOL0     H31946   3.539   4.865   7.692  1.4651  1.6629 -0.3471
  237MOL0     H31947   3.582   5.075   7.525 -0.7627 -0.1601 -0.1389
  237MOL0     H31948   3.445   5.167   7.573  0.1720 -0.3952  0.5685
  237MOL0     H31949   3.592   5.366   7.615 -0.3238 -0.0437  1.3638
  237MOL0     H31950   3.734   5.276   7.645  0.3172  2.2998 -0.1807
  237MOL0     H31951   3.595   5.312   7.383 -1.1153  0.1467  0.5093
  237MOL0     H31952   3.728   5.196   7.391  1.3058  1.2980 -0.0803
  237MOL0     H31953   3.759   5.503   7.455 -2.3079 -1.9115  3.8573
  237MOL0     H31954   3.825   5.411   7.312  2.4242 -0.2213 -0.1449
  237MOL0     H31955   4.128   5.284   7.603 -2.2346 -0.0793 -0.0787
  237MOL0     H31956   4.330   5.403   7.619  0.2302  2.9252  0.6810
  237MOL0     H31957   4.675   5.653   7.384  3.5131 -1.6437 -0.6863
  237MOL0     H31958   4.895   5.730   7.429 -0.0015  0.3610  0.5898
  237MOL0     H31959   5.133   5.737   7.559 -0.8552  0.5338 -2.4414
  237MOL0     H31960   5.052   5.883   7.502  0.9597 -1.0566 -0.9828
  237MOL0     H31961   5.240   5.884   7.748 -1.3067  0.8678  1.0268
  237MOL0     H31962   5.280   5.928   7.576  0.6818 -0.3196  0.9905
  237MOL0     H31963   5.072   6.066   7.755 -0.8503  2.0179 -0.5236
  237MOL0     H31964   5.231   6.117   7.751 -0.4453 -0.9862 -1.2354
  237MOL0     H31965   5.062   6.112   7.512 -0.3363 -1.5222  4.1966
  237MOL0     H31966   5.228   6.150   7.497 -2.4467  3.7165 -2.4228
  237MOL0     H31967   5.132   6.347   7.494 -2.2172 -0.4522 -0.0051
  237MOL0     H31968   5.225   6.339   7.645  0.0307 -3.2673  0.0755
  237MOL0     H31969   4.913   6.310   7.613 -0.1492  0.8077 -1.1397
  237MOL0     H31970   4.998   6.303   7.767  0.9248  1.8531  0.1434
  237MOL0     H31971   4.929   6.536   7.603 -2.1642 -0.9030  0.2678
  237MOL0     H31972   5.090   6.555   7.666 -0.6057  0.6291  1.9736
  237MOL0     H31973   4.891   6.645   7.794 -0.5562 -0.9709 -1.8057
  237MOL0     H31974   4.862   6.475   7.849  0.2424 -0.6013  1.2061
  237MOL0     H31975   4.809   5.824   7.826  0.7062 -1.1836  0.8627
  237MOL0     H31976   4.566   5.724   7.801 -1.2876  1.7976 -0.2135
  237MOL0     H31977   4.173   5.729   7.392  0.7890  0.0716 -1.5614
  237MOL0     H31978   3.966   5.601   7.374 -0.0878 -1.6420 -1.5087
  237MOL0     H31979   2.612   4.745   7.673  1.3744 -2.5578  0.8443
  237MOL0     H31980   2.427   4.821   7.548 -0.0227 -0.4236 -0.0781
  237MOL0     H31981   2.069   4.683   7.290 -2.9442  2.0821  1.5550
  237MOL0     H31982   1.862   4.730   7.186 -1.7270  1.8311 -0.9862
  237MOL0     H31983   1.687   4.849   7.167 -1.4026 -2.4666 -1.3230
  237MOL0     H31984   1.669   4.810   6.997  1.6888  0.1923 -0.9195
  237MOL0     H31985   1.573   5.032   6.945 -0.6173  1.5725  0.0836
  237MOL0     H31986   1.638   5.104   7.085  2.7073 -0.2994 -1.7219
  237MOL0     H31987   1.469   4.915   7.210  0.5853  1.0739  0.1975
  237MOL0     H31988   1.422   4.901   7.039 -0.7766 -0.2112 -0.8097
  237MOL0     H31989   1.394   5.163   7.196  0.0809  0.3989  0.0803
  237MOL0     H31990   1.318   5.111   7.038 -0.9737 -0.1488  0.5628
  237MOL0     H31991   1.098   4.931   7.353 -0.6268 -0.5974 -1.3407
  237MOL0     H31992   2.030   5.081   7.026 -1.0974  1.0824  0.5127
  237MOL0     H31993   2.383   4.998   7.059  0.2611  0.3610 -2.7692
  237MOL0     H31994   2.258   5.050   6.953 -1.5336  0.1446  0.7827
  237MOL0     H31995   2.283   5.135   7.113  4.6821 -0.5386  2.4592
  238MOL0     O31996   6.856   2.534   8.831 -0.1276  0.1708  0.2449
  238MOL0     C31997   6.942   2.485   8.755 -0.7249  0.4731 -0.3229
  238MOL0     O31998   6.956   2.357   8.719  0.0008  0.3168 -0.7751
  238MOL0     C31999   6.874   2.265   8.768  0.2447  0.1359  0.9212
  238MOL0     C32000   6.789   2.205   8.675 -0.1350 -0.2104  0.4789
  238MOL0     C32001   6.693   2.102   8.711 -0.2230 -0.8378 -0.7320
  238MOL0     C32002   6.710   2.051   8.845  0.1539  0.2811  0.8318
  238MOL0     O32003   6.647   1.936   8.892 -0.0271  0.2163  0.1906
  238MOL0     C32004   6.528   1.881   8.828  0.1636  0.6053  0.2774
  238MOL0     C32005   6.538   1.746   8.755 -0.3627  0.3620  0.0716
  238MOL0     C32006   6.628   1.763   8.625  0.3745 -0.1208 -0.4930
  238MOL0     C32007   6.596   1.644   8.542  0.1757 -0.4718 -0.5819
  238MOL0     C32008   6.658   1.516   8.598  0.4128  0.6521 -0.3319
  238MOL0     C32009   6.597   1.390   8.540 -0.2963  0.6393  0.0757
  238MOL0     C32010   6.644   1.274   8.629  0.5604 -0.5304  0.0836
  238MOL0     C32011   6.575   1.145   8.590  0.0839 -0.0238  0.2475
  238MOL0     N32012   6.433   1.134   8.630  0.4472  0.4619 -0.9451
  238MOL0     C32013   6.394   1.120   8.768 -0.0333  0.7517  0.7021
  238MOL0     C32014   6.262   1.147   8.766  0.0669  0.3823  0.2793
  238MOL0     C32015   6.178   1.143   8.888  0.0872 -0.2088  0.6959
  238MOL0     C32016   6.084   1.257   8.906  1.1979  0.4593  0.1096
  238MOL0     C32017   5.957   1.231   8.823  0.1580  0.5943  0.2779
  238MOL0     C32018   5.854   1.343   8.832  0.1450 -0.2773 -0.1146
  238MOL0     O32019   5.908   1.477   8.803 -0.0529  0.7737  0.9623
  238MOL0     C32020   5.928   1.582   8.884 -0.0731 -0.0325 -0.5376
  238MOL0     C32021   5.885   1.592   9.019  0.7211 -1.3307  0.5509
  238MOL0     C32022   5.903   1.715   9.094  0.0369  0.2995 -0.0701
  238MOL0     C32023   5.960   1.826   9.032 -0.1939 -0.9969  0.0643
  238MOL0     C32024   5.965   1.949   9.105  0.5196  0.8156 -0.3537
  238MOL0     O32025   5.991   2.059   9.042 -0.7005  0.2789  0.4559
  238MOL0     C32026   6.002   2.182   9.108  0.5886 -0.6123  0.9397
  238MOL0     C32027   5.906   2.286   9.090 -1.0875 -0.0818 -0.2471
  238MOL0     C32028   5.905   2.396   9.172  0.4356 -0.4333  0.0992
  238MOL0     C32029   5.991   2.407   9.279  0.3791  0.3239  0.2749
  238MOL0     O32030   5.978   2.525   9.353  0.7049  0.5913  0.4194
  238MOL0     C32031   5.870   2.518   9.440  0.0722  0.5429  0.2278
  238MOL0     C32032   5.896   2.625   9.546  0.6992  1.0911  0.4446
  238MOL0     C32033   5.835   2.593   9.684 -0.1278 -0.2205  0.2162
  238MOL0     C32034   5.920   2.495   9.772 -1.5107  0.1264 -0.5922
  238MOL0     C32035   6.059   2.546   9.809 -0.6458  0.4863  0.8267
  238MOL0     C32036   6.144   2.438   9.873  0.5292 -0.3469 -0.7678
  238MOL0     C32037   6.276   2.480   9.929  0.0267  0.4768  0.0137
  238MOL0     C32038   6.381   2.536   9.828 -0.1979  0.0591  0.1464
  238MOL0    Cl32039   6.395   2.444   9.682 -0.2600  0.0335 -0.2429
  238MOL0     C32040   6.098   2.317   9.285  0.4705 -1.0713 -0.8775
  238MOL0     C32041   6.106   2.212   9.202  0.0425  0.9884  0.1276
  238MOL0     O32042   5.946   1.941   9.230  0.3425 -0.3139 -0.5129
  238MOL0     C32043   6.005   1.806   8.900 -0.0670 -0.3793 -0.3165
  238MOL0     C32044   5.992   1.693   8.829  0.3056  0.6994 -1.0370
  238MOL0     N32045   6.217   1.166   8.633  0.9805 -1.1372  1.2091
  238MOL0     N32046   6.319   1.152   8.547  0.2027  0.5859 -0.3612
  238MOL0     C32047   6.804   2.105   8.925 -0.8773 -0.1699 -0.0899
  238MOL0     C32048   6.893   2.210   8.892 -0.1456 -0.5590  0.1995
  238MOL0     C32049   7.061   2.559   8.726  0.0044  0.7417 -0.4216
  238MOL0     C32050   7.126   2.645   8.819  0.1899  0.3632  0.2300
  238MOL0     C32051   7.255   2.695   8.796  0.1307 -0.7079 -0.0730
  238MOL0     C32052   7.320   2.679   8.678 -0.9846 -0.0282  0.6509
  238MOL0     O32053   7.447   2.714   8.671  0.7854 -0.3391  0.3604
  238MOL0     C32054   7.549   2.624   8.626  0.0785 -0.0038  1.0937
  238MOL0     C32055   7.558   2.498   8.716 -0.4024 -0.4350 -0.3747
  238MOL0     C32056   7.636   2.532   8.843  0.2180 -1.0061 -0.3046
  238MOL0     C32057   7.638   2.406   8.929 -0.7112 -0.1498 -0.3064
  238MOL0     C32058   7.691   2.283   8.871 -0.1545 -0.0351  0.0815
  238MOL0     C32059   7.746   2.185   8.822 -0.1882  0.0299  0.6866
  238MOL0     C32060   7.257   2.606   8.573  0.2911 -0.2256  0.6043
  238MOL0     C32061   7.127   2.548   8.598 -0.5440 -0.2920  0.6752
  238MOL0     C32062   7.065   2.469   8.479  0.2912 -0.4315 -1.3170
  238MOL0     H32063   6.777   2.253   8.578  0.2080  1.0317  1.0309
  238MOL0     H32064   6.641   2.045   8.634 -0.4016 -0.6324 -0.7657
  238MOL0     H32065   6.444   1.872   8.897  1.2547  0.3448  1.6140
  238MOL0     H32066   6.486   1.954   8.759  0.7079  1.4070  0.7689
  238MOL0     H32067   6.440   1.704   8.730 -1.2058  1.5009  1.3122
  238MOL0     H32068   6.589   1.682   8.827  2.4027  2.5371  0.1873
  238MOL0     H32069   6.733   1.762   8.657  0.9464 -0.7994 -2.2665
  238MOL0     H32070   6.606   1.856   8.573 -2.5317  0.3682  1.3882
  238MOL0     H32071   6.489   1.624   8.541 -0.1079  0.8146  0.6643
  238MOL0     H32072   6.625   1.660   8.437  1.4926  0.5751 -0.0915
  238MOL0     H32073   6.761   1.514   8.562  0.5176  1.3833 -0.0871
  238MOL0     H32074   6.659   1.504   8.707 -0.0736  0.3856 -0.3538
  238MOL0     H32075   6.490   1.400   8.563 -0.0011  4.5517  0.4469
  238MOL0     H32076   6.621   1.370   8.435 -0.0879 -1.0884  0.4308
  238MOL0     H32077   6.634   1.292   8.736 -1.4659  0.2455 -0.1921
  238MOL0     H32078   6.750   1.258   8.606  1.1848  3.3585 -0.4174
  238MOL0     H32079   6.567   1.146   8.481 -2.2274 -0.6016  0.3626
  238MOL0     H32080   6.632   1.060   8.629 -1.0800 -1.1947 -0.5627
  238MOL0     H32081   6.455   1.092   8.853  0.3303 -1.2997 -0.1923
  238MOL0     H32082   6.127   1.046   8.891  0.9613 -0.6986  0.2701
  238MOL0     H32083   6.253   1.149   8.969  3.1513 -0.4684 -1.9175
  238MOL0     H32084   6.050   1.260   9.010 -0.7553 -1.4930 -0.4200
  238MOL0     H32085   6.131   1.350   8.871 -1.2928  1.9525  0.4777
  238MOL0     H32086   5.916   1.135   8.856  0.9783  0.0503 -0.2498
  238MOL0     H32087   5.976   1.234   8.715  1.8135  1.7151  0.5598
  238MOL0     H32088   5.810   1.345   8.932  1.6342  1.1612  0.5547
  238MOL0     H32089   5.776   1.317   8.759  1.3079 -0.4889 -1.3241
  238MOL0     H32090   5.841   1.503   9.061  1.2363 -0.8745  2.1161
  238MOL0     H32091   5.876   1.714   9.199  3.8125  0.4065  1.0514
  238MOL0     H32092   5.834   2.270   9.011 -2.0955  3.6300 -0.2250
  238MOL0     H32093   5.831   2.473   9.155  1.1523  0.5998  1.4421
  238MOL0     H32094   5.773   2.541   9.394 -0.9680 -0.5455  1.7608
  238MOL0     H32095   5.856   2.419   9.484 -2.3613  1.2940  1.3683
  238MOL0     H32096   5.998   2.660   9.557  0.5320  0.9721  3.3864
  238MOL0     H32097   5.826   2.700   9.508 -0.0579 -0.9571 -2.5562
  238MOL0     H32098   5.816   2.685   9.739 -0.0968 -0.7565  1.1461
  238MOL0     H32099   5.749   2.532   9.656  0.9012 -0.7676 -1.9198
  238MOL0     H32100   5.930   2.398   9.721  2.9558  1.0251 -1.8617
  238MOL0     H32101   5.870   2.480   9.869  0.0807  3.8393  0.9842
  238MOL0     H32102   6.039   2.623   9.884 -1.7699 -1.5350  2.7007
  238MOL0     H32103   6.112   2.576   9.717 -2.6715 -1.4019 -1.0779
  238MOL0     H32104   6.080   2.405   9.954 -0.0690  0.2600 -0.9771
  238MOL0     H32105   6.152   2.346   9.814 -3.0232  0.0673 -2.1412
  238MOL0     H32106   6.318   2.394   9.982  0.9606  1.4569  0.9194
  238MOL0     H32107   6.266   2.560  10.004  1.6710  0.3154  0.4404
  238MOL0     H32108   6.341   2.637   9.810  0.2466  0.7872  2.7757
  238MOL0     H32109   6.472   2.549   9.889 -2.4538  2.5576  3.3617
  238MOL0     H32110   6.168   2.349   9.361 -1.0933  0.8184 -0.1271
  238MOL0     H32111   6.196   2.154   9.224  1.6849  1.9874 -3.2612
  238MOL0     H32112   6.058   1.880   8.841  0.9546  0.6766  1.8179
  238MOL0     H32113   6.036   1.694   8.729  1.9243  2.1871 -0.3685
  238MOL0     H32114   6.821   2.058   9.021  0.9304 -1.5310 -1.0151
  238MOL0     H32115   6.959   2.246   8.970 -1.2328 -1.4990  1.5911
  238MOL0     H32116   7.070   2.676   8.906 -0.8663  2.2296 -1.0461
  238MOL0     H32117   7.302   2.746   8.880 -2.3871 -0.7217  1.4609
  238MOL0     H32118   7.646   2.675   8.623  0.4461 -0.5786 -2.8715
  238MOL0     H32119   7.545   2.598   8.519 -3.9921  2.9772  0.2999
  238MOL0     H32120   7.609   2.421   8.658 -2.6100 -2.3489  0.0531
  238MOL0     H32121   7.458   2.455   8.730 -1.3532  0.3982 -3.7362
  238MOL0     H32122   7.609   2.620   8.903  1.2720 -1.1292  0.3714
  238MOL0     H32123   7.738   2.558   8.813 -0.8194 -0.1336 -3.4819
  238MOL0     H32124   7.718   2.432   8.999  0.4240 -2.1281 -0.8136
  238MOL0     H32125   7.556   2.391   9.000 -1.6712  1.2871 -1.0581
  238MOL0     H32126   7.809   2.104   8.791  1.9295  1.0001  2.2241
  238MOL0     H32127   7.298   2.584   8.475 -3.0867 -1.2532 -0.7515
  238MOL0     H32128   7.076   2.361   8.493 -0.0429 -0.9386 -4.3367
  238MOL0     H32129   6.961   2.502   8.475  0.3594 -0.0169 -0.1691
  238MOL0     H32130   7.125   2.493   8.391  2.0627 -0.6978 -0.2316
  239MOL0     O32131  10.351   0.047   8.503  0.2138  0.8082 -0.9647
  239MOL0     C32132  10.409   0.070   8.611 -0.1802 -0.2975  0.0179
  239MOL0     O32133  10.481  -0.012   8.689  0.4636  0.6574  0.1113
  239MOL0     C32134  10.533  -0.125   8.647 -0.0350 -0.0554  0.7125
  239MOL0     C32135  10.566  -0.165   8.522  0.6057 -0.6984 -0.8412
  239MOL0     C32136  10.595  -0.293   8.492  0.1066  0.3837 -0.0249
  239MOL0     C32137  10.596  -0.391   8.586 -0.5072  0.0437  0.0101
  239MOL0     O32138  10.599  -0.525   8.573  0.4913 -0.4970 -0.3931
  239MOL0     C32139  10.561  -0.586   8.448 -0.4430  0.1486  0.2550
  239MOL0     C32140  10.634  -0.722   8.442  0.9551 -0.4163 -0.1961
  239MOL0     C32141  10.575  -0.819   8.540  0.2305  0.3159 -0.4694
  239MOL0     C32142  10.658  -0.950   8.528  0.1289  0.4338 -0.3163
  239MOL0     C32143  10.597  -1.071   8.596 -0.3014  0.2914 -0.5058
  239MOL0     C32144  10.589  -1.065   8.754 -0.8086  0.3535  1.1742
  239MOL0     C32145  10.530  -1.192   8.829 -0.6004  0.4384 -0.2715
  239MOL0     C32146  10.630  -1.310   8.841  0.3102 -0.0209  0.3437
  239MOL0     N32147  10.557  -1.419   8.917  0.4559  0.0624 -0.1679
  239MOL0     C32148  10.574  -1.446   9.052 -0.0355 -0.0962  0.3630
  239MOL0     C32149  10.495  -1.548   9.083  0.9171 -0.2396 -0.1851
  239MOL0     C32150  10.492  -1.591   9.230 -0.6620 -0.6078 -0.2286
  239MOL0     C32151  10.416  -1.726   9.239  0.3449  0.7461  0.0437
  239MOL0     C32152  10.402  -1.765   9.382  0.0758  0.0411 -0.3719
  239MOL0     C32153  10.540  -1.795   9.446  1.2895  0.2729 -0.7876
  239MOL0     O32154  10.530  -1.827   9.590  0.1050  0.3981 -0.3031
  239MOL0     C32155  10.655  -1.822   9.662  0.4232  0.5884 -0.1503
  239MOL0     C32156  10.648  -1.802   9.798  0.0166  0.5009 -0.4869
  239MOL0     C32157  10.762  -1.782   9.872  0.1552  0.3619  0.1261
  239MOL0     C32158  10.890  -1.798   9.807 -0.0879 -0.0836 -0.6426
  239MOL0     C32159  11.023  -1.772   9.874  0.9205 -0.0399  0.8468
  239MOL0     O32160  11.125  -1.724   9.789 -0.7879  0.0300  0.5018
  239MOL0     C32161  11.237  -1.664   9.833 -0.1218  0.4643 -0.8403
  239MOL0     C32162  11.238  -1.541   9.894  0.3148  0.4397 -0.2915
  239MOL0     C32163  11.353  -1.474   9.947 -0.3606  0.6792 -1.1549
  239MOL0     C32164  11.478  -1.549   9.934 -0.3048 -0.3647 -0.4952
  239MOL0     O32165  11.586  -1.516  10.009 -0.8785  0.3275 -0.1152
  239MOL0     C32166  11.648  -1.413   9.941 -0.2570  0.1320 -0.4235
  239MOL0     C32167  11.794  -1.415   9.958 -0.3285  0.3152 -1.1765
  239MOL0     C32168  11.848  -1.449  10.095 -0.6171 -0.8468 -0.4015
  239MOL0     C32169  11.994  -1.391  10.125 -0.0366  0.1020 -0.5081
  239MOL0     C32170  12.026  -1.417  10.269  0.2201 -0.2290 -0.4439
  239MOL0     C32171  11.968  -1.319  10.369  0.0362 -0.4120  0.0313
  239MOL0     C32172  12.034  -1.328  10.502  0.6353 -0.4103 -0.0446
  239MOL0     C32173  11.984  -1.216  10.608 -0.9454 -0.7463 -0.2955
  239MOL0    Cl32174  12.067  -1.237  10.769 -0.1481 -0.5935 -0.2369
  239MOL0     C32175  11.473  -1.668   9.875 -0.2340  1.1704 -0.3126
  239MOL0     C32176  11.353  -1.731   9.820 -1.4351  0.5026 -0.5626
  239MOL0     O32177  11.018  -1.751   9.993  0.0773 -0.5976 -0.7035
  239MOL0     C32178  10.900  -1.835   9.673  0.2423  0.0328  0.0053
  239MOL0     C32179  10.781  -1.847   9.604 -0.8614 -0.0693  0.2207
  239MOL0     N32180  10.441  -1.594   8.962  0.4361 -0.4255 -0.5188
  239MOL0     N32181  10.467  -1.512   8.863  0.2971  0.5799  0.0916
  239MOL0     C32182  10.573  -0.351   8.720 -0.2664 -0.2276 -0.4600
  239MOL0     C32183  10.537  -0.220   8.747  0.7189 -0.9124  0.1144
  239MOL0     C32184  10.384   0.208   8.672 -0.6448 -0.8064 -0.2615
  239MOL0     C32185  10.483   0.251   8.759 -0.6785  0.5971 -0.1499
  239MOL0     C32186  10.487   0.384   8.816  0.2139  0.2226 -0.2002
  239MOL0     C32187  10.379   0.468   8.796 -0.6325  0.5896  0.3429
  239MOL0     O32188  10.383   0.581   8.868 -0.9877 -0.4033  0.6849
  239MOL0     C32189  10.273   0.657   8.893 -0.2479 -0.6484  0.3906
  239MOL0     C32190  10.239   0.749   8.779  0.1320  0.0365 -0.1252
  239MOL0     C32191  10.147   0.849   8.861  0.3170 -0.6395  0.1603
  239MOL0     C32192  10.090   0.968   8.774  0.1864 -0.2115 -0.3036
  239MOL0     C32193  10.203   1.038   8.716 -0.1812 -0.1390  0.3539
  239MOL0     C32194  10.303   1.103   8.688  0.1411  0.3609  0.8342
  239MOL0     C32195  10.274   0.422   8.709  0.0909 -0.4334 -0.7994
  239MOL0     C32196  10.277   0.297   8.638  0.2357 -0.4414 -1.1735
  239MOL0     C32197  10.177   0.270   8.544 -0.2063  0.5246  0.2610
  239MOL0     H32198  10.574  -0.082   8.452 -0.2017 -0.7654 -1.0202
  239MOL0     H32199  10.633  -0.305   8.391  0.0912 -1.3843  0.1504
  239MOL0     H32200  10.452  -0.596   8.446 -0.5182  0.9621 -1.6903
  239MOL0     H32201  10.585  -0.525   8.360 -2.5321 -0.1853 -0.5884
  239MOL0     H32202  10.739  -0.714   8.473  0.7409 -0.2497  0.5149
  239MOL0     H32203  10.632  -0.756   8.338 -0.1488  1.1957 -0.7341
  239MOL0     H32204  10.469  -0.843   8.524  0.5899 -1.4373 -0.4796
  239MOL0     H32205  10.584  -0.776   8.640 -3.5284 -1.6744  0.9549
  239MOL0     H32206  10.660  -0.959   8.419 -0.9338  1.9703 -0.4932
  239MOL0     H32207  10.752  -0.922   8.575  1.5143  1.4546 -3.4149
  239MOL0     H32208  10.497  -1.092   8.556 -0.4171 -2.6029  1.0575
  239MOL0     H32209  10.657  -1.157   8.565 -1.6077  0.0006 -2.4066
  239MOL0     H32210  10.683  -1.033   8.801  0.8815 -0.3812 -1.4548
  239MOL0     H32211  10.527  -0.977   8.776  0.7515  1.7282  0.3067
  239MOL0     H32212  10.438  -1.232   8.785 -0.4586 -0.5176  0.2550
  239MOL0     H32213  10.517  -1.162   8.934  1.3200 -0.8011  0.3634
  239MOL0     H32214  10.666  -1.344   8.743 -2.4478  0.7056 -1.0010
  239MOL0     H32215  10.712  -1.274   8.904 -0.5490  0.9920  0.9186
  239MOL0     H32216  10.638  -1.393   9.123 -0.8548 -1.5569  2.2871
  239MOL0     H32217  10.598  -1.603   9.257 -0.6354 -0.1768 -0.1265
  239MOL0     H32218  10.455  -1.514   9.298  0.9966 -0.3366  0.4351
  239MOL0     H32219  10.314  -1.705   9.203 -0.5168  2.0155  2.9336
  239MOL0     H32220  10.464  -1.808   9.184  2.3368  1.3667  0.7656
  239MOL0     H32221  10.345  -1.859   9.388 -2.1234  1.3587  0.6101
  239MOL0     H32222  10.336  -1.691   9.429 -0.0108  0.7647 -1.6148
  239MOL0     H32223  10.585  -1.695   9.447 -3.5866  2.8411  2.1342
  239MOL0     H32224  10.593  -1.877   9.398  0.8486 -1.1977  1.0974
  239MOL0     H32225  10.550  -1.821   9.842 -0.0340 -0.5940 -1.0363
  239MOL0     H32226  10.750  -1.772   9.980  3.4726 -1.2831  0.7810
  239MOL0     H32227  11.141  -1.497   9.914 -0.1303 -0.1350 -1.0882
  239MOL0     H32228  11.341  -1.379   9.998  0.7834  0.5999 -0.7047
  239MOL0     H32229  11.628  -1.415   9.833 -2.3031  3.7532 -0.2790
  239MOL0     H32230  11.614  -1.319   9.985 -2.3876 -0.9951  0.4437
  239MOL0     H32231  11.831  -1.483   9.880 -1.1026  0.4706 -1.6970
  239MOL0     H32232  11.829  -1.314   9.936 -0.4862  0.9573  1.2351
  239MOL0     H32233  11.794  -1.407  10.181  1.7400 -0.9280  1.2201
  239MOL0     H32234  11.842  -1.557  10.111 -2.5330 -0.6065  0.8984
  239MOL0     H32235  12.004  -1.283  10.113  0.8623  0.4753  2.6631
  239MOL0     H32236  12.064  -1.446  10.061 -0.8425 -1.6268  0.0317
  239MOL0     H32237  12.135  -1.404  10.273  0.5874 -1.6539 -3.3054
  239MOL0     H32238  12.004  -1.522  10.289 -1.6340 -0.5397 -3.5373
  239MOL0     H32239  11.986  -1.220  10.327 -1.4126 -0.0032  0.3259
  239MOL0     H32240  11.863  -1.343  10.387  0.6412 -1.8825  2.0078
  239MOL0     H32241  12.140  -1.315  10.481 -0.0871  4.1374 -2.1427
  239MOL0     H32242  12.014  -1.423  10.553  0.0077  0.7052  1.9059
  239MOL0     H32243  11.995  -1.113  10.573  0.2774 -0.3762  1.0748
  239MOL0     H32244  11.877  -1.228  10.629 -0.5111 -3.0535  0.9743
  239MOL0     H32245  11.564  -1.728   9.880 -2.2099 -1.9342  1.6500
  239MOL0     H32246  11.353  -1.839   9.804  0.9085  0.5685 -1.3897
  239MOL0     H32247  11.000  -1.851   9.634  2.1965  3.5441  2.9213
  239MOL0     H32248  10.784  -1.873   9.499  0.0625  2.5222 -0.4605
  239MOL0     H32249  10.575  -0.425   8.799 -2.3008  1.1593  0.9940
  239MOL0     H32250  10.497  -0.174   8.837 -0.4386  2.6410 -2.0233
  239MOL0     H32251  10.569   0.188   8.783  1.4620  2.6922 -1.8778
  239MOL0     H32252  10.562   0.418   8.886  0.0949  0.3173 -0.1181
  239MOL0     H32253  10.312   0.720   8.974  2.2827 -3.0053  1.1527
  239MOL0     H32254  10.193   0.595   8.933  0.6403 -1.6869  0.5963
  239MOL0     H32255  10.194   0.699   8.693  1.0033  2.4582 -2.0884
  239MOL0     H32256  10.327   0.790   8.728 -1.8605  2.1293 -2.0585
  239MOL0     H32257  10.185   0.898   8.951  0.5295 -1.7130  0.6756
  239MOL0     H32258  10.058   0.796   8.895 -1.3396 -0.4199 -3.3732
  239MOL0     H32259  10.018   0.935   8.699  1.6600 -0.2251 -1.7781
  239MOL0     H32260  10.035   1.032   8.844  3.1571  1.6086  0.5556
  239MOL0     H32261  10.389   1.150   8.645 -0.2984 -0.4473 -1.0012
  239MOL0     H32262  10.177   0.471   8.708 -1.2846 -2.9702 -1.1269
  239MOL0     H32263  10.119   0.183   8.578 -3.4118  2.3065 -0.2601
  239MOL0     H32264  10.105   0.351   8.530  1.5893  2.3265  0.9744
  239MOL0     H32265  10.220   0.250   8.446 -1.5438 -2.2630  0.1552
  240MOL0     O32266  10.871   9.246  11.224  0.7837  0.0035 -0.2878
  240MOL0     C32267  10.848   9.212  11.340 -0.3698  0.2727 -0.8951
  240MOL0     O32268  10.721   9.167  11.385 -1.1607 -0.4018 -0.0331
  240MOL0     C32269  10.618   9.147  11.300 -1.0885 -0.2429 -0.6466
  240MOL0     C32270  10.484   9.187  11.330 -0.2116  0.0547  0.3171
  240MOL0     C32271  10.380   9.165  11.242  0.3590 -0.8370  1.1977
  240MOL0     C32272  10.408   9.111  11.118 -0.6815  1.0115 -0.5131
  240MOL0     O32273  10.305   9.101  11.027 -0.5981  0.0713 -0.6287
  240MOL0     C32274  10.328   9.161  10.898 -0.3470 -0.4315 -0.5705
  240MOL0     C32275  10.257   9.304  10.904  0.1704 -1.4725  0.1511
  240MOL0     C32276  10.350   9.405  10.833 -0.7244 -0.3240  0.4441
  240MOL0     C32277  10.469   9.468  10.909 -0.4547 -0.7040 -0.0096
  240MOL0     C32278  10.568   9.534  10.812  0.5320  0.1323 -0.6792
  240MOL0     C32279  10.712   9.557  10.872 -0.3790  0.2499  0.3909
  240MOL0     C32280  10.820   9.448  10.843  0.3825 -0.9963 -0.3696
  240MOL0     C32281  10.944   9.454  10.941  0.2358  0.9635  0.8421
  240MOL0     N32282  11.045   9.557  10.884 -0.1684 -0.4596 -0.0992
  240MOL0     C32283  11.099   9.557  10.757  0.2794 -0.1147 -0.5471
  240MOL0     C32284  11.167   9.673  10.747 -1.0874 -0.0063  0.1744
  240MOL0     C32285  11.238   9.727  10.617  0.1875 -0.0906 -0.1455
  240MOL0     C32286  11.136   9.741  10.493 -0.2370 -1.1783  0.3762
  240MOL0     C32287  11.019   9.840  10.520  0.3693  0.2476 -0.1562
  240MOL0     C32288  11.071   9.973  10.577  0.0178 -0.5844 -1.5191
  240MOL0     O32289  10.968  10.069  10.611  0.0221 -0.7006 -0.4920
  240MOL0     C32290  10.893  10.034  10.720 -0.1371  0.0840  0.6340
  240MOL0     C32291  10.944   9.999  10.850 -0.2320 -0.4795  0.8009
  240MOL0     C32292  10.863   9.935  10.943  0.6723 -0.1022 -0.4943
  240MOL0     C32293  10.723   9.919  10.922  0.1173 -0.1002  0.7762
  240MOL0     C32294  10.631   9.863  11.021 -0.3533  1.4330 -0.1289
  240MOL0     O32295  10.509   9.829  10.983 -0.9721 -0.1711  0.5310
  240MOL0     C32296  10.424   9.803  11.082 -0.2755 -0.9699 -0.6069
  240MOL0     C32297  10.444   9.697  11.179 -1.3021  0.4752  0.6911
  240MOL0     C32298  10.366   9.676  11.288  0.0293 -0.0964  0.2472
  240MOL0     C32299  10.249   9.759  11.298 -0.6037  0.1382  0.4407
  240MOL0     O32300  10.148   9.741  11.398  0.5246  0.4333 -0.9825
  240MOL0     C32301  10.190   9.680  11.524  0.3217  0.1437  0.4375
  240MOL0     C32302  10.098   9.713  11.633  0.3701  0.5554  0.7751
  240MOL0     C32303  10.118   9.621  11.762  0.3032  0.5817 -0.3914
  240MOL0     C32304  10.251   9.640  11.837  0.6432  0.1621  0.1715
  240MOL0     C32305  10.252   9.605  11.990  0.3071  0.1442 -0.4798
  240MOL0     C32306  10.378   9.658  12.040 -0.9209 -0.1809 -0.4152
  240MOL0     C32307  10.390   9.654  12.194 -0.6630  0.1611  0.5084
  240MOL0     C32308  10.400   9.519  12.248 -0.6799  0.0356 -0.2362
  240MOL0    Cl32309  10.486   9.519  12.405  0.1483 -0.1028 -0.1703
  240MOL0     C32310  10.230   9.866  11.212 -0.3034  0.8398  0.3995
  240MOL0     C32311  10.323   9.897  11.110 -0.2093  0.6783  0.5747
  240MOL0     O32312  10.680   9.860  11.134 -0.1017 -0.0401 -0.2415
  240MOL0     C32313  10.674   9.952  10.796  1.6980 -0.2879  0.1753
  240MOL0     C32314  10.756  10.017  10.696  0.0653 -0.1134 -0.6210
  240MOL0     N32315  11.157   9.741  10.862 -0.0342  0.5772 -0.2485
  240MOL0     N32316  11.092   9.674  10.945  0.4293 -0.3713  0.3528
  240MOL0     C32317  10.533   9.045  11.104 -0.2136 -0.6422  0.4670
  240MOL0     C32318  10.641   9.071  11.190  0.7443 -0.2846  0.5795
  240MOL0     C32319  10.957   9.201  11.444  0.1823 -0.2394  1.5120
  240MOL0     C32320  10.934   9.133  11.566  0.6492 -0.2396  0.0699
  240MOL0     C32321  11.029   9.103  11.664 -1.0329  0.7434 -0.0035
  240MOL0     C32322  11.163   9.148  11.632  2.0495 -0.1942  0.8489
  240MOL0     O32323  11.269   9.095  11.704  0.5384 -0.9745 -0.3354
  240MOL0     C32324  11.402   9.116  11.666 -0.3530  0.4912 -0.2324
  240MOL0     C32325  11.497   9.049  11.777  0.8848 -0.5127  0.4402
  240MOL0     C32326  11.649   9.077  11.761  0.7154 -1.0345  0.8973
  240MOL0     C32327  11.752   9.006  11.846 -0.9654  0.8656  0.1418
  240MOL0     C32328  11.882   9.031  11.777  0.4067  0.5330  0.2387
  240MOL0     C32329  11.979   9.047  11.701 -0.3861  0.3968 -0.5478
  240MOL0     C32330  11.180   9.229  11.520  0.0830 -0.3827  0.0045
  240MOL0     C32331  11.076   9.254  11.424 -0.1919 -0.3415 -0.3681
  240MOL0     C32332  11.111   9.360  11.319 -0.1585 -0.0828  0.3412
  240MOL0     H32333  10.456   9.232  11.425  0.2189 -1.4070  1.1634
  240MOL0     H32334  10.275   9.179  11.265 -0.2772 -2.4313 -0.4891
  240MOL0     H32335  10.436   9.164  10.882 -0.2229  1.1049  0.3827
  240MOL0     H32336  10.277   9.109  10.816  0.0859 -2.7338  0.5423
  240MOL0     H32337  10.225   9.343  11.001  1.1633 -3.0210  1.1507
  240MOL0     H32338  10.169   9.315  10.840 -0.1845  1.0015  0.9595
  240MOL0     H32339  10.296   9.491  10.792 -1.8165 -1.9741 -1.8433
  240MOL0     H32340  10.399   9.352  10.750  0.2614 -1.0968  1.4809
  240MOL0     H32341  10.434   9.541  10.982 -1.0987  0.5291 -1.4842
  240MOL0     H32342  10.517   9.389  10.968 -1.4703 -0.0588  1.7199
  240MOL0     H32343  10.572   9.478  10.717  3.0546 -0.3735 -0.3455
  240MOL0     H32344  10.521   9.630  10.790  1.1073  0.6317  0.1981
  240MOL0     H32345  10.749   9.650  10.829 -2.5270  1.1416  0.3516
  240MOL0     H32346  10.708   9.569  10.980  0.7200 -3.4096  0.9796
  240MOL0     H32347  10.856   9.446  10.740  1.2508 -0.8093 -0.0751
  240MOL0     H32348  10.768   9.353  10.861  0.0501 -0.3714  2.4472
  240MOL0     H32349  10.910   9.471  11.043 -0.7716 -1.0846  0.9122
  240MOL0     H32350  10.995   9.357  10.945  0.2094  0.9896  2.6897
  240MOL0     H32351  11.093   9.476  10.685 -0.0222 -3.4536  2.8808
  240MOL0     H32352  11.293   9.820  10.638  1.4198 -0.4234 -1.7084
  240MOL0     H32353  11.319   9.657  10.594 -0.4572 -0.4496 -1.4067
  240MOL0     H32354  11.195   9.774  10.408  0.0209  1.3482  1.4355
  240MOL0     H32355  11.083   9.649  10.465  1.2390 -2.1300  0.6367
  240MOL0     H32356  10.954   9.785  10.588  0.1641  1.6642  0.8307
  240MOL0     H32357  10.958   9.849  10.430  0.9298  1.3514 -0.4446
  240MOL0     H32358  11.133  10.013  10.496  0.7139  2.8498  0.5029
  240MOL0     H32359  11.124   9.951  10.670 -1.3593 -3.1349 -1.2252
  240MOL0     H32360  11.050  10.010  10.872  0.5001 -3.0856 -0.9605
  240MOL0     H32361  10.908   9.916  11.040  1.3924  3.5986  0.0469
  240MOL0     H32362  10.533   9.637  11.164 -0.0673  1.9357  1.8012
  240MOL0     H32363  10.390   9.604  11.366 -1.9998  0.1949  1.1841
  240MOL0     H32364  10.191   9.571  11.517 -3.7268 -0.3575  3.7557
  240MOL0     H32365  10.290   9.719  11.547  0.9255 -0.6030 -0.8085
  240MOL0     H32366  10.100   9.819  11.659 -1.0978  0.7064  0.3537
  240MOL0     H32367  10.002   9.683  11.589  0.3461 -2.1801  2.4760
  240MOL0     H32368  10.032   9.632  11.830 -0.0464 -1.6291 -0.3896
  240MOL0     H32369  10.106   9.514  11.744 -1.9338  0.5622  0.8080
  240MOL0     H32370  10.257   9.749  11.833 -3.5934  0.5464 -0.1640
  240MOL0     H32371  10.335   9.588  11.789 -1.7689 -5.1584  1.0446
  240MOL0     H32372  10.251   9.496  11.996  0.9470  0.2157  1.6996
  240MOL0     H32373  10.161   9.649  12.033 -1.0701 -1.4632 -1.6098
  240MOL0     H32374  10.462   9.614  11.986  0.3369  0.4739  0.9378
  240MOL0     H32375  10.384   9.763  12.009  2.5805 -1.3046 -4.4178
  240MOL0     H32376  10.307   9.699  12.249  1.4490  3.2234  1.5135
  240MOL0     H32377  10.477   9.715  12.221 -1.7885  2.4844 -0.8056
  240MOL0     H32378  10.299   9.480  12.261 -1.2523  1.7980  0.9741
  240MOL0     H32379  10.461   9.460  12.179 -0.6651  2.3368 -2.3061
  240MOL0     H32380  10.146   9.930  11.236 -1.9288 -1.2062  0.4366
  240MOL0     H32381  10.309   9.987  11.052  0.6220  0.5515  0.1511
  240MOL0     H32382  10.570   9.939  10.768  2.0450 -1.0353 -0.8103
  240MOL0     H32383  10.704  10.059  10.611 -0.4675  1.6348  0.5047
  240MOL0     H32384  10.544   8.988  11.011  0.9183  0.6963 -0.2611
  240MOL0     H32385  10.741   9.032  11.179  0.8070 -0.9079  2.8450
  240MOL0     H32386  10.840   9.081  11.579 -0.3892  1.1363 -1.5153
  240MOL0     H32387  11.015   9.050  11.757  2.0599  0.2445  0.2912
  240MOL0     H32388  11.433   9.221  11.668  2.6139 -0.2843  2.8432
  240MOL0     H32389  11.426   9.076  11.568 -0.0903 -0.2129  0.1104
  240MOL0     H32390  11.499   8.941  11.792 -0.8897 -0.5732  0.4984
  240MOL0     H32391  11.464   9.087  11.874 -1.1360 -3.0825  0.8937
  240MOL0     H32392  11.656   9.185  11.773 -0.9042 -1.0481  2.2959
  240MOL0     H32393  11.669   9.065  11.654 -3.6118  4.1266 -0.9094
  240MOL0     H32394  11.761   9.046  11.948  1.1554  1.4039 -0.2144
  240MOL0     H32395  11.725   8.902  11.866 -0.7322  0.9677  1.0787
  240MOL0     H32396  12.070   9.057  11.644  1.4905 -0.4627  2.0867
  240MOL0     H32397  11.279   9.267  11.498  0.9054 -0.7591  2.7219
  240MOL0     H32398  11.187   9.437  11.337 -0.7655  0.4722  0.5887
  240MOL0     H32399  11.144   9.313  11.226  0.9005  0.5508  0.3731
  240MOL0     H32400  11.019   9.411  11.290 -1.6941 -1.8072  1.8997
  241MOL0     O32401   4.108  11.008   8.641  0.1292  0.0371  0.2471
  241MOL0     C32402   4.163  10.947   8.727 -0.2358  0.1148 -0.2962
  241MOL0     O32403   4.252  10.846   8.708 -0.4651 -0.2138  0.3186
  241MOL0     C32404   4.265  10.786   8.586 -0.2764  0.0607 -0.7624
  241MOL0     C32405   4.387  10.743   8.552  0.2172 -0.3682  1.0618
  241MOL0     C32406   4.398  10.677   8.429 -0.3281  0.1229 -0.0865
  241MOL0     C32407   4.289  10.662   8.336  0.1835 -0.7937 -1.2533
  241MOL0     O32408   4.309  10.627   8.205 -0.2021 -0.5302  0.3094
  241MOL0     C32409   4.440  10.606   8.145 -0.4902  0.2643  0.7126
  241MOL0     C32410   4.529  10.729   8.124 -0.5197 -0.7275 -0.5716
  241MOL0     C32411   4.662  10.688   8.069  0.1642  1.6410  0.1427
  241MOL0     C32412   4.757  10.803   8.045 -0.6858  1.1924 -0.3352
  241MOL0     C32413   4.902  10.763   8.042  0.0298 -0.9454  0.3699
  241MOL0     C32414   4.933  10.652   7.941  0.3575 -0.3058  0.0540
  241MOL0     C32415   5.086  10.628   7.931 -0.0344 -0.3895  0.4288
  241MOL0     C32416   5.111  10.564   7.792  1.2454 -0.3447 -0.1194
  241MOL0     N32417   5.040  10.438   7.758  0.6882  0.2753 -0.2439
  241MOL0     C32418   5.068  10.317   7.810 -0.0829 -0.1572  0.3744
  241MOL0     C32419   4.964  10.236   7.780  0.3419 -0.2496 -0.3037
  241MOL0     C32420   4.924  10.107   7.839 -0.7038  0.1966 -0.0658
  241MOL0     C32421   4.913  10.115   7.995 -1.2969  0.2699 -0.9256
  241MOL0     C32422   4.799  10.201   8.056 -0.1348  0.3984 -0.2127
  241MOL0     C32423   4.664  10.168   7.988 -0.8576  0.2875 -0.0544
  241MOL0     O32424   4.617  10.032   8.008 -0.2931  0.1088  0.2685
  241MOL0     C32425   4.485  10.004   7.992  0.0975  0.6746  0.7838
  241MOL0     C32426   4.450   9.872   8.026 -0.2453 -0.0509 -0.3329
  241MOL0     C32427   4.323   9.816   8.000 -0.8882 -0.3858 -0.8027
  241MOL0     C32428   4.224   9.893   7.944  0.2183  0.1178 -0.4968
  241MOL0     C32429   4.088   9.842   7.907  0.6993 -0.3061  0.6325
  241MOL0     O32430   4.002   9.938   7.864  1.1353  0.3891 -0.6350
  241MOL0     C32431   3.894   9.898   7.798 -0.1017 -0.0720  0.2008
  241MOL0     C32432   3.900   9.836   7.671 -0.7692 -0.0370 -0.0633
  241MOL0     C32433   3.784   9.817   7.596 -0.4524 -0.4812  0.6286
  241MOL0     C32434   3.659   9.858   7.635  0.3160  0.5171 -0.2822
  241MOL0     O32435   3.552   9.839   7.557 -0.3785  0.2661  0.4411
  241MOL0     C32436   3.426   9.817   7.630  0.3198  0.1485 -0.0159
  241MOL0     C32437   3.320   9.751   7.548  0.8498  0.4937 -0.0799
  241MOL0     C32438   3.300   9.822   7.411  1.3600  0.0380  0.1763
  241MOL0     C32439   3.189   9.747   7.341  0.8455 -0.1493  0.5733
  241MOL0     C32440   3.158   9.816   7.207 -0.2064 -0.6062 -0.2745
  241MOL0     C32441   3.036   9.755   7.137  0.4351  0.1169  0.1631
  241MOL0     C32442   2.942   9.848   7.057 -0.0376 -0.2689  0.0151
  241MOL0     C32443   3.012   9.936   6.949  0.2690  0.0133  0.7488
  241MOL0    Cl32444   3.099   9.809   6.845  0.3018 -0.1390 -0.5588
  241MOL0     C32445   3.649   9.920   7.767  0.3189  0.2798  0.9662
  241MOL0     C32446   3.765   9.939   7.848  0.1634 -0.4253 -1.0622
  241MOL0     O32447   4.055   9.727   7.931  0.2462 -0.2691 -0.0473
  241MOL0     C32448   4.259  10.026   7.906  0.4497  0.3331  0.2522
  241MOL0     C32449   4.388  10.075   7.923  0.3206 -0.8979 -0.5756
  241MOL0     N32450   4.877  10.309   7.703 -0.0609 -0.0067  0.2395
  241MOL0     N32451   4.924  10.425   7.686 -0.0207 -0.6310 -0.0950
  241MOL0     C32452   4.166  10.700   8.379  0.2036 -1.0773  1.1369
  241MOL0     C32453   4.149  10.755   8.507 -0.4913  0.4791 -0.4352
  241MOL0     C32454   4.132  10.981   8.862 -0.6637  1.0553  0.3588
  241MOL0     C32455   4.225  10.926   8.954 -0.2667  1.0379 -0.3923
  241MOL0     C32456   4.201  10.943   9.094 -0.1115 -0.0312  0.1919
  241MOL0     C32457   4.090  11.008   9.138  0.1080 -0.1797 -1.0254
  241MOL0     O32458   4.079  11.026   9.273 -0.3974 -0.1951 -0.3850
  241MOL0     C32459   4.080  11.162   9.314  0.6094  0.2761 -1.2000
  241MOL0     C32460   4.131  11.169   9.461 -0.5674 -0.2079  0.2304
  241MOL0     C32461   4.053  11.066   9.540 -0.8880  0.1864  0.0128
  241MOL0     C32462   4.079  11.073   9.699  0.8628 -0.3269 -0.7704
  241MOL0     C32463   4.217  11.052   9.729  1.3168 -0.1589  0.3255
  241MOL0     C32464   4.334  11.022   9.735  0.1875  0.2827 -1.0222
  241MOL0     C32465   4.000  11.063   9.047 -0.7932 -0.1183  0.9790
  241MOL0     C32466   4.015  11.042   8.908  0.2591  0.2434  0.1364
  241MOL0     C32467   3.899  11.063   8.823  0.7140 -0.4146 -0.0149
  241MOL0     H32468   4.471  10.772   8.615 -0.4653  2.4625  0.7623
  241MOL0     H32469   4.497  10.637   8.409  0.0881  1.5498 -1.0107
  241MOL0     H32470   4.504  10.530   8.191  1.7643  1.9340  0.5131
  241MOL0     H32471   4.411  10.556   8.052 -1.0446 -2.8295  2.4165
  241MOL0     H32472   4.530  10.798   8.209 -1.4724  0.0185 -1.1357
  241MOL0     H32473   4.488  10.803   8.054 -2.9555 -2.2002 -0.8333
  241MOL0     H32474   4.647  10.632   7.976  1.5476  0.0008  0.8499
  241MOL0     H32475   4.713  10.614   8.131 -0.6881 -0.4857 -1.5871
  241MOL0     H32476   4.735  10.854   7.951 -1.3518  0.5250 -0.5531
  241MOL0     H32477   4.741  10.871   8.129 -0.0016 -0.4226  1.1643
  241MOL0     H32478   4.944  10.857   8.006  1.7594 -1.3705  1.1565
  241MOL0     H32479   4.949  10.735   8.137 -1.0727  2.7216  2.1696
  241MOL0     H32480   4.880  10.559   7.965 -1.1116 -0.2062 -2.4672
  241MOL0     H32481   4.885  10.681   7.847  0.5379  2.2955  0.6904
  241MOL0     H32482   5.120  10.555   8.006 -1.8897  0.4682  2.1715
  241MOL0     H32483   5.138  10.723   7.947  0.2418 -0.7674  1.9232
  241MOL0     H32484   5.081  10.641   7.721  3.1183  1.2460  0.7036
  241MOL0     H32485   5.220  10.557   7.777  1.3963  0.9064  0.2655
  241MOL0     H32486   5.136  10.295   7.892  0.7901 -0.2095 -0.3424
  241MOL0     H32487   4.825  10.074   7.809 -0.9618 -0.4345  1.3890
  241MOL0     H32488   4.989  10.023   7.812 -1.7815 -0.4620 -0.6276
  241MOL0     H32489   4.903  10.018   8.044  0.2290  0.2390 -0.6258
  241MOL0     H32490   5.010  10.149   8.030 -1.1070 -0.2909 -0.8893
  241MOL0     H32491   4.829  10.305   8.041  1.6892  0.0587  0.8220
  241MOL0     H32492   4.788  10.187   8.164 -0.2868 -1.5711 -0.4474
  241MOL0     H32493   4.664  10.197   7.882 -0.8462  0.1622 -0.0893
  241MOL0     H32494   4.591  10.240   8.023 -0.6798 -0.7213  2.6107
  241MOL0     H32495   4.517   9.812   8.087 -1.6856 -1.3597  0.0130
  241MOL0     H32496   4.305   9.716   8.038  0.0667 -0.3683 -0.2597
  241MOL0     H32497   3.999   9.807   7.637 -0.0099  1.2557  0.9566
  241MOL0     H32498   3.790   9.749   7.512 -1.6293  2.2549 -1.8684
  241MOL0     H32499   3.440   9.752   7.716  1.4507  4.3075  3.3042
  241MOL0     H32500   3.390   9.912   7.671  1.5978 -0.0477  1.6331
  241MOL0     H32501   3.352   9.646   7.543  1.6743  0.7342  0.0568
  241MOL0     H32502   3.227   9.760   7.603  2.9310  1.6056  3.5837
  241MOL0     H32503   3.257   9.922   7.426 -1.2005 -0.9826  0.2174
  241MOL0     H32504   3.392   9.828   7.353  1.6694 -0.7822  0.5595
  241MOL0     H32505   3.096   9.749   7.399  0.4869  0.9164 -0.0187
  241MOL0     H32506   3.224   9.645   7.321  1.5782  0.3873 -1.0774
  241MOL0     H32507   3.242   9.816   7.136 -1.0328 -2.0133 -1.3166
  241MOL0     H32508   3.141   9.918   7.239 -1.0885 -1.5367  2.4714
  241MOL0     H32509   3.058   9.662   7.083 -1.5317  0.8029 -1.9696
  241MOL0     H32510   2.972   9.716   7.217 -0.5332  0.5936 -0.3628
  241MOL0     H32511   2.895   9.915   7.130  4.4707  3.1319  0.2601
  241MOL0     H32512   2.872   9.784   7.002  0.5197 -2.2805  1.4983
  241MOL0     H32513   2.934   9.977   6.885 -0.8857 -2.0032  0.7722
  241MOL0     H32514   3.086   9.996   7.002  1.6364 -2.1539  1.4382
  241MOL0     H32515   3.548   9.942   7.800  0.0899 -2.7384  2.6789
  241MOL0     H32516   3.741   9.979   7.946  0.4119 -0.9532 -0.7796
  241MOL0     H32517   4.183  10.095   7.873  0.2981 -0.4887 -1.1693
  241MOL0     H32518   4.400  10.181   7.903 -3.2311 -0.3444 -0.3938
  241MOL0     H32519   4.080  10.692   8.313  1.6994 -0.9483 -0.9121
  241MOL0     H32520   4.048  10.774   8.540 -0.5268  0.6574 -0.6438
  241MOL0     H32521   4.309  10.861   8.930 -0.3750 -0.1074  2.0565
  241MOL0     H32522   4.274  10.899   9.160  1.5554 -0.3880 -1.7934
  241MOL0     H32523   3.976  11.196   9.310  0.6814  1.5394  2.8585
  241MOL0     H32524   4.154  11.223   9.261  2.4241 -0.7330  0.0663
  241MOL0     H32525   4.118  11.270   9.502  1.9929  0.7388 -1.0792
  241MOL0     H32526   4.239  11.151   9.470 -0.2230  1.3477 -0.4509
  241MOL0     H32527   4.078  10.966   9.502 -1.7948  0.4800 -1.4307
  241MOL0     H32528   3.946  11.082   9.523 -1.0318 -0.2561  0.4691
  241MOL0     H32529   4.043  11.165   9.747 -0.2495 -1.4771  0.7084
  241MOL0     H32530   4.012  10.999   9.744  0.4774  1.2109  1.3402
  241MOL0     H32531   4.440  11.010   9.739 -0.1230 -4.0387 -1.3065
  241MOL0     H32532   3.911  11.113   9.082 -2.9437 -1.9053 -1.4950
  241MOL0     H32533   3.925  11.127   8.739 -2.0122  2.1888  0.9386
  241MOL0     H32534   3.843  10.977   8.787 -4.6003  3.0428 -1.2752
  241MOL0     H32535   3.820  11.108   8.885  0.2449  1.7589 -2.0536
  242MOL0     O32536   7.978   7.248   2.510 -0.4803  0.2550 -0.9738
  242MOL0     C32537   8.070   7.326   2.496  0.0171 -0.2451 -0.2462
  242MOL0     O32538   8.090   7.441   2.573 -0.0582 -0.1750 -0.3252
  242MOL0     C32539   7.998   7.474   2.667  0.4027 -0.6377  0.8607
  242MOL0     C32540   7.903   7.567   2.648 -0.0727  0.0247 -0.8397
  242MOL0     C32541   7.819   7.610   2.755  0.8299  0.7989 -0.0359
  242MOL0     C32542   7.823   7.549   2.872 -0.3774  0.2788 -0.2014
  242MOL0     O32543   7.733   7.586   2.968  0.1541  0.0174 -0.2308
  242MOL0     C32544   7.778   7.685   3.064 -1.3441  0.3701 -0.0546
  242MOL0     C32545   7.835   7.630   3.198  0.2827  0.4484 -1.0015
  242MOL0     C32546   7.735   7.522   3.244 -0.5362 -0.5278  0.0922
  242MOL0     C32547   7.781   7.496   3.388  0.2277  0.1558 -0.0415
  242MOL0     C32548   7.886   7.385   3.412 -0.1207  0.4036 -0.1965
  242MOL0     C32549   7.872   7.317   3.550  0.7089 -0.1099 -0.9546
  242MOL0     C32550   7.988   7.220   3.576  0.2113  0.3597  0.9212
  242MOL0     C32551   7.984   7.146   3.711  0.2309  0.2365  0.1396
  242MOL0     N32552   7.886   7.040   3.723  0.6953  0.4410  0.7695
  242MOL0     C32553   7.748   7.056   3.712 -0.1911 -0.4273  0.1969
  242MOL0     C32554   7.699   6.939   3.748  0.3054  0.2633  0.7247
  242MOL0     C32555   7.558   6.893   3.730  0.5069 -0.3790  0.0840
  242MOL0     C32556   7.533   6.796   3.626 -0.2766 -1.2673  0.1945
  242MOL0     C32557   7.397   6.744   3.624  1.7753 -0.1042 -0.1514
  242MOL0     C32558   7.307   6.842   3.546 -0.3965 -0.2396 -0.6243
  242MOL0     O32559   7.238   6.949   3.613  0.3005 -0.5498 -0.0790
  242MOL0     C32560   7.113   6.927   3.678  0.1849 -0.9719 -0.5300
  242MOL0     C32561   7.069   7.025   3.772  0.0401  0.6730 -0.2652
  242MOL0     C32562   6.948   7.005   3.839  0.1582  0.3621  0.4707
  242MOL0     C32563   6.871   6.892   3.827  0.4610  0.0770  0.1921
  242MOL0     C32564   6.759   6.874   3.919  0.0202 -0.0626 -0.5083
  242MOL0     O32565   6.732   6.976   4.015  0.1888 -0.1618 -0.4015
  242MOL0     C32566   6.641   6.958   4.114 -0.5601 -0.1169 -0.7343
  242MOL0     C32567   6.684   6.995   4.243 -0.6990 -1.0398  0.4065
  242MOL0     C32568   6.616   6.980   4.355 -0.1944 -0.7523  0.2344
  242MOL0     C32569   6.486   6.929   4.349 -0.2144  0.1344 -0.1775
  242MOL0     O32570   6.423   6.914   4.470  0.8907 -0.6055 -0.0915
  242MOL0     C32571   6.282   6.887   4.462  0.4164  0.1691 -0.2518
  242MOL0     C32572   6.223   6.921   4.600  0.6684 -0.1708  0.8929
  242MOL0     C32573   6.248   7.069   4.643  0.6218 -0.0103 -0.2048
  242MOL0     C32574   6.129   7.107   4.731  0.3983 -0.5447  0.6386
  242MOL0     C32575   6.110   7.050   4.871 -0.1018 -0.0588 -0.7326
  242MOL0     C32576   6.241   7.047   4.958 -0.0107 -1.1016  0.1764
  242MOL0     C32577   6.286   7.189   4.992 -0.0446  0.9912  0.7130
  242MOL0     C32578   6.437   7.195   5.044 -0.4016 -0.2414  0.2964
  242MOL0    Cl32579   6.450   7.081   5.191 -0.2456  0.4783  0.0313
  242MOL0     C32580   6.428   6.904   4.222  0.2842 -0.3304  0.8717
  242MOL0     C32581   6.507   6.920   4.104 -0.3830  0.1650 -0.1207
  242MOL0     O32582   6.694   6.770   3.906  0.5523 -0.4415  0.1813
  242MOL0     C32583   6.915   6.787   3.746  0.2033 -0.1444  0.6218
  242MOL0     C32584   7.037   6.808   3.668  0.0102 -0.2875 -0.2607
  242MOL0     N32585   7.803   6.857   3.779  0.0586  0.0296  0.4908
  242MOL0     N32586   7.916   6.909   3.755 -0.1861  1.5198 -0.4566
  242MOL0     C32587   7.913   7.444   2.891 -0.3879  0.4580  0.3059
  242MOL0     C32588   8.012   7.414   2.791 -0.1325 -1.0070  0.6016
  242MOL0     C32589   8.187   7.281   2.416  0.5923  0.4052  0.1975
  242MOL0     C32590   8.316   7.300   2.473  0.6348 -0.1390  0.1053
  242MOL0     C32591   8.434   7.283   2.404  0.2016  0.1407  0.5600
  242MOL0     C32592   8.431   7.241   2.272  0.1250 -0.4664 -0.3804
  242MOL0     O32593   8.547   7.224   2.214 -0.5776  1.0484 -0.3463
  242MOL0     C32594   8.573   7.116   2.120 -0.5019  0.3156  0.3377
  242MOL0     C32595   8.542   6.975   2.175 -1.1112 -0.1495 -0.8690
  242MOL0     C32596   8.628   6.928   2.291  0.6306 -0.5398  0.4000
  242MOL0     C32597   8.765   6.996   2.307  0.4730 -0.2059  0.4670
  242MOL0     C32598   8.860   6.930   2.389  0.2310  0.0619 -0.1872
  242MOL0     C32599   8.945   6.877   2.461  0.6271 -0.2822 -0.0618
  242MOL0     C32600   8.308   7.221   2.207  1.0759 -0.2712 -0.2863
  242MOL0     C32601   8.185   7.239   2.284  0.4078 -0.4296  0.1067
  242MOL0     C32602   8.052   7.225   2.212 -0.3565 -0.9687 -0.5894
  242MOL0     H32603   7.895   7.591   2.543  2.8914 -0.0007 -1.1560
  242MOL0     H32604   7.750   7.690   2.733  0.5380  1.6663  3.3656
  242MOL0     H32605   7.856   7.756   3.035 -1.3871  0.4009 -0.0931
  242MOL0     H32606   7.691   7.747   3.087  0.1043  2.1667  0.8587
  242MOL0     H32607   7.857   7.708   3.272 -3.9647  0.1210  0.9425
  242MOL0     H32608   7.923   7.569   3.176 -2.2066 -3.2630 -1.6130
  242MOL0     H32609   7.745   7.439   3.174 -0.3793  0.3811 -0.9928
  242MOL0     H32610   7.636   7.569   3.245 -0.0064  0.6977  2.4813
  242MOL0     H32611   7.799   7.584   3.451 -1.3593  0.2321  0.3467
  242MOL0     H32612   7.693   7.452   3.436 -0.9382  0.9478 -1.3982
  242MOL0     H32613   7.893   7.312   3.331  2.4541  1.9677 -1.5046
  242MOL0     H32614   7.982   7.435   3.399  2.1529 -3.5888 -0.2268
  242MOL0     H32615   7.872   7.391   3.630 -1.6397  1.9934 -2.7513
  242MOL0     H32616   7.774   7.269   3.546  2.0005 -3.0674 -5.8182
  242MOL0     H32617   8.078   7.283   3.575 -0.1467  0.8823  0.4144
  242MOL0     H32618   8.002   7.151   3.493  0.0996 -1.8365  2.6532
  242MOL0     H32619   8.078   7.093   3.727 -1.1782 -1.7088  2.5845
  242MOL0     H32620   7.973   7.219   3.792  0.0820 -0.0204  0.3512
  242MOL0     H32621   7.684   7.130   3.666 -2.1762 -1.8972  0.4530
  242MOL0     H32622   7.541   6.854   3.831  0.5569  2.1194  1.1379
  242MOL0     H32623   7.486   6.973   3.715  0.3334 -0.8148 -1.5981
  242MOL0     H32624   7.549   6.844   3.530 -0.5400  2.7401  1.9664
  242MOL0     H32625   7.600   6.712   3.649 -0.4393 -0.8482  2.4710
  242MOL0     H32626   7.355   6.735   3.725 -1.3258  1.6635 -1.1497
  242MOL0     H32627   7.393   6.646   3.575  0.4211  0.0742 -0.4456
  242MOL0     H32628   7.237   6.777   3.492 -0.4460 -0.8275  0.1387
  242MOL0     H32629   7.364   6.894   3.468 -1.1153  3.6175  1.2137
  242MOL0     H32630   7.118   7.120   3.792 -2.9365  2.1393  0.6602
  242MOL0     H32631   6.914   7.084   3.905 -1.3871  2.8969 -3.0345
  242MOL0     H32632   6.786   7.029   4.261 -0.4835 -0.8426 -1.0458
  242MOL0     H32633   6.650   7.015   4.452 -1.0604 -0.4191  0.4300
  242MOL0     H32634   6.231   6.953   4.391  0.4735 -1.7321 -2.1683
  242MOL0     H32635   6.257   6.785   4.431 -0.6059  0.2043  0.3909
  242MOL0     H32636   6.118   6.891   4.595  1.2611 -2.3209 -0.0479
  242MOL0     H32637   6.270   6.857   4.676 -0.2127 -2.2926 -0.2539
  242MOL0     H32638   6.343   7.057   4.696  0.7607 -2.1133 -0.8177
  242MOL0     H32639   6.268   7.141   4.563  1.1493  0.1228  0.0440
  242MOL0     H32640   6.036   7.082   4.679  1.2163 -4.6122  0.7564
  242MOL0     H32641   6.136   7.214   4.750 -0.6656 -0.7175  2.2093
  242MOL0     H32642   6.089   6.943   4.863  0.6947 -0.1872 -1.2964
  242MOL0     H32643   6.037   7.104   4.932  2.4304  4.3367 -1.1592
  242MOL0     H32644   6.222   6.997   5.053  2.3360  0.0995  1.3689
  242MOL0     H32645   6.316   6.989   4.903 -1.1745 -2.8513  0.3373
  242MOL0     H32646   6.228   7.217   5.081  0.9408  1.0557  1.3543
  242MOL0     H32647   6.283   7.254   4.904 -0.3552 -0.3001 -0.2555
  242MOL0     H32648   6.498   7.159   4.960  0.7295  1.6831  0.2296
  242MOL0     H32649   6.471   7.296   5.071  1.7036 -0.2193 -2.0837
  242MOL0     H32650   6.328   6.864   4.204 -0.0802  0.4475  1.0927
  242MOL0     H32651   6.470   6.894   4.005 -4.0896 -2.1137  1.6098
  242MOL0     H32652   6.859   6.695   3.730 -1.9753  1.3618 -1.0103
  242MOL0     H32653   7.061   6.725   3.602  0.9619  2.0826 -3.0727
  242MOL0     H32654   7.892   7.380   2.976  0.0179 -1.7322 -1.1494
  242MOL0     H32655   8.080   7.330   2.794 -0.3445 -1.4931 -3.5285
  242MOL0     H32656   8.318   7.352   2.569 -2.4810  0.7533 -0.2108
  242MOL0     H32657   8.525   7.309   2.457 -1.5323  1.2360  3.2004
  242MOL0     H32658   8.676   7.116   2.084 -0.3327 -0.2845  0.7939
  242MOL0     H32659   8.512   7.135   2.032  0.7578 -0.4063 -0.7182
  242MOL0     H32660   8.549   6.900   2.096 -2.3156 -2.4676  1.0727
  242MOL0     H32661   8.435   6.968   2.195 -1.1243 -0.9993 -1.1777
  242MOL0     H32662   8.635   6.820   2.276 -0.0096 -0.4509 -0.6759
  242MOL0     H32663   8.574   6.946   2.384 -2.0611  0.8785 -1.3053
  242MOL0     H32664   8.809   6.990   2.207 -2.0885  0.9210 -0.8235
  242MOL0     H32665   8.763   7.098   2.346 -0.4038  0.3305 -0.8987
  242MOL0     H32666   9.022   6.840   2.525  2.0679  2.4725 -0.0354
  242MOL0     H32667   8.299   7.188   2.104 -2.3834 -0.1603 -0.1120
  242MOL0     H32668   7.987   7.150   2.259 -3.9188  0.6068 -2.5283
  242MOL0     H32669   8.001   7.320   2.198 -1.2732 -0.9708  2.1885
  242MOL0     H32670   8.073   7.185   2.112  2.2518 -1.7128  0.1947
  243MOL0     O32671   0.639   8.156   5.417  0.0679  0.2474 -0.1547
  243MOL0     C32672   0.623   8.128   5.295  0.0848  0.1410 -0.2830
  243MOL0     O32673   0.631   8.217   5.197  0.2531 -0.9606  0.6079
  243MOL0     C32674   0.631   8.351   5.236  0.3474  0.1331  0.1700
  243MOL0     C32675   0.510   8.422   5.204 -0.0593  0.1492  0.1317
  243MOL0     C32676   0.510   8.560   5.222 -0.4259  0.2197 -0.0536
  243MOL0     C32677   0.630   8.628   5.256  0.8662 -0.8757  0.1957
  243MOL0     O32678   0.625   8.763   5.286  0.2154  0.4496 -0.7121
  243MOL0     C32679   0.606   8.797   5.428  0.0382 -0.4552 -0.0307
  243MOL0     C32680   0.718   8.881   5.490  0.8504 -0.1015  0.4707
  243MOL0     C32681   0.749   9.005   5.403  0.8714 -0.2007  0.1764
  243MOL0     C32682   0.834   9.100   5.482 -0.0216 -0.2479 -0.4681
  243MOL0     C32683   0.898   9.203   5.393 -0.2351  0.0403  0.1254
  243MOL0     C32684   0.981   9.306   5.475  0.1754  0.4408 -0.1357
  243MOL0     C32685   1.033   9.430   5.390 -0.2685 -0.2537  0.7540
  243MOL0     C32686   1.096   9.387   5.263  0.2794  0.4380 -0.2211
  243MOL0     N32687   1.156   9.502   5.196 -0.1229  0.5693 -0.3101
  243MOL0     C32688   1.289   9.546   5.214  0.2683 -0.2990 -0.5371
  243MOL0     C32689   1.293   9.663   5.158  0.4201  0.4111  0.0194
  243MOL0     C32690   1.416   9.758   5.143 -0.1420 -0.3070 -0.3644
  243MOL0     C32691   1.477   9.701   5.011  0.3409  0.3840  0.4709
  243MOL0     C32692   1.620   9.752   4.980 -0.0570 -0.3172  0.3970
  243MOL0     C32693   1.670   9.688   4.846 -0.3364  0.5961  0.3401
  243MOL0     O32694   1.814   9.681   4.839  0.4249 -0.9284 -0.2448
  243MOL0     C32695   1.876   9.803   4.820 -0.5970 -0.2686 -0.2214
  243MOL0     C32696   2.009   9.810   4.853  0.5408 -0.6528 -0.2707
  243MOL0     C32697   2.081   9.927   4.831  0.1157 -0.2192 -0.8050
  243MOL0     C32698   2.022  10.041   4.760 -0.4107 -1.0641  1.3956
  243MOL0     C32699   2.099  10.167   4.733  0.2885 -0.6250 -0.3748
  243MOL0     O32700   2.228  10.152   4.771  0.0702 -0.5507 -0.2191
  243MOL0     C32701   2.320  10.255   4.768  0.5476  0.1328 -0.0339
  243MOL0     C32702   2.461  10.221   4.764 -0.0479 -0.1671  0.1839
  243MOL0     C32703   2.551  10.326   4.766 -1.6250 -0.3208 -0.5938
  243MOL0     C32704   2.508  10.459   4.766 -0.8180  0.2622 -0.2857
  243MOL0     O32705   2.586  10.567   4.756  0.1220  0.3806 -0.6381
  243MOL0     C32706   2.727  10.562   4.755  0.1754 -0.3001  0.1333
  243MOL0     C32707   2.791  10.688   4.709  0.5456 -0.1619  0.3629
  243MOL0     C32708   2.943  10.674   4.719  0.2447  0.3487 -0.2539
  243MOL0     C32709   3.029  10.784   4.662  0.7120  0.2358  0.1668
  243MOL0     C32710   3.180  10.763   4.714  0.4373 -0.1650  0.0446
  243MOL0     C32711   3.221  10.612   4.706 -0.5254 -0.0673  0.0154
  243MOL0     C32712   3.378  10.612   4.723 -0.3272 -0.4648 -0.4178
  243MOL0     C32713   3.433  10.470   4.697  0.0384  1.2854 -0.1881
  243MOL0    Cl32714   3.407  10.348   4.823 -0.6045  0.0982  0.1673
  243MOL0     C32715   2.375  10.486   4.774  0.1097 -0.5344 -0.2162
  243MOL0     C32716   2.280  10.383   4.794 -0.1004 -0.0351 -0.8857
  243MOL0     O32717   2.048  10.253   4.665 -0.3254 -0.8320 -0.0085
  243MOL0     C32718   1.887  10.027   4.730 -0.2934 -0.2009  0.7002
  243MOL0     C32719   1.811   9.918   4.766 -0.2159  0.4936 -0.4642
  243MOL0     N32720   1.164   9.692   5.111  0.1580 -0.8016  0.2046
  243MOL0     N32721   1.083   9.595   5.144 -0.6951 -0.6248 -0.0628
  243MOL0     C32722   0.747   8.554   5.284 -0.0281  0.3437  0.5148
  243MOL0     C32723   0.748   8.411   5.281 -1.4298 -0.0370 -0.1775
  243MOL0     C32724   0.549   8.003   5.265 -1.2287 -0.0118 -0.3884
  243MOL0     C32725   0.429   7.994   5.318  0.8782 -0.3198 -0.2180
  243MOL0     C32726   0.332   7.896   5.291 -0.8051  0.8707 -0.1287
  243MOL0     C32727   0.369   7.798   5.200  0.1446  0.8795  0.3898
  243MOL0     O32728   0.266   7.705   5.160 -0.6447 -0.0914 -0.3886
  243MOL0     C32729   0.299   7.571   5.109 -0.5076  0.1056 -0.2702
  243MOL0     C32730   0.305   7.556   4.952 -0.2144  0.2974 -0.0287
  243MOL0     C32731   0.152   7.528   4.906 -0.1109  0.2582  0.5674
  243MOL0     C32732   0.147   7.491   4.766 -0.6079 -1.3018  0.2073
  243MOL0     C32733   0.181   7.598   4.672 -0.6204 -0.4672  0.0115
  243MOL0     C32734   0.222   7.687   4.593  0.2520 -0.5451 -0.2837
  243MOL0     C32735   0.502   7.788   5.156 -0.2602  0.4501 -0.0588
  243MOL0     C32736   0.595   7.897   5.183 -0.1205  0.0524 -0.8078
  243MOL0     C32737   0.729   7.899   5.120  0.2033  0.3019  0.0773
  243MOL0     H32738   0.420   8.363   5.193  0.0790 -1.4320  4.9620
  243MOL0     H32739   0.410   8.597   5.207 -1.7385 -2.5751  1.0148
  243MOL0     H32740   0.509   8.840   5.454 -0.8839 -2.6209  0.4039
  243MOL0     H32741   0.600   8.707   5.491 -0.3018 -0.6949 -0.3998
  243MOL0     H32742   0.808   8.820   5.504 -0.5249 -2.0597  1.3507
  243MOL0     H32743   0.690   8.902   5.594  1.6244  0.4825  0.5712
  243MOL0     H32744   0.655   9.055   5.378  0.1569 -2.6689 -2.8286
  243MOL0     H32745   0.797   8.974   5.309  2.1046 -2.3406  1.4243
  243MOL0     H32746   0.775   9.149   5.561  1.0198  1.2123 -0.5471
  243MOL0     H32747   0.919   9.051   5.530  2.2244  0.8067 -3.1385
  243MOL0     H32748   0.966   9.145   5.329  0.0503 -0.3952  0.8122
  243MOL0     H32749   0.831   9.260   5.328 -0.9855  0.5951  1.3478
  243MOL0     H32750   0.918   9.361   5.545 -1.4072 -1.2490 -0.1264
  243MOL0     H32751   1.062   9.266   5.536 -0.4778  2.6009  2.3174
  243MOL0     H32752   1.110   9.491   5.439 -1.1605  2.0366 -0.5786
  243MOL0     H32753   0.948   9.492   5.361  0.0793  0.1842  0.6602
  243MOL0     H32754   1.174   9.311   5.270 -0.7127 -1.1253 -3.8504
  243MOL0     H32755   1.014   9.350   5.201 -0.5402  0.7124  0.6739
  243MOL0     H32756   1.368   9.482   5.251 -0.5231 -1.7888 -1.3360
  243MOL0     H32757   1.376   9.857   5.116 -3.2157 -1.5555 -0.7624
  243MOL0     H32758   1.480   9.755   5.231 -2.2459 -3.6982  1.2465
  243MOL0     H32759   1.492   9.593   5.012  1.3253  0.4843 -0.9093
  243MOL0     H32760   1.412   9.722   4.926  1.9464  0.4281 -0.7962
  243MOL0     H32761   1.693   9.725   5.056  0.9591  3.0651  0.7989
  243MOL0     H32762   1.617   9.860   4.960  2.7655 -0.4396 -1.2285
  243MOL0     H32763   1.622   9.733   4.759 -0.0028 -1.8889 -1.2250
  243MOL0     H32764   1.638   9.583   4.845  2.5824 -0.3689 -0.7566
  243MOL0     H32765   2.068   9.725   4.887  2.0660  0.7367  0.7247
  243MOL0     H32766   2.182   9.942   4.866 -0.0884  3.6532 -1.4289
  243MOL0     H32767   2.506  10.123   4.764  1.0730  0.3179  1.5126
  243MOL0     H32768   2.654  10.294   4.754 -1.1595  1.7369 -2.9653
  243MOL0     H32769   2.743  10.555   4.863  1.6948  0.2285 -0.0336
  243MOL0     H32770   2.782  10.478   4.713  0.6159  0.0874 -0.0778
  243MOL0     H32771   2.760  10.696   4.604 -0.1553 -0.5744  0.5311
  243MOL0     H32772   2.749  10.768   4.770 -1.1534 -1.2577  0.7159
  243MOL0     H32773   2.961  10.685   4.827  0.4905 -0.5858 -0.1912
  243MOL0     H32774   2.973  10.581   4.670  1.3735  1.0577 -0.9554
  243MOL0     H32775   3.002  10.890   4.666  0.2329  0.3039 -2.7736
  243MOL0     H32776   3.027  10.779   4.553 -1.4914 -1.0264  0.1880
  243MOL0     H32777   3.195  10.787   4.820  0.7559 -2.3652  0.5467
  243MOL0     H32778   3.246  10.826   4.652 -1.5178 -0.1047 -2.0972
  243MOL0     H32779   3.161  10.550   4.773 -0.4053 -0.0471  0.1422
  243MOL0     H32780   3.199  10.571   4.607 -1.3523  1.3817 -0.4307
  243MOL0     H32781   3.407  10.644   4.824  3.4243 -0.3521 -1.3890
  243MOL0     H32782   3.422  10.683   4.653  2.0321 -1.2927  0.1398
  243MOL0     H32783   3.391  10.422   4.608 -2.4204 -1.9670  2.4515
  243MOL0     H32784   3.541  10.484   4.690  0.4802 -0.6739  1.7996
  243MOL0     H32785   2.328  10.584   4.779 -0.2947 -0.7532  0.2590
  243MOL0     H32786   2.177  10.410   4.817 -0.2249  0.1907 -1.6935
  243MOL0     H32787   1.842  10.120   4.695 -0.2347 -0.0955  0.9025
  243MOL0     H32788   1.704   9.927   4.750 -0.0898  1.4109 -0.8550
  243MOL0     H32789   0.839   8.611   5.293  0.1987  0.8574 -3.4194
  243MOL0     H32790   0.848   8.367   5.279 -1.2188  0.4140  0.1952
  243MOL0     H32791   0.383   8.077   5.371 -0.4472  0.3541 -2.3037
  243MOL0     H32792   0.225   7.896   5.309 -1.0206 -0.0154 -1.2604
  243MOL0     H32793   0.222   7.503   5.147 -0.7310  1.2005  1.3038
  243MOL0     H32794   0.396   7.538   5.147 -0.3465 -2.9506 -2.8513
  243MOL0     H32795   0.379   7.477   4.938  1.2009  0.8107  3.6261
  243MOL0     H32796   0.347   7.647   4.906  3.9436 -1.3447  0.1215
  243MOL0     H32797   0.080   7.601   4.944  1.1266  0.6200  2.3668
  243MOL0     H32798   0.123   7.436   4.956  1.4982 -0.2490  0.6477
  243MOL0     H32799   0.208   7.403   4.738  0.1630 -0.9210  0.6493
  243MOL0     H32800   0.044   7.470   4.738 -0.7010  3.3235 -4.6295
  243MOL0     H32801   0.267   7.760   4.529  0.8859  0.1053  0.8690
  243MOL0     H32802   0.521   7.718   5.076 -0.3109 -0.5065  0.7445
  243MOL0     H32803   0.791   7.962   5.185 -0.6654  1.7797 -0.4869
  243MOL0     H32804   0.773   7.799   5.112  0.3062  0.5341 -3.1950
  243MOL0     H32805   0.720   7.942   5.020 -1.9919 -0.6365 -0.2000
  244MOL0     O32806   6.291  10.856   5.351 -0.4541 -0.3555 -0.2053
  244MOL0     C32807   6.203  10.848   5.269 -0.8917  0.6747 -0.8172
  244MOL0     O32808   6.145  10.956   5.204  0.2895  0.7693  0.3008
  244MOL0     C32809   6.190  11.074   5.236  0.2994 -0.2080  0.0136
  244MOL0     C32810   6.139  11.150   5.349 -0.1304 -0.7366 -0.2520
  244MOL0     C32811   6.209  11.267   5.385 -0.2437 -0.0821 -0.1412
  244MOL0     C32812   6.309  11.322   5.301  0.3921  0.0675  0.4891
  244MOL0     O32813   6.387  11.434   5.328 -0.2695  0.3150 -0.4681
  244MOL0     C32814   6.325  11.561   5.349  0.6772  0.3488  0.6881
  244MOL0     C32815   6.316  11.596   5.501 -0.7440  0.0237 -0.0466
  244MOL0     C32816   6.263  11.733   5.520  0.2290 -0.4585  0.4641
  244MOL0     C32817   6.347  11.855   5.476 -0.7192  0.2293  0.1058
  244MOL0     C32818   6.279  11.994   5.525  0.0433 -0.4989  1.0346
  244MOL0     C32819   6.286  12.012   5.679  0.5417 -0.0051 -0.8453
  244MOL0     C32820   6.286  12.154   5.732  0.5326 -0.2795  0.1088
  244MOL0     C32821   6.433  12.197   5.751  0.9912 -1.0823 -0.6474
  244MOL0     N32822   6.428  12.321   5.834 -0.6159  1.0520 -0.6009
  244MOL0     C32823   6.362  12.436   5.796 -0.3166 -0.1329  0.0645
  244MOL0     C32824   6.359  12.513   5.910 -1.0105 -0.0913  1.2095
  244MOL0     C32825   6.295  12.639   5.931 -0.4894  0.1058 -0.5470
  244MOL0     C32826   6.383  12.755   5.909  1.1076  0.0655 -0.1428
  244MOL0     C32827   6.357  12.793   5.761  0.2529  0.1809  0.2204
  244MOL0     C32828   6.399  12.929   5.742 -0.1232  0.1379  1.1017
  244MOL0     O32829   6.402  12.962   5.596  0.6091  0.1369  0.3154
  244MOL0     C32830   6.423  13.093   5.553  0.6787  0.2874  0.4540
  244MOL0     C32831   6.513  13.112   5.443 -0.5995  0.9107 -0.0833
  244MOL0     C32832   6.548  13.240   5.400  0.5052  0.0933 -0.0099
  244MOL0     C32833   6.489  13.353   5.459  0.4771 -1.1950 -0.0710
  244MOL0     C32834   6.509  13.489   5.397 -0.4043  0.5675 -0.4548
  244MOL0     O32835   6.630  13.526   5.364 -0.3193  0.4879 -0.3518
  244MOL0     C32836   6.648  13.526   5.229  0.3854 -1.6558  0.1409
  244MOL0     C32837   6.563  13.451   5.129 -0.3976  0.4153  0.1085
  244MOL0     C32838   6.602  13.438   4.997 -0.3180  0.1683  0.1515
  244MOL0     C32839   6.715  13.502   4.956 -0.5890 -0.8819  0.8251
  244MOL0     O32840   6.749  13.474   4.824  0.1609  0.2410 -0.2577
  244MOL0     C32841   6.798  13.585   4.752 -0.3368  0.4945 -0.1986
  244MOL0     C32842   6.806  13.563   4.607  0.5355  0.5343  0.8241
  244MOL0     C32843   6.672  13.575   4.526  0.2883 -0.7502  0.4762
  244MOL0     C32844   6.553  13.503   4.596 -0.1279  0.6531 -0.6864
  244MOL0     C32845   6.422  13.502   4.519 -0.1359 -0.2632 -0.2769
  244MOL0     C32846   6.367  13.640   4.481 -0.4506  0.3452  0.5333
  244MOL0     C32847   6.239  13.613   4.406 -0.3987  0.4817  0.1437
  244MOL0     C32848   6.138  13.725   4.402 -1.1847  0.2906  1.1275
  244MOL0    Cl32849   6.198  13.885   4.335  0.5551 -0.4422 -0.0094
  244MOL0     C32850   6.794  13.582   5.047  0.0166 -0.4395 -0.6956
  244MOL0     C32851   6.762  13.585   5.180 -0.1843  0.4168 -0.0538
  244MOL0     O32852   6.413  13.558   5.389  0.5760 -0.4598 -0.5019
  244MOL0     C32853   6.389  13.335   5.564  0.5387 -0.4075 -0.3674
  244MOL0     C32854   6.360  13.207   5.611  0.0205  0.7861  0.4144
  244MOL0     N32855   6.435  12.448   6.007 -0.3077  0.1056  0.2708
  244MOL0     N32856   6.475  12.330   5.963 -0.5093 -0.5914 -0.4529
  244MOL0     C32857   6.343  11.249   5.186  1.3588  0.4165  0.2184
  244MOL0     C32858   6.288  11.127   5.158 -0.9588  0.7903  0.0819
  244MOL0     C32859   6.151  10.707   5.239  0.5690 -0.3707 -0.5279
  244MOL0     C32860   6.029  10.707   5.164 -0.2962 -0.5936 -0.6947
  244MOL0     C32861   5.959  10.593   5.142  0.8763  0.9620 -0.9724
  244MOL0     C32862   6.000  10.473   5.193 -0.2189 -0.7976 -0.1591
  244MOL0     O32863   5.930  10.358   5.191 -0.1232  0.0991 -0.0414
  244MOL0     C32864   5.794  10.370   5.142  0.2469  0.2798 -0.0872
  244MOL0     C32865   5.730  10.225   5.151 -0.1973  0.4281  0.8227
  244MOL0     C32866   5.685  10.204   5.290  0.3054  0.1362  0.1581
  244MOL0     C32867   5.542  10.242   5.318  0.3456  1.0291 -0.8224
  244MOL0     C32868   5.521  10.172   5.450 -0.4620  0.2926 -0.0446
  244MOL0     C32869   5.490  10.110   5.541 -0.2145 -0.1548  0.2711
  244MOL0     C32870   6.128  10.462   5.257 -0.1387  0.2085  0.3445
  244MOL0     C32871   6.201  10.580   5.283 -0.4132 -0.6048  0.1671
  244MOL0     C32872   6.327  10.575   5.354 -0.2732 -0.1849 -0.0431
  244MOL0     H32873   6.064  11.110   5.416 -0.7733 -1.2490 -1.2464
  244MOL0     H32874   6.200  11.311   5.484 -1.0075  0.8969 -0.6364
  244MOL0     H32875   6.389  11.645   5.320  1.3396  1.2868  4.4047
  244MOL0     H32876   6.242  11.576   5.280  1.3493 -1.9096 -0.7267
  244MOL0     H32877   6.410  11.569   5.551 -0.6818 -2.4068 -1.3500
  244MOL0     H32878   6.250  11.523   5.548  2.2501 -3.1968 -0.4564
  244MOL0     H32879   6.267  11.749   5.628  0.2123 -2.9251  0.8763
  244MOL0     H32880   6.159  11.741   5.490 -0.2762  2.6233  2.5796
  244MOL0     H32881   6.447  11.841   5.518 -0.9937 -3.0204 -0.0545
  244MOL0     H32882   6.361  11.840   5.369  3.8814 -1.2032  0.7062
  244MOL0     H32883   6.329  12.074   5.471 -0.0787 -1.7188 -1.0004
  244MOL0     H32884   6.175  11.993   5.491  0.2549  0.2260  0.3486
  244MOL0     H32885   6.187  11.984   5.713 -0.2727  1.9585 -1.4333
  244MOL0     H32886   6.364  11.947   5.720  1.0758 -0.4161 -2.4476
  244MOL0     H32887   6.227  12.154   5.824 -0.6672  1.5071 -0.5938
  244MOL0     H32888   6.239  12.231   5.669 -1.6047  0.1240  2.0552
  244MOL0     H32889   6.488  12.120   5.806  1.1541 -2.5399 -2.7370
  244MOL0     H32890   6.479  12.218   5.654  2.4906  5.1060  0.9500
  244MOL0     H32891   6.316  12.450   5.699 -0.6964  0.0191  0.2683
  244MOL0     H32892   6.197  12.643   5.883 -0.4921 -0.5073 -0.6093
  244MOL0     H32893   6.271  12.633   6.038 -0.5408 -0.2850 -0.5784
  244MOL0     H32894   6.370  12.839   5.978  0.3239  1.5026 -1.9438
  244MOL0     H32895   6.489  12.728   5.911  0.9046 -1.0755 -2.1356
  244MOL0     H32896   6.258  12.788   5.715  0.7246 -2.3271 -0.6520
  244MOL0     H32897   6.420  12.729   5.699 -2.6622  0.8944 -3.8141
  244MOL0     H32898   6.495  12.959   5.785  0.2595  0.6520 -0.0767
  244MOL0     H32899   6.318  12.991   5.781  0.7438  0.5848  2.2496
  244MOL0     H32900   6.558  13.026   5.394 -1.9825  0.0100  0.1754
  244MOL0     H32901   6.628  13.243   5.327  0.0909  1.6459 -0.4180
  244MOL0     H32902   6.478  13.391   5.161  0.6503 -1.8128 -1.0035
  244MOL0     H32903   6.523  13.383   4.947  1.1398 -2.5003  0.5950
  244MOL0     H32904   6.741  13.674   4.781 -0.3412 -0.4187  2.9216
  244MOL0     H32905   6.902  13.608   4.776 -1.4765  4.5499  1.7724
  244MOL0     H32906   6.891  13.623   4.576  0.3287  0.9458  1.0533
  244MOL0     H32907   6.840  13.460   4.594  2.1096  1.0806  0.4255
  244MOL0     H32908   6.638  13.679   4.526 -2.4215 -1.5496 -1.4904
  244MOL0     H32909   6.686  13.535   4.425 -2.0372 -0.1367 -0.1443
  244MOL0     H32910   6.537  13.543   4.696 -0.1742 -1.5896  0.2478
  244MOL0     H32911   6.575  13.396   4.607 -1.6377 -0.0073 -3.2207
  244MOL0     H32912   6.346  13.452   4.580  0.4183  1.3276  1.8652
  244MOL0     H32913   6.449  13.451   4.426  1.7491 -0.6992  0.4715
  244MOL0     H32914   6.343  13.692   4.573  3.3376  3.5869 -0.0562
  244MOL0     H32915   6.439  13.694   4.418 -0.6164  1.7881  1.5355
  244MOL0     H32916   6.201  13.520   4.451  0.4158  0.6363  1.2070
  244MOL0     H32917   6.266  13.596   4.302 -0.7874 -2.0825  0.3975
  244MOL0     H32918   6.059  13.715   4.327  0.3663  2.5342 -0.9796
  244MOL0     H32919   6.101  13.745   4.503 -0.7308 -0.9212  1.5487
  244MOL0     H32920   6.882  13.634   5.012 -0.4514 -1.0214 -2.8734
  244MOL0     H32921   6.830  13.627   5.253 -0.7285  0.9157  0.1718
  244MOL0     H32922   6.337  13.421   5.605 -0.1389 -1.2829  0.6409
  244MOL0     H32923   6.298  13.193   5.699 -1.1897  0.2636 -0.4781
  244MOL0     H32924   6.431  11.273   5.127  1.9035  1.1663  1.3081
  244MOL0     H32925   6.322  11.083   5.065  1.6558  0.9210  0.8881
  244MOL0     H32926   5.986  10.798   5.122 -0.6574 -0.3198  0.2258
  244MOL0     H32927   5.858  10.601   5.102 -1.0605  1.6209  3.3992
  244MOL0     H32928   5.787  10.388   5.034  1.3906 -2.7367 -0.7582
  244MOL0     H32929   5.728  10.445   5.188 -0.5958 -0.0984 -0.6504
  244MOL0     H32930   5.814  10.158   5.131 -0.1415  0.6169  0.4159
  244MOL0     H32931   5.666  10.196   5.068  0.6024 -0.4238  0.4797
  244MOL0     H32932   5.748  10.255   5.363 -0.1780  1.5147 -0.3543
  244MOL0     H32933   5.689  10.096   5.302 -1.7866  0.0679  0.5255
  244MOL0     H32934   5.516  10.348   5.320  0.2309  1.0473 -2.1997
  244MOL0     H32935   5.473  10.193   5.248 -1.4327  0.7236  1.0551
  244MOL0     H32936   5.447  10.042   5.612 -0.4665 -4.2732 -3.3712
  244MOL0     H32937   6.156  10.365   5.295 -2.2629 -0.4892  0.2267
  244MOL0     H32938   6.360  10.471   5.352 -1.7824 -0.6721 -2.2040
  244MOL0     H32939   6.402  10.639   5.305  0.8472  0.3507  2.1895
  244MOL0     H32940   6.324  10.600   5.461  1.7560 -4.3296  1.1819
  245MOL0     O32941   7.598   5.922   3.057 -0.4298  0.5088  0.6132
  245MOL0     C32942   7.713   5.933   3.026  0.1379 -0.0183  0.8526
  245MOL0     O32943   7.810   5.934   3.125  0.4194  0.9223  0.3742
  245MOL0     C32944   7.782   5.885   3.253 -0.1741  0.0709  0.5020
  245MOL0     C32945   7.712   5.970   3.342 -0.0529  0.3262 -0.6608
  245MOL0     C32946   7.668   5.920   3.474  0.0464  0.1605  0.1714
  245MOL0     C32947   7.720   5.794   3.514  0.5490 -0.6902  0.9918
  245MOL0     O32948   7.702   5.753   3.640 -1.0659 -0.4237  0.8933
  245MOL0     C32949   7.819   5.740   3.725 -0.6419 -0.1471 -0.6631
  245MOL0     C32950   7.768   5.735   3.882  0.7861 -0.3971  0.0607
  245MOL0     C32951   7.697   5.858   3.910  0.5140  0.4284 -0.0546
  245MOL0     C32952   7.636   5.848   4.051  0.4467 -0.5321 -0.3323
  245MOL0     C32953   7.585   5.982   4.104  0.0987 -0.2749  0.1539
  245MOL0     C32954   7.480   6.059   4.021  0.5676  0.7040  0.1728
  245MOL0     C32955   7.446   6.198   4.079 -0.0022 -0.4660  0.7390
  245MOL0     C32956   7.496   6.299   3.980 -0.9640 -0.8712  0.7152
  245MOL0     N32957   7.400   6.318   3.865 -0.9347 -0.5898  0.3352
  245MOL0     C32958   7.374   6.226   3.767  0.0135 -0.1536  0.5887
  245MOL0     C32959   7.260   6.267   3.706 -0.7952 -0.7071  0.4346
  245MOL0     C32960   7.200   6.183   3.594  0.6023  0.0028 -0.2983
  245MOL0     C32961   7.167   6.038   3.639  1.0079  0.2968  0.7376
  245MOL0     C32962   7.070   6.036   3.759  0.8988 -0.4976 -1.0228
  245MOL0     C32963   6.924   6.078   3.735  0.1374  1.5052 -0.4919
  245MOL0     O32964   6.844   5.994   3.653 -0.3767 -0.5310  0.4010
  245MOL0     C32965   6.841   5.859   3.654 -0.9714  0.1506  0.1462
  245MOL0     C32966   6.868   5.777   3.543  0.7078  0.5480  1.0082
  245MOL0     C32967   6.872   5.636   3.555 -0.5777  0.2056 -0.5376
  245MOL0     C32968   6.831   5.572   3.674  0.1080  0.5951 -0.1963
  245MOL0     C32969   6.837   5.425   3.697 -1.1306  0.2630  0.3214
  245MOL0     O32970   6.863   5.365   3.816  0.1565 -0.3489  0.4461
  245MOL0     C32971   6.822   5.233   3.849  0.6652  0.6013  0.0397
  245MOL0     C32972   6.801   5.123   3.761 -0.8321 -0.5698 -0.1043
  245MOL0     C32973   6.748   5.003   3.805  0.1642  0.0036 -0.6501
  245MOL0     C32974   6.739   4.978   3.941  0.2419  0.3499 -0.2587
  245MOL0     O32975   6.689   4.857   3.977 -0.4701  0.3921 -0.4781
  245MOL0     C32976   6.770   4.745   3.940  0.7016 -0.6383  0.4073
  245MOL0     C32977   6.714   4.604   3.936  0.5326  0.1591 -0.5707
  245MOL0     C32978   6.618   4.563   3.828  0.9088 -1.2840 -0.5450
  245MOL0     C32979   6.562   4.419   3.832 -0.0547 -0.8513 -0.2107
  245MOL0     C32980   6.496   4.374   3.696 -0.1895 -0.8325  0.2067
  245MOL0     C32981   6.353   4.343   3.703  0.7696  1.3700  0.5536
  245MOL0     C32982   6.295   4.342   3.555  1.0597  0.4821  0.3700
  245MOL0     C32983   6.324   4.223   3.471 -0.9400 -0.7729  0.5786
  245MOL0    Cl32984   6.214   4.108   3.534 -0.3121 -0.3034 -0.1099
  245MOL0     C32985   6.768   5.080   4.029 -0.1592  0.1565 -0.8695
  245MOL0     C32986   6.812   5.206   3.984  0.0604  0.8429 -1.4965
  245MOL0     O32987   6.789   5.367   3.598 -0.1441 -0.4950 -0.2779
  245MOL0     C32988   6.793   5.647   3.785  0.8391 -0.3317  0.6575
  245MOL0     C32989   6.806   5.793   3.773  0.1457  0.3170  0.8758
  245MOL0     N32990   7.223   6.389   3.758  0.0394 -0.4016  0.1031
  245MOL0     N32991   7.313   6.419   3.849 -1.1628  0.8071 -0.1501
  245MOL0     C32992   7.806   5.725   3.421  0.3972  0.6250  0.8226
  245MOL0     C32993   7.833   5.759   3.290  0.3357 -0.2842 -1.1667
  245MOL0     C32994   7.733   5.970   2.885  0.4762  0.2125 -0.0830
  245MOL0     C32995   7.669   5.889   2.792 -1.3708  0.4764 -0.5348
  245MOL0     C32996   7.678   5.914   2.655  0.7135 -0.7072 -0.1547
  245MOL0     C32997   7.756   6.020   2.605  0.3292  1.3395 -0.6908
  245MOL0     O32998   7.769   6.034   2.472  0.6525 -0.0878 -1.0622
  245MOL0     C32999   7.863   5.937   2.418 -0.3392 -0.0845  0.2528
  245MOL0     C33000   7.916   5.982   2.284  0.0835  0.1911  0.9553
  245MOL0     C33001   7.819   5.942   2.173 -0.5412  0.2733 -0.4572
  245MOL0     C33002   7.902   5.946   2.047 -0.9893  0.0953 -0.3467
  245MOL0     C33003   7.994   5.833   2.034  0.3491  0.7766  1.1874
  245MOL0     C33004   8.062   5.728   2.010  0.9942 -0.1839  0.6081
  245MOL0     C33005   7.824   6.101   2.695  0.0484 -0.4429  0.2994
  245MOL0     C33006   7.817   6.077   2.837  0.7529  0.9973 -1.0657
  245MOL0     C33007   7.905   6.158   2.932 -0.0139 -1.1072 -0.0316
  245MOL0     H33008   7.678   6.066   3.304 -1.7470 -0.3064 -0.8150
  245MOL0     H33009   7.609   5.981   3.540  0.1266  0.2837  0.1291
  245MOL0     H33010   7.871   5.646   3.704 -0.5987 -0.1993 -0.3372
  245MOL0     H33011   7.895   5.819   3.715 -0.4988 -0.0205  1.0353
  245MOL0     H33012   7.853   5.731   3.951 -0.1871  3.0556  1.6760
  245MOL0     H33013   7.712   5.641   3.885 -2.9294  1.6796  0.5378
  245MOL0     H33014   7.615   5.866   3.837 -1.4261 -1.9375  1.6888
  245MOL0     H33015   7.760   5.945   3.891  2.2363 -0.1176  2.6090
  245MOL0     H33016   7.552   5.778   4.053 -0.3991  0.4196 -1.1738
  245MOL0     H33017   7.716   5.817   4.119  0.6076  3.8994  1.8198
  245MOL0     H33018   7.543   5.975   4.205  1.1580 -1.1121  0.5532
  245MOL0     H33019   7.679   6.037   4.100  1.7117 -2.9034 -0.5638
  245MOL0     H33020   7.504   6.054   3.914 -3.0177 -1.7664 -0.7240
  245MOL0     H33021   7.382   6.010   4.018 -0.6716  3.0841 -1.5794
  245MOL0     H33022   7.479   6.207   4.183  0.5220 -1.1443  0.6387
  245MOL0     H33023   7.337   6.208   4.074 -0.0139 -0.8156  0.1825
  245MOL0     H33024   7.504   6.386   4.046  2.0401 -2.3203  2.4644
  245MOL0     H33025   7.590   6.262   3.938 -0.3373 -1.0056  2.2030
  245MOL0     H33026   7.434   6.137   3.748 -2.1879 -1.9308  1.5205
  245MOL0     H33027   7.111   6.234   3.557  2.5881  1.1215 -3.9756
  245MOL0     H33028   7.266   6.180   3.507 -1.2562 -1.7271 -1.7489
  245MOL0     H33029   7.113   5.984   3.561 -1.4807  2.5626  0.7366
  245MOL0     H33030   7.260   5.981   3.649  2.0169  0.7017 -3.9152
  245MOL0     H33031   7.110   6.103   3.835  2.3806  0.7939 -2.8451
  245MOL0     H33032   7.075   5.933   3.796 -0.0445 -0.9412 -2.0625
  245MOL0     H33033   6.917   6.178   3.693  0.9758  1.4273 -0.8352
  245MOL0     H33034   6.890   6.067   3.838  1.5680  0.2335 -0.1151
  245MOL0     H33035   6.891   5.822   3.447  1.9024 -1.5170  0.2771
  245MOL0     H33036   6.922   5.575   3.481 -1.0511  0.7991 -1.3679
  245MOL0     H33037   6.811   5.127   3.653  2.5724 -2.4730 -0.0026
  245MOL0     H33038   6.714   4.932   3.731  0.3515 -0.0853 -0.6514
  245MOL0     H33039   6.809   4.760   3.839 -1.0580 -0.3341 -0.2471
  245MOL0     H33040   6.852   4.740   4.013  2.0883 -1.9115 -1.1542
  245MOL0     H33041   6.801   4.541   3.956  1.4068  1.3787 -0.3941
  245MOL0     H33042   6.656   4.594   4.028 -2.2005 -4.8764 -2.4699
  245MOL0     H33043   6.528   4.622   3.848 -0.2988 -3.1611 -0.2260
  245MOL0     H33044   6.663   4.581   3.729  0.1171 -0.8772 -0.8361
  245MOL0     H33045   6.492   4.409   3.915 -0.9288 -0.7562 -0.9211
  245MOL0     H33046   6.650   4.357   3.854  2.1831  2.0351 -0.2774
  245MOL0     H33047   6.542   4.281   3.662 -1.8363 -1.3633 -0.6880
  245MOL0     H33048   6.519   4.452   3.622  1.5789 -1.0574  0.4870
  245MOL0     H33049   6.332   4.257   3.768 -3.5928  4.1377  3.3455
  245MOL0     H33050   6.309   4.426   3.759  1.6348  1.3946  1.2305
  245MOL0     H33051   6.337   4.427   3.500  0.0040 -0.3133 -1.8236
  245MOL0     H33052   6.189   4.372   3.553  1.0189  0.3190 -1.4993
  245MOL0     H33053   6.310   4.239   3.364 -2.5814 -4.7834 -0.0181
  245MOL0     H33054   6.423   4.177   3.472 -0.8271 -0.5412  0.0004
  245MOL0     H33055   6.744   5.059   4.133 -0.5783 -2.9173 -1.5063
  245MOL0     H33056   6.829   5.276   4.065 -0.4907 -1.8312  1.0801
  245MOL0     H33057   6.747   5.610   3.876 -2.8045  0.9409 -0.4655
  245MOL0     H33058   6.811   5.859   3.859  3.1598 -0.3538  1.3386
  245MOL0     H33059   7.846   5.629   3.452 -0.6070  0.6036  2.1512
  245MOL0     H33060   7.894   5.701   3.221  0.5997 -0.6467 -0.6318
  245MOL0     H33061   7.612   5.806   2.832 -1.6048  0.7454 -0.2971
  245MOL0     H33062   7.618   5.864   2.579 -1.5489  2.9081 -1.0189
  245MOL0     H33063   7.807   5.845   2.400 -3.1418  1.6161 -0.3144
  245MOL0     H33064   7.949   5.924   2.484  0.3030 -2.3713 -0.9329
  245MOL0     H33065   8.005   5.922   2.262 -1.3344 -0.8600 -2.5321
  245MOL0     H33066   7.943   6.088   2.296  0.3721 -0.1728  4.5404
  245MOL0     H33067   7.737   6.014   2.168  0.2903  1.3811  0.8536
  245MOL0     H33068   7.766   5.846   2.173 -0.0928 -0.0043 -2.0153
  245MOL0     H33069   7.828   5.956   1.968 -0.0503 -0.4808 -1.3256
  245MOL0     H33070   7.963   6.037   2.061  2.8663 -2.4931  1.6721
  245MOL0     H33071   8.109   5.637   1.980 -0.1465  0.0712 -2.2871
  245MOL0     H33072   7.875   6.190   2.660 -3.3498  2.6869  2.4474
  245MOL0     H33073   8.012   6.139   2.918  1.3511  2.4381  3.6620
  245MOL0     H33074   7.903   6.264   2.907  1.0661 -0.7729  1.1671
  245MOL0     H33075   7.880   6.142   3.037  4.0761 -1.5762  1.0569
  246MOL0     O33076   8.358   5.502   4.142  0.4427  0.0657  0.6058
  246MOL0     C33077   8.244   5.453   4.127 -0.5904 -0.6354 -0.0648
  246MOL0     O33078   8.221   5.348   4.035  0.6074 -0.6079 -0.2213
  246MOL0     C33079   8.316   5.304   3.952  0.3822 -0.5755  0.4302
  246MOL0     C33080   8.450   5.295   3.997  0.5091 -0.2618 -0.5508
  246MOL0     C33081   8.543   5.240   3.911 -0.4987 -0.2892 -0.5092
  246MOL0     C33082   8.514   5.183   3.788 -0.2512  0.4443 -0.5015
  246MOL0     O33083   8.622   5.115   3.727 -1.2886 -0.0229 -0.5246
  246MOL0     C33084   8.591   5.021   3.618  0.1582 -1.2102 -0.8571
  246MOL0     C33085   8.703   4.936   3.576 -0.2312 -1.0570  0.0502
  246MOL0     C33086   8.738   4.828   3.683  0.1909  0.3128  0.3005
  246MOL0     C33087   8.799   4.881   3.816  0.8158 -1.1002 -1.2114
  246MOL0     C33088   8.814   4.764   3.913 -0.2708  0.1655 -0.0595
  246MOL0     C33089   8.912   4.654   3.870 -0.0860 -0.3901 -0.2881
  246MOL0     C33090   9.062   4.704   3.870  0.5876  1.4172 -0.3859
  246MOL0     C33091   9.160   4.594   3.837 -0.2279  0.1189  0.6879
  246MOL0     N33092   9.182   4.493   3.941 -0.6769  0.0807 -0.6046
  246MOL0     C33093   9.183   4.506   4.074  0.1095 -0.5201 -0.1537
  246MOL0     C33094   9.205   4.385   4.127 -0.3773 -0.9385 -0.7063
  246MOL0     C33095   9.210   4.351   4.270  0.4382  0.8391 -1.0476
  246MOL0     C33096   9.154   4.213   4.317 -0.3282 -0.0570 -0.1455
  246MOL0     C33097   9.007   4.207   4.296  0.7564  0.4240  0.0683
  246MOL0     C33098   8.926   4.330   4.328 -0.4757 -0.6318 -0.0517
  246MOL0     O33099   8.972   4.391   4.449 -0.6326 -0.1806 -0.7406
  246MOL0     C33100   8.920   4.365   4.576 -0.7012 -0.8835  0.5949
  246MOL0     C33101   8.843   4.258   4.609 -0.2883  0.7056  0.1335
  246MOL0     C33102   8.791   4.245   4.737 -0.0667  0.0001  0.4161
  246MOL0     C33103   8.822   4.341   4.838 -1.0084  0.3750 -0.5431
  246MOL0     C33104   8.786   4.316   4.983 -0.5638  0.1444  0.3399
  246MOL0     O33105   8.766   4.434   5.053 -0.2779  0.3435  0.4005
  246MOL0     C33106   8.749   4.426   5.191 -0.0860 -0.0976  0.0901
  246MOL0     C33107   8.655   4.502   5.258  0.2343  0.1003 -0.0912
  246MOL0     C33108   8.652   4.503   5.403 -1.0439  0.0154  0.5340
  246MOL0     C33109   8.759   4.445   5.478  0.0594  0.3481 -0.3914
  246MOL0     O33110   8.770   4.468   5.619  0.1381 -0.6250  0.3738
  246MOL0     C33111   8.709   4.361   5.695 -1.1817 -0.4394 -0.2101
  246MOL0     C33112   8.739   4.391   5.840 -1.2017  1.2048 -0.1649
  246MOL0     C33113   8.712   4.532   5.895  0.5210 -0.3639 -0.4358
  246MOL0     C33114   8.621   4.529   6.019 -0.2895  0.2215 -0.0762
  246MOL0     C33115   8.585   4.675   6.054 -0.7745  1.4111  0.3851
  246MOL0     C33116   8.427   4.695   6.058  0.3507  0.6701  0.4882
  246MOL0     C33117   8.371   4.828   6.118 -0.0292 -0.0928  0.2203
  246MOL0     C33118   8.230   4.883   6.063  0.6193 -0.0155 -0.0208
  246MOL0    Cl33119   8.107   4.756   6.086 -0.4175  0.2380  0.2150
  246MOL0     C33120   8.853   4.374   5.412 -0.1770  0.1608 -0.0120
  246MOL0     C33121   8.853   4.375   5.266 -0.4431 -0.0235 -0.2397
  246MOL0     O33122   8.773   4.194   5.021 -0.5483 -0.0116 -0.1593
  246MOL0     C33123   8.903   4.457   4.803 -0.0161  0.1840 -0.0859
  246MOL0     C33124   8.958   4.465   4.675  0.3815 -0.3951  0.1540
  246MOL0     N33125   9.219   4.302   4.023 -0.2917 -1.1681  0.2286
  246MOL0     N33126   9.187   4.364   3.912 -0.3234 -0.2230  0.5450
  246MOL0     C33127   8.380   5.203   3.735 -0.0122  0.5753  0.5969
  246MOL0     C33128   8.284   5.255   3.819  1.1487 -1.2900  0.0895
  246MOL0     C33129   8.141   5.513   4.205  0.7309 -0.8859  0.9307
  246MOL0     C33130   8.089   5.633   4.160  0.2651  0.0559 -0.5925
  246MOL0     C33131   7.995   5.701   4.234 -0.7289  0.0264  0.4393
  246MOL0     C33132   7.955   5.649   4.361 -0.3093  0.1378  0.3178
  246MOL0     O33133   7.853   5.714   4.424  1.3290 -0.0400  0.5603
  246MOL0     C33134   7.766   5.640   4.512  0.4133  0.9768  0.2725
  246MOL0     C33135   7.664   5.545   4.449 -0.4343  0.0313 -0.1374
  246MOL0     C33136   7.573   5.473   4.559 -0.5407 -0.0140  0.1416
  246MOL0     C33137   7.651   5.386   4.659 -0.5594 -0.0447 -0.4418
  246MOL0     C33138   7.561   5.322   4.759  0.1851  0.7103 -1.1249
  246MOL0     C33139   7.490   5.279   4.841  0.3592 -0.8212  0.6347
  246MOL0     C33140   8.022   5.529   4.402  0.3646  0.7038 -0.1099
  246MOL0     C33141   8.112   5.459   4.326  0.4521 -0.0613 -0.1608
  246MOL0     C33142   8.177   5.335   4.380  0.6880 -0.3179 -0.3773
  246MOL0     H33143   8.480   5.312   4.100  2.4438 -1.5248 -0.8453
  246MOL0     H33144   8.644   5.233   3.949 -0.6060 -0.2032 -0.2050
  246MOL0     H33145   8.500   4.970   3.651 -1.7052  2.0546 -0.5087
  246MOL0     H33146   8.554   5.087   3.539 -0.3511 -0.3476  0.0797
  246MOL0     H33147   8.798   4.984   3.551  1.0503 -2.4510  1.9470
  246MOL0     H33148   8.669   4.887   3.485 -0.8070 -0.4148 -0.0844
  246MOL0     H33149   8.820   4.769   3.641  0.3750  1.1416 -0.5122
  246MOL0     H33150   8.656   4.757   3.696  0.6759 -0.6992 -1.7470
  246MOL0     H33151   8.893   4.933   3.795  1.4948 -2.6916 -2.3249
  246MOL0     H33152   8.728   4.954   3.857  0.8230 -2.3741  1.2457
  246MOL0     H33153   8.841   4.804   4.011 -0.8501 -1.9850  1.0429
  246MOL0     H33154   8.717   4.722   3.939 -0.2023  1.7676  3.3226
  246MOL0     H33155   8.900   4.573   3.943 -0.6199  2.4246  2.9945
  246MOL0     H33156   8.895   4.607   3.773  0.4652 -1.1320 -0.0368
  246MOL0     H33157   9.085   4.747   3.968  2.8258 -2.0030  0.7520
  246MOL0     H33158   9.061   4.774   3.786 -1.6124 -0.7740 -2.3609
  246MOL0     H33159   9.123   4.549   3.745  0.7429 -0.4272  0.5548
  246MOL0     H33160   9.258   4.636   3.815 -1.9076  1.9533 -4.8118
  246MOL0     H33161   9.156   4.592   4.134 -1.5371 -0.2480 -1.2284
  246MOL0     H33162   9.315   4.344   4.300  0.7178  0.0942 -2.1383
  246MOL0     H33163   9.173   4.440   4.321 -0.9398  0.3294 -1.1230
  246MOL0     H33164   9.203   4.132   4.261  2.7846  0.1523  2.0573
  246MOL0     H33165   9.169   4.189   4.422 -1.8368  0.1480  0.1390
  246MOL0     H33166   8.960   4.128   4.355  1.0522  0.4907  0.3958
  246MOL0     H33167   8.986   4.174   4.194  0.6790 -1.4760  0.6532
  246MOL0     H33168   8.822   4.300   4.343 -1.1673  2.3389  2.0300
  246MOL0     H33169   8.939   4.408   4.253  1.9567 -2.2708 -1.4602
  246MOL0     H33170   8.814   4.180   4.540  2.5141 -1.9161  1.6846
  246MOL0     H33171   8.731   4.155   4.750  1.2435 -0.9430  0.1171
  246MOL0     H33172   8.590   4.570   5.204  2.4918  2.5785  0.0818
  246MOL0     H33173   8.581   4.562   5.459 -1.9984 -2.9403  2.6554
  246MOL0     H33174   8.600   4.364   5.684 -1.3111  2.6280  0.8658
  246MOL0     H33175   8.746   4.265   5.658  0.6697  0.2247 -0.1626
  246MOL0     H33176   8.690   4.311   5.897  0.3922 -0.5064 -1.0677
  246MOL0     H33177   8.845   4.373   5.858 -0.7385  1.9205 -2.0370
  246MOL0     H33178   8.800   4.595   5.909  0.1752 -0.4846  3.0442
  246MOL0     H33179   8.653   4.582   5.818 -1.7885 -0.5975  1.0656
  246MOL0     H33180   8.674   4.480   6.102  1.3956  1.4011 -0.3845
  246MOL0     H33181   8.531   4.472   5.995  1.0460 -1.4295 -1.5136
  246MOL0     H33182   8.643   4.746   5.996  1.1153 -1.5086 -1.5809
  246MOL0     H33183   8.616   4.691   6.158 -1.4770 -1.5386  1.1462
  246MOL0     H33184   8.403   4.691   5.951 -3.5723  1.0726  1.1908
  246MOL0     H33185   8.395   4.612   6.122  3.4617 -0.8403  0.2607
  246MOL0     H33186   8.430   4.918   6.099 -0.5070  0.4060  1.0342
  246MOL0     H33187   8.363   4.819   6.226  1.2220 -1.4551  0.2259
  246MOL0     H33188   8.186   4.969   6.114 -4.1021 -2.9038  1.3557
  246MOL0     H33189   8.252   4.895   5.957  1.4989 -3.8888 -0.4403
  246MOL0     H33190   8.935   4.334   5.471 -0.1516  0.8292  0.4159
  246MOL0     H33191   8.932   4.329   5.207  3.4099  1.4170  3.4017
  246MOL0     H33192   8.917   4.532   4.880 -0.7090 -1.8215  2.0925
  246MOL0     H33193   9.030   4.542   4.650  0.5475 -0.4523  0.4468
  246MOL0     H33194   8.357   5.177   3.633  2.9321 -1.6126  0.3504
  246MOL0     H33195   8.185   5.267   3.777  2.2342  0.9500 -2.0848
  246MOL0     H33196   8.103   5.683   4.065  2.3261  7.3642  2.8058
  246MOL0     H33197   7.952   5.792   4.193 -1.2831  0.3421  1.6849
  246MOL0     H33198   7.702   5.703   4.575 -0.3952  1.3719 -0.9106
  246MOL0     H33199   7.822   5.584   4.588 -1.9970  0.0504  1.4664
  246MOL0     H33200   7.722   5.473   4.391 -0.1132  1.5119 -1.7410
  246MOL0     H33201   7.608   5.603   4.375  1.9463  1.4559 -0.9421
  246MOL0     H33202   7.501   5.422   4.495  1.5282 -1.2420 -1.3516
  246MOL0     H33203   7.515   5.553   4.607 -1.9585 -0.2627 -1.1096
  246MOL0     H33204   7.704   5.304   4.609 -1.7208 -0.1104 -1.5995
  246MOL0     H33205   7.725   5.440   4.719 -1.5168  1.1222 -0.2740
  246MOL0     H33206   7.442   5.232   4.924  0.8564 -3.3004 -0.3655
  246MOL0     H33207   7.987   5.500   4.500  2.8295  2.4168  1.4134
  246MOL0     H33208   8.277   5.356   4.417  0.1823  0.2970  0.6955
  246MOL0     H33209   8.110   5.302   4.460  3.1450 -0.3490  1.7720
  246MOL0     H33210   8.179   5.260   4.300 -0.8024 -2.3994  1.4168
  247MOL0     O33211   9.882   3.221   2.069 -0.4683  0.1734  0.5088
  247MOL0     C33212   9.845   3.159   1.967 -0.3510  0.0501 -0.4122
  247MOL0     O33213   9.773   3.040   1.980  0.7834 -0.1174  0.3090
  247MOL0     C33214   9.767   2.966   2.095 -0.4533  0.0457 -0.2784
  247MOL0     C33215   9.889   2.911   2.146  0.4127  0.3668 -0.5361
  247MOL0     C33216   9.878   2.831   2.262 -0.4850 -0.4334 -0.1916
  247MOL0     C33217   9.760   2.808   2.324  2.0858  0.2808  0.1581
  247MOL0     O33218   9.766   2.743   2.442  0.0720 -0.2805 -0.5320
  247MOL0     C33219   9.655   2.767   2.541 -0.8701  0.1920 -0.2869
  247MOL0     C33220   9.576   2.642   2.532  0.7432 -0.4423  0.2538
  247MOL0     C33221   9.467   2.625   2.642  0.1910 -0.1820  0.3357
  247MOL0     C33222   9.513   2.608   2.791 -0.4215  0.1151 -1.0169
  247MOL0     C33223   9.401   2.596   2.901  1.5570 -0.2234  0.0698
  247MOL0     C33224   9.461   2.568   3.042  0.4304  0.5251 -0.2141
  247MOL0     C33225   9.355   2.539   3.156 -0.9720  0.1033 -1.2579
  247MOL0     C33226   9.402   2.451   3.265 -0.0494 -0.4940  0.2366
  247MOL0     N33227   9.527   2.512   3.326 -0.4050  0.0459 -0.2310
  247MOL0     C33228   9.531   2.597   3.432 -0.2965  0.4301  0.1777
  247MOL0     C33229   9.658   2.626   3.456 -0.1326  0.2673  0.1870
  247MOL0     C33230   9.703   2.687   3.592 -0.6512 -0.0084  0.3413
  247MOL0     C33231   9.696   2.586   3.704 -1.0684 -0.2191 -0.3432
  247MOL0     C33232   9.568   2.610   3.792 -0.5508  0.3680  0.1727
  247MOL0     C33233   9.556   2.501   3.893  0.7021 -0.2222 -0.2780
  247MOL0     O33234   9.663   2.492   3.985  0.1679  0.4969  0.2704
  247MOL0     C33235   9.632   2.421   4.096  0.2271  0.3824 -0.2684
  247MOL0     C33236   9.719   2.448   4.204  1.5090 -0.3387 -0.1992
  247MOL0     C33237   9.731   2.363   4.318  0.0591  0.2253 -0.5591
  247MOL0     C33238   9.629   2.266   4.342  0.3395 -0.4529  0.4207
  247MOL0     C33239   9.633   2.178   4.460 -0.4197  0.5132  0.1453
  247MOL0     O33240   9.544   2.080   4.456 -0.1765  0.0583  0.4174
  247MOL0     C33241   9.546   1.993   4.561  0.7099  0.1216 -1.5704
  247MOL0     C33242   9.489   2.022   4.686 -0.4213  0.4081 -0.2848
  247MOL0     C33243   9.517   1.947   4.794 -1.1444 -0.4877 -0.5755
  247MOL0     C33244   9.588   1.822   4.786 -0.0634 -0.5187  0.1422
  247MOL0     O33245   9.622   1.775   4.909 -0.2300 -0.3226 -0.8997
  247MOL0     C33246   9.679   1.640   4.903  0.4972  0.3130 -0.7398
  247MOL0     C33247   9.715   1.588   5.047 -0.6257  0.5911 -0.6125
  247MOL0     C33248   9.788   1.451   5.027 -0.2347 -0.3819  0.2041
  247MOL0     C33249   9.810   1.377   5.157 -0.2459  0.3068 -0.1984
  247MOL0     C33250   9.942   1.405   5.238  1.0002 -0.9800  1.1249
  247MOL0     C33251   9.926   1.372   5.387  0.5850 -0.4561  0.1138
  247MOL0     C33252   9.852   1.463   5.473 -0.1743 -0.7818  0.9279
  247MOL0     C33253   9.903   1.472   5.620 -0.2106  0.5597 -0.1762
  247MOL0    Cl33254   9.900   1.310   5.705 -0.1662 -0.1953 -0.2674
  247MOL0     C33255   9.627   1.779   4.653 -0.2840  0.5660 -0.8425
  247MOL0     C33256   9.614   1.868   4.543  0.3428  0.5722  0.1535
  247MOL0     O33257   9.718   2.198   4.545 -1.1355 -0.4415 -0.4789
  247MOL0     C33258   9.530   2.250   4.238  0.7898  0.2736  1.0053
  247MOL0     C33259   9.524   2.331   4.116  0.0961  0.3897 -0.1124
  247MOL0     N33260   9.737   2.556   3.366  0.1260  0.7981 -0.0901
  247MOL0     N33261   9.652   2.489   3.286 -0.4977  0.1856 -0.2163
  247MOL0     C33262   9.638   2.861   2.279  0.2772 -0.0392 -0.0525
  247MOL0     C33263   9.644   2.945   2.164 -0.4098 -0.3850 -0.2253
  247MOL0     C33264   9.861   3.218   1.834 -0.4825  0.0724 -0.0577
  247MOL0     C33265   9.761   3.198   1.745  0.5341 -1.1100 -0.3130
  247MOL0     C33266   9.767   3.250   1.617 -0.0393  0.4058  0.6545
  247MOL0     C33267   9.857   3.347   1.578 -1.4747 -0.8419  0.3567
  247MOL0     O33268   9.864   3.418   1.457 -0.0224  0.2203  0.4354
  247MOL0     C33269   9.766   3.405   1.360 -0.4258  0.0496 -0.1169
  247MOL0     C33270   9.647   3.492   1.408  0.3774 -0.4649 -1.1176
  247MOL0     C33271   9.520   3.484   1.317 -0.4517  0.0307 -0.3820
  247MOL0     C33272   9.403   3.572   1.365  0.4148 -0.2981 -0.5668
  247MOL0     C33273   9.283   3.544   1.294  0.4887  0.1825  0.3534
  247MOL0     C33274   9.178   3.512   1.238  0.0421  0.7168  1.2372
  247MOL0     C33275   9.952   3.387   1.678 -0.2302  0.5704  0.5782
  247MOL0     C33276   9.956   3.318   1.800  0.1895 -0.4504  0.0680
  247MOL0     C33277  10.064   3.359   1.899 -0.2656 -0.2385 -1.6895
  247MOL0     H33278   9.978   2.942   2.092  1.2497 -3.9178 -2.0051
  247MOL0     H33279   9.961   2.781   2.310  1.5240 -1.0202 -3.9504
  247MOL0     H33280   9.704   2.788   2.637  0.8658 -1.6269 -0.7130
  247MOL0     H33281   9.588   2.854   2.532 -2.1316 -0.8803 -1.8629
  247MOL0     H33282   9.639   2.553   2.533 -2.0930 -2.5887  1.3685
  247MOL0     H33283   9.518   2.650   2.440  1.4088 -0.0246 -0.1363
  247MOL0     H33284   9.418   2.531   2.617  0.0147 -1.1930  3.9797
  247MOL0     H33285   9.391   2.702   2.625 -0.1420  0.4342  3.8537
  247MOL0     H33286   9.581   2.523   2.797  1.1070  1.3704  0.4385
  247MOL0     H33287   9.580   2.688   2.825 -1.3277 -0.1194  1.5516
  247MOL0     H33288   9.349   2.692   2.908 -0.3706 -1.2474  0.4868
  247MOL0     H33289   9.332   2.522   2.859 -0.7534  0.5710  2.2336
  247MOL0     H33290   9.514   2.475   3.022 -0.6473 -0.4792  1.3887
  247MOL0     H33291   9.533   2.646   3.070  0.8892 -0.1154  0.4172
  247MOL0     H33292   9.267   2.496   3.108 -1.1117  0.8524 -1.6931
  247MOL0     H33293   9.323   2.629   3.208 -0.6534 -1.0059  1.0086
  247MOL0     H33294   9.325   2.428   3.339  1.3385 -2.1756  1.2261
  247MOL0     H33295   9.405   2.351   3.220  2.2536 -0.1262 -0.5706
  247MOL0     H33296   9.439   2.612   3.487 -1.2804  1.7252 -1.6836
  247MOL0     H33297   9.801   2.729   3.570 -0.4656 -1.2496 -1.3875
  247MOL0     H33298   9.644   2.776   3.616 -1.4108 -0.3262 -0.2882
  247MOL0     H33299   9.706   2.487   3.659  0.3938  1.2283 -3.5039
  247MOL0     H33300   9.791   2.602   3.756 -1.1668  0.8154 -0.4624
  247MOL0     H33301   9.486   2.631   3.722  0.1904  0.5323 -0.6700
  247MOL0     H33302   9.585   2.708   3.839 -1.5662  1.3050 -1.3089
  247MOL0     H33303   9.548   2.412   3.830 -1.4935  1.2164 -2.1661
  247MOL0     H33304   9.462   2.509   3.949  1.8679 -1.3607  1.9786
  247MOL0     H33305   9.793   2.523   4.182 -0.7236  0.8482 -4.7026
  247MOL0     H33306   9.817   2.380   4.382  1.9484 -0.3321 -2.8190
  247MOL0     H33307   9.431   2.112   4.703 -2.2751 -0.2460 -2.5884
  247MOL0     H33308   9.514   1.984   4.896  1.9066 -0.2759 -0.4717
  247MOL0     H33309   9.602   1.576   4.858  1.5344 -1.7843  0.3374
  247MOL0     H33310   9.767   1.631   4.839 -0.0507 -0.7381 -1.3735
  247MOL0     H33311   9.782   1.652   5.105  0.1667 -1.3896  0.7798
  247MOL0     H33312   9.624   1.577   5.107  1.8267  0.6980  3.4925
  247MOL0     H33313   9.728   1.388   4.960  1.4626 -0.6135 -1.1932
  247MOL0     H33314   9.882   1.453   4.971 -0.8889 -3.1733 -1.1633
  247MOL0     H33315   9.834   1.275   5.126 -0.6669 -0.3788  1.5728
  247MOL0     H33316   9.726   1.374   5.227  0.6699 -2.2508  0.9264
  247MOL0     H33317   9.966   1.511   5.226 -3.5456  0.0252 -1.0876
  247MOL0     H33318  10.019   1.335   5.204  0.9316 -0.8030  0.5839
  247MOL0     H33319   9.880   1.273   5.393 -0.4231  0.1024  3.1285
  247MOL0     H33320  10.030   1.359   5.421  0.9837  1.9451  0.0076
  247MOL0     H33321   9.754   1.414   5.471 -1.1673  1.1336  0.7025
  247MOL0     H33322   9.853   1.559   5.421 -0.9107 -2.3853 -2.3146
  247MOL0     H33323  10.001   1.519   5.614  0.0328 -0.1723 -3.4665
  247MOL0     H33324   9.846   1.543   5.682  1.2511  1.8503 -0.2633
  247MOL0     H33325   9.691   1.694   4.632 -2.1838 -0.2144 -4.1089
  247MOL0     H33326   9.664   1.848   4.449 -1.2216 -0.0180 -0.5995
  247MOL0     H33327   9.464   2.164   4.247  1.6427 -0.4922  0.1389
  247MOL0     H33328   9.459   2.312   4.031  0.0861 -0.6852  0.1125
  247MOL0     H33329   9.540   2.838   2.321 -1.4858  1.6400 -2.8921
  247MOL0     H33330   9.549   2.972   2.118 -0.0229 -3.1877 -3.0217
  247MOL0     H33331   9.677   3.131   1.763 -1.5185  1.3070 -0.2361
  247MOL0     H33332   9.698   3.229   1.536  2.4097 -0.6840 -1.2923
  247MOL0     H33333   9.751   3.299   1.337  0.6596 -0.6366  2.0009
  247MOL0     H33334   9.800   3.461   1.272 -0.8070  0.9079  0.2735
  247MOL0     H33335   9.681   3.591   1.441  0.8905 -0.9658 -0.0929
  247MOL0     H33336   9.604   3.451   1.500 -2.4740  3.7337 -0.2416
  247MOL0     H33337   9.488   3.379   1.322  0.8341 -0.3260  2.1671
  247MOL0     H33338   9.552   3.521   1.219  2.9736 -1.5143 -0.0077
  247MOL0     H33339   9.381   3.554   1.471  1.7344  0.2577 -0.1868
  247MOL0     H33340   9.430   3.676   1.344  1.7126 -0.9703 -2.4582
  247MOL0     H33341   9.089   3.479   1.189 -0.4185  0.6562  2.1047
  247MOL0     H33342   9.999   3.484   1.673  1.7133 -0.3644 -2.5746
  247MOL0     H33343  10.024   3.432   1.970 -0.7779 -0.5180 -1.6911
  247MOL0     H33344  10.110   3.289   1.970 -1.8585  1.6340  1.4554
  247MOL0     H33345  10.152   3.403   1.851  0.7228  3.4007  2.7231
  248MOL0     O33346   0.575   2.382   1.346 -0.2665 -0.1545  0.4839
  248MOL0     C33347   0.590   2.453   1.447  0.3152 -0.2326  0.5159
  248MOL0     O33348   0.489   2.526   1.512 -0.0907 -0.2973  0.7044
  248MOL0     C33349   0.361   2.480   1.479 -0.9693 -0.3306  0.5831
  248MOL0     C33350   0.292   2.389   1.551  0.2197 -0.4506  0.2276
  248MOL0     C33351   0.164   2.345   1.519  0.0287  0.6292 -0.6527
  248MOL0     C33352   0.106   2.398   1.405  0.2849  0.2407 -0.0321
  248MOL0     O33353  -0.017   2.354   1.362 -0.0522 -0.0050  0.0844
  248MOL0     C33354  -0.047   2.359   1.216 -0.7846  0.0756 -0.3862
  248MOL0     C33355  -0.178   2.284   1.192 -0.4689  0.3515 -0.9903
  248MOL0     C33356  -0.216   2.292   1.044  0.3752 -0.1100  0.5072
  248MOL0     C33357  -0.311   2.180   1.009 -0.1608  0.0857 -1.2207
  248MOL0     C33358  -0.448   2.194   1.073  0.0217  1.2082  0.3739
  248MOL0     C33359  -0.548   2.077   1.059  0.0558  0.5899 -1.1232
  248MOL0     C33360  -0.582   2.055   0.915 -0.0398 -0.2564  0.2130
  248MOL0     C33361  -0.720   2.099   0.869  0.0083  0.7776 -0.3947
  248MOL0     N33362  -0.742   2.241   0.873  0.4463  0.9816  0.7647
  248MOL0     C33363  -0.681   2.327   0.791 -0.1910 -0.0648  0.3473
  248MOL0     C33364  -0.734   2.444   0.833  1.0618 -0.3981 -0.4150
  248MOL0     C33365  -0.689   2.570   0.774 -1.3520 -0.0193  0.2315
  248MOL0     C33366  -0.646   2.571   0.623  0.5678 -0.6101  0.4260
  248MOL0     C33367  -0.505   2.539   0.596  0.0228 -0.2699 -0.2298
  248MOL0     C33368  -0.461   2.494   0.453 -1.1066  0.3901 -0.3650
  248MOL0     O33369  -0.482   2.609   0.378  0.0528  0.0444 -0.6435
  248MOL0     C33370  -0.411   2.612   0.261  0.8834  0.1737 -0.5774
  248MOL0     C33371  -0.377   2.730   0.201 -1.5707 -0.1807  0.0793
  248MOL0     C33372  -0.298   2.732   0.084  0.2257  0.3651  0.3057
  248MOL0     C33373  -0.277   2.611   0.019 -0.2390  0.6664  0.1152
  248MOL0     C33374  -0.222   2.621  -0.125 -0.9949 -0.9306  0.2873
  248MOL0     O33375  -0.216   2.748  -0.192 -0.3011  0.2530  0.4119
  248MOL0     C33376  -0.164   2.762  -0.323  0.7472 -0.3232  0.2837
  248MOL0     C33377  -0.189   2.889  -0.384  0.6482 -0.3682 -0.4230
  248MOL0     C33378  -0.159   2.925  -0.513  0.5804 -0.4582 -0.2005
  248MOL0     C33379  -0.089   2.834  -0.598  0.4246 -0.1573  1.4524
  248MOL0     O33380  -0.046   2.873  -0.727  0.0009 -0.2232 -0.6268
  248MOL0     C33381  -0.092   2.789  -0.831 -0.4250  0.2944 -0.0178
  248MOL0     C33382  -0.083   2.861  -0.962  0.6512 -0.7141 -0.0297
  248MOL0     C33383  -0.116   2.777  -1.086 -0.4276  0.3083 -0.4199
  248MOL0     C33384   0.015   2.719  -1.165 -0.1952 -0.8236 -0.5180
  248MOL0     C33385  -0.036   2.619  -1.280  0.1490 -0.5310  1.0386
  248MOL0     C33386   0.070   2.605  -1.395  0.1665  0.4205 -0.7626
  248MOL0     C33387   0.207   2.557  -1.370 -0.2741 -0.7775 -0.0817
  248MOL0     C33388   0.233   2.411  -1.333  0.3962  1.0722  0.3671
  248MOL0    Cl33389   0.406   2.375  -1.295  0.6313 -0.6664 -0.2609
  248MOL0     C33390  -0.076   2.699  -0.550 -0.3699 -0.1606  1.3792
  248MOL0     C33391  -0.122   2.662  -0.418 -0.2439  0.4759 -0.0746
  248MOL0     O33392  -0.171   2.521  -0.169  0.1521 -0.1439  0.5437
  248MOL0     C33393  -0.302   2.484   0.075  0.0486 -0.0672  0.5141
  248MOL0     C33394  -0.372   2.488   0.196 -0.7052 -0.1226  0.6281
  248MOL0     N33395  -0.810   2.441   0.950 -0.5510  0.8173  0.5290
  248MOL0     N33396  -0.821   2.312   0.967  0.6951 -0.2977  0.1511
  248MOL0     C33397   0.178   2.491   1.326 -0.0181  0.4488  0.8380
  248MOL0     C33398   0.310   2.530   1.354  0.6627  0.7143  0.1439
  248MOL0     C33399   0.729   2.459   1.506  0.0679 -1.1486 -0.2932
  248MOL0     C33400   0.815   2.353   1.477 -0.6892  0.4880 -1.1382
  248MOL0     C33401   0.946   2.357   1.529 -0.6135  0.4754 -0.0707
  248MOL0     C33402   0.989   2.459   1.616  0.6857  0.8296  0.2672
  248MOL0     O33403   1.106   2.461   1.689 -0.1753  0.3601 -0.0443
  248MOL0     C33404   1.203   2.363   1.666 -0.4574 -0.3215  0.6050
  248MOL0     C33405   1.300   2.371   1.791  0.1266  0.2444  0.9617
  248MOL0     C33406   1.363   2.513   1.819  0.0761 -0.0408 -0.0643
  248MOL0     C33407   1.417   2.585   1.708 -0.1629 -0.6871  0.3827
  248MOL0     C33408   1.563   2.551   1.701  0.2162 -0.1300 -0.6917
  248MOL0     C33409   1.687   2.526   1.699 -0.0629 -0.1720 -0.0446
  248MOL0     C33410   0.903   2.568   1.626  0.5283 -0.1008  0.6517
  248MOL0     C33411   0.772   2.572   1.579  1.2342 -0.5270 -1.0339
  248MOL0     C33412   0.694   2.697   1.612 -0.3325 -0.1863 -0.4278
  248MOL0     H33413   0.344   2.343   1.635 -0.0897 -1.4184 -0.0970
  248MOL0     H33414   0.131   2.266   1.585 -0.7454 -0.2545 -2.0421
  248MOL0     H33415  -0.066   2.466   1.203 -2.9339 -0.0429  1.2451
  248MOL0     H33416   0.030   2.315   1.152 -1.1209  2.6433 -2.7074
  248MOL0     H33417  -0.254   2.333   1.253 -2.3092 -2.8690 -0.4400
  248MOL0     H33418  -0.169   2.178   1.218 -0.4994  0.1771 -1.6689
  248MOL0     H33419  -0.121   2.284   0.990  0.2411 -2.2032  0.5127
  248MOL0     H33420  -0.256   2.392   1.020  3.1717  0.7872 -0.8742
  248MOL0     H33421  -0.333   2.194   0.903 -1.0299 -2.4818 -1.4576
  248MOL0     H33422  -0.267   2.081   1.027 -4.2012 -1.2366  3.7101
  248MOL0     H33423  -0.430   2.205   1.181 -1.1659 -0.4820  0.8032
  248MOL0     H33424  -0.499   2.282   1.034  0.3183  1.8830  1.4667
  248MOL0     H33425  -0.501   1.984   1.092 -3.0226 -1.4898 -2.0897
  248MOL0     H33426  -0.632   2.109   1.122 -0.2850 -0.1058 -1.2123
  248MOL0     H33427  -0.574   1.948   0.896 -2.0856 -0.3717 -0.2825
  248MOL0     H33428  -0.514   2.111   0.850 -1.2191  2.7861  1.3839
  248MOL0     H33429  -0.725   2.060   0.767 -0.4011  1.2312 -0.5525
  248MOL0     H33430  -0.793   2.047   0.931  1.2256  0.1658  0.5807
  248MOL0     H33431  -0.611   2.320   0.708 -1.4608  1.7190 -0.9305
  248MOL0     H33432  -0.756   2.655   0.792 -0.7983  0.6100 -0.5857
  248MOL0     H33433  -0.600   2.600   0.829  1.1701  0.6204 -3.7516
  248MOL0     H33434  -0.695   2.487   0.572 -1.5024 -0.4522  2.0300
  248MOL0     H33435  -0.658   2.668   0.574  1.7912 -0.2533  0.7766
  248MOL0     H33436  -0.474   2.463   0.669 -2.0313 -2.3683 -1.4213
  248MOL0     H33437  -0.450   2.628   0.627 -2.1868  0.2070  2.7733
  248MOL0     H33438  -0.514   2.406   0.413 -0.8920 -1.2144  2.6175
  248MOL0     H33439  -0.356   2.465   0.462 -0.7037  1.8361 -0.1756
  248MOL0     H33440  -0.391   2.828   0.247 -0.4224  0.0454 -0.0240
  248MOL0     H33441  -0.256   2.823   0.043  3.0955 -0.4700  1.1699
  248MOL0     H33442  -0.231   2.966  -0.319 -3.6201 -1.4214 -1.5992
  248MOL0     H33443  -0.171   3.028  -0.545  0.4686 -0.5127 -0.3368
  248MOL0     H33444  -0.027   2.701  -0.832 -3.2024 -1.8847 -0.5380
  248MOL0     H33445  -0.190   2.744  -0.816  0.5466 -1.4091  1.6640
  248MOL0     H33446  -0.156   2.942  -0.950 -0.7006 -1.4741 -2.3671
  248MOL0     H33447   0.009   2.917  -0.976  0.8834 -1.1456 -0.2449
  248MOL0     H33448  -0.177   2.694  -1.051  1.3476 -0.6603  0.5075
  248MOL0     H33449  -0.180   2.833  -1.154  0.0858  2.1915  0.5553
  248MOL0     H33450   0.078   2.678  -1.085 -4.1863 -0.2755  3.2741
  248MOL0     H33451   0.073   2.804  -1.203 -0.3781 -0.6085 -0.3191
  248MOL0     H33452  -0.127   2.651  -1.331  0.3998 -0.2812  0.7483
  248MOL0     H33453  -0.054   2.521  -1.235 -1.7106 -0.3500  0.7808
  248MOL0     H33454   0.041   2.531  -1.470  1.9886  1.7617 -2.9042
  248MOL0     H33455   0.078   2.703  -1.443  1.7161 -0.1853 -1.8282
  248MOL0     H33456   0.251   2.622  -1.293 -2.7033  0.6606  0.2056
  248MOL0     H33457   0.271   2.562  -1.459  1.1580  1.0083  0.9536
  248MOL0     H33458   0.176   2.396  -1.241  0.9324 -0.5453  0.4634
  248MOL0     H33459   0.205   2.340  -1.412  3.2905 -0.5200  0.6371
  248MOL0     H33460  -0.026   2.620  -0.606 -0.1913  1.9283 -1.6451
  248MOL0     H33461  -0.096   2.558  -0.402  0.1669  0.9729  3.1320
  248MOL0     H33462  -0.290   2.405   0.003  0.1936  1.6306 -1.4235
  248MOL0     H33463  -0.402   2.389   0.229 -1.8616  0.0876  0.2604
  248MOL0     H33464   0.142   2.541   1.237  3.1262 -2.0367 -2.1248
  248MOL0     H33465   0.374   2.595   1.295  2.0618 -0.3471  0.4191
  248MOL0     H33466   0.783   2.268   1.418 -0.2184  1.3305 -2.6754
  248MOL0     H33467   1.013   2.274   1.509 -0.2488  0.8829 -0.5780
  248MOL0     H33468   1.268   2.380   1.581  1.8402 -0.2283  2.2874
  248MOL0     H33469   1.155   2.265   1.657  0.0504 -0.4652 -0.6829
  248MOL0     H33470   1.384   2.309   1.760 -2.2795 -2.8650  0.1336
  248MOL0     H33471   1.252   2.338   1.884  1.9874 -4.2294  0.5976
  248MOL0     H33472   1.429   2.510   1.906 -0.0149  1.4606  0.0772
  248MOL0     H33473   1.275   2.571   1.850  0.7253  0.9513 -0.0378
  248MOL0     H33474   1.372   2.566   1.611  3.0009  1.2366 -1.6622
  248MOL0     H33475   1.391   2.690   1.729 -0.7718 -0.8402  0.4213
  248MOL0     H33476   1.793   2.522   1.690  0.0337  0.9702  0.3805
  248MOL0     H33477   0.941   2.647   1.691  2.6084  0.0540 -0.6583
  248MOL0     H33478   0.748   2.787   1.643 -0.8749 -0.3084  0.9221
  248MOL0     H33479   0.633   2.729   1.527  1.1544 -0.2534 -1.5588
  248MOL0     H33480   0.623   2.688   1.694 -0.2531 -0.6026 -0.4051
  249MOL0     O33481   3.385   7.644   0.135 -0.0886  0.4410 -1.0882
  249MOL0     C33482   3.366   7.603   0.248  0.0603  1.7029 -0.7377
  249MOL0     O33483   3.336   7.675   0.358 -0.5415 -0.4262  0.7145
  249MOL0     C33484   3.322   7.811   0.354  0.1600  0.2667 -0.0283
  249MOL0     C33485   3.406   7.910   0.299  1.1213  0.2456 -1.6612
  249MOL0     C33486   3.389   8.044   0.337  0.0424 -0.1244 -0.0400
  249MOL0     C33487   3.293   8.092   0.421  0.0634 -0.2167  0.7644
  249MOL0     O33488   3.292   8.216   0.457 -0.3384 -0.0956 -0.9674
  249MOL0     C33489   3.384   8.253   0.565  0.5012  0.9292 -0.7967
  249MOL0     C33490   3.410   8.406   0.561 -0.0823  0.2522  0.7884
  249MOL0     C33491   3.430   8.456   0.411 -0.9629 -1.3093  0.5138
  249MOL0     C33492   3.517   8.587   0.409 -0.0082  0.1709 -0.0113
  249MOL0     C33493   3.464   8.664   0.281 -0.4447  0.8095  0.4947
  249MOL0     C33494   3.550   8.788   0.235  0.2474 -0.0334  0.5456
  249MOL0     C33495   3.491   8.850   0.101 -0.7852  0.2314 -0.6671
  249MOL0     C33496   3.500   8.747  -0.014 -0.7544  0.5293 -0.2937
  249MOL0     N33497   3.630   8.734  -0.079 -0.0175 -0.1909 -0.5722
  249MOL0     C33498   3.750   8.768  -0.026  0.5685 -0.5365  1.1191
  249MOL0     C33499   3.836   8.692  -0.097 -0.3517 -0.0912 -0.9104
  249MOL0     C33500   3.983   8.693  -0.094  0.1353 -0.7834  0.1131
  249MOL0     C33501   4.038   8.718   0.044  0.9589 -0.3988  0.0609
  249MOL0     C33502   4.182   8.698   0.045  0.7458 -0.4963  0.0033
  249MOL0     C33503   4.237   8.840   0.015 -1.0749  0.6062 -0.5822
  249MOL0     O33504   4.190   8.936   0.115 -0.0539  0.2314  0.1436
  249MOL0     C33505   4.242   9.064   0.094  0.1279 -0.2838  0.3918
  249MOL0     C33506   4.205   9.136   0.202 -0.1520  0.3192 -0.5170
  249MOL0     C33507   4.248   9.271   0.216  0.9044  0.1630 -0.8435
  249MOL0     C33508   4.327   9.342   0.119 -0.1759  0.9787 -0.4834
  249MOL0     C33509   4.369   9.485   0.135 -1.3946  0.1227 -0.5116
  249MOL0     O33510   4.418   9.546   0.024 -0.3100 -0.2774  0.2215
  249MOL0     C33511   4.475   9.674   0.019  0.1608  0.1272  0.0315
  249MOL0     C33512   4.485   9.762   0.127 -1.0633  0.1829 -0.4411
  249MOL0     C33513   4.516   9.897   0.105  0.2266  1.2038  0.7623
  249MOL0     C33514   4.553   9.945  -0.025  0.4853 -0.6527  0.3239
  249MOL0     O33515   4.570  10.079  -0.051  0.2897  0.6229 -0.4971
  249MOL0     C33516   4.455  10.131  -0.117  0.4425 -0.0232  0.2254
  249MOL0     C33517   4.459  10.289  -0.124  0.5376 -0.1205  0.1463
  249MOL0     C33518   4.601  10.349  -0.123  0.2135 -0.3201 -0.2674
  249MOL0     C33519   4.583  10.510  -0.106  0.3341 -0.3494 -0.2106
  249MOL0     C33520   4.710  10.591  -0.079 -0.2816  0.0496 -0.1710
  249MOL0     C33521   4.798  10.522   0.018  0.2414 -0.7976 -0.0564
  249MOL0     C33522   4.924  10.603   0.036  0.7836  0.5635 -0.0422
  249MOL0     C33523   4.998  10.552   0.154 -0.7922  0.2233  0.4400
  249MOL0    Cl33524   5.078  10.408   0.101 -0.2222  0.7218  0.0480
  249MOL0     C33525   4.552   9.852  -0.131 -0.0865 -0.0572  0.1938
  249MOL0     C33526   4.516   9.717  -0.105  0.7415  0.3450 -0.1277
  249MOL0     O33527   4.365   9.531   0.240 -0.1797 -0.1330 -0.1740
  249MOL0     C33528   4.356   9.256   0.010 -0.0561 -0.0035  0.3283
  249MOL0     C33529   4.319   9.119  -0.006 -0.9354  0.0808 -0.4262
  249MOL0     N33530   3.759   8.610  -0.183  0.1781  0.2324 -0.0227
  249MOL0     N33531   3.638   8.640  -0.179  0.4216  0.6954  0.7276
  249MOL0     C33532   3.200   8.000   0.475 -0.1051  0.4667  0.5460
  249MOL0     C33533   3.220   7.859   0.437 -0.6745 -0.0567  0.1778
  249MOL0     C33534   3.373   7.454   0.261 -0.1495 -0.1570 -0.6245
  249MOL0     C33535   3.463   7.387   0.176 -0.1530  0.3878 -0.8066
  249MOL0     C33536   3.477   7.250   0.199  0.2250  0.2066  1.2448
  249MOL0     C33537   3.410   7.175   0.295 -0.2524  0.4778  0.3593
  249MOL0     O33538   3.448   7.041   0.288  0.4426 -0.1492 -0.5606
  249MOL0     C33539   3.347   6.949   0.350 -0.0511 -0.4305 -0.5774
  249MOL0     C33540   3.414   6.807   0.367 -1.3274  0.1662 -0.4777
  249MOL0     C33541   3.329   6.713   0.444 -0.6577  0.3128  0.3918
  249MOL0     C33542   3.392   6.577   0.433 -0.3537  1.3930 -0.8915
  249MOL0     C33543   3.355   6.491   0.557 -0.8973  0.2946 -0.2053
  249MOL0     C33544   3.316   6.412   0.643 -0.8829  0.9481 -0.2024
  249MOL0     C33545   3.329   7.246   0.386  0.3799  0.8346  0.0841
  249MOL0     C33546   3.302   7.378   0.364  0.5667 -2.0368  0.1904
  249MOL0     C33547   3.184   7.437   0.443  0.2075  0.8237 -1.1102
  249MOL0     H33548   3.487   7.865   0.242  1.1411 -2.9252  0.5933
  249MOL0     H33549   3.463   8.116   0.303 -2.0292  1.1961 -2.0825
  249MOL0     H33550   3.335   8.234   0.661  1.5122  2.8207  0.1582
  249MOL0     H33551   3.478   8.198   0.554  0.9265  1.3002  0.7603
  249MOL0     H33552   3.506   8.422   0.611  1.3739  2.0318 -2.2470
  249MOL0     H33553   3.327   8.449   0.618 -0.5939 -0.5573  0.6658
  249MOL0     H33554   3.332   8.479   0.370 -0.4197  0.5772  0.1987
  249MOL0     H33555   3.486   8.385   0.349  0.8804 -1.0477  1.7741
  249MOL0     H33556   3.494   8.637   0.504 -0.1997  0.0115  0.0260
  249MOL0     H33557   3.621   8.556   0.391  1.0018  2.0890  1.9777
  249MOL0     H33558   3.466   8.585   0.206  2.5082  1.3275 -0.0888
  249MOL0     H33559   3.362   8.697   0.302 -1.1579 -1.0185  0.0511
  249MOL0     H33560   3.547   8.865   0.313 -0.7171  0.7889 -0.2862
  249MOL0     H33561   3.657   8.768   0.233  1.1079  3.7377  0.5595
  249MOL0     H33562   3.546   8.940   0.070  1.6925 -1.9031 -3.0677
  249MOL0     H33563   3.390   8.883   0.124 -0.7005  0.7984 -1.0633
  249MOL0     H33564   3.473   8.648   0.021  4.1225 -1.8659 -2.3017
  249MOL0     H33565   3.429   8.772  -0.093  1.3529 -2.6690 -3.5102
  249MOL0     H33566   3.760   8.839   0.055 -3.7895  3.0500 -1.0713
  249MOL0     H33567   4.011   8.595  -0.136 -2.2543 -1.2665 -0.4818
  249MOL0     H33568   4.013   8.772  -0.163  0.4628 -0.4773  0.5990
  249MOL0     H33569   4.009   8.820   0.072 -0.6294 -0.7184 -0.3536
  249MOL0     H33570   3.982   8.648   0.107 -0.1888 -2.6517 -3.2245
  249MOL0     H33571   4.198   8.618  -0.028  0.9678  1.2341 -1.8992
  249MOL0     H33572   4.214   8.670   0.146  2.3100  0.8583 -0.0861
  249MOL0     H33573   4.227   8.868  -0.091  1.3626  2.4384 -0.4201
  249MOL0     H33574   4.344   8.817   0.022 -1.7743 -3.1553 -0.1843
  249MOL0     H33575   4.149   9.086   0.281  0.1988 -0.1481 -0.5536
  249MOL0     H33576   4.210   9.320   0.305  1.2831 -1.2972  0.1556
  249MOL0     H33577   4.466   9.735   0.231  1.0618 -0.7334 -0.2422
  249MOL0     H33578   4.506   9.970   0.185  1.7707  1.7334  0.5011
  249MOL0     H33579   4.452  10.090  -0.219  0.8591 -0.5926  0.4337
  249MOL0     H33580   4.365  10.097  -0.066  1.3063 -1.2800  0.9609
  249MOL0     H33581   4.396  10.326  -0.206  0.3751  1.5416  0.9803
  249MOL0     H33582   4.425  10.329  -0.028  0.4743  2.6337 -0.9029
  249MOL0     H33583   4.655  10.311  -0.036  2.0799  2.1492 -0.2440
  249MOL0     H33584   4.651  10.311  -0.213  0.5806  0.6637 -0.4875
  249MOL0     H33585   4.526  10.527  -0.014 -1.2555 -2.2814 -0.7831
  249MOL0     H33586   4.521  10.553  -0.184  1.6369  3.4179  0.5911
  249MOL0     H33587   4.692  10.695  -0.051  1.6919  0.8864 -1.7281
  249MOL0     H33588   4.757  10.590  -0.178  2.7746 -3.0862  1.1366
  249MOL0     H33589   4.739  10.521   0.110  2.1993 -4.1126  1.3631
  249MOL0     H33590   4.823  10.415   0.011  0.6904 -0.8777  2.2229
  249MOL0     H33591   4.905  10.708   0.058 -0.6456  0.2026  0.5524
  249MOL0     H33592   4.987  10.590  -0.053  0.0780 -0.4623 -0.4135
  249MOL0     H33593   5.073  10.620   0.195  0.0123  0.9500 -2.0714
  249MOL0     H33594   4.933  10.512   0.232 -1.1242 -1.9131 -0.8405
  249MOL0     H33595   4.590   9.882  -0.228  0.1155  0.7084  0.4983
  249MOL0     H33596   4.507   9.659  -0.196 -0.6416  1.8173 -0.9971
  249MOL0     H33597   4.406   9.300  -0.075  0.9305 -0.4984  0.6407
  249MOL0     H33598   4.346   9.063  -0.095 -1.0589  0.2297 -0.5585
  249MOL0     H33599   3.118   8.030   0.539 -0.9362 -0.2772 -0.1387
  249MOL0     H33600   3.152   7.780   0.465 -1.2604 -0.3405 -1.9125
  249MOL0     H33601   3.524   7.434   0.099 -0.2661 -0.4931 -1.4389
  249MOL0     H33602   3.540   7.190   0.134 -2.0997 -1.4221  0.3685
  249MOL0     H33603   3.270   6.936   0.274  1.5822 -0.0463 -2.3610
  249MOL0     H33604   3.295   6.988   0.438 -2.0262  0.3683 -2.0278
  249MOL0     H33605   3.511   6.824   0.415 -1.2274  0.0912 -0.6500
  249MOL0     H33606   3.444   6.767   0.269  0.9636 -0.8840  0.5756
  249MOL0     H33607   3.228   6.700   0.402 -0.0414 -2.9932 -0.3643
  249MOL0     H33608   3.322   6.735   0.551 -1.0077 -2.5037  1.0320
  249MOL0     H33609   3.343   6.532   0.345 -3.2121  0.9272  0.7940
  249MOL0     H33610   3.501   6.576   0.424 -0.0671  1.7767  1.8750
  249MOL0     H33611   3.279   6.338   0.711 -1.2691 -3.0763 -4.2411
  249MOL0     H33612   3.277   7.199   0.469  0.2714  0.9096  0.0585
  249MOL0     H33613   3.125   7.513   0.391 -1.1638  1.1987  0.8809
  249MOL0     H33614   3.116   7.358   0.476 -0.7268  2.3897  0.9689
  249MOL0     H33615   3.225   7.487   0.531 -3.8087 -1.7834  2.6253
  250MOL0     O33616  11.252   2.505   3.145 -0.2229  0.9148 -0.0244
  250MOL0     C33617  11.290   2.530   3.035 -0.2570 -0.2188  0.9295
  250MOL0     O33618  11.421   2.543   2.992  0.6655  0.7716 -0.6719
  250MOL0     C33619  11.522   2.500   3.073 -1.1291 -0.3008  0.3915
  250MOL0     C33620  11.637   2.456   2.998 -1.0337  0.1382 -0.5450
  250MOL0     C33621  11.761   2.411   3.073 -0.2424 -0.0637  0.0944
  250MOL0     C33622  11.775   2.432   3.213  0.3683  0.1681  0.4374
  250MOL0     O33623  11.890   2.420   3.288  0.3300  0.2664  0.4156
  250MOL0     C33624  12.000   2.367   3.208 -0.7959  0.7378  0.3189
  250MOL0     C33625  12.119   2.306   3.300 -0.8292 -0.0500 -0.7663
  250MOL0     C33626  12.243   2.277   3.206  0.1628  0.6044  0.1126
  250MOL0     C33627  12.220   2.143   3.127 -1.1803  0.6425  0.8400
  250MOL0     C33628  12.352   2.130   3.044  0.0614  0.2960 -0.6405
  250MOL0     C33629  12.340   2.032   2.920  0.4922 -0.0256 -1.2143
  250MOL0     C33630  12.442   2.076   2.821 -0.3095 -0.4629  1.0695
  250MOL0     C33631  12.475   1.976   2.703  0.2940  0.9672 -0.5836
  250MOL0     N33632  12.599   2.027   2.632 -0.0041  0.5000 -0.3323
  250MOL0     C33633  12.624   2.158   2.603  0.5807  0.9197  0.0098
  250MOL0     C33634  12.749   2.156   2.552  0.2065 -0.1440  0.1185
  250MOL0     C33635  12.837   2.259   2.501 -0.3059 -0.3159 -0.5789
  250MOL0     C33636  12.816   2.397   2.559  0.2995  0.2702  0.3771
  250MOL0     C33637  12.848   2.424   2.708  0.5915 -0.2721  0.7790
  250MOL0     C33638  12.751   2.502   2.792  0.0107  0.2077  0.9198
  250MOL0     O33639  12.615   2.452   2.777  0.8048 -0.1015 -0.0505
  250MOL0     C33640  12.500   2.500   2.830 -0.1976 -0.2726  0.0498
  250MOL0     C33641  12.374   2.460   2.789  0.8048 -0.7383 -0.3158
  250MOL0     C33642  12.260   2.521   2.841  0.9477 -0.2607  0.8792
  250MOL0     C33643  12.267   2.635   2.925 -0.1304  0.2483  0.4985
  250MOL0     C33644  12.147   2.709   2.964 -0.2758 -0.4405  0.4018
  250MOL0     O33645  12.032   2.673   2.898 -0.5582  0.3393  0.2104
  250MOL0     C33646  11.909   2.714   2.930  0.2981  0.0716 -0.5389
  250MOL0     C33647  11.875   2.768   3.062  0.3431  0.0959 -0.4066
  250MOL0     C33648  11.733   2.809   3.091 -0.2750  0.2281 -0.8322
  250MOL0     C33649  11.637   2.792   2.987 -0.9561  0.4695 -0.0748
  250MOL0     O33650  11.509   2.834   3.002 -0.3388  0.2675  0.5826
  250MOL0     C33651  11.449   2.900   3.110 -0.1123 -1.0151 -0.0253
  250MOL0     C33652  11.304   2.930   3.067  0.0169  0.2939 -0.8170
  250MOL0     C33653  11.301   3.013   2.940  0.3947  0.1917  0.5503
  250MOL0     C33654  11.157   3.025   2.875 -0.7593  0.3343 -0.0046
  250MOL0     C33655  11.141   3.065   2.728  1.0343  0.2397 -0.5013
  250MOL0     C33656  10.995   3.053   2.692  0.2202  0.1273  0.3147
  250MOL0     C33657  10.980   3.070   2.535 -0.1444 -0.5218 -0.2631
  250MOL0     C33658  10.842   3.019   2.496  0.1107 -0.3152  0.4879
  250MOL0    Cl33659  10.844   3.026   2.315  0.0033  0.2303 -0.1667
  250MOL0     C33660  11.672   2.733   2.863 -0.2510 -0.4801 -0.1740
  250MOL0     C33661  11.808   2.699   2.835 -0.8998  0.1608  0.6338
  250MOL0     O33662  12.156   2.799   3.048  0.0391  0.4236 -0.2172
  250MOL0     C33663  12.396   2.673   2.968 -0.1570  0.0214  0.3214
  250MOL0     C33664  12.507   2.598   2.923  0.3481 -1.3592 -0.6918
  250MOL0     N33665  12.804   2.031   2.549 -0.0067  1.1085 -0.0716
  250MOL0     N33666  12.715   1.945   2.602 -0.0878 -0.0247 -0.6139
  250MOL0     C33667  11.661   2.475   3.284 -0.1763 -0.2602 -0.3480
  250MOL0     C33668  11.539   2.505   3.213 -1.3151  0.2823  0.0803
  250MOL0     C33669  11.193   2.541   2.933  0.0934  0.1009  0.6469
  250MOL0     C33670  11.212   2.628   2.827 -0.4207 -0.1305  0.0779
  250MOL0     C33671  11.116   2.658   2.731 -0.0118 -0.9871  0.3080
  250MOL0     C33672  10.983   2.606   2.734 -0.6546  0.5473  0.2615
  250MOL0     O33673  10.882   2.636   2.643 -0.0121  0.2486  0.1480
  250MOL0     C33674  10.936   2.639   2.511 -0.3522 -0.3019  0.0529
  250MOL0     C33675  10.814   2.626   2.417  0.2451 -0.7207  0.6127
  250MOL0     C33676  10.734   2.498   2.450  0.3403  0.5665 -0.3873
  250MOL0     C33677  10.619   2.483   2.346 -0.3776  0.1637 -0.6441
  250MOL0     C33678  10.622   2.359   2.267  0.2622 -0.7622 -0.1568
  250MOL0     C33679  10.630   2.250   2.221 -0.1136  1.1591  0.3733
  250MOL0     C33680  10.967   2.506   2.835 -0.4455  0.6416 -0.7260
  250MOL0     C33681  11.062   2.475   2.932 -0.0825 -0.0535 -0.9542
  250MOL0     C33682  11.026   2.357   3.018  0.3420  1.4787  0.5753
  250MOL0     H33683  11.646   2.441   2.891  0.0880 -3.1647 -0.0973
  250MOL0     H33684  11.838   2.363   3.013 -1.2416 -4.1191  1.6992
  250MOL0     H33685  11.963   2.279   3.154 -0.7862  0.5083  0.6878
  250MOL0     H33686  12.043   2.444   3.142  2.5007 -2.0941 -1.1575
  250MOL0     H33687  12.093   2.213   3.352  3.6877 -1.0025  0.1996
  250MOL0     H33688  12.129   2.391   3.368  3.6998  0.1657 -1.4173
  250MOL0     H33689  12.333   2.256   3.265  0.0064  0.4002  0.2850
  250MOL0     H33690  12.270   2.364   3.146 -3.1417  2.0500  0.4805
  250MOL0     H33691  12.177   2.061   3.186 -1.5066  0.5103  0.4155
  250MOL0     H33692  12.136   2.158   3.058 -0.3274  1.5923 -0.0268
  250MOL0     H33693  12.380   2.233   3.018  0.8741  0.8303  2.0236
  250MOL0     H33694  12.441   2.093   3.095  2.2324  3.6644 -1.6140
  250MOL0     H33695  12.353   1.930   2.957 -0.3733 -0.5176 -2.2210
  250MOL0     H33696  12.241   2.031   2.873  1.1927  2.3897 -2.8782
  250MOL0     H33697  12.537   2.092   2.873 -0.1030 -1.3125  0.9742
  250MOL0     H33698  12.408   2.167   2.771 -1.0531 -0.8368  0.8816
  250MOL0     H33699  12.497   1.876   2.743 -0.4041  1.9363  2.4683
  250MOL0     H33700  12.394   1.976   2.629  0.8423 -2.9184 -1.4257
  250MOL0     H33701  12.560   2.246   2.602 -1.2998 -0.3969 -1.5756
  250MOL0     H33702  12.941   2.228   2.507 -0.5973 -1.0668  1.5342
  250MOL0     H33703  12.811   2.268   2.395 -2.8473 -2.4521 -0.2311
  250MOL0     H33704  12.868   2.469   2.495  0.4403 -1.3070 -1.3777
  250MOL0     H33705  12.712   2.423   2.540 -0.3958 -0.6745  2.5260
  250MOL0     H33706  12.940   2.482   2.717  1.4396 -0.8661 -2.5473
  250MOL0     H33707  12.854   2.326   2.756  4.5661 -0.1205  0.9513
  250MOL0     H33708  12.763   2.605   2.758 -0.7662 -0.5442 -1.9221
  250MOL0     H33709  12.776   2.498   2.899  0.6188  5.1200  1.1602
  250MOL0     H33710  12.368   2.370   2.729 -0.0280  0.0898 -1.4953
  250MOL0     H33711  12.167   2.479   2.805  0.4998  0.7627  0.8108
  250MOL0     H33712  11.952   2.761   3.139 -1.8275  1.7255  2.0911
  250MOL0     H33713  11.706   2.832   3.194  2.3914 -1.1926  0.2683
  250MOL0     H33714  11.438   2.835   3.197  1.3272  0.6196  1.4510
  250MOL0     H33715  11.502   2.994   3.127 -0.0274 -0.9109 -0.8225
  250MOL0     H33716  11.255   2.832   3.058  0.0095  0.1789  0.3282
  250MOL0     H33717  11.260   2.995   3.143  2.5817  2.2200 -0.8653
  250MOL0     H33718  11.333   3.116   2.952 -0.1097  0.3916  0.2069
  250MOL0     H33719  11.363   2.968   2.863 -0.4770 -2.5777  1.3395
  250MOL0     H33720  11.089   3.085   2.937  1.1219  0.6237  1.8856
  250MOL0     H33721  11.122   2.922   2.883  2.1585 -0.8452 -0.9727
  250MOL0     H33722  11.208   2.994   2.679 -0.5908 -0.5309 -1.7179
  250MOL0     H33723  11.179   3.164   2.704 -0.4505  0.8456 -0.4303
  250MOL0     H33724  10.952   2.956   2.717 -0.0581  0.3898  0.8596
  250MOL0     H33725  10.936   3.128   2.746 -3.1165  0.2310 -2.9984
  250MOL0     H33726  11.062   3.016   2.487  1.1581 -0.6609  1.9912
  250MOL0     H33727  10.992   3.177   2.517 -0.3569  0.3247  3.7281
  250MOL0     H33728  10.827   2.916   2.531 -0.9952  0.1218  1.3836
  250MOL0     H33729  10.764   3.074   2.549  0.6843  0.5648  0.4342
  250MOL0     H33730  11.604   2.741   2.778  0.9035  2.7833 -0.9216
  250MOL0     H33731  11.842   2.660   2.739  0.4637  1.2982  0.6151
  250MOL0     H33732  12.403   2.757   3.036  1.7979  1.3510 -1.3985
  250MOL0     H33733  12.598   2.629   2.974 -0.6988 -1.9556  1.6781
  250MOL0     H33734  11.675   2.514   3.384  1.6569  0.0892 -0.6959
  250MOL0     H33735  11.458   2.543   3.274 -1.7590  0.9103 -0.8814
  250MOL0     H33736  11.298   2.694   2.817 -1.4429  0.9776 -2.2002
  250MOL0     H33737  11.138   2.729   2.652 -0.4693 -2.8697 -1.5765
  250MOL0     H33738  11.014   2.564   2.494 -0.3685 -0.0851 -1.0721
  250MOL0     H33739  10.983   2.737   2.501 -0.8419 -0.0131  0.5814
  250MOL0     H33740  10.842   2.630   2.312  0.8923  1.2045  0.8096
  250MOL0     H33741  10.742   2.708   2.426  2.0132  0.8968  0.5914
  250MOL0     H33742  10.696   2.513   2.551  3.1894  1.0166  0.7005
  250MOL0     H33743  10.799   2.410   2.452 -1.6408 -1.0938 -2.5423
  250MOL0     H33744  10.526   2.484   2.403 -0.4202 -2.0451 -0.6093
  250MOL0     H33745  10.621   2.571   2.280 -0.7135  0.3106 -0.4598
  250MOL0     H33746  10.634   2.147   2.192 -4.3202  0.5421  1.3402
  250MOL0     H33747  10.867   2.464   2.839 -1.4457  2.7391 -1.8926
  250MOL0     H33748  11.051   2.264   2.967  0.3364  0.7599  1.8625
  250MOL0     H33749  11.082   2.353   3.112  2.7814 -1.8756 -0.8192
  250MOL0     H33750  10.918   2.368   3.033  0.0971  1.6754 -1.1184
  251MOL0     O33751   9.015   8.766   6.537  0.2842  0.1916  0.5725
  251MOL0     C33752   8.939   8.861   6.536  0.9516 -0.1170  0.6404
  251MOL0     O33753   8.880   8.902   6.647  0.2492  0.6302  0.7043
  251MOL0     C33754   8.911   8.845   6.769  0.0809 -0.5357 -0.4538
  251MOL0     C33755   8.955   8.926   6.879 -0.2357 -0.8687  0.1586
  251MOL0     C33756   9.003   8.879   7.002  1.1848  0.7673  0.0574
  251MOL0     C33757   8.989   8.741   7.030 -0.0458  0.0233  0.5645
  251MOL0     O33758   9.052   8.694   7.145 -0.0476 -0.8962 -0.7397
  251MOL0     C33759   9.003   8.574   7.207 -0.2433 -0.3739  0.0914
  251MOL0     C33760   9.095   8.550   7.324  0.0968 -0.9134 -0.7531
  251MOL0     C33761   9.227   8.504   7.285 -0.3688 -0.0034 -0.3686
  251MOL0     C33762   9.310   8.465   7.417  0.4556 -0.2362  0.2189
  251MOL0     C33763   9.454   8.444   7.367 -0.5366  0.2919  0.4356
  251MOL0     C33764   9.535   8.435   7.496  0.5560  0.2900 -0.1754
  251MOL0     C33765   9.547   8.571   7.569 -0.1986 -1.3990  0.2065
  251MOL0     C33766   9.510   8.573   7.715  1.1188 -0.1351 -0.0228
  251MOL0     N33767   9.369   8.569   7.746  0.0249  0.1222 -0.1645
  251MOL0     C33768   9.281   8.667   7.726  0.8236 -0.3621 -0.2406
  251MOL0     C33769   9.170   8.623   7.787 -1.2747 -0.2464 -1.2489
  251MOL0     C33770   9.040   8.706   7.774 -1.1889  0.4245 -0.0725
  251MOL0     C33771   8.940   8.653   7.684 -0.2278 -0.7190  0.6495
  251MOL0     C33772   8.817   8.750   7.715 -0.7585  0.3203 -0.4682
  251MOL0     C33773   8.697   8.687   7.655 -1.1125 -1.1088  0.3299
  251MOL0     O33774   8.587   8.758   7.711  0.1314 -0.1909  0.8091
  251MOL0     C33775   8.509   8.692   7.804 -0.2449 -0.9821 -0.2353
  251MOL0     C33776   8.542   8.566   7.862  0.5152 -0.8150  0.4230
  251MOL0     C33777   8.442   8.514   7.953 -0.4291  0.2258  0.9948
  251MOL0     C33778   8.322   8.571   7.985  1.0262 -1.2845  0.5102
  251MOL0     C33779   8.229   8.503   8.070 -0.8079  0.2216  0.1633
  251MOL0     O33780   8.278   8.386   8.130 -0.4692 -0.0085  0.0984
  251MOL0     C33781   8.191   8.294   8.177 -0.7404 -0.0113 -0.2341
  251MOL0     C33782   8.222   8.228   8.299  0.0486  0.7561 -0.4908
  251MOL0     C33783   8.140   8.130   8.360  0.7042  0.8398 -0.7878
  251MOL0     C33784   8.015   8.105   8.303  0.5472  0.1140 -0.2984
  251MOL0     O33785   7.926   8.017   8.352 -0.1013 -0.2461 -0.2470
  251MOL0     C33786   7.885   7.909   8.266 -0.2693  0.1093 -0.4949
  251MOL0     C33787   7.799   7.815   8.349 -0.5155 -0.2347 -0.3124
  251MOL0     C33788   7.729   7.697   8.278  0.5816  0.0279  0.3898
  251MOL0     C33789   7.585   7.724   8.252  0.1210  0.1032 -0.3377
  251MOL0     C33790   7.500   7.623   8.179 -0.0079 -0.2960 -0.4617
  251MOL0     C33791   7.543   7.591   8.039 -0.8722  0.2073  0.2748
  251MOL0     C33792   7.443   7.509   7.959 -0.9704 -0.0079 -0.3294
  251MOL0     C33793   7.332   7.589   7.901  0.4326 -0.3594  0.6010
  251MOL0    Cl33794   7.377   7.699   7.775 -0.2156 -0.1178 -0.3065
  251MOL0     C33795   7.981   8.167   8.181  0.6651 -0.3064 -0.0365
  251MOL0     C33796   8.072   8.255   8.118 -0.2472 -0.5733 -0.1160
  251MOL0     O33797   8.117   8.548   8.075 -0.9515  0.1120 -0.1841
  251MOL0     C33798   8.302   8.692   7.929  0.6040 -0.4901 -0.2032
  251MOL0     C33799   8.394   8.757   7.844  0.3051 -0.0535 -0.4023
  251MOL0     N33800   9.182   8.492   7.834 -0.3571  0.2302 -0.8063
  251MOL0     N33801   9.300   8.466   7.807 -0.4277 -0.9005  1.2008
  251MOL0     C33802   8.931   8.664   6.922 -0.0541 -0.0105  0.4514
  251MOL0     C33803   8.895   8.710   6.791  0.1379  0.2223  0.5054
  251MOL0     C33804   8.902   8.946   6.412 -0.0877 -0.5368  0.2359
  251MOL0     C33805   8.783   9.030   6.404 -0.9137 -0.4867 -1.1700
  251MOL0     C33806   8.750   9.112   6.300  1.0430  0.5599 -0.8820
  251MOL0     C33807   8.845   9.119   6.200 -0.2971  0.3133 -0.5821
  251MOL0     O33808   8.822   9.209   6.098  0.0734 -0.6107  0.2368
  251MOL0     C33809   8.750   9.160   5.982  0.3213 -0.0747 -0.6025
  251MOL0     C33810   8.773   9.244   5.858 -0.5574 -0.1091  0.7446
  251MOL0     C33811   8.742   9.392   5.876  0.0210 -0.0520 -0.0059
  251MOL0     C33812   8.720   9.470   5.741 -0.6629  0.8337 -0.7527
  251MOL0     C33813   8.641   9.592   5.754  0.5202 -0.1253  0.2140
  251MOL0     C33814   8.578   9.694   5.770  0.0232  0.1351 -0.2766
  251MOL0     C33815   8.962   9.044   6.197  0.0007 -0.5406 -0.1881
  251MOL0     C33816   8.993   8.950   6.299  0.6292 -0.1337 -0.0939
  251MOL0     C33817   9.119   8.873   6.288 -0.6071  0.2737  0.1622
  251MOL0     H33818   8.980   9.031   6.867  0.2062 -0.8771  0.9481
  251MOL0     H33819   9.063   8.940   7.069  0.2047  3.0872 -1.0600
  251MOL0     H33820   8.901   8.587   7.243 -1.2510 -4.6565 -0.6838
  251MOL0     H33821   9.018   8.486   7.144  0.0013  2.1818 -3.7015
  251MOL0     H33822   9.063   8.469   7.390 -0.8356 -0.6546 -0.8813
  251MOL0     H33823   9.105   8.647   7.375 -1.4019 -1.0892 -0.0758
  251MOL0     H33824   9.286   8.580   7.234 -1.6198 -0.1115 -2.0496
  251MOL0     H33825   9.219   8.411   7.228 -5.3390 -0.3706  0.4409
  251MOL0     H33826   9.295   8.544   7.491 -0.4738  1.1038 -1.3270
  251MOL0     H33827   9.274   8.369   7.455  1.6828 -0.6069  0.4700
  251MOL0     H33828   9.469   8.357   7.302  0.7548  2.3354 -2.1619
  251MOL0     H33829   9.497   8.529   7.314  0.6885 -0.0258  0.8971
  251MOL0     H33830   9.483   8.357   7.551  1.3042 -0.0946  0.0013
  251MOL0     H33831   9.636   8.399   7.471  0.2540 -4.0013  3.4830
  251MOL0     H33832   9.494   8.650   7.516  0.4202 -2.0132 -1.3888
  251MOL0     H33833   9.652   8.598   7.551 -0.4756 -0.9913 -0.9102
  251MOL0     H33834   9.550   8.484   7.765 -2.8113 -1.6606  0.8186
  251MOL0     H33835   9.556   8.654   7.773 -1.5953  0.2057  1.8583
  251MOL0     H33836   9.286   8.771   7.697 -1.6190  0.2950  1.3448
  251MOL0     H33837   8.999   8.711   7.875  0.7179  0.4531  0.7437
  251MOL0     H33838   9.079   8.802   7.739  1.0761 -1.4926 -3.4901
  251MOL0     H33839   8.981   8.662   7.583 -1.2695 -1.9975  0.0983
  251MOL0     H33840   8.906   8.553   7.710 -3.5372  0.0450 -0.2600
  251MOL0     H33841   8.839   8.852   7.680 -3.1164  1.1003  0.1836
  251MOL0     H33842   8.799   8.756   7.823 -0.9730  3.7585 -0.5704
  251MOL0     H33843   8.702   8.580   7.678  1.8138 -1.1979 -0.3158
  251MOL0     H33844   8.695   8.686   7.546 -0.8673 -2.9247  0.3145
  251MOL0     H33845   8.624   8.495   7.858  4.2061  3.1537 -0.2139
  251MOL0     H33846   8.463   8.420   8.002 -1.1739 -0.0187  0.8618
  251MOL0     H33847   8.310   8.249   8.359  1.4550 -2.0301 -1.3969
  251MOL0     H33848   8.161   8.099   8.462  0.2819  1.6392 -0.4417
  251MOL0     H33849   7.815   7.945   8.190 -0.5781  2.3670  0.7609
  251MOL0     H33850   7.967   7.855   8.218 -0.9161  1.5414 -3.4312
  251MOL0     H33851   7.877   7.771   8.412  0.5650  0.3961 -1.1756
  251MOL0     H33852   7.723   7.871   8.404 -1.5716 -3.3081  1.6372
  251MOL0     H33853   7.769   7.677   8.178  0.5337  0.9895  0.1757
  251MOL0     H33854   7.736   7.607   8.340 -3.4691  2.0944  4.4573
  251MOL0     H33855   7.565   7.826   8.219 -0.9588 -0.5269 -1.7067
  251MOL0     H33856   7.544   7.722   8.354  1.3763  3.6994  0.4043
  251MOL0     H33857   7.393   7.647   8.184  0.1810  0.4399  0.2512
  251MOL0     H33858   7.521   7.529   8.231  0.1783 -0.6829 -1.2118
  251MOL0     H33859   7.578   7.678   7.985 -0.4045 -0.1046  0.0721
  251MOL0     H33860   7.638   7.537   8.042  0.0214  1.6647 -0.8899
  251MOL0     H33861   7.397   7.435   8.025 -3.1567  0.4143 -1.2731
  251MOL0     H33862   7.478   7.455   7.870  0.0222  1.0437 -0.6039
  251MOL0     H33863   7.267   7.510   7.861  1.6681 -1.2857  0.3702
  251MOL0     H33864   7.268   7.634   7.978 -1.4897 -2.4335  0.3447
  251MOL0     H33865   7.895   8.153   8.116  0.2080 -1.6094  0.8197
  251MOL0     H33866   8.044   8.288   8.019 -0.0005  1.7548  0.5274
  251MOL0     H33867   8.207   8.745   7.936 -0.7575 -2.8455  0.3964
  251MOL0     H33868   8.376   8.852   7.795  0.5637  0.5407  0.6201
  251MOL0     H33869   8.905   8.561   6.945  0.9703 -0.4866 -0.4203
  251MOL0     H33870   8.865   8.636   6.718  4.0602  1.0865 -2.3006
  251MOL0     H33871   8.719   9.008   6.489 -0.4343 -4.6326 -1.6639
  251MOL0     H33872   8.653   9.160   6.311  0.7999 -0.3607  1.9895
  251MOL0     H33873   8.641   9.161   5.992  0.2032  0.0678 -1.8192
  251MOL0     H33874   8.788   9.058   5.969  1.9386  0.4402 -0.1734
  251MOL0     H33875   8.707   9.205   5.780 -2.1809  3.6839  0.0136
  251MOL0     H33876   8.879   9.228   5.835 -0.1894  0.0416  2.2110
  251MOL0     H33877   8.829   9.434   5.927 -0.7031  0.1275  1.1076
  251MOL0     H33878   8.656   9.398   5.944 -0.5931  1.2875 -0.8680
  251MOL0     H33879   8.820   9.485   5.698 -0.1550 -2.8114 -1.1118
  251MOL0     H33880   8.672   9.396   5.677  2.8003  0.5464 -3.3413
  251MOL0     H33881   8.519   9.779   5.797 -1.7110 -1.8146  2.6996
  251MOL0     H33882   9.034   9.066   6.118  0.4158  2.3140  0.8609
  251MOL0     H33883   9.178   8.870   6.379  5.2663  0.2464 -3.1575
  251MOL0     H33884   9.095   8.767   6.270  0.2129 -0.3274  2.2681
  251MOL0     H33885   9.191   8.906   6.212 -1.1575 -1.4261 -1.1691
  252MOL0     O33886  10.841   8.078   6.143  0.7566  0.4520 -0.7977
  252MOL0     C33887  10.770   8.116   6.236  0.0639  0.5974  0.4631
  252MOL0     O33888  10.818   8.166   6.346  0.7212  0.3704 -0.2651
  252MOL0     C33889  10.955   8.183   6.372 -0.0311 -0.4396 -0.6149
  252MOL0     C33890  11.052   8.088   6.342  0.0782  0.1873  0.4076
  252MOL0     C33891  11.186   8.109   6.362  0.9148  0.5733  0.2393
  252MOL0     C33892  11.233   8.217   6.434 -0.2646 -0.5191  0.8798
  252MOL0     O33893  11.370   8.234   6.461 -0.0679  0.3154 -0.4824
  252MOL0     C33894  11.426   8.108   6.515  0.4989 -0.4362 -0.5065
  252MOL0     C33895  11.522   8.153   6.624  0.0004 -0.5149  0.5087
  252MOL0     C33896  11.610   8.036   6.679  0.7158 -0.2561 -0.2765
  252MOL0     C33897  11.715   8.069   6.783  0.0743  0.4754  0.5429
  252MOL0     C33898  11.799   8.188   6.755  0.0774  0.3107 -0.1025
  252MOL0     C33899  11.881   8.240   6.870  0.1699 -0.9536 -0.4781
  252MOL0     C33900  11.939   8.385   6.835  0.6283 -0.0237 -0.1502
  252MOL0     C33901  12.015   8.440   6.965  0.4885  0.0109 -0.5469
  252MOL0     N33902  12.083   8.570   6.927  0.8575 -0.1479 -1.0892
  252MOL0     C33903  12.023   8.695   6.936  1.1056  0.3182 -0.1595
  252MOL0     C33904  12.127   8.781   6.927  0.2814  0.3088  0.5567
  252MOL0     C33905  12.117   8.925   6.923  0.3293  1.3623  0.5485
  252MOL0     C33906  12.089   8.973   6.782  0.0729 -0.3549 -0.0822
  252MOL0     C33907  12.225   8.980   6.705 -0.6354 -0.2204 -0.7136
  252MOL0     C33908  12.204   9.012   6.558 -0.6378 -0.2613 -0.0169
  252MOL0     O33909  12.142   9.144   6.533  0.1572 -0.1939  0.3204
  252MOL0     C33910  12.055   9.162   6.425 -0.0625  1.3312 -0.5250
  252MOL0     C33911  11.939   9.238   6.440  0.2572 -0.5054  1.0772
  252MOL0     C33912  11.844   9.250   6.335 -0.2784 -0.4510  0.2829
  252MOL0     C33913  11.863   9.193   6.214 -0.2879 -0.2720 -0.2140
  252MOL0     C33914  11.770   9.218   6.102 -0.2837 -0.2774  0.7857
  252MOL0     O33915  11.773   9.136   5.990  0.5300  0.2651 -0.4160
  252MOL0     C33916  11.695   9.162   5.884  0.8205  0.0700 -0.1574
  252MOL0     C33917  11.603   9.064   5.843 -0.1035 -0.6165 -0.5639
  252MOL0     C33918  11.510   9.081   5.745  0.1013 -0.3528 -0.4505
  252MOL0     C33919  11.503   9.210   5.677  0.4279  0.1859  0.0437
  252MOL0     O33920  11.425   9.219   5.564  0.1150  0.1362 -0.0254
  252MOL0     C33921  11.381   9.347   5.516 -0.2455  0.4313  1.2923
  252MOL0     C33922  11.404   9.363   5.362 -0.0174  0.6505  0.5247
  252MOL0     C33923  11.328   9.254   5.275  0.1428 -0.0057  0.9978
  252MOL0     C33924  11.181   9.288   5.240  0.3818  0.0513 -1.3943
  252MOL0     C33925  11.141   9.222   5.109 -0.1911 -0.7437  0.4576
  252MOL0     C33926  10.991   9.227   5.106 -0.6841 -0.3441  0.1481
  252MOL0     C33927  10.937   9.157   4.979 -0.6726  0.0670  0.1459
  252MOL0     C33928  11.026   9.135   4.856 -0.1196 -0.0577 -0.7787
  252MOL0    Cl33929  10.930   9.044   4.738  0.1661  0.3348 -0.3224
  252MOL0     C33930  11.594   9.308   5.712  0.4010  0.7035 -0.2294
  252MOL0     C33931  11.689   9.293   5.813  0.0035  0.1991 -0.1960
  252MOL0     O33932  11.719   9.337   6.111  0.0638  1.0105  0.8331
  252MOL0     C33933  11.966   9.104   6.203  0.8860  0.3982 -0.1642
  252MOL0     C33934  12.068   9.087   6.306  0.3157  0.2846 -0.0665
  252MOL0     N33935  12.246   8.710   6.921 -0.0226  0.1483  0.1449
  252MOL0     N33936  12.222   8.584   6.922  0.2892  0.3276 -0.2284
  252MOL0     C33937  11.138   8.312   6.468 -0.5917 -0.3129  0.0149
  252MOL0     C33938  11.001   8.298   6.436  0.5377 -0.0735 -0.5543
  252MOL0     C33939  10.622   8.121   6.224  0.4604  0.4443 -0.0038
  252MOL0     C33940  10.573   8.109   6.090  0.5135  0.0327 -0.2293
  252MOL0     C33941  10.435   8.107   6.060 -0.6874  0.2257 -0.4802
  252MOL0     C33942  10.337   8.111   6.167 -0.5402 -0.6419  0.4683
  252MOL0     O33943  10.204   8.122   6.153  0.3411  0.0997 -0.3724
  252MOL0     C33944  10.140   8.070   6.035  0.2563 -1.3231  0.8568
  252MOL0     C33945  10.145   7.919   6.007  0.8473  0.1862 -0.3344
  252MOL0     C33946  10.050   7.849   6.094  0.5356 -0.8596  0.6467
  252MOL0     C33947   9.985   7.750   6.020  0.1060  0.1721  0.0491
  252MOL0     C33948   9.880   7.681   6.096  0.2701  0.2662 -0.9925
  252MOL0     C33949   9.802   7.611   6.162  0.6224 -0.6969  0.5826
  252MOL0     C33950  10.391   8.119   6.299  0.7176  0.2333  0.1611
  252MOL0     C33951  10.527   8.133   6.332  0.0423  0.3343 -0.2180
  252MOL0     C33952  10.570   8.163   6.477  0.1656  0.4262 -0.1445
  252MOL0     H33953  11.024   7.997   6.291 -0.8001  1.5396 -1.6308
  252MOL0     H33954  11.247   8.027   6.326 -1.7707 -0.5553 -2.1552
  252MOL0     H33955  11.350   8.048   6.566  0.9133 -1.2263 -0.8200
  252MOL0     H33956  11.486   8.049   6.446  0.2542  0.9256 -1.9521
  252MOL0     H33957  11.460   8.194   6.704 -1.7160  0.1051 -1.0642
  252MOL0     H33958  11.591   8.231   6.589  2.4366 -2.4823  0.5972
  252MOL0     H33959  11.647   7.997   6.583  0.5843  0.8428 -0.7863
  252MOL0     H33960  11.542   7.964   6.726  0.8529 -1.6658 -2.1102
  252MOL0     H33961  11.660   8.101   6.872  0.4611  4.4052 -0.4538
  252MOL0     H33962  11.786   7.988   6.804 -1.3253 -0.5278  1.5673
  252MOL0     H33963  11.847   8.186   6.657  2.5906  3.1070  0.8972
  252MOL0     H33964  11.739   8.278   6.740 -1.9116 -1.1553 -1.3918
  252MOL0     H33965  11.825   8.242   6.963 -1.0713  0.6177 -1.2175
  252MOL0     H33966  11.963   8.170   6.891 -0.0790 -0.6250  1.7385
  252MOL0     H33967  11.856   8.444   6.794 -0.9200 -3.6054 -2.6582
  252MOL0     H33968  12.009   8.369   6.753 -0.3718  0.5536 -1.1478
  252MOL0     H33969  11.948   8.458   7.050 -0.8207  0.3549 -1.6159
  252MOL0     H33970  12.087   8.360   6.985 -0.0205 -0.5472 -0.9359
  252MOL0     H33971  11.917   8.711   6.954  0.6590 -1.6319 -0.8362
  252MOL0     H33972  12.035   8.963   6.984 -2.2013  0.9084 -2.2883
  252MOL0     H33973  12.208   8.966   6.968  0.0682 -0.6299  3.1018
  252MOL0     H33974  12.028   8.901   6.727  1.5311  0.0125 -2.2984
  252MOL0     H33975  12.040   9.071   6.782 -0.8695 -0.7719  2.0479
  252MOL0     H33976  12.270   8.882   6.722 -1.7784 -0.3832  1.8648
  252MOL0     H33977  12.295   9.057   6.739  0.3634 -1.2326 -0.4128
  252MOL0     H33978  12.138   8.939   6.510  0.9826 -0.9951 -1.2567
  252MOL0     H33979  12.299   9.014   6.502  0.4305  1.4020  1.7437
  252MOL0     H33980  11.914   9.298   6.526 -1.8355  1.3145 -0.6889
  252MOL0     H33981  11.752   9.303   6.354  0.0050  0.6307 -1.2201
  252MOL0     H33982  11.615   8.967   5.890  0.8976  0.9085  2.5830
  252MOL0     H33983  11.441   9.000   5.727 -0.8740 -0.7209  3.8264
  252MOL0     H33984  11.273   9.345   5.534 -0.1573  1.8756  2.1294
  252MOL0     H33985  11.430   9.431   5.566  1.4724  1.6650 -2.1385
  252MOL0     H33986  11.370   9.460   5.328 -0.1555  0.2469 -0.5260
  252MOL0     H33987  11.512   9.362   5.344 -0.0338 -2.5599 -0.1116
  252MOL0     H33988  11.376   9.240   5.178 -0.5224  2.6631  0.1821
  252MOL0     H33989  11.327   9.154   5.318 -0.0319 -0.5780 -0.3112
  252MOL0     H33990  11.161   9.395   5.245  0.5439  0.0566 -0.6298
  252MOL0     H33991  11.130   9.242   5.325  2.6782  1.7005  1.0522
  252MOL0     H33992  11.181   9.120   5.106 -0.7944 -1.0410  1.6538
  252MOL0     H33993  11.193   9.266   5.024  2.3629 -3.6324  0.3746
  252MOL0     H33994  10.954   9.176   5.196 -1.3180 -0.8713 -0.3955
  252MOL0     H33995  10.964   9.333   5.104 -0.7712 -0.3203  1.6553
  252MOL0     H33996  10.847   9.203   4.936 -0.4777  0.7743  0.4930
  252MOL0     H33997  10.901   9.061   5.018 -0.9731 -1.7958 -4.1319
  252MOL0     H33998  11.058   9.234   4.821 -0.0813  0.5113  0.7862
  252MOL0     H33999  11.110   9.067   4.874 -1.4760 -1.1188  2.1504
  252MOL0     H34000  11.599   9.404   5.661  1.3398  0.8256  0.0670
  252MOL0     H34001  11.760   9.372   5.833  1.0077  0.0485 -2.8267
  252MOL0     H34002  11.970   9.057   6.106 -2.9703 -0.6219  0.0015
  252MOL0     H34003  12.150   9.021   6.278 -0.7174 -1.7903  1.5432
  252MOL0     H34004  11.184   8.396   6.519 -1.4478  1.7532 -2.4576
  252MOL0     H34005  10.934   8.379   6.464  0.5093  0.2806 -1.5968
  252MOL0     H34006  10.643   8.092   6.009  1.7398 -0.1605  0.8289
  252MOL0     H34007  10.421   8.107   5.953  0.5959  2.3217 -0.6984
  252MOL0     H34008  10.178   8.122   5.947  1.3764 -0.6467  1.7078
  252MOL0     H34009  10.036   8.101   6.042  1.2580  3.8170 -1.9472
  252MOL0     H34010  10.242   7.867   6.017  1.0219  0.7616  1.2970
  252MOL0     H34011  10.125   7.909   5.900  0.8578  0.0787 -0.3268
  252MOL0     H34012   9.974   7.916   6.136  0.7845  0.6048 -1.1000
  252MOL0     H34013  10.097   7.800   6.180  0.3840 -1.3358  0.4578
  252MOL0     H34014   9.941   7.804   5.935 -2.9129 -0.6032  1.0142
  252MOL0     H34015  10.057   7.681   5.975 -1.3153 -1.7845  0.6188
  252MOL0     H34016   9.724   7.560   6.216 -1.2915  1.7157  0.2748
  252MOL0     H34017  10.321   8.103   6.381  1.6533 -4.1044  0.3498
  252MOL0     H34018  10.628   8.081   6.521  0.5149 -0.6835 -2.5042
  252MOL0     H34019  10.637   8.249   6.484 -0.0978  0.5384  1.2029
  252MOL0     H34020  10.485   8.186   6.542  1.8910 -1.1660  2.8930
  253MOL0     O34021  10.589   4.555   7.765 -0.5797 -0.1806 -0.4526
  253MOL0     C34022  10.664   4.490   7.690  0.3217 -0.5578 -0.5371
  253MOL0     O34023  10.631   4.441   7.569 -0.6417 -0.1530  0.8178
  253MOL0     C34024  10.505   4.453   7.522 -0.1927  0.1183  0.3763
  253MOL0     C34025  10.469   4.543   7.426  0.1821 -0.4145 -0.5308
  253MOL0     C34026  10.351   4.536   7.361 -0.0941  1.0873  0.4103
  253MOL0     C34027  10.256   4.443   7.392 -0.2927  0.7359  0.6634
  253MOL0     O34028  10.139   4.453   7.320  0.5151 -0.8366  0.2707
  253MOL0     C34029  10.062   4.340   7.303 -0.5979  0.0405  0.6388
  253MOL0     C34030   9.967   4.325   7.415  0.3131  0.4117  0.1812
  253MOL0     C34031   9.961   4.176   7.449 -0.7472  0.5839 -0.3222
  253MOL0     C34032   9.858   4.154   7.558 -0.5056 -0.0868 -0.0291
  253MOL0     C34033   9.869   4.017   7.627 -0.3904  0.0789  0.0949
  253MOL0     C34034   9.814   3.911   7.530  0.8392 -0.3652  0.3362
  253MOL0     C34035   9.850   3.777   7.581 -0.1378  1.9967  0.3309
  253MOL0     C34036   9.787   3.651   7.495  1.5105 -0.1586  0.3964
  253MOL0     N34037   9.641   3.660   7.472  0.4260 -1.1795  0.1076
  253MOL0     C34038   9.574   3.704   7.357 -0.6720 -0.3070  0.0364
  253MOL0     C34039   9.446   3.700   7.403 -0.4026  0.5886 -0.9613
  253MOL0     C34040   9.321   3.760   7.328  0.5781 -0.1927 -0.5118
  253MOL0     C34041   9.343   3.865   7.213  0.3303 -0.6593 -0.4082
  253MOL0     C34042   9.210   3.926   7.158 -0.1596 -1.0771 -0.0111
  253MOL0     C34043   9.119   3.811   7.112  0.4183  0.0958 -0.1280
  253MOL0     O34044   9.180   3.713   7.024  0.2522 -0.4337 -0.7682
  253MOL0     C34045   9.193   3.745   6.889 -1.1180 -0.7785 -0.1228
  253MOL0     C34046   9.227   3.632   6.815 -0.8647 -0.5021 -0.6528
  253MOL0     C34047   9.222   3.640   6.678  0.1640 -0.1017  0.3698
  253MOL0     C34048   9.196   3.764   6.611 -0.2230 -0.9293  0.1239
  253MOL0     C34049   9.184   3.784   6.466 -0.4254  1.0783  0.3651
  253MOL0     O34050   9.238   3.676   6.393 -0.0076  0.1320  0.4691
  253MOL0     C34051   9.248   3.691   6.261 -0.6825  0.1850  0.1948
  253MOL0     C34052   9.141   3.675   6.178  0.7465  0.5466  0.2069
  253MOL0     C34053   9.151   3.679   6.036 -0.6489  0.0829 -0.2490
  253MOL0     C34054   9.275   3.718   5.984 -0.5872 -0.7136 -0.2541
  253MOL0     O34055   9.301   3.743   5.848 -0.5555  1.0122 -0.4460
  253MOL0     C34056   9.295   3.623   5.775  0.3703 -0.1043  0.6075
  253MOL0     C34057   9.342   3.659   5.635  0.3129 -0.8253  0.8457
  253MOL0     C34058   9.360   3.534   5.553  0.3589  1.4587 -0.7902
  253MOL0     C34059   9.415   3.583   5.422 -0.3954  0.4972  0.0101
  253MOL0     C34060   9.302   3.635   5.328  0.6648  0.2471 -0.2903
  253MOL0     C34061   9.350   3.682   5.190  0.1575 -0.2811 -0.4934
  253MOL0     C34062   9.459   3.789   5.207 -0.7252  0.0509  0.2445
  253MOL0     C34063   9.480   3.875   5.081 -0.2947  0.8315  0.1198
  253MOL0    Cl34064   9.627   3.964   5.107 -0.1311 -0.1124 -0.4915
  253MOL0     C34065   9.386   3.730   6.068 -0.4306 -0.4620  1.1338
  253MOL0     C34066   9.374   3.730   6.210  0.9772  0.3207 -0.0187
  253MOL0     O34067   9.141   3.885   6.416 -0.1610  1.0497 -0.4378
  253MOL0     C34068   9.177   3.877   6.693 -0.3877 -0.3345  0.9831
  253MOL0     C34069   9.174   3.872   6.831  0.3510 -1.2256  0.3413
  253MOL0     N34070   9.442   3.662   7.533 -0.5768  0.1034  0.0428
  253MOL0     N34071   9.559   3.646   7.579 -0.0215 -0.1725  0.0251
  253MOL0     C34072  10.292   4.344   7.485 -0.4580  0.0921  0.3617
  253MOL0     C34073  10.421   4.342   7.550 -0.0563  0.4148  0.4436
  253MOL0     C34074  10.791   4.440   7.752  0.6125  1.5390  0.1308
  253MOL0     C34075  10.846   4.332   7.673  0.2665 -1.4696 -1.4067
  253MOL0     C34076  10.973   4.272   7.702 -0.1487  0.0090 -0.1512
  253MOL0     C34077  11.042   4.326   7.814  0.3485 -0.0262 -0.4685
  253MOL0     O34078  11.167   4.278   7.852  0.9922 -0.7766  0.5066
  253MOL0     C34079  11.237   4.315   7.967 -0.3429 -0.3086 -1.0863
  253MOL0     C34080  11.170   4.263   8.096 -0.0272  0.1139 -0.2870
  253MOL0     C34081  11.213   4.342   8.220 -0.6990  0.0653 -0.1306
  253MOL0     C34082  11.166   4.287   8.354 -0.7024  0.2379 -0.3979
  253MOL0     C34083  11.029   4.318   8.380  0.1411 -0.1050 -0.0564
  253MOL0     C34084  10.913   4.330   8.404  0.0663 -0.3306 -0.0853
  253MOL0     C34085  10.986   4.434   7.885  0.6317 -0.4352 -0.8789
  253MOL0     C34086  10.869   4.497   7.857  0.1575 -0.3812  1.2134
  253MOL0     C34087  10.818   4.610   7.945  0.3102  0.8370 -0.0854
  253MOL0     H34088  10.546   4.610   7.391 -2.0876  2.0545 -1.0688
  253MOL0     H34089  10.319   4.601   7.280  0.1104 -0.3307 -0.8428
  253MOL0     H34090  10.004   4.350   7.210  1.6268 -0.9358 -0.9683
  253MOL0     H34091  10.115   4.247   7.279 -1.0280 -0.4943  1.7034
  253MOL0     H34092   9.868   4.349   7.375  0.9704 -0.4865 -2.1771
  253MOL0     H34093  10.007   4.376   7.503  0.5131 -0.0292  0.3513
  253MOL0     H34094  10.061   4.136   7.468  0.1441  1.6886 -2.3555
  253MOL0     H34095   9.923   4.118   7.364  2.9775 -0.5670 -1.4072
  253MOL0     H34096   9.865   4.234   7.632  1.4015 -1.1568  1.0263
  253MOL0     H34097   9.761   4.155   7.506 -0.4531  1.1218 -0.1242
  253MOL0     H34098   9.972   3.992   7.651 -0.1938  0.6398 -0.1495
  253MOL0     H34099   9.809   4.018   7.719  1.5257 -0.0743  1.4051
  253MOL0     H34100   9.705   3.924   7.525  1.1680  2.6726 -0.4530
  253MOL0     H34101   9.863   3.919   7.433  0.3480  0.2353  0.1343
  253MOL0     H34102   9.819   3.773   7.686 -0.9284 -0.2205  0.0563
  253MOL0     H34103   9.958   3.760   7.584 -0.5044 -0.7120  1.3189
  253MOL0     H34104   9.839   3.646   7.398  1.1155  3.6141 -0.1684
  253MOL0     H34105   9.810   3.557   7.545  0.4651 -0.1747  0.8622
  253MOL0     H34106   9.620   3.742   7.266  0.8121  1.4468  1.4456
  253MOL0     H34107   9.276   3.667   7.291  0.4666 -0.0734 -0.6755
  253MOL0     H34108   9.261   3.801   7.410  0.5129 -0.8773 -0.2093
  253MOL0     H34109   9.389   3.955   7.255 -2.4995 -0.2803  2.2918
  253MOL0     H34110   9.407   3.820   7.137 -0.9732 -0.4306 -1.6954
  253MOL0     H34111   9.222   3.998   7.077  3.7410 -2.1886 -0.6123
  253MOL0     H34112   9.159   3.980   7.238 -3.5973 -1.2057 -1.9192
  253MOL0     H34113   9.033   3.864   7.071  1.2621  1.2291 -0.4727
  253MOL0     H34114   9.083   3.761   7.202 -2.1303  2.3276  0.1975
  253MOL0     H34115   9.246   3.541   6.870 -0.6561  0.2384  0.5463
  253MOL0     H34116   9.249   3.552   6.620 -0.0343 -0.8139  1.3213
  253MOL0     H34117   9.043   3.665   6.224  0.7179  0.6180  0.1613
  253MOL0     H34118   9.066   3.654   5.973 -0.3912  0.6639 -0.8343
  253MOL0     H34119   9.358   3.538   5.804  1.7690  0.1405 -1.4795
  253MOL0     H34120   9.196   3.578   5.766 -0.1963  1.1360  0.6086
  253MOL0     H34121   9.273   3.726   5.583  1.4686 -1.0547 -1.0718
  253MOL0     H34122   9.440   3.705   5.623 -0.4393  0.1719 -2.4635
  253MOL0     H34123   9.432   3.473   5.608 -0.3357  2.7639  1.7673
  253MOL0     H34124   9.266   3.484   5.529 -0.3005  1.4535  1.5282
  253MOL0     H34125   9.464   3.494   5.383 -1.9991 -1.0344  1.3142
  253MOL0     H34126   9.494   3.657   5.439 -0.4964  0.0722  2.8633
  253MOL0     H34127   9.237   3.710   5.373 -1.0176 -1.7408  0.7935
  253MOL0     H34128   9.235   3.551   5.307 -2.7151  3.0701 -1.8616
  253MOL0     H34129   9.398   3.605   5.128  0.8641 -1.2477  1.2041
  253MOL0     H34130   9.263   3.718   5.133 -1.2893 -3.5698 -0.5771
  253MOL0     H34131   9.553   3.734   5.223  0.1616  2.0231  2.4061
  253MOL0     H34132   9.443   3.858   5.289  1.5469  0.4354  0.4458
  253MOL0     H34133   9.501   3.808   4.997  0.9451  1.3361  0.0178
  253MOL0     H34134   9.391   3.935   5.058 -1.1333 -1.1727 -2.3279
  253MOL0     H34135   9.481   3.765   6.030 -1.9223  1.5493 -1.0147
  253MOL0     H34136   9.461   3.746   6.271  2.7329 -1.1446 -1.9785
  253MOL0     H34137   9.148   3.973   6.651 -4.0022 -1.4202  0.6965
  253MOL0     H34138   9.152   3.967   6.877  1.3535 -0.5356 -0.5586
  253MOL0     H34139  10.236   4.251   7.495 -0.1585 -0.2259 -0.7913
  253MOL0     H34140  10.437   4.264   7.623 -2.2708 -0.1810  0.3719
  253MOL0     H34141  10.791   4.299   7.585 -1.5883 -1.4830 -0.2955
  253MOL0     H34142  11.024   4.195   7.645 -0.4264  0.3928 -0.9314
  253MOL0     H34143  11.250   4.424   7.970 -2.3769 -0.0513 -0.4445
  253MOL0     H34144  11.336   4.274   7.946 -0.5725 -0.6957 -1.4229
  253MOL0     H34145  11.207   4.163   8.122 -3.0335 -0.6513  1.7072
  253MOL0     H34146  11.061   4.255   8.095  0.0152 -0.4548 -0.4604
  253MOL0     H34147  11.189   4.448   8.230  4.0056  1.1681  1.9512
  253MOL0     H34148  11.322   4.349   8.218 -0.3566 -3.3678 -1.3043
  253MOL0     H34149  11.170   4.177   8.352 -1.8673  0.1838 -0.2672
  253MOL0     H34150  11.235   4.322   8.431  1.1632  1.4745 -2.4854
  253MOL0     H34151  10.810   4.349   8.425  0.6742  0.5840  2.4375
  253MOL0     H34152  11.029   4.466   7.980  0.0095 -3.4113  0.5447
  253MOL0     H34153  10.870   4.607   8.041 -0.1592 -1.9828  0.1510
  253MOL0     H34154  10.847   4.709   7.906 -3.0855  0.8338 -3.2578
  253MOL0     H34155  10.711   4.613   7.968  0.0714 -0.9252 -0.8009
  254MOL0     O34156   3.823  11.475   5.233 -0.5765  0.5295 -0.1618
  254MOL0     C34157   3.805  11.529   5.342 -0.6238 -0.2229 -0.0645
  254MOL0     O34158   3.866  11.502   5.452  0.2173  0.8510 -0.5329
  254MOL0     C34159   3.958  11.397   5.449 -0.0892  1.0265 -0.8328
  254MOL0     C34160   4.091  11.421   5.427 -0.4980  0.2111  0.2324
  254MOL0     C34161   4.183  11.319   5.436 -0.4931 -0.0619 -0.5492
  254MOL0     C34162   4.133  11.189   5.478 -0.0186 -0.5693 -0.1059
  254MOL0     O34163   4.236  11.091   5.498  0.9363 -0.4302 -0.1588
  254MOL0     C34164   4.202  10.953   5.535  0.0754 -0.9924 -0.1645
  254MOL0     C34165   4.184  10.853   5.421  0.6235  0.2906 -0.5410
  254MOL0     C34166   4.091  10.737   5.455  0.9832  1.1262 -0.1818
  254MOL0     C34167   4.070  10.641   5.333 -0.0968  0.1903  0.4595
  254MOL0     C34168   3.956  10.676   5.226 -0.1111 -0.6108  0.2169
  254MOL0     C34169   4.020  10.768   5.117 -0.3988  0.3591 -0.9545
  254MOL0     C34170   3.949  10.781   4.981 -0.4795  0.9538 -0.2476
  254MOL0     C34171   3.799  10.814   5.002 -0.4465 -0.2698  0.5227
  254MOL0     N34172   3.749  10.870   4.885  1.0218  0.7954  0.8278
  254MOL0     C34173   3.755  11.002   4.845  0.4426  0.4254  0.5289
  254MOL0     C34174   3.673  11.012   4.737 -0.1226  0.3710 -0.5594
  254MOL0     C34175   3.637  11.128   4.644 -0.6349  0.0602 -0.5349
  254MOL0     C34176   3.752  11.154   4.549 -0.2313 -0.7333  0.1687
  254MOL0     C34177   3.744  11.049   4.436 -0.4615  0.4003  0.2795
  254MOL0     C34178   3.629  11.071   4.321  0.0048  0.9106 -1.0261
  254MOL0     O34179   3.625  10.952   4.239 -0.2727 -0.6078 -0.1469
  254MOL0     C34180   3.518  10.863   4.247 -0.3026 -0.1271  0.1995
  254MOL0     C34181   3.419  10.868   4.356  0.4316 -0.5381 -0.2891
  254MOL0     C34182   3.323  10.764   4.366  0.1459  1.1566  0.0479
  254MOL0     C34183   3.308  10.666   4.257  0.2098 -0.5601 -0.2941
  254MOL0     C34184   3.204  10.560   4.257 -0.8360  0.2737  0.5243
  254MOL0     O34185   3.126  10.556   4.362  0.4304 -0.3366  0.0260
  254MOL0     C34186   3.019  10.470   4.365  0.5588 -0.8453  0.9436
  254MOL0     C34187   3.031  10.333   4.348  0.4618 -0.1387 -0.8986
  254MOL0     C34188   2.921  10.252   4.383 -0.2758  0.1516 -0.5010
  254MOL0     C34189   2.792  10.296   4.415 -0.1361 -0.5895 -1.0605
  254MOL0     O34190   2.667  10.216   4.413 -0.5646 -0.6371 -0.4360
  254MOL0     C34191   2.546  10.285   4.381 -0.3915 -0.4951  0.1879
  254MOL0     C34192   2.431  10.187   4.379 -0.4452 -0.0642  1.1604
  254MOL0     C34193   2.307  10.253   4.334  0.4911  0.0020 -0.4479
  254MOL0     C34194   2.185  10.155   4.323 -0.4485  0.9590 -0.1623
  254MOL0     C34195   2.045  10.198   4.280  0.6569 -0.1292  0.3759
  254MOL0     C34196   2.045  10.325   4.198 -0.4697  0.2547 -0.0881
  254MOL0     C34197   1.907  10.390   4.208  0.7530  0.1712  0.1596
  254MOL0     C34198   1.799  10.290   4.162  0.6483 -0.0770  0.6527
  254MOL0    Cl34199   1.822  10.243   3.979 -0.4653 -0.5414 -0.2771
  254MOL0     C34200   2.778  10.433   4.418 -0.8447 -0.6537 -0.1217
  254MOL0     C34201   2.890  10.518   4.397 -0.5552  0.4224  0.0413
  254MOL0     O34202   3.192  10.488   4.155 -0.9875 -0.3306  0.4302
  254MOL0     C34203   3.408  10.671   4.155  0.2670 -0.2068  0.2558
  254MOL0     C34204   3.505  10.770   4.145  0.2601 -0.7388  0.5651
  254MOL0     N34205   3.619  10.886   4.718  0.1568  0.1971  0.5050
  254MOL0     N34206   3.667  10.795   4.796  0.1786 -0.1921  0.8125
  254MOL0     C34207   3.995  11.161   5.490  0.2734 -0.4751  0.4411
  254MOL0     C34208   3.910  11.271   5.477  0.0872 -1.1844 -0.6185
  254MOL0     C34209   3.721  11.656   5.359  0.8903 -0.1533  0.5509
  254MOL0     C34210   3.770  11.760   5.439 -0.5734 -0.5487 -0.8436
  254MOL0     C34211   3.698  11.866   5.470 -0.0288 -0.8974  0.0127
  254MOL0     C34212   3.575  11.896   5.414  0.0790  0.3326  0.2416
  254MOL0     O34213   3.520  12.011   5.445  0.0600 -0.4062  0.4276
  254MOL0     C34214   3.385  12.039   5.401 -0.8126  0.4314  0.0918
  254MOL0     C34215   3.282  11.950   5.468 -0.8675 -0.4499 -0.1612
  254MOL0     C34216   3.266  11.976   5.618  0.0613 -0.4960  0.1460
  254MOL0     C34217   3.390  11.967   5.705  0.1816 -0.0901  0.4607
  254MOL0     C34218   3.367  11.955   5.847  0.5340 -0.1275 -0.0690
  254MOL0     C34219   3.348  11.937   5.966 -0.0423 -0.6903  0.0704
  254MOL0     C34220   3.527  11.801   5.315  0.7858  0.8352  0.1323
  254MOL0     C34221   3.597  11.679   5.292 -0.0036  0.2494  0.0071
  254MOL0     C34222   3.524  11.592   5.194  0.0694 -0.4251 -0.1230
  254MOL0     H34223   4.112  11.527   5.414  1.3035 -0.1915 -0.4713
  254MOL0     H34224   4.288  11.342   5.424 -0.4294 -0.1068 -0.0999
  254MOL0     H34225   4.294  10.924   5.587  0.0643 -0.0588  0.3986
  254MOL0     H34226   4.122  10.954   5.609 -1.4829  5.2523 -1.3671
  254MOL0     H34227   4.280  10.806   5.400 -0.1297 -2.3155  1.3287
  254MOL0     H34228   4.159  10.912   5.332  2.8091  1.4126 -0.4569
  254MOL0     H34229   3.993  10.777   5.484  0.7547  1.2990 -1.1605
  254MOL0     H34230   4.134  10.684   5.541 -1.7008  1.4116  1.4517
  254MOL0     H34231   4.164  10.624   5.280 -0.5091 -2.2456  0.3973
  254MOL0     H34232   4.036  10.543   5.368  0.2337  0.0465  0.3878
  254MOL0     H34233   3.926  10.578   5.186 -1.2298 -0.4965  0.7494
  254MOL0     H34234   3.872  10.723   5.277  1.8537  3.8049 -0.1375
  254MOL0     H34235   4.042  10.866   5.162 -0.3077  0.7024 -1.7221
  254MOL0     H34236   4.121  10.735   5.091  0.6169  1.2232  1.6101
  254MOL0     H34237   3.963  10.699   4.910  0.2200  1.6176 -0.9099
  254MOL0     H34238   4.002  10.868   4.940  3.5030 -1.5966 -1.0649
  254MOL0     H34239   3.740  10.723   5.017 -1.3862  0.0031 -1.2357
  254MOL0     H34240   3.790  10.883   5.086 -0.2615  0.0793  0.2576
  254MOL0     H34241   3.826  11.077   4.878  1.2482  0.8275 -1.9272
  254MOL0     H34242   3.544  11.091   4.602 -0.1860 -3.9482  1.4933
  254MOL0     H34243   3.622  11.216   4.706  0.2572 -1.1826  1.5763
  254MOL0     H34244   3.754  11.258   4.513 -0.1777 -0.7689  0.0656
  254MOL0     H34245   3.848  11.147   4.601  1.3117  2.4794 -1.9220
  254MOL0     H34246   3.731  10.952   4.487 -1.1601  1.4582  2.2268
  254MOL0     H34247   3.842  11.046   4.388 -0.3774  3.3690  0.1108
  254MOL0     H34248   3.648  11.160   4.262 -1.7735  0.4237 -2.4299
  254MOL0     H34249   3.533  11.102   4.365  1.3644  2.4000  1.0714
  254MOL0     H34250   3.425  10.940   4.437 -1.9090 -2.2089  1.5061
  254MOL0     H34251   3.248  10.751   4.443  0.1082  0.5940 -0.0748
  254MOL0     H34252   3.126  10.289   4.319 -0.1238 -1.5913 -0.6519
  254MOL0     H34253   2.959  10.150   4.383 -0.9863 -0.1536 -2.4099
  254MOL0     H34254   2.536  10.368   4.452 -0.1385 -0.5651  0.3045
  254MOL0     H34255   2.539  10.330   4.281 -0.0042 -1.0340 -0.0857
  254MOL0     H34256   2.460  10.108   4.308 -2.1016 -0.3268  0.7314
  254MOL0     H34257   2.418  10.138   4.476  0.0037  2.2083  2.4367
  254MOL0     H34258   2.273  10.341   4.390 -0.0482 -0.7604  0.4568
  254MOL0     H34259   2.332  10.288   4.234 -0.2032 -0.5546 -0.8229
  254MOL0     H34260   2.160  10.129   4.427  2.4174  1.2957  0.7082
  254MOL0     H34261   2.217  10.063   4.273  0.9707  0.9092  0.7635
  254MOL0     H34262   1.989  10.221   4.371 -0.2161 -0.8863  0.0390
  254MOL0     H34263   1.997  10.115   4.227  2.9082 -2.9134  2.3753
  254MOL0     H34264   2.110  10.406   4.234  0.0067  1.0861 -2.6583
  254MOL0     H34265   2.073  10.295   4.097  1.9618  1.4942  0.1376
  254MOL0     H34266   1.921  10.482   4.149  0.4826  1.5664  2.1822
  254MOL0     H34267   1.883  10.422   4.309  1.8824 -1.3565  0.9548
  254MOL0     H34268   1.785  10.196   4.216 -1.1374  0.1173  0.5936
  254MOL0     H34269   1.700  10.336   4.155 -0.7876 -3.1887 -2.4615
  254MOL0     H34270   2.690  10.492   4.442  0.5816  0.3577  3.2058
  254MOL0     H34271   2.893  10.625   4.413  2.9506  0.6558 -1.1909
  254MOL0     H34272   3.422  10.599   4.075  1.6943  1.6862 -1.3222
  254MOL0     H34273   3.573  10.782   4.061 -2.2088  0.0026 -1.4602
  254MOL0     H34274   3.965  11.061   5.519  1.5175 -1.0042 -0.0290
  254MOL0     H34275   3.808  11.260   5.511  0.4712  0.1337  1.0448
  254MOL0     H34276   3.866  11.757   5.489 -0.9436  0.4739 -0.0337
  254MOL0     H34277   3.741  11.930   5.546 -0.2071 -0.3243 -0.3622
  254MOL0     H34278   3.381  12.039   5.292  4.2738 -0.6840 -0.3730
  254MOL0     H34279   3.361  12.141   5.431 -0.1218 -0.1028  2.8083
  254MOL0     H34280   3.295  11.845   5.442  1.5040 -0.5673  1.2386
  254MOL0     H34281   3.187  11.980   5.421 -1.1319  2.5714  1.9847
  254MOL0     H34282   3.180  11.922   5.657 -0.1771 -0.6195 -0.5515
  254MOL0     H34283   3.218  12.074   5.632  0.1843 -0.3496 -0.4346
  254MOL0     H34284   3.437  11.875   5.669  1.4227  0.7811 -0.1931
  254MOL0     H34285   3.457  12.051   5.686  1.3214 -1.1090 -0.1689
  254MOL0     H34286   3.345  11.935   6.073  1.1238  3.2607  0.3127
  254MOL0     H34287   3.439  11.822   5.255 -1.5227 -0.3221  2.8757
  254MOL0     H34288   3.517  11.487   5.222  1.2008 -0.1576  1.2765
  254MOL0     H34289   3.426  11.638   5.179 -0.3044 -0.6598  1.5060
  254MOL0     H34290   3.583  11.584   5.102 -0.0761  2.6938 -0.5887
  255MOL0     O34291   2.054   4.148   5.062  0.1544  0.5106  0.4336
  255MOL0     C34292   2.061   4.244   5.132 -0.3650 -0.0794 -0.4528
  255MOL0     O34293   1.990   4.356   5.121  0.0880 -0.5494  0.5337
  255MOL0     C34294   1.890   4.385   5.027  0.0051  0.9193 -0.3225
  255MOL0     C34295   1.823   4.288   4.946  0.2934 -0.0355  0.5896
  255MOL0     C34296   1.701   4.320   4.885 -0.1083  0.5004 -0.0377
  255MOL0     C34297   1.640   4.444   4.899  0.2021 -0.3978 -0.4486
  255MOL0     O34298   1.522   4.465   4.838  0.5663  0.8970  0.2807
  255MOL0     C34299   1.479   4.604   4.826 -0.6693 -0.0019 -0.0495
  255MOL0     C34300   1.394   4.599   4.703  0.1214 -0.2552  0.4266
  255MOL0     C34301   1.301   4.723   4.697  0.6273 -0.2795  0.5573
  255MOL0     C34302   1.214   4.701   4.576 -0.7881 -0.0476 -0.2435
  255MOL0     C34303   1.123   4.828   4.551  0.1083  0.3823  0.4221
  255MOL0     C34304   0.997   4.803   4.628  0.5550 -0.6414 -0.8731
  255MOL0     C34305   0.896   4.915   4.595  0.1350  0.0892 -0.0408
  255MOL0     C34306   0.764   4.881   4.665  0.3761  0.9720  0.3035
  255MOL0     N34307   0.657   4.969   4.606  0.4558 -0.2297  0.0858
  255MOL0     C34308   0.628   5.096   4.649 -0.0782  1.1934  0.3429
  255MOL0     C34309   0.546   5.151   4.562  0.1733  0.4052 -0.7494
  255MOL0     C34310   0.512   5.300   4.556 -0.3336 -0.8489  0.2346
  255MOL0     C34311   0.631   5.401   4.548  0.5443 -0.2697 -0.6691
  255MOL0     C34312   0.713   5.381   4.422  0.7257 -0.9959  0.3553
  255MOL0     C34313   0.808   5.263   4.402 -0.1680 -0.2123 -0.5697
  255MOL0     O34314   0.858   5.281   4.277 -0.2837  0.0341  0.2228
  255MOL0     C34315   0.984   5.237   4.239 -0.0285 -0.5490 -0.5908
  255MOL0     C34316   1.046   5.126   4.290  0.4908 -0.6710  0.5589
  255MOL0     C34317   1.183   5.107   4.271 -0.3853 -0.3187 -0.2422
  255MOL0     C34318   1.252   5.186   4.173 -0.1449 -0.2404 -0.7202
  255MOL0     C34319   1.391   5.152   4.149  0.2585 -0.6916  0.0297
  255MOL0     O34320   1.448   5.058   4.223  0.7192  0.1215  0.3044
  255MOL0     C34321   1.581   5.021   4.193  0.3891  0.2880 -0.1123
  255MOL0     C34322   1.687   5.043   4.285 -0.4461  0.3964 -0.1892
  255MOL0     C34323   1.820   5.010   4.251  0.2689 -0.6780 -0.0515
  255MOL0     C34324   1.840   4.956   4.121  0.0527 -0.3812 -0.5224
  255MOL0     O34325   1.962   4.931   4.068 -1.1231 -0.1684 -0.3107
  255MOL0     C34326   2.081   5.005   4.123  0.2556 -0.1786  0.0484
  255MOL0     C34327   2.151   4.927   4.228  0.7199 -0.0466  0.3680
  255MOL0     C34328   2.236   4.997   4.333 -0.6846 -0.1498 -1.3982
  255MOL0     C34329   2.375   5.015   4.269 -0.5759 -0.2204 -0.1376
  255MOL0     C34330   2.465   5.136   4.317 -0.1182  0.2346  0.3426
  255MOL0     C34331   2.518   5.105   4.462  0.3153  0.4410  0.1588
  255MOL0     C34332   2.645   5.173   4.512  0.0612  0.6683  0.2340
  255MOL0     C34333   2.763   5.148   4.416  0.4941  0.7267 -0.8496
  255MOL0    Cl34334   2.923   5.186   4.491 -0.1490  0.2665  0.1688
  255MOL0     C34335   1.735   4.920   4.036  0.1175  0.6330 -0.2945
  255MOL0     C34336   1.603   4.953   4.072  0.8015  0.1836 -0.4639
  255MOL0     O34337   1.447   5.212   4.061  0.1179 -1.0363  1.6469
  255MOL0     C34338   1.184   5.289   4.111 -0.0378 -0.3737 -0.0410
  255MOL0     C34339   1.059   5.313   4.153 -0.0808  0.6250 -0.7620
  255MOL0     N34340   0.528   5.065   4.459 -0.0552  0.2382  0.3949
  255MOL0     N34341   0.592   4.958   4.488 -0.8248  0.0811  0.8859
  255MOL0     C34342   1.705   4.539   4.983  0.5951  0.3417 -0.9289
  255MOL0     C34343   1.825   4.506   5.051 -0.8038 -0.4300 -0.0426
  255MOL0     C34344   2.132   4.210   5.259 -0.4323  0.4101  0.3945
  255MOL0     C34345   2.061   4.235   5.378  0.3753  0.1443  0.2120
  255MOL0     C34346   2.092   4.175   5.502 -0.7914 -0.1312  0.3161
  255MOL0     C34347   2.219   4.108   5.505  0.0144 -0.6192 -0.2623
  255MOL0     O34348   2.263   4.045   5.617  0.0421 -0.0653 -0.0538
  255MOL0     C34349   2.172   4.041   5.725 -0.3179 -0.0808  0.5755
  255MOL0     C34350   2.225   3.940   5.834  0.5573 -0.3535 -1.4410
  255MOL0     C34351   2.123   3.924   5.953 -0.0382  0.2039 -0.1587
  255MOL0     C34352   2.190   3.901   6.096  0.0796 -1.0778 -0.2520
  255MOL0     C34353   2.296   3.800   6.076  0.6444  0.2233 -0.1226
  255MOL0     C34354   2.389   3.721   6.070 -0.0317  0.6037 -0.6370
  255MOL0     C34355   2.294   4.094   5.388  1.2043  0.7323 -0.1764
  255MOL0     C34356   2.252   4.140   5.267  0.6531 -0.1365 -1.0342
  255MOL0     C34357   2.348   4.114   5.149 -0.1734 -0.4476  0.0057
  255MOL0     H34358   1.864   4.189   4.928  0.5544  0.2422 -0.4033
  255MOL0     H34359   1.648   4.234   4.844 -0.0071  1.2129 -1.7522
  255MOL0     H34360   1.421   4.632   4.915  0.2716 -0.7780  0.8292
  255MOL0     H34361   1.561   4.675   4.812 -1.7211  1.1159 -0.7926
  255MOL0     H34362   1.344   4.501   4.707  0.2701 -0.2939  1.7821
  255MOL0     H34363   1.468   4.600   4.622  1.7391  2.5381  1.7841
  255MOL0     H34364   1.355   4.815   4.673 -0.0951 -0.0887 -0.3968
  255MOL0     H34365   1.245   4.726   4.790  0.0260 -0.6449  0.2085
  255MOL0     H34366   1.276   4.692   4.487 -0.8115  0.6018 -0.3328
  255MOL0     H34367   1.157   4.607   4.579  0.3197 -0.7366 -0.3664
  255MOL0     H34368   1.169   4.924   4.576 -0.9119  0.2191  3.3315
  255MOL0     H34369   1.084   4.833   4.449 -2.0406 -1.2278  1.0899
  255MOL0     H34370   0.945   4.709   4.608 -0.8742  0.2066 -1.2806
  255MOL0     H34371   1.000   4.804   4.738 -0.5109 -0.2589 -0.8272
  255MOL0     H34372   0.885   4.914   4.487  1.6476 -1.5786 -0.2376
  255MOL0     H34373   0.936   5.011   4.627 -2.6819  1.0514  0.9326
  255MOL0     H34374   0.729   4.779   4.645 -0.1112  1.2084 -0.0595
  255MOL0     H34375   0.765   4.896   4.773 -3.6433  2.5260  0.2781
  255MOL0     H34376   0.678   5.154   4.726  2.3421 -0.3124  0.0316
  255MOL0     H34377   0.446   5.322   4.472 -1.5049 -1.5185  0.9556
  255MOL0     H34378   0.455   5.319   4.648 -1.0648 -0.6409 -0.2496
  255MOL0     H34379   0.599   5.505   4.560 -0.6169 -0.7781  1.0749
  255MOL0     H34380   0.700   5.388   4.631 -0.9039  0.5195  0.7084
  255MOL0     H34381   0.781   5.465   4.409 -1.9381  1.1087 -1.0381
  255MOL0     H34382   0.644   5.378   4.338 -0.6417 -1.2521  1.4503
  255MOL0     H34383   0.763   5.165   4.418  0.3600 -0.3102  0.4568
  255MOL0     H34384   0.885   5.265   4.480 -0.2573 -0.5269 -0.4713
  255MOL0     H34385   0.996   5.070   4.369  0.6590  1.7027  2.4524
  255MOL0     H34386   1.240   5.046   4.339 -1.3602  0.2286  1.1113
  255MOL0     H34387   1.657   5.084   4.382  2.0533  2.7056 -0.2630
  255MOL0     H34388   1.896   5.037   4.323 -0.2679  2.0905 -0.4157
  255MOL0     H34389   2.151   5.006   4.039  1.8943  1.7375  1.3357
  255MOL0     H34390   2.064   5.110   4.150  0.7454  0.0442 -0.5000
  255MOL0     H34391   2.073   4.870   4.280 -1.3939  3.0629  0.8745
  255MOL0     H34392   2.217   4.854   4.179  0.5627  0.1429 -0.1319
  255MOL0     H34393   2.188   5.093   4.355 -2.8737 -1.6914  1.2334
  255MOL0     H34394   2.253   4.932   4.419  1.9875 -0.6277 -2.2079
  255MOL0     H34395   2.358   5.036   4.163 -1.2974 -0.0156  0.0120
  255MOL0     H34396   2.439   4.926   4.263  2.2597  1.7566 -2.4336
  255MOL0     H34397   2.399   5.224   4.315 -2.6324 -1.5111  0.7928
  255MOL0     H34398   2.543   5.157   4.244  0.0530  0.9169  0.7166
  255MOL0     H34399   2.437   5.130   4.531 -0.9604 -1.9036 -0.4057
  255MOL0     H34400   2.536   4.997   4.460  1.1913  0.5474  1.2625
  255MOL0     H34401   2.675   5.124   4.605  0.3809 -1.0072 -0.7154
  255MOL0     H34402   2.626   5.281   4.516 -1.3927  0.4488  0.0202
  255MOL0     H34403   2.757   5.041   4.394  1.2866  0.7369 -1.1568
  255MOL0     H34404   2.756   5.204   4.323 -0.1286  1.9820 -0.0754
  255MOL0     H34405   1.757   4.890   3.934  2.3405 -0.9789  0.5930
  255MOL0     H34406   1.533   4.940   3.990  0.6185 -3.6772  0.1485
  255MOL0     H34407   1.239   5.342   4.034 -0.5192 -0.1933 -0.2609
  255MOL0     H34408   1.013   5.402   4.111 -0.1420  0.2801 -1.4322
  255MOL0     H34409   1.662   4.632   5.018  3.3687  0.4268  2.8884
  255MOL0     H34410   1.870   4.589   5.104 -3.0499  0.7959  0.0847
  255MOL0     H34411   1.968   4.288   5.361 -1.3112 -2.4092  0.8154
  255MOL0     H34412   2.030   4.180   5.591  2.8253 -2.2022  3.2169
  255MOL0     H34413   2.071   4.007   5.698  0.3139 -0.6414 -1.2667
  255MOL0     H34414   2.170   4.136   5.778 -0.7754  0.0554  0.3274
  255MOL0     H34415   2.315   3.979   5.881 -1.8074 -0.5856  4.0547
  255MOL0     H34416   2.249   3.844   5.787 -0.8401 -2.1593  1.2626
  255MOL0     H34417   2.053   3.842   5.930 -1.4687  1.4632 -0.4330
  255MOL0     H34418   2.054   4.008   5.943 -1.1610 -0.7800 -1.1032
  255MOL0     H34419   2.235   3.993   6.134 -0.6215 -2.1445  3.6186
  255MOL0     H34420   2.131   3.859   6.178 -0.3216 -1.7434 -0.8776
  255MOL0     H34421   2.481   3.666   6.064  0.8075  2.0776 -2.2861
  255MOL0     H34422   2.383   4.033   5.384  0.9013  0.3581 -1.5537
  255MOL0     H34423   2.447   4.159   5.159  1.1733 -2.9673 -1.0103
  255MOL0     H34424   2.367   4.007   5.136 -1.6519 -0.6179 -1.0024
  255MOL0     H34425   2.300   4.148   5.057  0.3356  3.9716  1.1510
  256MOL0     O34426   6.070  10.053   0.050  0.2246  0.2162 -0.2335
  256MOL0     C34427   5.999   9.995   0.132  0.8084 -0.7545 -0.2215
  256MOL0     O34428   6.012  10.006   0.266  0.2906  0.8930 -0.0702
  256MOL0     C34429   6.113  10.083   0.326  0.6164 -0.0051 -0.5418
  256MOL0     C34430   6.067  10.184   0.413  0.0620 -0.0044  0.2342
  256MOL0     C34431   6.154  10.274   0.479 -0.1281 -0.3491 -0.5326
  256MOL0     C34432   6.287  10.264   0.453 -0.1455  0.5196 -1.0721
  256MOL0     O34433   6.379  10.348   0.511 -0.3761  0.3802 -0.6281
  256MOL0     C34434   6.329  10.473   0.558 -0.9765  0.8479 -0.2648
  256MOL0     C34435   6.445  10.582   0.586 -0.0126  1.1130  1.1570
  256MOL0     C34436   6.383  10.710   0.634  0.4343 -0.6374 -0.1998
  256MOL0     C34437   6.288  10.774   0.523  0.3074  0.1346 -0.7737
  256MOL0     C34438   6.213  10.900   0.579 -0.3218 -0.1806  0.3769
  256MOL0     C34439   6.109  10.945   0.480 -0.1911 -0.8128  0.4016
  256MOL0     C34440   6.055  11.085   0.516  0.1671 -0.7784  0.5462
  256MOL0     C34441   6.017  11.167   0.380 -0.2439  0.3634 -0.2698
  256MOL0     N34442   6.135  11.212   0.304 -0.4742 -0.3544  0.6738
  256MOL0     C34443   6.264  11.158   0.299  0.2495  0.2086 -0.4607
  256MOL0     C34444   6.334  11.223   0.204 -0.0824  0.0318  0.2248
  256MOL0     C34445   6.481  11.182   0.178 -0.1701 -0.4727  0.0599
  256MOL0     C34446   6.525  11.036   0.156  0.4534 -0.0618 -0.1287
  256MOL0     C34447   6.676  11.019   0.167 -0.4378 -0.3694 -0.2380
  256MOL0     C34448   6.719  10.884   0.112 -1.2090 -0.5067 -0.1060
  256MOL0     O34449   6.664  10.776   0.187  1.0061 -0.0999 -0.2717
  256MOL0     C34450   6.677  10.653   0.132  0.1114  0.8609 -0.0743
  256MOL0     C34451   6.786  10.610   0.049 -0.1473 -0.5810 -0.6297
  256MOL0     C34452   6.788  10.481  -0.012 -0.7678 -1.0371  0.8679
  256MOL0     C34453   6.688  10.386   0.021  0.1903 -0.1045  0.3464
  256MOL0     C34454   6.676  10.248  -0.032 -0.1607 -0.1761 -0.8682
  256MOL0     O34455   6.770  10.208  -0.116 -0.5129  0.7530 -0.3526
  256MOL0     C34456   6.741  10.095  -0.186  0.2645 -0.5020  0.7078
  256MOL0     C34457   6.741  10.108  -0.328 -0.0913  0.4884 -0.1854
  256MOL0     C34458   6.723   9.990  -0.403  0.2873 -0.7333  0.1463
  256MOL0     C34459   6.706   9.865  -0.344 -0.2279 -0.3639  0.1222
  256MOL0     O34460   6.690   9.759  -0.427 -0.6487  0.2760  0.3120
  256MOL0     C34461   6.591   9.662  -0.379  0.7771 -0.3269 -0.6027
  256MOL0     C34462   6.582   9.557  -0.482  0.0285  0.0715  0.1963
  256MOL0     C34463   6.704   9.468  -0.497  0.4332 -0.2798 -0.5416
  256MOL0     C34464   6.671   9.346  -0.581  0.2360  1.0802 -0.6758
  256MOL0     C34465   6.797   9.250  -0.589 -0.2334  0.1401 -1.1327
  256MOL0     C34466   6.764   9.124  -0.673  0.1708 -0.4065 -0.8807
  256MOL0     C34467   6.869   9.021  -0.640 -0.4829  0.9673 -0.1265
  256MOL0     C34468   6.819   8.917  -0.540  0.4202  0.7578 -0.4636
  256MOL0    Cl34469   6.816   8.993  -0.380 -0.5524  0.5116  0.1258
  256MOL0     C34470   6.721   9.854  -0.207 -0.0057  0.3354 -0.0298
  256MOL0     C34471   6.733   9.971  -0.133 -0.1330  0.1778  0.2192
  256MOL0     O34472   6.583  10.177   0.012 -0.5880  0.3278  0.5447
  256MOL0     C34473   6.592  10.433   0.112  1.2042 -0.5842 -0.6170
  256MOL0     C34474   6.576  10.561   0.156 -0.3788 -0.5645  0.0714
  256MOL0     N34475   6.247  11.300   0.140  0.1707 -0.7327 -0.1216
  256MOL0     N34476   6.139  11.310   0.207 -0.0053 -0.5107 -0.0119
  256MOL0     C34477   6.333  10.163   0.366 -0.8109  0.5158 -0.7158
  256MOL0     C34478   6.246  10.072   0.305 -0.2927 -0.2795 -0.2822
  256MOL0     C34479   5.876   9.924   0.092  0.0719 -0.6006 -0.1013
  256MOL0     C34480   5.791   9.879   0.193 -0.1442  0.0384  0.6252
  256MOL0     C34481   5.675   9.814   0.168  0.8589 -0.3311 -0.2526
  256MOL0     C34482   5.645   9.779   0.036  1.1954 -0.1549  0.6323
  256MOL0     O34483   5.537   9.700   0.004  0.6827 -0.4177 -0.1916
  256MOL0     C34484   5.450   9.647   0.103  0.3185  0.7918  0.7339
  256MOL0     C34485   5.339   9.569   0.023  0.5372  0.0889  0.8131
  256MOL0     C34486   5.250   9.485   0.119 -0.4268 -1.0775 -0.0127
  256MOL0     C34487   5.157   9.388   0.028 -1.0028  0.3483  0.4682
  256MOL0     C34488   5.098   9.445  -0.091  1.5348  0.2087 -0.4428
  256MOL0     C34489   5.047   9.469  -0.202  0.8791 -0.0844 -0.2277
  256MOL0     C34490   5.711   9.829  -0.068 -1.1577  0.6792  0.5173
  256MOL0     C34491   5.834   9.900  -0.039  0.8187 -0.1209  0.4368
  256MOL0     C34492   5.893   9.956  -0.170 -0.8672 -0.2658  0.3479
  256MOL0     H34493   5.961  10.196   0.430 -0.8589 -3.8103 -1.7454
  256MOL0     H34494   6.111  10.354   0.538  2.4134  0.7741 -0.0653
  256MOL0     H34495   6.259  10.522   0.490 -1.3021 -0.8968 -1.2434
  256MOL0     H34496   6.274  10.457   0.651 -0.4278 -4.7786 -0.5872
  256MOL0     H34497   6.495  10.588   0.489  2.2217  1.6243  2.2724
  256MOL0     H34498   6.532  10.543   0.639  0.6068 -0.2188 -0.7317
  256MOL0     H34499   6.456  10.787   0.662 -0.7477  0.6346 -0.4985
  256MOL0     H34500   6.337  10.708   0.733  1.7696  0.8022  0.5077
  256MOL0     H34501   6.348  10.778   0.432 -0.9207 -1.6685 -1.7190
  256MOL0     H34502   6.201  10.713   0.498 -1.4562  2.4736 -0.7929
  256MOL0     H34503   6.168  10.872   0.675  1.9979  0.0083  1.5895
  256MOL0     H34504   6.284  10.979   0.607 -0.9305 -0.1356  1.8860
  256MOL0     H34505   6.156  10.950   0.382 -1.9072 -0.0851 -0.4374
  256MOL0     H34506   6.020  10.880   0.485 -1.3634  0.4833 -1.9619
  256MOL0     H34507   6.135  11.142   0.565  1.4112 -2.0659  0.0986
  256MOL0     H34508   5.962  11.081   0.573 -0.4951 -1.1885 -0.5404
  256MOL0     H34509   5.954  11.101   0.319  0.9328  0.6819 -1.9064
  256MOL0     H34510   5.941  11.244   0.399  0.8957  1.9548 -1.8048
  256MOL0     H34511   6.292  11.086   0.376 -4.0801 -1.2537  0.0270
  256MOL0     H34512   6.506  11.242   0.089  3.1432  1.0669  1.8219
  256MOL0     H34513   6.549  11.220   0.255  1.7390  1.8435 -2.5233
  256MOL0     H34514   6.473  10.962   0.216  1.0628 -2.4477 -2.3627
  256MOL0     H34515   6.483  11.011   0.058 -1.7358  0.7130  0.5598
  256MOL0     H34516   6.716  11.010   0.269  0.7147 -2.0901 -0.7870
  256MOL0     H34517   6.718  11.108   0.119 -1.2312  0.5436  0.7111
  256MOL0     H34518   6.827  10.891   0.123 -1.2077 -0.9490  0.1569
  256MOL0     H34519   6.702  10.864   0.005  1.9423  2.8485 -1.4715
  256MOL0     H34520   6.858  10.678   0.004 -0.0261 -0.7899 -0.7583
  256MOL0     H34521   6.850  10.454  -0.097 -2.9546 -0.3741 -1.0509
  256MOL0     H34522   6.755  10.199  -0.386 -0.0375  0.8517  0.3848
  256MOL0     H34523   6.710   9.997  -0.510 -2.1746 -3.8634  0.0906
  256MOL0     H34524   6.612   9.612  -0.284 -0.4092  1.4532  0.6567
  256MOL0     H34525   6.494   9.712  -0.366 -0.7304 -3.0141 -0.9195
  256MOL0     H34526   6.493   9.497  -0.462  0.9720 -1.0043  1.3060
  256MOL0     H34527   6.560   9.603  -0.579 -1.1271 -0.3842  0.2250
  256MOL0     H34528   6.775   9.527  -0.556  0.5480 -0.0458 -0.1690
  256MOL0     H34529   6.746   9.443  -0.399  0.4898  0.7336 -0.2990
  256MOL0     H34530   6.640   9.377  -0.681  2.9131  2.0646 -1.2793
  256MOL0     H34531   6.586   9.292  -0.538  1.8624 -0.7793  0.3356
  256MOL0     H34532   6.820   9.222  -0.486 -1.2410 -1.0941 -1.2280
  256MOL0     H34533   6.883   9.301  -0.635  0.6825 -0.7998 -0.5209
  256MOL0     H34534   6.662   9.089  -0.650 -1.7024  4.5035 -0.5409
  256MOL0     H34535   6.771   9.151  -0.778 -0.8707  0.4601 -0.7470
  256MOL0     H34536   6.960   9.066  -0.597  0.3051 -0.5411 -0.1651
  256MOL0     H34537   6.894   8.983  -0.740 -0.8071  0.5364 -0.0454
  256MOL0     H34538   6.720   8.881  -0.569 -0.2261  0.4387  1.9483
  256MOL0     H34539   6.898   8.841  -0.546 -0.1763 -0.2021  2.5148
  256MOL0     H34540   6.708   9.765  -0.147 -1.2093 -0.4983 -1.4381
  256MOL0     H34541   6.744   9.944  -0.029  2.1833  0.2572  0.0429
  256MOL0     H34542   6.517  10.359   0.137  1.5625 -0.7625 -0.0397
  256MOL0     H34543   6.491  10.584   0.219  0.8780 -1.8567  2.4053
  256MOL0     H34544   6.437  10.145   0.341 -0.2214 -0.3759  2.0268
  256MOL0     H34545   6.284   9.986   0.250  1.7752  0.7787 -0.6014
  256MOL0     H34546   5.811   9.905   0.296 -1.4092  0.6094  0.7518
  256MOL0     H34547   5.613   9.781   0.251  1.0079  1.6840  0.7262
  256MOL0     H34548   5.408   9.729   0.163 -1.9237 -1.1849  2.0752
  256MOL0     H34549   5.506   9.576   0.164  1.5576  2.6663  1.8594
  256MOL0     H34550   5.379   9.502  -0.053 -0.3919 -0.2549  0.6130
  256MOL0     H34551   5.282   9.637  -0.042  0.9296  1.4582  1.8465
  256MOL0     H34552   5.200   9.559   0.182  1.2899  1.2932 -1.2688
  256MOL0     H34553   5.319   9.426   0.181 -0.3590 -1.6369 -0.6070
  256MOL0     H34554   5.223   9.307  -0.003  1.4032  1.7792  1.5097
  256MOL0     H34555   5.081   9.337   0.089  2.1163 -3.4824  1.5330
  256MOL0     H34556   5.029   9.486  -0.306  0.0849 -2.1805 -0.4741
  256MOL0     H34557   5.688   9.790  -0.167  1.7567  1.3612 -0.5193
  256MOL0     H34558   5.849  10.056  -0.172  1.0628  0.6405  0.4897
  256MOL0     H34559   6.002   9.959  -0.158 -1.0410  0.5152  2.1208
  256MOL0     H34560   5.871   9.896  -0.259  1.6301 -0.4890 -0.2115
  257MOL0     O34561   1.529   4.161   1.398  0.3422 -0.8201 -0.8046
  257MOL0     C34562   1.408   4.138   1.425 -0.1607 -0.4027  0.2949
  257MOL0     O34563   1.357   4.089   1.542 -0.6729  0.2128  0.3836
  257MOL0     C34564   1.444   4.059   1.646 -0.1117 -0.4866 -0.2155
  257MOL0     C34565   1.435   3.941   1.715 -0.7889 -0.8699  0.0551
  257MOL0     C34566   1.534   3.910   1.814  0.7729 -0.3409 -0.2880
  257MOL0     C34567   1.626   3.994   1.853 -0.2044  0.3641 -0.4218
  257MOL0     O34568   1.700   3.951   1.957 -0.2638  0.0089 -0.1903
  257MOL0     C34569   1.695   4.040   2.066  0.0021  0.0129 -0.4917
  257MOL0     C34570   1.745   3.973   2.191  0.8597 -0.6997 -0.6924
  257MOL0     C34571   1.879   3.899   2.178 -0.4263  0.2188 -0.6853
  257MOL0     C34572   1.939   3.897   2.316  0.5867  0.1796 -0.5123
  257MOL0     C34573   2.068   3.816   2.326  0.3913  0.7044  1.5292
  257MOL0     C34574   2.046   3.654   2.302 -0.2290 -1.1979 -0.8225
  257MOL0     C34575   1.987   3.582   2.419  0.5192 -0.8924  0.2716
  257MOL0     C34576   2.059   3.587   2.551  0.5479  0.0906 -0.0623
  257MOL0     N34577   2.159   3.485   2.566 -0.0225  0.5866  0.4593
  257MOL0     C34578   2.288   3.489   2.517 -0.6647  0.1104  0.3957
  257MOL0     C34579   2.344   3.368   2.551 -0.6704  0.0756  0.3319
  257MOL0     C34580   2.485   3.320   2.516 -0.5749 -0.1173  1.5358
  257MOL0     C34581   2.557   3.225   2.614  1.0214  0.9331 -0.1029
  257MOL0     C34582   2.598   3.300   2.734 -0.1254 -0.1065  1.0775
  257MOL0     C34583   2.647   3.209   2.857 -0.7587 -0.3339  0.5500
  257MOL0     O34584   2.678   3.291   2.974 -0.1830  0.4986  0.2018
  257MOL0     C34585   2.592   3.286   3.076  0.2302 -1.0842  0.3850
  257MOL0     C34586   2.452   3.254   3.074 -0.4610 -0.2585  1.1509
  257MOL0     C34587   2.376   3.247   3.191 -0.0329 -0.0580  0.5960
  257MOL0     C34588   2.426   3.282   3.316 -0.3932 -0.3118  0.2821
  257MOL0     C34589   2.343   3.295   3.435  0.4088  0.2068  0.1377
  257MOL0     O34590   2.224   3.229   3.440  0.3729 -0.1602 -0.3957
  257MOL0     C34591   2.133   3.261   3.538  0.1629  0.5879  0.4410
  257MOL0     C34592   2.048   3.148   3.582 -0.4635 -0.5822  0.2240
  257MOL0     C34593   1.957   3.157   3.688 -0.2042 -0.1176  0.1053
  257MOL0     C34594   1.924   3.280   3.736  0.1917 -0.2235  0.0085
  257MOL0     O34595   1.840   3.296   3.842  0.6175 -0.1886  0.6181
  257MOL0     C34596   1.700   3.311   3.820  0.0457  0.4295  0.3181
  257MOL0     C34597   1.656   3.451   3.770 -0.6134  0.2504  0.1251
  257MOL0     C34598   1.501   3.461   3.777 -0.1481 -0.3043  1.0432
  257MOL0     C34599   1.434   3.510   3.649 -0.3017  0.7935  0.3549
  257MOL0     C34600   1.302   3.573   3.673 -0.7600  0.0976 -0.4882
  257MOL0     C34601   1.262   3.654   3.548  0.3455  0.0658 -0.2093
  257MOL0     C34602   1.140   3.741   3.572 -0.0302 -0.1524 -0.3343
  257MOL0     C34603   1.152   3.888   3.523  0.5527 -0.0947  0.2901
  257MOL0    Cl34604   1.159   3.911   3.350  0.0061 -0.3739  0.0933
  257MOL0     C34605   1.986   3.391   3.673  0.0017  0.0787  0.7486
  257MOL0     C34606   2.093   3.386   3.586 -0.4154 -0.3167 -0.0960
  257MOL0     O34607   2.386   3.374   3.517  0.3542  0.6674 -0.0560
  257MOL0     C34608   2.559   3.317   3.322 -0.0378  0.2294 -0.3642
  257MOL0     C34609   2.636   3.322   3.205 -0.1486 -0.3669  0.6951
  257MOL0     N34610   2.245   3.296   2.623 -0.4244  0.8353  0.4796
  257MOL0     N34611   2.142   3.364   2.628  0.0713 -0.6752  0.4110
  257MOL0     C34612   1.641   4.117   1.790  0.4778  0.3425 -0.6691
  257MOL0     C34613   1.539   4.153   1.694 -0.1863 -0.6591 -0.0893
  257MOL0     C34614   1.296   4.171   1.331  0.7903  1.2638  0.1228
  257MOL0     C34615   1.158   4.154   1.375  0.7186  0.3217 -0.6212
  257MOL0     C34616   1.053   4.169   1.293  0.2768  0.3320 -0.6179
  257MOL0     C34617   1.075   4.215   1.164 -0.5113  0.1500  0.3245
  257MOL0     O34618   0.962   4.240   1.096 -0.3609 -0.2900 -0.0163
  257MOL0     C34619   0.956   4.248   0.956 -0.9482  0.6502  1.1312
  257MOL0     C34620   0.995   4.384   0.907 -0.5756 -0.5898 -0.3244
  257MOL0     C34621   0.875   4.486   0.900 -0.4797  0.3532 -0.6453
  257MOL0     C34622   0.924   4.633   0.876  0.0310  1.0948  0.1980
  257MOL0     C34623   0.958   4.687   1.006 -0.8887 -0.1950  0.4429
  257MOL0     C34624   0.960   4.736   1.118 -0.4034 -0.4246 -1.0499
  257MOL0     C34625   1.207   4.225   1.108  0.0766 -0.2250 -1.0364
  257MOL0     C34626   1.321   4.208   1.193  0.4990 -0.7268  0.0697
  257MOL0     C34627   1.456   4.228   1.134 -0.7113 -0.0802  0.3391
  257MOL0     H34628   1.364   3.860   1.698  1.5308 -3.2130  0.9884
  257MOL0     H34629   1.532   3.810   1.855 -1.7363 -0.6147 -0.9174
  257MOL0     H34630   1.750   4.134   2.051 -1.5104  1.1834  0.9099
  257MOL0     H34631   1.591   4.073   2.080 -0.3614 -1.0943 -0.5278
  257MOL0     H34632   1.671   3.901   2.226  1.4615  0.3333  3.1445
  257MOL0     H34633   1.752   4.053   2.265  0.1247 -2.2166  1.0599
  257MOL0     H34634   1.945   3.952   2.108  0.2412 -0.2949 -0.4550
  257MOL0     H34635   1.861   3.799   2.137 -0.1543  0.6566 -1.9412
  257MOL0     H34636   1.967   3.997   2.352  1.3838  0.5482 -2.0321
  257MOL0     H34637   1.860   3.860   2.381 -0.2384  2.9434  0.2091
  257MOL0     H34638   2.139   3.853   2.251 -1.1756  3.7772  1.4314
  257MOL0     H34639   2.115   3.845   2.420 -0.5831 -0.4185  2.3902
  257MOL0     H34640   1.983   3.642   2.214 -1.1436  4.6872 -1.3808
  257MOL0     H34641   2.141   3.609   2.272  1.5741 -0.0298  2.5128
  257MOL0     H34642   1.973   3.477   2.390 -1.2278 -1.0785  1.6478
  257MOL0     H34643   1.886   3.622   2.431  0.1406 -1.2542 -1.3412
  257MOL0     H34644   2.111   3.682   2.546  0.1070  0.4627  1.5971
  257MOL0     H34645   1.997   3.580   2.641  1.6783  0.5245  0.7709
  257MOL0     H34646   2.337   3.565   2.457 -2.7632  0.3532 -1.1622
  257MOL0     H34647   2.491   3.274   2.417  1.4033  4.0564 -0.5358
  257MOL0     H34648   2.536   3.416   2.502 -1.2812 -0.0675 -1.4328
  257MOL0     H34649   2.487   3.148   2.649 -0.3452  2.4135  0.5494
  257MOL0     H34650   2.646   3.182   2.569  2.7289 -0.3554  4.0509
  257MOL0     H34651   2.520   3.369   2.769  0.0561  1.5299 -1.4331
  257MOL0     H34652   2.684   3.357   2.697 -2.0733  1.1798 -1.9019
  257MOL0     H34653   2.737   3.161   2.816 -1.9324  0.1941 -3.0057
  257MOL0     H34654   2.575   3.127   2.865 -2.3331  0.5149 -2.8903
  257MOL0     H34655   2.415   3.218   2.979  1.5589 -0.5769  0.4207
  257MOL0     H34656   2.269   3.229   3.192  0.0275 -0.6642 -0.9580
  257MOL0     H34657   2.052   3.049   3.539 -3.2144 -0.6950  0.0463
  257MOL0     H34658   1.913   3.070   3.736 -1.3772 -1.0954 -2.5420
  257MOL0     H34659   1.673   3.239   3.742  0.2350  3.3615 -2.6794
  257MOL0     H34660   1.641   3.279   3.907  2.4150 -0.1156  1.8239
  257MOL0     H34661   1.688   3.531   3.837 -1.2145  1.7094 -1.2476
  257MOL0     H34662   1.694   3.460   3.668  0.3858 -3.3268  0.0599
  257MOL0     H34663   1.447   3.370   3.804 -0.9340 -1.2013 -2.9183
  257MOL0     H34664   1.477   3.534   3.856  1.8635  0.2777  1.1584
  257MOL0     H34665   1.423   3.427   3.579  0.7193  0.3628  0.6804
  257MOL0     H34666   1.499   3.589   3.609  2.8293 -1.0919  1.3810
  257MOL0     H34667   1.305   3.636   3.762 -2.1383 -0.4809 -0.0020
  257MOL0     H34668   1.233   3.490   3.692  0.7903 -1.1220  0.0245
  257MOL0     H34669   1.343   3.719   3.514  0.6404 -0.7446 -1.0889
  257MOL0     H34670   1.240   3.579   3.472  0.7634  0.0439 -0.3090
  257MOL0     H34671   1.114   3.743   3.678  0.2126 -3.8805 -0.0883
  257MOL0     H34672   1.055   3.696   3.521  0.4601 -1.0410 -0.3808
  257MOL0     H34673   1.072   3.950   3.566  2.1477  2.2452  0.0734
  257MOL0     H34674   1.241   3.931   3.569  1.1490  1.5175 -2.2022
  257MOL0     H34675   1.950   3.488   3.707 -2.6165 -0.9795  1.2480
  257MOL0     H34676   2.146   3.472   3.546 -1.1910  0.5644  0.7438
  257MOL0     H34677   2.602   3.356   3.414 -3.7011  2.2047  0.7012
  257MOL0     H34678   2.741   3.350   3.211  0.1771  0.9570 -5.0380
  257MOL0     H34679   1.720   4.189   1.811 -0.4342  1.2896 -0.4123
  257MOL0     H34680   1.541   4.252   1.651 -2.0848 -1.3025 -1.7975
  257MOL0     H34681   1.128   4.119   1.473 -2.0190 -4.7725 -2.8976
  257MOL0     H34682   0.953   4.178   1.334  0.7110 -0.3714  0.6604
  257MOL0     H34683   0.855   4.226   0.921 -0.6766  1.2428 -0.0580
  257MOL0     H34684   1.024   4.168   0.924 -3.9494 -3.0029  3.1094
  257MOL0     H34685   1.037   4.383   0.806 -1.0142 -0.3561 -0.5135
  257MOL0     H34686   1.071   4.424   0.975 -0.4808 -1.5651  0.1528
  257MOL0     H34687   0.825   4.463   0.994  0.7925 -0.1363 -0.0615
  257MOL0     H34688   0.816   4.460   0.811 -1.4657 -2.1646  0.6259
  257MOL0     H34689   1.009   4.640   0.807  1.6746  1.9262  2.2052
  257MOL0     H34690   0.841   4.692   0.836  2.2808  3.3945 -1.4522
  257MOL0     H34691   0.971   4.774   1.218  0.0681  0.3656 -1.3993
  257MOL0     H34692   1.222   4.251   1.004  2.3711 -0.3395 -0.7821
  257MOL0     H34693   1.448   4.257   1.028  0.8492 -2.1752 -0.4195
  257MOL0     H34694   1.519   4.299   1.189  0.7798 -2.6947  2.2333
  257MOL0     H34695   1.511   4.133   1.139  0.9842  0.8764  0.6971
  258MOL0     O34696   5.577   8.428   7.645 -0.3446 -0.2611  0.6277
  258MOL0     C34697   5.537   8.511   7.560  0.6051  0.4932 -0.1372
  258MOL0     O34698   5.594   8.640   7.538  0.0166 -0.1381  0.1634
  258MOL0     C34699   5.731   8.637   7.560  0.1396 -0.2394 -0.6936
  258MOL0     C34700   5.764   8.654   7.699 -0.1731 -0.8516 -0.2320
  258MOL0     C34701   5.901   8.648   7.731  0.3353  0.4002  0.1117
  258MOL0     C34702   5.998   8.633   7.637  0.4136 -0.0909  0.9866
  258MOL0     O34703   6.133   8.648   7.660 -0.4043  0.0789  0.1217
  258MOL0     C34704   6.185   8.598   7.780 -0.7196 -0.7240  0.1322
  258MOL0     C34705   6.215   8.708   7.882  0.2056 -0.0854  0.4925
  258MOL0     C34706   6.294   8.658   8.002 -0.1744  1.1294 -0.0005
  258MOL0     C34707   6.193   8.584   8.096 -0.7320 -0.8468  0.0390
  258MOL0     C34708   6.257   8.570   8.243  0.5910 -0.0825  0.6394
  258MOL0     C34709   6.190   8.474   8.338  0.3621  0.7779  0.3036
  258MOL0     C34710   6.209   8.326   8.312  0.1752  0.4463  0.3036
  258MOL0     C34711   6.348   8.270   8.348  0.2887 -0.6807 -0.0329
  258MOL0     N34712   6.380   8.278   8.493 -0.2070  0.3594  0.5667
  258MOL0     C34713   6.406   8.384   8.569 -0.3305 -0.6979 -0.2479
  258MOL0     C34714   6.444   8.345   8.688  0.8962  0.0993 -0.5678
  258MOL0     C34715   6.508   8.432   8.796  0.7104  0.5474 -0.0546
  258MOL0     C34716   6.448   8.397   8.931 -0.5484 -0.8998 -0.4657
  258MOL0     C34717   6.319   8.473   8.956  0.7407 -0.0412  0.3698
  258MOL0     C34718   6.269   8.450   9.094 -0.0188 -0.1605 -0.2698
  258MOL0     O34719   6.147   8.530   9.111  0.1644  0.2003  0.4823
  258MOL0     C34720   6.105   8.554   9.239 -0.2786  0.5906 -0.1195
  258MOL0     C34721   6.159   8.502   9.356 -0.3155 -0.3621 -0.0662
  258MOL0     C34722   6.099   8.534   9.479 -0.5572  0.4167  0.7016
  258MOL0     C34723   5.995   8.622   9.492  0.7252  0.3352  0.4127
  258MOL0     C34724   5.948   8.659   9.631 -0.1989 -0.1438  1.1148
  258MOL0     O34725   5.966   8.559   9.726 -0.3127 -0.3818 -0.3117
  258MOL0     C34726   5.932   8.574   9.856  0.2940  0.2800 -0.2070
  258MOL0     C34727   5.920   8.701   9.920  0.4666  0.3054  0.8403
  258MOL0     C34728   5.885   8.702  10.056  0.0612 -0.3061 -0.5033
  258MOL0     C34729   5.864   8.577  10.122 -0.0217 -0.9162  0.1600
  258MOL0     O34730   5.829   8.578  10.256 -0.8295 -1.2892 -0.0462
  258MOL0     C34731   5.947   8.602  10.341  0.1659 -0.5041 -0.2249
  258MOL0     C34732   5.921   8.572  10.493 -0.3844 -0.1171 -0.7721
  258MOL0     C34733   5.960   8.681  10.588 -0.8450 -0.9711  0.1661
  258MOL0     C34734   6.119   8.699  10.592  0.5631 -0.2839 -0.4468
  258MOL0     C34735   6.157   8.840  10.629 -0.4431  0.1220 -0.7869
  258MOL0     C34736   6.305   8.872  10.592  0.7064 -0.8717  0.5502
  258MOL0     C34737   6.350   8.982  10.686 -0.0675  0.5413  0.4555
  258MOL0     C34738   6.464   9.078  10.635 -1.0314  0.1598 -0.3290
  258MOL0    Cl34739   6.418   9.167  10.490  0.5325 -0.0612  0.3141
  258MOL0     C34740   5.857   8.459  10.056  0.0902  0.2183 -0.2811
  258MOL0     C34741   5.900   8.459   9.923 -0.1274  0.2133 -0.0690
  258MOL0     O34742   5.878   8.760   9.638  0.5845 -0.4501 -0.3585
  258MOL0     C34743   5.943   8.683   9.372  0.5785  0.6451 -0.1099
  258MOL0     C34744   5.998   8.642   9.247  0.1091  0.8720  0.1926
  258MOL0     N34745   6.416   8.207   8.690 -0.2597 -0.4416  0.2817
  258MOL0     N34746   6.379   8.172   8.572  0.2529 -0.0225 -1.0973
  258MOL0     C34747   5.964   8.622   7.498  0.2599 -0.5176  0.3069
  258MOL0     C34748   5.823   8.625   7.453 -0.1339  0.0817 -0.7458
  258MOL0     C34749   5.404   8.490   7.504  0.7918 -0.2265  0.0258
  258MOL0     C34750   5.316   8.394   7.558 -0.5411  0.4974  0.3636
  258MOL0     C34751   5.197   8.361   7.497 -0.5476  0.3192  0.3690
  258MOL0     C34752   5.157   8.425   7.380  0.4903  1.4667  0.3533
  258MOL0     O34753   5.037   8.418   7.314 -0.3807  0.1025 -0.3251
  258MOL0     C34754   4.934   8.414   7.407  0.4682  0.5751  0.3704
  258MOL0     C34755   4.804   8.465   7.357  0.3781  0.1217 -0.5246
  258MOL0     C34756   4.820   8.599   7.288 -0.1565 -0.0158 -0.2006
  258MOL0     C34757   4.684   8.660   7.255 -0.3571  0.2197  0.7844
  258MOL0     C34758   4.623   8.587   7.133 -0.0622  0.3959  0.7130
  258MOL0     C34759   4.579   8.547   7.028  0.7192  0.1324 -0.0440
  258MOL0     C34760   5.246   8.507   7.321  0.0734 -0.8411  0.6277
  258MOL0     C34761   5.368   8.542   7.374  0.2699 -0.3155  0.3622
  258MOL0     C34762   5.450   8.639   7.287  0.5970  0.6038 -0.4504
  258MOL0     H34763   5.697   8.668   7.783  3.5824  1.9526  2.6662
  258MOL0     H34764   5.933   8.664   7.833 -0.9192  1.3763  0.3739
  258MOL0     H34765   6.117   8.523   7.822 -0.8729 -0.7938 -0.2310
  258MOL0     H34766   6.270   8.533   7.756 -3.1422 -3.0218 -3.3212
  258MOL0     H34767   6.124   8.764   7.905  0.5365  0.6053  0.1594
  258MOL0     H34768   6.272   8.788   7.833 -1.0973  1.5246  1.4947
  258MOL0     H34769   6.338   8.736   8.065 -1.0897 -0.4838  2.8322
  258MOL0     H34770   6.379   8.597   7.969  0.8887  2.6629 -0.1852
  258MOL0     H34771   6.101   8.643   8.090 -0.3481 -0.3165 -0.9417
  258MOL0     H34772   6.185   8.483   8.054  2.5010  0.0456 -3.3306
  258MOL0     H34773   6.359   8.535   8.221  0.3021 -0.0913 -0.8105
  258MOL0     H34774   6.252   8.666   8.295  3.9960 -0.4947  1.9870
  258MOL0     H34775   6.221   8.490   8.442  0.7355 -3.8365  1.1049
  258MOL0     H34776   6.083   8.494   8.343 -0.2615 -2.1217 -0.1777
  258MOL0     H34777   6.166   8.302   8.214 -1.3016 -0.3355  1.1058
  258MOL0     H34778   6.140   8.280   8.383 -0.5264  0.3023 -0.4470
  258MOL0     H34779   6.355   8.167   8.312  0.9287 -1.0390  1.0848
  258MOL0     H34780   6.408   8.334   8.282 -0.1850 -0.7154 -0.5024
  258MOL0     H34781   6.424   8.484   8.532  0.9795 -1.6903 -2.5791
  258MOL0     H34782   6.618   8.431   8.797  0.7685  1.4288 -1.9004
  258MOL0     H34783   6.476   8.532   8.768 -1.5279 -0.5872 -1.9238
  258MOL0     H34784   6.436   8.288   8.938  2.2421 -1.1785  1.1719
  258MOL0     H34785   6.517   8.432   9.007 -2.2260 -0.4685  0.9306
  258MOL0     H34786   6.245   8.456   8.876  1.4653 -1.9548  0.0507
  258MOL0     H34787   6.337   8.581   8.955 -0.7819  0.2635  1.5922
  258MOL0     H34788   6.346   8.472   9.168 -0.3626 -2.0927  0.7563
  258MOL0     H34789   6.246   8.343   9.102  1.7962 -0.6059 -0.6651
  258MOL0     H34790   6.238   8.428   9.354  1.2077  1.1891  0.1765
  258MOL0     H34791   6.128   8.489   9.573 -0.1298 -0.5066  0.1417
  258MOL0     H34792   5.940   8.791   9.863 -0.7139 -1.5940 -2.9235
  258MOL0     H34793   5.880   8.794  10.113 -1.9538  0.2564 -1.5084
  258MOL0     H34794   6.028   8.538  10.304  0.5440  0.8368 -1.8586
  258MOL0     H34795   5.979   8.706  10.330  1.9454 -0.9140  0.7621
  258MOL0     H34796   5.815   8.544  10.503 -0.1396 -0.8855 -0.2185
  258MOL0     H34797   5.971   8.481  10.526 -1.6426 -0.2006  1.0675
  258MOL0     H34798   5.909   8.775  10.569 -0.6576 -1.0638 -0.8239
  258MOL0     H34799   5.922   8.655  10.687 -0.3082 -0.4720  0.5105
  258MOL0     H34800   6.156   8.678  10.491 -0.0720  1.9323 -1.2079
  258MOL0     H34801   6.160   8.623  10.659  1.9095  1.1721  0.4443
  258MOL0     H34802   6.153   8.845  10.738 -0.9057  1.3888 -0.8505
  258MOL0     H34803   6.102   8.920  10.580  4.4808  4.1712 -0.5719
  258MOL0     H34804   6.366   8.783  10.609  0.4423 -1.0875  0.3810
  258MOL0     H34805   6.312   8.903  10.487 -1.6886 -2.9154 -0.3383
  258MOL0     H34806   6.379   8.932  10.779 -2.8686 -2.6188 -0.1951
  258MOL0     H34807   6.262   9.044  10.707  0.9239  2.5567 -0.9727
  258MOL0     H34808   6.480   9.137  10.726  0.2567 -3.6223  2.1604
  258MOL0     H34809   6.549   9.012  10.615 -3.0770 -2.4127 -1.1325
  258MOL0     H34810   5.818   8.372  10.108  1.6205  0.4163  1.2692
  258MOL0     H34811   5.894   8.365   9.869  2.1848  0.7756 -1.4469
  258MOL0     H34812   5.876   8.768   9.367  1.3415  1.2005 -1.7892
  258MOL0     H34813   5.969   8.697   9.158  0.0162  3.0496  1.4901
  258MOL0     H34814   6.037   8.621   7.418  0.5069 -2.7398  0.5008
  258MOL0     H34815   5.784   8.621   7.351 -4.0554  0.9996  0.5557
  258MOL0     H34816   5.344   8.329   7.641  0.0070 -1.0091 -0.9650
  258MOL0     H34817   5.142   8.294   7.561 -0.4450  0.2582  0.3941
  258MOL0     H34818   4.951   8.479   7.494  1.3384  1.0969 -0.1621
  258MOL0     H34819   4.926   8.310   7.439 -1.9014  0.5849 -0.0099
  258MOL0     H34820   4.743   8.483   7.446  0.1112  2.8994 -1.1716
  258MOL0     H34821   4.754   8.387   7.298 -1.7492  0.0752  1.2211
  258MOL0     H34822   4.877   8.610   7.195  0.0064  4.4726  0.1987
  258MOL0     H34823   4.873   8.661   7.362 -0.7038 -1.0389  1.0891
  258MOL0     H34824   4.609   8.664   7.334 -1.4556  3.4062 -0.2647
  258MOL0     H34825   4.696   8.766   7.233  0.5669  0.6238  2.9632
  258MOL0     H34826   4.530   8.501   6.945 -0.1080 -2.1527  1.6150
  258MOL0     H34827   5.209   8.555   7.231 -2.2642 -2.9245  0.3605
  258MOL0     H34828   5.477   8.735   7.333  1.1810  0.2651 -0.0830
  258MOL0     H34829   5.539   8.585   7.254 -0.0565  1.1062 -3.3444
  258MOL0     H34830   5.404   8.677   7.195  3.7995  3.0405 -1.2192
  259MOL0     O34831   5.504   4.004  10.990 -0.2339 -0.5448  0.4308
  259MOL0     C34832   5.591   4.051  11.061  0.6878 -0.0072  0.1268
  259MOL0     O34833   5.622   4.183  11.063 -0.0950 -0.0185  0.0368
  259MOL0     C34834   5.552   4.268  10.984  0.2113 -0.4835 -0.1850
  259MOL0     C34835   5.432   4.324  11.029  0.5508 -0.3166 -0.0979
  259MOL0     C34836   5.359   4.414  10.947  0.1287  0.0333  0.6322
  259MOL0     C34837   5.400   4.440  10.818  0.4241 -0.4515 -0.0787
  259MOL0     O34838   5.321   4.524  10.749 -0.2029  0.5947  0.7423
  259MOL0     C34839   5.324   4.516  10.601  0.2562 -0.2871 -0.0050
  259MOL0     C34840   5.296   4.660  10.546 -0.3358 -0.3442 -0.6185
  259MOL0     C34841   5.266   4.651  10.393  0.0182 -0.6578 -0.8171
  259MOL0     C34842   5.117   4.651  10.354  0.6870  0.5789  0.2005
  259MOL0     C34843   5.108   4.640  10.204  0.5457 -0.2707  0.3192
  259MOL0     C34844   4.970   4.608  10.145 -1.5199  0.6393 -0.1155
  259MOL0     C34845   4.981   4.611   9.999  0.4525  0.6133  1.1864
  259MOL0     C34846   4.856   4.551   9.934 -0.0362 -1.0017  0.1231
  259MOL0     N34847   4.855   4.560   9.787 -0.1485 -1.7470  0.1083
  259MOL0     C34848   4.798   4.657   9.699 -0.4892  1.7346 -2.0016
  259MOL0     C34849   4.835   4.613   9.574 -0.6481 -1.2650  0.1369
  259MOL0     C34850   4.803   4.681   9.450  0.1214 -0.1186 -0.1809
  259MOL0     C34851   4.664   4.651   9.394 -0.7327 -0.6192 -0.6874
  259MOL0     C34852   4.661   4.507   9.330  0.3838 -0.4453  0.2888
  259MOL0     C34853   4.525   4.459   9.266 -0.5518  0.5318 -0.4529
  259MOL0     O34854   4.420   4.483   9.356 -0.6382  0.0131  0.6249
  259MOL0     C34855   4.288   4.464   9.306  0.3498  0.5995 -0.4843
  259MOL0     C34856   4.188   4.476   9.402  0.6056  0.8052 -0.6002
  259MOL0     C34857   4.059   4.451   9.357  1.1102 -0.7394  0.4677
  259MOL0     C34858   4.027   4.436   9.218  0.4349 -0.0310 -0.8147
  259MOL0     C34859   3.886   4.418   9.183 -0.3091 -0.9057  0.4695
  259MOL0     O34860   3.799   4.435   9.282  0.3759  0.1043  0.4190
  259MOL0     C34861   3.679   4.371   9.266  0.4824  0.5430 -0.7526
  259MOL0     C34862   3.665   4.241   9.319  0.1475  0.1518 -0.1077
  259MOL0     C34863   3.543   4.171   9.298 -0.5116 -0.0426 -0.4101
  259MOL0     C34864   3.448   4.229   9.215  0.1291 -0.1860 -0.1609
  259MOL0     O34865   3.349   4.156   9.171 -0.1854  0.2003  0.8449
  259MOL0     C34866   3.370   4.124   9.028  0.3315  0.6066 -0.6618
  259MOL0     C34867   3.224   4.120   8.971 -0.4385  0.8938  0.0584
  259MOL0     C34868   3.158   4.258   8.990  1.0689  0.3029 -0.6755
  259MOL0     C34869   3.057   4.273   8.868 -0.5137  0.2683  0.0700
  259MOL0     C34870   2.972   4.402   8.877 -0.5784  0.2736  0.5319
  259MOL0     C34871   2.914   4.451   8.743  0.9113  0.3208 -0.3621
  259MOL0     C34872   2.764   4.425   8.719 -0.0711 -0.3469  0.4148
  259MOL0     C34873   2.725   4.277   8.703  0.5801  0.0811  0.1128
  259MOL0    Cl34874   2.582   4.259   8.606  0.0664 -0.0570 -0.2091
  259MOL0     C34875   3.452   4.366   9.189 -0.2169 -0.2776  0.2268
  259MOL0     C34876   3.569   4.436   9.215 -0.1872 -1.0061 -0.0661
  259MOL0     O34877   3.861   4.372   9.073  0.0858  1.1467 -0.2809
  259MOL0     C34878   4.133   4.434   9.127 -0.5583 -0.1767 -0.1634
  259MOL0     C34879   4.257   4.446   9.169  0.7148 -0.5634 -0.2242
  259MOL0     N34880   4.922   4.510   9.582 -0.9101  0.2266  0.9628
  259MOL0     N34881   4.930   4.478   9.707 -0.6383 -0.2238  0.0436
  259MOL0     C34882   5.523   4.378  10.768  0.3465  0.4674  0.2686
  259MOL0     C34883   5.596   4.293  10.857 -0.5538 -0.8727  0.0683
  259MOL0     C34884   5.652   3.964  11.168  0.1623  0.8657  0.0985
  259MOL0     C34885   5.764   4.024  11.236 -0.5898 -0.1103  0.3002
  259MOL0     C34886   5.818   3.968  11.352  0.0376 -0.2216  0.3264
  259MOL0     C34887   5.767   3.849  11.406  0.1197  0.0756  0.2371
  259MOL0     O34888   5.831   3.789  11.508 -0.3890  0.4263 -0.4585
  259MOL0     C34889   5.825   3.643  11.533 -0.5843 -1.3970  0.0935
  259MOL0     C34890   5.932   3.610  11.630 -0.4953 -0.9396  0.5189
  259MOL0     C34891   6.071   3.620  11.575  0.6910 -0.3581 -0.6364
  259MOL0     C34892   6.181   3.549  11.667  1.0516  0.1631  0.2601
  259MOL0     C34893   6.318   3.564  11.619  0.2671  0.4094 -0.1766
  259MOL0     C34894   6.428   3.554  11.568  0.5634 -0.3669 -0.2900
  259MOL0     C34895   5.664   3.789  11.326  0.5428  0.0407 -0.2781
  259MOL0     C34896   5.603   3.840  11.212  0.9029  0.5813 -0.3491
  259MOL0     C34897   5.484   3.764  11.149  0.6607  1.0314 -0.3209
  259MOL0     H34898   5.401   4.301  11.131  0.4879 -0.5893 -0.1771
  259MOL0     H34899   5.278   4.472  10.990  2.4005  2.8617  1.3993
  259MOL0     H34900   5.413   4.471  10.555  1.3688  0.7101  1.1069
  259MOL0     H34901   5.241   4.452  10.570 -2.2352  2.2767  0.9083
  259MOL0     H34902   5.380   4.726  10.567  0.1025 -0.6089 -1.4664
  259MOL0     H34903   5.206   4.704  10.589 -0.1561 -0.2771 -0.3085
  259MOL0     H34904   5.329   4.579  10.340  2.2247  0.4165  0.1873
  259MOL0     H34905   5.308   4.748  10.363 -0.7179 -0.0695 -0.0182
  259MOL0     H34906   5.070   4.563  10.399  0.5048  1.0277  0.9006
  259MOL0     H34907   5.055   4.737  10.380  2.8513  2.5183 -0.7709
  259MOL0     H34908   5.123   4.743  10.170 -2.1935  0.3489  0.7741
  259MOL0     H34909   5.186   4.573  10.167  0.4784 -2.6707  3.9479
  259MOL0     H34910   4.921   4.520  10.188 -2.2490  0.8235 -0.5651
  259MOL0     H34911   4.905   4.694  10.158 -0.0301  2.4300 -3.3105
  259MOL0     H34912   5.072   4.560   9.965  1.0648  3.2999 -1.7117
  259MOL0     H34913   4.997   4.716   9.974  5.1288 -0.0127  0.7322
  259MOL0     H34914   4.850   4.446   9.961  0.3024 -1.1200 -0.2514
  259MOL0     H34915   4.764   4.603   9.960 -0.9985  0.2311 -4.6667
  259MOL0     H34916   4.732   4.739   9.727 -1.4239 -0.4075  3.4096
  259MOL0     H34917   4.806   4.789   9.463  0.0105  0.2672 -2.8194
  259MOL0     H34918   4.884   4.657   9.381  1.4835  2.3468  0.4576
  259MOL0     H34919   4.593   4.657   9.477  0.5942 -1.9884  0.6040
  259MOL0     H34920   4.640   4.720   9.312 -0.1278  0.1352 -0.2383
  259MOL0     H34921   4.680   4.434   9.410 -1.3995 -2.8163 -1.3052
  259MOL0     H34922   4.749   4.496   9.266 -0.3291 -0.2468 -0.7415
  259MOL0     H34923   4.532   4.353   9.241  1.7330  0.3625  0.6397
  259MOL0     H34924   4.513   4.528   9.182 -0.5925  0.8714 -0.1717
  259MOL0     H34925   4.206   4.486   9.508 -3.2933 -1.3523  0.4731
  259MOL0     H34926   3.977   4.459   9.427  1.2314  1.9303  0.3866
  259MOL0     H34927   3.748   4.199   9.375  1.0590  0.4130 -1.2343
  259MOL0     H34928   3.521   4.072   9.334  0.7146  1.0662  3.8786
  259MOL0     H34929   3.436   4.199   8.983  1.0756 -0.9388 -2.2643
  259MOL0     H34930   3.420   4.028   9.010  0.2174 -0.0374  2.0101
  259MOL0     H34931   3.235   4.100   8.864  0.1958  1.4824  0.0060
  259MOL0     H34932   3.164   4.040   9.014  1.5924 -0.6024  0.2675
  259MOL0     H34933   3.107   4.250   9.087  1.8727  2.3077 -0.0307
  259MOL0     H34934   3.227   4.343   8.999 -2.2494  3.2270 -0.3469
  259MOL0     H34935   2.992   4.186   8.878  2.2008 -1.6059  4.3612
  259MOL0     H34936   3.110   4.265   8.773 -1.9871 -0.7720 -0.6964
  259MOL0     H34937   3.042   4.480   8.908  0.0404  0.1590 -0.5297
  259MOL0     H34938   2.887   4.396   8.946 -1.7946  0.8602 -0.8461
  259MOL0     H34939   2.931   4.559   8.745  0.5965  0.3813 -0.7812
  259MOL0     H34940   2.979   4.417   8.661  0.6753  1.1336 -0.9016
  259MOL0     H34941   2.735   4.482   8.630  1.2398  2.1097  1.4326
  259MOL0     H34942   2.709   4.462   8.806 -4.3013 -0.1813 -2.0822
  259MOL0     H34943   2.812   4.223   8.664  2.5526  1.7929  1.8597
  259MOL0     H34944   2.716   4.230   8.801  1.5901 -1.5082 -0.5103
  259MOL0     H34945   3.375   4.404   9.123 -0.2607 -2.6273 -1.2009
  259MOL0     H34946   3.586   4.534   9.172 -1.4495 -0.3642  0.8604
  259MOL0     H34947   4.124   4.438   9.019 -0.8938  0.0139 -0.1270
  259MOL0     H34948   4.331   4.447   9.090 -0.0211 -0.0121 -0.9252
  259MOL0     H34949   5.558   4.391  10.666 -1.2897 -1.7041 -0.6422
  259MOL0     H34950   5.697   4.262  10.833  0.9217  0.6466  3.5699
  259MOL0     H34951   5.812   4.116  11.203 -0.5194 -0.2361  0.0436
  259MOL0     H34952   5.903   4.003  11.408 -2.2374  2.4560  2.4250
  259MOL0     H34953   5.849   3.583  11.445  1.0470 -0.0592 -0.4166
  259MOL0     H34954   5.731   3.607  11.576 -0.3137  1.2243  3.2853
  259MOL0     H34955   5.907   3.510  11.667 -1.5735 -1.3336 -1.1746
  259MOL0     H34956   5.942   3.678  11.716  3.0086 -0.5585 -0.0455
  259MOL0     H34957   6.088   3.727  11.558  0.2779 -0.4605 -1.7621
  259MOL0     H34958   6.077   3.573  11.477 -0.4804 -3.6160  0.7379
  259MOL0     H34959   6.172   3.596  11.766 -1.6036 -1.9936  1.1458
  259MOL0     H34960   6.168   3.442  11.680 -1.1112  0.5383  1.6960
  259MOL0     H34961   6.529   3.553  11.533  0.9613  0.5578  0.7642
  259MOL0     H34962   5.631   3.689  11.355  1.1033  0.2150  1.0548
  259MOL0     H34963   5.411   3.833  11.107  2.1642  1.7153 -1.9653
  259MOL0     H34964   5.536   3.712  11.068 -3.1999 -3.1302 -0.5592
  259MOL0     H34965   5.429   3.689  11.207  0.1305  3.4186  2.5053
  260MOL0     O34966  10.281   3.158   6.076  0.9111 -0.0078  0.0827
  260MOL0     C34967  10.266   3.275   6.118  0.2603  0.6056  0.2706
  260MOL0     O34968  10.152   3.348   6.117  0.5919  0.2131 -0.8241
  260MOL0     C34969  10.061   3.291   6.024 -0.3541 -0.0929 -0.7298
  260MOL0     C34970   9.989   3.170   6.048 -0.7276 -0.5558 -0.2699
  260MOL0     C34971   9.875   3.139   5.968 -0.2183  0.1367 -1.6776
  260MOL0     C34972   9.836   3.219   5.864 -0.3070 -0.3851 -0.6430
  260MOL0     O34973   9.745   3.174   5.777 -0.6117 -0.4179  0.1612
  260MOL0     C34974   9.647   3.266   5.730 -0.1496  0.0191  0.6346
  260MOL0     C34975   9.562   3.185   5.628 -0.4458 -0.6342  1.1380
  260MOL0     C34976   9.624   3.167   5.487  0.7101  0.3630 -0.7212
  260MOL0     C34977   9.531   3.080   5.403 -0.3191  0.3517  0.1099
  260MOL0     C34978   9.603   3.025   5.271  0.3333  0.3827  0.6554
  260MOL0     C34979   9.584   3.119   5.149 -0.6257  0.2713 -0.4013
  260MOL0     C34980   9.441   3.141   5.110  0.7387 -0.2753 -0.7272
  260MOL0     C34981   9.417   3.290   5.093 -0.3046  0.1553  0.6069
  260MOL0     N34982   9.277   3.329   5.098 -0.1446 -0.2361 -0.1223
  260MOL0     C34983   9.211   3.405   5.008  0.2904 -0.9503 -0.2413
  260MOL0     C34984   9.085   3.397   5.055 -0.5411 -0.2561  0.7214
  260MOL0     C34985   8.974   3.467   4.973  0.1078  0.3028  0.4885
  260MOL0     C34986   8.823   3.440   5.008 -0.2450  0.2558  0.0878
  260MOL0     C34987   8.798   3.479   5.152  0.4372 -0.7806 -0.3949
  260MOL0     C34988   8.655   3.448   5.207 -0.2260 -1.1230  0.4335
  260MOL0     O34989   8.635   3.481   5.345  0.4468 -0.4941 -0.0658
  260MOL0     C34990   8.599   3.610   5.383 -0.3857 -0.3904 -1.2839
  260MOL0     C34991   8.587   3.729   5.307  0.5754 -0.6754  0.2958
  260MOL0     C34992   8.541   3.851   5.364 -0.2648 -0.1238 -0.1412
  260MOL0     C34993   8.495   3.848   5.503 -0.0266  0.5085  1.1448
  260MOL0     C34994   8.417   3.963   5.557 -0.6577  0.4678  1.0872
  260MOL0     O34995   8.420   3.966   5.686 -0.3587 -0.2946 -0.5740
  260MOL0     C34996   8.335   4.046   5.752 -0.2392  0.1977 -0.9153
  260MOL0     C34997   8.342   4.188   5.757  0.6590 -1.1028  0.2169
  260MOL0     C34998   8.258   4.268   5.839 -0.4454 -0.0938  0.5057
  260MOL0     C34999   8.147   4.208   5.903  0.2913 -0.5234  0.8746
  260MOL0     O35000   8.061   4.293   5.964 -0.0935  0.5282 -0.1580
  260MOL0     C35001   7.926   4.268   5.934 -0.5541 -0.4683 -0.1642
  260MOL0     C35002   7.832   4.380   5.977 -0.4631  0.2116  0.5037
  260MOL0     C35003   7.892   4.444   6.103  0.1951  0.5666  0.5418
  260MOL0     C35004   7.799   4.559   6.154  0.0106  1.3081  0.3671
  260MOL0     C35005   7.852   4.639   6.273 -0.1552  0.4659  0.8264
  260MOL0     C35006   7.824   4.791   6.279  0.4124 -0.3283 -0.4279
  260MOL0     C35007   7.881   4.840   6.413 -0.2752  0.1283  0.3606
  260MOL0     C35008   7.892   4.993   6.424  0.1643  0.3110  0.7720
  260MOL0    Cl35009   7.985   5.031   6.573  0.1809  0.0524 -0.1821
  260MOL0     C35010   8.128   4.072   5.895 -1.1051  0.4142 -0.4997
  260MOL0     C35011   8.231   3.995   5.838  0.3203 -0.0646  0.9970
  260MOL0     O35012   8.357   4.038   5.477  0.8411 -0.3052  0.4881
  260MOL0     C35013   8.518   3.728   5.584 -0.3907 -0.4004  0.1134
  260MOL0     C35014   8.564   3.616   5.519  0.2806  0.0381 -0.0923
  260MOL0     N35015   9.070   3.332   5.176  0.0988  0.3912  0.0876
  260MOL0     N35016   9.192   3.291   5.200  0.0476  1.2879 -0.0530
  260MOL0     C35017   9.905   3.337   5.842 -0.9284 -0.3088 -0.3301
  260MOL0     C35018  10.020   3.375   5.919  0.3877 -0.4501 -0.4699
  260MOL0     C35019  10.381   3.354   6.144 -0.6898 -0.3204 -0.3132
  260MOL0     C35020  10.411   3.483   6.076 -0.4445  0.4681 -0.7506
  260MOL0     C35021  10.515   3.566   6.110  0.3341 -0.5396 -0.2038
  260MOL0     C35022  10.600   3.527   6.211 -0.9178 -0.2785 -1.2386
  260MOL0     O35023  10.720   3.590   6.250  0.2032 -0.8360 -0.4323
  260MOL0     C35024  10.759   3.730   6.202 -0.6546  0.7317  0.2054
  260MOL0     C35025  10.663   3.831   6.271  1.3130  0.5926 -0.8856
  260MOL0     C35026  10.732   3.968   6.305  0.9255  0.5953 -0.5845
  260MOL0     C35027  10.784   4.043   6.182  0.7851  0.4673  0.6782
  260MOL0     C35028  10.859   4.155   6.221 -0.0151  0.2383  0.0365
  260MOL0     C35029  10.932   4.228   6.277 -0.2137 -0.3811  0.2555
  260MOL0     C35030  10.595   3.394   6.260  0.5124  0.0452  0.0286
  260MOL0     C35031  10.481   3.313   6.235 -0.7281  0.5034 -0.0281
  260MOL0     C35032  10.485   3.180   6.296 -0.1366  0.2858 -0.5062
  260MOL0     H35033  10.014   3.104   6.130  2.3918  0.0994 -0.5881
  260MOL0     H35034   9.829   3.043   5.985  1.4489 -0.5497 -0.8276
  260MOL0     H35035   9.580   3.307   5.806 -1.4507  1.5092 -1.2064
  260MOL0     H35036   9.693   3.349   5.676  0.1975 -0.7372 -0.2579
  260MOL0     H35037   9.469   3.243   5.619  0.0648  0.8916  4.2193
  260MOL0     H35038   9.533   3.088   5.669 -2.2998 -1.0013 -0.8946
  260MOL0     H35039   9.723   3.120   5.497  1.1333  1.4612  0.6158
  260MOL0     H35040   9.637   3.267   5.447 -0.5462  1.5956  1.7139
  260MOL0     H35041   9.504   2.992   5.462 -0.0976  1.1757  1.4831
  260MOL0     H35042   9.435   3.127   5.381  0.1151  1.3523  0.3117
  260MOL0     H35043   9.711   3.013   5.286  0.7766  1.5049 -1.3784
  260MOL0     H35044   9.563   2.925   5.251  0.2327  0.1595  1.8867
  260MOL0     H35045   9.642   3.209   5.173 -1.5141  0.7418  0.0172
  260MOL0     H35046   9.633   3.090   5.055  1.0175  1.8436 -0.0915
  260MOL0     H35047   9.363   3.089   5.166  0.2495  1.4357  0.2451
  260MOL0     H35048   9.446   3.097   5.010  1.4392  1.3089 -1.4315
  260MOL0     H35049   9.475   3.346   5.167  2.0653 -0.5188 -0.6699
  260MOL0     H35050   9.452   3.311   4.991 -1.3364 -0.6352  0.0685
  260MOL0     H35051   9.228   3.456   4.914 -0.6693  0.8772  0.5159
  260MOL0     H35052   8.997   3.574   4.974 -2.5172  1.0769 -3.2834
  260MOL0     H35053   8.984   3.443   4.867 -0.8690 -0.2747  0.5142
  260MOL0     H35054   8.761   3.506   4.947 -1.7754 -0.3988  0.8707
  260MOL0     H35055   8.784   3.339   4.992  1.6915  0.1097 -5.9300
  260MOL0     H35056   8.802   3.588   5.153 -0.4433 -0.7051  1.9771
  260MOL0     H35057   8.866   3.428   5.221  1.4512 -1.2625 -1.7160
  260MOL0     H35058   8.637   3.340   5.208  2.5710 -1.6821  0.1742
  260MOL0     H35059   8.585   3.498   5.139  1.4020 -2.1082 -2.1381
  260MOL0     H35060   8.617   3.719   5.204 -0.0567 -2.2910  0.2440
  260MOL0     H35061   8.550   3.946   5.314  1.8439 -0.8379 -1.2507
  260MOL0     H35062   8.408   4.241   5.689 -2.4456  0.8347 -1.4859
  260MOL0     H35063   8.271   4.375   5.845  1.9634 -0.4063  3.3641
  260MOL0     H35064   7.909   4.246   5.829 -0.9659  1.1755 -0.4725
  260MOL0     H35065   7.895   4.176   5.985 -1.4552 -0.2170 -0.2301
  260MOL0     H35066   7.812   4.452   5.897 -0.6938 -0.2029  0.1878
  260MOL0     H35067   7.739   4.328   6.002 -2.4890  2.4349 -1.8309
  260MOL0     H35068   7.900   4.368   6.182 -1.0249  0.1335  0.2771
  260MOL0     H35069   7.985   4.496   6.077  0.3311 -0.4736 -1.2294
  260MOL0     H35070   7.703   4.511   6.175 -0.0351 -0.4618 -3.0786
  260MOL0     H35071   7.781   4.633   6.075 -1.6304  0.5138 -0.0371
  260MOL0     H35072   7.959   4.624   6.290 -0.0380  0.1887 -0.1057
  260MOL0     H35073   7.811   4.592   6.363  2.0105 -1.0322  1.1231
  260MOL0     H35074   7.872   4.844   6.196  1.6290  0.6784  0.8644
  260MOL0     H35075   7.719   4.819   6.273  1.2182  2.8681 -1.8049
  260MOL0     H35076   7.978   4.795   6.437 -0.5014 -0.5180  0.0754
  260MOL0     H35077   7.828   4.806   6.502  0.7923 -2.2385  0.1479
  260MOL0     H35078   7.967   5.019   6.348  0.9818 -1.0067  1.0931
  260MOL0     H35079   7.799   5.050   6.429  1.3869  2.3687  0.9778
  260MOL0     H35080   8.046   4.020   5.943  1.3234 -0.7837  2.6933
  260MOL0     H35081   8.219   3.888   5.835 -2.8692  0.2227  0.2000
  260MOL0     H35082   8.483   3.734   5.687 -1.9498 -0.3166 -0.3925
  260MOL0     H35083   8.570   3.521   5.570  2.4601  0.2078  0.0411
  260MOL0     H35084   9.872   3.396   5.757 -0.9973 -0.7930 -0.6430
  260MOL0     H35085  10.072   3.470   5.914 -0.3443  0.0918  1.2835
  260MOL0     H35086  10.339   3.527   6.008  0.4796  2.1130 -0.7075
  260MOL0     H35087  10.528   3.668   6.075  1.5161  0.0034  1.6752
  260MOL0     H35088  10.773   3.744   6.094 -1.0049 -0.1045  0.0369
  260MOL0     H35089  10.860   3.742   6.242  0.5260 -1.4819 -1.8208
  260MOL0     H35090  10.610   3.792   6.359  3.0790  0.4736  0.1792
  260MOL0     H35091  10.586   3.860   6.199  1.4101  2.0853 -0.4271
  260MOL0     H35092  10.803   3.950   6.387 -2.2464 -1.4652  1.9699
  260MOL0     H35093  10.663   4.028   6.364  4.2742  2.4350  1.8169
  260MOL0     H35094  10.848   3.970   6.131  1.0136  0.1762  1.3694
  260MOL0     H35095  10.701   4.063   6.114 -0.9115 -1.1873  2.1478
  260MOL0     H35096  10.994   4.299   6.328  0.4111  0.0145 -1.0132
  260MOL0     H35097  10.677   3.354   6.319  1.4097 -1.6795 -2.2451
  260MOL0     H35098  10.478   3.101   6.221 -0.6315 -2.8130  2.5530
  260MOL0     H35099  10.582   3.158   6.342 -0.5170 -1.1729 -0.3367
  260MOL0     H35100  10.397   3.158   6.357 -0.9341 -1.8958 -2.2779
  261MOL0     O35101   5.517   9.734   7.846  0.2544 -0.1388  0.2131
  261MOL0     C35102   5.541   9.631   7.901 -0.3234  0.2362  0.6610
  261MOL0     O35103   5.569   9.514   7.830  0.9721  0.5283  0.4811
  261MOL0     C35104   5.575   9.503   7.693 -0.2196 -0.7965  0.7026
  261MOL0     C35105   5.623   9.606   7.607 -0.3278 -0.6323  0.1792
  261MOL0     C35106   5.609   9.600   7.475  0.1458 -0.3038  0.8870
  261MOL0     C35107   5.548   9.493   7.410  0.4065 -0.2052 -0.3295
  261MOL0     O35108   5.531   9.489   7.266 -0.3790 -0.3378  0.0714
  261MOL0     C35109   5.585   9.596   7.185 -0.2086  0.0971 -0.1955
  261MOL0     C35110   5.558   9.578   7.033  0.3685 -0.8036 -0.4970
  261MOL0     C35111   5.596   9.441   6.977  0.3566  0.3389 -0.3024
  261MOL0     C35112   5.594   9.447   6.823  1.0994  1.1138 -0.3232
  261MOL0     C35113   5.609   9.311   6.744  0.1989 -0.9678  0.5413
  261MOL0     C35114   5.576   9.319   6.593 -0.1590  0.5283 -0.7335
  261MOL0     C35115   5.691   9.375   6.517  0.7629  0.7522 -0.5572
  261MOL0     C35116   5.790   9.268   6.474  0.0878  0.5051  0.4892
  261MOL0     N35117   5.723   9.184   6.370  0.1011 -0.1367  0.6489
  261MOL0     C35118   5.662   9.221   6.252 -0.7369 -0.6216 -0.0147
  261MOL0     C35119   5.612   9.109   6.209  1.1320  0.0244  0.8467
  261MOL0     C35120   5.542   9.090   6.074  0.6183 -0.1309  0.0158
  261MOL0     C35121   5.572   8.959   6.005 -0.1712  0.5600  0.1486
  261MOL0     C35122   5.700   8.960   5.920  0.3373  0.3247  0.4657
  261MOL0     C35123   5.744   8.820   5.865  0.2681  0.0084 -0.1555
  261MOL0     O35124   5.867   8.817   5.790  0.2203 -1.2568 -0.2033
  261MOL0     C35125   5.863   8.867   5.660 -0.5482  1.1293  0.0032
  261MOL0     C35126   5.818   8.781   5.551 -1.5780  0.3538 -0.1780
  261MOL0     C35127   5.822   8.840   5.419  0.3287  0.0229  0.4399
  261MOL0     C35128   5.860   8.974   5.397  0.9636  0.6332  0.4217
  261MOL0     C35129   5.855   9.037   5.265 -0.9274 -0.5544 -0.3589
  261MOL0     O35130   5.881   9.172   5.274 -0.0735  0.6222 -0.0345
  261MOL0     C35131   5.856   9.261   5.168 -0.1204  0.5300 -0.4096
  261MOL0     C35132   5.761   9.236   5.058 -0.6401 -0.7818  1.6268
  261MOL0     C35133   5.753   9.334   4.956 -0.0081  0.9959  0.9205
  261MOL0     C35134   5.855   9.430   4.949 -0.0104  0.9777  0.7680
  261MOL0     O35135   5.870   9.524   4.845 -0.3492  0.4526  0.7863
  261MOL0     C35136   5.761   9.553   4.749  0.3118  0.0348 -0.3543
  261MOL0     C35137   5.815   9.677   4.676  0.0689  0.0082 -0.1738
  261MOL0     C35138   5.855   9.779   4.784  0.5589 -0.0887 -0.4012
  261MOL0     C35139   5.872   9.924   4.736 -0.7468 -0.4826  0.5831
  261MOL0     C35140   6.000   9.983   4.794  0.3381  0.1277  0.5199
  261MOL0     C35141   6.055  10.104   4.730 -0.0825 -0.4546 -0.1206
  261MOL0     C35142   6.008  10.238   4.787  0.2355  0.0720 -0.7694
  261MOL0     C35143   6.072  10.371   4.740  0.1667  0.3836  1.1274
  261MOL0    Cl35144   6.049  10.390   4.567  0.2826  0.3815 -0.1676
  261MOL0     C35145   5.952   9.455   5.060  0.1367  0.4239  0.3281
  261MOL0     C35146   5.943   9.368   5.166  0.9221 -0.6068 -0.1701
  261MOL0     O35147   5.845   8.974   5.166  0.4126 -0.0694  0.2531
  261MOL0     C35148   5.911   9.047   5.503  0.2306 -0.1225 -0.2923
  261MOL0     C35149   5.911   8.989   5.632  0.4323 -0.0727 -0.5624
  261MOL0     N35150   5.624   9.006   6.301 -0.4126 -0.0436 -0.2429
  261MOL0     N35151   5.698   9.053   6.394  0.8190 -0.0396 -0.2121
  261MOL0     C35152   5.502   9.390   7.489  0.5910 -0.7489 -0.0364
  261MOL0     C35153   5.512   9.395   7.627 -0.5237  0.9018 -0.3512
  261MOL0     C35154   5.552   9.645   8.047 -0.1626 -0.1892 -0.0460
  261MOL0     C35155   5.520   9.773   8.107 -0.2709  0.4139 -0.0157
  261MOL0     C35156   5.519   9.790   8.246 -1.0810  0.1126  0.1673
  261MOL0     C35157   5.539   9.674   8.324 -0.6704  0.9294  0.0117
  261MOL0     O35158   5.525   9.699   8.459 -0.2851  0.6052  0.1042
  261MOL0     C35159   5.589   9.607   8.547 -0.0861 -0.3431 -0.2240
  261MOL0     C35160   5.558   9.646   8.681 -0.0357 -0.3346 -0.6370
  261MOL0     C35161   5.636   9.564   8.786 -0.6353 -0.0779  0.0524
  261MOL0     C35162   5.781   9.612   8.809  0.0082  0.1579  0.2450
  261MOL0     C35163   5.848   9.530   8.910 -0.4437  0.4128  0.0768
  261MOL0     C35164   5.900   9.464   9.001  1.0481  0.1281  0.0316
  261MOL0     C35165   5.560   9.546   8.268  0.4855 -0.4813 -0.1428
  261MOL0     C35166   5.567   9.530   8.136  0.1257 -0.3425  0.1289
  261MOL0     C35167   5.572   9.392   8.077  0.3847  0.1219  0.8308
  261MOL0     H35168   5.660   9.702   7.641 -1.1717 -0.4436  0.5967
  261MOL0     H35169   5.645   9.680   7.411  0.6068 -2.3422 -1.6036
  261MOL0     H35170   5.549   9.695   7.215  3.8120  2.4368 -2.3031
  261MOL0     H35171   5.693   9.593   7.198 -0.3557 -0.0604  1.1159
  261MOL0     H35172   5.619   9.659   6.993  0.2153 -0.3910  0.0873
  261MOL0     H35173   5.457   9.611   7.009  0.4691 -0.3849 -0.3436
  261MOL0     H35174   5.528   9.361   7.006  0.6932  0.2156  0.1483
  261MOL0     H35175   5.689   9.399   7.014 -0.6492 -0.5365  1.3269
  261MOL0     H35176   5.506   9.502   6.789  0.9163  1.5487  0.7966
  261MOL0     H35177   5.673   9.516   6.794 -0.1171  2.3953 -0.6734
  261MOL0     H35178   5.711   9.271   6.750 -0.2923 -2.6626 -1.3133
  261MOL0     H35179   5.543   9.232   6.781  1.4994 -2.8332 -0.8881
  261MOL0     H35180   5.553   9.221   6.552  5.3828 -0.2930 -2.7370
  261MOL0     H35181   5.484   9.377   6.582  0.5012  1.7140 -0.2368
  261MOL0     H35182   5.747   9.458   6.562  2.3172 -0.4901 -0.1390
  261MOL0     H35183   5.644   9.423   6.431  3.6594  2.1471 -1.4879
  261MOL0     H35184   5.883   9.313   6.436 -0.3009  1.0374  0.1465
  261MOL0     H35185   5.808   9.189   6.547 -0.4011 -0.1883 -0.1294
  261MOL0     H35186   5.669   9.322   6.214  0.7211  0.1727  2.1976
  261MOL0     H35187   5.436   9.093   6.096 -0.0415 -0.9795 -2.6322
  261MOL0     H35188   5.567   9.171   6.004  2.6354  0.1470  0.9813
  261MOL0     H35189   5.595   8.891   6.088 -0.9772  0.5584  0.3843
  261MOL0     H35190   5.491   8.911   5.948  1.2405  0.0197 -1.5076
  261MOL0     H35191   5.785   8.985   5.985  1.8703  0.2385 -1.4074
  261MOL0     H35192   5.688   9.031   5.838 -2.7884  0.0802  0.6047
  261MOL0     H35193   5.654   8.787   5.812 -1.0663  1.9072  0.8073
  261MOL0     H35194   5.757   8.775   5.963  0.0602 -0.4567 -0.3367
  261MOL0     H35195   5.782   8.682   5.576 -1.1269  0.3256  0.3649
  261MOL0     H35196   5.791   8.792   5.327  2.5177 -2.8244  1.0440
  261MOL0     H35197   5.681   9.164   5.073 -1.0038 -1.1520 -1.4848
  261MOL0     H35198   5.671   9.323   4.886 -0.3893 -2.7345  1.7706
  261MOL0     H35199   5.752   9.483   4.665  2.1501 -0.0480 -0.5218
  261MOL0     H35200   5.662   9.566   4.795  0.3128 -1.5377  0.1600
  261MOL0     H35201   5.898   9.648   4.611  0.3060 -0.0169  0.1389
  261MOL0     H35202   5.737   9.722   4.614 -0.1274  2.3874  1.6264
  261MOL0     H35203   5.773   9.788   4.855 -1.2053 -0.6801 -2.2765
  261MOL0     H35204   5.943   9.749   4.841  0.0343 -1.5407 -0.3080
  261MOL0     H35205   5.789   9.993   4.756 -1.6349 -1.3531  0.0045
  261MOL0     H35206   5.880   9.903   4.629 -0.5054 -0.1654  0.5393
  261MOL0     H35207   6.074   9.904   4.780 -0.6249 -0.9274  1.1720
  261MOL0     H35208   5.985   9.992   4.902 -0.0212 -0.4847  0.5283
  261MOL0     H35209   6.162  10.090   4.751  0.3127 -0.3953 -1.9197
  261MOL0     H35210   6.039  10.103   4.622  0.3123 -2.0631 -0.1854
  261MOL0     H35211   6.003  10.238   4.896  0.7282 -1.7008 -0.7110
  261MOL0     H35212   5.904  10.244   4.752 -0.2153 -3.2275 -0.2630
  261MOL0     H35213   6.022  10.454   4.790 -2.4569  0.1630 -0.8922
  261MOL0     H35214   6.179  10.375   4.763  1.7243  1.0569 -4.6056
  261MOL0     H35215   6.025   9.535   5.050 -1.4161  1.7603 -0.8135
  261MOL0     H35216   5.998   9.387   5.258 -1.8112  0.2209  1.4119
  261MOL0     H35217   5.954   9.146   5.494  3.0180 -0.7407  3.5064
  261MOL0     H35218   5.934   9.051   5.718  1.3054 -1.5669  0.3246
  261MOL0     H35219   5.443   9.311   7.444 -1.2566  0.7016 -0.2830
  261MOL0     H35220   5.475   9.311   7.684  2.3490 -0.2301  0.0573
  261MOL0     H35221   5.501   9.861   8.047 -1.5226 -0.6903 -1.3161
  261MOL0     H35222   5.514   9.890   8.288 -1.3662 -0.5605  1.8060
  261MOL0     H35223   5.695   9.607   8.522 -0.5124  0.1315 -2.1751
  261MOL0     H35224   5.556   9.503   8.535  1.2141 -0.7243 -0.7190
  261MOL0     H35225   5.453   9.638   8.710 -0.9586  0.8474 -3.3417
  261MOL0     H35226   5.589   9.750   8.694  0.0919 -0.5852  1.5648
  261MOL0     H35227   5.631   9.458   8.761  2.2557  0.1651 -2.0744
  261MOL0     H35228   5.584   9.579   8.881 -0.1909 -1.3288  0.5110
  261MOL0     H35229   5.829   9.611   8.711 -0.5073  2.5901 -0.0966
  261MOL0     H35230   5.772   9.708   8.860 -0.5889  1.0816 -1.5427
  261MOL0     H35231   5.951   9.404   9.074 -0.5970 -1.7552 -0.2809
  261MOL0     H35232   5.562   9.466   8.341  0.6526  0.6401  1.1127
  261MOL0     H35233   5.660   9.369   8.015  0.3517  1.3368  0.2983
  261MOL0     H35234   5.582   9.322   8.160  2.0588 -2.2709 -1.2513
  261MOL0     H35235   5.473   9.375   8.035  1.3360  0.0597 -1.5588
  262MOL0     O35236  10.632   5.094   2.150 -0.3896  0.2813 -0.1424
  262MOL0     C35237  10.700   5.080   2.255  0.4588  0.5372  1.4089
  262MOL0     O35238  10.749   4.958   2.294 -0.9969 -0.2060  0.5826
  262MOL0     C35239  10.732   4.847   2.216  0.0634 -0.3612 -0.5642
  262MOL0     C35240  10.762   4.843   2.082  0.2179  0.1386 -0.3918
  262MOL0     C35241  10.738   4.728   2.010 -0.9189 -0.1366 -0.3592
  262MOL0     C35242  10.660   4.627   2.071  0.0628 -0.7443 -0.4135
  262MOL0     O35243  10.620   4.524   1.996 -0.2139  1.4859  0.2306
  262MOL0     C35244  10.495   4.540   1.931  0.3004 -0.0146  0.4470
  262MOL0     C35245  10.450   4.399   1.904  0.2284 -0.5343 -0.8708
  262MOL0     C35246  10.511   4.347   1.776 -0.5026 -0.4293 -0.3142
  262MOL0     C35247  10.478   4.194   1.758 -0.6926  0.0433 -0.5200
  262MOL0     C35248  10.481   4.151   1.618  0.3457  0.0710  1.1916
  262MOL0     C35249  10.423   4.011   1.599  0.3825  0.3985 -0.2327
  262MOL0     C35250  10.398   3.955   1.453 -1.4816  0.2524 -0.0827
  262MOL0     C35251  10.340   4.066   1.369  0.5640 -0.8993  0.6177
  262MOL0     N35252  10.288   4.032   1.231 -0.1618 -0.1643 -0.0810
  262MOL0     C35253  10.159   4.042   1.190 -0.1245 -0.0800  0.5041
  262MOL0     C35254  10.154   3.979   1.069  0.4999 -0.7078  0.1081
  262MOL0     C35255  10.018   3.969   0.989 -0.5975 -0.5223  0.3653
  262MOL0     C35256  10.035   3.966   0.830 -0.6471  0.4902 -0.8397
  262MOL0     C35257  10.124   4.077   0.796 -0.1567 -0.1617  0.4079
  262MOL0     C35258  10.090   4.142   0.657  0.8794 -0.4698 -1.3214
  262MOL0     O35259   9.976   4.234   0.680 -0.0190  0.4158  0.4581
  262MOL0     C35260   9.931   4.307   0.572 -0.6636  0.5257  0.1950
  262MOL0     C35261   9.828   4.394   0.584 -0.3146 -0.0207 -1.2101
  262MOL0     C35262   9.800   4.480   0.477 -0.0694 -0.6609 -0.6031
  262MOL0     C35263   9.859   4.464   0.351 -0.1139 -0.3148 -0.0133
  262MOL0     C35264   9.816   4.562   0.247  0.4269  0.0359  0.6106
  262MOL0     O35265   9.916   4.573   0.148 -0.6168  0.1255  0.1583
  262MOL0     C35266   9.868   4.599   0.023 -0.2732  0.5339  0.2080
  262MOL0     C35267   9.797   4.716  -0.011  0.1270 -0.2045 -0.0552
  262MOL0     C35268   9.763   4.738  -0.148  0.6300  0.3533 -0.5789
  262MOL0     C35269   9.794   4.646  -0.243  0.1405  0.0304  0.4248
  262MOL0     O35270   9.762   4.665  -0.378  0.0621 -0.2094 -0.4028
  262MOL0     C35271   9.619   4.694  -0.414 -0.5255  0.4482 -0.0481
  262MOL0     C35272   9.605   4.772  -0.541  0.0024 -0.5115 -0.4267
  262MOL0     C35273   9.714   4.875  -0.556  0.6888  0.3277 -0.5409
  262MOL0     C35274   9.652   5.010  -0.614 -0.9444  0.6903 -0.9587
  262MOL0     C35275   9.743   5.124  -0.558  0.4735 -0.5217  1.0722
  262MOL0     C35276   9.880   5.157  -0.618 -0.1993  0.7176  0.2980
  262MOL0     C35277   9.941   5.278  -0.538  0.7610  0.0826  0.2585
  262MOL0     C35278  10.084   5.301  -0.586  0.3308 -0.1939 -0.7571
  262MOL0    Cl35279  10.062   5.370  -0.760 -0.6317 -0.1193  0.1491
  262MOL0     C35280   9.859   4.524  -0.205 -0.0021  0.5321 -0.5010
  262MOL0     C35281   9.892   4.494  -0.071 -0.1783  0.3225 -0.1336
  262MOL0     O35282   9.701   4.617   0.245  0.5660  0.1694  0.3283
  262MOL0     C35283   9.956   4.365   0.338 -1.1805 -0.0112 -1.1992
  262MOL0     C35284   9.996   4.297   0.448 -1.2993 -0.5393 -0.2419
  262MOL0     N35285  10.282   3.927   1.042  0.7989  0.2476  0.0382
  262MOL0     N35286  10.361   3.961   1.137 -0.6806 -0.4053  0.1578
  262MOL0     C35287  10.636   4.625   2.210 -0.0060  0.0525  0.6480
  262MOL0     C35288  10.680   4.739   2.283  0.3056 -0.2320 -0.0692
  262MOL0     C35289  10.735   5.205   2.324 -0.0967  1.0397 -0.5547
  262MOL0     C35290  10.718   5.330   2.245  0.3370 -0.7002 -0.3218
  262MOL0     C35291  10.760   5.453   2.297 -0.5354 -0.0446 -0.5345
  262MOL0     C35292  10.821   5.464   2.419  0.4253  0.1692 -0.2121
  262MOL0     O35293  10.859   5.588   2.472 -0.1529 -0.6097  0.0160
  262MOL0     C35294  10.970   5.585   2.553 -0.1750  1.0572  0.4810
  262MOL0     C35295  11.053   5.713   2.548 -0.0884  0.2332 -0.7602
  262MOL0     C35296  11.028   5.798   2.673 -1.1288 -0.1074  0.2295
  262MOL0     C35297  11.091   5.942   2.671  0.6190  0.7919 -0.6940
  262MOL0     C35298  11.237   5.933   2.646 -0.6102  0.3522  0.9040
  262MOL0     C35299  11.360   5.926   2.634  0.7065 -0.2729  0.0441
  262MOL0     C35300  10.839   5.348   2.493 -0.3232  0.4117 -0.3730
  262MOL0     C35301  10.794   5.218   2.453  0.4382 -0.2752 -0.2409
  262MOL0     C35302  10.802   5.116   2.564 -0.0426 -0.2875  0.1489
  262MOL0     H35303  10.816   4.923   2.032 -1.9299  1.2845 -1.0069
  262MOL0     H35304  10.783   4.706   1.914  1.0076  0.5743  0.3343
  262MOL0     H35305  10.432   4.602   1.996  1.4411  1.2748  0.3573
  262MOL0     H35306  10.495   4.595   1.836 -4.8908 -1.2176 -0.5986
  262MOL0     H35307  10.340   4.404   1.904  0.1806  4.5983 -3.2004
  262MOL0     H35308  10.476   4.333   1.987 -0.5282 -0.4556 -0.5595
  262MOL0     H35309  10.618   4.360   1.757 -0.8174  0.1539 -1.7966
  262MOL0     H35310  10.464   4.408   1.699  1.8151 -0.5383 -1.9281
  262MOL0     H35311  10.562   4.148   1.811  0.3233  0.4348 -1.7587
  262MOL0     H35312  10.384   4.173   1.811 -0.7569  3.7163  1.1952
  262MOL0     H35313  10.416   4.224   1.570  0.6447  0.6780  1.6986
  262MOL0     H35314  10.582   4.155   1.575  0.0045  0.4381  0.4010
  262MOL0     H35315  10.482   3.943   1.661  1.6539  3.5176  2.2121
  262MOL0     H35316  10.325   4.011   1.648  0.3089 -0.2001 -0.3647
  262MOL0     H35317  10.336   3.865   1.452 -4.6990  2.3294 -1.0192
  262MOL0     H35318  10.501   3.940   1.420 -0.0786  1.8702  3.0448
  262MOL0     H35319  10.251   4.102   1.422 -0.5811 -1.2286 -1.0028
  262MOL0     H35320  10.417   4.144   1.367 -0.4704  0.2112  2.1064
  262MOL0     H35321  10.077   4.089   1.243 -0.4802  1.2019 -1.1048
  262MOL0     H35322   9.976   3.873   1.021  0.7801 -1.0618  0.6427
  262MOL0     H35323   9.956   4.055   1.014 -0.8684 -0.9560  1.2142
  262MOL0     H35324  10.084   3.877   0.788 -0.9724 -0.0674 -0.0631
  262MOL0     H35325   9.942   3.978   0.775 -1.2280 -0.2128 -0.0394
  262MOL0     H35326  10.229   4.047   0.784  0.2828  0.9736  1.2468
  262MOL0     H35327  10.108   4.159   0.866  0.6233  1.5882 -1.3683
  262MOL0     H35328  10.071   4.077   0.571 -0.9541 -2.9413  0.7799
  262MOL0     H35329  10.179   4.204   0.643 -0.8940  2.5417 -0.3392
  262MOL0     H35330   9.770   4.410   0.675  0.2549  2.1759 -1.1748
  262MOL0     H35331   9.728   4.561   0.482  0.0089 -0.6332  0.2091
  262MOL0     H35332   9.769   4.780   0.071 -1.3425 -2.0269  0.9330
  262MOL0     H35333   9.699   4.820  -0.181  1.1066 -0.4264 -3.6949
  262MOL0     H35334   9.580   4.593  -0.430 -1.4404  0.3668  2.2490
  262MOL0     H35335   9.556   4.736  -0.334 -3.5629  0.2176 -2.1545
  262MOL0     H35336   9.607   4.704  -0.627 -2.1931 -0.0056 -0.9339
  262MOL0     H35337   9.508   4.820  -0.549  1.0141  1.3946 -2.1961
  262MOL0     H35338   9.772   4.896  -0.466 -0.3622 -1.5053  0.6218
  262MOL0     H35339   9.776   4.846  -0.641  2.3420  3.4141 -0.5232
  262MOL0     H35340   9.548   5.016  -0.579 -2.0522 -0.2901 -3.7429
  262MOL0     H35341   9.649   5.008  -0.724 -0.8783 -2.0288 -0.9871
  262MOL0     H35342   9.759   5.114  -0.451  0.9003  1.6861  1.2578
  262MOL0     H35343   9.686   5.215  -0.576  1.1454  0.0783  1.9299
  262MOL0     H35344   9.937   5.063  -0.611 -0.6626  0.4872  1.1388
  262MOL0     H35345   9.874   5.184  -0.723 -0.1836 -0.9241 -0.1576
  262MOL0     H35346   9.939   5.246  -0.434 -0.1016  1.0012  0.5452
  262MOL0     H35347   9.872   5.361  -0.555  2.4746  1.3898 -0.6204
  262MOL0     H35348  10.134   5.376  -0.525  0.1486 -0.6391 -0.0515
  262MOL0     H35349  10.147   5.212  -0.575 -0.8678 -1.1674 -1.3856
  262MOL0     H35350   9.865   4.452  -0.286 -4.6054 -0.1567 -0.5088
  262MOL0     H35351   9.949   4.404  -0.049 -1.7278 -0.0225  3.0094
  262MOL0     H35352  10.019   4.361   0.249  3.1661 -1.2298  1.6094
  262MOL0     H35353  10.082   4.233   0.434 -1.2744 -0.7636  0.8667
  262MOL0     H35354  10.586   4.546   2.266 -1.7089  2.1931  2.3253
  262MOL0     H35355  10.660   4.744   2.390 -1.2935  1.0526 -0.3870
  262MOL0     H35356  10.675   5.345   2.146  2.5693  1.3178 -1.0946
  262MOL0     H35357  10.744   5.547   2.245 -0.0791  0.6850  0.6224
  262MOL0     H35358  11.039   5.511   2.512 -0.1785  1.8636 -1.0255
  262MOL0     H35359  10.947   5.564   2.658  0.6607  2.6728  1.0246
  262MOL0     H35360  11.020   5.767   2.459 -1.2484  0.3550 -0.2697
  262MOL0     H35361  11.160   5.689   2.549 -0.3208 -0.8301 -0.0863
  262MOL0     H35362  11.070   5.753   2.763 -1.8665 -1.1729  0.0565
  262MOL0     H35363  10.919   5.807   2.684 -1.8122 -3.4387 -2.2176
  262MOL0     H35364  11.049   6.006   2.593  0.3953  1.1889 -0.2588
  262MOL0     H35365  11.071   5.987   2.769 -0.3777 -0.9872 -0.0376
  262MOL0     H35366  11.467   5.922   2.644  0.9481 -0.4832 -2.1549
  262MOL0     H35367  10.867   5.365   2.597 -2.3641 -0.1674  0.3205
  262MOL0     H35368  10.754   5.156   2.655 -2.0694  1.9573 -1.7596
  262MOL0     H35369  10.752   5.022   2.542 -0.9002  0.0111  0.7827
  262MOL0     H35370  10.906   5.085   2.574  0.5308  1.1447 -1.0555
  263MOL0     O35371   4.595   8.506  11.174 -0.1392 -0.4180 -0.0948
  263MOL0     C35372   4.680   8.596  11.182 -0.5353  0.5548 -0.2552
  263MOL0     O35373   4.750   8.635  11.075 -0.2404  0.6978 -0.3961
  263MOL0     C35374   4.765   8.545  10.970  0.2972  0.2288 -0.5947
  263MOL0     C35375   4.813   8.415  10.982 -0.2426 -0.3855 -0.4143
  263MOL0     C35376   4.835   8.340  10.859 -0.4432  0.2410 -0.8032
  263MOL0     C35377   4.800   8.389  10.736 -1.6155 -0.4021  0.1989
  263MOL0     O35378   4.802   8.318  10.616 -0.7262 -0.4463 -0.6887
  263MOL0     C35379   4.713   8.205  10.600  0.1114  0.5605 -1.2258
  263MOL0     C35380   4.763   8.115  10.491  0.4103  0.9039 -0.3710
  263MOL0     C35381   4.910   8.095  10.496 -0.3772  0.0339 -0.3779
  263MOL0     C35382   4.963   8.028  10.621  0.6238  0.3677  0.4592
  263MOL0     C35383   5.109   8.022  10.632 -0.2703 -0.3275  0.0424
  263MOL0     C35384   5.173   7.944  10.751  0.8541  0.0900  0.5487
  263MOL0     C35385   5.326   7.928  10.746 -0.1240  0.1047 -0.4905
  263MOL0     C35386   5.383   8.014  10.864  0.2234  0.5007 -0.0827
  263MOL0     N35387   5.522   7.974  10.909  0.1281 -0.0916  0.3458
  263MOL0     C35388   5.644   8.013  10.855  0.6964  0.0048  0.1638
  263MOL0     C35389   5.736   7.962  10.929 -0.2591 -1.0176 -0.3149
  263MOL0     C35390   5.890   7.969  10.904  0.2539 -0.2064  0.1484
  263MOL0     C35391   5.962   8.104  10.873 -0.6324  0.3401 -0.3293
  263MOL0     C35392   6.101   8.080  10.815  0.2116 -0.0146 -0.4100
  263MOL0     C35393   6.171   8.211  10.816 -0.3135 -0.3653  0.0167
  263MOL0     O35394   6.300   8.177  10.773  1.0323 -0.3476 -0.0798
  263MOL0     C35395   6.395   8.275  10.760  0.6497  0.3810 -0.9126
  263MOL0     C35396   6.393   8.407  10.816 -0.2328  0.3996  0.3897
  263MOL0     C35397   6.492   8.491  10.777 -1.0796  0.1071 -0.6954
  263MOL0     C35398   6.588   8.458  10.678  0.4908  0.5826 -0.5176
  263MOL0     C35399   6.680   8.566  10.635  0.3954 -0.5937 -0.3160
  263MOL0     O35400   6.733   8.563  10.505 -0.2016 -0.4363 -0.3245
  263MOL0     C35401   6.830   8.654  10.478  0.6356  0.0672 -0.1013
  263MOL0     C35402   6.967   8.621  10.490  0.6542 -0.1703 -1.3537
  263MOL0     C35403   7.063   8.720  10.481 -0.7398 -0.3925  0.2394
  263MOL0     C35404   7.025   8.852  10.448  0.0688  0.0263  0.8445
  263MOL0     O35405   7.117   8.948  10.432  0.4560 -0.5977 -0.7521
  263MOL0     C35406   7.109   9.055  10.526  0.8606 -0.2723 -0.0385
  263MOL0     C35407   7.237   9.147  10.526 -0.1157  0.1859  0.0353
  263MOL0     C35408   7.220   9.277  10.608 -0.0410  0.0973 -0.0389
  263MOL0     C35409   7.337   9.376  10.598  0.5912  0.2213  0.3880
  263MOL0     C35410   7.320   9.499  10.684  0.4519  0.3183 -0.2195
  263MOL0     C35411   7.441   9.599  10.696 -0.2013 -0.5691  0.9256
  263MOL0     C35412   7.577   9.540  10.739  0.1038 -0.9353  0.0305
  263MOL0     C35413   7.691   9.625  10.691  0.9887  0.1330 -0.8448
  263MOL0    Cl35414   7.676   9.775  10.788  0.1228 -0.0614  0.2580
  263MOL0     C35415   6.891   8.883  10.428  0.5791 -0.6970  0.5193
  263MOL0     C35416   6.796   8.786  10.449  0.6570  0.2358  0.0323
  263MOL0     O35417   6.708   8.643  10.727 -0.7497 -0.3437  0.2339
  263MOL0     C35418   6.573   8.332  10.613 -0.6150 -0.2562  0.1057
  263MOL0     C35419   6.477   8.245  10.654  0.0622 -0.2996  0.6425
  263MOL0     N35420   5.679   7.889  11.034 -0.2959 -0.6042  0.1585
  263MOL0     N35421   5.557   7.897  11.015  1.0628  0.1972  0.3259
  263MOL0     C35422   4.755   8.516  10.731  0.7480 -1.0302  0.1666
  263MOL0     C35423   4.737   8.593  10.845 -0.2697  0.1152 -0.9395
  263MOL0     C35424   4.705   8.653  11.322  0.6670 -0.3928 -0.2537
  263MOL0     C35425   4.607   8.645  11.426  0.2646  0.0122  0.1064
  263MOL0     C35426   4.630   8.705  11.549 -0.0804  0.1032 -0.7565
  263MOL0     C35427   4.751   8.764  11.582 -0.8097 -0.2626 -1.0427
  263MOL0     O35428   4.761   8.817  11.713  0.5621 -0.1803 -0.2580
  263MOL0     C35429   4.856   8.916  11.755 -0.3726  0.4008  0.4984
  263MOL0     C35430   4.978   8.839  11.821  0.3068 -0.6440 -0.4125
  263MOL0     C35431   5.095   8.937  11.870  1.5632 -0.1168 -0.5061
  263MOL0     C35432   5.218   8.868  11.937 -0.3856  0.2181  0.3031
  263MOL0     C35433   5.322   8.968  11.966 -0.0421 -0.3783  0.1300
  263MOL0     C35434   5.432   9.028  11.986  0.1403 -0.2706 -0.2007
  263MOL0     C35435   4.846   8.777  11.485  0.1049  0.9455  0.9821
  263MOL0     C35436   4.821   8.722  11.350 -0.1723 -0.8024 -1.5544
  263MOL0     C35437   4.934   8.752  11.248  0.0045  0.2041 -0.2407
  263MOL0     H35438   4.839   8.376  11.080  1.4671  0.4699 -0.4837
  263MOL0     H35439   4.874   8.240  10.873  3.3599  1.8797  2.2585
  263MOL0     H35440   4.704   8.137  10.685  1.3856 -1.1695 -2.3883
  263MOL0     H35441   4.615   8.240  10.567 -0.5215  1.4509  1.3908
  263MOL0     H35442   4.733   8.161  10.396  0.0642  1.6215  0.0753
  263MOL0     H35443   4.716   8.016  10.493  2.8199 -0.4609 -3.1426
  263MOL0     H35444   4.958   8.193  10.486 -2.5296  1.0323 -1.7118
  263MOL0     H35445   4.950   8.038  10.412  3.6481 -0.9866  1.9763
  263MOL0     H35446   4.912   8.063  10.711  1.2530 -1.0689  1.4241
  263MOL0     H35447   4.937   7.921  10.623 -2.7364  1.0291  3.3486
  263MOL0     H35448   5.145   7.983  10.537  0.0977 -2.1776  0.8898
  263MOL0     H35449   5.148   8.124  10.639 -5.5604  2.0792 -0.5620
  263MOL0     H35450   5.131   7.977  10.846  1.9747  0.8625  0.7973
  263MOL0     H35451   5.143   7.841  10.733  2.2317 -0.3120  0.4069
  263MOL0     H35452   5.384   7.939  10.654  0.7563  0.2834  0.0767
  263MOL0     H35453   5.353   7.825  10.771  0.2560  0.6671  1.5933
  263MOL0     H35454   5.370   8.119  10.836 -3.2410 -0.1784 -1.6028
  263MOL0     H35455   5.317   7.998  10.949  0.1836  0.0035 -0.2066
  263MOL0     H35456   5.653   8.072  10.765 -1.8338 -1.0555 -0.9027
  263MOL0     H35457   5.954   7.918  10.977  1.2357  1.7800  0.7512
  263MOL0     H35458   5.899   7.911  10.812  0.3387  1.3499 -0.8585
  263MOL0     H35459   5.903   8.162  10.801  1.2876  1.6517 -0.9147
  263MOL0     H35460   5.969   8.157  10.968  1.0343  0.6861 -0.6104
  263MOL0     H35461   6.094   8.033  10.717 -0.2409 -1.4658  0.2824
  263MOL0     H35462   6.160   8.011  10.877  0.8983  1.0480  0.1434
  263MOL0     H35463   6.170   8.256  10.915  2.1490 -1.1188  0.4427
  263MOL0     H35464   6.118   8.276  10.746  0.4893  1.9891  1.4803
  263MOL0     H35465   6.318   8.443  10.886 -1.1474  0.6606 -0.6827
  263MOL0     H35466   6.502   8.587  10.828  3.0350  1.2807 -3.1995
  263MOL0     H35467   6.996   8.518  10.505  1.8489  0.4536  1.0383
  263MOL0     H35468   7.168   8.694  10.495 -1.2709 -2.0657  1.4895
  263MOL0     H35469   7.028   9.121  10.493  0.9256 -0.9511 -1.6829
  263MOL0     H35470   7.108   9.002  10.621  2.9362 -2.9383 -1.3646
  263MOL0     H35471   7.327   9.088  10.550  2.5119  2.9779 -2.1315
  263MOL0     H35472   7.260   9.171  10.422  2.0061 -1.2609  0.1033
  263MOL0     H35473   7.126   9.329  10.587  0.6402  2.7699  2.7471
  263MOL0     H35474   7.203   9.240  10.710  1.5219 -3.0150 -0.7837
  263MOL0     H35475   7.354   9.428  10.503  0.3345 -1.7471 -0.7932
  263MOL0     H35476   7.425   9.317  10.626  1.4406  2.4870  2.8624
  263MOL0     H35477   7.273   9.472  10.779 -3.2085  0.0231 -1.9262
  263MOL0     H35478   7.238   9.551  10.633  0.8458 -0.6463 -1.9173
  263MOL0     H35479   7.453   9.643  10.596  2.0661 -0.9008  0.9989
  263MOL0     H35480   7.412   9.677  10.767 -1.4917  0.5396 -0.7347
  263MOL0     H35481   7.590   9.443  10.691 -1.3308 -0.0815 -2.2490
  263MOL0     H35482   7.565   9.529  10.847 -1.2520 -4.1396 -0.3239
  263MOL0     H35483   7.779   9.567  10.723 -0.9252 -2.0578  0.8356
  263MOL0     H35484   7.683   9.631  10.582 -2.3436  0.1386 -0.6946
  263MOL0     H35485   6.870   8.984  10.395  1.5784 -0.1235  1.5656
  263MOL0     H35486   6.689   8.806  10.444  0.2707 -0.8548  2.4223
  263MOL0     H35487   6.636   8.301  10.530  1.4967  1.7977  0.8670
  263MOL0     H35488   6.464   8.148  10.608 -0.8877  0.2119 -0.2278
  263MOL0     H35489   4.731   8.541  10.628 -0.4191 -4.2365 -0.4743
  263MOL0     H35490   4.699   8.695  10.849 -1.1225 -0.2284  0.2452
  263MOL0     H35491   4.513   8.593  11.415  0.1568  0.3701 -0.7421
  263MOL0     H35492   4.558   8.710  11.630  2.5008 -0.6174  1.7500
  263MOL0     H35493   4.812   8.989  11.823  0.6702  1.4680  0.0644
  263MOL0     H35494   4.891   8.972  11.667 -1.2940  0.2569  0.0272
  263MOL0     H35495   5.023   8.767  11.752  0.5418  0.9481 -1.9827
  263MOL0     H35496   4.936   8.804  11.916 -0.1009  0.5128 -0.1509
  263MOL0     H35497   5.035   9.002  11.934 -1.3166 -3.1785  0.2161
  263MOL0     H35498   5.127   8.981  11.775 -0.5599  2.1160 -0.2764
  263MOL0     H35499   5.181   8.821  12.028  1.5730  0.4350  1.2602
  263MOL0     H35500   5.257   8.799  11.861  0.2139 -1.7630  2.3166
  263MOL0     H35501   5.526   9.077  12.000  0.9404 -1.6347 -0.5805
  263MOL0     H35502   4.933   8.840  11.498 -1.6879  4.2813 -1.5204
  263MOL0     H35503   4.948   8.654  11.202 -3.0710 -0.5204  0.1276
  263MOL0     H35504   4.908   8.830  11.175  1.4134 -0.1764 -1.1863
  263MOL0     H35505   5.024   8.775  11.305 -0.1708 -0.9110  0.5024
  264MOL0     O35506   6.185   9.860   0.959  0.4929  0.4140  0.2940
  264MOL0     C35507   6.116   9.962   0.960  0.3857  1.4523 -0.0535
  264MOL0     O35508   6.004   9.975   0.882 -0.8611  1.4344 -0.5025
  264MOL0     C35509   5.990   9.899   0.770  0.4293  0.1811  0.0862
  264MOL0     C35510   5.859   9.878   0.714 -0.4887  0.7051 -0.7018
  264MOL0     C35511   5.840   9.812   0.594  0.5784  1.3593  0.0148
  264MOL0     C35512   5.948   9.769   0.521  0.0143 -0.4688  0.2355
  264MOL0     O35513   5.922   9.683   0.413 -0.2041 -0.6182 -0.0001
  264MOL0     C35514   6.022   9.657   0.306 -0.7687  0.8279 -0.6874
  264MOL0     C35515   5.928   9.582   0.201 -0.3142 -0.2519 -0.1086
  264MOL0     C35516   5.958   9.432   0.205  0.3381 -0.1379 -0.5645
  264MOL0     C35517   5.866   9.354   0.119  0.8524  0.7363 -0.8295
  264MOL0     C35518   5.894   9.207   0.117  0.6394  0.4552 -0.0909
  264MOL0     C35519   5.773   9.128   0.054  0.1543 -0.6353  0.3992
  264MOL0     C35520   5.743   9.141  -0.096 -0.3178 -0.5112  0.0703
  264MOL0     C35521   5.860   9.137  -0.197  1.2704  0.3468 -0.4398
  264MOL0     N35522   5.794   9.165  -0.316 -0.0928 -0.2003  0.0033
  264MOL0     C35523   5.776   9.287  -0.367 -0.4505  0.0518  0.3481
  264MOL0     C35524   5.739   9.265  -0.492  0.2612  0.5174  0.6572
  264MOL0     C35525   5.692   9.378  -0.583 -0.5949 -0.1895  0.0939
  264MOL0     C35526   5.654   9.340  -0.724  0.0329 -0.3083  0.3389
  264MOL0     C35527   5.501   9.347  -0.743  0.3279  0.6466  0.4009
  264MOL0     C35528   5.461   9.319  -0.879  0.6603  0.8667 -0.5365
  264MOL0     O35529   5.324   9.339  -0.910 -0.1049 -0.6665  0.0899
  264MOL0     C35530   5.267   9.277  -1.013  0.0449  0.9301  0.4973
  264MOL0     C35531   5.325   9.242  -1.134 -0.9635 -0.4865  0.0060
  264MOL0     C35532   5.259   9.172  -1.229 -0.2869 -0.6290  0.5528
  264MOL0     C35533   5.126   9.137  -1.215  0.1681 -0.5390 -0.4984
  264MOL0     C35534   5.056   9.045  -1.309 -0.3523 -0.1726  0.2828
  264MOL0     O35535   4.930   9.010  -1.293 -0.1151 -0.1088 -0.3900
  264MOL0     C35536   4.868   8.908  -1.359 -0.8256  0.3393 -0.1179
  264MOL0     C35537   4.889   8.875  -1.491  0.6218 -1.0845 -0.6790
  264MOL0     C35538   4.807   8.774  -1.553  0.3161 -0.1799  1.0095
  264MOL0     C35539   4.707   8.703  -1.490 -0.5133  0.7048 -0.3497
  264MOL0     O35540   4.633   8.606  -1.546 -0.7951 -0.0367 -0.3657
  264MOL0     C35541   4.499   8.587  -1.504 -0.6909  0.1475  0.6865
  264MOL0     C35542   4.398   8.580  -1.619  0.0700 -0.3487  0.0764
  264MOL0     C35543   4.258   8.621  -1.598  1.7273 -0.7810  0.2638
  264MOL0     C35544   4.174   8.496  -1.538  0.3428  0.1897  0.0158
  264MOL0     C35545   4.149   8.398  -1.655 -0.2883 -0.2728 -0.0236
  264MOL0     C35546   4.108   8.266  -1.598 -0.0350 -0.1553  1.0587
  264MOL0     C35547   4.234   8.180  -1.571  0.1258 -0.6588  0.2147
  264MOL0     C35548   4.226   8.075  -1.464  0.5021  0.8550  0.5112
  264MOL0    Cl35549   4.196   8.151  -1.306  0.6226  0.3006  0.0499
  264MOL0     C35550   4.697   8.723  -1.355  1.0437  0.3884  0.0300
  264MOL0     C35551   4.778   8.825  -1.293  0.1474 -0.0230 -0.2583
  264MOL0     O35552   5.123   9.020  -1.410  0.1679  0.1989 -0.6627
  264MOL0     C35553   5.067   9.180  -1.096  0.8252 -1.0155  0.0856
  264MOL0     C35554   5.129   9.258  -1.000 -0.2978  0.0289 -0.3192
  264MOL0     N35555   5.724   9.132  -0.519  0.3971  0.4151  0.2082
  264MOL0     N35556   5.755   9.074  -0.408 -0.2753 -0.7331 -0.6020
  264MOL0     C35557   6.075   9.800   0.565  0.4621  0.0137 -0.5836
  264MOL0     C35558   6.093   9.860   0.688 -0.0344 -1.3090 -0.8523
  264MOL0     C35559   6.169  10.065   1.044  0.2994  0.5675 -0.3767
  264MOL0     C35560   6.182  10.041   1.186  0.6403  0.2056  0.5446
  264MOL0     C35561   6.229  10.139   1.259 -0.6923 -0.0465  0.2194
  264MOL0     C35562   6.265  10.270   1.211 -0.6616  0.7855 -0.0225
  264MOL0     O35563   6.312  10.355   1.312  0.6491 -0.3922 -0.0642
  264MOL0     C35564   6.372  10.480   1.274  0.4233  0.9756 -0.5915
  264MOL0     C35565   6.348  10.596   1.363  0.4263  0.1250  0.3722
  264MOL0     C35566   6.466  10.635   1.459  0.7555 -0.5721 -0.6158
  264MOL0     C35567   6.451  10.782   1.510  0.4197 -0.6824 -0.9684
  264MOL0     C35568   6.323  10.814   1.571 -0.1823  0.2391 -0.2377
  264MOL0     C35569   6.231  10.863   1.629 -0.4393 -0.1301 -0.6005
  264MOL0     C35570   6.236  10.297   1.073 -0.6937  0.6674  0.3548
  264MOL0     C35571   6.189  10.195   0.995  0.2708  0.3491 -0.8814
  264MOL0     C35572   6.159  10.234   0.855 -0.0748  0.0217  0.3696
  264MOL0     H35573   5.773   9.903   0.775  0.1653  1.6227 -0.1172
  264MOL0     H35574   5.738   9.796   0.561  0.3885 -1.4313  1.6683
  264MOL0     H35575   6.062   9.750   0.265 -1.6006  0.8515 -1.4664
  264MOL0     H35576   6.107   9.596   0.340 -1.8346 -1.2275 -1.5232
  264MOL0     H35577   5.940   9.606   0.095 -0.4801 -4.6583 -1.3071
  264MOL0     H35578   5.822   9.607   0.215  0.1314  2.1567 -0.5884
  264MOL0     H35579   5.944   9.390   0.305  1.1036 -0.5654 -0.6300
  264MOL0     H35580   6.060   9.406   0.178  1.0165  1.8758 -0.0882
  264MOL0     H35581   5.761   9.362   0.150  0.0902 -1.1742 -2.6881
  264MOL0     H35582   5.866   9.387   0.015  1.0806 -2.9398 -2.1326
  264MOL0     H35583   5.989   9.200   0.062  0.3526  0.1299 -0.5580
  264MOL0     H35584   5.917   9.157   0.212  0.1166 -0.4359 -0.4210
  264MOL0     H35585   5.804   9.029   0.088  1.6916 -0.2273  0.2561
  264MOL0     H35586   5.682   9.161   0.105  0.5978  2.6282 -0.6677
  264MOL0     H35587   5.707   9.245  -0.104  3.3468  0.8310 -0.9997
  264MOL0     H35588   5.657   9.080  -0.127 -0.6205 -0.1424  0.1652
  264MOL0     H35589   5.937   9.208  -0.164  0.3376  1.5388 -0.7781
  264MOL0     H35590   5.895   9.034  -0.189 -2.2000 -0.8172  1.8627
  264MOL0     H35591   5.811   9.383  -0.332 -1.1074  1.2990 -2.1867
  264MOL0     H35592   5.610   9.427  -0.530  0.0028  1.2943 -0.3241
  264MOL0     H35593   5.776   9.447  -0.587  0.4074 -1.4124 -1.0085
  264MOL0     H35594   5.694   9.402  -0.805  0.2365 -1.6286 -0.6198
  264MOL0     H35595   5.679   9.238  -0.756 -2.4677 -1.0110  0.3706
  264MOL0     H35596   5.455   9.440  -0.708 -1.0902  0.1741 -0.1242
  264MOL0     H35597   5.457   9.275  -0.674  1.2938 -1.3170 -0.9275
  264MOL0     H35598   5.479   9.212  -0.893  0.0746  0.7685 -0.5808
  264MOL0     H35599   5.528   9.364  -0.953  0.0548 -0.7698 -2.1791
  264MOL0     H35600   5.429   9.258  -1.161 -1.1980  0.2072 -0.5365
  264MOL0     H35601   5.305   9.121  -1.313  0.9165  1.8023 -0.3379
  264MOL0     H35602   4.965   8.925  -1.551  0.8435 -1.1468 -0.4522
  264MOL0     H35603   4.826   8.757  -1.659 -1.5131  1.4620  0.3518
  264MOL0     H35604   4.505   8.501  -1.437  1.3804 -1.6676 -1.6060
  264MOL0     H35605   4.460   8.673  -1.449 -0.2940  0.1804  0.9177
  264MOL0     H35606   4.424   8.659  -1.690  0.3273 -0.3484  0.1701
  264MOL0     H35607   4.405   8.481  -1.665  1.1043 -0.7559  1.0509
  264MOL0     H35608   4.243   8.689  -1.514 -1.4197 -0.2771 -0.5482
  264MOL0     H35609   4.210   8.665  -1.686  0.5672  1.4087  1.8782
  264MOL0     H35610   4.088   8.538  -1.484  1.0027  0.4702  0.8627
  264MOL0     H35611   4.238   8.451  -1.463  2.3106  1.5813 -0.7578
  264MOL0     H35612   4.238   8.369  -1.712  1.2199 -0.2408  2.1857
  264MOL0     H35613   4.068   8.438  -1.717  1.5548 -0.4536 -2.7531
  264MOL0     H35614   4.048   8.280  -1.507  0.7316  0.7161  1.4595
  264MOL0     H35615   4.048   8.210  -1.669  1.1564 -0.5691  0.3429
  264MOL0     H35616   4.303   8.253  -1.530  0.2688 -0.7639  0.1622
  264MOL0     H35617   4.280   8.148  -1.665 -1.1145 -1.7088 -0.0657
  264MOL0     H35618   4.140   8.012  -1.491  0.2377  2.0232 -1.6122
  264MOL0     H35619   4.321   8.022  -1.454  0.6517  1.1869  0.8567
  264MOL0     H35620   4.630   8.657  -1.301 -2.1917  0.8492 -3.0844
  264MOL0     H35621   4.764   8.837  -1.186  2.5795 -1.7585  0.3238
  264MOL0     H35622   4.963   9.160  -1.074  1.0255 -1.2988  0.7919
  264MOL0     H35623   5.088   9.299  -0.908 -0.3062 -1.8768  0.5846
  264MOL0     H35624   6.170   9.772   0.520  1.3370  3.9136 -1.5212
  264MOL0     H35625   6.194   9.887   0.718  0.0655  1.7502 -3.4435
  264MOL0     H35626   6.149   9.951   1.235 -2.8449 -0.3791 -2.4104
  264MOL0     H35627   6.239  10.120   1.365  0.6115  0.1598  0.1557
  264MOL0     H35628   6.342  10.509   1.173 -1.3550 -0.5285 -0.5703
  264MOL0     H35629   6.479  10.460   1.279 -0.1219 -2.5688 -0.0089
  264MOL0     H35630   6.252  10.573   1.411 -0.9425  0.3736 -2.0837
  264MOL0     H35631   6.336  10.687   1.303  0.4739  0.9942  1.6334
  264MOL0     H35632   6.567  10.636   1.416  0.8628  1.5960 -0.4624
  264MOL0     H35633   6.456  10.571   1.547  0.0034  0.6996  0.2556
  264MOL0     H35634   6.530  10.804   1.583  1.2522  1.6897 -2.4463
  264MOL0     H35635   6.451  10.854   1.428 -2.1806 -0.0810 -0.5235
  264MOL0     H35636   6.166  10.917   1.695  0.3689  3.3158 -2.3473
  264MOL0     H35637   6.247  10.398   1.033  3.7363 -0.7534 -2.8385
  264MOL0     H35638   6.195  10.169   0.775  0.0982  0.0279  0.4420
  264MOL0     H35639   6.051  10.256   0.854 -0.3811 -1.3866 -1.0714
  264MOL0     H35640   6.209  10.330   0.838 -1.2183  0.7483  0.9501
  265MOL0     O35641   9.404   3.834  11.317  1.1796 -0.4833 -0.6234
  265MOL0     C35642   9.526   3.830  11.345  0.1258 -0.3326 -0.7297
  265MOL0     O35643   9.620   3.914  11.301  0.7438 -0.1345  0.1580
  265MOL0     C35644   9.591   4.003  11.193 -1.1827 -0.7349  0.9655
  265MOL0     C35645   9.514   3.973  11.079 -0.3426  0.1575  0.8906
  265MOL0     C35646   9.486   4.077  10.986  0.8476 -0.2610 -0.2465
  265MOL0     C35647   9.534   4.205  11.002  0.7848 -1.3689  0.3843
  265MOL0     O35648   9.513   4.306  10.905  0.3208  0.0589 -0.1466
  265MOL0     C35649   9.399   4.303  10.817 -0.3839 -0.2868  0.6095
  265MOL0     C35650   9.459   4.314  10.671  0.2272 -0.4833 -0.6686
  265MOL0     C35651   9.337   4.301  10.577 -0.1361 -0.5869 -1.8170
  265MOL0     C35652   9.378   4.301  10.430 -0.4268 -0.6116 -0.2036
  265MOL0     C35653   9.260   4.340  10.338  0.1687  0.3725  0.8606
  265MOL0     C35654   9.143   4.236  10.318 -0.9960 -0.3211 -0.2384
  265MOL0     C35655   9.050   4.278  10.199  0.4270  0.4524 -0.7310
  265MOL0     C35656   8.945   4.168  10.163  0.3202  0.2770  0.4801
  265MOL0     N35657   8.843   4.150  10.261 -0.3543 -0.0045 -0.5146
  265MOL0     C35658   8.837   4.033  10.348  0.1712  0.4093  0.2066
  265MOL0     C35659   8.764   4.082  10.452  0.3113 -0.0399  0.1632
  265MOL0     C35660   8.748   4.019  10.583 -1.0496  0.1882 -0.4208
  265MOL0     C35661   8.848   3.897  10.601  1.1644  0.8674 -0.1895
  265MOL0     C35662   8.804   3.793  10.705 -0.6153  0.7451  0.4244
  265MOL0     C35663   8.795   3.849  10.842 -0.1221 -1.0522 -0.8406
  265MOL0     O35664   8.921   3.816  10.907 -0.1391  0.3480  0.1902
  265MOL0     C35665   8.920   3.850  11.037 -0.4092  0.5059  0.1748
  265MOL0     C35666   8.822   3.863  11.135 -0.5674  0.3550 -0.4980
  265MOL0     C35667   8.852   3.892  11.271 -0.9410  0.0441 -0.6650
  265MOL0     C35668   8.985   3.918  11.309  0.3554 -0.4591  0.1229
  265MOL0     C35669   9.019   3.957  11.445  0.8948 -0.2480 -0.9930
  265MOL0     O35670   9.156   3.981  11.481 -0.1527  0.0403  0.0878
  265MOL0     C35671   9.185   4.023  11.607  0.2606 -0.3388  0.1069
  265MOL0     C35672   9.129   4.138  11.665 -0.0673 -0.4916  0.1084
  265MOL0     C35673   9.160   4.184  11.789 -0.1582  1.5715  0.1897
  265MOL0     C35674   9.246   4.101  11.869 -0.4884  0.9991  0.5900
  265MOL0     O35675   9.293   4.125  11.993  0.6013  0.1362 -0.3138
  265MOL0     C35676   9.273   4.251  12.050  0.3753  0.6941  0.2570
  265MOL0     C35677   9.363   4.280  12.177  0.5623  0.3574  0.3510
  265MOL0     C35678   9.506   4.233  12.151  0.1436 -0.5269  0.7153
  265MOL0     C35679   9.552   4.101  12.197 -0.3467  0.5639 -0.4011
  265MOL0     C35680   9.689   4.057  12.165  0.3845  1.1158 -0.4319
  265MOL0     C35681   9.721   4.040  12.017 -0.4851 -0.1455  0.3979
  265MOL0     C35682   9.643   3.928  11.939 -0.7045 -0.1914 -1.0937
  265MOL0     C35683   9.725   3.793  11.949  0.7152  0.8138 -0.0531
  265MOL0    Cl35684   9.883   3.805  11.862 -0.0857  0.2263  0.5076
  265MOL0     C35685   9.309   3.988  11.805 -0.6457 -0.5164 -0.3997
  265MOL0     C35686   9.285   3.951  11.677  0.2145  0.5303  1.1156
  265MOL0     O35687   8.927   3.950  11.533 -0.4615  0.2270 -0.2500
  265MOL0     C35688   9.084   3.915  11.210  0.3252  2.0342  0.1775
  265MOL0     C35689   9.055   3.874  11.084  0.4245  0.7861  0.1121
  265MOL0     N35690   8.726   4.214  10.419  0.2010  0.9561  0.3338
  265MOL0     N35691   8.779   4.250  10.310 -0.7832 -0.0458  0.3631
  265MOL0     C35692   9.615   4.234  11.106  0.8691  0.4700  0.2199
  265MOL0     C35693   9.641   4.132  11.206  0.0560 -0.4225 -0.4505
  265MOL0     C35694   9.564   3.728  11.450 -0.0366 -0.6560  1.2715
  265MOL0     C35695   9.464   3.676  11.531  0.6614 -1.1997 -0.2388
  265MOL0     C35696   9.491   3.588  11.642 -0.0121 -0.1103 -0.2553
  265MOL0     C35697   9.627   3.548  11.661 -0.5714  0.9540 -0.3033
  265MOL0     O35698   9.675   3.472  11.767  0.6411  0.1488  0.3087
  265MOL0     C35699   9.599   3.353  11.790 -0.4436 -0.3890  0.1204
  265MOL0     C35700   9.649   3.272  11.904 -0.8019 -0.9269 -0.0609
  265MOL0     C35701   9.780   3.202  11.859 -0.3723 -0.2518 -0.0760
  265MOL0     C35702   9.866   3.160  11.987 -0.1598  0.4681 -0.2225
  265MOL0     C35703   9.800   3.070  12.080  0.1470 -0.5083 -0.2135
  265MOL0     C35704   9.753   3.004  12.174  0.2367 -0.5054  0.4193
  265MOL0     C35705   9.724   3.590  11.579  0.3023 -0.1139 -0.4003
  265MOL0     C35706   9.696   3.675  11.470  0.1732 -0.6283 -0.3556
  265MOL0     C35707   9.821   3.709  11.383  0.0493  0.2374  0.6084
  265MOL0     H35708   9.484   3.869  11.077 -0.3157  0.1118  2.2912
  265MOL0     H35709   9.429   4.043  10.900 -5.0543 -0.2375  3.0883
  265MOL0     H35710   9.334   4.224  10.855  1.0039 -0.7646  2.1376
  265MOL0     H35711   9.346   4.398  10.833  2.0046  1.4905 -1.1392
  265MOL0     H35712   9.514   4.222  10.649 -2.9891 -2.4873 -0.8932
  265MOL0     H35713   9.518   4.404  10.652  2.4695 -1.2653  1.9325
  265MOL0     H35714   9.275   4.389  10.598 -2.6506 -2.7837  1.0012
  265MOL0     H35715   9.274   4.215  10.603 -1.3951  1.3031  2.1280
  265MOL0     H35716   9.465   4.364  10.407  1.4425 -2.0172  2.4311
  265MOL0     H35717   9.399   4.199  10.397  2.8050 -0.7709  1.8182
  265MOL0     H35718   9.222   4.440  10.358 -1.5633  0.2745 -1.5700
  265MOL0     H35719   9.308   4.346  10.240  0.5446  0.0439  1.0198
  265MOL0     H35720   9.177   4.133  10.307  0.0852 -0.1827  1.5293
  265MOL0     H35721   9.069   4.237  10.398 -0.3184  3.8314  0.5632
  265MOL0     H35722   9.114   4.286  10.111  1.7591  0.7441  0.2408
  265MOL0     H35723   9.008   4.376  10.223  0.4797  0.2987  0.0384
  265MOL0     H35724   8.891   4.184  10.070 -2.3362 -1.0347  1.6826
  265MOL0     H35725   8.994   4.071  10.149  0.4123  0.2968  0.6596
  265MOL0     H35726   8.903   3.947  10.350 -0.8772 -0.5907 -2.8883
  265MOL0     H35727   8.767   4.096  10.658  0.5221  1.6920 -2.2383
  265MOL0     H35728   8.644   3.990  10.601 -0.5702 -2.3259 -1.2495
  265MOL0     H35729   8.846   3.829  10.515 -2.1073  1.3998 -0.6503
  265MOL0     H35730   8.947   3.944  10.604  0.8524  1.9334 -3.0483
  265MOL0     H35731   8.862   3.701  10.701 -2.1175 -0.4057  2.7618
  265MOL0     H35732   8.706   3.757  10.673 -0.4614  0.5051  0.2254
  265MOL0     H35733   8.711   3.813  10.901 -0.2435  1.1505  0.4211
  265MOL0     H35734   8.787   3.958  10.852  0.8087 -1.0983  0.7055
  265MOL0     H35735   8.718   3.853  11.105 -0.0504 -0.2382 -2.2024
  265MOL0     H35736   8.763   3.888  11.334 -3.1455  1.4637 -3.4743
  265MOL0     H35737   9.056   4.197  11.610 -1.7308 -0.4168  2.2560
  265MOL0     H35738   9.107   4.273  11.823 -0.0944  2.4414 -1.8196
  265MOL0     H35739   9.272   4.333  11.978  1.7860 -1.8231 -2.8472
  265MOL0     H35740   9.168   4.243  12.079  0.3089  0.9751  0.0973
  265MOL0     H35741   9.374   4.384  12.206  0.7596 -0.4700  3.5768
  265MOL0     H35742   9.324   4.225  12.263 -1.7042 -0.0466 -0.8690
  265MOL0     H35743   9.514   4.252  12.044 -0.3732 -0.1088  0.7465
  265MOL0     H35744   9.568   4.303  12.208  1.8926  0.3200 -2.0857
  265MOL0     H35745   9.482   4.022  12.167  0.2204 -1.1486  2.3508
  265MOL0     H35746   9.536   4.097  12.306  1.0090 -0.9280 -0.2074
  265MOL0     H35747   9.689   3.966  12.226  0.9801  1.8563  0.7217
  265MOL0     H35748   9.761   4.129  12.204  3.0983 -2.0257  0.8015
  265MOL0     H35749   9.685   4.136  11.980 -0.7708 -0.1265  0.7184
  265MOL0     H35750   9.829   4.033  11.999 -0.5198  0.0082  0.1223
  265MOL0     H35751   9.634   3.959  11.835  0.7543  2.5370 -0.5143
  265MOL0     H35752   9.546   3.904  11.984 -0.3403 -0.8782 -0.6483
  265MOL0     H35753   9.744   3.779  12.056  1.3666  1.7634 -0.0293
  265MOL0     H35754   9.669   3.704  11.919  0.2599  0.2302  2.3629
  265MOL0     H35755   9.385   3.940  11.866 -3.1796 -2.9306  1.0738
  265MOL0     H35756   9.326   3.864  11.626 -0.6068 -0.3877  1.9827
  265MOL0     H35757   9.186   3.949  11.226  1.0295  0.6759 -1.1065
  265MOL0     H35758   9.139   3.860  11.015  0.3979  1.1565 -0.0001
  265MOL0     H35759   9.661   4.329  11.132  3.1340 -0.3881 -0.4365
  265MOL0     H35760   9.708   4.155  11.288 -1.9979 -0.0519  1.2165
  265MOL0     H35761   9.361   3.706  11.513  0.1336 -3.7984 -2.0424
  265MOL0     H35762   9.409   3.557  11.705 -0.9319  0.2123 -1.2738
  265MOL0     H35763   9.580   3.290  11.703  1.1521 -1.0617  0.2183
  265MOL0     H35764   9.509   3.390  11.840  0.1199 -1.0381  1.6937
  265MOL0     H35765   9.575   3.198  11.934  0.8017 -1.7337  2.1439
  265MOL0     H35766   9.669   3.327  11.996  0.1174 -2.4708  0.6994
  265MOL0     H35767   9.848   3.275  11.815 -1.3001  1.7634  1.6709
  265MOL0     H35768   9.769   3.119  11.788  0.2828  0.1573 -0.6643
  265MOL0     H35769   9.960   3.117  11.952  0.5854 -0.3366  2.5418
  265MOL0     H35770   9.880   3.251  12.046 -2.0700 -0.7441  2.3124
  265MOL0     H35771   9.709   2.954  12.258 -1.5175  1.5831  0.8316
  265MOL0     H35772   9.827   3.570  11.606  0.4002  0.7344 -0.1157
  265MOL0     H35773   9.907   3.645  11.400  0.1507  0.6823  1.8591
  265MOL0     H35774   9.771   3.690  11.287  2.4737  1.7183 -1.0488
  265MOL0     H35775   9.843   3.816  11.396  3.1240 -0.4208  1.4484
  266MOL0     O35776  10.498  11.455   4.551  1.5743  0.8222  0.8561
  266MOL0     C35777  10.588  11.402   4.486  0.5417  0.1526 -0.1920
  266MOL0     O35778  10.580  11.288   4.411  0.4043 -0.2688  0.5249
  266MOL0     C35779  10.481  11.204   4.434  0.4411 -0.0984  0.6359
  266MOL0     C35780  10.455  11.146   4.558 -0.2143 -0.0311 -0.8746
  266MOL0     C35781  10.347  11.056   4.579 -0.4272  0.6672 -1.2982
  266MOL0     C35782  10.280  11.008   4.464  0.2440 -0.8917  0.4826
  266MOL0     O35783  10.168  10.924   4.473 -0.6063  0.1159 -0.6245
  266MOL0     C35784  10.054  10.998   4.436  0.0184  0.2677  1.1262
  266MOL0     C35785  10.011  11.103   4.541 -0.1838  1.1671 -0.7358
  266MOL0     C35786   9.936  11.040   4.665  0.1645  0.9163 -0.5601
  266MOL0     C35787   9.869  11.142   4.760  0.5222  1.0089 -0.3053
  266MOL0     C35788   9.787  11.069   4.865  0.0245  0.6486 -0.9752
  266MOL0     C35789   9.764  11.160   4.989  0.6055  0.5315 -0.2994
  266MOL0     C35790   9.711  11.080   5.100  0.5076 -0.6729 -0.0034
  266MOL0     C35791   9.832  11.019   5.185 -0.0269 -0.3954 -0.0002
  266MOL0     N35792   9.798  10.984   5.320 -0.3038  0.0108 -0.4726
  266MOL0     C35793   9.843  11.046   5.436 -0.4439 -0.2406 -0.5663
  266MOL0     C35794   9.830  10.954   5.534 -0.1658  0.0547 -0.5049
  266MOL0     C35795   9.877  10.962   5.676 -0.7740  0.0233  0.7766
  266MOL0     C35796  10.031  11.000   5.686  0.1650 -0.7869  0.1983
  266MOL0     C35797  10.123  10.896   5.611  0.0997  0.0397 -0.5527
  266MOL0     C35798  10.272  10.954   5.622 -0.5499 -0.4737 -0.3707
  266MOL0     O35799  10.307  10.935   5.761  0.1422 -0.2896 -0.0422
  266MOL0     C35800  10.378  11.041   5.821 -0.2296 -0.0434  0.2935
  266MOL0     C35801  10.478  11.108   5.747 -0.0699 -0.9669 -0.5114
  266MOL0     C35802  10.554  11.207   5.814  0.9284  0.1089 -0.2064
  266MOL0     C35803  10.525  11.255   5.936 -0.3460 -0.9240 -0.2928
  266MOL0     C35804  10.589  11.378   5.994  0.1850 -0.0976 -0.2525
  266MOL0     O35805  10.573  11.407   6.120  0.4367 -0.0415  0.3188
  266MOL0     C35806  10.590  11.532   6.167 -0.3204  0.1162 -0.3089
  266MOL0     C35807  10.713  11.583   6.211 -0.2114  0.4439 -0.3652
  266MOL0     C35808  10.722  11.705   6.269  0.0284 -0.6514 -0.9789
  266MOL0     C35809  10.601  11.773   6.301  1.2485  0.2816 -0.3478
  266MOL0     O35810  10.606  11.892   6.367 -0.7672 -0.1772 -0.5117
  266MOL0     C35811  10.496  11.975   6.400 -0.4348  0.5278 -0.4565
  266MOL0     C35812  10.546  12.070   6.506  0.7810  0.0794  0.5913
  266MOL0     C35813  10.521  12.028   6.649  0.6218  0.7144  0.0996
  266MOL0     C35814  10.579  11.894   6.706  0.1543 -0.2953  0.2494
  266MOL0     C35815  10.569  11.883   6.858  0.2993  0.4945  1.1205
  266MOL0     C35816  10.423  11.863   6.908  0.0978 -0.9738  0.2794
  266MOL0     C35817  10.406  11.880   7.060  1.4968  0.2480  0.4817
  266MOL0     C35818  10.511  11.822   7.144 -0.3391 -0.8437 -0.2959
  266MOL0    Cl35819  10.453  11.783   7.315 -0.2713  0.0125 -0.5816
  266MOL0     C35820  10.474  11.718   6.265 -0.3746  0.0018  0.1144
  266MOL0     C35821  10.467  11.603   6.195 -1.2837  0.8461 -0.0085
  266MOL0     O35822  10.656  11.450   5.915 -0.5262  0.1053  0.2438
  266MOL0     C35823  10.422  11.185   6.005  0.2734  0.1272  0.5283
  266MOL0     C35824  10.349  11.083   5.947  0.4119 -0.3716 -0.7246
  266MOL0     N35825   9.772  10.842   5.482 -0.3333  0.7428  0.3631
  266MOL0     N35826   9.756  10.859   5.356 -0.0206 -0.6851 -0.6477
  266MOL0     C35827  10.323  11.061   4.336 -0.0165  0.6636  0.4760
  266MOL0     C35828  10.419  11.157   4.317  0.9839  0.0036  0.5693
  266MOL0     C35829  10.720  11.476   4.475  0.5577 -0.3905  0.9067
  266MOL0     C35830  10.794  11.473   4.348 -0.4086  0.2691 -0.2424
  266MOL0     C35831  10.922  11.525   4.343 -0.1216  0.2470 -0.9197
  266MOL0     C35832  10.981  11.584   4.454  0.1107 -0.6782  0.0467
  266MOL0     O35833  11.109  11.628   4.441 -0.0455  0.1456 -0.4597
  266MOL0     C35834  11.173  11.689   4.553  0.7257  0.2913 -0.1404
  266MOL0     C35835  11.296  11.766   4.496  0.2825 -0.5599  0.4375
  266MOL0     C35836  11.253  11.874   4.394  0.0143 -0.3143 -0.4382
  266MOL0     C35837  11.370  11.979   4.366  1.0104 -0.1006 -0.8008
  266MOL0     C35838  11.501  11.920   4.329 -0.2765  0.0408  0.6385
  266MOL0     C35839  11.615  11.887   4.302  0.5252 -0.0034  0.1613
  266MOL0     C35840  10.901  11.607   4.566 -0.0207  0.3743  0.2131
  266MOL0     C35841  10.775  11.544   4.582 -1.8841 -0.3066 -0.0042
  266MOL0     C35842  10.721  11.556   4.723 -0.4719 -0.5859  1.1676
  266MOL0     H35843  10.510  11.180   4.645 -0.9238 -1.9201  0.3857
  266MOL0     H35844  10.322  11.031   4.682 -1.9365  0.2798 -1.7372
  266MOL0     H35845  10.042  11.047   4.339 -2.4118  1.4442  1.9384
  266MOL0     H35846   9.970  10.928   4.427  0.3554  0.0943 -1.3687
  266MOL0     H35847   9.938  11.171   4.495 -0.0220  2.3073  0.6347
  266MOL0     H35848  10.098  11.160   4.575  0.1102 -1.2523  3.2176
  266MOL0     H35849  10.005  10.972   4.717 -1.3850  1.7995  2.9957
  266MOL0     H35850   9.862  10.977   4.615  3.8755 -1.8024 -3.1982
  266MOL0     H35851   9.933  11.214   4.811  1.9482  0.4246 -1.1991
  266MOL0     H35852   9.804  11.198   4.692 -0.0508  0.3405 -0.3209
  266MOL0     H35853   9.687  11.042   4.829 -0.1583 -1.0087  0.6005
  266MOL0     H35854   9.850  10.984   4.890  0.3632  0.8246 -1.2327
  266MOL0     H35855   9.841  11.232   5.015 -0.5809  0.4090  4.5895
  266MOL0     H35856   9.684  11.232   4.968  1.5104  1.5027 -0.4439
  266MOL0     H35857   9.644  10.997   5.074  0.1900  0.0699 -1.6779
  266MOL0     H35858   9.658  11.141   5.174  0.7119  0.0067 -0.4151
  266MOL0     H35859   9.868  10.927   5.138  1.4969  0.3727 -0.3990
  266MOL0     H35860   9.905  11.100   5.190 -2.8438  2.4852 -1.5790
  266MOL0     H35861   9.883  11.147   5.437  1.3408 -0.7347 -4.0040
  266MOL0     H35862   9.825  11.046   5.723  1.9215  3.3237 -1.6182
  266MOL0     H35863   9.857  10.876   5.741 -2.2604  1.6988  2.6677
  266MOL0     H35864  10.041  11.101   5.644  1.9052 -0.4451  1.3374
  266MOL0     H35865  10.072  11.008   5.787  0.0334  2.7956  0.0884
  266MOL0     H35866  10.098  10.882   5.506  1.0385 -0.7005 -0.6910
  266MOL0     H35867  10.115  10.799   5.661 -1.7826  1.1232  1.4452
  266MOL0     H35868  10.279  11.054   5.578  1.4636 -1.1812 -1.8659
  266MOL0     H35869  10.324  10.891   5.549 -1.5849 -0.0306 -1.5348
  266MOL0     H35870  10.500  11.064   5.650 -1.2804 -3.6274  0.3272
  266MOL0     H35871  10.637  11.251   5.757  1.2664  2.1962  1.7501
  266MOL0     H35872  10.805  11.533   6.181  0.0240  1.1004 -0.7652
  266MOL0     H35873  10.816  11.742   6.308 -0.6540  1.2841 -1.0243
  266MOL0     H35874  10.451  12.028   6.316  1.2353  1.0203 -1.0691
  266MOL0     H35875  10.414  11.916   6.443  0.1300  1.1470  1.5595
  266MOL0     H35876  10.651  12.091   6.484  1.3975 -1.1637  2.1592
  266MOL0     H35877  10.489  12.163   6.498 -0.1903 -0.6046 -0.7918
  266MOL0     H35878  10.554  12.110   6.713  2.7185 -0.1716  0.2444
  266MOL0     H35879  10.412  12.022   6.651  0.5418  1.4051 -1.2046
  266MOL0     H35880  10.682  11.883   6.673 -0.2571  1.0226 -1.6205
  266MOL0     H35881  10.506  11.824   6.662  2.1136 -1.2685 -1.6434
  266MOL0     H35882  10.624  11.963   6.908  0.6608  0.5433  0.6507
  266MOL0     H35883  10.620  11.790   6.886 -0.0626  0.5361  1.9630
  266MOL0     H35884  10.358  11.940   6.864  0.2819  0.3349  2.1685
  266MOL0     H35885  10.389  11.764   6.876 -1.1671 -0.5111  0.1210
  266MOL0     H35886  10.315  11.827   7.090  1.0220  1.3776  1.0582
  266MOL0     H35887  10.399  11.985   7.089  0.7240  0.2394  0.3381
  266MOL0     H35888  10.543  11.726   7.102 -1.4087 -0.5941 -1.7613
  266MOL0     H35889  10.595  11.892   7.139 -1.2904  0.3390 -0.0644
  266MOL0     H35890  10.385  11.769   6.299  0.5166  1.4386  0.4012
  266MOL0     H35891  10.366  11.580   6.164 -0.2295 -1.8065 -1.8737
  266MOL0     H35892  10.403  11.235   6.100  3.5451 -0.0505  1.4065
  266MOL0     H35893  10.275  11.022   6.000  0.8656  1.3475  2.0933
  266MOL0     H35894  10.282  11.030   4.240 -1.7090 -1.9507  1.9289
  266MOL0     H35895  10.434  11.191   4.215  0.1212 -1.2527  0.0055
  266MOL0     H35896  10.772  11.416   4.259 -0.3229 -1.3883  0.7454
  266MOL0     H35897  10.987  11.514   4.257 -2.3031 -3.0014 -2.3163
  266MOL0     H35898  11.213  11.611   4.619 -2.3478  0.1082  1.6737
  266MOL0     H35899  11.106  11.754   4.610  3.9997  1.6438  2.5147
  266MOL0     H35900  11.363  11.692   4.451 -1.5711 -1.4702 -0.9732
  266MOL0     H35901  11.345  11.813   4.581 -2.5449  1.1039  1.2845
  266MOL0     H35902  11.161  11.910   4.441  1.3351 -0.6183  2.6497
  266MOL0     H35903  11.212  11.838   4.300 -3.0273  0.3824  0.4772
  266MOL0     H35904  11.330  12.041   4.286 -2.0851  0.4195  0.9928
  266MOL0     H35905  11.396  12.031   4.459 -1.7313 -0.6818  0.3960
  266MOL0     H35906  11.719  11.873   4.282  0.3294 -0.9309 -0.2528
  266MOL0     H35907  10.933  11.658   4.656 -2.1486  0.7654  0.8114
  266MOL0     H35908  10.701  11.456   4.762  1.2370 -1.6104 -0.3940
  266MOL0     H35909  10.785  11.599   4.801 -0.5549 -0.9713  1.4547
  266MOL0     H35910  10.635  11.624   4.726 -0.4248 -0.5319  1.3166
  267MOL0     O35911   3.913   2.462   7.275  0.3669  0.4267  0.0602
  267MOL0     C35912   3.907   2.428   7.161 -0.9608  0.0161 -0.2217
  267MOL0     O35913   3.801   2.367   7.108  0.8808  0.8413  0.5539
  267MOL0     C35914   3.670   2.383   7.155 -0.6730  0.3704  0.9219
  267MOL0     C35915   3.583   2.278   7.130  0.3427  0.4353  0.2713
  267MOL0     C35916   3.448   2.300   7.146 -0.6833 -0.3921 -0.6001
  267MOL0     C35917   3.402   2.421   7.194 -0.0448 -0.2134 -0.4742
  267MOL0     O35918   3.267   2.430   7.216  0.1620  0.2264  0.8293
  267MOL0     C35919   3.195   2.554   7.255  0.4596  0.8640 -0.5590
  267MOL0     C35920   3.060   2.551   7.183 -0.2688 -0.7660  0.8985
  267MOL0     C35921   2.955   2.652   7.243  0.2872  0.6164  0.4372
  267MOL0     C35922   2.818   2.627   7.174 -0.1499 -0.1636  0.2888
  267MOL0     C35923   2.704   2.709   7.213  0.1059 -0.3542  0.0757
  267MOL0     C35924   2.697   2.853   7.147 -0.6573  0.6270 -1.1418
  267MOL0     C35925   2.565   2.928   7.181 -0.4240  0.1819 -0.4972
  267MOL0     C35926   2.527   2.931   7.328  0.1434  0.0253  0.0384
  267MOL0     N35927   2.414   3.013   7.358 -0.3014 -0.5907 -0.3883
  267MOL0     C35928   2.403   3.151   7.317 -0.2088  0.3128 -0.3029
  267MOL0     C35929   2.278   3.190   7.365 -1.0776 -0.2607 -0.4083
  267MOL0     C35930   2.198   3.317   7.378 -0.7525  1.2326  1.0581
  267MOL0     C35931   2.294   3.435   7.387 -1.1012  0.1760  0.5191
  267MOL0     C35932   2.348   3.445   7.525 -0.1747 -0.7514 -0.1590
  267MOL0     C35933   2.240   3.507   7.624  0.0319  0.7848 -0.9545
  267MOL0     O35934   2.197   3.636   7.607 -0.2159 -0.8320  0.4452
  267MOL0     C35935   2.066   3.668   7.636 -0.0053 -0.6372 -0.7602
  267MOL0     C35936   1.965   3.581   7.663  0.0376  0.5145 -0.5586
  267MOL0     C35937   1.833   3.615   7.687 -0.1762 -0.0699  0.2425
  267MOL0     C35938   1.805   3.746   7.690  0.0601 -0.1484 -0.0145
  267MOL0     C35939   1.672   3.792   7.749  0.3500  0.1489 -0.9986
  267MOL0     O35940   1.557   3.705   7.745 -0.1843  0.2475  0.2754
  267MOL0     C35941   1.434   3.742   7.788 -0.1408 -0.5612 -0.4470
  267MOL0     C35942   1.411   3.821   7.901  1.0156  0.9903  0.6723
  267MOL0     C35943   1.275   3.836   7.944 -0.4992  0.2598  0.1834
  267MOL0     C35944   1.160   3.787   7.874 -1.3218 -0.0389 -0.7121
  267MOL0     O35945   1.028   3.819   7.904 -0.2870  0.2890 -0.1426
  267MOL0     C35946   0.988   3.923   7.998 -0.6568 -0.0425  0.4338
  267MOL0     C35947   0.843   3.889   8.048 -0.5307  0.9999  0.6595
  267MOL0     C35948   0.742   3.958   7.945  0.1082 -0.3155  0.3968
  267MOL0     C35949   0.728   4.109   7.973  0.3248 -0.8232  0.1294
  267MOL0     C35950   0.682   4.194   7.856  0.7007 -0.4299  0.7059
  267MOL0     C35951   0.647   4.337   7.892  0.1004 -0.0116  1.0846
  267MOL0     C35952   0.489   4.365   7.902  0.2928  1.2107 -0.1017
  267MOL0     C35953   0.416   4.279   8.004  0.0433  1.3843 -0.1799
  267MOL0    Cl35954   0.421   4.344   8.166  0.0493  0.1042 -0.0071
  267MOL0     C35955   1.192   3.701   7.767 -0.3934 -0.9133  0.7427
  267MOL0     C35956   1.329   3.677   7.721 -0.2358 -0.4266  0.4555
  267MOL0     O35957   1.665   3.910   7.789  0.2898  0.0993  0.0132
  267MOL0     C35958   1.904   3.840   7.658  0.4152 -0.1141  0.1886
  267MOL0     C35959   2.037   3.803   7.629 -0.4087 -0.7369 -1.1875
  267MOL0     N35960   2.229   3.073   7.427 -0.4100 -0.7615 -0.2704
  267MOL0     N35961   2.305   2.971   7.416 -0.6321  0.0451 -0.1096
  267MOL0     C35962   3.490   2.530   7.232 -1.1964  0.4923 -0.5985
  267MOL0     C35963   3.622   2.502   7.205 -0.9617 -0.2285  1.0755
  267MOL0     C35964   4.023   2.477   7.079 -0.0759  0.3561 -0.8189
  267MOL0     C35965   4.146   2.479   7.148 -0.2103  0.6191 -0.3326
  267MOL0     C35966   4.251   2.525   7.085 -1.2975 -0.0921 -0.5170
  267MOL0     C35967   4.251   2.571   6.945 -0.6626 -0.3131 -0.8562
  267MOL0     O35968   4.353   2.626   6.870 -0.1517 -0.8908  0.4307
  267MOL0     C35969   4.484   2.643   6.928  0.6198 -0.1033  0.3930
  267MOL0     C35970   4.595   2.674   6.822 -0.1503  0.4654  0.4294
  267MOL0     C35971   4.586   2.805   6.755  0.6183  0.1404  0.7088
  267MOL0     C35972   4.708   2.825   6.668 -0.5626  0.1387 -0.0633
  267MOL0     C35973   4.832   2.836   6.742  0.1808 -0.2652  0.3820
  267MOL0     C35974   4.919   2.841   6.826 -0.1011  0.4131 -0.0190
  267MOL0     C35975   4.132   2.557   6.865  0.1288  0.2669 -0.1404
  267MOL0     C35976   4.020   2.500   6.942 -0.7476  0.2310  0.5405
  267MOL0     C35977   3.902   2.470   6.860  0.9174  0.2148  0.1282
  267MOL0     H35978   3.620   2.193   7.075  0.5602  0.1879  0.7954
  267MOL0     H35979   3.370   2.232   7.112 -1.0268 -0.0100 -0.5861
  267MOL0     H35980   3.172   2.549   7.362 -1.5180  0.6940 -0.9550
  267MOL0     H35981   3.239   2.652   7.232 -1.0896  1.8029  0.3375
  267MOL0     H35982   3.020   2.450   7.198  1.5724 -2.3440 -3.2865
  267MOL0     H35983   3.074   2.561   7.075  1.7919 -2.7034  0.9297
  267MOL0     H35984   2.989   2.755   7.228  0.3201  0.4428 -0.8062
  267MOL0     H35985   2.941   2.631   7.349 -1.5670 -5.9598 -0.6776
  267MOL0     H35986   2.824   2.616   7.065  0.9813 -4.1388  0.6155
  267MOL0     H35987   2.800   2.526   7.213  0.2284  0.6666  2.7426
  267MOL0     H35988   2.621   2.651   7.173 -0.6890 -0.0034  1.1709
  267MOL0     H35989   2.710   2.715   7.322  1.1395  0.8196 -0.0106
  267MOL0     H35990   2.785   2.912   7.174  0.2974 -0.5762 -1.5093
  267MOL0     H35991   2.697   2.830   7.040  3.8521 -1.3577 -0.9649
  267MOL0     H35992   2.479   2.890   7.126 -0.2557  0.5457 -1.0113
  267MOL0     H35993   2.582   3.028   7.141 -0.4795  0.1006 -0.7249
  267MOL0     H35994   2.498   2.829   7.358  2.8203 -0.6301  0.6436
  267MOL0     H35995   2.614   2.948   7.392  0.0212 -0.3089  0.2980
  267MOL0     H35996   2.459   3.216   7.250 -3.5976 -0.1528 -3.9034
  267MOL0     H35997   2.145   3.327   7.283  2.2384  4.8628 -0.4615
  267MOL0     H35998   2.122   3.309   7.457 -0.6191  2.5790  1.3489
  267MOL0     H35999   2.369   3.409   7.312  0.8227  1.1679  1.9950
  267MOL0     H36000   2.250   3.531   7.359 -0.9030 -0.2075 -1.1860
  267MOL0     H36001   2.421   3.526   7.529 -2.3397  1.2777  1.0373
  267MOL0     H36002   2.388   3.346   7.551  0.1870 -1.0795 -1.8645
  267MOL0     H36003   2.281   3.496   7.725  0.9765  2.3238 -1.1369
  267MOL0     H36004   2.152   3.444   7.609  0.4458  0.0889 -0.5356
  267MOL0     H36005   1.981   3.475   7.676  0.3340  0.6607  0.3223
  267MOL0     H36006   1.755   3.539   7.689  0.7477 -1.0366  0.4745
  267MOL0     H36007   1.495   3.857   7.959  1.4386  0.3592  0.4574
  267MOL0     H36008   1.275   3.896   8.035 -0.5029  1.1366 -0.3778
  267MOL0     H36009   1.057   3.935   8.081  0.2789  0.7791 -0.4463
  267MOL0     H36010   0.987   4.013   7.936 -0.1861 -0.7161 -0.5754
  267MOL0     H36011   0.822   3.781   8.047  2.7555  0.2096  2.6332
  267MOL0     H36012   0.812   3.907   8.151 -4.8274  0.6271 -0.3451
  267MOL0     H36013   0.767   3.948   7.839  1.9699  0.8704  0.6830
  267MOL0     H36014   0.643   3.914   7.956 -2.8289  5.0717 -1.1094
  267MOL0     H36015   0.826   4.155   7.992  1.2170 -2.3454 -0.5944
  267MOL0     H36016   0.666   4.122   8.062  1.8898 -2.3107  1.4972
  267MOL0     H36017   0.600   4.153   7.797  1.7145  1.1990 -2.0540
  267MOL0     H36018   0.769   4.211   7.792  1.4634  3.8551  2.5658
  267MOL0     H36019   0.691   4.362   7.989 -0.7656 -1.0581  1.7751
  267MOL0     H36020   0.688   4.403   7.815 -0.1296  3.3699  3.6198
  267MOL0     H36021   0.440   4.352   7.805  0.1444  2.1452 -0.1645
  267MOL0     H36022   0.471   4.469   7.932 -0.8113  1.3908 -1.3194
  267MOL0     H36023   0.310   4.260   7.984  0.7801 -0.7891 -2.5391
  267MOL0     H36024   0.451   4.175   8.006  0.6271  1.5279  2.7657
  267MOL0     H36025   1.111   3.649   7.717  0.6864 -3.8538  1.8228
  267MOL0     H36026   1.337   3.610   7.636  0.1133 -1.3572  1.2030
  267MOL0     H36027   1.869   3.943   7.654 -0.8125 -0.5058  0.3353
  267MOL0     H36028   2.111   3.877   7.602  1.2055 -2.0722 -0.6249
  267MOL0     H36029   3.462   2.621   7.284  2.3075 -0.1068  2.8169
  267MOL0     H36030   3.688   2.587   7.207 -0.7574 -0.2921 -1.2343
  267MOL0     H36031   4.153   2.456   7.254  2.8063  1.5736 -0.2175
  267MOL0     H36032   4.337   2.541   7.149 -2.3462  2.3091  0.4181
  267MOL0     H36033   4.517   2.554   6.983  0.4728  0.6993  1.8396
  267MOL0     H36034   4.468   2.729   6.992  2.3326  2.5235 -2.4238
  267MOL0     H36035   4.602   2.595   6.746 -0.9808 -0.3163  1.1316
  267MOL0     H36036   4.689   2.679   6.878  0.5945 -0.3009 -0.7093
  267MOL0     H36037   4.583   2.889   6.826  1.0450 -0.3870  1.3617
  267MOL0     H36038   4.499   2.814   6.689  1.3887 -0.0799 -0.3607
  267MOL0     H36039   4.716   2.755   6.585 -0.6112  1.4702 -1.2315
  267MOL0     H36040   4.681   2.914   6.611 -2.5361 -1.8175 -2.3884
  267MOL0     H36041   4.998   2.866   6.893 -0.9853  0.1413  1.1549
  267MOL0     H36042   4.116   2.576   6.760 -1.6038  0.0688  0.0577
  267MOL0     H36043   3.908   2.506   6.757  0.1125 -0.1012 -0.0367
  267MOL0     H36044   3.866   2.367   6.858 -0.2565  0.6119  0.2100
  267MOL0     H36045   3.816   2.515   6.909  0.3260 -0.4554 -0.2668
  268MOL0     O36046   4.353   7.144  10.268 -0.5404  0.1348  0.6135
  268MOL0     C36047   4.344   7.045  10.194  0.6027 -0.3560 -0.6840
  268MOL0     O36048   4.312   6.919  10.244  0.0880 -0.0424  0.5660
  268MOL0     C36049   4.336   6.884  10.377  1.6020 -0.8439 -0.0290
  268MOL0     C36050   4.461   6.885  10.439  0.0819 -0.0986 -0.0748
  268MOL0     C36051   4.464   6.831  10.568 -0.6353 -1.0854 -1.4692
  268MOL0     C36052   4.348   6.791  10.639 -0.6642 -0.0361  0.3260
  268MOL0     O36053   4.363   6.765  10.775 -0.1032  0.1555 -0.0582
  268MOL0     C36054   4.254   6.798  10.862 -0.5403  0.5427  0.8617
  268MOL0     C36055   4.307   6.736  10.992  0.6456 -0.3227 -0.6884
  268MOL0     C36056   4.192   6.762  11.099 -0.3463 -0.2366  0.3883
  268MOL0     C36057   4.220   6.700  11.237 -0.1454 -0.0362 -0.7572
  268MOL0     C36058   4.097   6.706  11.321 -0.8307 -0.8124 -0.0352
  268MOL0     C36059   3.975   6.617  11.282 -0.3494 -0.6521  0.0494
  268MOL0     C36060   3.865   6.654  11.387  0.2402 -0.2977  0.9566
  268MOL0     C36061   3.716   6.619  11.345 -0.4539 -0.5414 -0.8943
  268MOL0     N36062   3.676   6.649  11.207 -0.5818 -1.4263  0.1621
  268MOL0     C36063   3.679   6.775  11.158 -0.6488  0.2439 -0.1790
  268MOL0     C36064   3.621   6.767  11.039 -0.4867 -0.1908 -0.4497
  268MOL0     C36065   3.610   6.888  10.942  0.5677  0.4286 -0.2732
  268MOL0     C36066   3.730   6.984  10.945 -0.2629 -0.4920 -0.0335
  268MOL0     C36067   3.862   6.913  10.906  0.5348  0.1165  0.3878
  268MOL0     C36068   3.967   7.001  10.834  0.5069 -0.0316 -0.6305
  268MOL0     O36069   4.052   7.083  10.914  0.0137 -0.2480 -0.4248
  268MOL0     C36070   4.142   7.154  10.850 -1.3987 -0.6602  0.5117
  268MOL0     C36071   4.244   7.208  10.920  0.0042 -0.1080  0.2941
  268MOL0     C36072   4.351   7.277  10.862  1.0304  0.6070  0.0509
  268MOL0     C36073   4.354   7.294  10.716 -0.5804  0.1999 -0.5856
  268MOL0     C36074   4.463   7.377  10.657  1.0397 -0.6572 -0.0820
  268MOL0     O36075   4.479   7.383  10.509  0.3638  0.6636 -0.6151
  268MOL0     C36076   4.585   7.448  10.465 -0.6818 -0.5814 -0.4378
  268MOL0     C36077   4.587   7.587  10.468  0.4559 -0.3644 -0.9911
  268MOL0     C36078   4.690   7.662  10.422 -0.1494  0.7180  0.7143
  268MOL0     C36079   4.806   7.595  10.391 -0.5567  0.2969  0.8317
  268MOL0     O36080   4.905   7.676  10.347 -0.5759 -0.3907 -0.1387
  268MOL0     C36081   5.046   7.629  10.376  0.8568 -0.4251  0.4097
  268MOL0     C36082   5.142   7.730  10.313 -0.0237 -0.1715  0.8312
  268MOL0     C36083   5.295   7.697  10.350 -0.0415  0.3625  0.7557
  268MOL0     C36084   5.373   7.827  10.336  0.7052 -0.1112  0.5494
  268MOL0     C36085   5.525   7.798  10.347  0.2870  0.8327 -0.0289
  268MOL0     C36086   5.616   7.929  10.338  0.6475  0.7794  0.1802
  268MOL0     C36087   5.753   7.913  10.394  0.4450 -0.3127  0.0140
  268MOL0     C36088   5.834   8.044  10.389  0.0751  0.3457  0.5656
  268MOL0    Cl36089   5.996   8.021  10.451  0.3878  0.3688 -0.0661
  268MOL0     C36090   4.805   7.455  10.387 -0.3734  0.4917  0.6310
  268MOL0     C36091   4.696   7.382  10.413  0.6056  0.4443  0.3080
  268MOL0     O36092   4.525   7.451  10.729  0.5166 -1.1866 -0.5588
  268MOL0     C36093   4.248   7.246  10.646  0.5753 -0.4024 -0.3160
  268MOL0     C36094   4.146   7.163  10.708 -0.3612 -1.4844  0.6915
  268MOL0     N36095   3.611   6.630  10.998 -0.9523  0.1949  0.0871
  268MOL0     N36096   3.639   6.564  11.103 -0.4058  0.2273  0.1653
  268MOL0     C36097   4.222   6.790  10.569 -0.7517  0.1560 -0.4210
  268MOL0     C36098   4.219   6.838  10.441 -1.0641 -0.3975 -0.2132
  268MOL0     C36099   4.321   7.065  10.052 -0.2465 -0.3003  0.4750
  268MOL0     C36100   4.197   7.008   9.992 -0.4606 -0.2505  0.2450
  268MOL0     C36101   4.166   7.030   9.854 -0.6936  0.0842  0.2265
  268MOL0     C36102   4.245   7.109   9.773  0.6879 -0.6609 -0.5829
  268MOL0     O36103   4.193   7.128   9.648 -0.5191  0.0815 -0.4113
  268MOL0     C36104   4.296   7.186   9.565  0.7742  1.0475  1.3384
  268MOL0     C36105   4.257   7.167   9.422 -0.4554  0.1594  0.1396
  268MOL0     C36106   4.377   7.197   9.319 -0.4182  0.6267  0.0780
  268MOL0     C36107   4.339   7.136   9.181 -0.2971  0.0206 -0.1146
  268MOL0     C36108   4.223   7.201   9.123  0.1928 -0.1204  0.5307
  268MOL0     C36109   4.135   7.276   9.089 -0.1548  0.1330 -0.2096
  268MOL0     C36110   4.362   7.166   9.827 -0.0489  0.2016 -0.1495
  268MOL0     C36111   4.403   7.139   9.968  0.3728  0.0638  0.7414
  268MOL0     C36112   4.536   7.181  10.014  0.1833 -0.0248 -0.2589
  268MOL0     H36113   4.543   6.923  10.379 -1.2253  3.7955  0.3671
  268MOL0     H36114   4.555   6.809  10.623 -2.0775 -2.0741  0.6800
  268MOL0     H36115   4.244   6.907  10.867  1.8621  0.7783  2.7149
  268MOL0     H36116   4.165   6.745  10.829  1.8692 -1.7599 -2.6559
  268MOL0     H36117   4.403   6.782  11.019 -1.2180  2.6105  1.6142
  268MOL0     H36118   4.311   6.627  10.987  0.8166 -0.6044  2.8677
  268MOL0     H36119   4.097   6.735  11.053 -0.6943 -0.9273  1.4771
  268MOL0     H36120   4.183   6.867  11.127 -2.1559 -0.3920  0.4735
  268MOL0     H36121   4.263   6.599  11.230 -1.9608 -0.8275 -0.9709
  268MOL0     H36122   4.296   6.759  11.288  0.2508 -1.2744  0.1569
  268MOL0     H36123   4.135   6.681  11.420 -0.5964 -1.7414 -0.3520
  268MOL0     H36124   4.067   6.811  11.326 -0.0709 -0.4296 -2.3323
  268MOL0     H36125   3.941   6.668  11.191 -0.4528  0.5190  0.7166
  268MOL0     H36126   3.992   6.511  11.265  2.3262 -1.1204  4.2546
  268MOL0     H36127   3.867   6.762  11.406 -2.6668  0.2435 -1.0211
  268MOL0     H36128   3.868   6.588  11.475  0.0899 -1.4115  0.1482
  268MOL0     H36129   3.710   6.510  11.354  3.6946 -0.7329  2.4536
  268MOL0     H36130   3.649   6.658  11.422  0.8517 -2.8956  1.6217
  268MOL0     H36131   3.713   6.869  11.201  0.6526 -1.3560  2.5929
  268MOL0     H36132   3.602   6.840  10.844 -0.8256 -2.4638  1.1233
  268MOL0     H36133   3.521   6.946  10.968  0.4869  0.7514 -1.2315
  268MOL0     H36134   3.717   7.073  10.883 -1.5155  0.1978  1.1639
  268MOL0     H36135   3.749   7.012  11.049  0.9167 -2.4533  0.3456
  268MOL0     H36136   3.859   6.821  10.847  2.6982 -1.1045  2.0494
  268MOL0     H36137   3.908   6.890  11.002  1.9856  1.5394  0.0581
  268MOL0     H36138   3.898   7.073  10.788 -4.6912 -2.7095  2.0220
  268MOL0     H36139   4.012   6.937  10.758 -2.3342 -0.5067 -2.0705
  268MOL0     H36140   4.247   7.194  11.028  2.4585 -0.7618  0.1978
  268MOL0     H36141   4.433   7.323  10.917 -0.5416  1.3187  1.9313
  268MOL0     H36142   4.498   7.633  10.509 -0.1080 -2.9750  0.9743
  268MOL0     H36143   4.684   7.770  10.411 -3.1091  0.6709  1.2064
  268MOL0     H36144   5.062   7.627  10.484 -0.3643  2.3013  0.7148
  268MOL0     H36145   5.070   7.534  10.326 -2.8332 -1.5874  0.5588
  268MOL0     H36146   5.124   7.730  10.205 -1.1118  1.6741  0.9653
  268MOL0     H36147   5.126   7.832  10.348  2.6143  0.2636  0.9565
  268MOL0     H36148   5.300   7.648  10.447 -0.1555 -0.3523  0.4064
  268MOL0     H36149   5.333   7.629  10.273 -2.1314 -0.1004  0.0589
  268MOL0     H36150   5.348   7.903  10.409 -1.9416  1.7810 -2.0883
  268MOL0     H36151   5.350   7.874  10.240  1.6016  0.0818  0.4210
  268MOL0     H36152   5.566   7.749  10.258 -0.4891 -0.9941  0.5968
  268MOL0     H36153   5.544   7.744  10.440 -2.4359 -0.1323  0.0380
  268MOL0     H36154   5.613   7.960  10.233  1.4030  0.1369 -0.0383
  268MOL0     H36155   5.581   8.008  10.405 -2.7290 -0.5275  0.1484
  268MOL0     H36156   5.807   7.825  10.357  1.6313  0.1835  0.5520
  268MOL0     H36157   5.732   7.906  10.501 -2.1960  1.9700 -0.2278
  268MOL0     H36158   5.857   8.073  10.286 -0.8430 -2.4105 -0.4805
  268MOL0     H36159   5.782   8.124  10.443  0.9034 -0.2071  2.2399
  268MOL0     H36160   4.895   7.398  10.365 -1.8295 -3.0024  2.8822
  268MOL0     H36161   4.685   7.274  10.414  1.5682  0.2328 -2.6097
  268MOL0     H36162   4.251   7.262  10.539 -1.4424 -0.0968 -0.3640
  268MOL0     H36163   4.069   7.116  10.647  0.4522  0.4841 -2.0338
  268MOL0     H36164   4.133   6.758  10.622  2.0455 -1.3274  3.9725
  268MOL0     H36165   4.130   6.852  10.381 -0.6188 -0.7328 -0.9778
  268MOL0     H36166   4.134   6.947  10.056  1.8234 -1.8314  1.1233
  268MOL0     H36167   4.075   6.999   9.803  0.2698 -3.6457  0.4880
  268MOL0     H36168   4.391   7.137   9.583  0.2507 -0.4359  0.2876
  268MOL0     H36169   4.299   7.293   9.586 -4.4627  1.5284  1.1031
  268MOL0     H36170   4.174   7.234   9.400  0.4457  0.3631 -3.1930
  268MOL0     H36171   4.226   7.063   9.415 -0.5112  0.1430  0.5901
  268MOL0     H36172   4.469   7.146   9.350 -1.3993 -2.0760 -1.1738
  268MOL0     H36173   4.390   7.305   9.304  2.1112  0.1829 -1.6924
  268MOL0     H36174   4.420   7.150   9.108 -1.2598 -0.9214 -1.4154
  268MOL0     H36175   4.321   7.028   9.181  4.4940 -1.1130 -3.5220
  268MOL0     H36176   4.055   7.338   9.053 -2.2184 -2.1692  0.1590
  268MOL0     H36177   4.436   7.213   9.762 -2.1179  2.2567 -1.1647
  268MOL0     H36178   4.537   7.254  10.095  1.6761 -2.0263  1.6183
  268MOL0     H36179   4.597   7.094  10.037 -0.8694 -1.1552 -1.6108
  268MOL0     H36180   4.577   7.231   9.925 -2.5526  0.2432 -1.4937
  269MOL0     O36181   8.326   2.542   7.557  0.4920  0.0322  0.8067
  269MOL0     C36182   8.441   2.530   7.609 -0.2314  0.3372 -0.7681
  269MOL0     O36183   8.516   2.406   7.602 -0.4832  0.6902  0.3428
  269MOL0     C36184   8.500   2.317   7.492  0.9509  0.5780 -0.3971
  269MOL0     C36185   8.612   2.242   7.466 -0.5450  0.2698 -0.0944
  269MOL0     C36186   8.614   2.142   7.369  0.3709  0.7936 -0.6095
  269MOL0     C36187   8.494   2.105   7.306  0.0097  0.0761 -0.1449
  269MOL0     O36188   8.477   2.009   7.212 -0.0073  0.3515 -0.5299
  269MOL0     C36189   8.543   1.890   7.252  0.3133  0.2175 -0.1779
  269MOL0     C36190   8.448   1.769   7.225  0.5606  0.1311 -0.3659
  269MOL0     C36191   8.353   1.749   7.347  0.2666  0.9694  0.5459
  269MOL0     C36192   8.303   1.607   7.360 -0.9971  0.2141  0.1881
  269MOL0     C36193   8.177   1.590   7.442  0.9899  0.6432 -0.6090
  269MOL0     C36194   8.047   1.646   7.373  0.3606  0.4451  0.9107
  269MOL0     C36195   7.921   1.604   7.447  1.0004 -0.6941 -0.1568
  269MOL0     C36196   7.791   1.652   7.372  0.6138  0.2534 -1.4242
  269MOL0     N36197   7.671   1.631   7.447 -0.1315  0.6085 -0.0541
  269MOL0     C36198   7.555   1.702   7.441  0.0367  0.5780  0.4395
  269MOL0     C36199   7.463   1.629   7.517  0.0614 -0.3364 -0.2468
  269MOL0     C36200   7.316   1.662   7.548 -0.1406 -0.1498 -0.9288
  269MOL0     C36201   7.236   1.609   7.434  0.6546 -0.4175  1.1977
  269MOL0     C36202   7.090   1.646   7.463  1.1187 -0.2013 -0.3637
  269MOL0     C36203   7.001   1.585   7.359  0.1989 -0.1137  0.8545
  269MOL0     O36204   6.874   1.658   7.363  0.2487  0.0322  0.7545
  269MOL0     C36205   6.786   1.588   7.438 -0.4840 -1.2282 -0.7037
  269MOL0     C36206   6.756   1.621   7.566 -0.1526 -0.0573  0.2511
  269MOL0     C36207   6.661   1.546   7.644  0.7247  0.5981 -0.1543
  269MOL0     C36208   6.583   1.440   7.581  0.7318  0.0332  0.3044
  269MOL0     C36209   6.479   1.364   7.656  0.2348 -0.5233 -0.5295
  269MOL0     O36210   6.397   1.274   7.592  0.1221  0.0363  0.2017
  269MOL0     C36211   6.299   1.218   7.673 -0.5507 -1.3015 -0.1656
  269MOL0     C36212   6.341   1.114   7.760 -0.3584  0.3954 -0.6086
  269MOL0     C36213   6.244   1.040   7.823 -0.0508 -0.2859  0.1672
  269MOL0     C36214   6.109   1.069   7.803  0.9452  0.0176 -0.9645
  269MOL0     O36215   6.012   0.995   7.876 -0.1777  0.0800 -0.4249
  269MOL0     C36216   5.885   0.971   7.822 -0.1530  0.7246  0.1474
  269MOL0     C36217   5.910   0.871   7.710  0.1047 -0.3003  0.2031
  269MOL0     C36218   5.773   0.805   7.670 -0.1519 -0.3679 -0.3683
  269MOL0     C36219   5.779   0.660   7.630  0.7892 -0.2302  0.7312
  269MOL0     C36220   5.637   0.632   7.579  0.4847 -0.9305 -0.0246
  269MOL0     C36221   5.641   0.499   7.512  0.0032  0.2110  0.1318
  269MOL0     C36222   5.522   0.492   7.414  0.2437  1.1662 -0.4461
  269MOL0     C36223   5.525   0.362   7.325 -0.5671 -0.1988 -0.1008
  269MOL0    Cl36224   5.381   0.380   7.214 -0.4273 -0.2781 -0.6277
  269MOL0     C36225   6.064   1.176   7.727 -0.8588 -0.5850 -0.1298
  269MOL0     C36226   6.168   1.249   7.661 -0.0833 -1.1585  0.1257
  269MOL0     O36227   6.479   1.399   7.780  0.7971 -0.4548  1.0632
  269MOL0     C36228   6.601   1.428   7.448 -0.3521  0.0095 -0.6587
  269MOL0     C36229   6.704   1.494   7.374 -0.2499  0.5127  0.1969
  269MOL0     N36230   7.526   1.511   7.561  0.3962 -0.9412 -0.0329
  269MOL0     N36231   7.652   1.521   7.525  0.4909  0.4857 -0.3031
  269MOL0     C36232   8.380   2.178   7.327  0.1558  0.4989 -0.1102
  269MOL0     C36233   8.382   2.288   7.420  0.1849 -0.6755  0.0810
  269MOL0     C36234   8.492   2.640   7.687 -0.2447  1.3951 -0.3264
  269MOL0     C36235   8.405   2.742   7.717  0.2558  0.7833 -0.0123
  269MOL0     C36236   8.442   2.850   7.798 -0.2656 -0.1655 -0.3984
  269MOL0     C36237   8.562   2.848   7.869 -0.2200  0.8018  0.7179
  269MOL0     O36238   8.596   2.959   7.932  0.6039  0.2282 -0.2404
  269MOL0     C36239   8.652   2.952   8.061 -0.4139 -0.2969  0.1962
  269MOL0     C36240   8.809   2.987   8.053  0.9779 -0.9607  0.1100
  269MOL0     C36241   8.885   2.964   8.187 -0.2139 -0.0973  0.3488
  269MOL0     C36242   8.881   3.067   8.301 -0.7541  0.2614  0.6584
  269MOL0     C36243   8.989   3.164   8.278  0.1754 -0.0790  1.1181
  269MOL0     C36244   9.083   3.233   8.263 -0.1957 -1.0190 -0.5129
  269MOL0     C36245   8.641   2.739   7.856 -1.1580  0.0024 -0.2272
  269MOL0     C36246   8.613   2.634   7.769 -0.6539 -0.3114  0.4889
  269MOL0     C36247   8.732   2.533   7.757  0.7111 -0.4541 -0.0649
  269MOL0     H36248   8.702   2.265   7.521 -0.7168 -0.9118  0.7254
  269MOL0     H36249   8.700   2.081   7.344 -1.6532 -3.0266  0.9789
  269MOL0     H36250   8.633   1.888   7.189 -1.0799  0.1345 -2.2556
  269MOL0     H36251   8.575   1.887   7.357  1.2505  0.3055 -0.4484
  269MOL0     H36252   8.495   1.672   7.206  4.0987  0.9984  2.8336
  269MOL0     H36253   8.389   1.778   7.133  1.6026 -0.1452 -1.0855
  269MOL0     H36254   8.266   1.812   7.329 -2.2563 -2.5244 -0.5951
  269MOL0     H36255   8.402   1.771   7.442  1.9717  4.1518 -0.9316
  269MOL0     H36256   8.296   1.551   7.267 -0.4624  1.1372 -0.4181
  269MOL0     H36257   8.386   1.563   7.415  0.8926  2.7439 -0.4514
  269MOL0     H36258   8.162   1.483   7.458 -0.3717  0.6145 -1.8582
  269MOL0     H36259   8.186   1.640   7.539 -1.7816  1.0226 -0.4621
  269MOL0     H36260   8.047   1.756   7.368 -0.3776  0.4076 -0.8248
  269MOL0     H36261   8.043   1.608   7.270  2.1187 -0.6322  1.2037
  269MOL0     H36262   7.914   1.648   7.547 -1.4074 -0.9581 -0.1667
  269MOL0     H36263   7.905   1.498   7.468 -1.9057 -0.1557  0.8250
  269MOL0     H36264   7.801   1.758   7.347  0.3063  0.5703 -0.2835
  269MOL0     H36265   7.773   1.611   7.273  1.2740 -1.8934 -0.7116
  269MOL0     H36266   7.527   1.793   7.390 -0.5798  0.1352 -0.0225
  269MOL0     H36267   7.281   1.631   7.647  0.3279 -2.8680 -1.5420
  269MOL0     H36268   7.304   1.771   7.549 -0.5869 -0.1945  0.0502
  269MOL0     H36269   7.276   1.641   7.337 -0.8565  0.1656  0.7400
  269MOL0     H36270   7.232   1.499   7.433 -1.9337 -0.4165  2.5362
  269MOL0     H36271   7.083   1.753   7.440 -1.6414 -0.3625 -0.6022
  269MOL0     H36272   7.060   1.644   7.568 -2.5900  2.4859 -1.1713
  269MOL0     H36273   6.993   1.476   7.366 -1.2896 -0.4115 -2.8895
  269MOL0     H36274   7.048   1.597   7.261  1.4466  0.7457  1.5353
  269MOL0     H36275   6.814   1.705   7.604  0.4847 -0.3634 -0.0328
  269MOL0     H36276   6.634   1.562   7.748 -0.9591 -0.0218 -0.4561
  269MOL0     H36277   6.446   1.090   7.775  0.1783  2.3637 -1.0410
  269MOL0     H36278   6.268   0.961   7.894 -1.0422  1.2490  2.3325
  269MOL0     H36279   5.828   0.924   7.903 -1.7011  3.4159  0.7508
  269MOL0     H36280   5.820   1.054   7.793  0.8196  0.9419 -1.5669
  269MOL0     H36281   5.961   0.922   7.628 -0.8249 -0.7786 -0.6939
  269MOL0     H36282   5.978   0.798   7.754  0.0280  0.4410  1.6014
  269MOL0     H36283   5.718   0.796   7.764  3.2406  0.3386  1.9207
  269MOL0     H36284   5.730   0.871   7.594  2.5836  2.1340  0.0647
  269MOL0     H36285   5.827   0.596   7.705  0.7998 -0.9828  0.0933
  269MOL0     H36286   5.851   0.660   7.547 -3.1920  2.5772 -3.1926
  269MOL0     H36287   5.591   0.708   7.515  0.4569 -0.5124  0.4882
  269MOL0     H36288   5.578   0.645   7.670  0.2437  4.8254 -0.5887
  269MOL0     H36289   5.724   0.490   7.442  0.4203  3.4218  0.1056
  269MOL0     H36290   5.644   0.409   7.575 -0.5251 -1.2211 -1.7797
  269MOL0     H36291   5.537   0.579   7.350  1.3528  1.6789  0.4873
  269MOL0     H36292   5.432   0.484   7.476 -0.0365 -0.8078 -1.0329
  269MOL0     H36293   5.611   0.359   7.258 -1.0247  0.6480 -0.7469
  269MOL0     H36294   5.508   0.275   7.389 -1.1285 -0.7741 -1.0036
  269MOL0     H36295   5.968   1.227   7.740 -0.7407 -0.2762 -0.4580
  269MOL0     H36296   6.126   1.326   7.597 -0.7220 -3.4933 -2.4716
  269MOL0     H36297   6.522   1.369   7.402 -3.1173  0.7999  2.6195
  269MOL0     H36298   6.730   1.472   7.271  3.1331  2.0213  0.5916
  269MOL0     H36299   8.282   2.145   7.294  0.1461  0.3992  0.0208
  269MOL0     H36300   8.284   2.333   7.429  0.3848  0.4969 -2.6088
  269MOL0     H36301   8.301   2.737   7.689  0.2276  2.9371 -0.4338
  269MOL0     H36302   8.373   2.931   7.820  1.9873  2.8923 -3.3880
  269MOL0     H36303   8.630   2.855   8.106  1.0180 -0.9291 -0.4342
  269MOL0     H36304   8.602   3.023   8.129  1.0314  0.6592  0.3086
  269MOL0     H36305   8.813   3.092   8.020 -0.8092 -0.5114  1.1640
  269MOL0     H36306   8.845   2.924   7.972 -1.7551 -1.4577 -0.8397
  269MOL0     H36307   8.992   2.948   8.173 -0.0732  0.4568  0.7896
  269MOL0     H36308   8.849   2.872   8.235 -0.9956 -0.4216 -0.8265
  269MOL0     H36309   8.785   3.118   8.308 -0.9785 -0.0293 -0.1806
  269MOL0     H36310   8.895   3.011   8.394  0.3702 -2.5769 -1.0908
  269MOL0     H36311   9.163   3.304   8.269 -1.1613  0.0107  0.6661
  269MOL0     H36312   8.740   2.753   7.899 -1.2758  1.7760 -0.4566
  269MOL0     H36313   8.799   2.565   7.838  2.5688  0.6928 -1.9735
  269MOL0     H36314   8.705   2.427   7.763  0.3015 -0.5267 -2.2922
  269MOL0     H36315   8.785   2.541   7.662  0.5307 -1.4153 -0.2615
  270MOL0     O36316   6.016   0.744   8.782  0.3302 -0.4179  0.2455
  270MOL0     C36317   5.940   0.780   8.872 -0.6072 -0.6381  0.2784
  270MOL0     O36318   5.982   0.780   9.005  0.2266 -0.3832  0.4596
  270MOL0     C36319   6.064   0.682   9.048 -0.3390  1.3710  0.2005
  270MOL0     C36320   6.075   0.555   8.991 -1.0447 -0.1704 -0.1857
  270MOL0     C36321   6.145   0.456   9.049  0.0951  0.3116 -0.0320
  270MOL0     C36322   6.209   0.475   9.178 -0.3862  0.0315  0.1213
  270MOL0     O36323   6.285   0.379   9.242  0.4996  0.4834  0.1609
  270MOL0     C36324   6.341   0.269   9.172 -0.5359  0.4388  0.4470
  270MOL0     C36325   6.443   0.204   9.264 -0.4146 -0.5995  0.0675
  270MOL0     C36326   6.570   0.285   9.294 -0.0431  0.2671 -0.7106
  270MOL0     C36327   6.661   0.206   9.404  0.2192  0.4244  0.0634
  270MOL0     C36328   6.792   0.282   9.421  0.2119  1.0752  0.5574
  270MOL0     C36329   6.909   0.194   9.474 -1.1413  0.0228 -0.5458
  270MOL0     C36330   7.042   0.276   9.449  0.2809  0.4317  0.5064
  270MOL0     C36331   7.108   0.254   9.309 -0.2197  1.2259 -0.0218
  270MOL0     N36332   7.246   0.310   9.291  0.3281  0.0720  0.5833
  270MOL0     C36333   7.357   0.246   9.350  0.1489  0.0350 -0.0321
  270MOL0     C36334   7.460   0.334   9.325 -0.1959 -0.5339  0.0937
  270MOL0     C36335   7.597   0.304   9.362 -0.2368  0.6325 -0.0359
  270MOL0     C36336   7.617   0.304   9.503 -0.2581 -0.2430  0.5270
  270MOL0     C36337   7.603   0.169   9.570  0.6816  0.1198  0.3172
  270MOL0     C36338   7.535   0.176   9.710  0.1483 -0.6447 -0.7921
  270MOL0     O36339   7.574   0.283   9.800  0.2807 -0.2114  0.0446
  270MOL0     C36340   7.676   0.258   9.888  0.2860 -0.3290 -0.2136
  270MOL0     C36341   7.696   0.363   9.978 -0.2477 -0.5691  0.1988
  270MOL0     C36342   7.778   0.341  10.092  1.2293 -0.0899 -0.3061
  270MOL0     C36343   7.861   0.237  10.100 -0.6201 -0.3423 -0.1557
  270MOL0     C36344   7.954   0.219  10.213  0.2262  0.0971 -0.8469
  270MOL0     O36345   8.020   0.093  10.219 -0.2442 -0.4451 -0.2111
  270MOL0     C36346   8.115   0.071  10.323  0.1660 -0.8143  0.8900
  270MOL0     C36347   8.139  -0.057  10.369 -0.7846  0.3265  0.7274
  270MOL0     C36348   8.239  -0.072  10.467 -0.4176  0.2786  0.1536
  270MOL0     C36349   8.317   0.033  10.516 -0.3368  0.3313 -0.8934
  270MOL0     O36350   8.427   0.003  10.604  0.6943  0.4535 -0.2609
  270MOL0     C36351   8.540   0.082  10.581 -0.2631 -0.9424  0.1919
  270MOL0     C36352   8.663   0.031  10.660  0.2013  0.4333  0.2719
  270MOL0     C36353   8.629   0.016  10.809 -0.7436 -0.2780 -0.2934
  270MOL0     C36354   8.730  -0.091  10.866 -0.0223  0.7740  0.2664
  270MOL0     C36355   8.748  -0.062  11.012  0.3250  1.2401  0.6924
  270MOL0     C36356   8.624  -0.140  11.081  0.4735 -0.3191  0.5291
  270MOL0     C36357   8.642  -0.120  11.230 -0.3122  0.2846  0.3628
  270MOL0     C36358   8.529  -0.187  11.303 -0.3123  0.3311  0.3301
  270MOL0    Cl36359   8.529  -0.146  11.478 -0.2928 -0.0041 -0.0476
  270MOL0     C36360   8.281   0.162  10.485 -0.3214 -0.7541 -1.1149
  270MOL0     C36361   8.187   0.179  10.378  0.4060 -0.3946 -0.0520
  270MOL0     O36362   7.946   0.304  10.305 -0.6128 -0.8361 -0.5758
  270MOL0     C36363   7.853   0.144   9.997 -0.1079  0.0933  0.3010
  270MOL0     C36364   7.765   0.144   9.897 -0.1985 -0.6006 -0.0037
  270MOL0     N36365   7.408   0.445   9.268 -0.7271 -0.0180 -0.4812
  270MOL0     N36366   7.283   0.437   9.249  0.5865  0.2989  0.3184
  270MOL0     C36367   6.201   0.603   9.232  0.4931  0.9613  0.2237
  270MOL0     C36368   6.133   0.707   9.165 -0.7046  1.4980  0.0546
  270MOL0     C36369   5.809   0.847   8.834 -0.0019  0.6086  0.4255
  270MOL0     C36370   5.729   0.881   8.949 -0.7467  0.3401  0.1187
  270MOL0     C36371   5.604   0.948   8.932 -0.0566 -0.3112  0.8870
  270MOL0     C36372   5.556   0.972   8.797  0.1052  0.0470  0.2992
  270MOL0     O36373   5.443   1.052   8.765 -0.3720  0.1602 -0.1254
  270MOL0     C36374   5.479   1.175   8.698  1.6244  0.4799  0.7362
  270MOL0     C36375   5.354   1.273   8.672 -0.4078  0.8851  0.1424
  270MOL0     C36376   5.394   1.397   8.600  0.3404 -0.1827  0.3823
  270MOL0     C36377   5.269   1.481   8.573  0.7413  0.2759 -0.3834
  270MOL0     C36378   5.324   1.595   8.495 -0.2256  0.9242  0.5448
  270MOL0     C36379   5.360   1.680   8.423  0.2195  0.0419 -0.4625
  270MOL0     C36380   5.635   0.925   8.688  1.2666 -0.7806  0.6076
  270MOL0     C36381   5.755   0.867   8.704  0.3025 -0.4375  0.2985
  270MOL0     C36382   5.834   0.850   8.575 -0.3382  0.6234 -0.5851
  270MOL0     H36383   6.029   0.520   8.899  0.2241 -2.1807 -0.1178
  270MOL0     H36384   6.146   0.356   9.009  3.3990  0.1780  0.0971
  270MOL0     H36385   6.269   0.191   9.144 -0.0391  0.7926 -1.9708
  270MOL0     H36386   6.393   0.300   9.082  0.5325 -0.0218  0.8897
  270MOL0     H36387   6.462   0.105   9.221  1.7112 -0.5929  0.8625
  270MOL0     H36388   6.395   0.195   9.362 -1.3084  1.5209 -0.1264
  270MOL0     H36389   6.550   0.387   9.328 -0.9814 -0.3807  0.7503
  270MOL0     H36390   6.618   0.302   9.197  2.6628 -0.1460  0.4927
  270MOL0     H36391   6.597   0.190   9.492  0.8395 -1.1713  0.2610
  270MOL0     H36392   6.681   0.106   9.364  2.1705  0.1881  1.4496
  270MOL0     H36393   6.815   0.321   9.321 -0.7701  1.1812  0.3549
  270MOL0     H36394   6.777   0.372   9.481 -3.4922  0.7548  0.3804
  270MOL0     H36395   6.898   0.170   9.580 -2.4163 -0.8965 -0.8658
  270MOL0     H36396   6.912   0.098   9.422 -1.6260  1.2625 -3.0466
  270MOL0     H36397   7.106   0.246   9.532 -0.6806  3.0976  2.3553
  270MOL0     H36398   7.017   0.382   9.459 -0.8480  0.0903  1.5701
  270MOL0     H36399   7.099   0.150   9.277  1.7152  1.0937 -0.2565
  270MOL0     H36400   7.048   0.305   9.233 -0.5428  1.0711  0.1259
  270MOL0     H36401   7.371   0.148   9.394 -0.4760 -2.0833 -4.0379
  270MOL0     H36402   7.624   0.209   9.313 -3.0279 -0.7837  0.9885
  270MOL0     H36403   7.656   0.385   9.318 -0.4779  1.2925  0.8171
  270MOL0     H36404   7.713   0.353   9.522 -1.3716  2.0271  0.6158
  270MOL0     H36405   7.545   0.374   9.545 -1.0145  1.5118 -3.2898
  270MOL0     H36406   7.702   0.121   9.573  2.0023  2.5047 -1.7806
  270MOL0     H36407   7.538   0.108   9.508  1.4141 -0.8023  0.4337
  270MOL0     H36408   7.534   0.077   9.755 -1.4725  0.1146  0.9902
  270MOL0     H36409   7.428   0.202   9.703 -0.5402 -2.4512  1.6839
  270MOL0     H36410   7.653   0.462   9.968 -0.2659 -0.5052  0.8839
  270MOL0     H36411   7.780   0.416  10.170  1.4614 -1.0496  0.6358
  270MOL0     H36412   8.092  -0.151  10.340  0.6644 -1.1119  2.7175
  270MOL0     H36413   8.261  -0.174  10.497  2.0770 -0.2514 -2.8657
  270MOL0     H36414   8.569   0.083  10.476  1.1914  0.1096  0.5758
  270MOL0     H36415   8.512   0.181  10.618 -0.9525 -1.1561  0.2671
  270MOL0     H36416   8.688  -0.060  10.604 -0.2698  0.0346  0.6986
  270MOL0     H36417   8.739   0.109  10.650  2.6076 -1.6217  1.0629
  270MOL0     H36418   8.641   0.109  10.867  1.9158 -2.2875  2.7355
  270MOL0     H36419   8.526  -0.016  10.825 -1.2101  1.2395 -0.0768
  270MOL0     H36420   8.825  -0.074  10.816 -1.0627  2.2219 -1.3504
  270MOL0     H36421   8.697  -0.193  10.845  0.9805  0.4412  0.2856
  270MOL0     H36422   8.763   0.043  11.041  1.8546  2.2095 -2.9874
  270MOL0     H36423   8.832  -0.123  11.047  0.3887  1.9662  1.8878
  270MOL0     H36424   8.528  -0.099  11.049  0.8338  1.0357  1.0955
  270MOL0     H36425   8.625  -0.244  11.046 -1.9750 -0.1723 -0.1724
  270MOL0     H36426   8.646  -0.013  11.255  0.3632  0.5299 -0.7176
  270MOL0     H36427   8.734  -0.168  11.263 -1.3018 -0.3521  2.3945
  270MOL0     H36428   8.432  -0.164  11.258  1.1074  0.0158 -3.2575
  270MOL0     H36429   8.543  -0.295  11.292 -0.5507  0.5222 -2.8555
  270MOL0     H36430   8.324   0.251  10.530 -1.6312 -0.6520 -0.0290
  270MOL0     H36431   8.168   0.279  10.340 -1.9673 -0.6156  0.3808
  270MOL0     H36432   7.925   0.063   9.998 -0.7446 -0.4931 -0.4173
  270MOL0     H36433   7.783   0.072   9.817  1.9786  0.5034 -0.5992
  270MOL0     H36434   6.264   0.627   9.317 -1.3346  2.1766  1.2994
  270MOL0     H36435   6.140   0.805   9.212  2.9526  0.3220  2.4184
  270MOL0     H36436   5.753   0.856   9.051  1.8652  2.0339 -0.0117
  270MOL0     H36437   5.549   0.986   9.018  0.6407 -1.1605  1.7305
  270MOL0     H36438   5.530   1.167   8.601  0.4996 -0.2093  0.1838
  270MOL0     H36439   5.553   1.222   8.764  2.3293 -1.1231  1.1408
  270MOL0     H36440   5.307   1.306   8.764 -0.9307  0.8352 -0.1024
  270MOL0     H36441   5.287   1.217   8.606  0.3646 -0.6123  0.5823
  270MOL0     H36442   5.444   1.368   8.507  2.0267  1.9088  0.5643
  270MOL0     H36443   5.473   1.449   8.655  1.0082  0.3171 -0.9938
  270MOL0     H36444   5.184   1.437   8.520 -0.2373  0.5572  0.9072
  270MOL0     H36445   5.226   1.523   8.664 -0.2228 -5.2770  2.1657
  270MOL0     H36446   5.380   1.769   8.367  1.6538  0.6475  0.9645
  270MOL0     H36447   5.612   0.945   8.584  0.0230  3.6445  1.5233
  270MOL0     H36448   5.932   0.899   8.570  1.0937 -1.6459  2.2483
  270MOL0     H36449   5.847   0.743   8.560  0.2786  0.5335  0.4768
  270MOL0     H36450   5.770   0.884   8.493  0.2524  0.6607 -1.0325
  271MOL0     O36451   0.608  10.395   4.816 -0.4481 -0.1748 -0.2984
  271MOL0     C36452   0.554  10.364   4.921  0.2479 -0.1315  0.5857
  271MOL0     O36453   0.445  10.289   4.922  0.3047  0.4007  0.5006
  271MOL0     C36454   0.378  10.271   4.809  0.2440  0.3300 -0.2887
  271MOL0     C36455   0.273  10.360   4.774 -0.6255 -0.2272 -0.1753
  271MOL0     C36456   0.194  10.336   4.661 -0.0870  0.2006  0.1576
  271MOL0     C36457   0.218  10.231   4.576 -0.0126  0.1375 -1.7354
  271MOL0     O36458   0.157  10.211   4.458  0.1525  0.2667  0.3606
  271MOL0     C36459   0.061  10.303   4.398  0.4664 -0.4356  0.2735
  271MOL0     C36460  -0.081  10.257   4.456 -0.1906 -0.1895  0.4773
  271MOL0     C36461  -0.169  10.364   4.383 -0.2939  0.4521  0.0930
  271MOL0     C36462  -0.312  10.350   4.407 -0.2103 -0.5571  0.0442
  271MOL0     C36463  -0.402  10.415   4.303  0.3728  0.0005  0.7391
  271MOL0     C36464  -0.376  10.562   4.267  0.1242 -0.7084  0.5457
  271MOL0     C36465  -0.475  10.614   4.166 -0.1386 -0.5706  0.0898
  271MOL0     C36466  -0.494  10.768   4.173 -0.7435 -0.0068  0.3451
  271MOL0     N36467  -0.612  10.818   4.093 -0.0697 -0.5592  0.4733
  271MOL0     C36468  -0.696  10.737   4.019 -0.7195  0.3275 -0.2717
  271MOL0     C36469  -0.802  10.810   3.997 -0.2418 -0.8335  0.5385
  271MOL0     C36470  -0.921  10.766   3.908  0.0462  0.3775 -0.1461
  271MOL0     C36471  -1.003  10.879   3.835  1.0436 -0.3620 -0.3631
  271MOL0     C36472  -1.068  10.831   3.714 -0.8636  0.4305 -0.8459
  271MOL0     C36473  -1.189  10.906   3.678 -0.4108 -0.3957 -0.4638
  271MOL0     O36474  -1.201  10.859   3.539  0.2110 -0.1192 -0.2688
  271MOL0     C36475  -1.315  10.903   3.478 -0.7048 -0.9350  0.4622
  271MOL0     C36476  -1.396  10.814   3.400 -0.7719 -0.8122  0.2291
  271MOL0     C36477  -1.515  10.849   3.340 -0.1425 -0.3211  0.0633
  271MOL0     C36478  -1.573  10.979   3.361  0.4266 -0.4298  0.4440
  271MOL0     C36479  -1.696  11.031   3.311  0.2662  0.4506  0.3674
  271MOL0     O36480  -1.739  11.151   3.367 -0.1444 -0.1400 -1.1875
  271MOL0     C36481  -1.860  11.207   3.339 -0.3730 -0.2168  0.0197
  271MOL0     C36482  -1.983  11.136   3.344 -0.6433  0.0380  0.1490
  271MOL0     C36483  -2.097  11.207   3.322 -0.3755 -0.5053  0.0631
  271MOL0     C36484  -2.097  11.347   3.315 -0.6939  0.6031 -0.3530
  271MOL0     O36485  -2.203  11.423   3.299 -0.4802  0.3883  0.2578
  271MOL0     C36486  -2.316  11.367   3.234 -0.1638 -0.7062  0.2994
  271MOL0     C36487  -2.364  11.463   3.132  0.1509  0.2624  1.0668
  271MOL0     C36488  -2.467  11.382   3.048  0.3079 -0.5451 -0.3822
  271MOL0     C36489  -2.560  11.475   2.970 -0.0191 -0.5856 -0.1553
  271MOL0     C36490  -2.639  11.386   2.876 -0.3053  0.0567  1.1138
  271MOL0     C36491  -2.751  11.468   2.804 -0.6749 -0.5135 -0.5320
  271MOL0     C36492  -2.890  11.467   2.867 -0.2844 -1.0519 -0.5372
  271MOL0     C36493  -2.995  11.506   2.768  1.1697 -0.3560  0.7630
  271MOL0    Cl36494  -2.969  11.672   2.736  0.2313 -0.7084 -0.5578
  271MOL0     C36495  -1.972  11.418   3.318 -0.0945 -1.9337 -0.3793
  271MOL0     C36496  -1.858  11.345   3.337 -0.1395  0.6019  0.6812
  271MOL0     O36497  -1.760  10.969   3.228 -0.6745  0.8588 -0.1301
  271MOL0     C36498  -1.494  11.067   3.434  0.6426 -0.0229  0.3946
  271MOL0     C36499  -1.366  11.034   3.495  0.2461  0.3155 -0.0212
  271MOL0     N36500  -0.798  10.931   4.066  0.6595 -0.5719 -0.4377
  271MOL0     N36501  -0.675  10.941   4.112 -0.9161 -0.1417 -0.8073
  271MOL0     C36502   0.331  10.145   4.608 -0.1941  0.6177 -0.1361
  271MOL0     C36503   0.397  10.161   4.738 -0.6571  0.2977  0.9474
  271MOL0     C36504   0.623  10.374   5.043  0.6004 -0.5502 -0.4535
  271MOL0     C36505   0.619  10.273   5.142  0.9587 -0.1792  0.4904
  271MOL0     C36506   0.673  10.291   5.262  0.7116 -0.7211 -0.2297
  271MOL0     C36507   0.748  10.394   5.297  0.0589  1.0486 -0.5807
  271MOL0     O36508   0.797  10.394   5.426  0.4670  0.1088  0.3771
  271MOL0     C36509   0.921  10.465   5.446  0.4202 -0.1349  0.8139
  271MOL0     C36510   0.891  10.540   5.578 -0.2775  0.2658  0.7432
  271MOL0     C36511   1.019  10.612   5.613 -0.0549  0.0267 -0.1417
  271MOL0     C36512   1.022  10.755   5.561 -0.2384 -0.8942  0.5728
  271MOL0     C36513   1.035  10.768   5.416  0.7258  0.7656  0.1102
  271MOL0     C36514   1.039  10.790   5.293 -0.7154  0.7794 -0.2546
  271MOL0     C36515   0.759  10.498   5.210 -0.3241 -0.6540  0.8498
  271MOL0     C36516   0.686  10.498   5.089 -0.1410 -0.0962 -0.2412
  271MOL0     C36517   0.676  10.633   5.016  0.3652  0.8342 -0.4388
  271MOL0     H36518   0.245  10.433   4.850  1.2055  0.8834 -0.5123
  271MOL0     H36519   0.107  10.400   4.647 -0.9099 -0.1407  3.0791
  271MOL0     H36520   0.091  10.406   4.422  1.5866 -0.5350 -0.6347
  271MOL0     H36521   0.057  10.288   4.290 -3.4956 -0.0028  0.2433
  271MOL0     H36522  -0.090  10.253   4.565 -0.6267  3.4528  0.6954
  271MOL0     H36523  -0.113  10.157   4.424 -0.1941 -0.2272  0.5982
  271MOL0     H36524  -0.160  10.340   4.277 -0.3521  1.8588 -0.2423
  271MOL0     H36525  -0.136  10.465   4.409  2.2139  0.0056 -1.1000
  271MOL0     H36526  -0.348  10.247   4.415 -0.7944 -0.4334 -0.7970
  271MOL0     H36527  -0.320  10.399   4.504 -0.3745  3.0350 -1.6077
  271MOL0     H36528  -0.394  10.362   4.208 -1.7897  0.0053  0.4842
  271MOL0     H36529  -0.507  10.396   4.328  0.8001 -1.7375  1.3378
  271MOL0     H36530  -0.380  10.610   4.365  1.2762 -0.3089  0.4190
  271MOL0     H36531  -0.281  10.582   4.216 -1.4569  3.0281 -1.2909
  271MOL0     H36532  -0.570  10.560   4.175 -0.7582  0.0096 -2.2690
  271MOL0     H36533  -0.436  10.600   4.064  0.6792 -0.2373  0.3482
  271MOL0     H36534  -0.495  10.797   4.279  1.2060  0.9905  0.1394
  271MOL0     H36535  -0.405  10.807   4.122 -1.5584  0.2314 -0.9402
  271MOL0     H36536  -0.674  10.637   3.982 -1.7355 -0.9324  2.2933
  271MOL0     H36537  -0.872  10.697   3.839 -0.6277 -1.4434  1.1160
  271MOL0     H36538  -0.993  10.714   3.971  1.2763  0.8600  1.7532
  271MOL0     H36539  -1.071  10.919   3.911  2.2722  4.4309 -1.4530
  271MOL0     H36540  -0.934  10.957   3.802  0.1805  0.1606 -0.9752
  271MOL0     H36541  -1.107  10.731   3.730  0.5699  0.1779  1.6725
  271MOL0     H36542  -1.011  10.842   3.622 -0.8410  1.6712 -0.7055
  271MOL0     H36543  -1.176  11.014   3.683  0.4452 -0.1450 -4.5717
  271MOL0     H36544  -1.278  10.892   3.740  1.3779  1.2860  2.7424
  271MOL0     H36545  -1.353  10.716   3.384 -0.4263 -0.7403  0.6944
  271MOL0     H36546  -1.562  10.779   3.272  0.9115  1.7663 -3.0557
  271MOL0     H36547  -2.007  11.031   3.353 -1.8872  0.2929 -0.0541
  271MOL0     H36548  -2.183  11.141   3.319  0.1263 -1.1169 -2.1514
  271MOL0     H36549  -2.284  11.279   3.178  0.3540  0.3644 -1.1681
  271MOL0     H36550  -2.393  11.339   3.306  0.2037  1.7445  1.7495
  271MOL0     H36551  -2.416  11.546   3.181 -0.1807  1.1283 -0.6847
  271MOL0     H36552  -2.280  11.502   3.075  0.9080 -2.6485 -0.0038
  271MOL0     H36553  -2.414  11.316   2.978  0.3074 -1.5870  0.5743
  271MOL0     H36554  -2.534  11.327   3.115 -2.3388  0.6734 -1.8610
  271MOL0     H36555  -2.510  11.555   2.916  0.9640 -0.3877  0.9967
  271MOL0     H36556  -2.625  11.529   3.040  3.1751 -1.3887  3.8045
  271MOL0     H36557  -2.673  11.288   2.911  0.3666 -3.0555 -5.3232
  271MOL0     H36558  -2.572  11.360   2.793 -0.3947  3.1914 -0.0662
  271MOL0     H36559  -2.723  11.571   2.781 -4.3827 -0.1195 -4.5828
  271MOL0     H36560  -2.759  11.428   2.702  0.7417  0.9149 -1.2632
  271MOL0     H36561  -2.888  11.541   2.948  2.7510 -0.4526 -1.0449
  271MOL0     H36562  -2.902  11.366   2.906  0.5402 -0.5757  1.0353
  271MOL0     H36563  -2.982  11.456   2.671  0.5880  2.4106 -0.8536
  271MOL0     H36564  -3.091  11.481   2.814  1.5509  1.6678  2.8457
  271MOL0     H36565  -1.967  11.525   3.302 -2.0600 -1.5929  0.8925
  271MOL0     H36566  -1.757  11.385   3.338  0.1027  0.1765 -1.3380
  271MOL0     H36567  -1.536  11.164   3.460  0.8294 -0.2372  1.5693
  271MOL0     H36568  -1.313  11.108   3.554  2.6865 -2.1252  1.0765
  271MOL0     H36569   0.354  10.063   4.540 -2.0156 -1.4250  1.5583
  271MOL0     H36570   0.468  10.086   4.769  0.3742 -1.6098 -4.7221
  271MOL0     H36571   0.559  10.185   5.122 -2.0042  2.3305 -3.1957
  271MOL0     H36572   0.638  10.213   5.329 -3.2458  0.2276 -0.9612
  271MOL0     H36573   0.941  10.531   5.361 -2.3564  4.0079  3.0601
  271MOL0     H36574   1.008  10.398   5.452  0.0914 -0.6234  0.2708
  271MOL0     H36575   0.882  10.467   5.658  2.5391  1.7795  2.5764
  271MOL0     H36576   0.799  10.600   5.576  0.6798  1.7831 -0.7727
  271MOL0     H36577   1.104  10.551   5.580 -0.5876 -0.9207  0.1737
  271MOL0     H36578   1.035  10.619   5.721 -0.2392  0.9610 -0.1702
  271MOL0     H36579   0.932  10.798   5.607  0.4018 -0.2489  1.2421
  271MOL0     H36580   1.109  10.810   5.599 -0.8123  0.5095 -0.0868
  271MOL0     H36581   1.042  10.801   5.186 -2.6454 -0.6498 -0.5063
  271MOL0     H36582   0.816  10.587   5.231 -0.5582 -0.3060  0.0547
  271MOL0     H36583   0.609  10.616   4.931  1.8612  0.6541 -1.6338
  271MOL0     H36584   0.634  10.707   5.085 -1.7610 -0.6268 -0.0706
  271MOL0     H36585   0.775  10.658   4.976 -0.4025  1.7080 -1.8613
  272MOL0     O36586  10.322   2.809   3.021 -0.4529  0.4671  0.0401
  272MOL0     C36587  10.375   2.916   2.995 -0.4503  0.7719  0.6672
  272MOL0     O36588  10.373   3.022   3.065  0.0338 -0.2885 -0.6485
  272MOL0     C36589  10.338   3.012   3.200 -0.2047  0.4732  0.9505
  272MOL0     C36590  10.413   2.942   3.290  0.1756 -0.3658 -0.1169
  272MOL0     C36591  10.382   2.940   3.425  0.0111  0.0018 -1.6726
  272MOL0     C36592  10.287   3.020   3.480  0.6253 -0.1893  0.4784
  272MOL0     O36593  10.284   3.060   3.608  0.2017  1.1153 -0.5140
  272MOL0     C36594  10.371   3.014   3.711  0.5749  0.2679 -0.2408
  272MOL0     C36595  10.304   2.924   3.808  0.0920  1.6374 -0.3905
  272MOL0     C36596  10.259   2.797   3.735  0.5502 -0.6073 -0.1860
  272MOL0     C36597  10.238   2.678   3.842 -0.6742 -0.2621 -0.3725
  272MOL0     C36598  10.169   2.554   3.775 -0.1261  0.0123  0.2372
  272MOL0     C36599  10.103   2.457   3.877  0.6234  0.1696  0.0386
  272MOL0     C36600  10.004   2.347   3.815 -0.8244 -0.6158  0.1258
  272MOL0     C36601   9.948   2.243   3.910  0.3052 -0.2584  0.3728
  272MOL0     N36602  10.059   2.176   3.981  0.9131  0.0205 -0.1929
  272MOL0     C36603  10.129   2.072   3.936  0.2814 -0.3715 -1.0300
  272MOL0     C36604  10.213   2.041   4.039 -0.7218  0.5188 -0.0241
  272MOL0     C36605  10.317   1.928   4.050  0.5154 -0.5682 -0.9481
  272MOL0     C36606  10.429   1.952   3.949  0.5131  0.6220  0.1576
  272MOL0     C36607  10.523   2.068   3.984 -0.2482  0.5835  0.2507
  272MOL0     C36608  10.647   2.084   3.910 -0.5861  0.0155 -0.0771
  272MOL0     O36609  10.716   2.192   3.970  0.3255  0.0435  0.1592
  272MOL0     C36610  10.679   2.325   3.950 -0.0112  0.0789  0.4250
  272MOL0     C36611  10.756   2.414   4.025 -0.6257 -1.4833 -0.1962
  272MOL0     C36612  10.754   2.549   4.001  0.2424 -0.1081  0.4810
  272MOL0     C36613  10.665   2.601   3.907 -0.8078  0.0419  0.2575
  272MOL0     C36614  10.659   2.752   3.894  0.1475  0.2460  0.4166
  272MOL0     O36615  10.712   2.838   3.994  0.1964  0.0332  0.8692
  272MOL0     C36616  10.722   2.972   3.968  0.1169  1.1983 -0.4215
  272MOL0     C36617  10.613   3.048   3.987  0.4680 -0.1810 -0.7614
  272MOL0     C36618  10.610   3.176   3.931 -0.7551  0.5377 -0.7805
  272MOL0     C36619  10.722   3.231   3.878  0.6012  0.4249 -0.2949
  272MOL0     O36620  10.717   3.356   3.824  0.0647 -0.0488 -0.6765
  272MOL0     C36621  10.825   3.411   3.750 -0.1944  0.1775  0.1195
  272MOL0     C36622  10.778   3.552   3.691  0.5423 -0.4274  0.0782
  272MOL0     C36623  10.899   3.623   3.631  0.5975 -0.4124  0.7856
  272MOL0     C36624  10.856   3.761   3.561 -0.0502  0.6318 -0.2543
  272MOL0     C36625  10.810   3.871   3.656  0.4555  0.4340 -1.2945
  272MOL0     C36626  10.660   3.880   3.682 -0.2806  0.5023  0.8082
  272MOL0     C36627  10.582   3.952   3.569  0.0252  0.1790 -0.2458
  272MOL0     C36628  10.621   4.103   3.550  0.0715  0.5662  0.4874
  272MOL0    Cl36629  10.758   4.136   3.435  0.0751  0.3754 -0.1252
  272MOL0     C36630  10.839   3.153   3.883 -0.3809  0.6471  0.0092
  272MOL0     C36631  10.838   3.025   3.927 -0.3794 -0.5976  1.0080
  272MOL0     O36632  10.610   2.789   3.792 -0.9635  0.6003  0.4498
  272MOL0     C36633  10.584   2.520   3.830  0.1077 -0.9070 -0.4378
  272MOL0     C36634  10.596   2.385   3.846 -0.1679 -0.1726  0.3317
  272MOL0     N36635  10.192   2.120   4.147  0.9787  0.2910  0.3091
  272MOL0     N36636  10.092   2.198   4.110 -0.0573 -0.5509 -0.4468
  272MOL0     C36637  10.214   3.098   3.391 -0.5986  0.8555  0.3699
  272MOL0     C36638  10.240   3.096   3.262 -0.0319 -0.3383  0.2892
  272MOL0     C36639  10.413   2.933   2.857 -0.3200  0.0564  0.9258
  272MOL0     C36640  10.362   3.038   2.773 -0.6009  1.1726 -0.8906
  272MOL0     C36641  10.396   3.050   2.638  0.3350 -0.8032 -0.4683
  272MOL0     C36642  10.491   2.966   2.580  0.2290  0.7932 -0.3251
  272MOL0     O36643  10.541   2.986   2.456 -0.2871  1.1213 -0.0218
  272MOL0     C36644  10.449   3.014   2.352  0.7705  0.2718  0.8416
  272MOL0     C36645  10.507   2.966   2.211  0.0548 -0.3597 -0.5032
  272MOL0     C36646  10.393   2.921   2.113 -0.1334  0.4183 -0.9004
  272MOL0     C36647  10.322   3.040   2.050 -0.7826  0.8063 -0.1447
  272MOL0     C36648  10.218   2.991   1.959  0.4332 -0.4243  0.4144
  272MOL0     C36649  10.151   2.971   1.854 -0.2259 -0.0135 -0.5119
  272MOL0     C36650  10.549   2.866   2.666  0.0548  0.7836 -0.2159
  272MOL0     C36651  10.507   2.838   2.795 -0.3065  0.2745 -0.3675
  272MOL0     C36652  10.571   2.721   2.875 -0.2264 -0.0469  0.9707
  272MOL0     H36653  10.490   2.882   3.244  0.9495  0.8942 -0.5154
  272MOL0     H36654  10.431   2.862   3.483 -0.5616  2.0080  1.7562
  272MOL0     H36655  10.466   2.971   3.678 -0.0779  0.3843 -2.4211
  272MOL0     H36656  10.394   3.107   3.764 -0.2762  0.9111 -0.9727
  272MOL0     H36657  10.229   2.968   3.874 -0.4094 -0.6754  0.6888
  272MOL0     H36658  10.371   2.890   3.888 -0.9474  1.5235  0.4462
  272MOL0     H36659  10.334   2.763   3.663 -0.1643  0.3578 -1.4198
  272MOL0     H36660  10.161   2.810   3.689 -0.7455 -1.5109  2.1498
  272MOL0     H36661  10.327   2.659   3.901  0.4008  0.6293 -1.6393
  272MOL0     H36662  10.166   2.721   3.912 -1.7948 -1.3397 -0.8184
  272MOL0     H36663  10.094   2.583   3.702  1.0776  1.8907 -0.3227
  272MOL0     H36664  10.253   2.497   3.733  0.3514 -0.0696  1.2645
  272MOL0     H36665  10.179   2.403   3.934 -1.0910 -2.5892 -0.1341
  272MOL0     H36666  10.041   2.521   3.941 -2.1151 -0.9590 -1.3360
  272MOL0     H36667  10.056   2.292   3.735 -0.0434  0.6580 -0.2673
  272MOL0     H36668   9.929   2.395   3.753  2.3586  2.5440 -1.6841
  272MOL0     H36669   9.890   2.294   3.987 -0.1588  0.3608 -0.3714
  272MOL0     H36670   9.894   2.171   3.848  1.5580  1.1316 -2.5347
  272MOL0     H36671  10.136   2.027   3.837 -0.9297  1.9149 -2.2335
  272MOL0     H36672  10.353   1.927   4.154 -1.3988  3.6944 -0.0053
  272MOL0     H36673  10.259   1.838   4.030  0.9821 -1.5025  1.5033
  272MOL0     H36674  10.473   1.853   3.962 -1.7839 -0.4442  0.3868
  272MOL0     H36675  10.386   1.954   3.849  1.0610  0.5739 -0.0794
  272MOL0     H36676  10.554   2.038   4.084  1.8102 -3.9801 -1.5026
  272MOL0     H36677  10.465   2.161   3.993  0.0795  0.7086  1.1759
  272MOL0     H36678  10.618   2.094   3.805 -0.9376  1.1638  0.1199
  272MOL0     H36679  10.708   1.994   3.922 -1.0735 -0.3422 -0.2295
  272MOL0     H36680  10.805   2.367   4.109  1.9174 -0.5809 -1.0899
  272MOL0     H36681  10.805   2.611   4.074  0.8624 -1.0182  0.8378
  272MOL0     H36682  10.524   3.004   4.030  2.0107 -1.3321  1.4230
  272MOL0     H36683  10.517   3.231   3.941 -2.6310 -1.9286 -3.1070
  272MOL0     H36684  10.910   3.422   3.817 -1.0125 -2.2030  1.6528
  272MOL0     H36685  10.866   3.349   3.670  1.5748  0.6478  0.6239
  272MOL0     H36686  10.703   3.520   3.618  1.1405 -5.2030  1.2131
  272MOL0     H36687  10.734   3.616   3.768  0.5463 -1.3873  0.8956
  272MOL0     H36688  10.977   3.639   3.705 -0.2021  0.2436  1.5027
  272MOL0     H36689  10.913   3.561   3.541 -0.5105  0.7337 -0.2199
  272MOL0     H36690  10.775   3.751   3.488 -0.3763  4.3893 -0.5997
  272MOL0     H36691  10.938   3.794   3.496 -0.9081  1.5886 -0.8864
  272MOL0     H36692  10.845   3.970   3.627  1.9494  1.1523  2.3351
  272MOL0     H36693  10.854   3.857   3.755  0.8370  3.9136 -0.8588
  272MOL0     H36694  10.620   3.779   3.690 -1.7335  0.9588 -0.2253
  272MOL0     H36695  10.633   3.926   3.777 -1.8974  1.8849 -0.2572
  272MOL0     H36696  10.475   3.955   3.595 -0.3429  1.3696 -1.7532
  272MOL0     H36697  10.591   3.900   3.474  0.3665  0.6179 -0.4570
  272MOL0     H36698  10.536   4.146   3.496  0.2913  2.2954  1.4477
  272MOL0     H36699  10.638   4.155   3.645 -1.3361 -0.6865  1.4785
  272MOL0     H36700  10.929   3.195   3.840 -1.0101 -0.4359 -2.5774
  272MOL0     H36701  10.928   2.964   3.931  0.9882  1.3906  2.9911
  272MOL0     H36702  10.517   2.578   3.766  1.9390 -0.2965 -1.9132
  272MOL0     H36703  10.536   2.317   3.785  1.0168 -0.9200 -0.0213
  272MOL0     H36704  10.129   3.154   3.431 -2.6623 -0.6827 -1.6257
  272MOL0     H36705  10.181   3.157   3.195 -0.1882 -1.6277 -0.7909
  272MOL0     H36706  10.307   3.123   2.812 -2.1269  0.1231 -0.6506
  272MOL0     H36707  10.349   3.120   2.570 -0.2235  1.2572  1.9027
  272MOL0     H36708  10.438   3.123   2.354 -3.4501 -0.0176  1.8166
  272MOL0     H36709  10.361   2.952   2.367  1.8938 -1.9352 -1.0305
  272MOL0     H36710  10.564   2.872   2.218  1.6846  0.6813  1.0295
  272MOL0     H36711  10.572   3.044   2.171 -1.5285  1.0627 -0.3697
  272MOL0     H36712  10.327   2.852   2.167 -1.2886 -0.0332 -2.7821
  272MOL0     H36713  10.448   2.858   2.042 -1.2733  1.2406 -2.5698
  272MOL0     H36714  10.283   3.098   2.134  0.2345  1.6819 -0.2501
  272MOL0     H36715  10.401   3.089   1.991  2.3437 -3.2458  0.2482
  272MOL0     H36716  10.112   2.964   1.755 -0.8223  3.7082 -0.6985
  272MOL0     H36717  10.625   2.809   2.614 -2.4807 -1.2964 -1.9351
  272MOL0     H36718  10.675   2.710   2.845 -1.1216 -1.4053 -2.0493
  272MOL0     H36719  10.566   2.739   2.983 -1.5970 -0.2213  0.9553
  272MOL0     H36720  10.518   2.630   2.848 -1.4192  1.1150 -0.8706
  273MOL0     O36721   3.831   5.271   2.276 -0.2466 -0.4102  0.1752
  273MOL0     C36722   3.783   5.358   2.339  0.1456 -0.8635 -0.9144
  273MOL0     O36723   3.763   5.484   2.294  0.2191 -0.1000 -0.1288
  273MOL0     C36724   3.788   5.508   2.161 -0.8240 -0.6677  0.5996
  273MOL0     C36725   3.680   5.512   2.069  0.2061  0.2830  0.7268
  273MOL0     C36726   3.696   5.553   1.940  0.3762 -0.4229  0.1480
  273MOL0     C36727   3.825   5.575   1.892  0.1757  0.4454  0.3684
  273MOL0     O36728   3.853   5.601   1.760  0.2298 -1.1775 -0.1844
  273MOL0     C36729   3.764   5.688   1.681 -0.4478 -1.2510 -0.7294
  273MOL0     C36730   3.717   5.821   1.758 -0.1320 -0.5877  0.0443
  273MOL0     C36731   3.836   5.905   1.811  1.5297 -0.4229 -0.1232
  273MOL0     C36732   3.876   5.998   1.697  0.3871  0.5084 -0.2047
  273MOL0     C36733   4.002   6.071   1.740 -0.3288  0.8043  0.3063
  273MOL0     C36734   4.057   6.153   1.619  0.2479  0.1600 -0.1078
  273MOL0     C36735   4.171   6.237   1.670 -0.1165 -0.7352  0.1894
  273MOL0     C36736   4.237   6.314   1.548 -0.4154 -0.5713  0.8127
  273MOL0     N36737   4.159   6.427   1.499  0.4177 -0.6019  0.2635
  273MOL0     C36738   4.220   6.529   1.430  0.7076 -0.3630 -0.4037
  273MOL0     C36739   4.120   6.612   1.409 -0.4564 -0.6875 -0.8468
  273MOL0     C36740   4.133   6.749   1.344 -0.2850  0.3851  0.0661
  273MOL0     C36741   4.243   6.756   1.231  0.5387 -0.6330  0.2473
  273MOL0     C36742   4.227   6.883   1.136  0.1075 -0.6002  0.4055
  273MOL0     C36743   4.193   7.018   1.206 -0.2421 -0.2414 -0.0570
  273MOL0     O36744   4.051   7.053   1.207  0.3797 -0.1156  0.3537
  273MOL0     C36745   4.037   7.190   1.234  0.0894  0.1775  0.0510
  273MOL0     C36746   4.064   7.237   1.365  0.2007 -0.2832  0.4265
  273MOL0     C36747   4.049   7.381   1.389 -0.8726  0.7128 -0.2563
  273MOL0     C36748   4.010   7.463   1.289 -0.2743 -0.3310  0.7188
  273MOL0     C36749   4.001   7.606   1.310 -0.1614  0.1558  0.0820
  273MOL0     O36750   4.048   7.661   1.433  0.3634  0.0576 -0.7251
  273MOL0     C36751   4.065   7.796   1.444  1.0995  1.2923  0.2784
  273MOL0     C36752   3.961   7.882   1.422 -0.0743  0.3695  0.0526
  273MOL0     C36753   3.978   8.019   1.430  0.0151 -1.3089  0.3487
  273MOL0     C36754   4.110   8.066   1.449 -0.3715 -0.1590  0.2797
  273MOL0     O36755   4.118   8.206   1.444  0.6703  0.5363  0.0600
  273MOL0     C36756   4.233   8.269   1.497  0.2947 -0.1040 -0.6862
  273MOL0     C36757   4.218   8.414   1.499  0.4225 -0.4850 -0.1302
  273MOL0     C36758   4.325   8.490   1.588 -0.5251 -0.7661  1.1717
  273MOL0     C36759   4.293   8.489   1.738 -0.5707  0.7462 -0.4761
  273MOL0     C36760   4.382   8.592   1.812  0.2928 -0.2547  0.0274
  273MOL0     C36761   4.364   8.568   1.961 -0.7180  0.1756  0.1123
  273MOL0     C36762   4.457   8.450   2.012  0.7369  0.4382  0.8260
  273MOL0     C36763   4.540   8.491   2.137 -0.1754  0.1475  0.2454
  273MOL0    Cl36764   4.700   8.573   2.118 -0.0806 -0.4895 -0.0104
  273MOL0     C36765   4.219   7.975   1.475  0.0291  0.0925 -0.4294
  273MOL0     C36766   4.184   7.839   1.476 -0.5714  0.5236 -1.1872
  273MOL0     O36767   3.954   7.670   1.223  0.2541 -0.2980  0.5116
  273MOL0     C36768   3.996   7.411   1.158 -1.1915  0.5341  0.3399
  273MOL0     C36769   4.005   7.277   1.136  0.2934 -0.7641  0.5916
  273MOL0     N36770   3.997   6.573   1.471 -0.1544 -0.1049  0.4328
  273MOL0     N36771   4.021   6.458   1.515  0.2994  0.0309 -0.5698
  273MOL0     C36772   3.939   5.555   1.974 -0.3172  0.0925  0.1592
  273MOL0     C36773   3.917   5.523   2.109 -0.6838  0.4603 -0.1448
  273MOL0     C36774   3.764   5.337   2.496  0.5238  0.0135  0.9556
  273MOL0     C36775   3.725   5.451   2.562 -0.0859 -0.5026 -0.7340
  273MOL0     C36776   3.727   5.457   2.706  1.0162  0.3766  0.4069
  273MOL0     C36777   3.752   5.341   2.775 -0.1852  0.1881 -0.4600
  273MOL0     O36778   3.750   5.336   2.913 -0.0803 -0.3088  0.1690
  273MOL0     C36779   3.760   5.208   2.981 -0.1812 -0.1002 -0.6489
  273MOL0     C36780   3.629   5.133   2.983 -0.4712 -0.8243 -1.1479
  273MOL0     C36781   3.635   5.006   3.092 -0.8854 -0.1408  0.1724
  273MOL0     C36782   3.557   5.043   3.218  0.5206 -0.4260 -0.4622
  273MOL0     C36783   3.626   5.139   3.298 -0.8332  0.1034 -0.2328
  273MOL0     C36784   3.678   5.233   3.358 -0.1251 -1.2212  0.0735
  273MOL0     C36785   3.783   5.220   2.698 -0.1163  0.0690  0.0653
  273MOL0     C36786   3.795   5.217   2.559 -0.4655  0.4749  0.9380
  273MOL0     C36787   3.837   5.090   2.490 -0.2880  0.6647  0.4581
  273MOL0     H36788   3.583   5.475   2.101  0.7552 -3.3097 -1.2327
  273MOL0     H36789   3.618   5.553   1.865 -0.6784  0.4313  1.2208
  273MOL0     H36790   3.808   5.713   1.584 -0.4434  2.1382  0.0379
  273MOL0     H36791   3.673   5.644   1.639 -3.1938  3.3398 -0.3610
  273MOL0     H36792   3.660   5.784   1.844  0.9908 -0.7574  0.7380
  273MOL0     H36793   3.659   5.892   1.698 -0.5229  1.1740  2.3460
  273MOL0     H36794   3.918   5.845   1.852  1.4121 -0.9057 -0.5805
  273MOL0     H36795   3.795   5.960   1.896 -1.4620 -1.5889 -0.6647
  273MOL0     H36796   3.905   5.938   1.610 -2.2540  1.2349 -1.7021
  273MOL0     H36797   3.792   6.065   1.676 -1.2617 -0.9369  1.4412
  273MOL0     H36798   3.986   6.138   1.825 -3.0362  0.5444  0.0997
  273MOL0     H36799   4.084   6.006   1.772 -2.5703 -2.4132 -0.0439
  273MOL0     H36800   4.088   6.077   1.546  0.4760 -1.7499  1.8444
  273MOL0     H36801   3.973   6.207   1.575  0.3696  0.6905  0.2945
  273MOL0     H36802   4.255   6.183   1.713  1.9971  2.4504  0.4396
  273MOL0     H36803   4.138   6.307   1.748  3.1493  0.7737  0.4086
  273MOL0     H36804   4.337   6.351   1.574 -0.5218  2.3862 -2.4104
  273MOL0     H36805   4.249   6.243   1.465  3.0568 -1.8539  2.2219
  273MOL0     H36806   4.320   6.524   1.390  0.7447 -0.9418 -0.2413
  273MOL0     H36807   4.037   6.768   1.296 -0.0722 -0.4727 -0.7317
  273MOL0     H36808   4.150   6.826   1.421 -1.9785  1.8319 -0.9252
  273MOL0     H36809   4.342   6.758   1.278  2.1735  0.7752 -2.9238
  273MOL0     H36810   4.217   6.676   1.161 -2.3530 -0.0863  0.6112
  273MOL0     H36811   4.144   6.865   1.067  0.6173 -0.0705 -0.3519
  273MOL0     H36812   4.315   6.881   1.072  1.4615 -3.8661  2.1060
  273MOL0     H36813   4.262   7.096   1.173  0.2722  0.5076  2.5782
  273MOL0     H36814   4.221   7.013   1.312 -0.9520 -0.6154  0.1222
  273MOL0     H36815   4.097   7.154   1.427  0.0389 -0.8230 -0.1822
  273MOL0     H36816   4.077   7.407   1.490 -2.9815  1.4410  0.1907
  273MOL0     H36817   3.862   7.844   1.399 -0.5179  0.8321  1.1411
  273MOL0     H36818   3.892   8.077   1.396 -2.7066 -3.8925  2.2633
  273MOL0     H36819   4.258   8.224   1.593  0.4330 -3.4933 -2.1315
  273MOL0     H36820   4.318   8.236   1.436  3.4790  4.3886  0.8291
  273MOL0     H36821   4.220   8.458   1.399 -2.5719  0.7398  0.2408
  273MOL0     H36822   4.122   8.443   1.541  2.4850  0.9458  4.2031
  273MOL0     H36823   4.426   8.461   1.559 -1.5897 -0.4714 -3.7885
  273MOL0     H36824   4.327   8.596   1.562  1.8988 -0.8557  0.7754
  273MOL0     H36825   4.293   8.386   1.774 -3.5164  0.8958  0.2322
  273MOL0     H36826   4.185   8.506   1.744 -0.8817 -0.9224 -0.9037
  273MOL0     H36827   4.337   8.689   1.787  1.1100  0.2292  0.3764
  273MOL0     H36828   4.488   8.590   1.785  1.3091  1.3462  3.3804
  273MOL0     H36829   4.407   8.663   1.992 -0.4103 -0.1132  0.5900
  273MOL0     H36830   4.259   8.561   1.992 -0.1054 -0.4998  2.2401
  273MOL0     H36831   4.523   8.402   1.939  0.6688 -0.1122  1.1250
  273MOL0     H36832   4.390   8.369   2.040 -1.5780  1.9176 -0.0941
  273MOL0     H36833   4.472   8.545   2.203 -2.7419 -0.4933 -1.6869
  273MOL0     H36834   4.555   8.393   2.181 -2.6293 -1.3331 -1.9309
  273MOL0     H36835   4.317   8.016   1.498  0.2359 -0.9477  0.6519
  273MOL0     H36836   4.259   7.762   1.488 -1.3341 -0.1592 -0.7064
  273MOL0     H36837   3.971   7.478   1.077  3.1841  0.3895 -1.4504
  273MOL0     H36838   3.975   7.241   1.038  0.6637  1.9107 -0.6060
  273MOL0     H36839   4.040   5.563   1.936  0.4554  0.2078  2.1385
  273MOL0     H36840   4.006   5.540   2.170 -0.2487  0.6779 -0.8238
  273MOL0     H36841   3.702   5.543   2.510 -1.2548 -0.6157 -0.4431
  273MOL0     H36842   3.701   5.547   2.761  2.7416  1.8449 -1.0686
  273MOL0     H36843   3.786   5.231   3.084  2.0804  1.7100 -1.5190
  273MOL0     H36844   3.837   5.142   2.938  0.3604  1.7501 -2.7035
  273MOL0     H36845   3.602   5.082   2.890 -4.0093 -1.1089 -0.0769
  273MOL0     H36846   3.553   5.207   3.008  2.3155  2.0166 -0.4928
  273MOL0     H36847   3.740   4.988   3.115 -0.0756  1.7277 -1.7479
  273MOL0     H36848   3.599   4.914   3.045 -2.6324  0.9580 -0.7462
  273MOL0     H36849   3.456   5.077   3.193  0.4896  0.0098  0.2282
  273MOL0     H36850   3.551   4.946   3.269 -0.6703 -0.0405  0.1578
  273MOL0     H36851   3.725   5.317   3.405 -1.8599 -2.0696  3.7190
  273MOL0     H36852   3.804   5.124   2.744 -2.4683  0.3406  1.8989
  273MOL0     H36853   3.840   4.999   2.552  3.3645 -2.7081 -3.9355
  273MOL0     H36854   3.773   5.059   2.407 -0.6143 -0.2026  1.0110
  273MOL0     H36855   3.933   5.107   2.440 -0.0647  4.8149  1.8793
  274MOL0     O36856   7.927   1.642   1.399 -0.1283  0.3602 -0.1321
  274MOL0     C36857   7.976   1.549   1.339 -0.2720 -0.7899  0.4525
  274MOL0     O36858   7.996   1.417   1.382  0.6317 -0.1150 -0.3058
  274MOL0     C36859   7.987   1.385   1.519  0.5509 -0.4185 -0.1662
  274MOL0     C36860   8.022   1.478   1.620 -0.2603  0.1843  0.1620
  274MOL0     C36861   7.999   1.434   1.756 -0.6271 -0.0033 -0.1490
  274MOL0     C36862   7.942   1.305   1.789 -0.5277 -0.4830  0.4393
  274MOL0     O36863   7.904   1.279   1.917  0.3679 -0.1616  0.2148
  274MOL0     C36864   7.993   1.310   2.030  0.8961  0.6659  0.3059
  274MOL0     C36865   7.967   1.229   2.155 -0.9609 -0.1326 -1.2124
  274MOL0     C36866   8.049   1.272   2.278  0.3502  0.4028  0.7457
  274MOL0     C36867   8.194   1.223   2.265  1.3941 -0.0653  0.6614
  274MOL0     C36868   8.268   1.249   2.391  0.1759 -0.4929 -0.2266
  274MOL0     C36869   8.413   1.193   2.375  0.0734  0.4721 -0.8739
  274MOL0     C36870   8.500   1.206   2.498 -0.3212  0.2264  0.7179
  274MOL0     C36871   8.553   1.346   2.526  0.3965  0.3027 -0.5937
  274MOL0     N36872   8.494   1.419   2.646  0.3322 -0.0914  0.3317
  274MOL0     C36873   8.355   1.445   2.675 -0.7350 -0.5878  0.5150
  274MOL0     C36874   8.359   1.502   2.800 -0.2169  0.8120  1.0034
  274MOL0     C36875   8.240   1.552   2.880  0.2438  1.0209 -0.5970
  274MOL0     C36876   8.101   1.597   2.816 -0.3623  0.4598 -1.1912
  274MOL0     C36877   7.997   1.630   2.926  0.2838  0.2378 -0.0764
  274MOL0     C36878   8.035   1.752   3.015 -0.4730  0.0343 -0.7405
  274MOL0     O36879   7.947   1.785   3.124 -0.0561  0.3803 -0.4959
  274MOL0     C36880   7.833   1.863   3.095 -0.3050 -0.0686  0.1617
  274MOL0     C36881   7.794   1.913   2.962 -0.7496 -0.3091 -1.8123
  274MOL0     C36882   7.672   1.978   2.943  0.1709 -0.5126 -0.1689
  274MOL0     C36883   7.578   1.989   3.045 -0.3394  0.8013 -0.9844
  274MOL0     C36884   7.442   2.043   3.015 -0.1241 -0.0963 -0.1500
  274MOL0     O36885   7.353   2.039   3.114  0.8518 -0.1132 -0.0161
  274MOL0     C36886   7.229   2.078   3.083  1.3170 -0.0266  0.1692
  274MOL0     C36887   7.122   1.989   3.045  0.6819 -0.0558  0.3258
  274MOL0     C36888   6.994   2.044   3.013 -0.0269  0.8488 -0.6560
  274MOL0     C36889   6.958   2.176   3.045  0.3502  0.3986  0.7422
  274MOL0     O36890   6.829   2.226   3.012 -0.1408 -0.1287 -0.1204
  274MOL0     C36891   6.788   2.208   2.876 -0.1578 -0.4917  0.5511
  274MOL0     C36892   6.630   2.196   2.865  0.0870  0.0768  0.3316
  274MOL0     C36893   6.593   2.181   2.705 -0.8387  0.1644 -0.2181
  274MOL0     C36894   6.450   2.146   2.670  0.5499 -0.2439 -1.2559
  274MOL0     C36895   6.419   2.133   2.515 -0.1655 -0.1264 -0.8157
  274MOL0     C36896   6.273   2.088   2.493 -0.1020 -0.2049 -0.0486
  274MOL0     C36897   6.253   2.073   2.336  0.3883 -0.1767  0.7539
  274MOL0     C36898   6.110   2.050   2.283  0.1466 -0.7693  1.3748
  274MOL0    Cl36899   5.985   2.035   2.414 -0.3443  0.0183 -0.0563
  274MOL0     C36900   7.057   2.247   3.084 -0.5674 -0.9961  0.0906
  274MOL0     C36901   7.189   2.209   3.100  0.6686  0.1447  0.7050
  274MOL0     O36902   7.418   2.087   2.901 -0.1515 -0.6082  0.0413
  274MOL0     C36903   7.621   1.959   3.178 -0.6105 -0.2588  0.4828
  274MOL0     C36904   7.746   1.888   3.197  0.7684  0.6873 -0.3038
  274MOL0     N36905   8.490   1.509   2.847  0.0577 -0.6706  0.2937
  274MOL0     N36906   8.570   1.464   2.747  0.2165 -0.1783  0.5336
  274MOL0     C36907   7.914   1.218   1.687 -0.7552 -0.1775 -0.1355
  274MOL0     C36908   7.938   1.256   1.552 -0.6572 -1.1600 -0.5293
  274MOL0     C36909   8.016   1.570   1.193  0.2307  0.2145 -1.0681
  274MOL0     C36910   8.116   1.484   1.138 -0.3470  0.3754  0.3056
  274MOL0     C36911   8.154   1.498   1.004  0.2665  0.9437 -0.3534
  274MOL0     C36912   8.091   1.596   0.923  0.4693  0.1708  0.1406
  274MOL0     O36913   8.140   1.603   0.791  0.3536  0.7812  0.0507
  274MOL0     C36914   8.106   1.497   0.702  0.2787 -0.0663 -0.5037
  274MOL0     C36915   8.161   1.528   0.560  0.3432 -0.6545  0.0565
  274MOL0     C36916   8.306   1.497   0.569 -0.8494 -0.0591 -0.6624
  274MOL0     C36917   8.375   1.521   0.437 -0.7956  0.4691  0.2332
  274MOL0     C36918   8.369   1.659   0.387 -0.4413  0.6904  0.0767
  274MOL0     C36919   8.346   1.768   0.338 -0.3806  0.3612 -0.3878
  274MOL0     C36920   8.000   1.686   0.980 -0.4654  0.3091  0.6321
  274MOL0     C36921   7.962   1.673   1.114  1.0472  0.8435  1.2301
  274MOL0     C36922   7.863   1.782   1.160 -0.4776 -0.0785  0.9441
  274MOL0     H36923   8.060   1.578   1.601  0.2241  0.0894  0.5963
  274MOL0     H36924   8.038   1.503   1.830 -0.3354 -0.9108  0.5501
  274MOL0     H36925   8.095   1.298   1.992 -0.2122  2.2779 -3.7140
  274MOL0     H36926   7.979   1.415   2.055 -0.3631  0.2088  1.5942
  274MOL0     H36927   7.979   1.123   2.132  0.1558 -0.4903  0.8555
  274MOL0     H36928   7.858   1.233   2.169 -0.6843 -1.0167  1.8499
  274MOL0     H36929   7.998   1.242   2.371  1.4802  0.3074  1.3539
  274MOL0     H36930   8.058   1.381   2.270 -0.9180  0.4483 -0.3368
  274MOL0     H36931   8.202   1.114   2.259  1.3989  0.0199 -2.5733
  274MOL0     H36932   8.239   1.275   2.180 -4.9149  0.2133 -3.1162
  274MOL0     H36933   8.276   1.356   2.414  0.0002 -0.8300  1.5010
  274MOL0     H36934   8.223   1.207   2.481  1.0505 -0.1871  0.3625
  274MOL0     H36935   8.407   1.086   2.350  0.8541 -0.1390  1.2911
  274MOL0     H36936   8.465   1.232   2.287 -1.7279 -2.2313 -3.3300
  274MOL0     H36937   8.591   1.148   2.481 -1.0413 -0.4025 -1.2502
  274MOL0     H36938   8.443   1.175   2.587 -1.3201 -1.0021 -0.3206
  274MOL0     H36939   8.660   1.331   2.544  0.5035 -1.4892 -2.3878
  274MOL0     H36940   8.550   1.409   2.437  1.9509  1.4003  0.0875
  274MOL0     H36941   8.271   1.419   2.611  1.0502 -0.5443 -1.9577
  274MOL0     H36942   8.232   1.487   2.968  2.1779  3.8787  1.9046
  274MOL0     H36943   8.276   1.634   2.943  0.1648  1.1657 -0.7367
  274MOL0     H36944   8.117   1.692   2.764  0.0804  1.0939  0.0713
  274MOL0     H36945   8.064   1.523   2.744 -0.2353 -0.0854 -0.6980
  274MOL0     H36946   7.983   1.536   2.980 -0.0619  0.0352 -0.5206
  274MOL0     H36947   7.901   1.644   2.877 -0.1913 -3.5264 -0.4666
  274MOL0     H36948   8.057   1.842   2.956  2.4372  1.0371  1.6323
  274MOL0     H36949   8.132   1.726   3.059 -1.7783 -1.7472  1.2799
  274MOL0     H36950   7.845   1.884   2.871 -1.0795 -3.5266 -1.0803
  274MOL0     H36951   7.651   2.001   2.838  4.3636  0.3726 -1.0002
  274MOL0     H36952   7.153   1.887   3.026 -0.6108 -0.4041  0.0348
  274MOL0     H36953   6.910   1.982   2.982  0.9688 -1.6703  1.3773
  274MOL0     H36954   6.824   2.293   2.818 -0.7664 -0.0003  0.8808
  274MOL0     H36955   6.834   2.121   2.827  0.4964 -1.0367  2.0743
  274MOL0     H36956   6.609   2.111   2.932  0.2531  0.9212  1.4911
  274MOL0     H36957   6.587   2.285   2.911 -1.3875 -1.6798  2.5965
  274MOL0     H36958   6.615   2.279   2.662 -0.9330  1.6076  2.7565
  274MOL0     H36959   6.658   2.112   2.651  1.5526  2.8549 -1.0431
  274MOL0     H36960   6.385   2.226   2.706  0.3693 -0.5676 -0.8450
  274MOL0     H36961   6.418   2.048   2.708  0.6115  0.2015 -0.0315
  274MOL0     H36962   6.493   2.077   2.457  1.1137  2.1027 -1.4486
  274MOL0     H36963   6.423   2.236   2.478  0.6477 -0.1321 -0.7627
  274MOL0     H36964   6.256   1.994   2.545  3.2212 -1.2811 -0.7087
  274MOL0     H36965   6.207   2.168   2.529  2.1050  2.7608 -2.0159
  274MOL0     H36966   6.318   1.991   2.303  2.1434  1.2099  0.6018
  274MOL0     H36967   6.271   2.166   2.281 -4.1675 -0.1600 -1.1445
  274MOL0     H36968   6.077   2.141   2.232  0.4680 -1.5448 -0.2930
  274MOL0     H36969   6.097   1.969   2.210 -3.5346  1.3472 -0.6036
  274MOL0     H36970   7.029   2.350   3.103  3.1503  0.2805 -0.4251
  274MOL0     H36971   7.269   2.280   3.119  0.8443 -0.6565  3.4970
  274MOL0     H36972   7.544   1.954   3.253 -1.1318 -0.4461 -0.0533
  274MOL0     H36973   7.760   1.847   3.296  4.4145  1.2290 -0.4553
  274MOL0     H36974   7.866   1.123   1.711 -1.7752 -0.8254 -4.1172
  274MOL0     H36975   7.926   1.177   1.479 -3.2474 -1.1433 -0.2266
  274MOL0     H36976   8.159   1.401   1.192  2.6268  2.7588  1.9178
  274MOL0     H36977   8.237   1.447   0.956 -0.2576 -1.8069  1.4399
  274MOL0     H36978   7.997   1.503   0.707  0.3046 -0.4962  2.8006
  274MOL0     H36979   8.139   1.395   0.722 -0.8492 -0.7685 -1.9979
  274MOL0     H36980   8.150   1.633   0.534 -4.2111 -1.1081 -0.6509
  274MOL0     H36981   8.106   1.473   0.483 -0.5356  1.2953 -0.7646
  274MOL0     H36982   8.320   1.392   0.595  1.5899 -0.0359 -1.6044
  274MOL0     H36983   8.353   1.558   0.646  0.2098 -0.3643 -1.0581
  274MOL0     H36984   8.482   1.501   0.450 -1.1552 -1.4742  0.5149
  274MOL0     H36985   8.335   1.453   0.362  1.2471 -0.9938  0.3801
  274MOL0     H36986   8.329   1.866   0.298  0.8740  1.2392  1.1277
  274MOL0     H36987   7.963   1.769   0.921  2.2348  1.8499  0.9703
  274MOL0     H36988   7.924   1.837   1.232  3.0482 -1.3001 -0.8461
  274MOL0     H36989   7.840   1.848   1.076 -1.0367  0.5252  1.5609
  274MOL0     H36990   7.767   1.749   1.200 -0.9513 -0.5240 -0.4898
  275MOL0     O36991  11.449   3.368   1.939  0.3403  0.1511 -0.1791
  275MOL0     C36992  11.359   3.400   1.859 -0.5200  0.0078 -0.2273
  275MOL0     O36993  11.311   3.527   1.847  1.1293  0.4284 -0.5154
  275MOL0     C36994  11.396   3.626   1.893 -0.1061 -0.4958  0.2295
  275MOL0     C36995  11.370   3.692   2.014 -0.4229 -0.0966 -1.0346
  275MOL0     C36996  11.434   3.812   2.045  0.3253 -0.0123  0.5457
  275MOL0     C36997  11.540   3.857   1.954  0.3713  0.5297 -0.4923
  275MOL0     O36998  11.620   3.957   2.009 -0.0508  0.5645  0.4736
  275MOL0     C36999  11.747   3.986   1.936  0.0833 -1.0844  0.1764
  275MOL0     C37000  11.821   4.098   2.009  0.2186 -0.5204  0.3864
  275MOL0     C37001  11.741   4.228   2.023 -0.6202 -0.6390  0.1170
  275MOL0     C37002  11.816   4.334   2.111 -0.2332  0.7257 -0.3263
  275MOL0     C37003  11.770   4.477   2.083 -0.4455 -0.1292 -0.7182
  275MOL0     C37004  11.831   4.574   2.186  0.7187  0.1266  0.1417
  275MOL0     C37005  11.799   4.721   2.156  1.1340 -0.0983 -0.2570
  275MOL0     C37006  11.779   4.802   2.272 -0.1587 -0.1531 -0.0613
  275MOL0     N37007  11.896   4.832   2.341 -0.4933  0.1804 -0.6520
  275MOL0     C37008  11.980   4.945   2.298 -0.9032  0.9073 -0.9715
  275MOL0     C37009  12.087   4.931   2.380 -0.8211 -1.1291 -0.2095
  275MOL0     C37010  12.190   5.035   2.366  0.3798 -0.6028 -0.3556
  275MOL0     C37011  12.318   4.988   2.296  0.4320  0.5833  0.0013
  275MOL0     C37012  12.294   4.991   2.143  0.1870 -0.1809  0.5097
  275MOL0     C37013  12.426   4.978   2.060  0.5553 -0.2441  0.1387
  275MOL0     O37014  12.518   5.082   2.076  0.7358  0.0176  0.3957
  275MOL0     C37015  12.649   5.041   2.080  0.1200  0.2627 -0.5655
  275MOL0     C37016  12.709   4.930   2.143  0.3453  0.3491 -1.3009
  275MOL0     C37017  12.847   4.897   2.143  0.0733  0.1681  0.1116
  275MOL0     C37018  12.929   4.975   2.066  0.1033  0.0221 -0.4546
  275MOL0     C37019  13.076   4.963   2.052 -0.4016  0.5797  0.1451
  275MOL0     O37020  13.112   4.837   2.076  0.1786  0.2201  0.0305
  275MOL0     C37021  13.241   4.793   2.058  0.6737  0.1548  0.1961
  275MOL0     C37022  13.316   4.804   1.938  0.7266 -0.2187  0.0684
  275MOL0     C37023  13.453   4.754   1.935  0.1435 -0.1715 -0.4716
  275MOL0     C37024  13.501   4.694   2.052 -0.8744  0.4316 -0.2155
  275MOL0     O37025  13.623   4.630   2.046  0.2501 -0.5681 -0.2395
  275MOL0     C37026  13.734   4.704   2.102 -0.9707 -0.0292 -0.3418
  275MOL0     C37027  13.708   4.769   2.239 -0.8613  0.7814 -0.3692
  275MOL0     C37028  13.639   4.899   2.259 -0.7065 -1.5659  0.4187
  275MOL0     C37029  13.656   5.005   2.149 -0.1989  0.5419 -0.9405
  275MOL0     C37030  13.606   5.142   2.198  0.5791  0.6590 -1.0621
  275MOL0     C37031  13.567   5.228   2.086  1.0673 -1.1762  0.6959
  275MOL0     C37032  13.429   5.195   2.032  1.0020 -0.6261  0.1575
  275MOL0     C37033  13.429   5.224   1.884 -0.4780  0.2405  0.5364
  275MOL0    Cl37034  13.476   5.399   1.842 -0.1512 -0.4038 -0.0174
  275MOL0     C37035  13.420   4.680   2.169  0.4723  0.1331 -0.1487
  275MOL0     C37036  13.293   4.728   2.168 -0.0215  0.3720  0.2120
  275MOL0     O37037  13.152   5.057   2.041  0.1916  0.0725  0.6018
  275MOL0     C37038  12.869   5.080   1.996  0.1230  0.4252 -0.1474
  275MOL0     C37039  12.732   5.115   2.007 -0.3139  0.5800  0.6826
  275MOL0     N37040  12.067   4.833   2.474 -0.8829  0.0665  0.0668
  275MOL0     N37041  11.952   4.780   2.457 -0.5917  0.2847 -0.3035
  275MOL0     C37042  11.566   3.787   1.834 -0.0380  0.8652 -0.3953
  275MOL0     C37043  11.489   3.672   1.806 -1.0011 -0.3220 -0.5686
  275MOL0     C37044  11.293   3.287   1.786  0.0697 -0.5017  0.3058
  275MOL0     C37045  11.349   3.157   1.803 -1.2313 -0.0825  0.8032
  275MOL0     C37046  11.270   3.046   1.760 -0.7685  0.1037 -0.1715
  275MOL0     C37047  11.161   3.060   1.688  0.0234 -0.5754  0.4504
  275MOL0     O37048  11.101   2.948   1.638 -0.7310  0.2463  0.9087
  275MOL0     C37049  10.975   2.954   1.560 -0.0264  0.7963  0.6296
  275MOL0     C37050  10.905   2.818   1.554 -0.6925 -0.3832  0.1106
  275MOL0     C37051  10.789   2.807   1.459  0.9955  0.3337 -0.4677
  275MOL0     C37052  10.810   2.857   1.313 -0.0072  0.1909  0.3402
  275MOL0     C37053  10.712   2.794   1.223  0.5511 -0.0751  0.0690
  275MOL0     C37054  10.644   2.727   1.141 -0.4112 -1.2016 -0.1222
  275MOL0     C37055  11.107   3.188   1.667 -0.9254  0.6043  0.2373
  275MOL0     C37056  11.177   3.300   1.715 -0.0461 -0.8337 -0.2572
  275MOL0     C37057  11.115   3.436   1.676 -0.7698  0.1642  0.5675
  275MOL0     H37058  11.283   3.663   2.073 -1.7350  0.2418 -2.7312
  275MOL0     H37059  11.408   3.867   2.135 -0.7459 -0.9032  0.8145
  275MOL0     H37060  11.806   3.894   1.933 -1.0128 -1.7890 -1.1835
  275MOL0     H37061  11.725   4.012   1.832  1.2306  1.6404  0.5437
  275MOL0     H37062  11.914   4.121   1.956  0.3910 -3.6929 -0.9228
  275MOL0     H37063  11.860   4.071   2.108  0.9023 -0.5553  0.1157
  275MOL0     H37064  11.644   4.219   2.074 -0.4984 -0.0094  0.4643
  275MOL0     H37065  11.718   4.271   1.925 -2.9407  1.5499  1.5004
  275MOL0     H37066  11.795   4.312   2.216  0.5590 -0.8362 -0.4576
  275MOL0     H37067  11.925   4.321   2.114 -0.2772 -0.0218  3.3359
  275MOL0     H37068  11.781   4.520   1.982 -1.7057  3.5499  0.5299
  275MOL0     H37069  11.663   4.480   2.106  0.4167 -1.3485  4.8120
  275MOL0     H37070  11.814   4.539   2.288 -2.3654 -1.4237 -0.8045
  275MOL0     H37071  11.937   4.563   2.160  0.3725 -0.4390 -1.1038
  275MOL0     H37072  11.710   4.715   2.092 -0.1550 -2.0198  1.5818
  275MOL0     H37073  11.879   4.776   2.104  1.5067  0.3073  0.7161
  275MOL0     H37074  11.732   4.896   2.242 -0.8231 -0.0814  1.1664
  275MOL0     H37075  11.711   4.757   2.344 -2.3916  3.2721  0.2235
  275MOL0     H37076  11.978   5.023   2.223  2.4012  1.8848 -0.1934
  275MOL0     H37077  12.166   5.133   2.325  0.7062 -0.1412  0.5271
  275MOL0     H37078  12.205   5.075   2.467  0.4518  1.1421 -1.0360
  275MOL0     H37079  12.401   5.052   2.328  0.6741  0.9335 -1.2594
  275MOL0     H37080  12.352   4.889   2.328 -0.0614  0.7671  1.1036
  275MOL0     H37081  12.253   5.091   2.125  3.0457  1.4909  2.4302
  275MOL0     H37082  12.220   4.914   2.122  1.2963 -0.9856 -0.5485
  275MOL0     H37083  12.389   4.978   1.957  4.7415  2.6929 -1.6477
  275MOL0     H37084  12.463   4.879   2.088  1.2245  0.4975  2.0815
  275MOL0     H37085  12.637   4.865   2.192 -0.7999  1.7507 -1.0526
  275MOL0     H37086  12.886   4.809   2.193  0.6360  1.1674  1.4960
  275MOL0     H37087  13.272   4.860   1.856  0.5556  2.3877  1.8003
  275MOL0     H37088  13.525   4.750   1.854 -1.3902  0.5497 -1.9348
  275MOL0     H37089  13.825   4.646   2.120 -0.2406  1.0216 -0.5275
  275MOL0     H37090  13.763   4.780   2.029  1.3094 -1.3276 -0.8779
  275MOL0     H37091  13.672   4.692   2.308  0.8736  0.5339  0.3240
  275MOL0     H37092  13.812   4.795   2.262 -0.2938  0.5976 -2.4851
  275MOL0     H37093  13.532   4.884   2.274 -0.8534 -0.4556  0.5068
  275MOL0     H37094  13.679   4.927   2.357  1.8175 -0.6600 -0.7734
  275MOL0     H37095  13.601   4.969   2.062  1.2974  0.4215 -1.8652
  275MOL0     H37096  13.760   5.013   2.114 -0.4473  2.1207 -1.3902
  275MOL0     H37097  13.685   5.195   2.253  0.9864  0.1401 -1.1475
  275MOL0     H37098  13.519   5.131   2.263 -0.2687 -0.2891 -2.3292
  275MOL0     H37099  13.590   5.330   2.119  0.3641 -0.4305 -1.0247
  275MOL0     H37100  13.640   5.228   2.005  0.2398  2.6926 -0.2432
  275MOL0     H37101  13.356   5.253   2.089  1.6835 -0.2047  0.6246
  275MOL0     H37102  13.417   5.089   2.055  1.6435 -0.9190 -0.7875
  275MOL0     H37103  13.499   5.158   1.832 -1.0622 -0.7655  1.0032
  275MOL0     H37104  13.328   5.209   1.845 -0.3295  2.5453 -0.9250
  275MOL0     H37105  13.446   4.627   2.260  0.0058  3.3441  2.0173
  275MOL0     H37106  13.226   4.703   2.250 -1.5075  0.1799 -1.0026
  275MOL0     H37107  12.941   5.149   1.952  1.7066 -1.5634 -0.8393
  275MOL0     H37108  12.677   5.196   1.959 -0.5567 -1.1504 -2.1924
  275MOL0     H37109  11.650   3.814   1.770  0.1118  0.6418 -0.2931
  275MOL0     H37110  11.501   3.628   1.708 -0.1491  0.3424 -0.7768
  275MOL0     H37111  11.450   3.150   1.843 -0.3521  1.4381 -0.9870
  275MOL0     H37112  11.313   2.947   1.774  0.1099  0.6070  0.8755
  275MOL0     H37113  11.009   2.997   1.465  2.0814 -1.9295  0.0116
  275MOL0     H37114  10.904   3.017   1.614 -0.3437 -0.3225  1.5470
  275MOL0     H37115  10.882   2.801   1.659  0.7862 -1.3913  0.3077
  275MOL0     H37116  10.978   2.741   1.526  0.7725  0.0614  2.4496
  275MOL0     H37117  10.708   2.872   1.495  0.0698  1.4040 -4.0869
  275MOL0     H37118  10.761   2.702   1.458  1.1497  0.2946 -1.4986
  275MOL0     H37119  10.780   2.962   1.309  0.2874  0.2297 -1.3428
  275MOL0     H37120  10.909   2.838   1.271 -0.8033  0.9066 -1.9976
  275MOL0     H37121  10.580   2.684   1.067 -2.1026  1.7470 -0.5527
  275MOL0     H37122  11.011   3.208   1.620 -1.0648  0.3628  0.4170
  275MOL0     H37123  11.186   3.491   1.614  0.2769 -1.7339 -0.0223
  275MOL0     H37124  11.019   3.443   1.624 -0.1853  3.4859 -0.2845
  275MOL0     H37125  11.086   3.502   1.758 -0.0785  0.7733  0.3316
  276MOL0     O37126   3.287  10.869   2.555 -0.1089  0.0580  1.1148
  276MOL0     C37127   3.308  10.986   2.519  1.0154 -0.4642  0.2706
  276MOL0     O37128   3.380  11.018   2.407  0.0904 -0.4027  0.2885
  276MOL0     C37129   3.403  10.930   2.308  0.5096 -0.1154 -0.6138
  276MOL0     C37130   3.375  10.984   2.182  0.1088 -0.2589 -1.1624
  276MOL0     C37131   3.382  10.904   2.066  0.1573 -0.3573  0.8923
  276MOL0     C37132   3.418  10.770   2.085  0.6212  0.0607  0.1280
  276MOL0     O37133   3.415  10.680   1.977  0.0898 -0.5495 -0.1472
  276MOL0     C37134   3.515  10.701   1.867  0.7963  0.3388 -0.5152
  276MOL0     C37135   3.655  10.652   1.893 -0.0215 -0.1177 -0.1302
  276MOL0     C37136   3.684  10.515   1.837 -0.1560  0.5517  0.5418
  276MOL0     C37137   3.829  10.465   1.868  0.5135 -0.0916 -0.3643
  276MOL0     C37138   3.837  10.315   1.843  0.0600  0.2619  0.3085
  276MOL0     C37139   3.817  10.216   1.968 -0.9445 -0.4370  0.0972
  276MOL0     C37140   3.915  10.230   2.095  0.8515  0.8238  0.8056
  276MOL0     C37141   4.059  10.254   2.043 -0.4259 -0.1594  0.0572
  276MOL0     N37142   4.140  10.134   2.015 -0.4992  0.1558 -0.5461
  276MOL0     C37143   4.254  10.094   2.086 -0.3314  0.0536 -1.0280
  276MOL0     C37144   4.290   9.973   2.034  0.8118 -0.9697  0.4026
  276MOL0     C37145   4.401   9.889   2.088 -0.6300  0.0180 -0.5032
  276MOL0     C37146   4.448   9.793   1.986 -0.0009 -0.2560  0.2009
  276MOL0     C37147   4.545   9.864   1.900 -0.0017 -0.2445 -0.7196
  276MOL0     C37148   4.606   9.761   1.803  0.3951 -0.0723 -0.2099
  276MOL0     O37149   4.733   9.815   1.751 -0.0726 -0.1242  0.2802
  276MOL0     C37150   4.747   9.832   1.612  0.0930  0.7356 -0.0486
  276MOL0     C37151   4.644   9.839   1.503  0.8385  0.2329 -0.6001
  276MOL0     C37152   4.677   9.840   1.365 -0.3434 -0.5821  0.1968
  276MOL0     C37153   4.816   9.832   1.322 -0.1275 -0.1529  0.2265
  276MOL0     C37154   4.845   9.814   1.173  0.1741 -0.5869  0.4598
  276MOL0     O37155   4.757   9.752   1.098 -0.4566 -0.4363  0.1295
  276MOL0     C37156   4.783   9.750   0.963  0.1574 -0.4423  0.1483
  276MOL0     C37157   4.725   9.834   0.869  1.0509 -0.4022 -0.5543
  276MOL0     C37158   4.759   9.837   0.735  0.0215  0.1282  0.0087
  276MOL0     C37159   4.864   9.758   0.686 -0.3377  0.4726 -0.5002
  276MOL0     O37160   4.892   9.771   0.553  0.1021  0.7453  0.4076
  276MOL0     C37161   4.934   9.663   0.470  0.3383  0.0874  0.5038
  276MOL0     C37162   4.825   9.575   0.411 -0.2490 -0.2709  0.6147
  276MOL0     C37163   4.878   9.455   0.327  0.6960  0.2644 -0.1657
  276MOL0     C37164   4.766   9.400   0.228 -0.8648 -0.4485 -0.2402
  276MOL0     C37165   4.825   9.301   0.133  0.4542 -0.3854 -0.0905
  276MOL0     C37166   4.713   9.220   0.072  0.5039  1.0038 -1.1370
  276MOL0     C37167   4.756   9.143  -0.051 -1.4694  0.0098 -0.1907
  276MOL0     C37168   4.783   9.239  -0.174  0.4391 -1.3959 -0.0703
  276MOL0    Cl37169   4.630   9.335  -0.208 -0.2258 -0.0390  0.6662
  276MOL0     C37170   4.925   9.669   0.778  0.4472 -0.1801  0.0967
  276MOL0     C37171   4.886   9.667   0.913  0.1665  0.3144 -0.9277
  276MOL0     O37172   4.954   9.860   1.134 -0.2430 -0.3028  0.0309
  276MOL0     C37173   4.918   9.818   1.419  0.1516  0.3691  0.9765
  276MOL0     C37174   4.877   9.816   1.556  1.2953 -0.0256  0.4319
  276MOL0     N37175   4.180   9.932   1.953  0.0757  0.9420 -0.6856
  276MOL0     N37176   4.094  10.027   1.946  0.6004  0.7297 -0.9285
  276MOL0     C37177   3.455  10.724   2.211  0.0897  0.5224  0.6138
  276MOL0     C37178   3.449  10.804   2.329 -0.3595 -0.0271 -0.3054
  276MOL0     C37179   3.275  11.090   2.612  1.0526 -0.0094  0.6177
  276MOL0     C37180   3.186  11.061   2.714 -0.2460  0.0443  1.2085
  276MOL0     C37181   3.138  11.158   2.804  0.1528 -0.4274  0.5585
  276MOL0     C37182   3.187  11.291   2.797 -0.5652  1.3414  0.0852
  276MOL0     O37183   3.168  11.391   2.886  0.0363 -0.1497 -0.3257
  276MOL0     C37184   3.072  11.373   2.994  0.2763 -0.3916  0.2346
  276MOL0     C37185   3.110  11.289   3.111 -0.4360 -0.3072  0.1492
  276MOL0     C37186   3.215  11.361   3.196 -0.0876  0.2980  0.7142
  276MOL0     C37187   3.283  11.265   3.298  0.5306  0.0192 -0.3788
  276MOL0     C37188   3.177  11.193   3.379 -0.6282 -0.4614 -0.0373
  276MOL0     C37189   3.088  11.144   3.442 -0.4296 -0.2241  0.6813
  276MOL0     C37190   3.272  11.317   2.690 -0.3226 -0.0128  0.4743
  276MOL0     C37191   3.315  11.227   2.594  1.0933  0.0961 -0.3193
  276MOL0     C37192   3.418  11.286   2.491 -0.8265 -0.0201  0.3673
  276MOL0     H37193   3.336  11.085   2.174  2.0666  0.7047  0.5148
  276MOL0     H37194   3.353  10.946   1.970  0.0174 -2.0959  0.1229
  276MOL0     H37195   3.489  10.642   1.779  2.2424 -3.4058  1.3684
  276MOL0     H37196   3.521  10.807   1.839  0.8856  0.4268 -0.1749
  276MOL0     H37197   3.682  10.645   1.998  2.2272 -0.3309 -0.6723
  276MOL0     H37198   3.720  10.728   1.848  1.7166 -1.3439  0.2300
  276MOL0     H37199   3.671  10.519   1.729 -1.3252  0.2268  0.6551
  276MOL0     H37200   3.609  10.443   1.870  0.0021 -0.1191 -0.5245
  276MOL0     H37201   3.900  10.511   1.799  0.0399  2.0133  0.4757
  276MOL0     H37202   3.851  10.498   1.969  1.0724  0.7676 -0.7539
  276MOL0     H37203   3.764  10.282   1.769 -0.4231 -3.5898  2.2728
  276MOL0     H37204   3.934  10.295   1.799  0.4156 -0.4348  1.3733
  276MOL0     H37205   3.719  10.224   2.017 -0.0061  1.0873  1.8672
  276MOL0     H37206   3.822  10.116   1.925 -1.7457  0.0509 -1.2046
  276MOL0     H37207   3.900  10.141   2.157  1.2299 -0.4409 -0.8486
  276MOL0     H37208   3.883  10.311   2.161 -3.2879 -2.0065  2.7830
  276MOL0     H37209   4.071  10.326   1.961 -4.1070 -1.1702 -1.5557
  276MOL0     H37210   4.103  10.309   2.126  0.8110 -0.7137 -0.2114
  276MOL0     H37211   4.317  10.141   2.160  1.8860 -1.1132 -2.0770
  276MOL0     H37212   4.479   9.955   2.130 -2.5737  2.7878 -0.9664
  276MOL0     H37213   4.362   9.845   2.181  0.5251 -0.2943 -0.1483
  276MOL0     H37214   4.500   9.715   2.042 -1.2571  0.6364  2.7797
  276MOL0     H37215   4.372   9.752   1.920 -0.5737 -1.7571  1.7162
  276MOL0     H37216   4.622   9.903   1.968 -0.9071 -0.8863  0.7182
  276MOL0     H37217   4.501   9.941   1.836 -0.5639 -0.9015 -1.1433
  276MOL0     H37218   4.532   9.729   1.729  1.1685 -4.0043  0.4952
  276MOL0     H37219   4.639   9.669   1.853  2.7980  0.3286 -0.9491
  276MOL0     H37220   4.536   9.831   1.514  0.5665 -1.4883 -3.4943
  276MOL0     H37221   4.610   9.834   1.280 -0.2437  1.7163 -0.1115
  276MOL0     H37222   4.647   9.903   0.900  2.8406  1.8582 -0.8781
  276MOL0     H37223   4.711   9.906   0.667 -0.1726  0.3131  0.3337
  276MOL0     H37224   4.998   9.705   0.393  0.2994 -1.6432 -0.5244
  276MOL0     H37225   5.003   9.600   0.527  1.3019 -0.4582 -1.2171
  276MOL0     H37226   4.767   9.557   0.502 -2.9320 -0.1796 -0.9668
  276MOL0     H37227   4.759   9.623   0.338  0.0195 -0.6218  0.1456
  276MOL0     H37228   4.974   9.472   0.277  0.0894  0.9032 -1.1460
  276MOL0     H37229   4.890   9.375   0.401 -0.4159 -2.0852 -2.3635
  276MOL0     H37230   4.717   9.482   0.173 -1.2224 -0.3699  0.1812
  276MOL0     H37231   4.683   9.358   0.286 -1.1674 -1.8990 -1.6656
  276MOL0     H37232   4.896   9.249   0.198  1.7085  0.8028 -0.4655
  276MOL0     H37233   4.880   9.349   0.052  2.4644 -0.0862  1.3703
  276MOL0     H37234   4.668   9.154   0.146 -2.2317  3.6624 -0.2272
  276MOL0     H37235   4.632   9.291   0.052  1.2980  2.1237 -0.4904
  276MOL0     H37236   4.676   9.073  -0.078 -0.6311 -1.2290  0.4283
  276MOL0     H37237   4.845   9.085  -0.026 -2.4408 -0.3816  2.6998
  276MOL0     H37238   4.866   9.308  -0.155 -2.1844  2.0246  0.1582
  276MOL0     H37239   4.811   9.184  -0.264  3.2790 -0.8633  0.3856
  276MOL0     H37240   5.001   9.599   0.744 -0.6067 -0.8319 -1.0048
  276MOL0     H37241   4.923   9.593   0.983  1.0859  0.9839 -0.6839
  276MOL0     H37242   5.023   9.811   1.393  0.5763  1.1610  2.3448
  276MOL0     H37243   4.945   9.784   1.635 -0.1394 -2.1309  0.8881
  276MOL0     H37244   3.482  10.619   2.220  0.6629  0.6597  0.5089
  276MOL0     H37245   3.468  10.768   2.429  0.9380 -0.0198 -0.5389
  276MOL0     H37246   3.155  10.959   2.734  0.8583 -0.3675  0.8983
  276MOL0     H37247   3.070  11.124   2.882 -0.7271  0.9078  0.4226
  276MOL0     H37248   2.982  11.332   2.947  0.4761 -0.1643 -0.3546
  276MOL0     H37249   3.048  11.475   3.026 -0.7107  0.5943 -3.2182
  276MOL0     H37250   3.142  11.190   3.079  1.5788 -0.0199  1.1187
  276MOL0     H37251   3.017  11.275   3.167  0.6426 -2.6494  1.4941
  276MOL0     H37252   3.175  11.453   3.240 -1.5301  0.6247 -1.1221
  276MOL0     H37253   3.296  11.406   3.138  1.3693  0.4269  2.7726
  276MOL0     H37254   3.340  11.200   3.231  1.6668  1.8147 -1.2225
  276MOL0     H37255   3.350  11.328   3.357 -1.0289 -0.7679  2.4084
  276MOL0     H37256   3.009  11.098   3.497  1.7110 -1.8466  2.6025
  276MOL0     H37257   3.312  11.418   2.687 -2.5779  0.9559  1.0187
  276MOL0     H37258   3.359  11.330   2.410 -1.7219 -1.7741  0.0156
  276MOL0     H37259   3.477  11.361   2.544 -1.9477 -0.8600  3.0055
  276MOL0     H37260   3.488  11.215   2.446  0.2077  1.9828 -1.3564
  277MOL0     O37261   3.447   1.368   6.431  0.7059  0.5058 -0.0641
  277MOL0     C37262   3.547   1.319   6.479  1.2321  0.3518  0.4450
  277MOL0     O37263   3.582   1.309   6.610 -0.6763 -0.1325 -0.1258
  277MOL0     C37264   3.491   1.349   6.703 -0.2853  0.5827 -0.4672
  277MOL0     C37265   3.457   1.482   6.734 -0.6329  0.2196  0.7437
  277MOL0     C37266   3.367   1.518   6.831 -0.3762 -0.3403 -0.8731
  277MOL0     C37267   3.305   1.409   6.904 -0.4156  0.3182 -0.0323
  277MOL0     O37268   3.199   1.422   6.992  0.3947 -0.0827  0.2123
  277MOL0     C37269   3.139   1.543   7.011 -0.2791 -0.4384 -0.4161
  277MOL0     C37270   3.088   1.530   7.149  1.1937 -0.4643 -0.7997
  277MOL0     C37271   3.006   1.650   7.194  0.1085 -0.1655  0.1742
  277MOL0     C37272   2.944   1.617   7.334 -0.3795 -0.1506 -0.0136
  277MOL0     C37273   2.873   1.740   7.402  1.0303 -0.2916 -0.1602
  277MOL0     C37274   2.754   1.787   7.319  0.2345 -0.0765  0.0757
  277MOL0     C37275   2.676   1.889   7.400  1.2141 -0.6735  0.0409
  277MOL0     C37276   2.605   1.821   7.512 -0.7921  0.1304  0.0019
  277MOL0     N37277   2.491   1.897   7.542  0.2164 -0.5779 -0.5833
  277MOL0     C37278   2.377   1.896   7.474 -1.0915  0.4545  1.6565
  277MOL0     C37279   2.289   1.967   7.547  0.0865  1.5516  0.0464
  277MOL0     C37280   2.138   1.971   7.506 -0.2856 -0.7090  0.0415
  277MOL0     C37281   2.091   2.116   7.498  0.1145  1.2723  0.0104
  277MOL0     C37282   1.940   2.122   7.486  0.6857  0.1894 -0.1002
  277MOL0     C37283   1.852   2.128   7.619 -0.8024 -0.0644  0.2095
  277MOL0     O37284   1.825   2.264   7.646  0.5803  0.3045  0.0353
  277MOL0     C37285   1.690   2.301   7.653  0.3740 -0.6522  0.4880
  277MOL0     C37286   1.615   2.271   7.540  1.4149  0.3972  0.2666
  277MOL0     C37287   1.483   2.329   7.540  0.3135 -0.8515  0.0550
  277MOL0     C37288   1.440   2.420   7.639  0.2767 -0.8157  0.1032
  277MOL0     C37289   1.317   2.505   7.632 -0.1042  0.2177  0.1666
  277MOL0     O37290   1.282   2.574   7.745 -1.2534  0.6278 -0.4868
  277MOL0     C37291   1.165   2.650   7.753  0.6636 -0.1051  1.0184
  277MOL0     C37292   1.182   2.780   7.799 -0.4147  1.3686  0.5250
  277MOL0     C37293   1.078   2.874   7.816  0.0414  0.9631  0.7273
  277MOL0     C37294   0.950   2.826   7.786  0.0168 -0.1543  0.3252
  277MOL0     O37295   0.838   2.896   7.808  0.1954  0.4130 -0.0742
  277MOL0     C37296   0.858   3.016   7.881  0.3242  0.1620 -0.2373
  277MOL0     C37297   0.722   3.075   7.909 -0.4391 -0.6956  0.3041
  277MOL0     C37298   0.720   3.225   7.921 -0.6180 -0.3287  0.0606
  277MOL0     C37299   0.582   3.291   7.955 -0.8862  0.0327  0.1368
  277MOL0     C37300   0.611   3.435   7.939  0.2330  0.5343 -0.4015
  277MOL0     C37301   0.479   3.515   7.921  0.6249  0.4193  0.0374
  277MOL0     C37302   0.503   3.669   7.922 -0.8177  0.1197 -0.0574
  277MOL0     C37303   0.377   3.750   7.869 -0.5556 -0.2842  0.3582
  277MOL0    Cl37304   0.399   3.923   7.879 -0.2607  0.1142  0.1147
  277MOL0     C37305   0.930   2.688   7.750 -0.5629  1.0757 -0.7503
  277MOL0     C37306   1.036   2.589   7.727  0.9052 -0.7520  0.3645
  277MOL0     O37307   1.273   2.532   7.521  0.4306  0.9311 -0.1048
  277MOL0     C37308   1.520   2.445   7.752  0.1067  0.9563 -0.3786
  277MOL0     C37309   1.645   2.378   7.758 -0.3149 -0.3549 -0.2307
  277MOL0     N37310   2.357   2.035   7.646  0.9527  0.3631  0.1639
  277MOL0     N37311   2.476   1.986   7.649 -0.3975 -0.3990 -0.4496
  277MOL0     C37312   3.344   1.279   6.891 -0.2198 -0.3916  0.2855
  277MOL0     C37313   3.441   1.251   6.792 -0.4725  0.4410  0.1154
  277MOL0     C37314   3.652   1.275   6.381 -0.2682  0.4119 -0.2341
  277MOL0     C37315   3.623   1.293   6.239 -0.0918  0.6158 -0.6373
  277MOL0     C37316   3.710   1.250   6.142  0.6402  1.2288  0.2054
  277MOL0     C37317   3.828   1.193   6.178 -0.0348  0.8274  0.1584
  277MOL0     O37318   3.909   1.149   6.070  0.2536  1.0383 -0.2580
  277MOL0     C37319   4.030   1.079   6.101 -0.3619 -0.2074  0.3493
  277MOL0     C37320   4.092   1.006   5.979  0.6442 -0.7442 -0.0572
  277MOL0     C37321   4.224   0.939   6.025 -0.1033 -0.1344 -0.1254
  277MOL0     C37322   4.251   0.815   5.945 -0.8034  0.7391  0.4763
  277MOL0     C37323   4.229   0.812   5.799  0.7171  0.1867 -0.5599
  277MOL0     C37324   4.203   0.805   5.685 -0.4314  0.3874 -0.0595
  277MOL0     C37325   3.865   1.179   6.315  0.2021 -0.1001  0.0831
  277MOL0     C37326   3.783   1.221   6.423 -0.4333 -1.1976 -0.0052
  277MOL0     C37327   3.837   1.231   6.567 -0.5168  0.4667  0.0532
  277MOL0     H37328   3.489   1.563   6.669 -2.7807  0.7697  0.3212
  277MOL0     H37329   3.344   1.624   6.824  1.7905  0.1564 -1.2839
  277MOL0     H37330   3.212   1.624   7.005 -2.4788  1.6553 -0.4814
  277MOL0     H37331   3.059   1.567   6.940 -1.2005 -0.0404  0.7132
  277MOL0     H37332   3.167   1.505   7.221  0.0868 -2.1385 -0.0984
  277MOL0     H37333   3.015   1.449   7.160 -0.3510  0.8272 -1.2944
  277MOL0     H37334   2.927   1.665   7.120  0.0064 -0.8654  0.1300
  277MOL0     H37335   3.082   1.728   7.201  0.1372 -0.1949  0.1938
  277MOL0     H37336   2.865   1.542   7.336 -4.1422  3.4467 -0.0420
  277MOL0     H37337   3.025   1.595   7.404  3.0800  0.9891 -3.3043
  277MOL0     H37338   2.831   1.709   7.498  0.0400  1.3639 -0.0213
  277MOL0     H37339   2.940   1.825   7.421 -0.5353  1.0388 -0.3533
  277MOL0     H37340   2.786   1.835   7.226  2.3732 -0.0431  0.7587
  277MOL0     H37341   2.679   1.713   7.290 -0.2624 -0.0128  1.1499
  277MOL0     H37342   2.607   1.939   7.331 -0.0530 -0.6977  1.2441
  277MOL0     H37343   2.730   1.970   7.449 -1.3059  2.6744 -2.2611
  277MOL0     H37344   2.564   1.726   7.478  0.0356 -0.8012  1.4648
  277MOL0     H37345   2.672   1.813   7.599 -0.9003 -2.0749 -0.0448
  277MOL0     H37346   2.348   1.826   7.396  1.9875 -0.1159  0.8876
  277MOL0     H37347   2.127   1.906   7.420 -1.5502 -1.8506  1.0198
  277MOL0     H37348   2.078   1.928   7.587  3.2072 -1.5775  2.4295
  277MOL0     H37349   2.114   2.163   7.594  0.2443 -1.4305  1.3899
  277MOL0     H37350   2.137   2.168   7.414 -0.1274 -0.2622 -1.1156
  277MOL0     H37351   1.911   2.043   7.417  1.0777  2.2743 -2.8052
  277MOL0     H37352   1.917   2.213   7.430 -3.9252 -0.5099  0.2724
  277MOL0     H37353   1.919   2.091   7.697  3.2002  1.7654 -2.0459
  277MOL0     H37354   1.767   2.059   7.608 -0.8401  0.1435 -0.9727
  277MOL0     H37355   1.653   2.220   7.453  0.8195  0.1974  0.1184
  277MOL0     H37356   1.414   2.314   7.458 -0.2509 -3.4368  0.9175
  277MOL0     H37357   1.287   2.802   7.813 -0.0351  0.1509 -0.2509
  277MOL0     H37358   1.110   2.973   7.848  1.8221  0.2138  1.3900
  277MOL0     H37359   0.905   2.990   7.976  1.6732 -3.9625 -1.8215
  277MOL0     H37360   0.915   3.089   7.822  1.5990  1.0114  1.9331
  277MOL0     H37361   0.664   3.040   7.823  0.4800  2.5219 -1.8286
  277MOL0     H37362   0.671   3.032   7.995 -0.1348 -1.0527  0.3131
  277MOL0     H37363   0.789   3.262   7.998  2.0920 -1.4705 -1.6685
  277MOL0     H37364   0.762   3.257   7.825  1.5679 -1.2329  0.6627
  277MOL0     H37365   0.548   3.265   8.056 -4.5015  0.1200 -0.9049
  277MOL0     H37366   0.504   3.250   7.890 -2.5340  1.6107  1.0395
  277MOL0     H37367   0.683   3.444   7.857  0.2636 -0.4535 -0.4990
  277MOL0     H37368   0.660   3.468   8.031  1.0141  2.2653 -1.3827
  277MOL0     H37369   0.431   3.475   7.831 -0.3118 -2.4565  1.6783
  277MOL0     H37370   0.416   3.505   8.009  0.4467  2.8462  0.2582
  277MOL0     H37371   0.593   3.678   7.859 -0.8678  1.3516  0.0247
  277MOL0     H37372   0.522   3.700   8.025 -1.8013 -1.0981  0.5195
  277MOL0     H37373   0.372   3.723   7.763  2.1513 -0.5032  0.2135
  277MOL0     H37374   0.283   3.732   7.921 -0.1064  4.6859  3.5269
  277MOL0     H37375   0.827   2.661   7.729 -0.5727 -0.2067  0.7660
  277MOL0     H37376   1.016   2.487   7.695  2.1419  0.0704 -3.5534
  277MOL0     H37377   1.487   2.510   7.832 -3.2132  1.7780 -2.2049
  277MOL0     H37378   1.712   2.386   7.844  0.3665 -5.8419  0.1093
  277MOL0     H37379   3.290   1.199   6.940  2.9086 -2.7523  0.1731
  277MOL0     H37380   3.450   1.145   6.772 -2.8127  0.3714 -0.9081
  277MOL0     H37381   3.526   1.339   6.223  0.6551  1.9989 -1.3968
  277MOL0     H37382   3.676   1.289   6.046  0.9214  0.3619 -0.2517
  277MOL0     H37383   4.014   1.004   6.179  0.1145 -0.7517 -0.0730
  277MOL0     H37384   4.107   1.151   6.133  0.0634  0.3527 -1.8010
  277MOL0     H37385   4.128   1.066   5.895 -2.5857  0.1379 -0.9514
  277MOL0     H37386   4.013   0.938   5.946  1.1017 -2.0858  1.5161
  277MOL0     H37387   4.219   0.923   6.133 -0.5179  0.4638 -0.0496
  277MOL0     H37388   4.311   1.004   6.010 -0.6115  0.8976  1.1604
  277MOL0     H37389   4.357   0.791   5.949 -0.6307  1.2626 -0.6061
  277MOL0     H37390   4.203   0.726   5.988 -1.2407 -0.1149 -1.6773
  277MOL0     H37391   4.191   0.787   5.580  3.4678 -3.3603 -0.1444
  277MOL0     H37392   3.959   1.142   6.355 -2.1920 -3.5772  3.2981
  277MOL0     H37393   3.945   1.219   6.553 -1.0664 -1.6522 -3.6594
  277MOL0     H37394   3.819   1.325   6.620 -1.6996 -1.4355  3.3172
  277MOL0     H37395   3.809   1.142   6.624  0.6927 -0.6859 -1.0943
  278MOL0     O37396   6.878   2.353  10.582  0.5358  0.2114  0.2642
  278MOL0     C37397   6.765   2.316  10.615 -0.0301  0.4719  0.2173
  278MOL0     O37398   6.678   2.368  10.711  0.5458  0.3178  0.0119
  278MOL0     C37399   6.709   2.470  10.786  0.3468  0.0623 -0.0590
  278MOL0     C37400   6.608   2.560  10.824  0.6809 -0.2673  0.5156
  278MOL0     C37401   6.635   2.675  10.892  0.6171  0.9004 -0.5346
  278MOL0     C37402   6.766   2.719  10.918  0.0972  0.5360 -0.8302
  278MOL0     O37403   6.791   2.840  10.986  0.0625  0.0925  0.2826
  278MOL0     C37404   6.922   2.892  10.963  0.5173 -0.1330 -0.2344
  278MOL0     C37405   6.924   3.043  10.981 -0.8513 -0.2631 -0.8532
  278MOL0     C37406   6.977   3.087  11.117 -0.4792  0.6532 -0.2494
  278MOL0     C37407   7.124   3.108  11.114 -0.7182 -0.2983  0.1685
  278MOL0     C37408   7.170   3.196  11.233 -0.0602  0.9839  0.7212
  278MOL0     C37409   7.113   3.137  11.368 -0.1371  0.2931 -0.8048
  278MOL0     C37410   7.184   3.178  11.501 -0.0636 -0.2124  0.3079
  278MOL0     C37411   7.166   3.331  11.521  0.5467 -0.7258  0.4753
  278MOL0     N37412   7.045   3.346  11.612 -0.2829  0.2422 -0.4223
  278MOL0     C37413   6.919   3.339  11.572  1.0074  0.5459 -0.2281
  278MOL0     C37414   6.844   3.354  11.681  0.4691  0.5283  0.2334
  278MOL0     C37415   6.699   3.332  11.695 -0.0941  0.4617  0.6434
  278MOL0     C37416   6.677   3.225  11.804  0.5373  0.3396 -0.4440
  278MOL0     C37417   6.534   3.225  11.840  0.1967  0.3083 -0.4449
  278MOL0     C37418   6.476   3.094  11.881 -0.4066  1.0422 -0.2690
  278MOL0     O37419   6.488   2.996  11.775  0.2233 -0.0972 -0.5459
  278MOL0     C37420   6.415   2.886  11.804  0.4391  0.1769  0.4929
  278MOL0     C37421   6.369   2.840  11.933 -0.2244 -0.3344 -0.8233
  278MOL0     C37422   6.298   2.720  11.955 -0.2788  0.7016  1.1332
  278MOL0     C37423   6.290   2.627  11.851  0.5520  0.6254 -0.3631
  278MOL0     C37424   6.216   2.497  11.860 -0.2917 -0.5592 -0.4785
  278MOL0     O37425   6.203   2.452  11.989  0.7778 -0.0492  0.6396
  278MOL0     C37426   6.165   2.324  12.000 -0.8042  1.1801 -0.7041
  278MOL0     C37427   6.038   2.274  11.964  0.7255  0.6988  0.5204
  278MOL0     C37428   6.010   2.143  11.978  0.3967  0.4961  0.7095
  278MOL0     C37429   6.100   2.049  12.033 -0.0945  0.1846  0.4413
  278MOL0     O37430   6.066   1.921  12.060 -0.1257  0.2479 -0.0011
  278MOL0     C37431   5.934   1.868  12.039 -0.4044 -0.9991 -0.4953
  278MOL0     C37432   5.944   1.715  12.012  0.1380  0.6158 -0.8501
  278MOL0     C37433   5.985   1.621  12.127 -0.3990 -0.5917 -0.1359
  278MOL0     C37434   5.976   1.474  12.091  0.9063 -0.8557 -0.5056
  278MOL0     C37435   6.020   1.390  12.212  0.4406  0.5108 -0.5211
  278MOL0     C37436   5.992   1.245  12.196  0.4928 -0.4000 -0.1160
  278MOL0     C37437   6.045   1.148  12.305  0.5720  0.1524 -0.1091
  278MOL0     C37438   6.077   1.218  12.441  0.0186  0.2043  1.4152
  278MOL0    Cl37439   5.929   1.287  12.509  0.6158 -0.0914  0.3995
  278MOL0     C37440   6.227   2.100  12.080  0.2253 -0.0078 -0.1933
  278MOL0     C37441   6.253   2.241  12.064  0.2062  0.4530 -0.0696
  278MOL0     O37442   6.196   2.431  11.761 -0.1197  0.5080 -0.4773
  278MOL0     C37443   6.334   2.666  11.728 -0.3223 -0.7914 -0.4943
  278MOL0     C37444   6.389   2.796  11.699 -0.7483  0.3410 -0.3098
  278MOL0     N37445   6.925   3.390  11.790 -0.4982 -0.5551 -0.0570
  278MOL0     N37446   7.044   3.373  11.746  0.4920 -0.0896  0.1753
  278MOL0     C37447   6.867   2.614  10.898  0.3727  0.0573  0.5997
  278MOL0     C37448   6.834   2.491  10.835 -0.3975 -0.0294 -0.0095
  278MOL0     C37449   6.706   2.193  10.547  0.1407  0.4090  0.3251
  278MOL0     C37450   6.807   2.101  10.500 -0.8379  0.4583  0.3614
  278MOL0     C37451   6.758   1.991  10.422 -0.3769 -0.4907 -0.0807
  278MOL0     C37452   6.620   1.973  10.394 -0.1933 -0.3751 -0.4185
  278MOL0     O37453   6.586   1.858  10.325 -0.0058  0.1962  0.6603
  278MOL0     C37454   6.457   1.840  10.269 -0.2101 -0.1694  0.6174
  278MOL0     C37455   6.456   1.719  10.180  0.6838 -0.0098  0.1083
  278MOL0     C37456   6.433   1.581  10.235  0.2100  0.3969  0.0727
  278MOL0     C37457   6.416   1.467  10.130  0.9489 -0.2944  0.2665
  278MOL0     C37458   6.540   1.454  10.050  0.0619 -1.6724  0.4051
  278MOL0     C37459   6.635   1.446   9.968  0.4423  1.3717 -0.2880
  278MOL0     C37460   6.530   2.047  10.461 -0.0201 -1.1169 -0.1524
  278MOL0     C37461   6.566   2.164  10.528  0.1075  0.1833 -0.2884
  278MOL0     C37462   6.456   2.257  10.591  0.4044  0.0015  0.4058
  278MOL0     H37463   6.509   2.532  10.790  1.1791 -0.1251 -1.1392
  278MOL0     H37464   6.555   2.747  10.903 -2.6763 -2.2641 -2.0211
  278MOL0     H37465   7.004   2.838  11.010  0.7646  0.8539  0.5138
  278MOL0     H37466   6.940   2.880  10.856 -0.0376 -0.5314 -0.2853
  278MOL0     H37467   6.826   3.091  10.971 -2.5165 -3.6597 -2.3500
  278MOL0     H37468   6.983   3.078  10.896  0.8714  1.2718  0.8539
  278MOL0     H37469   6.955   2.998  11.176 -0.1845 -2.0518 -3.8744
  278MOL0     H37470   6.933   3.182  11.149 -0.4665  0.3102  0.8134
  278MOL0     H37471   7.179   3.014  11.120  1.7451  1.1077  0.5989
  278MOL0     H37472   7.169   3.160  11.029 -0.8740  2.0044  1.4131
  278MOL0     H37473   7.279   3.197  11.243 -0.0196 -0.3505  0.6494
  278MOL0     H37474   7.142   3.302  11.235  0.2889  1.1425 -1.4653
  278MOL0     H37475   7.004   3.145  11.370 -0.0310  2.1666  0.1561
  278MOL0     H37476   7.130   3.029  11.364 -1.1440  0.1524 -2.8314
  278MOL0     H37477   7.287   3.142  11.496  0.3367  0.7729  1.0105
  278MOL0     H37478   7.151   3.121  11.589  3.9901 -3.1006  0.2336
  278MOL0     H37479   7.255   3.378  11.564  1.4018 -0.3737 -1.5594
  278MOL0     H37480   7.135   3.385  11.431  0.6160 -0.7163  0.4568
  278MOL0     H37481   6.874   3.316  11.476 -2.4211 -2.5647  1.8121
  278MOL0     H37482   6.655   3.427  11.728  0.1007  1.2124 -1.1177
  278MOL0     H37483   6.654   3.306  11.599  0.4962  3.8342 -0.6968
  278MOL0     H37484   6.722   3.132  11.769 -0.0955  0.3260 -1.2278
  278MOL0     H37485   6.721   3.260  11.898  0.1235  0.2486 -0.2103
  278MOL0     H37486   6.480   3.267  11.755  2.8312  4.0470 -0.5156
  278MOL0     H37487   6.529   3.291  11.927 -1.7796 -2.0044  1.3394
  278MOL0     H37488   6.376   3.102  11.925 -1.2507 -0.3530 -1.8355
  278MOL0     H37489   6.524   3.056  11.972  1.2805 -2.2755 -2.3613
  278MOL0     H37490   6.398   2.898  12.020  0.7798  1.7175 -2.4164
  278MOL0     H37491   6.251   2.692  12.049 -0.7904 -1.8978  0.1983
  278MOL0     H37492   5.969   2.342  11.915 -0.5928 -1.9191 -1.5145
  278MOL0     H37493   5.913   2.118  11.937  0.9189  0.9079 -0.8997
  278MOL0     H37494   5.877   1.878  12.131 -0.0845  0.4457 -0.4302
  278MOL0     H37495   5.890   1.920  11.953 -1.1693 -3.7274 -1.8615
  278MOL0     H37496   5.848   1.685  11.969 -0.6940  0.1983  1.1770
  278MOL0     H37497   6.014   1.704  11.928  1.0735  0.1958 -0.0324
  278MOL0     H37498   6.084   1.647  12.166 -1.1232  3.5104 -0.5490
  278MOL0     H37499   5.922   1.634  12.215  0.0326  0.8279  0.0008
  278MOL0     H37500   6.032   1.465  11.997  1.1489  1.6628 -0.6736
  278MOL0     H37501   5.871   1.463  12.063  0.7790  2.2932 -1.7376
  278MOL0     H37502   5.967   1.428  12.300  0.1301 -1.2798  0.1131
  278MOL0     H37503   6.126   1.405  12.232  0.1723 -0.3851  1.9123
  278MOL0     H37504   5.882   1.240  12.202  0.5824 -0.6685  2.9290
  278MOL0     H37505   6.039   1.206  12.105  0.8471 -3.0806  1.1095
  278MOL0     H37506   6.129   1.089  12.269 -2.0545 -4.2751  0.2811
  278MOL0     H37507   5.961   1.078  12.305  0.2013  0.5895  0.3807
  278MOL0     H37508   6.116   1.147  12.515 -0.0934  0.6028  1.8546
  278MOL0     H37509   6.158   1.290  12.425 -0.0974  0.3538  1.5066
  278MOL0     H37510   6.297   2.029  12.123  0.5139  1.3386  1.7023
  278MOL0     H37511   6.347   2.286  12.095  0.0849  2.3158 -2.1674
  278MOL0     H37512   6.327   2.596  11.645 -1.1750 -0.5925 -0.5971
  278MOL0     H37513   6.424   2.826  11.601 -0.9559  0.7029 -0.2756
  278MOL0     H37514   6.969   2.631  10.929  0.7435  0.1076 -0.6180
  278MOL0     H37515   6.920   2.424  10.834  1.3371  2.0523 -2.4511
  278MOL0     H37516   6.914   2.114  10.503 -0.7522 -0.1464  0.0837
  278MOL0     H37517   6.828   1.917  10.385  0.5159 -0.4333  1.4050
  278MOL0     H37518   6.435   1.930  10.211  0.4987 -1.1175 -1.2003
  278MOL0     H37519   6.383   1.829  10.348  0.8119  0.8493  1.7629
  278MOL0     H37520   6.552   1.708  10.131 -0.4676 -0.6226 -2.1465
  278MOL0     H37521   6.380   1.739  10.104 -0.8120 -1.4285  1.1272
  278MOL0     H37522   6.343   1.590  10.296 -0.1099  4.0802 -0.7606
  278MOL0     H37523   6.515   1.548  10.300 -0.8012  0.7909  1.5954
  278MOL0     H37524   6.389   1.384  10.195  0.3368 -0.4790 -0.2065
  278MOL0     H37525   6.344   1.489  10.051 -0.3190  0.5737  1.6161
  278MOL0     H37526   6.721   1.427   9.907  0.3376 -0.3615  0.0441
  278MOL0     H37527   6.424   2.030  10.445 -0.0078 -3.5806  1.8407
  278MOL0     H37528   6.456   2.245  10.700  2.9003 -0.9240  0.3684
  278MOL0     H37529   6.465   2.363  10.565  0.4876 -0.1543 -0.2106
  278MOL0     H37530   6.361   2.221  10.550  0.0218 -0.9675  2.0660
  279MOL0     O37531   9.589   9.469   0.495 -0.9370 -0.2830 -0.0443
  279MOL0     C37532   9.506   9.481   0.578  0.1260 -0.5779  0.2071
  279MOL0     O37533   9.365   9.469   0.565  0.2368 -0.0490 -0.2512
  279MOL0     C37534   9.309   9.396   0.467 -0.0302 -0.4707  1.5432
  279MOL0     C37535   9.209   9.308   0.498 -1.0450 -0.4109 -0.8706
  279MOL0     C37536   9.137   9.234   0.404 -0.2942  0.4728 -0.7584
  279MOL0     C37537   9.171   9.252   0.270 -0.1474  0.4377  0.3286
  279MOL0     O37538   9.116   9.162   0.184  0.9436 -0.4307  0.1182
  279MOL0     C37539   9.179   9.155   0.052 -0.2062  0.0207 -0.6888
  279MOL0     C37540   9.089   9.063  -0.028  1.4186  0.9587 -0.3140
  279MOL0     C37541   9.118   9.065  -0.176  0.2548  0.1400  0.4193
  279MOL0     C37542   9.020   8.980  -0.266 -0.9216  0.6379 -0.6536
  279MOL0     C37543   9.066   8.994  -0.410 -0.4000  0.0516 -0.1006
  279MOL0     C37544   8.956   9.066  -0.483  1.0780 -0.5877  0.9718
  279MOL0     C37545   8.997   9.091  -0.634 -0.9995 -0.4162 -0.6869
  279MOL0     C37546   8.964   8.961  -0.717  0.5254 -0.9055  0.0395
  279MOL0     N37547   9.040   8.965  -0.846  0.4089 -1.0176  0.2937
  279MOL0     C37548   9.072   8.854  -0.912 -0.6283  0.6132 -1.0624
  279MOL0     C37549   9.137   8.893  -1.019  0.7997 -0.0950 -0.2504
  279MOL0     C37550   9.195   8.795  -1.129  0.6985 -1.0301 -0.9852
  279MOL0     C37551   9.101   8.763  -1.242 -0.4648  0.1711 -0.7326
  279MOL0     C37552   8.986   8.674  -1.200  0.5939  0.0524  0.1541
  279MOL0     C37553   8.864   8.668  -1.293 -0.1555 -1.0163  0.6108
  279MOL0     O37554   8.756   8.606  -1.224 -0.1046  0.5616 -0.3156
  279MOL0     C37555   8.743   8.465  -1.210  0.3952 -1.0010 -0.2538
  279MOL0     C37556   8.643   8.431  -1.118 -0.5238 -0.2113  0.0673
  279MOL0     C37557   8.627   8.301  -1.076  0.1121 -0.1692 -0.7902
  279MOL0     C37558   8.704   8.194  -1.123  0.3300  0.2978 -0.3088
  279MOL0     C37559   8.689   8.063  -1.072  0.7039 -0.3448  0.0304
  279MOL0     O37560   8.589   8.048  -0.970 -0.2140 -0.6970 -0.4818
  279MOL0     C37561   8.573   7.920  -0.914 -0.3934  0.2784 -0.4456
  279MOL0     C37562   8.471   7.830  -0.952 -0.3275  0.2831  1.4346
  279MOL0     C37563   8.483   7.693  -0.926  0.3589  0.7546 -0.1085
  279MOL0     C37564   8.585   7.637  -0.842  0.4304 -0.0475 -0.3679
  279MOL0     O37565   8.602   7.503  -0.815  0.1632  0.1820 -0.4163
  279MOL0     C37566   8.540   7.404  -0.899 -0.6931 -0.4151  0.1253
  279MOL0     C37567   8.591   7.264  -0.851 -0.4756 -0.4121  0.0018
  279MOL0     C37568   8.533   7.217  -0.724 -0.1305 -0.1618 -0.3306
  279MOL0     C37569   8.598   7.077  -0.691 -0.0904  0.6679 -0.8654
  279MOL0     C37570   8.538   7.038  -0.549  0.0025  0.6380 -0.0715
  279MOL0     C37571   8.596   6.909  -0.502  0.6849  0.3196 -0.3623
  279MOL0     C37572   8.559   6.873  -0.354 -0.5980 -0.1941  0.6590
  279MOL0     C37573   8.615   6.986  -0.272 -0.2567 -0.4725  0.2404
  279MOL0    Cl37574   8.614   6.928  -0.102 -0.0601 -0.0427 -0.1225
  279MOL0     C37575   8.670   7.733  -0.791 -0.0760  0.5352  0.4886
  279MOL0     C37576   8.676   7.871  -0.823  0.1115  0.0486  0.2794
  279MOL0     O37577   8.757   7.969  -1.123  0.5350 -0.6556 -0.6907
  279MOL0     C37578   8.801   8.230  -1.218  0.0598 -0.1340  0.8919
  279MOL0     C37579   8.830   8.357  -1.256  0.3319 -0.3177 -0.0424
  279MOL0     N37580   9.126   9.029  -1.042 -0.2248 -0.3596 -0.6613
  279MOL0     N37581   9.078   9.073  -0.928 -0.4484 -0.4270 -0.6371
  279MOL0     C37582   9.271   9.345   0.243  1.3982 -0.4045  0.1127
  279MOL0     C37583   9.337   9.419   0.334 -0.2406  0.3271  0.5275
  279MOL0     C37584   9.556   9.525   0.709 -0.3947  0.5894 -0.6267
  279MOL0     C37585   9.466   9.517   0.820 -0.2438 -0.1239  0.1093
  279MOL0     C37586   9.494   9.551   0.954 -0.4888  0.2097  0.3166
  279MOL0     C37587   9.629   9.594   0.971  1.0937  0.5156 -0.9680
  279MOL0     O37588   9.666   9.610   1.100 -0.0480 -0.2053  0.1828
  279MOL0     C37589   9.674   9.739   1.156 -0.0460 -0.5476  0.2861
  279MOL0     C37590   9.796   9.738   1.258 -0.2276 -0.7164  0.4146
  279MOL0     C37591   9.934   9.715   1.185  0.3297  0.0216 -0.0323
  279MOL0     C37592   9.973   9.841   1.103 -0.5661 -0.1148  0.4884
  279MOL0     C37593  10.111   9.822   1.064 -0.6718  0.3039  0.2845
  279MOL0     C37594  10.228   9.798   1.028  0.2754 -0.1746  0.4699
  279MOL0     C37595   9.727   9.584   0.871  0.4926 -0.1248  0.1652
  279MOL0     C37596   9.696   9.556   0.738  0.2599 -0.0018 -0.6155
  279MOL0     C37597   9.803   9.568   0.638  0.9606  0.6707 -0.8020
  279MOL0     H37598   9.199   9.286   0.604  1.0186 -0.6863 -0.6765
  279MOL0     H37599   9.070   9.160   0.448  2.3482 -2.4748 -1.3485
  279MOL0     H37600   9.172   9.254   0.006 -2.2092  0.4694  0.4522
  279MOL0     H37601   9.277   9.110   0.072 -0.3085 -0.4936 -1.3045
  279MOL0     H37602   8.983   9.088  -0.023  0.8861 -0.5895 -2.4782
  279MOL0     H37603   9.105   8.960   0.005  0.0107  0.1571 -1.9615
  279MOL0     H37604   9.222   9.031  -0.177  0.7032  1.1089  3.6160
  279MOL0     H37605   9.126   9.170  -0.206  1.0353 -0.1267 -0.3735
  279MOL0     H37606   9.023   8.873  -0.244 -4.6928  0.3491 -0.9052
  279MOL0     H37607   8.920   9.021  -0.253 -2.0735 -1.9875 -0.6040
  279MOL0     H37608   9.157   9.055  -0.421 -1.5405  2.0892  1.0484
  279MOL0     H37609   9.093   8.902  -0.461  0.2577  1.3335 -2.1813
  279MOL0     H37610   8.860   9.013  -0.484  1.2785 -0.9581  0.4800
  279MOL0     H37611   8.945   9.167  -0.443 -0.4914 -0.9304  1.4678
  279MOL0     H37612   9.098   9.133  -0.639 -1.2699  0.3519 -0.0194
  279MOL0     H37613   8.940   9.180  -0.665  2.0726  1.5057 -1.2913
  279MOL0     H37614   8.991   8.869  -0.663 -0.5370 -0.9975  0.4344
  279MOL0     H37615   8.857   8.963  -0.740 -0.2668 -1.6447  3.1366
  279MOL0     H37616   9.061   8.755  -0.869 -4.0333  1.0363 -0.6341
  279MOL0     H37617   9.281   8.845  -1.173  2.2691 -1.4477  1.4315
  279MOL0     H37618   9.233   8.709  -1.072  2.5727  1.4295  1.7611
  279MOL0     H37619   9.069   8.861  -1.279 -0.2108  0.4770 -0.1518
  279MOL0     H37620   9.150   8.715  -1.328 -0.4994 -0.2298 -0.5293
  279MOL0     H37621   8.943   8.729  -1.116 -4.5438 -0.5526 -1.6666
  279MOL0     H37622   9.025   8.576  -1.171  1.1079  0.8101  2.1824
  279MOL0     H37623   8.909   8.618  -1.379  1.9601 -2.0100  2.1950
  279MOL0     H37624   8.838   8.768  -1.329  1.6224 -0.7425 -0.0133
  279MOL0     H37625   8.581   8.508  -1.073 -0.5795  0.8545 -1.7169
  279MOL0     H37626   8.563   8.291  -0.989  3.6513  0.5619  2.1636
  279MOL0     H37627   8.394   7.864  -1.020 -0.4148 -2.9775 -0.2678
  279MOL0     H37628   8.409   7.630  -0.975  1.4730  1.0980 -2.3595
  279MOL0     H37629   8.432   7.406  -0.880 -0.5794  0.3337  0.7354
  279MOL0     H37630   8.549   7.410  -1.008 -0.5889 -1.1936  0.0898
  279MOL0     H37631   8.557   7.189  -0.923 -1.0802 -0.5291  0.4033
  279MOL0     H37632   8.700   7.275  -0.858 -0.4076 -1.8993 -2.3313
  279MOL0     H37633   8.557   7.280  -0.638 -1.6456 -0.2939  0.2174
  279MOL0     H37634   8.425   7.203  -0.728 -0.1610 -1.0843  1.8848
  279MOL0     H37635   8.706   7.086  -0.683  0.3210 -1.8378 -2.4196
  279MOL0     H37636   8.586   7.005  -0.773  1.3513 -2.0184  1.1076
  279MOL0     H37637   8.430   7.027  -0.559  0.0309  0.6392 -0.4131
  279MOL0     H37638   8.557   7.126  -0.487 -0.6272  1.8108 -1.4931
  279MOL0     H37639   8.564   6.826  -0.566  0.2950  2.7765 -3.6520
  279MOL0     H37640   8.705   6.915  -0.514  0.7370  1.6136  0.5906
  279MOL0     H37641   8.609   6.783  -0.314 -1.7053 -0.1916  2.1546
  279MOL0     H37642   8.452   6.860  -0.338 -0.9770 -0.7879 -1.9759
  279MOL0     H37643   8.717   6.999  -0.309  0.4992 -3.1625  1.1368
  279MOL0     H37644   8.569   7.085  -0.280  0.2126  0.0126  2.6191
  279MOL0     H37645   8.755   7.705  -0.730  0.4014  0.5973 -0.1336
  279MOL0     H37646   8.766   7.921  -0.789  0.6364 -0.0762 -0.8791
  279MOL0     H37647   8.853   8.144  -1.259 -1.8600 -1.2574  0.7108
  279MOL0     H37648   8.913   8.381  -1.321 -0.6764  0.7160 -0.9997
  279MOL0     H37649   9.301   9.375   0.143  2.1202 -1.7315 -0.0897
  279MOL0     H37650   9.414   9.490   0.305  0.8705 -0.6056  1.0779
  279MOL0     H37651   9.365   9.484   0.800 -0.3469  1.9929 -3.7956
  279MOL0     H37652   9.416   9.549   1.029 -0.4542  0.9627  0.3838
  279MOL0     H37653   9.586   9.747   1.221 -0.9327 -5.9280  0.2271
  279MOL0     H37654   9.701   9.824   1.092  0.2288 -1.1739 -0.4435
  279MOL0     H37655   9.777   9.654   1.325 -1.5334  0.1986  1.2374
  279MOL0     H37656   9.800   9.829   1.319  3.0784  0.1407 -0.8672
  279MOL0     H37657   9.935   9.617   1.135  2.7773  0.8364 -1.7796
  279MOL0     H37658  10.001   9.703   1.271  0.4640  0.2266 -0.1085
  279MOL0     H37659   9.913   9.839   1.012 -3.2653 -2.2801  2.1468
  279MOL0     H37660   9.960   9.937   1.154  0.4378  0.7220 -0.7460
  279MOL0     H37661  10.332   9.786   1.005 -0.3019  1.4077 -4.0788
  279MOL0     H37662   9.830   9.604   0.901  0.2736 -1.2394  1.8038
  279MOL0     H37663   9.889   9.620   0.681  0.2963 -1.8564  4.2652
  279MOL0     H37664   9.841   9.467   0.622 -0.8657 -0.4665  1.5844
  279MOL0     H37665   9.771   9.606   0.540 -2.0041 -3.1284 -1.5174
  280MOL0     O37666   0.036   2.685   2.055  0.4354  0.5401  0.5651
  280MOL0     C37667  -0.024   2.787   2.025  0.2816  0.8847 -0.4956
  280MOL0     O37668   0.025   2.883   1.938  0.1016  0.5636 -0.0957
  280MOL0     C37669   0.162   2.883   1.911 -0.3426  0.5663 -0.2400
  280MOL0     C37670   0.219   2.820   1.805 -0.1755 -1.1040  0.0508
  280MOL0     C37671   0.362   2.823   1.781 -0.3011 -0.2477 -0.3852
  280MOL0     C37672   0.447   2.885   1.872  0.0807 -0.5447 -0.2126
  280MOL0     O37673   0.580   2.882   1.854 -0.5485  0.3110 -0.4378
  280MOL0     C37674   0.656   2.985   1.914 -0.7213 -1.0709  1.0163
  280MOL0     C37675   0.659   3.124   1.850 -0.2462  0.8417 -0.6998
  280MOL0     C37676   0.720   3.105   1.706 -0.6743  0.5240 -1.0679
  280MOL0     C37677   0.763   3.241   1.657 -0.0933 -0.2496 -0.1656
  280MOL0     C37678   0.857   3.231   1.536  0.0763  0.5948 -0.3991
  280MOL0     C37679   0.964   3.342   1.547  0.0889 -0.0961 -0.5779
  280MOL0     C37680   1.057   3.331   1.424  0.2490 -0.1704  0.6828
  280MOL0     C37681   1.153   3.451   1.405  0.6228  0.1398 -0.3313
  280MOL0     N37682   1.256   3.468   1.506  0.1076 -0.1890 -0.7173
  280MOL0     C37683   1.393   3.461   1.492  0.4597 -0.7225 -0.3019
  280MOL0     C37684   1.444   3.494   1.615 -0.2150  0.0179  0.4915
  280MOL0     C37685   1.587   3.514   1.624 -0.0769  0.5173 -0.4075
  280MOL0     C37686   1.651   3.384   1.672 -0.3441  0.4065 -0.9503
  280MOL0     C37687   1.632   3.372   1.821 -0.5169  0.2750 -0.0395
  280MOL0     C37688   1.695   3.246   1.881 -0.3080  0.1170  0.7726
  280MOL0     O37689   1.644   3.128   1.803 -0.1491  0.3381 -0.4075
  280MOL0     C37690   1.529   3.062   1.845 -0.2434 -0.1959  0.4203
  280MOL0     C37691   1.545   2.937   1.915  0.1766  0.0543  0.0908
  280MOL0     C37692   1.426   2.860   1.949 -0.4509  0.6723 -0.2488
  280MOL0     C37693   1.301   2.902   1.911 -0.2949  0.6922  0.1065
  280MOL0     C37694   1.188   2.825   1.957  0.5833  0.7551 -0.0224
  280MOL0     O37695   1.193   2.729   2.054 -0.1065  0.5781  0.0431
  280MOL0     C37696   1.087   2.656   2.102 -0.2414 -0.7408 -0.0628
  280MOL0     C37697   0.960   2.636   2.048 -0.5502 -0.6001 -0.1841
  280MOL0     C37698   0.875   2.544   2.106  0.6330  0.6336 -0.5249
  280MOL0     C37699   0.912   2.469   2.215  0.2157  0.2465 -0.6617
  280MOL0     O37700   0.825   2.378   2.277  0.0720  0.0262  0.2875
  280MOL0     C37701   0.686   2.417   2.288 -0.4628 -0.7298 -0.4161
  280MOL0     C37702   0.639   2.375   2.426  0.7035 -0.0473  0.7318
  280MOL0     C37703   0.491   2.342   2.426 -0.5490 -0.3971 -0.1881
  280MOL0     C37704   0.464   2.219   2.518  0.6257  0.0058  0.6342
  280MOL0     C37705   0.496   2.250   2.666 -0.7722 -0.4323  0.6006
  280MOL0     C37706   0.530   2.128   2.745  0.5465 -0.4638 -0.1146
  280MOL0     C37707   0.415   2.023   2.729 -0.6555 -0.0391  0.4058
  280MOL0     C37708   0.375   1.966   2.869  0.4117 -0.4113 -0.7152
  280MOL0    Cl37709   0.269   2.084   2.956 -0.1394 -0.0352 -0.2159
  280MOL0     C37710   1.030   2.489   2.270 -0.5697  0.2856 -0.1589
  280MOL0     C37711   1.126   2.567   2.211  0.1528 -0.4688 -0.4184
  280MOL0     O37712   1.081   2.873   1.914  0.4673  0.4287  0.2651
  280MOL0     C37713   1.288   3.023   1.838  1.0300 -0.6670  0.4625
  280MOL0     C37714   1.401   3.107   1.807 -0.4312  0.6980 -0.5392
  280MOL0     N37715   1.340   3.514   1.699 -1.1988  0.0583 -0.3276
  280MOL0     N37716   1.237   3.501   1.630  0.0924  0.6735  0.5041
  280MOL0     C37717   0.384   2.953   1.978  0.1087 -0.2884 -0.6594
  280MOL0     C37718   0.251   2.960   1.984 -0.0303 -0.1108  0.2329
  280MOL0     C37719  -0.169   2.774   2.046  0.4431 -0.2230  1.0731
  280MOL0     C37720  -0.252   2.727   1.937 -0.7639  0.4401 -0.2288
  280MOL0     C37721  -0.388   2.724   1.946  0.6042  0.0886 -0.1683
  280MOL0     C37722  -0.445   2.760   2.064  0.7926 -1.0380 -0.0554
  280MOL0     O37723  -0.578   2.756   2.070  0.5801 -0.3477  0.5943
  280MOL0     C37724  -0.670   2.835   1.987 -0.6792 -0.7275  0.4331
  280MOL0     C37725  -0.799   2.752   1.959 -0.4529  0.4596  0.5162
  280MOL0     C37726  -0.767   2.599   1.922  0.4013  0.1906  0.6100
  280MOL0     C37727  -0.890   2.539   1.856 -0.2928  0.1137 -0.4000
  280MOL0     C37728  -1.021   2.571   1.909  0.4606 -0.5451  0.2833
  280MOL0     C37729  -1.133   2.595   1.952  0.3648  0.2570  0.2865
  280MOL0     C37730  -0.371   2.797   2.179  0.3283  0.0918  0.5240
  280MOL0     C37731  -0.228   2.805   2.171  1.6504  0.2013  0.6038
  280MOL0     C37732  -0.149   2.846   2.284  0.1638 -0.0225 -0.5723
  280MOL0     H37733   0.166   2.758   1.733 -0.5622  0.8889 -1.4928
  280MOL0     H37734   0.408   2.780   1.692  3.9724 -3.6896  3.0181
  280MOL0     H37735   0.634   3.004   2.020  1.9164 -1.2106  1.6635
  280MOL0     H37736   0.762   2.959   1.914 -0.5081 -0.2966  2.0868
  280MOL0     H37737   0.722   3.181   1.919 -0.6421 -1.8123  2.0511
  280MOL0     H37738   0.557   3.163   1.840  0.5848  4.8699  3.1928
  280MOL0     H37739   0.648   3.064   1.635 -1.9301  1.3061 -0.2815
  280MOL0     H37740   0.810   3.042   1.702 -0.8830  0.2931 -2.7532
  280MOL0     H37741   0.672   3.300   1.641 -1.5667 -1.9976  1.4266
  280MOL0     H37742   0.812   3.298   1.736  0.6621 -1.5442  0.3267
  280MOL0     H37743   0.904   3.132   1.532 -0.2990  0.4167 -0.5861
  280MOL0     H37744   0.809   3.234   1.438  2.9737  0.5264 -1.9163
  280MOL0     H37745   0.908   3.436   1.555  1.8704  0.8581  2.7599
  280MOL0     H37746   1.017   3.330   1.642 -1.0975  2.5177  0.5177
  280MOL0     H37747   1.006   3.312   1.329  0.3972 -0.7181  0.7080
  280MOL0     H37748   1.115   3.239   1.433 -2.1347 -1.5847  2.6731
  280MOL0     H37749   1.197   3.442   1.305 -1.0540 -1.5471 -0.9818
  280MOL0     H37750   1.091   3.539   1.384  0.7634  0.2924 -0.1202
  280MOL0     H37751   1.449   3.437   1.402  2.1033 -0.4894  0.6173
  280MOL0     H37752   1.629   3.556   1.532 -0.8040 -0.3874 -1.1775
  280MOL0     H37753   1.604   3.587   1.703 -1.4621  4.2603 -3.2927
  280MOL0     H37754   1.624   3.296   1.614 -0.1517  0.0437 -0.4950
  280MOL0     H37755   1.757   3.404   1.652 -0.7549  2.1070 -1.6269
  280MOL0     H37756   1.525   3.363   1.842 -0.0579 -3.6535  1.4183
  280MOL0     H37757   1.675   3.457   1.874  2.2389 -1.2641  0.3452
  280MOL0     H37758   1.661   3.246   1.985  1.0511 -0.5114  1.2327
  280MOL0     H37759   1.804   3.247   1.876 -0.3486  0.7836 -2.3798
  280MOL0     H37760   1.644   2.898   1.936 -0.0773 -0.9172 -0.3995
  280MOL0     H37761   1.432   2.769   2.008  1.6569  1.0801  0.2373
  280MOL0     H37762   0.941   2.693   1.958  0.6284 -2.3226 -1.6011
  280MOL0     H37763   0.773   2.538   2.069 -1.2332  2.6960  3.6218
  280MOL0     H37764   0.679   2.525   2.271 -4.1865 -0.9570 -1.2029
  280MOL0     H37765   0.629   2.366   2.209  0.7593 -0.4113 -1.5300
  280MOL0     H37766   0.697   2.287   2.452  0.3514 -0.9127 -1.1835
  280MOL0     H37767   0.653   2.448   2.505 -2.9491 -1.2070  2.6782
  280MOL0     H37768   0.443   2.429   2.471  0.4899  0.1626 -0.1440
  280MOL0     H37769   0.447   2.314   2.329  1.6691 -2.4615 -0.7092
  280MOL0     H37770   0.529   2.140   2.479  1.1229  0.7823 -0.1556
  280MOL0     H37771   0.361   2.188   2.498 -0.0112  3.3298 -1.9594
  280MOL0     H37772   0.419   2.306   2.720 -2.5163 -1.2556 -0.9205
  280MOL0     H37773   0.588   2.309   2.672 -0.0205 -1.6346  1.3046
  280MOL0     H37774   0.631   2.089   2.726  1.2176  0.6586  0.9790
  280MOL0     H37775   0.539   2.168   2.846  0.5915  1.2710 -0.7606
  280MOL0     H37776   0.444   1.943   2.660 -0.6630 -1.2552  1.7601
  280MOL0     H37777   0.329   2.074   2.684  2.6940  2.9024 -3.4918
  280MOL0     H37778   0.312   1.877   2.854 -0.8921  0.4350 -0.3631
  280MOL0     H37779   0.465   1.936   2.923  0.8671  3.6524  1.1208
  280MOL0     H37780   1.050   2.435   2.362 -1.4268  2.6287  1.4868
  280MOL0     H37781   1.227   2.581   2.248 -0.1272  2.2480 -0.4506
  280MOL0     H37782   1.183   3.045   1.819 -0.0797 -4.3276  1.3773
  280MOL0     H37783   1.384   3.192   1.741  1.1244  1.6793  0.2580
  280MOL0     H37784   0.439   3.004   2.057  0.7868  2.1633 -2.6039
  280MOL0     H37785   0.204   3.021   2.060 -0.3679  0.9161 -0.7619
  280MOL0     H37786  -0.202   2.695   1.846  2.1608 -1.9618  2.0149
  280MOL0     H37787  -0.433   2.690   1.853  2.6029  1.5070 -1.7323
  280MOL0     H37788  -0.629   2.876   1.895 -0.6419 -1.7324 -0.0115
  280MOL0     H37789  -0.698   2.922   2.048 -2.8428  0.9830 -2.6983
  280MOL0     H37790  -0.850   2.810   1.881  0.1411  2.4012  1.5187
  280MOL0     H37791  -0.857   2.748   2.052 -1.9830 -0.3157 -0.4227
  280MOL0     H37792  -0.740   2.532   2.004 -0.0964  3.1690  3.4425
  280MOL0     H37793  -0.684   2.586   1.852 -0.6629  3.5347 -1.4759
  280MOL0     H37794  -0.892   2.567   1.750 -1.3495 -2.5476 -1.1603
  280MOL0     H37795  -0.873   2.431   1.854  0.5404  0.2000  0.8890
  280MOL0     H37796  -1.228   2.602   2.001 -1.7262 -6.2608 -1.8746
  280MOL0     H37797  -0.427   2.827   2.267 -0.6769  0.3659 -0.1911
  280MOL0     H37798  -0.066   2.776   2.301  1.1236  1.1038 -0.4624
  280MOL0     H37799  -0.111   2.947   2.268 -0.6614  0.8813  2.4559
  280MOL0     H37800  -0.207   2.823   2.374 -2.3607 -0.7822 -2.3168
  281MOL0     O37801   2.138   9.296   5.054  0.0403  0.2696 -0.1444
  281MOL0     C37802   2.250   9.256   5.096 -0.4468  0.7390  0.1473
  281MOL0     O37803   2.265   9.155   5.193 -0.5380 -0.9341  0.1407
  281MOL0     C37804   2.173   9.131   5.290  0.4024 -0.5484  0.2506
  281MOL0     C37805   2.039   9.119   5.264  0.2409  0.3752  0.5865
  281MOL0     C37806   1.954   9.100   5.369  0.3786  0.1623  0.3851
  281MOL0     C37807   1.993   9.067   5.490 -0.3813 -0.0119 -1.0569
  281MOL0     O37808   1.910   9.019   5.582  0.2741  1.0919  0.3466
  281MOL0     C37809   1.807   9.112   5.628  0.9022 -0.7638  0.2418
  281MOL0     C37810   1.710   9.033   5.718  0.6139 -0.6366 -0.7314
  281MOL0     C37811   1.773   8.989   5.857  0.3588  0.4128  0.4769
  281MOL0     C37812   1.727   9.057   5.989 -0.7135  0.4700 -0.6750
  281MOL0     C37813   1.835   9.051   6.099  0.0524 -0.5993  0.3298
  281MOL0     C37814   1.782   8.988   6.231 -0.3534  0.7717  0.1456
  281MOL0     C37815   1.682   9.068   6.320  0.3919  0.8965 -0.1512
  281MOL0     C37816   1.537   9.031   6.298 -0.0224  0.8214  0.4494
  281MOL0     N37817   1.501   8.895   6.363  0.3844 -0.0215 -0.4094
  281MOL0     C37818   1.395   8.814   6.331  0.2038 -0.5354 -0.6582
  281MOL0     C37819   1.411   8.692   6.396 -0.4738 -0.8946 -0.6521
  281MOL0     C37820   1.318   8.579   6.399  0.5193 -0.0338 -0.4494
  281MOL0     C37821   1.363   8.464   6.318 -0.1401  0.7484 -0.4434
  281MOL0     C37822   1.292   8.334   6.360  0.3963 -0.5732 -0.8584
  281MOL0     C37823   1.319   8.230   6.252  0.0976  0.6442  0.0274
  281MOL0     O37824   1.229   8.260   6.146  0.1182 -0.8487  0.3116
  281MOL0     C37825   1.185   8.156   6.067  0.4191  1.0055  0.8219
  281MOL0     C37826   1.092   8.180   5.973  0.6233  0.8816  0.2243
  281MOL0     C37827   1.049   8.080   5.882 -0.5457  0.0119  0.2762
  281MOL0     C37828   1.105   7.950   5.892 -0.3385 -0.5661 -0.0128
  281MOL0     C37829   1.056   7.849   5.797 -0.2461  0.2254 -1.0012
  281MOL0     O37830   1.001   7.883   5.672 -0.4040  0.6887 -0.8318
  281MOL0     C37831   0.976   7.781   5.585 -0.4236 -0.3167  0.3186
  281MOL0     C37832   0.865   7.801   5.496  0.1665 -0.4268  0.1870
  281MOL0     C37833   0.830   7.701   5.408 -0.4831  0.1577 -0.3621
  281MOL0     C37834   0.900   7.578   5.395 -0.1471  0.1896 -0.3096
  281MOL0     O37835   0.864   7.474   5.312  0.7103 -0.2028 -0.4728
  281MOL0     C37836   0.965   7.415   5.239  0.0951 -0.1937 -0.0993
  281MOL0     C37837   0.909   7.371   5.106  0.9193 -0.3714 -0.4739
  281MOL0     C37838   0.820   7.491   5.054 -0.2647  0.4249 -0.2257
  281MOL0     C37839   0.791   7.486   4.904 -0.9658 -0.2120  0.9065
  281MOL0     C37840   0.715   7.611   4.866  1.0086 -0.2388 -0.0597
  281MOL0     C37841   0.703   7.659   4.722  0.0558  0.5170  0.5719
  281MOL0     C37842   0.614   7.792   4.710 -0.2890  0.6732  0.3712
  281MOL0     C37843   0.597   7.857   4.573  0.0441  0.6693  0.0921
  281MOL0    Cl37844   0.546   7.742   4.442 -0.5581 -0.1160 -0.7243
  281MOL0     C37845   1.015   7.563   5.477 -0.4056 -0.0061 -0.0614
  281MOL0     C37846   1.064   7.676   5.564 -0.2888  0.0683  1.7311
  281MOL0     O37847   1.060   7.735   5.854 -0.2798 -0.1659 -0.4385
  281MOL0     C37848   1.193   7.925   5.992 -0.3344  0.4126  0.0590
  281MOL0     C37849   1.242   8.024   6.068  0.1840  1.0665 -0.5494
  281MOL0     N37850   1.531   8.706   6.466 -0.1891  0.5687 -0.5774
  281MOL0     N37851   1.577   8.820   6.439  0.5822  0.1670 -0.2889
  281MOL0     C37852   2.132   9.074   5.516 -0.2737 -0.5938 -0.7591
  281MOL0     C37853   2.220   9.118   5.418  0.5918  0.2214 -0.6130
  281MOL0     C37854   2.375   9.299   5.021 -0.4995  0.5148  0.3134
  281MOL0     C37855   2.500   9.239   5.068 -0.1547  0.4100  0.2045
  281MOL0     C37856   2.619   9.264   4.999  0.0550 -0.1221 -0.6114
  281MOL0     C37857   2.623   9.354   4.898 -0.9167  0.1583 -1.2517
  281MOL0     O37858   2.747   9.376   4.843  0.0800  0.3342  0.2726
  281MOL0     C37859   2.742   9.426   4.704 -0.8896 -1.2913 -0.7855
  281MOL0     C37860   2.887   9.390   4.642  0.3197 -0.6509  0.8472
  281MOL0     C37861   2.938   9.251   4.678 -0.4888 -0.4425  0.4400
  281MOL0     C37862   3.081   9.225   4.620 -0.3334  0.1737  0.2701
  281MOL0     C37863   3.179   9.320   4.665  0.4615 -0.6047 -0.2471
  281MOL0     C37864   3.241   9.413   4.699  0.0372 -0.7629  0.1544
  281MOL0     C37865   2.503   9.403   4.848 -0.6913 -0.7096  0.7862
  281MOL0     C37866   2.377   9.373   4.899  0.3538  0.1973  1.0204
  281MOL0     C37867   2.255   9.422   4.812  0.3643  0.2759 -0.7034
  281MOL0     H37868   2.008   9.109   5.160  1.3405 -3.9221  0.4907
  281MOL0     H37869   1.845   9.103   5.366  0.3252 -0.3484  1.5287
  281MOL0     H37870   1.837   9.210   5.666  0.9175 -0.4714 -0.5126
  281MOL0     H37871   1.757   9.136   5.533  3.3010 -0.1278 -0.9522
  281MOL0     H37872   1.678   8.939   5.670 -0.3393 -0.7569  0.1138
  281MOL0     H37873   1.620   9.091   5.740  1.0123 -0.0442 -0.6385
  281MOL0     H37874   1.881   9.002   5.849  0.4696  1.7620  2.8857
  281MOL0     H37875   1.748   8.883   5.870 -1.0797  0.2194 -2.8539
  281MOL0     H37876   1.723   9.164   5.967 -3.9767  0.4706 -0.5280
  281MOL0     H37877   1.630   9.019   6.022  0.3998 -3.5064 -1.3672
  281MOL0     H37878   1.922   8.991   6.071 -0.6315 -1.2831 -0.3849
  281MOL0     H37879   1.877   9.148   6.126 -1.3918  1.1091 -3.0530
  281MOL0     H37880   1.747   8.885   6.214  0.9522  0.4067 -0.4711
  281MOL0     H37881   1.878   8.985   6.283  0.0101  0.2143 -0.5296
  281MOL0     H37882   1.692   9.174   6.294  3.0756  1.1797  1.6204
  281MOL0     H37883   1.696   9.049   6.427 -3.2356 -1.9926  0.0067
  281MOL0     H37884   1.478   9.114   6.339  2.4136  2.8730 -0.0176
  281MOL0     H37885   1.518   9.014   6.192  3.5136 -2.2666  0.1187
  281MOL0     H37886   1.308   8.843   6.274  1.3278  0.7638 -1.7957
  281MOL0     H37887   1.311   8.542   6.502  3.3751 -0.5661 -0.3509
  281MOL0     H37888   1.218   8.600   6.361  0.7198 -0.1233 -1.0396
  281MOL0     H37889   1.348   8.485   6.212 -1.0999 -1.1437 -0.7260
  281MOL0     H37890   1.469   8.440   6.336 -0.4339  0.0935  0.5153
  281MOL0     H37891   1.183   8.345   6.367  0.5689  0.4905  0.5251
  281MOL0     H37892   1.336   8.307   6.456  0.4314  2.2511 -0.0038
  281MOL0     H37893   1.296   8.133   6.297  2.1520 -0.2589 -0.7564
  281MOL0     H37894   1.418   8.225   6.207 -1.0745  0.3069 -2.7264
  281MOL0     H37895   1.055   8.282   5.964 -0.0789  0.6076 -0.0472
  281MOL0     H37896   0.976   8.099   5.803  3.9106 -1.0360 -4.6560
  281MOL0     H37897   0.799   7.887   5.500 -3.3431 -2.9331  1.4824
  281MOL0     H37898   0.743   7.723   5.346 -0.7013 -0.0510 -0.1315
  281MOL0     H37899   1.039   7.493   5.219  1.3571 -0.6807  2.3373
  281MOL0     H37900   1.008   7.333   5.295 -1.8874 -1.5285 -0.4187
  281MOL0     H37901   0.981   7.351   5.025  1.9485  1.9598 -0.2059
  281MOL0     H37902   0.844   7.288   5.137 -0.6878  0.9388 -0.2389
  281MOL0     H37903   0.718   7.502   5.094 -0.6755  1.3036 -1.4628
  281MOL0     H37904   0.883   7.579   5.070 -0.9523  0.7267  0.9018
  281MOL0     H37905   0.740   7.391   4.884 -0.3142 -0.1371 -1.4642
  281MOL0     H37906   0.881   7.483   4.843 -0.2315 -0.7236  1.9915
  281MOL0     H37907   0.760   7.699   4.914 -0.8405 -0.2503  1.8291
  281MOL0     H37908   0.614   7.604   4.906  0.3919 -4.1283 -1.8424
  281MOL0     H37909   0.801   7.679   4.677 -1.0395  4.5516 -0.4259
  281MOL0     H37910   0.662   7.582   4.655 -1.5901  0.3754  1.6927
  281MOL0     H37911   0.651   7.870   4.777 -2.8971  2.0891  0.2878
  281MOL0     H37912   0.514   7.765   4.747  0.4504  1.3978  3.0833
  281MOL0     H37913   0.522   7.934   4.592 -0.5008 -0.4658  3.1574
  281MOL0     H37914   0.687   7.907   4.536  0.2232 -0.2067 -0.6916
  281MOL0     H37915   1.079   7.477   5.458  0.0445  0.6401 -1.5992
  281MOL0     H37916   1.159   7.664   5.615  1.0715  0.4936 -0.5877
  281MOL0     H37917   1.218   7.823   6.018  0.0113  1.3142  3.9011
  281MOL0     H37918   1.327   7.998   6.130 -1.0329 -2.8607 -0.2540
  281MOL0     H37919   2.172   9.041   5.612  1.4781 -3.0459 -2.2361
  281MOL0     H37920   2.326   9.125   5.439  0.2564  1.7920  0.7489
  281MOL0     H37921   2.510   9.181   5.159 -0.4272  1.1545  0.7178
  281MOL0     H37922   2.719   9.237   5.032  0.8909 -0.0994 -2.9123
  281MOL0     H37923   2.742   9.535   4.696  1.4767 -1.1751  0.0388
  281MOL0     H37924   2.662   9.382   4.643  0.1391  1.7294 -4.7584
  281MOL0     H37925   2.954   9.471   4.673 -1.3369  0.6671  1.1541
  281MOL0     H37926   2.889   9.387   4.533  2.1741  0.7680  0.7939
  281MOL0     H37927   2.875   9.174   4.631  2.0544 -2.4153  0.0628
  281MOL0     H37928   2.938   9.231   4.785 -2.0856 -0.9361  0.3821
  281MOL0     H37929   3.123   9.128   4.647  3.8182  1.5775 -0.3992
  281MOL0     H37930   3.072   9.232   4.511 -1.2527 -1.2303  0.2417
  281MOL0     H37931   3.301   9.501   4.718  2.2537 -1.1966 -3.8527
  281MOL0     H37932   2.488   9.467   4.762  2.2596 -1.7422 -0.6245
  281MOL0     H37933   2.198   9.330   4.795  2.2911 -1.1624  0.1116
  281MOL0     H37934   2.194   9.488   4.874 -0.4035 -1.2309  0.2298
  281MOL0     H37935   2.280   9.455   4.711 -0.4761 -1.5407 -1.5669
  282MOL0     O37936   2.001   3.957  10.637 -0.1686 -0.5502 -0.4106
  282MOL0     C37937   1.909   3.909  10.570  0.1510  0.0427 -0.2781
  282MOL0     O37938   1.871   3.783  10.557  0.6097  0.2343  0.5350
  282MOL0     C37939   1.942   3.685  10.625 -0.0857 -0.8252 -0.4972
  282MOL0     C37940   2.083   3.692  10.631 -0.0760 -0.0602 -0.4901
  282MOL0     C37941   2.149   3.583  10.691  0.1515  0.4833 -0.3999
  282MOL0     C37942   2.087   3.471  10.752  0.2554 -0.5796 -0.3803
  282MOL0     O37943   2.151   3.363  10.819 -0.2229  0.1336 -0.1397
  282MOL0     C37944   2.078   3.262  10.886  0.1018 -0.4721 -0.1912
  282MOL0     C37945   2.171   3.177  10.973 -0.3015  0.1364 -0.0566
  282MOL0     C37946   2.212   3.255  11.099  0.4049  0.2189  0.1743
  282MOL0     C37947   2.310   3.170  11.181  0.1149  0.2186 -0.7303
  282MOL0     C37948   2.390   3.247  11.285  0.3007 -0.4101  0.4252
  282MOL0     C37949   2.501   3.170  11.365  0.0408  0.6708  0.1423
  282MOL0     C37950   2.549   3.243  11.486  0.8275  0.4745  0.3584
  282MOL0     C37951   2.666   3.336  11.450 -0.4600 -0.4431  0.7949
  282MOL0     N37952   2.679   3.434  11.563 -0.6450  0.3179  0.7081
  282MOL0     C37953   2.708   3.566  11.548 -0.0684  0.8690 -0.4271
  282MOL0     C37954   2.726   3.608  11.668  0.1130 -0.5288 -0.1338
  282MOL0     C37955   2.747   3.756  11.697  0.7414  0.2827  0.7496
  282MOL0     C37956   2.890   3.797  11.732  0.3918  0.4237 -0.4418
  282MOL0     C37957   2.911   3.950  11.759 -0.1732 -1.1671 -0.5425
  282MOL0     C37958   3.054   3.967  11.814  0.4162  0.0617 -1.0685
  282MOL0     O37959   3.091   4.109  11.824 -0.5095  0.3552  0.0843
  282MOL0     C37960   3.202   4.157  11.894  0.0752 -1.4620 -0.1998
  282MOL0     C37961   3.287   4.089  11.978 -0.5770 -0.3869 -0.9201
  282MOL0     C37962   3.393   4.150  12.042 -0.6913  1.1674  0.2378
  282MOL0     C37963   3.405   4.287  12.035  0.5841 -0.3326 -0.6251
  282MOL0     C37964   3.522   4.364  12.097  1.0484  0.0392 -0.8301
  282MOL0     O37965   3.594   4.296  12.172 -0.5427  0.0517 -0.0723
  282MOL0     C37966   3.706   4.332  12.239  0.8178 -0.0493  0.2289
  282MOL0     C37967   3.790   4.221  12.270 -0.1681 -0.2829 -0.5780
  282MOL0     C37968   3.913   4.245  12.332 -1.2474 -0.2793  0.7941
  282MOL0     C37969   3.940   4.363  12.391  0.5208 -0.6218  0.1291
  282MOL0     O37970   4.059   4.379  12.456 -0.2072  0.1779 -0.5496
  282MOL0     C37971   4.143   4.480  12.419 -0.2822 -1.1723 -0.6676
  282MOL0     C37972   4.293   4.435  12.418  1.0724 -0.8416  0.0924
  282MOL0     C37973   4.392   4.539  12.364  0.5231  0.5810 -0.7786
  282MOL0     C37974   4.517   4.470  12.322 -1.0826 -0.2934 -0.1348
  282MOL0     C37975   4.633   4.574  12.311 -0.5176  0.2020 -0.6227
  282MOL0     C37976   4.759   4.482  12.292 -0.0311  0.1115 -0.6977
  282MOL0     C37977   4.870   4.575  12.280 -0.1820 -0.0764  1.2254
  282MOL0     C37978   4.999   4.496  12.255  0.5608  0.6187  0.5589
  282MOL0    Cl37979   4.978   4.413  12.096 -0.1889  0.6529  0.1299
  282MOL0     C37980   3.848   4.472  12.370 -1.9354  1.3369 -0.2157
  282MOL0     C37981   3.737   4.451  12.292 -0.5621 -1.1144 -0.4620
  282MOL0     O37982   3.516   4.491  12.076  0.0334 -0.2418  0.1925
  282MOL0     C37983   3.322   4.364  11.945 -0.2680  0.2154 -0.4858
  282MOL0     C37984   3.225   4.295  11.878  0.8317  1.2678 -0.3572
  282MOL0     N37985   2.724   3.511  11.764 -0.0116 -0.2146  0.0982
  282MOL0     N37986   2.698   3.403  11.699  0.7253  0.7595  0.4105
  282MOL0     C37987   1.945   3.469  10.733  0.0391 -0.3906  0.6970
  282MOL0     C37988   1.875   3.574  10.673 -0.4955 -0.1691 -0.8772
  282MOL0     C37989   1.854   3.998  10.466  0.7640  0.3717  0.0810
  282MOL0     C37990   1.748   3.942  10.389 -0.1198 -0.1373 -0.4980
  282MOL0     C37991   1.670   4.022  10.308  0.2814  0.4676 -0.7780
  282MOL0     C37992   1.702   4.157  10.286  0.8719 -1.3329  0.1635
  282MOL0     O37993   1.650   4.246  10.200 -0.1392 -0.0916  0.0530
  282MOL0     C37994   1.561   4.203  10.102 -0.3320  1.2066 -0.4733
  282MOL0     C37995   1.492   4.323  10.034 -0.0724 -0.3431  1.1903
  282MOL0     C37996   1.574   4.391   9.928  0.1380 -0.1943  0.5366
  282MOL0     C37997   1.501   4.507   9.858 -0.5933  0.4490 -0.0189
  282MOL0     C37998   1.503   4.636   9.936  0.6807 -0.9187  0.2895
  282MOL0     C37999   1.503   4.754   9.974 -0.5604  0.1582 -0.3429
  282MOL0     C38000   1.809   4.208  10.353  0.3710 -0.0543  0.3025
  282MOL0     C38001   1.880   4.136  10.447 -0.6763  0.8267 -0.5270
  282MOL0     C38002   1.978   4.214  10.534 -0.0456  0.6532 -0.2701
  282MOL0     H38003   2.144   3.774  10.594 -1.3703  0.7038 -1.0521
  282MOL0     H38004   2.257   3.577  10.700  0.1797 -2.1981 -1.5140
  282MOL0     H38005   2.009   3.328  10.939  0.5184 -1.2468  1.3621
  282MOL0     H38006   2.029   3.197  10.813  0.3573 -1.0415  0.1350
  282MOL0     H38007   2.257   3.147  10.913 -0.2302  1.9983 -0.9708
  282MOL0     H38008   2.109   3.091  10.999 -0.6511 -1.0552 -4.1956
  282MOL0     H38009   2.115   3.272  11.146  1.3381  2.4274  1.4522
  282MOL0     H38010   2.254   3.353  11.072  0.1158 -0.2182 -2.1220
  282MOL0     H38011   2.257   3.087  11.229  0.4473  0.0263 -0.6909
  282MOL0     H38012   2.388   3.120  11.122 -2.2646 -4.0045 -0.6895
  282MOL0     H38013   2.431   3.340  11.243 -0.7388  0.2858  0.8985
  282MOL0     H38014   2.316   3.288  11.354 -2.8089  0.6312 -3.2189
  282MOL0     H38015   2.470   3.079  11.419 -0.4998  2.2032  2.5649
  282MOL0     H38016   2.579   3.150  11.291 -0.3669  0.8642 -0.3404
  282MOL0     H38017   2.592   3.161  11.545 -2.0320 -2.7991 -1.7431
  282MOL0     H38018   2.471   3.296  11.541  1.3498  0.3548  1.2436
  282MOL0     H38019   2.756   3.274  11.446  2.4520  3.4343 -0.2058
  282MOL0     H38020   2.641   3.381  11.353  1.3338  3.0421  1.7608
  282MOL0     H38021   2.724   3.622  11.456  3.1678 -0.9801 -1.1422
  282MOL0     H38022   2.716   3.817  11.612  3.8425 -0.4102 -1.0086
  282MOL0     H38023   2.688   3.774  11.787  2.2913 -0.0296  1.8662
  282MOL0     H38024   2.931   3.738  11.814  3.3420  1.9860 -0.6576
  282MOL0     H38025   2.949   3.778  11.642 -0.2022 -0.3980 -0.6713
  282MOL0     H38026   2.851   3.992  11.839 -0.7676 -0.3928 -1.3848
  282MOL0     H38027   2.904   4.018  11.674 -0.6178  1.1001  1.2307
  282MOL0     H38028   3.119   3.917  11.741 -1.1817 -1.9382 -1.2179
  282MOL0     H38029   3.055   3.920  11.912  1.1444 -2.0425 -2.0202
  282MOL0     H38030   3.282   3.981  11.988  3.3920 -0.5492  1.8384
  282MOL0     H38031   3.445   4.096  12.120  0.6423 -0.7133 -1.8507
  282MOL0     H38032   3.760   4.123  12.235  2.5303 -2.2549  2.1651
  282MOL0     H38033   3.976   4.160  12.354 -2.4383 -1.1240  1.0446
  282MOL0     H38034   4.111   4.506  12.318 -2.0499  0.5258  0.2611
  282MOL0     H38035   4.136   4.562  12.491  2.3469 -2.5507  1.3408
  282MOL0     H38036   4.331   4.414  12.518 -0.1721  0.8342  0.9612
  282MOL0     H38037   4.293   4.341  12.362  3.8545 -2.3087  2.3176
  282MOL0     H38038   4.347   4.597  12.283 -1.5073  1.2168  0.7480
  282MOL0     H38039   4.417   4.608  12.446 -0.0835  4.2010 -3.3849
  282MOL0     H38040   4.514   4.414  12.228 -1.2744 -2.4828  1.1334
  282MOL0     H38041   4.540   4.406  12.407  2.7335  2.7213  1.4263
  282MOL0     H38042   4.644   4.630  12.404  0.0022 -0.3173 -0.3671
  282MOL0     H38043   4.606   4.632  12.222  0.8670 -0.7749 -1.7289
  282MOL0     H38044   4.774   4.425  12.384  3.7810  2.7832  0.5723
  282MOL0     H38045   4.751   4.410  12.210  0.8684 -1.3748  0.4769
  282MOL0     H38046   4.886   4.622  12.377  1.9079 -1.3052  1.5309
  282MOL0     H38047   4.857   4.649  12.200  2.2792  0.4060  1.1982
  282MOL0     H38048   5.087   4.560  12.246  1.0411  0.1435  1.6470
  282MOL0     H38049   5.018   4.423  12.334 -1.3547 -1.4783 -0.8058
  282MOL0     H38050   3.873   4.571  12.408  0.6418  0.0003  1.9239
  282MOL0     H38051   3.669   4.535  12.298  0.7301  0.0258 -1.0496
  282MOL0     H38052   3.326   4.471  11.930 -2.3995  0.8924  2.7973
  282MOL0     H38053   3.158   4.356  11.819 -2.7895 -1.4526  0.6151
  282MOL0     H38054   1.884   3.386  10.768 -0.7331 -0.3752 -0.5529
  282MOL0     H38055   1.768   3.569  10.683 -0.2150 -1.6268  2.2886
  282MOL0     H38056   1.706   3.844  10.407  1.1018 -0.6190 -0.1273
  282MOL0     H38057   1.589   3.960  10.271  0.5579 -1.3221  1.4029
  282MOL0     H38058   1.479   4.141  10.139 -0.1611  1.2529 -0.0114
  282MOL0     H38059   1.630   4.140  10.045  0.0178  1.2656 -0.1198
  282MOL0     H38060   1.456   4.395  10.108  1.4260  2.5564 -0.6750
  282MOL0     H38061   1.408   4.284   9.976  1.2528  1.5728 -2.3615
  282MOL0     H38062   1.596   4.311   9.856  0.9344 -2.1535  2.8399
  282MOL0     H38063   1.671   4.419   9.971  0.0805  0.0285  0.5215
  282MOL0     H38064   1.557   4.518   9.765  4.8768 -1.5463  2.5716
  282MOL0     H38065   1.402   4.478   9.822  1.1574 -3.8126 -2.0683
  282MOL0     H38066   1.510   4.856  10.006 -1.3827 -0.5985  2.5519
  282MOL0     H38067   1.819   4.316  10.348 -0.9380  0.0458 -2.9376
  282MOL0     H38068   2.077   4.172  10.514 -0.4979 -0.7476  0.3087
  282MOL0     H38069   1.968   4.320  10.508  0.6242  0.4655 -1.3990
  282MOL0     H38070   1.950   4.193  10.637  2.7793 -3.1463 -0.0304
  283MOL0     O38071   9.324   4.889   3.928  0.6173  0.6949 -0.1421
  283MOL0     C38072   9.407   4.955   3.865 -0.5893  0.5621 -0.5972
  283MOL0     O38073   9.397   5.077   3.819 -0.3601  0.6354  0.3741
  283MOL0     C38074   9.278   5.143   3.843  0.4733  0.4513  0.7391
  283MOL0     C38075   9.272   5.226   3.948 -0.1491  0.1719  0.2089
  283MOL0     C38076   9.160   5.317   3.965  0.7661  0.5073  0.4443
  283MOL0     C38077   9.054   5.314   3.868  0.2141  0.1439  0.8070
  283MOL0     O38078   8.962   5.415   3.892 -0.0651  0.8678 -0.2647
  283MOL0     C38079   8.850   5.406   3.807  0.4671 -0.6470 -0.4939
  283MOL0     C38080   8.763   5.532   3.844  0.4248  0.2953  0.2336
  283MOL0     C38081   8.635   5.534   3.755  0.6216 -1.7055  0.2607
  283MOL0     C38082   8.656   5.603   3.606  0.2483  0.5571  0.4731
  283MOL0     C38083   8.743   5.735   3.615  0.0154 -0.6407 -0.0228
  283MOL0     C38084   8.725   5.814   3.488 -0.9202  0.0186  0.0493
  283MOL0     C38085   8.601   5.905   3.487  0.0231  1.5224  0.8135
  283MOL0     C38086   8.592   5.951   3.340 -1.1319  1.2431  0.3669
  283MOL0     N38087   8.472   6.028   3.322  0.2400 -0.5228 -0.1062
  283MOL0     C38088   8.344   5.986   3.278  1.2080  0.2437 -0.3115
  283MOL0     C38089   8.265   6.101   3.277  0.5110 -0.1497  0.0861
  283MOL0     C38090   8.127   6.118   3.230  0.6591  0.2892 -0.4114
  283MOL0     C38091   8.032   6.217   3.308 -0.7106 -0.0489 -0.1277
  283MOL0     C38092   8.013   6.171   3.457  0.1367 -0.5387  0.3883
  283MOL0     C38093   7.910   6.266   3.516  0.0987  0.4467 -0.2456
  283MOL0     O38094   7.870   6.221   3.644  0.4436 -0.8345  0.1675
  283MOL0     C38095   7.866   6.322   3.743 -0.5767 -0.0679  0.5301
  283MOL0     C38096   7.750   6.388   3.767  0.1584  0.1947 -0.3899
  283MOL0     C38097   7.745   6.477   3.877  0.2976  0.7075 -0.1738
  283MOL0     C38098   7.863   6.521   3.939 -0.3920 -0.1544 -0.1880
  283MOL0     C38099   7.863   6.628   4.037 -0.7235 -0.4793 -0.6206
  283MOL0     O38100   7.974   6.716   4.027 -0.1166  0.2473  0.1330
  283MOL0     C38101   7.971   6.829   4.110  0.3960 -0.4269 -0.1875
  283MOL0     C38102   8.037   6.941   4.068  0.3471 -1.0347  0.1272
  283MOL0     C38103   8.061   7.065   4.148 -0.5375 -0.6247  0.5350
  283MOL0     C38104   8.006   7.071   4.277 -0.4038  0.4433  0.3634
  283MOL0     O38105   8.012   7.181   4.358  0.5183 -0.5341 -0.0815
  283MOL0     C38106   8.106   7.284   4.326 -0.3255 -0.0301  0.0153
  283MOL0     C38107   8.121   7.359   4.463 -0.2989 -0.8323 -0.6345
  283MOL0     C38108   7.986   7.409   4.517  1.0231  0.2585  0.8036
  283MOL0     C38109   7.915   7.506   4.425  0.1078 -0.2131  0.1199
  283MOL0     C38110   8.006   7.628   4.392  0.5023 -0.2309  0.1694
  283MOL0     C38111   7.935   7.762   4.387  0.7887 -0.2957 -1.3911
  283MOL0     C38112   7.856   7.780   4.253 -0.3312  0.1860  0.8123
  283MOL0     C38113   7.824   7.928   4.255 -0.2043  0.0115 -0.1356
  283MOL0    Cl38114   7.980   8.016   4.214 -0.1360 -0.2478  0.6303
  283MOL0     C38115   7.935   6.958   4.324 -0.3441 -0.0235  0.0984
  283MOL0     C38116   7.922   6.846   4.247 -0.0379  0.6817 -0.0456
  283MOL0     O38117   7.765   6.638   4.104  0.0848 -0.2976 -0.8252
  283MOL0     C38118   7.978   6.458   3.904  0.8765 -0.7639  0.2802
  283MOL0     C38119   7.976   6.360   3.804  0.2650  0.6369 -0.3748
  283MOL0     N38120   8.348   6.209   3.304 -0.5004 -0.4261  0.2045
  283MOL0     N38121   8.468   6.166   3.329 -0.6458  0.6429  0.1351
  283MOL0     C38122   9.054   5.219   3.759 -0.4766 -0.2111  0.3099
  283MOL0     C38123   9.165   5.130   3.749  0.2025  0.4796  1.3688
  283MOL0     C38124   9.535   4.888   3.832  0.2320 -0.2509  1.0110
  283MOL0     C38125   9.606   4.941   3.726 -0.3759  0.4044 -0.4192
  283MOL0     C38126   9.720   4.891   3.677 -1.3110 -0.3379  0.3731
  283MOL0     C38127   9.764   4.762   3.732 -0.3904  0.3001  0.1330
  283MOL0     O38128   9.870   4.694   3.687 -0.5033  0.5849 -0.2444
  283MOL0     C38129   9.923   4.736   3.564 -0.2094  0.4163  0.5614
  283MOL0     C38130  10.046   4.646   3.525 -0.6889  0.6978  0.0708
  283MOL0     C38131  10.172   4.661   3.614  0.5173 -0.0651  0.3387
  283MOL0     C38132  10.283   4.588   3.545 -1.6973 -0.3782 -0.3249
  283MOL0     C38133  10.348   4.670   3.452  0.1083  0.4068  0.4219
  283MOL0     C38134  10.408   4.756   3.384  0.0546 -0.2526  0.1677
  283MOL0     C38135   9.711   4.717   3.852  0.0929 -0.9152 -0.0777
  283MOL0     C38136   9.599   4.782   3.905 -0.4493 -0.1369  0.4179
  283MOL0     C38137   9.554   4.743   4.043 -0.4006  0.2487 -0.6193
  283MOL0     H38138   9.351   5.229   4.023  1.3200  1.0175 -1.3150
  283MOL0     H38139   9.163   5.390   4.045 -1.3517  3.0952 -1.6188
  283MOL0     H38140   8.883   5.409   3.703  1.7690 -0.8725 -0.1108
  283MOL0     H38141   8.799   5.311   3.825 -1.3551  0.3504 -0.1766
  283MOL0     H38142   8.817   5.628   3.842  0.7556  0.1819 -3.4741
  283MOL0     H38143   8.724   5.524   3.946  0.9258  0.9168  0.4822
  283MOL0     H38144   8.568   5.600   3.812  2.1113  0.8427 -0.7492
  283MOL0     H38145   8.593   5.435   3.733  2.3598 -2.1293 -1.4275
  283MOL0     H38146   8.703   5.533   3.536  0.9443 -0.7948  2.2052
  283MOL0     H38147   8.551   5.621   3.580  0.6318  1.4778 -0.5185
  283MOL0     H38148   8.698   5.794   3.695  1.2069 -0.2135  0.3561
  283MOL0     H38149   8.848   5.712   3.639  0.4673  0.2743 -1.0161
  283MOL0     H38150   8.814   5.877   3.474 -0.6100 -0.4826 -0.2797
  283MOL0     H38151   8.726   5.736   3.411 -0.4935 -1.5490  1.5751
  283MOL0     H38152   8.605   5.985   3.562  1.2454  1.3293  0.9804
  283MOL0     H38153   8.513   5.844   3.508  2.8511 -2.3237  2.8518
  283MOL0     H38154   8.666   6.031   3.337 -0.2958  0.5075  0.8565
  283MOL0     H38155   8.606   5.875   3.263  1.6911  1.9353  0.1184
  283MOL0     H38156   8.305   5.886   3.265 -1.8377  0.3836  4.9943
  283MOL0     H38157   8.136   6.164   3.131  3.9325  0.0256 -0.3536
  283MOL0     H38158   8.076   6.022   3.215  0.6626  0.3908 -1.1336
  283MOL0     H38159   8.068   6.320   3.304 -0.8270  0.2404  3.3165
  283MOL0     H38160   7.932   6.223   3.264  0.3122  3.8122 -2.3873
  283MOL0     H38161   8.112   6.167   3.503  1.2680 -3.0723 -1.9481
  283MOL0     H38162   7.973   6.069   3.466  0.3759 -0.7673 -0.8524
  283MOL0     H38163   7.823   6.273   3.451 -0.5480 -0.0318  0.5526
  283MOL0     H38164   7.950   6.367   3.521  2.4624 -0.4703  1.0740
  283MOL0     H38165   7.654   6.356   3.728  0.5484 -2.6983  0.7362
  283MOL0     H38166   7.652   6.529   3.899 -0.3697  0.2353 -1.7149
  283MOL0     H38167   8.086   6.934   3.971  3.0118 -1.5804  1.4032
  283MOL0     H38168   8.115   7.150   4.107 -0.2732 -1.8367 -1.8018
  283MOL0     H38169   8.199   7.233   4.299 -1.3685 -0.2773 -3.7073
  283MOL0     H38170   8.062   7.332   4.238  3.8924 -0.1896 -2.4352
  283MOL0     H38171   8.168   7.287   4.531 -1.7043  0.1105  1.4095
  283MOL0     H38172   8.197   7.438   4.458 -2.1955  0.9892 -2.3241
  283MOL0     H38173   7.935   7.314   4.536  1.8707 -1.1706 -3.0217
  283MOL0     H38174   7.989   7.458   4.614 -0.2220 -0.9975  1.5088
  283MOL0     H38175   7.829   7.545   4.480  0.3750  0.6007 -0.0316
  283MOL0     H38176   7.879   7.454   4.336  0.2896 -1.7925  0.9268
  283MOL0     H38177   8.054   7.603   4.297  0.2608 -2.4021  0.5666
  283MOL0     H38178   8.089   7.636   4.463 -1.6339  1.8614  2.6734
  283MOL0     H38179   7.873   7.770   4.477 -1.3935 -0.5739 -2.7811
  283MOL0     H38180   8.010   7.840   4.400  2.5576 -2.0588 -0.5689
  283MOL0     H38181   7.764   7.721   4.253  0.3702 -1.4665 -4.1490
  283MOL0     H38182   7.906   7.760   4.157  0.1313  0.6015  0.9634
  283MOL0     H38183   7.743   7.949   4.184  1.3312 -0.1951 -2.0187
  283MOL0     H38184   7.789   7.965   4.352  1.2214  2.2858 -0.4229
  283MOL0     H38185   7.887   6.956   4.422  0.7108 -0.3173  0.6313
  283MOL0     H38186   7.880   6.757   4.292  2.8577  0.1475  1.8963
  283MOL0     H38187   8.078   6.486   3.938  1.0513  1.1344 -1.6245
  283MOL0     H38188   8.065   6.305   3.774 -0.3941 -0.3453 -0.5850
  283MOL0     H38189   8.964   5.203   3.701 -1.1937 -2.3222  1.8514
  283MOL0     H38190   9.175   5.055   3.672 -1.2286  2.9030 -1.3526
  283MOL0     H38191   9.560   5.017   3.664 -0.7079 -0.1533 -0.8761
  283MOL0     H38192   9.768   4.945   3.596  2.0605  0.7610  2.9106
  283MOL0     H38193   9.950   4.842   3.561  0.9464  0.1169 -1.4652
  283MOL0     H38194   9.847   4.719   3.487 -1.3328 -0.4835  1.8290
  283MOL0     H38195  10.079   4.671   3.424  2.9451  0.2644  0.9882
  283MOL0     H38196  10.021   4.539   3.528  1.3379  0.1766  0.0695
  283MOL0     H38197  10.153   4.604   3.706  1.9884 -1.3982 -0.1448
  283MOL0     H38198  10.197   4.766   3.636  1.5031 -0.7849  3.0405
  283MOL0     H38199  10.367   4.563   3.610 -2.7658  1.4805  1.9364
  283MOL0     H38200  10.252   4.500   3.489  0.5115  0.6395 -3.4246
  283MOL0     H38201  10.464   4.829   3.329  0.8430 -1.8648 -1.2266
  283MOL0     H38202   9.767   4.638   3.902  0.2819 -1.5884 -1.3139
  283MOL0     H38203   9.473   4.671   4.028 -1.2180  1.4370 -2.1959
  283MOL0     H38204   9.634   4.697   4.102  1.3584  0.9184 -2.3681
  283MOL0     H38205   9.524   4.833   4.098 -3.0295 -1.1089  0.3761
  284MOL0     O38206  10.249   5.921   5.516 -0.9281  0.4078  0.8811
  284MOL0     C38207  10.259   5.805   5.485  0.1127 -0.0081 -0.1482
  284MOL0     O38208  10.151   5.718   5.478  0.5635  0.5471 -0.4634
  284MOL0     C38209  10.034   5.762   5.525 -0.8735 -0.4195 -0.2607
  284MOL0     C38210   9.927   5.755   5.434  0.0739  0.8332  0.5721
  284MOL0     C38211   9.793   5.781   5.476  0.5648 -0.2963  0.7323
  284MOL0     C38212   9.766   5.824   5.613 -0.3112 -0.1546 -0.9779
  284MOL0     O38213   9.638   5.839   5.661  0.0083  0.1128  0.3173
  284MOL0     C38214   9.618   5.803   5.796  0.1187  0.0607  0.1454
  284MOL0     C38215   9.482   5.851   5.858  0.2972 -0.4412  0.3207
  284MOL0     C38216   9.365   5.809   5.771  0.2667 -0.1675 -0.0873
  284MOL0     C38217   9.252   5.837   5.856 -0.2254  0.4131  0.3587
  284MOL0     C38218   9.123   5.808   5.780  0.4286  0.5755  0.3232
  284MOL0     C38219   9.004   5.818   5.885 -0.5036 -0.5777  0.3467
  284MOL0     C38220   8.874   5.745   5.835  0.9878  0.5159  0.5932
  284MOL0     C38221   8.814   5.810   5.701  0.3346  0.3632 -0.6121
  284MOL0     N38222   8.669   5.773   5.657 -0.7508 -0.6430  0.8416
  284MOL0     C38223   8.587   5.677   5.701  0.9056 -0.1671 -0.4417
  284MOL0     C38224   8.474   5.681   5.622 -0.1515 -1.0742 -0.0317
  284MOL0     C38225   8.348   5.595   5.640  0.5555  0.0682 -0.7353
  284MOL0     C38226   8.223   5.681   5.645 -0.2174 -0.0490 -0.2799
  284MOL0     C38227   8.100   5.602   5.609  0.0259  0.3444 -0.6496
  284MOL0     C38228   7.974   5.675   5.668 -0.7724  0.3597 -0.1183
  284MOL0     O38229   7.985   5.683   5.811 -0.4784 -0.1957  0.3498
  284MOL0     C38230   7.892   5.742   5.881  0.6547 -0.7395  0.1911
  284MOL0     C38231   7.889   5.739   6.017 -0.3064  0.9909  0.2263
  284MOL0     C38232   7.801   5.805   6.100  0.4353  0.4175 -0.1065
  284MOL0     C38233   7.702   5.893   6.044  0.5138 -0.2978 -0.6148
  284MOL0     C38234   7.616   5.976   6.144 -1.3335 -0.0930  0.3480
  284MOL0     O38235   7.652   5.992   6.277 -0.1227 -1.7000 -0.2618
  284MOL0     C38236   7.588   6.099   6.343  0.6746  0.8277 -0.4663
  284MOL0     C38237   7.452   6.121   6.375  0.3442 -0.1577  0.8049
  284MOL0     C38238   7.394   6.229   6.432  0.9382  0.4285 -0.3359
  284MOL0     C38239   7.491   6.332   6.459  0.0645  0.5349  0.2514
  284MOL0     O38240   7.446   6.454   6.520 -0.4917 -0.6627 -0.3566
  284MOL0     C38241   7.466   6.555   6.420 -0.0879 -1.0575 -0.0836
  284MOL0     C38242   7.538   6.667   6.499  0.2108  0.3019 -0.5985
  284MOL0     C38243   7.589   6.778   6.404  0.2046 -0.0812  0.4767
  284MOL0     C38244   7.617   6.913   6.469 -0.3114  0.0087  0.2314
  284MOL0     C38245   7.687   7.017   6.371  0.0960 -0.9275 -0.8487
  284MOL0     C38246   7.623   7.017   6.230  1.2063  0.6945  1.1159
  284MOL0     C38247   7.667   7.146   6.148  0.7716 -0.1575 -0.4534
  284MOL0     C38248   7.690   7.102   6.008  0.2338  0.5282  0.4324
  284MOL0    Cl38249   7.747   7.240   5.912  0.7093 -0.0769  0.4491
  284MOL0     C38250   7.630   6.313   6.440 -0.2723 -0.2708 -0.2080
  284MOL0     C38251   7.675   6.195   6.387  0.6468 -0.0665 -0.0082
  284MOL0     O38252   7.521   6.031   6.094  0.4595 -0.1578  0.3076
  284MOL0     C38253   7.697   5.896   5.906 -0.3675 -0.7205  0.1480
  284MOL0     C38254   7.785   5.819   5.831  0.7637  0.7366  0.3698
  284MOL0     N38255   8.487   5.790   5.537 -0.4420  0.2463  0.2142
  284MOL0     N38256   8.604   5.837   5.555 -0.1255  0.7167 -1.3440
  284MOL0     C38257   9.881   5.856   5.694 -0.0509  0.7536  0.3047
  284MOL0     C38258  10.014   5.819   5.652  1.1146  0.0363  0.7178
  284MOL0     C38259  10.384   5.743   5.434 -0.9343  0.4082 -0.5068
  284MOL0     C38260  10.375   5.624   5.362  0.9371  0.2563  1.4654
  284MOL0     C38261  10.492   5.576   5.296 -0.2842  0.0963 -0.4626
  284MOL0     C38262  10.615   5.642   5.285 -0.1562  0.5648 -0.2629
  284MOL0     O38263  10.722   5.599   5.213  0.0445 -0.3875  0.1453
  284MOL0     C38264  10.714   5.488   5.131 -0.3272  0.2632 -0.2005
  284MOL0     C38265  10.840   5.437   5.058 -0.1723  0.2622 -0.3267
  284MOL0     C38266  10.948   5.403   5.159 -0.1416  0.6281 -0.5038
  284MOL0     C38267  10.909   5.270   5.232 -0.3731 -0.0510 -1.2706
  284MOL0     C38268  10.864   5.302   5.371 -0.5128 -0.2623 -0.2331
  284MOL0     C38269  10.835   5.345   5.483  0.7374 -0.2089  0.3320
  284MOL0     C38270  10.616   5.763   5.345  0.4545 -0.6046 -0.1297
  284MOL0     C38271  10.512   5.809   5.426 -0.3547 -0.1191 -0.1460
  284MOL0     C38272  10.546   5.941   5.493 -0.0427  0.2807 -0.2485
  284MOL0     H38273   9.938   5.721   5.332 -0.7521 -0.1673  0.7970
  284MOL0     H38274   9.706   5.779   5.411 -0.2052  0.8754  1.6722
  284MOL0     H38275   9.615   5.695   5.813 -2.8879  0.1344  0.6068
  284MOL0     H38276   9.697   5.835   5.865 -1.1252 -1.6996  2.5280
  284MOL0     H38277   9.490   5.958   5.874 -0.5784 -0.2444 -0.4118
  284MOL0     H38278   9.488   5.799   5.954  0.8964  1.6265  1.4404
  284MOL0     H38279   9.373   5.708   5.730  2.1409  0.9288 -2.7685
  284MOL0     H38280   9.375   5.883   5.691  2.8108  0.3433  0.6100
  284MOL0     H38281   9.251   5.765   5.938 -0.9909  0.3358  0.2840
  284MOL0     H38282   9.268   5.936   5.899  0.8069  0.3171  0.2266
  284MOL0     H38283   9.118   5.858   5.683  3.0518 -2.0561 -1.3520
  284MOL0     H38284   9.111   5.704   5.747 -1.0921  1.1703 -1.1119
  284MOL0     H38285   9.025   5.775   5.983 -1.0415  2.1141  1.7135
  284MOL0     H38286   8.985   5.920   5.918 -0.4507 -1.1695  2.3507
  284MOL0     H38287   8.796   5.745   5.912 -0.6417 -0.1656 -0.9768
  284MOL0     H38288   8.898   5.645   5.797 -2.1820  0.1188 -0.6670
  284MOL0     H38289   8.806   5.918   5.706 -0.8429  0.3864 -2.2237
  284MOL0     H38290   8.884   5.794   5.617  0.2533 -1.2368 -0.4173
  284MOL0     H38291   8.615   5.630   5.795  0.7927  1.4144  0.4135
  284MOL0     H38292   8.342   5.519   5.561 -2.3051 -0.5652 -0.0249
  284MOL0     H38293   8.371   5.525   5.720  1.9587  0.3955 -0.8314
  284MOL0     H38294   8.207   5.715   5.748 -0.2344 -3.7160  1.0451
  284MOL0     H38295   8.237   5.764   5.575 -0.5947 -0.5772 -0.9931
  284MOL0     H38296   8.105   5.498   5.642 -1.1057 -0.0368 -1.5786
  284MOL0     H38297   8.092   5.595   5.500 -1.3654  0.4246 -0.5754
  284MOL0     H38298   7.885   5.614   5.648  0.1829 -1.4990  1.0206
  284MOL0     H38299   7.971   5.775   5.623  0.6224  0.8462  0.8014
  284MOL0     H38300   7.971   5.681   6.057 -1.5772 -0.7986  0.3402
  284MOL0     H38301   7.812   5.781   6.206 -0.1106 -1.8514 -0.5038
  284MOL0     H38302   7.387   6.038   6.349 -2.5213  2.5103 -1.2279
  284MOL0     H38303   7.286   6.227   6.444  1.0103  0.6583  0.3541
  284MOL0     H38304   7.528   6.528   6.334 -2.0785 -0.7269 -1.6859
  284MOL0     H38305   7.374   6.593   6.375  0.3749  0.1276 -0.0794
  284MOL0     H38306   7.468   6.700   6.576 -1.1639 -1.4385 -1.0183
  284MOL0     H38307   7.619   6.628   6.561  0.5496 -0.5838 -1.5722
  284MOL0     H38308   7.674   6.733   6.352 -0.0313  0.5517 -0.4919
  284MOL0     H38309   7.509   6.792   6.330  0.6438 -1.5431 -0.3118
  284MOL0     H38310   7.685   6.892   6.551  0.1396 -1.5699 -0.5056
  284MOL0     H38311   7.523   6.952   6.509  0.6955  1.8755  0.8708
  284MOL0     H38312   7.792   6.989   6.361  2.3726  4.7491  2.5470
  284MOL0     H38313   7.689   7.120   6.405  1.0549 -1.1028 -0.3555
  284MOL0     H38314   7.661   6.929   6.179 -1.1555  0.3472 -0.1915
  284MOL0     H38315   7.514   7.017   6.243  0.5854 -2.0031 -2.6063
  284MOL0     H38316   7.770   7.179   6.164  1.8084 -2.8216 -1.1009
  284MOL0     H38317   7.592   7.226   6.156  0.4534 -0.6287  2.1501
  284MOL0     H38318   7.764   7.022   5.999  2.9975  3.0807 -1.8616
  284MOL0     H38319   7.601   7.058   5.961  0.2156  0.3317  0.6480
  284MOL0     H38320   7.711   6.384   6.456 -0.1322 -0.1724 -1.2922
  284MOL0     H38321   7.781   6.187   6.368  1.2902 -1.7528  3.5683
  284MOL0     H38322   7.624   5.963   5.862  1.7493  1.4206 -0.2817
  284MOL0     H38323   7.794   5.830   5.723 -0.1437 -3.0781 -0.2527
  284MOL0     H38324   9.871   5.891   5.796 -2.5714 -1.1264  0.7853
  284MOL0     H38325  10.101   5.828   5.716  1.7930  2.4633 -0.4107
  284MOL0     H38326  10.287   5.564   5.340  2.2637 -0.8515 -1.2276
  284MOL0     H38327  10.480   5.481   5.246 -0.6654  0.8909 -1.9291
  284MOL0     H38328  10.632   5.509   5.061 -0.9589 -1.6703 -0.0988
  284MOL0     H38329  10.684   5.402   5.193 -0.4550 -0.2543 -0.9611
  284MOL0     H38330  10.876   5.511   4.987 -1.9148  0.9324 -0.5539
  284MOL0     H38331  10.806   5.346   5.007 -0.3673  0.7694 -1.1225
  284MOL0     H38332  10.976   5.483   5.229  4.0974 -2.9127  2.4084
  284MOL0     H38333  11.042   5.388   5.105 -0.8090  1.1088 -1.8281
  284MOL0     H38334  10.827   5.213   5.189 -0.0128 -2.2737  0.7924
  284MOL0     H38335  11.001   5.210   5.238 -0.0568  0.5897  1.5150
  284MOL0     H38336  10.826   5.386   5.582  2.5424  1.4788 -0.1483
  284MOL0     H38337  10.705   5.823   5.326 -0.4712  0.0700 -2.7287
  284MOL0     H38338  10.652   5.962   5.514 -0.4838  0.8316  1.6569
  284MOL0     H38339  10.521   6.026   5.428  2.2839  2.6156  1.6751
  284MOL0     H38340  10.501   5.937   5.592  1.4130  0.2378  0.4436
  285MOL0     O38341   7.385   3.162   7.219 -0.1091  0.0286 -0.1040
  285MOL0     C38342   7.361   3.264   7.152 -0.6804  0.8663  0.3581
  285MOL0     O38343   7.453   3.345   7.091  0.0620  0.2004 -0.2376
  285MOL0     C38344   7.587   3.309   7.089  0.1766  0.5852 -1.2034
  285MOL0     C38345   7.668   3.356   7.187 -0.4763 -1.1066  0.6973
  285MOL0     C38346   7.805   3.336   7.182  0.5743 -0.0996 -0.7199
  285MOL0     C38347   7.858   3.274   7.067  0.5537  0.8363  0.1768
  285MOL0     O38348   7.992   3.271   7.047 -1.5010 -0.1556  0.2784
  285MOL0     C38349   8.086   3.330   7.144 -0.4133  0.8742 -0.3367
  285MOL0     C38350   8.233   3.338   7.099 -0.2381 -0.2415 -0.4064
  285MOL0     C38351   8.282   3.231   6.999 -0.6906  0.3248 -0.0842
  285MOL0     C38352   8.437   3.237   6.986 -0.3018  0.0187  0.6778
  285MOL0     C38353   8.496   3.109   6.921  0.0540 -0.3414 -0.4390
  285MOL0     C38354   8.644   3.085   6.951 -0.3514 -1.2087  0.0628
  285MOL0     C38355   8.687   2.933   6.929 -0.1181 -0.7762 -0.7800
  285MOL0     C38356   8.751   2.927   6.796  0.1077  0.3721 -0.6358
  285MOL0     N38357   8.770   2.781   6.775  0.3547 -0.2591  0.2709
  285MOL0     C38358   8.702   2.699   6.679 -0.2052  0.1698 -0.0922
  285MOL0     C38359   8.755   2.577   6.695  0.6083 -0.5888  0.4825
  285MOL0     C38360   8.719   2.448   6.616  1.0791 -0.1452  0.5520
  285MOL0     C38361   8.599   2.368   6.670  0.2160 -0.4114 -0.1950
  285MOL0     C38362   8.473   2.451   6.694  0.0514  0.3350  0.5357
  285MOL0     C38363   8.348   2.371   6.702  0.2541  0.6226  0.0703
  285MOL0     O38364   8.378   2.259   6.779 -0.5699 -0.1914  0.4381
  285MOL0     C38365   8.269   2.197   6.846  0.5240  0.4069  0.2748
  285MOL0     C38366   8.150   2.181   6.782  0.6714 -0.3119  0.6762
  285MOL0     C38367   8.054   2.093   6.834  0.0948 -0.2045 -0.0118
  285MOL0     C38368   8.074   2.031   6.960 -0.3707 -0.5768 -0.8287
  285MOL0     C38369   7.967   1.931   7.002 -0.0599  0.7156  0.9028
  285MOL0     O38370   7.872   1.899   6.921  0.6152 -0.2810 -0.2339
  285MOL0     C38371   7.746   1.880   6.974  0.0576 -0.3246  0.2531
  285MOL0     C38372   7.657   1.988   6.977  0.2655  0.2459 -0.3047
  285MOL0     C38373   7.527   1.976   7.022 -1.1430 -0.7674 -0.1934
  285MOL0     C38374   7.481   1.853   7.076 -0.1620 -0.1539 -0.4883
  285MOL0     O38375   7.350   1.831   7.109 -0.2158  0.4990  0.1946
  285MOL0     C38376   7.240   1.919   7.079  0.0523  0.5593 -0.6442
  285MOL0     C38377   7.109   1.855   7.129 -1.1606  0.4037 -1.0383
  285MOL0     C38378   6.981   1.928   7.098  0.2128  0.3082  0.4788
  285MOL0     C38379   6.933   1.941   6.950 -0.1078 -0.0199 -0.4727
  285MOL0     C38380   6.897   1.805   6.887  0.4005 -0.5152  0.2377
  285MOL0     C38381   6.771   1.752   6.955  0.3990 -0.5575 -1.1861
  285MOL0     C38382   6.723   1.634   6.864 -0.4154  0.0121 -0.4423
  285MOL0     C38383   6.587   1.595   6.909 -0.7371 -0.1818 -0.4421
  285MOL0    Cl38384   6.544   1.435   6.825 -0.5895 -0.0902  0.1369
  285MOL0     C38385   7.571   1.740   7.088 -0.4829 -0.0045 -0.3538
  285MOL0     C38386   7.700   1.762   7.036  0.0333  0.3325  0.6179
  285MOL0     O38387   7.971   1.888   7.113 -0.1053 -0.4037 -0.8226
  285MOL0     C38388   8.194   2.049   7.028  0.1557  0.0044 -0.1409
  285MOL0     C38389   8.289   2.127   6.967 -0.0183  0.4789  0.2357
  285MOL0     N38390   8.850   2.590   6.796  0.2786 -0.0485 -0.0258
  285MOL0     N38391   8.857   2.715   6.847 -0.0481  0.7879  0.5612
  285MOL0     C38392   7.769   3.222   6.971 -1.3327 -0.2124 -0.0416
  285MOL0     C38393   7.635   3.246   6.975  1.2553 -0.5899  0.5470
  285MOL0     C38394   7.230   3.309   7.128  0.6574  0.1959 -0.4002
  285MOL0     C38395   7.192   3.373   7.004 -1.6210  0.2077 -0.0053
  285MOL0     C38396   7.067   3.424   6.982  0.1282 -1.0182 -0.5458
  285MOL0     C38397   6.974   3.419   7.084 -0.0734  0.3157 -0.7113
  285MOL0     O38398   6.856   3.477   7.076  1.1947 -0.3540  0.2925
  285MOL0     C38399   6.819   3.581   7.167  0.2129 -0.2176 -0.1757
  285MOL0     C38400   6.714   3.537   7.273  0.0275 -0.0326  0.0087
  285MOL0     C38401   6.693   3.655   7.365  0.6911  0.4264  0.2455
  285MOL0     C38402   6.607   3.602   7.482 -1.8534  0.4671 -0.1671
  285MOL0     C38403   6.551   3.703   7.565 -0.2415  0.0403  0.3355
  285MOL0     C38404   6.493   3.799   7.610 -0.5808 -0.7157 -0.5617
  285MOL0     C38405   7.003   3.342   7.200 -0.3626 -0.5301  0.0765
  285MOL0     C38406   7.135   3.286   7.224  0.8454 -0.8611  0.3102
  285MOL0     C38407   7.166   3.231   7.360 -1.0440  0.0807  0.1935
  285MOL0     H38408   7.615   3.398   7.272 -0.2303  2.3642 -0.6845
  285MOL0     H38409   7.864   3.356   7.271 -0.7090 -2.4485  0.7671
  285MOL0     H38410   8.065   3.435   7.166 -4.8818 -0.2143  1.8663
  285MOL0     H38411   8.075   3.272   7.235 -2.4082 -0.6863 -1.4853
  285MOL0     H38412   8.289   3.342   7.192 -2.6587  0.4875  1.1278
  285MOL0     H38413   8.259   3.428   7.043  2.0196 -1.6284 -1.7126
  285MOL0     H38414   8.234   3.243   6.901 -1.9148  1.5372  0.6344
  285MOL0     H38415   8.247   3.136   7.040 -1.6492 -0.2341 -2.0642
  285MOL0     H38416   8.453   3.322   6.919 -2.4272  0.6623  0.9052
  285MOL0     H38417   8.488   3.261   7.080 -1.0828  0.1241  1.0865
  285MOL0     H38418   8.445   3.017   6.951 -0.9498  0.6959  1.1999
  285MOL0     H38419   8.467   3.114   6.816 -1.7578  1.5268  0.0781
  285MOL0     H38420   8.710   3.149   6.893  2.7736 -1.9350  2.5606
  285MOL0     H38421   8.666   3.107   7.056  0.3901 -2.2024  0.1288
  285MOL0     H38422   8.600   2.867   6.937 -0.3744 -0.6171 -2.0238
  285MOL0     H38423   8.759   2.914   7.009 -0.4959 -0.1435 -0.2713
  285MOL0     H38424   8.685   2.982   6.729 -2.8215 -3.1838 -0.9923
  285MOL0     H38425   8.849   2.974   6.805 -0.1293  0.9490 -1.0074
  285MOL0     H38426   8.621   2.721   6.610  0.4922 -0.7449 -1.2306
  285MOL0     H38427   8.706   2.472   6.510 -0.1254 -1.4406  0.3830
  285MOL0     H38428   8.802   2.380   6.636  1.7115  0.7385  1.0500
  285MOL0     H38429   8.567   2.303   6.588 -1.3565  0.4376 -0.3013
  285MOL0     H38430   8.627   2.300   6.750  1.7773 -1.1012 -1.2556
  285MOL0     H38431   8.469   2.535   6.624 -0.1196 -0.2662 -0.1767
  285MOL0     H38432   8.486   2.495   6.794  1.4218 -0.4804  0.7329
  285MOL0     H38433   8.327   2.335   6.600 -0.5818  0.7303  0.1978
  285MOL0     H38434   8.265   2.438   6.726 -1.4246 -1.3312  0.0980
  285MOL0     H38435   8.134   2.223   6.683  0.5350 -3.7711 -0.9290
  285MOL0     H38436   7.966   2.064   6.777  0.0789  0.2736 -0.2400
  285MOL0     H38437   7.691   2.070   6.915  2.5835 -0.7876 -0.4965
  285MOL0     H38438   7.452   2.054   7.015  1.1146  1.8984  2.2397
  285MOL0     H38439   7.250   2.016   7.129 -0.7479 -0.0760  0.8350
  285MOL0     H38440   7.242   1.936   6.971 -1.8324  1.6525 -0.5439
  285MOL0     H38441   7.100   1.750   7.100 -0.2776  0.1605 -0.4683
  285MOL0     H38442   7.128   1.860   7.237 -0.4921 -0.4563 -1.1036
  285MOL0     H38443   6.907   1.869   7.153  0.0901 -1.1400 -1.1677
  285MOL0     H38444   6.994   2.026   7.146  0.4586  0.7684 -0.4903
  285MOL0     H38445   7.017   1.974   6.887  0.9584  0.0012  0.9213
  285MOL0     H38446   6.845   2.005   6.939  0.1306  0.0766 -2.0327
  285MOL0     H38447   6.979   1.733   6.877 -0.4692 -1.1953 -3.4988
  285MOL0     H38448   6.880   1.817   6.780  2.7505 -2.5804 -0.4790
  285MOL0     H38449   6.796   1.704   7.050 -0.2732  0.3700 -0.5243
  285MOL0     H38450   6.688   1.822   6.965 -0.3183 -1.0577 -3.2231
  285MOL0     H38451   6.793   1.551   6.875 -0.8839 -0.3809 -0.3599
  285MOL0     H38452   6.711   1.670   6.762 -2.2437 -0.2938 -0.3653
  285MOL0     H38453   6.593   1.589   7.018  1.4452 -3.3919 -0.5731
  285MOL0     H38454   6.521   1.677   6.880 -0.4845  0.0842 -0.2682
  285MOL0     H38455   7.543   1.645   7.132 -5.1312  1.5529  0.5809
  285MOL0     H38456   7.766   1.676   7.049  0.0659 -0.0917 -1.8812
  285MOL0     H38457   8.195   1.993   7.121 -0.5366 -0.0024 -0.1301
  285MOL0     H38458   8.389   2.133   7.010 -0.6401 -1.1424  2.0490
  285MOL0     H38459   7.813   3.170   6.887 -1.5348 -0.0538 -0.2436
  285MOL0     H38460   7.554   3.231   6.905 -1.2783  1.2421  2.8410
  285MOL0     H38461   7.263   3.382   6.923 -1.5445 -1.6284 -0.1937
  285MOL0     H38462   7.045   3.484   6.894  2.9286 -2.1994 -2.1862
  285MOL0     H38463   6.783   3.665   7.107  1.2243 -0.2199 -0.7999
  285MOL0     H38464   6.916   3.617   7.202  1.3855 -1.4251 -2.0162
  285MOL0     H38465   6.747   3.449   7.328  0.7092  1.4190  2.0617
  285MOL0     H38466   6.621   3.506   7.225  0.8109  0.0427 -1.6603
  285MOL0     H38467   6.646   3.735   7.307  0.2807 -0.1261 -0.1877
  285MOL0     H38468   6.789   3.694   7.401  0.4370  0.2159  1.1712
  285MOL0     H38469   6.529   3.528   7.464 -0.4165 -0.8362 -1.3123
  285MOL0     H38470   6.685   3.557   7.544  0.8946  0.5350 -3.2686
  285MOL0     H38471   6.447   3.882   7.660  1.0715 -0.4079  0.5461
  285MOL0     H38472   6.942   3.330   7.290  1.2157 -1.3643  1.0844
  285MOL0     H38473   7.094   3.240   7.442  3.3704  0.1008  4.5648
  285MOL0     H38474   7.181   3.123   7.356 -1.1467  0.0456  0.7028
  285MOL0     H38475   7.255   3.276   7.405 -2.6570  1.4408  2.1977
  286MOL0     O38476   5.735   6.176   9.600  0.1247 -0.0454  0.3977
  286MOL0     C38477   5.709   6.128   9.489  0.3701 -0.2123  0.4340
  286MOL0     O38478   5.663   6.191   9.381  0.8999 -0.1176 -0.1113
  286MOL0     C38479   5.635   6.325   9.381  0.6260  0.6770 -0.7813
  286MOL0     C38480   5.642   6.402   9.262 -0.4118 -0.0612  1.0099
  286MOL0     C38481   5.607   6.533   9.258 -0.5911  0.5978  0.0407
  286MOL0     C38482   5.567   6.599   9.373  0.1270 -0.6967 -0.2908
  286MOL0     O38483   5.539   6.738   9.367  0.0037 -0.2200 -0.2062
  286MOL0     C38484   5.396   6.772   9.348 -0.5334  0.4047  0.6086
  286MOL0     C38485   5.366   6.920   9.323  0.0350  0.4534 -0.3487
  286MOL0     C38486   5.460   7.000   9.231 -0.2066 -0.2639 -0.4301
  286MOL0     C38487   5.461   6.944   9.091 -0.7756  0.4150 -0.4209
  286MOL0     C38488   5.533   7.037   8.998 -0.3289 -0.8852  0.9781
  286MOL0     C38489   5.448   7.152   8.950  0.4918  0.5404  0.1747
  286MOL0     C38490   5.527   7.256   8.884  0.4439  0.2066 -0.0570
  286MOL0     C38491   5.650   7.215   8.798  0.3441 -0.4262 -0.8600
  286MOL0     N38492   5.688   7.322   8.706  0.5793 -0.5723  0.0712
  286MOL0     C38493   5.632   7.334   8.577  0.3247  0.5322  0.3356
  286MOL0     C38494   5.675   7.448   8.531 -0.8331 -0.2966  0.8534
  286MOL0     C38495   5.623   7.520   8.405  0.9092 -0.2251  1.1601
  286MOL0     C38496   5.658   7.669   8.393  1.1505  0.5157 -0.0227
  286MOL0     C38497   5.611   7.743   8.522  0.2740 -0.9276  0.2208
  286MOL0     C38498   5.568   7.877   8.483  0.5664  0.1502 -0.0884
  286MOL0     O38499   5.562   7.955   8.605  0.4247 -0.2171 -0.3537
  286MOL0     C38500   5.509   8.080   8.599 -1.0072  0.1496 -0.2046
  286MOL0     C38501   5.496   8.153   8.720 -0.3492  0.4362  0.6544
  286MOL0     C38502   5.438   8.282   8.725 -1.0054 -0.9435 -0.4427
  286MOL0     C38503   5.400   8.348   8.608  0.0431 -0.1826  0.9382
  286MOL0     C38504   5.337   8.481   8.611  1.3081 -0.3137 -0.4084
  286MOL0     O38505   5.345   8.556   8.724  0.2313 -1.1652 -0.3944
  286MOL0     C38506   5.269   8.677   8.732 -0.2296 -0.0999 -0.0368
  286MOL0     C38507   5.148   8.705   8.674 -0.7507  0.4703 -0.1947
  286MOL0     C38508   5.081   8.816   8.714  0.5152 -0.7735  0.2853
  286MOL0     C38509   5.131   8.905   8.804 -0.4182 -0.3281 -0.0668
  286MOL0     O38510   5.051   9.019   8.835 -0.3999 -0.5692  0.1918
  286MOL0     C38511   5.116   9.128   8.911 -0.5685  0.4266  0.1283
  286MOL0     C38512   5.044   9.262   8.876  0.1360 -0.4809 -0.3384
  286MOL0     C38513   4.904   9.262   8.933 -0.3420 -0.4524 -0.6633
  286MOL0     C38514   4.915   9.262   9.089  0.1175  0.2834 -0.0154
  286MOL0     C38515   4.789   9.307   9.158  0.0751 -0.3727  0.4775
  286MOL0     C38516   4.780   9.463   9.142  0.3434 -0.0786 -0.2560
  286MOL0     C38517   4.683   9.525   9.250  0.2258 -0.1860 -0.4062
  286MOL0     C38518   4.636   9.672   9.215  0.2853  0.0276 -0.0395
  286MOL0    Cl38519   4.770   9.788   9.209  0.0603  0.1548 -0.1401
  286MOL0     C38520   5.249   8.869   8.871 -0.5988 -0.4494  0.5391
  286MOL0     C38521   5.316   8.760   8.835 -0.8933  0.0281 -0.2932
  286MOL0     O38522   5.290   8.519   8.504  0.3287  0.0510  0.0818
  286MOL0     C38523   5.429   8.279   8.490  1.3662  0.6880 -0.9560
  286MOL0     C38524   5.478   8.150   8.485  1.2272  0.8226  0.0470
  286MOL0     N38525   5.760   7.506   8.619  0.8221 -0.0643  0.0519
  286MOL0     N38526   5.763   7.430   8.724 -0.5672 -0.0772 -0.2185
  286MOL0     C38527   5.559   6.531   9.495  0.2485  0.3154  0.7726
  286MOL0     C38528   5.585   6.394   9.500  0.4183 -0.2784 -0.3578
  286MOL0     C38529   5.727   5.988   9.491 -0.5007 -0.5954  1.0285
  286MOL0     C38530   5.677   5.907   9.593  0.5954  1.5325  1.0293
  286MOL0     C38531   5.685   5.770   9.591 -0.2790 -0.3780 -0.3047
  286MOL0     C38532   5.730   5.707   9.476 -0.3680 -0.2145  0.0607
  286MOL0     O38533   5.748   5.566   9.467 -0.2784 -0.2987  0.5752
  286MOL0     C38534   5.780   5.492   9.588  0.6947 -0.4950 -0.1045
  286MOL0     C38535   5.661   5.450   9.672  0.2232  0.0099 -0.4248
  286MOL0     C38536   5.682   5.407   9.817  0.7431  0.5960  0.5919
  286MOL0     C38537   5.594   5.495   9.909  0.1894  0.4785 -0.2294
  286MOL0     C38538   5.612   5.441  10.051  0.5068  1.1090 -0.2238
  286MOL0     C38539   5.626   5.413  10.165  1.2654  1.0188 -0.4371
  286MOL0     C38540   5.764   5.784   9.366 -0.2906 -0.2607 -0.6456
  286MOL0     C38541   5.775   5.923   9.372  0.3932 -0.1287 -0.1268
  286MOL0     C38542   5.848   6.001   9.255 -0.0060  0.4956 -0.4451
  286MOL0     H38543   5.684   6.347   9.178  0.9177  0.1157  1.5220
  286MOL0     H38544   5.605   6.577   9.159 -0.5694 -0.8093 -0.6071
  286MOL0     H38545   5.358   6.715   9.262 -0.0514 -3.9084  2.9933
  286MOL0     H38546   5.340   6.742   9.437  2.0412  0.3080  2.2979
  286MOL0     H38547   5.377   6.952   9.427  0.0448 -1.0137  0.1210
  286MOL0     H38548   5.261   6.935   9.296  0.4120  0.0946 -2.1157
  286MOL0     H38549   5.556   7.002   9.284 -1.0206 -0.2116  1.1074
  286MOL0     H38550   5.420   7.101   9.218 -0.1310 -0.2708 -0.7253
  286MOL0     H38551   5.514   6.849   9.099 -0.2581  0.7568  0.3674
  286MOL0     H38552   5.362   6.919   9.051 -0.5556  0.4178 -0.9829
  286MOL0     H38553   5.620   7.079   9.050  0.1644 -0.9818  0.2357
  286MOL0     H38554   5.573   6.984   8.911  1.4769 -0.2643  1.3762
  286MOL0     H38555   5.377   7.109   8.878  0.1065  3.0260 -1.0507
  286MOL0     H38556   5.392   7.197   9.032 -0.8283  0.2362 -0.5219
  286MOL0     H38557   5.576   7.320   8.958  1.0186 -1.0968  0.7368
  286MOL0     H38558   5.456   7.321   8.833  1.4597  1.7978  0.4907
  286MOL0     H38559   5.734   7.198   8.866 -2.5800 -3.8741  2.3032
  286MOL0     H38560   5.636   7.125   8.738 -1.6808 -1.0661  0.4864
  286MOL0     H38561   5.546   7.281   8.536 -0.8437  1.2770  1.7531
  286MOL0     H38562   5.649   7.483   8.305 -4.2385 -3.4999  0.7199
  286MOL0     H38563   5.516   7.500   8.403  1.1630 -2.8059 -4.1446
  286MOL0     H38564   5.766   7.680   8.393  1.3305 -0.7490  1.5337
  286MOL0     H38565   5.625   7.712   8.298 -0.3277  0.7049  0.5398
  286MOL0     H38566   5.703   7.759   8.580 -0.5257  0.7107  1.1065
  286MOL0     H38567   5.531   7.689   8.572  0.1908 -2.6202 -1.6017
  286MOL0     H38568   5.472   7.864   8.431 -0.4958  1.0555  1.5316
  286MOL0     H38569   5.649   7.928   8.431  1.2153 -0.6284  0.1357
  286MOL0     H38570   5.526   8.091   8.804 -0.8039  1.2402  1.4295
  286MOL0     H38571   5.405   8.318   8.822 -1.3912 -0.0249 -0.9122
  286MOL0     H38572   5.104   8.637   8.601 -0.6226 -1.5725  1.5175
  286MOL0     H38573   4.986   8.847   8.671  0.9598  1.8737  1.0790
  286MOL0     H38574   5.112   9.103   9.017 -0.3482  0.9604  0.2681
  286MOL0     H38575   5.219   9.138   8.874 -0.6743  0.6793 -0.1004
  286MOL0     H38576   5.098   9.346   8.921 -0.6055 -1.7982  3.3460
  286MOL0     H38577   5.037   9.264   8.766 -1.9167 -3.0262 -0.3338
  286MOL0     H38578   4.857   9.357   8.906  2.4385  1.8864  1.9805
  286MOL0     H38579   4.853   9.173   8.894 -0.3875 -0.0851 -1.4586
  286MOL0     H38580   4.996   9.322   9.132  1.1668 -1.3715  0.4086
  286MOL0     H38581   4.930   9.159   9.121 -3.2244 -0.2232  0.2106
  286MOL0     H38582   4.793   9.269   9.260 -0.4847 -2.9743 -0.3812
  286MOL0     H38583   4.701   9.263   9.109  2.0849 -0.2395 -3.7160
  286MOL0     H38584   4.878   9.510   9.155  0.5796 -0.2057 -1.5137
  286MOL0     H38585   4.740   9.482   9.042  1.6650 -0.7849 -0.9449
  286MOL0     H38586   4.721   9.524   9.353 -3.1310  2.9248  1.0873
  286MOL0     H38587   4.598   9.456   9.252 -1.0078  1.3038 -0.1682
  286MOL0     H38588   4.588   9.665   9.116 -1.1355  0.1911  0.6120
  286MOL0     H38589   4.562   9.697   9.292  0.8885 -0.5816  0.7512
  286MOL0     H38590   5.285   8.928   8.955  0.7524  0.9187 -0.9322
  286MOL0     H38591   5.408   8.748   8.891 -0.7508  1.8581 -0.0620
  286MOL0     H38592   5.418   8.327   8.394  0.2271 -0.4853 -1.4405
  286MOL0     H38593   5.507   8.108   8.389 -1.6981  2.2514 -1.5998
  286MOL0     H38594   5.539   6.584   9.587  0.5128 -0.0291  1.0317
  286MOL0     H38595   5.569   6.352   9.598 -4.2114  0.5307 -0.5335
  286MOL0     H38596   5.637   5.954   9.682  1.6251  0.8274  1.8947
  286MOL0     H38597   5.661   5.706   9.676 -2.9424 -0.4998 -1.0665
  286MOL0     H38598   5.845   5.554   9.651  0.4550  0.4661 -0.7836
  286MOL0     H38599   5.825   5.396   9.560  2.6576  0.3122  0.0845
  286MOL0     H38600   5.621   5.356   9.631 -0.2993 -0.2295  0.6096
  286MOL0     H38601   5.572   5.512   9.656  1.4319  1.7155 -0.7813
  286MOL0     H38602   5.786   5.410   9.850  0.5564 -1.3356  1.5327
  286MOL0     H38603   5.644   5.305   9.834 -1.5987  1.4033  0.5539
  286MOL0     H38604   5.616   5.602   9.914  1.6931  0.2253  4.7732
  286MOL0     H38605   5.491   5.475   9.880  0.9767  0.3657 -3.3161
  286MOL0     H38606   5.625   5.395  10.271 -2.0156  1.6238 -0.2519
  286MOL0     H38607   5.799   5.735   9.275  1.6391  0.7225 -0.4624
  286MOL0     H38608   5.778   6.036   9.178  1.4123  2.2444 -1.0194
  286MOL0     H38609   5.907   6.086   9.292  2.4245 -1.3975  0.2774
  286MOL0     H38610   5.920   5.928   9.218 -1.6067 -2.0767  1.2250
  287MOL0     O38611  10.029   1.439   7.534 -0.5523 -0.4503  0.7486
  287MOL0     C38612  10.039   1.549   7.487  0.5116  0.3318  0.6755
  287MOL0     O38613  10.113   1.656   7.543 -1.1812 -0.1461  0.3942
  287MOL0     C38614  10.181   1.631   7.663  0.8022 -0.4550 -0.2682
  287MOL0     C38615  10.316   1.630   7.669 -1.1388 -0.1327 -0.6104
  287MOL0     C38616  10.385   1.636   7.792 -0.6340  0.3985  0.2157
  287MOL0     C38617  10.315   1.629   7.919 -0.2585  0.8171  0.0073
  287MOL0     O38618  10.366   1.642   8.052  0.3440 -0.6837  0.1378
  287MOL0     C38619  10.505   1.681   8.063  0.6716  0.2965  0.1548
  287MOL0     C38620  10.511   1.743   8.206 -0.2464 -0.3286  0.7128
  287MOL0     C38621  10.658   1.767   8.249 -0.0672 -0.8445 -0.0891
  287MOL0     C38622  10.717   1.633   8.275 -0.2081  0.1967 -0.8737
  287MOL0     C38623  10.875   1.653   8.304  0.4069  0.3269  0.4594
  287MOL0     C38624  10.958   1.653   8.168  0.5242 -0.0595 -0.5028
  287MOL0     C38625  11.101   1.669   8.208  0.1075 -0.1173 -0.3731
  287MOL0     C38626  11.190   1.676   8.081  0.0490  0.1246  0.2626
  287MOL0     N38627  11.197   1.813   8.024 -0.6081  0.1083 -0.5004
  287MOL0     C38628  11.315   1.885   8.059  0.7792  0.2397  0.3681
  287MOL0     C38629  11.317   1.978   7.963 -0.8168 -0.4211  0.9671
  287MOL0     C38630  11.438   2.065   7.934 -1.0942 -0.6972 -0.3388
  287MOL0     C38631  11.506   2.018   7.806 -0.1061 -0.9319  0.3672
  287MOL0     C38632  11.628   2.109   7.770 -1.0715 -0.1516  0.2398
  287MOL0     C38633  11.678   2.080   7.623  0.0000 -0.1443  0.3014
  287MOL0     O38634  11.698   1.936   7.587  0.6254 -0.1689  0.0282
  287MOL0     C38635  11.712   1.905   7.452 -0.0290 -1.8710  0.4556
  287MOL0     C38636  11.711   2.002   7.353  0.4615  0.5050 -1.6002
  287MOL0     C38637  11.747   1.963   7.222 -0.2885  0.3299  0.8607
  287MOL0     C38638  11.763   1.825   7.187  0.1707  0.6631 -0.3520
  287MOL0     C38639  11.809   1.765   7.056  0.7656  0.2934  1.2654
  287MOL0     O38640  11.797   1.639   7.033  0.0714  0.7238  0.2304
  287MOL0     C38641  11.786   1.586   6.904 -0.7263  0.0737 -0.2764
  287MOL0     C38642  11.768   1.447   6.903 -0.3797  0.2799  0.1327
  287MOL0     C38643  11.743   1.374   6.783 -0.1823 -0.4856  0.1038
  287MOL0     C38644  11.732   1.437   6.662 -0.3563  0.0273 -0.3918
  287MOL0     O38645  11.696   1.354   6.558  0.2753 -0.2158 -0.5787
  287MOL0     C38646  11.603   1.402   6.463 -1.0122  0.2030  0.0370
  287MOL0     C38647  11.462   1.359   6.497 -0.1390 -0.1489 -0.3549
  287MOL0     C38648  11.431   1.209   6.502  1.3728  0.6088  0.7077
  287MOL0     C38649  11.294   1.179   6.558  0.1658 -0.1798 -0.4965
  287MOL0     C38650  11.288   1.192   6.715  0.1410  0.2761  0.7832
  287MOL0     C38651  11.134   1.200   6.751 -1.2516  0.2765 -0.0967
  287MOL0     C38652  11.052   1.085   6.701 -0.4845 -0.0377  0.6766
  287MOL0     C38653  10.918   1.063   6.782 -0.1824  0.4879 -0.3315
  287MOL0    Cl38654  10.829   0.922   6.716 -0.1124 -0.4200  0.0003
  287MOL0     C38655  11.741   1.575   6.659  0.1292 -0.3929 -0.3501
  287MOL0     C38656  11.779   1.643   6.776  0.3428 -0.8158 -0.2496
  287MOL0     O38657  11.857   1.845   6.975 -0.5609  0.7576  0.0366
  287MOL0     C38658  11.737   1.733   7.289 -0.3068  0.4951  0.2625
  287MOL0     C38659  11.722   1.769   7.418 -0.1459  0.6876 -0.0955
  287MOL0     N38660  11.200   1.980   7.890 -0.0136  0.5804  0.4195
  287MOL0     N38661  11.132   1.870   7.921  0.1137  0.2248  0.3351
  287MOL0     C38662  10.175   1.619   7.916 -0.3508  0.0580 -0.2962
  287MOL0     C38663  10.111   1.616   7.784 -0.0643  0.8761 -0.0884
  287MOL0     C38664   9.977   1.580   7.352 -0.0871 -0.4692 -0.5101
  287MOL0     C38665   9.966   1.718   7.315  0.4910  0.8478 -0.4189
  287MOL0     C38666   9.915   1.741   7.188  0.7936 -0.0178  0.0712
  287MOL0     C38667   9.855   1.641   7.106 -0.1042 -0.4195 -0.4292
  287MOL0     O38668   9.819   1.681   6.984 -0.6804 -0.6153 -0.1167
  287MOL0     C38669   9.900   1.622   6.879 -0.0852  0.6798 -0.8439
  287MOL0     C38670   9.940   1.712   6.763 -0.0456 -0.4695 -0.5837
  287MOL0     C38671   9.832   1.814   6.719  0.8160  0.0351  0.3571
  287MOL0     C38672   9.717   1.748   6.645  0.0135 -0.6362  0.1591
  287MOL0     C38673   9.582   1.782   6.707  0.2780  0.0616  1.1086
  287MOL0     C38674   9.471   1.815   6.756  0.2396 -0.4141  0.5196
  287MOL0     C38675   9.841   1.515   7.152  0.6938  0.5269 -1.1890
  287MOL0     C38676   9.901   1.485   7.278 -1.0645 -0.1487 -0.5863
  287MOL0     C38677   9.885   1.344   7.331  0.5004  0.8367  0.8554
  287MOL0     H38678  10.369   1.645   7.575  2.2393  0.7281  1.2514
  287MOL0     H38679  10.491   1.657   7.790 -0.3990 -0.5818 -2.6589
  287MOL0     H38680  10.557   1.585   8.055  0.9639  0.3907  0.9206
  287MOL0     H38681  10.542   1.757   7.994  0.9240  0.9221  0.9658
  287MOL0     H38682  10.452   1.680   8.273 -1.4594  0.3201  0.2942
  287MOL0     H38683  10.454   1.836   8.194  2.3476  1.3341  0.5356
  287MOL0     H38684  10.662   1.819   8.346  0.0611 -3.6322  1.4916
  287MOL0     H38685  10.718   1.816   8.172  1.5825 -2.9259 -0.1976
  287MOL0     H38686  10.676   1.589   8.366  0.1643  0.5484 -0.5304
  287MOL0     H38687  10.709   1.546   8.210 -2.7698 -2.0754  2.1515
  287MOL0     H38688  10.894   1.749   8.353  0.2468  0.9481 -0.6694
  287MOL0     H38689  10.907   1.568   8.365  0.1578  0.3055  0.5597
  287MOL0     H38690  10.945   1.553   8.126 -2.5739  0.6282 -1.4708
  287MOL0     H38691  10.912   1.730   8.105  1.0862  1.2513  0.6527
  287MOL0     H38692  11.127   1.584   8.271  0.5558  1.9101  2.3427
  287MOL0     H38693  11.122   1.755   8.273 -0.9187 -0.7282  0.7987
  287MOL0     H38694  11.290   1.641   8.110 -0.1146 -0.6848 -0.1141
  287MOL0     H38695  11.151   1.615   7.999  0.7042  0.3733 -0.2493
  287MOL0     H38696  11.391   1.856   8.131  1.2549 -0.8748 -0.5616
  287MOL0     H38697  11.392   2.163   7.927 -0.0930 -0.0480  1.5580
  287MOL0     H38698  11.512   2.059   8.014 -0.1712 -1.3330 -1.2083
  287MOL0     H38699  11.534   1.913   7.816  0.9991 -0.6678  0.1632
  287MOL0     H38700  11.438   2.038   7.722  2.3876  4.8141 -0.8096
  287MOL0     H38701  11.713   2.080   7.834  0.0295  0.9974 -0.6550
  287MOL0     H38702  11.599   2.213   7.787 -0.5909  0.9214 -4.3454
  287MOL0     H38703  11.775   2.128   7.605 -0.2277 -0.5576 -2.3334
  287MOL0     H38704  11.598   2.114   7.558 -0.6435 -0.8363  0.7059
  287MOL0     H38705  11.696   2.108   7.373 -2.9151  0.0818 -1.2914
  287MOL0     H38706  11.755   2.037   7.143  0.6716  1.7664  2.2504
  287MOL0     H38707  11.767   1.394   6.997 -0.1281  1.5106  0.8606
  287MOL0     H38708  11.733   1.266   6.786  1.7295 -0.6904  0.4015
  287MOL0     H38709  11.602   1.510   6.449 -2.3869 -0.1237 -3.1131
  287MOL0     H38710  11.631   1.357   6.368 -1.4490 -1.6394  0.7314
  287MOL0     H38711  11.418   1.409   6.584  1.0988  0.8670 -0.2939
  287MOL0     H38712  11.407   1.400   6.412 -0.8013  0.1880  0.2262
  287MOL0     H38713  11.442   1.181   6.396  2.3435 -1.4913  1.3163
  287MOL0     H38714  11.507   1.154   6.558  0.3584 -0.0621  1.4759
  287MOL0     H38715  11.269   1.074   6.541  0.8654 -0.5502  0.6995
  287MOL0     H38716  11.212   1.228   6.505 -0.0760 -0.3551 -0.2854
  287MOL0     H38717  11.335   1.284   6.749 -0.4668  0.3955  1.3232
  287MOL0     H38718  11.336   1.101   6.750 -1.7829 -0.7656  0.8611
  287MOL0     H38719  11.112   1.215   6.857  0.0841  2.5121 -0.0857
  287MOL0     H38720  11.101   1.291   6.699 -0.5508  0.5505 -0.0672
  287MOL0     H38721  11.097   0.986   6.695  1.1739  0.7681 -1.0362
  287MOL0     H38722  11.037   1.108   6.595  1.5571 -4.2546 -0.7406
  287MOL0     H38723  10.927   1.046   6.890 -1.2051 -2.3242 -0.6190
  287MOL0     H38724  10.851   1.150   6.778 -1.9069 -0.7511  0.4521
  287MOL0     H38725  11.720   1.642   6.577  0.6608  0.6443  0.3378
  287MOL0     H38726  11.776   1.751   6.765 -0.8716 -0.9746 -1.7858
  287MOL0     H38727  11.731   1.626   7.276 -0.1274  0.6146 -0.9057
  287MOL0     H38728  11.702   1.703   7.502 -2.4665 -0.0541 -1.1442
  287MOL0     H38729  10.126   1.592   8.009  0.5099 -3.8174 -0.7861
  287MOL0     H38730  10.005   1.598   7.770 -0.4606 -0.8845  3.7559
  287MOL0     H38731   9.999   1.804   7.372  0.2776 -0.1152  1.2203
  287MOL0     H38732   9.919   1.843   7.150  3.0336  0.1508  0.6029
  287MOL0     H38733   9.855   1.536   6.828  2.4978  0.5476 -3.1906
  287MOL0     H38734   9.993   1.586   6.925 -1.6148 -0.8582  1.2227
  287MOL0     H38735   9.975   1.651   6.679  3.7950 -2.5765  2.2499
  287MOL0     H38736  10.030   1.761   6.801 -0.6757  0.9288 -0.8381
  287MOL0     H38737   9.866   1.889   6.648 -1.2565  0.9987  0.3044
  287MOL0     H38738   9.802   1.871   6.808  0.4533 -0.4719  0.5676
  287MOL0     H38739   9.735   1.796   6.549 -1.4524 -0.3921 -0.0155
  287MOL0     H38740   9.729   1.641   6.630  3.3248 -0.7999  2.6722
  287MOL0     H38741   9.370   1.819   6.790 -0.0903  1.9184 -0.5283
  287MOL0     H38742   9.786   1.439   7.097  1.3892 -0.9845  0.1286
  287MOL0     H38743   9.977   1.285   7.333  1.5777  2.3734 -0.5689
  287MOL0     H38744   9.828   1.357   7.424 -0.6366  2.5376 -0.0331
  287MOL0     H38745   9.828   1.275   7.268 -0.1163  0.0148  2.2772
  288MOL0     O38746   9.406   2.827   4.272 -0.0532 -0.7644 -0.0018
  288MOL0     C38747   9.467   2.820   4.165 -0.2514 -0.3985 -0.4549
  288MOL0     O38748   9.414   2.826   4.041 -0.2757 -0.6745  0.3611
  288MOL0     C38749   9.284   2.791   4.012  0.4843  1.7016  0.5843
  288MOL0     C38750   9.204   2.880   3.950  0.8217  0.6298  0.2803
  288MOL0     C38751   9.068   2.862   3.939 -0.4058 -0.6969  0.1075
  288MOL0     C38752   9.007   2.744   3.987 -0.6407 -0.9769  1.3040
  288MOL0     O38753   8.878   2.716   3.948 -0.1848  0.4031 -0.1685
  288MOL0     C38754   8.789   2.825   3.951  0.1252  0.4192  0.4669
  288MOL0     C38755   8.644   2.780   3.957  0.1896 -0.0953 -0.3938
  288MOL0     C38756   8.550   2.893   3.915 -0.5106 -0.1249 -0.0359
  288MOL0     C38757   8.413   2.831   3.887  0.5576  0.6827  0.0356
  288MOL0     C38758   8.321   2.915   3.801  0.1230 -0.9342  0.5440
  288MOL0     C38759   8.359   2.937   3.649  0.3293 -0.2210 -0.5153
  288MOL0     C38760   8.242   3.044   3.605  0.4929 -0.2175  0.0378
  288MOL0     C38761   8.269   3.089   3.461 -0.4730 -0.3077  0.8705
  288MOL0     N38762   8.150   3.161   3.411  0.4268 -0.7848  0.8644
  288MOL0     C38763   8.154   3.293   3.377  0.0590 -0.1581 -0.4252
  288MOL0     C38764   8.026   3.321   3.340 -0.0176 -1.1878 -0.4618
  288MOL0     C38765   7.975   3.451   3.286  0.0355 -0.0464 -0.2962
  288MOL0     C38766   7.980   3.453   3.136 -0.3560 -0.0321  0.1338
  288MOL0     C38767   8.110   3.513   3.079  0.0821  0.4069 -0.3303
  288MOL0     C38768   8.109   3.536   2.931  0.0474  0.2051  1.0792
  288MOL0     O38769   8.023   3.642   2.894 -0.3021 -0.4920 -0.3272
  288MOL0     C38770   7.986   3.660   2.765  0.6612 -0.8625 -0.0979
  288MOL0     C38771   8.050   3.601   2.659 -0.7062 -0.8496 -0.3582
  288MOL0     C38772   8.025   3.646   2.533  0.7184 -0.2783  0.7577
  288MOL0     C38773   7.916   3.732   2.500 -0.3926 -0.0701  0.5252
  288MOL0     C38774   7.895   3.778   2.360 -0.5166 -0.5603  0.5756
  288MOL0     O38775   7.815   3.895   2.345 -0.6857 -1.0822 -0.1968
  288MOL0     C38776   7.807   3.956   2.217 -0.6818  0.0542 -0.1315
  288MOL0     C38777   7.920   3.989   2.151 -0.0013 -0.3558  0.0622
  288MOL0     C38778   7.927   4.043   2.030 -0.2850 -0.3164  0.1200
  288MOL0     C38779   7.802   4.066   1.965  0.6009 -0.8492  0.2199
  288MOL0     O38780   7.808   4.140   1.851 -0.1334 -0.0003  0.2485
  288MOL0     C38781   7.842   4.064   1.733 -0.5092 -0.4366 -0.1099
  288MOL0     C38782   7.729   4.093   1.632 -0.3618 -0.2161  0.4234
  288MOL0     C38783   7.741   4.022   1.492  0.2618 -0.8261 -0.1229
  288MOL0     C38784   7.652   4.077   1.377 -0.1194 -0.2009 -0.6145
  288MOL0     C38785   7.691   3.998   1.249  0.1422 -0.4598  0.2419
  288MOL0     C38786   7.821   4.063   1.196  0.5276  0.7579 -0.0778
  288MOL0     C38787   7.819   4.072   1.041 -1.1353  0.7515 -0.2241
  288MOL0     C38788   7.731   4.183   0.995  0.1578  0.5317 -0.2716
  288MOL0    Cl38789   7.742   4.182   0.820 -0.1008  0.2080 -0.5870
  288MOL0     C38790   7.680   4.019   2.024  0.3672  0.5434  0.2493
  288MOL0     C38791   7.678   3.967   2.150  0.5939 -0.5817 -0.5370
  288MOL0     O38792   7.943   3.714   2.264 -0.0150  0.0310  0.1327
  288MOL0     C38793   7.839   3.781   2.603  0.4614 -1.5570 -0.1372
  288MOL0     C38794   7.886   3.758   2.741  0.0366  0.2442 -0.4630
  288MOL0     N38795   7.949   3.205   3.364  0.3990  0.2133 -0.3127
  288MOL0     N38796   8.019   3.111   3.408  0.0948  0.7529 -0.4989
  288MOL0     C38797   9.088   2.647   4.047 -0.5814 -0.0406  0.2551
  288MOL0     C38798   9.227   2.671   4.059  0.4859  1.3120 -0.7448
  288MOL0     C38799   9.614   2.827   4.173  0.0677 -0.3474 -0.1051
  288MOL0     C38800   9.669   2.883   4.066 -0.0970 -0.6705  0.2359
  288MOL0     C38801   9.806   2.866   4.041  0.6458  0.1371  0.4310
  288MOL0     C38802   9.889   2.790   4.131  0.1383 -0.3262  0.2779
  288MOL0     O38803  10.019   2.784   4.102 -0.4596 -0.3338 -0.4322
  288MOL0     C38804  10.116   2.701   4.174  0.1971  0.2391  0.6674
  288MOL0     C38805  10.217   2.792   4.241 -0.3845 -0.2568  0.4120
  288MOL0     C38806  10.321   2.716   4.326 -0.7527 -0.1930  0.1463
  288MOL0     C38807  10.441   2.668   4.235  0.5835  0.5132  0.7124
  288MOL0     C38808  10.411   2.544   4.156  0.6465 -0.4456  0.8152
  288MOL0     C38809  10.381   2.432   4.120 -0.5884  0.6017 -1.0059
  288MOL0     C38810   9.830   2.755   4.251  0.2057  0.2576  0.2395
  288MOL0     C38811   9.691   2.765   4.273 -0.0408  1.2284 -0.2714
  288MOL0     C38812   9.636   2.710   4.409  0.1844 -0.6147  0.6250
  288MOL0     H38813   9.249   2.974   3.922 -0.2175  1.2400  0.5852
  288MOL0     H38814   9.012   2.935   3.881 -0.4572  0.9556  2.1196
  288MOL0     H38815   8.803   2.893   4.036 -4.1466  1.2359  0.7491
  288MOL0     H38816   8.805   2.878   3.856 -0.3164 -0.1877  0.0494
  288MOL0     H38817   8.622   2.745   4.059  2.0915  0.3279  0.2037
  288MOL0     H38818   8.632   2.701   3.883  1.1498 -1.7300  1.1235
  288MOL0     H38819   8.588   2.950   3.830 -0.8315 -0.5464 -0.4677
  288MOL0     H38820   8.553   2.964   3.997 -0.3236  1.4798 -1.3736
  288MOL0     H38821   8.425   2.736   3.834 -1.4707  0.3361  0.1354
  288MOL0     H38822   8.361   2.792   3.975  0.5467 -0.9029 -0.6261
  288MOL0     H38823   8.228   2.857   3.798  1.5252 -4.2326  5.9768
  288MOL0     H38824   8.298   3.015   3.839 -0.7542 -0.3339 -1.4708
  288MOL0     H38825   8.454   2.987   3.631  1.1249 -1.7789 -0.7899
  288MOL0     H38826   8.359   2.846   3.589  2.5734  0.7863 -2.1765
  288MOL0     H38827   8.230   3.130   3.672  0.0170 -1.2728  1.3748
  288MOL0     H38828   8.147   2.990   3.619  0.7867 -0.7774 -0.0933
  288MOL0     H38829   8.351   3.161   3.463  1.4289 -2.3867  2.2822
  288MOL0     H38830   8.288   3.007   3.392 -1.1873  0.6385 -0.4964
  288MOL0     H38831   8.232   3.368   3.381  0.1859 -0.0425 -3.3337
  288MOL0     H38832   7.875   3.468   3.328 -0.3346  3.8553 -2.3358
  288MOL0     H38833   8.037   3.528   3.332 -1.7715  0.3176  1.7079
  288MOL0     H38834   7.975   3.349   3.103  0.1990 -0.1393  0.3782
  288MOL0     H38835   7.893   3.510   3.103 -0.4621  0.1966  0.7830
  288MOL0     H38836   8.189   3.442   3.109 -2.1748 -1.1581  2.4124
  288MOL0     H38837   8.126   3.610   3.125 -2.1093  2.0591 -2.7602
  288MOL0     H38838   8.064   3.447   2.886 -3.2015  1.2841  1.8928
  288MOL0     H38839   8.210   3.547   2.891 -0.5760 -1.7625 -1.2694
  288MOL0     H38840   8.128   3.527   2.674  3.1641  2.3615 -2.6942
  288MOL0     H38841   8.096   3.623   2.454 -0.4408 -2.8361  0.3813
  288MOL0     H38842   8.009   3.978   2.212  2.0023 -0.0416 -2.6073
  288MOL0     H38843   8.014   4.090   1.986 -0.3084  0.1402  0.5511
  288MOL0     H38844   7.934   4.100   1.686  1.1228 -1.2089  2.3146
  288MOL0     H38845   7.843   3.955   1.740 -2.3848 -0.5554 -0.9451
  288MOL0     H38846   7.645   4.052   1.687 -1.0210  2.0237  1.1927
  288MOL0     H38847   7.713   4.200   1.611 -1.9221 -0.2479  1.3171
  288MOL0     H38848   7.846   4.029   1.463  1.0777  1.9462  2.8112
  288MOL0     H38849   7.717   3.918   1.515  0.7159 -0.9778 -0.3260
  288MOL0     H38850   7.659   4.184   1.357  0.5735  0.1310  1.2232
  288MOL0     H38851   7.545   4.064   1.394 -1.0772  3.7077 -2.5272
  288MOL0     H38852   7.612   4.006   1.173  1.0196  2.2579 -0.5117
  288MOL0     H38853   7.720   3.894   1.262  2.4298  0.4419  3.6267
  288MOL0     H38854   7.833   4.165   1.233 -4.8000  0.9166  2.0437
  288MOL0     H38855   7.910   4.009   1.231  0.1477  1.1262  1.5298
  288MOL0     H38856   7.796   3.977   0.992 -0.0801 -0.8314  2.1515
  288MOL0     H38857   7.925   4.092   1.025 -0.8515  1.7362  2.4147
  288MOL0     H38858   7.627   4.165   1.024  0.1847 -0.9379 -0.9865
  288MOL0     H38859   7.759   4.278   1.041 -0.3928  1.7231 -2.2417
  288MOL0     H38860   7.584   4.031   1.975 -0.0274 -1.8800  0.3246
  288MOL0     H38861   7.581   3.939   2.191 -0.1074 -0.2835 -1.9067
  288MOL0     H38862   7.755   3.849   2.589  1.2011 -0.4902  0.4703
  288MOL0     H38863   7.824   3.801   2.819  1.6520 -3.0297  2.8626
  288MOL0     H38864   9.044   2.560   4.095 -2.1353  1.0062  0.8090
  288MOL0     H38865   9.284   2.595   4.111  1.1482  0.9349 -1.9718
  288MOL0     H38866   9.621   2.941   3.988 -0.1994 -0.5059  0.4200
  288MOL0     H38867   9.855   2.920   3.961 -1.0762  1.6525  0.3491
  288MOL0     H38868  10.171   2.642   4.101  1.8337  2.9869 -0.4496
  288MOL0     H38869  10.072   2.626   4.241 -0.0510 -1.2306 -1.0600
  288MOL0     H38870  10.172   2.873   4.300  0.9517  0.0716  1.0237
  288MOL0     H38871  10.261   2.858   4.166  1.0863 -0.1012  1.3707
  288MOL0     H38872  10.282   2.626   4.373 -2.8612  0.2636 -0.6054
  288MOL0     H38873  10.355   2.781   4.407 -1.0017  0.1734 -0.0379
  288MOL0     H38874  10.467   2.749   4.166  2.3305  1.7727  2.7184
  288MOL0     H38875  10.530   2.647   4.295  0.9505 -1.9622 -0.5779
  288MOL0     H38876  10.342   2.339   4.084  2.6561 -0.8734 -1.0549
  288MOL0     H38877   9.897   2.724   4.329  0.8324  0.8967 -0.0320
  288MOL0     H38878   9.624   2.800   4.469  2.3060 -0.3675  0.7511
  288MOL0     H38879   9.548   2.644   4.405  1.1157 -1.8780 -2.9028
  288MOL0     H38880   9.714   2.644   4.448 -1.0844 -3.5861 -1.4441
  289MOL0     O38881   4.871   9.371  10.873  0.4088  0.2127 -0.2976
  289MOL0     C38882   4.820   9.279  10.816  0.3583 -0.6636  0.3144
  289MOL0     O38883   4.838   9.249  10.678  0.6352 -0.2544  0.5278
  289MOL0     C38884   4.771   9.149  10.621  1.0889 -0.5889  0.2012
  289MOL0     C38885   4.650   9.186  10.567  0.5729 -0.4194 -0.1006
  289MOL0     C38886   4.571   9.081  10.513 -0.5541  0.2873 -0.4806
  289MOL0     C38887   4.611   8.949  10.512 -1.8849  0.9705 -0.2250
  289MOL0     O38888   4.524   8.853  10.472  0.7179 -0.9698 -0.1783
  289MOL0     C38889   4.556   8.718  10.501 -0.5162 -0.4213 -0.5161
  289MOL0     C38890   4.448   8.625  10.437 -0.1429 -1.5349  0.2632
  289MOL0     C38891   4.434   8.497  10.513  0.6249  0.1243  0.5430
  289MOL0     C38892   4.379   8.389  10.408 -0.1418  0.1435  0.4730
  289MOL0     C38893   4.354   8.244  10.467  0.3096  0.5501 -0.4967
  289MOL0     C38894   4.217   8.208  10.506  0.7144  0.0259  0.6229
  289MOL0     C38895   4.199   8.078  10.589 -0.2088  0.1503  0.1920
  289MOL0     C38896   4.064   8.025  10.610 -0.3842 -0.4230 -0.2473
  289MOL0     N38897   4.049   7.921  10.712 -0.3474  0.1329 -0.2747
  289MOL0     C38898   4.146   7.830  10.754 -0.1808 -0.6179  0.2794
  289MOL0     C38899   4.083   7.761  10.858 -0.7793 -1.0546  0.4454
  289MOL0     C38900   4.119   7.630  10.927  0.2575 -0.3908 -0.7847
  289MOL0     C38901   4.174   7.641  11.068  0.3000  0.1585 -0.7480
  289MOL0     C38902   4.323   7.676  11.068 -0.8593  0.3995 -0.7889
  289MOL0     C38903   4.425   7.573  11.030  0.4185 -0.3466 -0.5790
  289MOL0     O38904   4.424   7.461  11.119  0.8895  0.3249 -0.1547
  289MOL0     C38905   4.541   7.410  11.166 -0.8765 -0.1358  0.5849
  289MOL0     C38906   4.532   7.343  11.287  0.5944 -0.4078  0.0888
  289MOL0     C38907   4.649   7.279  11.339 -0.6881  0.5533  0.6763
  289MOL0     C38908   4.763   7.277  11.267 -0.3825  0.7893  1.5994
  289MOL0     C38909   4.885   7.195  11.313  0.6506  0.3160 -0.9653
  289MOL0     O38910   4.863   7.128  11.427  0.0672 -0.3520 -0.2862
  289MOL0     C38911   4.967   7.073  11.493 -0.1639  0.9999  0.2301
  289MOL0     C38912   5.004   7.127  11.617 -0.1422 -0.5855 -0.8037
  289MOL0     C38913   5.117   7.071  11.687 -1.1131  0.2261  0.3549
  289MOL0     C38914   5.180   6.949  11.652  0.0208 -0.2544 -0.0717
  289MOL0     O38915   5.282   6.908  11.730  0.1668  0.3667  0.3798
  289MOL0     C38916   5.405   6.854  11.677 -0.2166 -0.1492  0.4643
  289MOL0     C38917   5.431   6.708  11.709  0.2371 -0.6804  0.8039
  289MOL0     C38918   5.429   6.666  11.854 -1.2619  0.2470 -0.7520
  289MOL0     C38919   5.423   6.509  11.875 -0.4793 -0.0413 -1.4249
  289MOL0     C38920   5.372   6.479  12.018 -0.5161 -1.1205  0.3152
  289MOL0     C38921   5.386   6.326  12.043 -0.8495 -0.4668 -0.0396
  289MOL0     C38922   5.351   6.287  12.179 -0.3937  0.8988  0.3660
  289MOL0     C38923   5.352   6.124  12.182  0.3937 -0.7986 -0.4488
  289MOL0    Cl38924   5.517   6.038  12.140  0.2512 -0.3611 -0.1118
  289MOL0     C38925   5.146   6.897  11.533 -0.2009  0.6693  0.0292
  289MOL0     C38926   5.041   6.959  11.453 -0.6628  0.3559 -0.7451
  289MOL0     O38927   4.992   7.194  11.257  1.6137  0.1836 -0.4853
  289MOL0     C38928   4.771   7.346  11.141 -0.4216 -0.4275 -0.1629
  289MOL0     C38929   4.657   7.405  11.088 -0.3343  0.7614 -0.3716
  289MOL0     N38930   3.964   7.810  10.881  1.2940 -0.1903  0.4295
  289MOL0     N38931   3.939   7.911  10.792 -0.5056 -0.3479  0.6088
  289MOL0     C38932   4.753   8.923  10.563  0.0702  0.0267  1.0355
  289MOL0     C38933   4.832   9.021  10.612  0.7619 -0.1085  0.1597
  289MOL0     C38934   4.704   9.223  10.895  0.3832 -0.2912 -0.8365
  289MOL0     C38935   4.721   9.097  10.954  1.0574 -0.6078  0.2818
  289MOL0     C38936   4.613   9.047  11.031  1.1514 -0.3210 -0.6474
  289MOL0     C38937   4.487   9.105  11.018  0.1133  0.5017 -0.1084
  289MOL0     O38938   4.387   9.054  11.090  1.1999 -0.1078  0.5094
  289MOL0     C38939   4.260   9.045  11.024 -0.1756  1.2840 -0.0239
  289MOL0     C38940   4.202   8.909  11.068  0.7820  0.6937 -0.6406
  289MOL0     C38941   4.301   8.789  11.056  0.0898 -0.6765 -0.5276
  289MOL0     C38942   4.349   8.760  10.914 -0.3579  0.5135 -0.0552
  289MOL0     C38943   4.256   8.722  10.804  0.2901 -0.7684  0.0815
  289MOL0     C38944   4.169   8.682  10.726 -0.8044  0.6926 -0.4900
  289MOL0     C38945   4.472   9.220  10.948  0.3931 -0.2663 -1.2736
  289MOL0     C38946   4.583   9.298  10.905  0.6865  0.4264 -0.8946
  289MOL0     C38947   4.565   9.430  10.841  1.2356  1.0803  0.1589
  289MOL0     H38948   4.617   9.290  10.564 -0.1292 -0.5172  2.1349
  289MOL0     H38949   4.476   9.104  10.465 -1.8879 -4.2347 -0.4450
  289MOL0     H38950   4.657   8.691  10.470 -0.5231 -0.3270 -0.6234
  289MOL0     H38951   4.556   8.699  10.609  1.3261 -2.1143 -0.7756
  289MOL0     H38952   4.478   8.614  10.332 -2.4908 -1.6334 -0.4675
  289MOL0     H38953   4.355   8.682  10.428  0.2808 -0.7659  0.6449
  289MOL0     H38954   4.370   8.514  10.600 -0.4753  0.3973 -0.2975
  289MOL0     H38955   4.535   8.478  10.552  1.1682  2.1073  0.2282
  289MOL0     H38956   4.294   8.430  10.353 -1.8932 -2.8208  0.7505
  289MOL0     H38957   4.455   8.384  10.330  1.0963 -0.2653  1.6681
  289MOL0     H38958   4.393   8.178  10.389 -2.3289 -1.1826 -0.4497
  289MOL0     H38959   4.416   8.232  10.556  0.5859 -1.4417 -0.9065
  289MOL0     H38960   4.167   8.292  10.555  3.0234  0.2092  2.9054
  289MOL0     H38961   4.150   8.201  10.420 -0.9812 -1.2545  1.9483
  289MOL0     H38962   4.254   8.082  10.683  0.5517  0.5225 -0.2573
  289MOL0     H38963   4.248   8.003  10.526 -1.1059 -1.2522  1.1256
  289MOL0     H38964   4.010   8.114  10.644 -1.0906 -1.2190  0.7996
  289MOL0     H38965   4.025   7.990  10.514 -0.6251 -1.8296  0.3427
  289MOL0     H38966   4.245   7.811  10.713 -0.2890 -3.0272  0.9619
  289MOL0     H38967   4.024   7.575  10.930  0.3660 -0.5288  0.6486
  289MOL0     H38968   4.176   7.564  10.860 -3.7875 -3.6977 -1.4164
  289MOL0     H38969   4.121   7.722  11.120 -1.9212 -3.0728  2.5777
  289MOL0     H38970   4.153   7.554  11.131 -0.4960  2.1605  1.9153
  289MOL0     H38971   4.346   7.704  11.171  0.0491 -2.1516 -0.2276
  289MOL0     H38972   4.334   7.762  11.002 -0.1017  2.2175  1.5903
  289MOL0     H38973   4.518   7.630  11.030  0.8406 -1.0075  0.3621
  289MOL0     H38974   4.388   7.533  10.935 -1.9369 -3.0389  1.2814
  289MOL0     H38975   4.444   7.350  11.350 -0.0046  3.7460 -0.9185
  289MOL0     H38976   4.635   7.216  11.426 -0.2985 -0.2246  0.1843
  289MOL0     H38977   4.965   7.223  11.647  4.6571  1.9389 -1.6748
  289MOL0     H38978   5.137   7.114  11.785  4.3274 -0.0961 -0.3401
  289MOL0     H38979   5.410   6.874  11.570  0.8497  3.6121  1.0684
  289MOL0     H38980   5.488   6.915  11.715 -1.2169  1.3935  0.2894
  289MOL0     H38981   5.356   6.653  11.651  1.5067 -1.3820 -0.2543
  289MOL0     H38982   5.529   6.677  11.669 -0.0987 -0.0574 -0.5782
  289MOL0     H38983   5.518   6.708  11.902  1.3141 -3.6526 -1.6390
  289MOL0     H38984   5.340   6.709  11.903  0.9193  2.9905  1.1289
  289MOL0     H38985   5.519   6.456  11.865 -1.1015 -1.6168  0.2835
  289MOL0     H38986   5.358   6.445  11.815  1.0158  0.0460 -3.2375
  289MOL0     H38987   5.271   6.520  12.031 -1.2844 -2.7433 -0.2828
  289MOL0     H38988   5.436   6.533  12.088 -0.2092  0.7267 -1.2797
  289MOL0     H38989   5.325   6.266  11.974 -0.1555  0.0661 -1.1530
  289MOL0     H38990   5.484   6.286  12.017  0.1150  1.5674  0.3359
  289MOL0     H38991   5.255   6.326  12.214 -1.2184  0.5274 -1.4050
  289MOL0     H38992   5.432   6.318  12.245  2.0843 -1.1470 -1.5159
  289MOL0     H38993   5.314   6.092  12.280  2.3461 -2.9019 -0.3035
  289MOL0     H38994   5.280   6.088  12.108 -1.3227 -1.3018  1.3876
  289MOL0     H38995   5.195   6.809  11.493 -0.1690 -0.3790  2.2423
  289MOL0     H38996   5.016   6.926  11.353 -0.5759  0.3677 -0.7704
  289MOL0     H38997   4.862   7.352  11.082 -0.1339 -0.8444  0.2318
  289MOL0     H38998   4.674   7.458  10.995  3.2605 -0.6561 -0.7006
  289MOL0     H38999   4.795   8.823  10.568  0.2867  0.1636  2.2526
  289MOL0     H39000   4.924   9.002  10.667 -0.3475 -1.3753  1.6641
  289MOL0     H39001   4.800   9.027  10.930  1.3366 -0.6007  1.1570
  289MOL0     H39002   4.606   8.949  11.078 -0.8474 -1.5074 -3.1109
  289MOL0     H39003   4.280   9.040  10.917 -1.2834  1.7952 -0.2647
  289MOL0     H39004   4.193   9.125  11.055  1.3181  1.3690  3.4067
  289MOL0     H39005   4.110   8.892  11.011 -0.7080  1.1088  1.4847
  289MOL0     H39006   4.172   8.928  11.172  2.2065  0.6865 -0.2076
  289MOL0     H39007   4.247   8.705  11.101  0.1013 -1.5084 -2.0058
  289MOL0     H39008   4.381   8.818  11.124 -0.6341  2.0513 -0.7137
  289MOL0     H39009   4.416   8.841  10.884  2.1195 -2.5240 -3.7096
  289MOL0     H39010   4.410   8.671  10.929  0.3973  0.2888 -3.5761
  289MOL0     H39011   4.103   8.653  10.648 -0.1546  0.2153 -0.8726
  289MOL0     H39012   4.378   9.273  10.950  1.3260  1.4609  0.2797
  289MOL0     H39013   4.460   9.449  10.821  0.9940 -1.7261 -1.9772
  289MOL0     H39014   4.591   9.511  10.910  3.4667  3.0037 -2.6995
  289MOL0     H39015   4.623   9.427  10.748 -0.7732 -1.3531 -1.1460
  290MOL0     O39016   6.716  10.965  10.194  0.2042 -0.6578 -0.4090
  290MOL0     C39017   6.613  10.962  10.127  0.1659  0.7633 -1.3109
  290MOL0     O39018   6.554  10.843  10.094  0.0954 -0.0532  0.3205
  290MOL0     C39019   6.623  10.725  10.112  0.1651 -0.1586 -0.5937
  290MOL0     C39020   6.562  10.626  10.178  0.2575  0.5070  0.2338
  290MOL0     C39021   6.636  10.507  10.202  0.5689 -1.0431 -0.4937
  290MOL0     C39022   6.764  10.486  10.153 -0.3037  0.4902 -1.3930
  290MOL0     O39023   6.816  10.359  10.176 -0.4992 -0.3980 -1.0071
  290MOL0     C39024   6.954  10.350  10.163  0.4982 -0.5372 -0.0229
  290MOL0     C39025   6.973  10.210  10.234  0.1787  1.5528  0.4747
  290MOL0     C39026   6.912  10.107  10.139  0.3714  0.1579 -0.3677
  290MOL0     C39027   6.938   9.965  10.199  1.0936 -0.1754  0.0691
  290MOL0     C39028   6.856   9.864  10.118 -0.6520 -0.0827  0.1997
  290MOL0     C39029   6.904   9.823   9.981  0.0306  0.4276  0.2797
  290MOL0     C39030   6.801   9.835   9.864  0.6646  0.7622 -0.2277
  290MOL0     C39031   6.858   9.795   9.728  0.9376  0.4715  0.4770
  290MOL0     N39032   6.755   9.782   9.624 -0.0437  0.2329 -0.3632
  290MOL0     C39033   6.783   9.769   9.493  0.0017  0.3943  0.5274
  290MOL0     C39034   6.671   9.825   9.424 -0.0415  0.8435 -1.0791
  290MOL0     C39035   6.672   9.850   9.284  0.6625  0.5543  0.4892
  290MOL0     C39036   6.710   9.985   9.240 -0.4285 -0.0303  0.7326
  290MOL0     C39037   6.709  10.013   9.088  0.8770  0.1471 -0.7919
  290MOL0     C39038   6.823  10.098   9.045 -0.7941 -0.2417  0.5167
  290MOL0     O39039   6.947  10.025   9.064  0.1877 -0.0256  0.2775
  290MOL0     C39040   6.998   9.953   8.945 -0.1596 -0.4526 -0.2511
  290MOL0     C39041   6.940   9.940   8.817 -0.3452 -0.7643  0.0902
  290MOL0     C39042   6.995   9.884   8.704 -0.7890  0.3712  0.2325
  290MOL0     C39043   7.136   9.846   8.720  0.0062 -0.4685  0.0153
  290MOL0     C39044   7.220   9.802   8.604 -0.4644  0.7737 -0.7555
  290MOL0     O39045   7.165   9.805   8.480  0.3679 -1.1179 -1.1048
  290MOL0     C39046   7.251   9.796   8.378 -0.6688  0.1065 -0.3289
  290MOL0     C39047   7.318   9.678   8.336 -0.3853  0.3475  0.0258
  290MOL0     C39048   7.447   9.671   8.280 -0.3772 -0.8599 -0.4130
  290MOL0     C39049   7.507   9.795   8.237 -0.5259 -0.2032  0.0421
  290MOL0     O39050   7.634   9.805   8.165  0.0406 -0.9660 -0.6152
  290MOL0     C39051   7.694   9.681   8.123 -0.2673  0.5105  0.0628
  290MOL0     C39052   7.824   9.714   8.049 -0.9188  0.6612 -0.0380
  290MOL0     C39053   7.810   9.816   7.942  0.3091 -1.1226 -0.3242
  290MOL0     C39054   7.697   9.787   7.850  0.2849 -0.0634 -0.0284
  290MOL0     C39055   7.700   9.861   7.712  0.4347 -0.7162 -0.6725
  290MOL0     C39056   7.604   9.800   7.608 -0.0716 -0.4852 -0.6144
  290MOL0     C39057   7.641   9.863   7.484  0.4018 -0.6702  0.1164
  290MOL0     C39058   7.574  10.005   7.478 -0.3975  0.1716 -0.5365
  290MOL0    Cl39059   7.606  10.084   7.322  0.4617  0.2137 -0.4579
  290MOL0     C39060   7.432   9.908   8.251 -0.6491  0.0544  0.1028
  290MOL0     C39061   7.310   9.913   8.322  0.2239 -0.5854 -0.5077
  290MOL0     O39062   7.331   9.759   8.630  0.1072  0.3412 -0.3617
  290MOL0     C39063   7.199   9.855   8.848  0.0368  0.2635  0.5110
  290MOL0     C39064   7.128   9.910   8.961 -0.3982  0.1273  0.2580
  290MOL0     N39065   6.574   9.843   9.521 -0.3560 -0.1861 -1.0220
  290MOL0     N39066   6.624   9.824   9.634 -0.5706  0.4218  0.0880
  290MOL0     C39067   6.826  10.591  10.089  0.7624 -0.0104 -0.2125
  290MOL0     C39068   6.757  10.709  10.072 -0.2021  0.5265  0.4740
  290MOL0     C39069   6.545  11.085  10.074 -0.3325 -0.0029  0.2957
  290MOL0     C39070   6.415  11.068  10.029  0.0308  0.7288  0.0662
  290MOL0     C39071   6.347  11.183   9.986  1.2263 -0.0714  0.9493
  290MOL0     C39072   6.407  11.313   9.983  0.9110 -0.6191 -0.1067
  290MOL0     O39073   6.339  11.408   9.911  1.2043 -0.6614 -0.0992
  290MOL0     C39074   6.368  11.542   9.941  0.4955 -0.0159  1.2508
  290MOL0     C39075   6.262  11.623   9.867  0.5065 -0.3760  0.2774
  290MOL0     C39076   6.119  11.587   9.916 -0.3182 -0.2769 -0.0058
  290MOL0     C39077   6.022  11.698   9.911  0.1411  0.3334 -1.2926
  290MOL0     C39078   5.879  11.661   9.942 -1.3619  0.2820  0.4714
  290MOL0     C39079   5.768  11.638   9.978  0.9006  0.9228 -0.1585
  290MOL0     C39080   6.535  11.316  10.032 -0.4256  0.1335  1.2815
  290MOL0     C39081   6.607  11.214  10.074 -0.2080  0.6595  1.0288
  290MOL0     C39082   6.750  11.248  10.138  0.3026  0.0907  0.5566
  290MOL0     H39083   6.459  10.634  10.212  0.5998  1.7729  1.0132
  290MOL0     H39084   6.588  10.429  10.260  0.3822 -0.2506  0.4317
  290MOL0     H39085   6.981  10.356  10.057 -2.0689 -1.7021 -0.8038
  290MOL0     H39086   7.019  10.418  10.219 -0.4213  0.2246  0.1455
  290MOL0     H39087   6.915  10.204  10.327 -0.9327 -1.3112 -0.2751
  290MOL0     H39088   7.078  10.183  10.246 -0.5114 -2.6603 -1.0074
  290MOL0     H39089   6.967  10.107  10.045  1.2638 -2.0167  0.1047
  290MOL0     H39090   6.808  10.132  10.117  0.4096 -0.0174 -0.7419
  290MOL0     H39091   7.046   9.945  10.200  0.8850 -1.4433 -0.3191
  290MOL0     H39092   6.900   9.953  10.301 -3.0389 -0.2648 -1.3020
  290MOL0     H39093   6.838   9.772  10.174 -1.9420  0.9985  1.6416
  290MOL0     H39094   6.755   9.904  10.110 -0.2788  1.6595  2.9075
  290MOL0     H39095   7.002   9.868   9.962  0.1613  1.3790  2.7705
  290MOL0     H39096   6.921   9.717  10.001  0.3704  0.5697  0.7761
  290MOL0     H39097   6.761   9.935   9.847 -5.3471 -1.4620 -1.6697
  290MOL0     H39098   6.721   9.765   9.890  0.9055  1.0212  1.2891
  290MOL0     H39099   6.927   9.875   9.700  1.6294 -0.5250 -0.7838
  290MOL0     H39100   6.909   9.699   9.745  0.5296  0.2634  0.5233
  290MOL0     H39101   6.877   9.740   9.447 -1.4699 -0.8087 -1.9687
  290MOL0     H39102   6.743   9.779   9.241  1.3446  1.0244  0.8188
  290MOL0     H39103   6.567   9.841   9.256  0.6918  2.6075 -0.4809
  290MOL0     H39104   6.636  10.055   9.280 -3.6651 -2.1332 -1.1600
  290MOL0     H39105   6.811  10.001   9.279  0.4659 -1.0503 -1.0483
  290MOL0     H39106   6.621  10.076   9.068  0.0606 -1.2772 -1.8778
  290MOL0     H39107   6.707   9.913   9.044  1.7138 -0.2016 -0.0524
  290MOL0     H39108   6.838  10.185   9.109 -1.0446 -0.7751  1.3262
  290MOL0     H39109   6.811  10.137   8.944 -0.5855 -1.3302  0.0518
  290MOL0     H39110   6.834   9.960   8.808 -0.4749 -1.3589  0.2460
  290MOL0     H39111   6.938   9.869   8.613  0.8529  0.1581 -0.8117
  290MOL0     H39112   7.278   9.585   8.376 -0.3741  0.6739  0.8173
  290MOL0     H39113   7.508   9.582   8.275  1.7308  0.3595  1.3969
  290MOL0     H39114   7.717   9.617   8.209 -1.5498 -0.2114 -0.1019
  290MOL0     H39115   7.638   9.619   8.053 -0.4927  0.4098  0.3311
  290MOL0     H39116   7.900   9.736   8.124 -2.2050  0.3816  1.3920
  290MOL0     H39117   7.847   9.617   8.002  0.7485  0.7439  0.5288
  290MOL0     H39118   7.790   9.913   7.990 -0.5975 -2.0658  1.2744
  290MOL0     H39119   7.904   9.821   7.885  0.1375 -2.2239 -0.7198
  290MOL0     H39120   7.603   9.818   7.897 -0.4532 -1.3522 -0.5989
  290MOL0     H39121   7.691   9.678   7.841 -0.5544 -0.0968  0.7498
  290MOL0     H39122   7.799   9.846   7.669 -0.2081 -4.3986 -1.2330
  290MOL0     H39123   7.682   9.968   7.728 -0.5397 -1.0902  1.0088
  290MOL0     H39124   7.618   9.693   7.590 -0.5111 -1.2177  2.7701
  290MOL0     H39125   7.499   9.816   7.636  0.0196 -0.7548 -0.1267
  290MOL0     H39126   7.596   9.810   7.399 -0.6787  2.6292 -1.5392
  290MOL0     H39127   7.748   9.865   7.461  0.8091 -2.3622  1.6099
  290MOL0     H39128   7.466   9.996   7.495 -0.2547  1.9188  1.8198
  290MOL0     H39129   7.605  10.062   7.567 -1.1961 -0.6254  0.2730
  290MOL0     H39130   7.476  10.001   8.215  2.7190 -0.3113  2.7322
  290MOL0     H39131   7.263  10.007   8.349 -0.3934 -1.3414  1.2419
  290MOL0     H39132   7.299   9.812   8.848 -0.8253 -1.8968 -0.7259
  290MOL0     H39133   7.177   9.925   9.057 -1.2838  0.2042  0.7086
  290MOL0     H39134   6.923  10.590  10.041  0.1250  1.6686 -1.6112
  290MOL0     H39135   6.816  10.786  10.024 -0.8244  0.0666 -1.1112
  290MOL0     H39136   6.361  10.975  10.017  0.2959  0.3026  1.9172
  290MOL0     H39137   6.243  11.168   9.959  1.6536 -1.1694 -0.1964
  290MOL0     H39138   6.466  11.562   9.897 -0.1270 -1.2219 -0.7893
  290MOL0     H39139   6.377  11.571  10.046 -0.1205  2.7608  0.6148
  290MOL0     H39140   6.264  11.619   9.758 -0.0640 -0.2853  0.2591
  290MOL0     H39141   6.295  11.725   9.887 -0.6712  0.0616  0.0790
  290MOL0     H39142   6.134  11.545  10.016 -0.4389  1.3262  0.7161
  290MOL0     H39143   6.083  11.505   9.854 -3.4984  1.2534 -0.3621
  290MOL0     H39144   6.053  11.778   9.979 -1.7578 -1.2897  1.7157
  290MOL0     H39145   6.022  11.741   9.811 -2.3832  1.0838 -1.0452
  290MOL0     H39146   5.676  11.596  10.010  0.4387  2.2008  0.2530
  290MOL0     H39147   6.581  11.413  10.050 -0.8786  0.3684  1.1813
  290MOL0     H39148   6.732  11.230  10.245  3.8219 -3.4102  0.7853
  290MOL0     H39149   6.829  11.181  10.105 -0.1719  0.0417 -0.4968
  290MOL0     H39150   6.773  11.355  10.133 -1.1539  0.3681 -1.9261
  291MOL0     O39151   4.631  10.902   8.412 -0.5096 -1.1819 -0.3257
  291MOL0     C39152   4.629  11.026   8.431 -0.6228  0.1479 -0.5672
  291MOL0     O39153   4.572  11.123   8.363  0.4932  0.0959  0.0100
  291MOL0     C39154   4.514  11.092   8.246 -0.0193 -0.0884  0.9433
  291MOL0     C39155   4.381  11.051   8.238  0.1519  0.0396 -0.7763
  291MOL0     C39156   4.314  11.022   8.114 -0.1555 -0.9158  0.1229
  291MOL0     C39157   4.388  11.030   7.996  0.3558  0.4524 -0.0449
  291MOL0     O39158   4.328  11.021   7.873  0.0045 -0.0121  0.3322
  291MOL0     C39159   4.212  10.930   7.862 -0.6148 -0.8632  0.5093
  291MOL0     C39160   4.259  10.782   7.896  0.3766 -1.2215  0.2028
  291MOL0     C39161   4.156  10.694   7.826 -0.0374 -0.1718 -0.7042
  291MOL0     C39162   4.169  10.540   7.854 -0.4265 -0.2443 -0.1967
  291MOL0     C39163   4.091  10.452   7.760 -0.3946 -1.1552 -0.3841
  291MOL0     C39164   3.939  10.465   7.781  0.2708 -1.1831 -0.1631
  291MOL0     C39165   3.854  10.398   7.666  0.5231  0.0547  0.7439
  291MOL0     C39166   3.711  10.350   7.708 -0.1622 -0.0180 -0.1397
  291MOL0     N39167   3.626  10.451   7.779 -0.3815 -0.2311 -0.3205
  291MOL0     C39168   3.543  10.543   7.712  0.2640  0.1258 -0.1464
  291MOL0     C39169   3.491  10.621   7.807  0.2066 -1.1545  0.3693
  291MOL0     C39170   3.398  10.731   7.792 -0.1667 -1.1652 -0.0771
  291MOL0     C39171   3.257  10.653   7.798 -1.0334 -1.4620 -0.6083
  291MOL0     C39172   3.151  10.725   7.889  0.1883  1.2053  0.0326
  291MOL0     C39173   3.014  10.644   7.882 -0.8012 -0.1441 -0.8544
  291MOL0     O39174   3.027  10.507   7.937 -0.1805  0.8973  0.6659
  291MOL0     C39175   2.912  10.434   7.952 -0.9155  0.4150  0.0608
  291MOL0     C39176   2.785  10.473   7.913  0.6407  0.4355 -0.9862
  291MOL0     C39177   2.679  10.387   7.915  1.0745  0.1647 -0.6741
  291MOL0     C39178   2.695  10.255   7.942  0.3535  0.0876  0.0557
  291MOL0     C39179   2.581  10.162   7.935  0.7227  0.0847 -0.7472
  291MOL0     O39180   2.615  10.034   7.937 -0.2081 -0.4693 -0.6040
  291MOL0     C39181   2.530   9.942   7.888 -0.4692 -0.1056  0.1506
  291MOL0     C39182   2.566   9.798   7.916  0.3212 -0.1451  0.0640
  291MOL0     C39183   2.500   9.692   7.857  0.2213  0.8527  0.2338
  291MOL0     C39184   2.402   9.710   7.756 -0.1001 -0.1449 -0.3334
  291MOL0     O39185   2.335   9.613   7.700  0.4022  0.2388  0.5422
  291MOL0     C39186   2.392   9.477   7.689  0.0996 -0.8418 -0.8179
  291MOL0     C39187   2.275   9.387   7.638  0.1060  0.5116  0.0300
  291MOL0     C39188   2.153   9.389   7.734  0.7160 -0.7341  0.3926
  291MOL0     C39189   2.174   9.334   7.875  0.0069 -0.2610 -0.7429
  291MOL0     C39190   2.181   9.449   7.973 -0.1757 -0.4981 -0.1099
  291MOL0     C39191   2.229   9.410   8.110  0.1874 -0.0503 -0.4183
  291MOL0     C39192   2.180   9.503   8.220 -0.5154  0.0916 -0.2093
  291MOL0     C39193   2.044   9.458   8.266 -0.5733 -0.6860  0.3396
  291MOL0    Cl39194   2.055   9.296   8.311  0.3114 -0.1918  0.0166
  291MOL0     C39195   2.378   9.844   7.722 -0.6716  0.5039  0.2799
  291MOL0     C39196   2.442   9.959   7.783 -0.0907  0.3949  0.9721
  291MOL0     O39197   2.463  10.211   7.930  0.6159  0.5435  0.2486
  291MOL0     C39198   2.822  10.218   8.002  0.0016  0.5795  0.1223
  291MOL0     C39199   2.934  10.305   8.000  0.5269  0.4925  0.1348
  291MOL0     N39200   3.559  10.587   7.928  0.9310  0.6821  0.3553
  291MOL0     N39201   3.638  10.488   7.907 -0.6762 -0.1151  0.3340
  291MOL0     C39202   4.517  11.091   8.006 -0.1306 -0.1603 -0.3506
  291MOL0     C39203   4.587  11.114   8.132  0.0015  0.4818 -0.1056
  291MOL0     C39204   4.725  11.075   8.533 -0.5809  0.4161  0.5036
  291MOL0     C39205   4.857  11.100   8.488 -0.2442  0.3167 -0.0031
  291MOL0     C39206   4.938  11.178   8.570 -0.9936 -0.0765  0.0144
  291MOL0     C39207   4.905  11.214   8.697 -0.4410  0.0082 -0.8280
  291MOL0     O39208   4.996  11.282   8.783 -0.4043  1.2465  0.8572
  291MOL0     C39209   5.068  11.377   8.709 -0.6777  0.5035 -0.3927
  291MOL0     C39210   5.132  11.481   8.794 -0.0362  0.8496 -0.6764
  291MOL0     C39211   5.235  11.428   8.884  0.8391  0.1049 -0.2164
  291MOL0     C39212   5.282  11.532   8.976 -1.2457 -0.0640  0.3595
  291MOL0     C39213   5.360  11.481   9.089 -0.2933 -0.3309  0.6820
  291MOL0     C39214   5.428  11.437   9.183 -0.7134 -0.7340  0.0327
  291MOL0     C39215   4.780  11.183   8.745  0.7766  0.0558 -0.8794
  291MOL0     C39216   4.693  11.110   8.666  0.0123 -0.6163  0.0212
  291MOL0     C39217   4.544  11.096   8.708 -0.9175 -0.0438 -1.0429
  291MOL0     H39218   4.323  11.037   8.329 -1.5892 -0.2358 -1.8843
  291MOL0     H39219   4.208  11.001   8.123 -0.0385 -1.0696  1.3799
  291MOL0     H39220   4.132  10.959   7.931 -2.3485 -0.5776 -1.5468
  291MOL0     H39221   4.166  10.930   7.763  2.4367 -4.8451 -1.2137
  291MOL0     H39222   4.249  10.767   8.003 -4.3216 -0.4280  0.0904
  291MOL0     H39223   4.357  10.751   7.860  0.2689 -2.0743  0.6235
  291MOL0     H39224   4.150  10.695   7.717 -1.9373 -3.0664 -0.7415
  291MOL0     H39225   4.061  10.728   7.868 -1.7102 -1.6109 -3.0608
  291MOL0     H39226   4.273  10.511   7.834 -1.0105 -0.6070 -3.0353
  291MOL0     H39227   4.143  10.511   7.956 -0.2022 -1.0825 -0.3700
  291MOL0     H39228   4.118  10.462   7.655  0.5399 -0.5272 -0.0995
  291MOL0     H39229   4.123  10.349   7.783  1.5930 -0.2598  1.2742
  291MOL0     H39230   3.914  10.420   7.877  1.7725 -0.3298  0.6579
  291MOL0     H39231   3.900  10.567   7.791  0.0773 -1.3505  0.9569
  291MOL0     H39232   3.908  10.313   7.623  1.9172  2.4756 -2.7822
  291MOL0     H39233   3.831  10.463   7.582 -0.9740  0.3730  1.3823
  291MOL0     H39234   3.649  10.308   7.627 -1.2195  2.5883 -0.7821
  291MOL0     H39235   3.740  10.269   7.775  0.3142  1.0984  1.0300
  291MOL0     H39236   3.522  10.537   7.606 -0.0252  0.2401 -0.0987
  291MOL0     H39237   3.412  10.816   7.859  1.1789 -0.5505 -1.0945
  291MOL0     H39238   3.404  10.765   7.688 -2.3817  5.7279  1.5448
  291MOL0     H39239   3.215  10.627   7.700 -2.2852  0.2889 -0.5762
  291MOL0     H39240   3.269  10.551   7.837 -2.6389 -0.9009  1.5345
  291MOL0     H39241   3.138  10.831   7.867  2.4908  1.5730  0.1138
  291MOL0     H39242   3.185  10.720   7.993  1.8748  0.5604 -0.5144
  291MOL0     H39243   2.984  10.649   7.777  1.4812 -1.6795 -1.6617
  291MOL0     H39244   2.938  10.705   7.932 -1.5217 -1.1162 -0.7482
  291MOL0     H39245   2.751  10.571   7.881 -0.6992  0.7195  1.0837
  291MOL0     H39246   2.580  10.425   7.890  0.7242 -0.6490 -0.5441
  291MOL0     H39247   2.651   9.792   7.984 -0.5510 -0.3381  1.1545
  291MOL0     H39248   2.522   9.595   7.899  1.5977  0.1649 -1.9268
  291MOL0     H39249   2.473   9.491   7.617  2.2983 -0.6884  1.5499
  291MOL0     H39250   2.422   9.438   7.787 -0.3693  1.3053  0.2701
  291MOL0     H39251   2.244   9.419   7.538 -2.1615 -1.2896  0.0654
  291MOL0     H39252   2.316   9.286   7.636  1.2312  0.8832  2.0993
  291MOL0     H39253   2.128   9.495   7.743  0.9406 -0.5709 -0.8204
  291MOL0     H39254   2.065   9.335   7.696 -0.8620  2.6285 -1.0921
  291MOL0     H39255   2.270   9.284   7.860 -0.3396 -0.3595 -2.9301
  291MOL0     H39256   2.095   9.265   7.906 -2.0650  2.1046 -0.3708
  291MOL0     H39257   2.082   9.492   7.988  0.3806  0.3133  1.4374
  291MOL0     H39258   2.243   9.532   7.938 -0.0314 -0.2043  0.8101
  291MOL0     H39259   2.202   9.305   8.126  0.3010 -0.3253 -1.9176
  291MOL0     H39260   2.338   9.417   8.104  0.3920  0.8908  2.6619
  291MOL0     H39261   2.184   9.607   8.185  0.4986  0.0456 -0.2424
  291MOL0     H39262   2.242   9.491   8.309  1.5313  1.8877 -1.2908
  291MOL0     H39263   2.031   9.509   8.363 -2.3993 -3.1359  1.4752
  291MOL0     H39264   1.966   9.483   8.193 -0.2711  0.9406  0.5340
  291MOL0     H39265   2.308   9.872   7.644 -0.2804 -0.9509 -0.6363
  291MOL0     H39266   2.415  10.061   7.755  1.5073  1.3413  2.6957
  291MOL0     H39267   2.833  10.111   8.016  0.2085  0.6954  0.8432
  291MOL0     H39268   3.022  10.261   8.046  0.2588 -1.3644 -1.0639
  291MOL0     H39269   4.567  11.126   7.917 -0.3188 -0.9985 -0.7981
  291MOL0     H39270   4.688  11.154   8.134  0.3628 -0.4251  0.2938
  291MOL0     H39271   4.880  11.080   8.383  0.8861  3.1918 -0.3962
  291MOL0     H39272   5.039  11.200   8.537 -2.0591  1.0290 -2.7562
  291MOL0     H39273   4.991  11.428   8.650 -1.7590 -0.9828 -0.3351
  291MOL0     H39274   5.147  11.332   8.648  1.2854 -0.1736  2.4194
  291MOL0     H39275   5.051  11.521   8.855  0.3369 -0.4458  0.7775
  291MOL0     H39276   5.171  11.556   8.725  1.4285 -1.4892 -2.5481
  291MOL0     H39277   5.319  11.378   8.836 -1.0623 -2.9918 -0.5781
  291MOL0     H39278   5.179  11.352   8.939  0.4343 -0.5150 -1.4493
  291MOL0     H39279   5.349  11.605   8.930 -0.4499 -1.1764 -0.2942
  291MOL0     H39280   5.199  11.596   9.005 -1.7143 -0.6571  0.3366
  291MOL0     H39281   5.485  11.414   9.271 -0.5595  1.7849  0.6698
  291MOL0     H39282   4.756  11.201   8.849  0.5428 -2.6645 -0.3919
  291MOL0     H39283   4.536  11.059   8.811  0.0102 -0.9698 -1.2868
  291MOL0     H39284   4.484  11.187   8.695 -0.6691  0.5148  1.2525
  291MOL0     H39285   4.504  11.011   8.652  2.0951 -2.1904 -0.2046
  292MOL0     O39286   9.017  10.555   7.586 -0.0667  0.2536 -0.0218
  292MOL0     C39287   8.965  10.566   7.473 -0.0344  0.3732 -0.5720
  292MOL0     O39288   8.999  10.639   7.361 -0.4503 -0.3371 -1.0171
  292MOL0     C39289   9.120  10.701   7.377 -0.3758 -0.1906  0.1699
  292MOL0     C39290   9.119  10.834   7.388 -0.0887 -1.6140  0.1950
  292MOL0     C39291   9.240  10.896   7.420  0.0922 -0.1050 -0.3416
  292MOL0     C39292   9.364  10.833   7.438 -0.1704 -0.4053  0.5727
  292MOL0     O39293   9.465  10.915   7.477 -1.2274  0.4967  0.2138
  292MOL0     C39294   9.522  10.882   7.601 -0.5944 -0.4181  0.1080
  292MOL0     C39295   9.659  10.930   7.612 -0.2027 -0.3340  0.2044
  292MOL0     C39296   9.738  10.921   7.476  0.4886 -0.3615  0.3480
  292MOL0     C39297   9.743  10.775   7.425 -0.1232  0.7481 -0.6203
  292MOL0     C39298   9.880  10.742   7.360 -0.5816 -0.3679 -0.3551
  292MOL0     C39299   9.904  10.596   7.321  0.6293 -0.1507  0.0982
  292MOL0     C39300  10.041  10.537   7.355 -0.1095  0.4835  0.5971
  292MOL0     C39301  10.038  10.382   7.326  0.5200  0.7729 -0.3551
  292MOL0     N39302  10.176  10.318   7.318  0.1939  0.2798 -0.3507
  292MOL0     C39303  10.277  10.335   7.221 -0.6824 -0.2218  0.1263
  292MOL0     C39304  10.380  10.257   7.258  0.0999  0.3724 -0.7522
  292MOL0     C39305  10.514  10.250   7.202 -0.9263  0.4549  0.6033
  292MOL0     C39306  10.521  10.140   7.095  0.0806 -0.7567 -0.1529
  292MOL0     C39307  10.660  10.111   7.049 -0.0926  0.6716 -0.4683
  292MOL0     C39308  10.677   9.977   6.990  0.2312 -0.5423 -0.6636
  292MOL0     O39309  10.791   9.968   6.906 -0.4024  0.1482  0.0201
  292MOL0     C39310  10.777  10.020   6.779  0.0435  0.2692  0.0501
  292MOL0     C39311  10.894  10.014   6.701  0.6215 -0.5234  0.3320
  292MOL0     C39312  10.881  10.048   6.564 -0.1002 -0.2061 -0.7698
  292MOL0     C39313  10.764  10.097   6.505 -0.0327 -0.1711 -0.0936
  292MOL0     C39314  10.772  10.149   6.371  0.2833 -1.0125  0.5399
  292MOL0     O39315  10.892  10.157   6.309  0.4542  0.4434 -0.1599
  292MOL0     C39316  10.903  10.193   6.177  0.2403 -0.2495  0.8275
  292MOL0     C39317  11.010  10.283   6.155 -0.1791  0.0495  0.0924
  292MOL0     C39318  11.018  10.360   6.035  0.4946 -0.5079  0.7767
  292MOL0     C39319  10.907  10.342   5.940 -0.1414 -0.6018 -0.1533
  292MOL0     O39320  10.884  10.411   5.823 -0.3994 -0.0442 -0.6082
  292MOL0     C39321  10.978  10.512   5.784 -0.4617 -0.6589  0.0553
  292MOL0     C39322  11.092  10.453   5.693  0.5923  0.1138  0.8523
  292MOL0     C39323  11.137  10.557   5.602 -0.6297 -0.7641 -0.0237
  292MOL0     C39324  11.056  10.580   5.473 -0.7907 -0.2343  0.5482
  292MOL0     C39325  11.080  10.722   5.414 -1.1566  0.6420 -0.5685
  292MOL0     C39326  11.217  10.723   5.362 -0.2477  1.3017  0.0027
  292MOL0     C39327  11.251  10.855   5.283  0.6416  0.3803  0.3016
  292MOL0     C39328  11.182  10.874   5.151 -0.1594  1.1265 -0.1453
  292MOL0    Cl39329  11.237  11.038   5.084  0.0260 -0.5619 -0.1101
  292MOL0     C39330  10.804  10.241   5.962 -0.7555  0.6031  0.1197
  292MOL0     C39331  10.803  10.170   6.076 -0.4782 -0.7491 -0.9852
  292MOL0     O39332  10.665  10.205   6.327  0.1329  0.9009 -0.4412
  292MOL0     C39333  10.651  10.113   6.592 -0.9059  0.6153  0.1687
  292MOL0     C39334  10.655  10.067   6.724  0.1342 -0.1102 -0.5620
  292MOL0     N39335  10.346  10.203   7.374 -0.3671  0.8409 -0.7079
  292MOL0     N39336  10.226  10.236   7.416  0.3819 -0.1777  0.0331
  292MOL0     C39337   9.366  10.697   7.405 -0.9582  0.5108 -0.6699
  292MOL0     C39338   9.247  10.631   7.371  0.3845  0.4363 -0.1478
  292MOL0     C39339   8.837  10.495   7.448  1.1371  0.1601 -0.1500
  292MOL0     C39340   8.831  10.408   7.339  0.0948  0.6129 -0.1719
  292MOL0     C39341   8.712  10.341   7.307  0.1833 -0.4703  0.4749
  292MOL0     C39342   8.594  10.362   7.370  0.2074 -0.3664  0.0982
  292MOL0     O39343   8.475  10.300   7.334  0.2925  0.7286 -0.2561
  292MOL0     C39344   8.478  10.192   7.237  0.0054  0.9684 -0.5775
  292MOL0     C39345   8.433  10.241   7.099 -0.1764  0.2837  0.6478
  292MOL0     C39346   8.442  10.133   6.981  0.3632 -0.1963 -0.2121
  292MOL0     C39347   8.586  10.145   6.920  0.5406 -0.1830 -0.1243
  292MOL0     C39348   8.592  10.276   6.848  0.0122 -0.2683  0.4032
  292MOL0     C39349   8.615  10.386   6.794 -0.0692  0.6220  0.7460
  292MOL0     C39350   8.599  10.446   7.482  0.2156  0.0232  0.1738
  292MOL0     C39351   8.715  10.514   7.523  0.0673  0.1400  0.2503
  292MOL0     C39352   8.702  10.607   7.643  0.2077 -0.2661 -0.4933
  292MOL0     H39353   9.029  10.893   7.379 -0.0801 -1.5449  0.5406
  292MOL0     H39354   9.240  11.001   7.448 -1.3851 -0.0438 -0.5036
  292MOL0     H39355   9.467  10.925   7.685 -0.3838 -0.4800  0.2789
  292MOL0     H39356   9.517  10.775   7.624 -1.9904 -0.5810 -0.8416
  292MOL0     H39357   9.707  10.888   7.701 -1.9704  2.7643  2.8773
  292MOL0     H39358   9.654  11.036   7.639  0.8733 -1.1036  4.1525
  292MOL0     H39359   9.834  10.958   7.515 -0.7016  1.6719  1.4959
  292MOL0     H39360   9.696  10.991   7.403 -1.4132 -3.8032 -2.1086
  292MOL0     H39361   9.739  10.715   7.516 -0.3003  2.1702  0.3522
  292MOL0     H39362   9.658  10.748   7.362  0.6568 -0.8031 -1.0391
  292MOL0     H39363   9.891  10.815   7.280 -0.2778  0.9493  0.8576
  292MOL0     H39364   9.954  10.772   7.434 -0.5844 -0.1058 -0.4585
  292MOL0     H39365   9.832  10.537   7.379  0.9905  1.7809  2.6523
  292MOL0     H39366   9.890  10.582   7.213  1.0999 -0.8737  0.1271
  292MOL0     H39367  10.080  10.568   7.452  1.6667 -0.0446  0.0947
  292MOL0     H39368  10.109  10.571   7.276  0.5855  0.3972  1.1469
  292MOL0     H39369   9.987  10.351   7.417 -0.1106 -0.7154 -1.1735
  292MOL0     H39370   9.988  10.363   7.231 -1.4874  3.4667  0.0296
  292MOL0     H39371  10.280  10.394   7.130  1.0550  1.0089  0.9287
  292MOL0     H39372  10.538  10.346   7.154 -2.5741 -0.0039 -1.2673
  292MOL0     H39373  10.583  10.235   7.285 -0.5662 -2.0960 -0.0768
  292MOL0     H39374  10.475  10.054   7.144 -1.0483  0.4305  0.9786
  292MOL0     H39375  10.460  10.170   7.008 -0.1272 -0.5968  0.0458
  292MOL0     H39376  10.723  10.120   7.138  0.2866  0.4954 -0.7140
  292MOL0     H39377  10.700  10.187   6.981  6.4830 -0.0761  1.8263
  292MOL0     H39378  10.587   9.952   6.933 -0.9762  2.5074 -0.2564
  292MOL0     H39379  10.690   9.909   7.075  1.0479  0.3217 -0.0671
  292MOL0     H39380  10.989   9.974   6.735  0.7145  0.0484  0.7481
  292MOL0     H39381  10.963  10.021   6.499 -1.2685 -4.7612 -0.7257
  292MOL0     H39382  11.083  10.313   6.231 -0.0884  3.0872 -1.0345
  292MOL0     H39383  11.092  10.438   6.021 -0.9395  0.9266  0.8218
  292MOL0     H39384  10.912  10.573   5.720 -1.9302 -2.4083 -0.1688
  292MOL0     H39385  11.014  10.573   5.867 -0.5310 -0.2931 -0.1786
  292MOL0     H39386  11.170  10.411   5.757  0.7780 -1.6851 -0.4829
  292MOL0     H39387  11.056  10.364   5.640  1.8072  1.5316 -2.6415
  292MOL0     H39388  11.146  10.646   5.664  0.2170  0.2193 -1.4912
  292MOL0     H39389  11.238  10.530   5.570  0.6407  0.0891  2.9314
  292MOL0     H39390  10.948  10.572   5.482 -1.0663 -0.3394 -2.1749
  292MOL0     H39391  11.092  10.509   5.398  0.7118  0.4188  0.6144
  292MOL0     H39392  11.070  10.793   5.497 -1.7499 -1.1310  0.9410
  292MOL0     H39393  11.013  10.745   5.330 -0.4816 -0.9625 -1.5881
  292MOL0     H39394  11.287  10.695   5.442 -0.2873  1.5365  0.1212
  292MOL0     H39395  11.236  10.640   5.294  0.2562  0.0382  1.6244
  292MOL0     H39396  11.360  10.870   5.282  0.7691 -0.2919  1.5540
  292MOL0     H39397  11.218  10.932   5.352  2.8511  1.2555  0.4684
  292MOL0     H39398  11.221  10.791   5.093  0.3680 -1.3519  3.4340
  292MOL0     H39399  11.073  10.861   5.148 -0.2663  2.1556 -1.9653
  292MOL0     H39400  10.723  10.211   5.896  0.3555 -2.5730 -0.0093
  292MOL0     H39401  10.726  10.101   6.110 -1.5271  1.1336  0.6831
  292MOL0     H39402  10.550  10.138   6.559 -0.9537 -0.7937 -0.8812
  292MOL0     H39403  10.561  10.061   6.777 -0.0803 -3.6048 -1.0870
  292MOL0     H39404   9.462  10.647   7.406 -0.7023  0.9580 -1.8873
  292MOL0     H39405   9.251  10.525   7.351  2.3197 -0.1991  3.0568
  292MOL0     H39406   8.918  10.380   7.280  2.9998 -0.0945  4.0559
  292MOL0     H39407   8.721  10.289   7.212 -2.4244  0.9646 -0.6615
  292MOL0     H39408   8.413  10.118   7.286  0.5522 -0.9912 -2.6343
  292MOL0     H39409   8.574  10.141   7.227  0.0594  0.4594  1.7696
  292MOL0     H39410   8.483  10.332   7.065  0.7978 -1.0090 -1.6387
  292MOL0     H39411   8.329  10.271   7.118 -0.9296 -2.8363  2.1186
  292MOL0     H39412   8.365  10.133   6.903  2.3832 -3.5136 -2.5041
  292MOL0     H39413   8.427  10.037   7.031  0.4768  1.2074  2.6574
  292MOL0     H39414   8.665  10.130   6.994  0.7304 -0.1051 -0.3117
  292MOL0     H39415   8.613  10.068   6.847  5.1902 -0.1436  1.2866
  292MOL0     H39416   8.626  10.481   6.745 -1.2190  1.0086  1.2007
  292MOL0     H39417   8.509  10.439   7.542 -0.7878 -0.3510 -1.3285
  292MOL0     H39418   8.796  10.610   7.699 -0.6268 -3.2375  1.2835
  292MOL0     H39419   8.673  10.708   7.613  6.0815  1.6893 -0.8825
  292MOL0     H39420   8.618  10.570   7.703  2.0135 -0.6544  1.9545
  293MOL0     O39421   1.221   1.488   6.501  0.7639  0.2387  0.0704
  293MOL0     C39422   1.218   1.587   6.570 -0.4032 -0.4593  0.0150
  293MOL0     O39423   1.198   1.717   6.524 -0.6184  0.0056  0.8111
  293MOL0     C39424   1.192   1.740   6.388 -0.6722  0.1921  0.9221
  293MOL0     C39425   1.286   1.829   6.329  0.4911  0.0756  1.5237
  293MOL0     C39426   1.284   1.854   6.191  0.4226 -0.2540  0.9119
  293MOL0     C39427   1.188   1.792   6.107  0.3288  0.4182 -0.5036
  293MOL0     O39428   1.209   1.809   5.973  0.3623 -0.7031 -0.6076
  293MOL0     C39429   1.093   1.809   5.893  0.4121  0.1548 -0.1358
  293MOL0     C39430   1.098   1.926   5.801 -0.1331 -0.2019  0.6486
  293MOL0     C39431   0.968   1.944   5.724  2.1658 -0.0735 -0.2405
  293MOL0     C39432   0.991   2.049   5.617 -0.5341  0.0447 -0.3484
  293MOL0     C39433   0.881   2.072   5.518  1.1305  0.4574 -0.2186
  293MOL0     C39434   0.892   2.197   5.429  0.3468  0.6067  0.1192
  293MOL0     C39435   0.849   2.162   5.290 -0.1743  0.0107  0.0254
  293MOL0     C39436   0.810   2.285   5.206 -0.5752  0.3789 -0.3249
  293MOL0     N39437   0.919   2.380   5.180  0.0327  0.3529  0.7628
  293MOL0     C39438   0.935   2.497   5.247 -0.8039  0.3455 -0.6018
  293MOL0     C39439   1.033   2.567   5.182 -0.4072  0.3821  0.5142
  293MOL0     C39440   1.090   2.701   5.210 -0.5530  0.6212 -1.2000
  293MOL0     C39441   1.012   2.818   5.159  0.4229 -0.1590 -0.5116
  293MOL0     C39442   1.032   2.837   5.009  0.3697  0.1396  0.2465
  293MOL0     C39443   1.149   2.941   4.981  0.5500 -0.1374  0.5226
  293MOL0     O39444   1.129   2.972   4.842  0.5674  0.2059 -0.0384
  293MOL0     C39445   1.194   2.904   4.738 -0.4557  0.0220  0.6263
  293MOL0     C39446   1.122   2.914   4.622  0.0968 -0.0469  1.1703
  293MOL0     C39447   1.165   2.849   4.505 -0.1103  0.8794 -0.0110
  293MOL0     C39448   1.277   2.767   4.512  0.5667  0.9445 -0.3218
  293MOL0     C39449   1.311   2.686   4.394  0.6261 -0.2227  0.2589
  293MOL0     O39450   1.397   2.590   4.418 -0.3573 -0.6661  0.0478
  293MOL0     C39451   1.462   2.521   4.326 -0.5086 -0.2232  0.0663
  293MOL0     C39452   1.551   2.418   4.376 -0.3667  0.3734  0.5112
  293MOL0     C39453   1.621   2.336   4.289 -0.2028  0.0002  0.5742
  293MOL0     C39454   1.595   2.344   4.154 -0.0570  0.4176  0.0409
  293MOL0     O39455   1.672   2.269   4.071  0.8416  0.3336 -0.6497
  293MOL0     C39456   1.766   2.345   3.983  1.0974  0.2902 -0.4698
  293MOL0     C39457   1.902   2.311   4.035 -0.1353  0.1715  0.2648
  293MOL0     C39458   2.007   2.353   3.933 -0.3815 -0.3228 -0.4063
  293MOL0     C39459   2.142   2.291   3.947 -0.7817 -0.0726  0.6364
  293MOL0     C39460   2.232   2.309   4.072  0.3554 -0.3117 -0.2832
  293MOL0     C39461   2.378   2.270   4.055 -0.1774  0.0102 -0.5036
  293MOL0     C39462   2.433   2.231   4.189  0.5686  0.4599  0.5924
  293MOL0     C39463   2.576   2.183   4.178 -0.2401  0.1162 -0.3168
  293MOL0    Cl39464   2.647   2.220   4.331 -0.0602  0.2032  0.0876
  293MOL0     C39465   1.517   2.449   4.103  0.3598 -0.7973 -0.0148
  293MOL0     C39466   1.437   2.523   4.186  0.0608  0.0509 -0.8577
  293MOL0     O39467   1.269   2.728   4.278 -0.6266  0.2632 -0.3158
  293MOL0     C39468   1.359   2.767   4.625  0.8262  0.0063  0.4821
  293MOL0     C39469   1.312   2.828   4.747 -0.3337  0.3338  1.1143
  293MOL0     N39470   1.073   2.484   5.079 -0.2984 -0.8395  0.9858
  293MOL0     N39471   1.005   2.378   5.075 -0.2883 -0.0376  1.3867
  293MOL0     C39472   1.088   1.710   6.166  0.3232 -0.4007  0.1160
  293MOL0     C39473   1.088   1.684   6.305  0.1298  0.4198  0.1551
  293MOL0     C39474   1.210   1.581   6.719 -1.0114  0.4997 -1.4459
  293MOL0     C39475   1.142   1.680   6.785  0.5289 -0.2388  0.7276
  293MOL0     C39476   1.120   1.685   6.919 -0.4807  0.3342 -0.9415
  293MOL0     C39477   1.166   1.581   7.003 -0.7331  1.0672  0.0926
  293MOL0     O39478   1.133   1.599   7.129  0.0727  0.2888 -0.9740
  293MOL0     C39479   1.249   1.607   7.220  0.2658  0.5436  0.1889
  293MOL0     C39480   1.218   1.691   7.342 -0.7503  0.6761 -0.4759
  293MOL0     C39481   1.112   1.626   7.428  0.0704  0.5618 -0.0560
  293MOL0     C39482   1.067   1.706   7.552  0.4919 -0.1719  0.4998
  293MOL0     C39483   1.175   1.774   7.621 -0.0371 -0.5848  0.1563
  293MOL0     C39484   1.264   1.827   7.694  0.5008 -0.9072 -0.2697
  293MOL0     C39485   1.239   1.478   6.946 -0.0815  0.0441  0.1593
  293MOL0     C39486   1.259   1.468   6.803  0.8020  0.2173 -0.6336
  293MOL0     C39487   1.335   1.346   6.746 -0.2062  0.3625  0.2356
  293MOL0     H39488   1.355   1.878   6.397  1.6333 -0.1489  0.5547
  293MOL0     H39489   1.363   1.915   6.148 -1.4112  0.9979 -0.8753
  293MOL0     H39490   1.074   1.719   5.835 -1.3134 -0.2131  0.9165
  293MOL0     H39491   0.999   1.836   5.942  2.0213  2.5536  1.9651
  293MOL0     H39492   1.176   1.907   5.728 -1.5400  3.3597 -2.0728
  293MOL0     H39493   1.120   2.019   5.854  1.3950  0.4343 -1.0275
  293MOL0     H39494   0.884   1.973   5.788  1.4714 -2.9929  0.3083
  293MOL0     H39495   0.947   1.844   5.686  0.0233 -0.4785  1.7413
  293MOL0     H39496   1.015   2.145   5.664 -0.0994  1.2203 -2.7822
  293MOL0     H39497   1.079   2.018   5.559 -0.8982 -1.9107  0.0908
  293MOL0     H39498   0.890   1.985   5.452  3.3371  0.8057 -0.4486
  293MOL0     H39499   0.782   2.071   5.566 -0.8292 -2.9846 -3.7621
  293MOL0     H39500   0.824   2.277   5.458 -1.4201 -0.5259 -0.6971
  293MOL0     H39501   0.996   2.233   5.430  0.8187 -0.6683 -0.1453
  293MOL0     H39502   0.763   2.095   5.296 -2.0318  2.3502  0.7708
  293MOL0     H39503   0.933   2.109   5.244  0.4060 -1.1037  2.2083
  293MOL0     H39504   0.775   2.270   5.103  1.8352  1.7375 -1.4183
  293MOL0     H39505   0.727   2.338   5.255 -1.6072 -2.1589  0.8363
  293MOL0     H39506   0.881   2.538   5.331 -1.5353  2.0917 -1.8691
  293MOL0     H39507   1.086   2.695   5.319  0.6897 -1.3957 -1.2257
  293MOL0     H39508   1.198   2.708   5.198 -0.0243 -3.1452 -0.0058
  293MOL0     H39509   0.910   2.792   5.189  0.4128 -0.6665 -0.9680
  293MOL0     H39510   1.048   2.906   5.213  4.1741 -0.9720 -1.4555
  293MOL0     H39511   0.943   2.885   4.965  0.5370 -1.1839 -1.6606
  293MOL0     H39512   1.059   2.740   4.967  0.4808  0.4297 -0.3606
  293MOL0     H39513   1.250   2.903   4.997  0.2001 -2.2320 -1.5927
  293MOL0     H39514   1.138   3.032   5.041  2.1668  1.1924 -1.0896
  293MOL0     H39515   1.043   2.987   4.629  2.3875  2.5633  1.4440
  293MOL0     H39516   1.107   2.855   4.414 -1.7982 -1.7305  0.7711
  293MOL0     H39517   1.566   2.405   4.483 -1.0694  2.5671  0.9169
  293MOL0     H39518   1.690   2.261   4.328 -0.6139 -0.0682  1.1826
  293MOL0     H39519   1.745   2.316   3.880  1.6479 -1.6497 -0.0773
  293MOL0     H39520   1.750   2.453   3.988 -3.3102 -0.2026  1.1528
  293MOL0     H39521   1.924   2.346   4.136 -1.2823 -3.1153  1.8042
  293MOL0     H39522   1.907   2.202   4.043 -0.6186  0.1773  0.6797
  293MOL0     H39523   1.967   2.328   3.835 -0.3690  0.2947 -0.5708
  293MOL0     H39524   2.025   2.461   3.937  0.8199 -0.5409  2.4768
  293MOL0     H39525   2.205   2.327   3.865 -3.6446  0.8391 -1.3012
  293MOL0     H39526   2.133   2.185   3.921 -3.7288  0.7672 -2.6866
  293MOL0     H39527   2.180   2.263   4.156  2.0258  1.2410  1.6961
  293MOL0     H39528   2.224   2.410   4.112  4.2524 -1.3088  3.8718
  293MOL0     H39529   2.384   2.193   3.977 -1.7393  2.1160 -2.8551
  293MOL0     H39530   2.435   2.353   4.012 -1.1954  0.5597 -0.8185
  293MOL0     H39531   2.372   2.143   4.212 -1.2624  1.0267 -1.6433
  293MOL0     H39532   2.420   2.315   4.257  1.7032  1.6745 -0.6131
  293MOL0     H39533   2.582   2.078   4.149  0.2534  0.3313 -1.0368
  293MOL0     H39534   2.617   2.247   4.099 -1.6154  0.0774 -1.0942
  293MOL0     H39535   1.530   2.461   3.996 -0.4418 -2.7179 -0.3609
  293MOL0     H39536   1.386   2.603   4.132  1.6341 -1.0884 -4.3586
  293MOL0     H39537   1.455   2.718   4.619  0.7758 -0.0937  0.4831
  293MOL0     H39538   1.373   2.824   4.837  1.4045  0.9840  0.0234
  293MOL0     H39539   1.011   1.658   6.111 -0.1344  0.8818 -0.5072
  293MOL0     H39540   1.018   1.613   6.349  1.0314 -0.8879 -0.4476
  293MOL0     H39541   1.097   1.766   6.737 -0.3501 -1.5797 -0.9616
  293MOL0     H39542   1.072   1.763   6.976  5.4057  1.9622  2.7313
  293MOL0     H39543   1.329   1.663   7.170 -3.2219  3.0725 -3.1611
  293MOL0     H39544   1.278   1.506   7.251  1.2589  0.7755  0.0537
  293MOL0     H39545   1.182   1.784   7.298  2.2650  2.3361  0.3052
  293MOL0     H39546   1.312   1.702   7.396  0.9711  2.6394 -3.5492
  293MOL0     H39547   1.152   1.537   7.476 -0.4013  0.5144  0.2513
  293MOL0     H39548   1.031   1.591   7.363 -0.2122 -1.9112  1.5049
  293MOL0     H39549   0.994   1.785   7.531  0.3712  0.7158  3.7634
  293MOL0     H39550   1.035   1.633   7.627  1.6441  0.2448  1.4250
  293MOL0     H39551   1.335   1.867   7.763 -0.7918  3.2703 -1.0910
  293MOL0     H39552   1.276   1.405   7.017 -0.8243 -2.2873 -1.7064
  293MOL0     H39553   1.392   1.381   6.659  0.7288  1.3203  1.2004
  293MOL0     H39554   1.398   1.306   6.825 -0.9904 -2.7363 -0.5816
  293MOL0     H39555   1.262   1.271   6.713  0.4364 -0.3773  0.4753
  294MOL0     O39556   6.176   4.223   7.448  0.1713  0.1401 -0.8311
  294MOL0     C39557   6.060   4.260   7.477 -0.3287 -0.3297  0.6901
  294MOL0     O39558   6.004   4.256   7.594  0.3095 -0.0533  0.7717
  294MOL0     C39559   6.057   4.183   7.692  0.7982 -0.3786 -0.1134
  294MOL0     C39560   6.017   4.049   7.712 -0.4696 -0.2764  0.6662
  294MOL0     C39561   6.053   3.983   7.823  0.9032 -0.1868 -0.2274
  294MOL0     C39562   6.137   4.046   7.921 -0.3325  0.4258  0.3141
  294MOL0     O39563   6.180   3.980   8.036  0.3976  0.0139 -0.0034
  294MOL0     C39564   6.229   3.848   8.010  0.1816 -1.1639 -0.5189
  294MOL0     C39565   6.179   3.758   8.121  1.1753  0.1248 -0.0177
  294MOL0     C39566   6.040   3.699   8.089  0.2041  0.1670  0.0211
  294MOL0     C39567   6.011   3.570   8.181 -0.0191 -0.1831  0.7818
  294MOL0     C39568   5.900   3.493   8.110  0.3649  0.0266  0.5372
  294MOL0     C39569   5.756   3.561   8.103 -0.4298  0.3437 -0.5953
  294MOL0     C39570   5.657   3.464   8.052  0.2110  0.6691  0.6558
  294MOL0     C39571   5.521   3.531   8.045 -0.3839 -1.0402  0.1473
  294MOL0     N39572   5.513   3.645   7.950  0.8096 -0.0286  0.6100
  294MOL0     C39573   5.469   3.629   7.820 -0.3140 -0.4163 -0.7006
  294MOL0     C39574   5.452   3.760   7.775  1.3778  1.1036  0.6819
  294MOL0     C39575   5.392   3.780   7.640 -1.2676 -0.3181 -0.1807
  294MOL0     C39576   5.236   3.770   7.634 -0.6251 -0.4313 -0.1652
  294MOL0     C39577   5.159   3.870   7.713  0.0727  0.5591 -0.0287
  294MOL0     C39578   5.010   3.852   7.717 -0.4513 -0.8817  0.0841
  294MOL0     O39579   4.960   3.886   7.584 -0.9827 -0.2689 -0.2760
  294MOL0     C39580   4.830   3.871   7.571 -0.0734 -0.1378  0.4227
  294MOL0     C39581   4.727   3.862   7.670  0.9243 -1.1350  0.3413
  294MOL0     C39582   4.585   3.849   7.645 -1.4262 -0.2390 -0.7661
  294MOL0     C39583   4.550   3.846   7.506 -0.2236 -0.9815  0.4268
  294MOL0     C39584   4.413   3.843   7.472 -0.1588  0.4704  0.0201
  294MOL0     O39585   4.369   3.790   7.346  0.1265 -0.3230  0.1449
  294MOL0     C39586   4.232   3.802   7.318  0.0947 -0.9516 -0.8496
  294MOL0     C39587   4.185   3.915   7.245  0.8126 -1.3872  0.7606
  294MOL0     C39588   4.049   3.925   7.206 -0.5310 -0.6178  0.4469
  294MOL0     C39589   3.967   3.829   7.260  0.0762  0.6063  0.2172
  294MOL0     O39590   3.831   3.841   7.234  0.0004  0.4131 -0.2300
  294MOL0     C39591   3.772   3.730   7.164  0.9525 -0.1183 -0.0807
  294MOL0     C39592   3.622   3.726   7.194 -0.3053 -0.1821 -0.8741
  294MOL0     C39593   3.596   3.679   7.336 -0.2565 -0.8698  1.3315
  294MOL0     C39594   3.448   3.643   7.345  0.6648  0.7108  0.2149
  294MOL0     C39595   3.414   3.543   7.468 -0.0565 -0.8308 -0.0454
  294MOL0     C39596   3.284   3.473   7.435 -0.1885 -0.1395 -0.0610
  294MOL0     C39597   3.241   3.369   7.535  0.9114 -0.3813 -0.1182
  294MOL0     C39598   3.225   3.425   7.677 -0.2740 -0.3433 -0.6306
  294MOL0    Cl39599   3.081   3.522   7.689  0.2381 -0.4104  0.3302
  294MOL0     C39600   4.005   3.719   7.332  0.4126 -0.5050 -0.5077
  294MOL0     C39601   4.142   3.705   7.355  0.5370 -0.4077  0.4010
  294MOL0     O39602   4.341   3.882   7.560  0.2455  0.1538 -0.0710
  294MOL0     C39603   4.648   3.864   7.403  0.3916 -0.7343  0.0924
  294MOL0     C39604   4.777   3.873   7.436 -0.7519 -0.9067 -1.3780
  294MOL0     N39605   5.481   3.850   7.871 -0.5768  0.3748  0.2626
  294MOL0     N39606   5.508   3.785   7.973 -0.2670  0.4973 -0.5483
  294MOL0     C39607   6.169   4.178   7.917  0.6055 -0.1042 -0.6922
  294MOL0     C39608   6.124   4.246   7.796 -0.3073  0.2313 -0.1464
  294MOL0     C39609   5.987   4.321   7.361  0.1579  0.2531 -0.0786
  294MOL0     C39610   6.062   4.372   7.258 -0.2468 -0.3915 -0.1017
  294MOL0     C39611   6.001   4.436   7.145  0.3202 -0.1989  0.1229
  294MOL0     C39612   5.865   4.436   7.126  0.7216 -0.3062 -0.2019
  294MOL0     O39613   5.818   4.481   7.006 -0.5016  0.0423 -0.0056
  294MOL0     C39614   5.678   4.474   6.972 -0.3140  0.1390 -0.3515
  294MOL0     C39615   5.615   4.606   7.028  1.1955  0.1124 -0.4539
  294MOL0     C39616   5.466   4.624   6.999  0.4876 -0.2730  0.5004
  294MOL0     C39617   5.374   4.530   7.079  0.2424  0.5050 -0.7271
  294MOL0     C39618   5.350   4.593   7.209 -0.2356  0.5993  0.3484
  294MOL0     C39619   5.345   4.626   7.327  0.3233 -0.7212 -0.0312
  294MOL0     C39620   5.788   4.393   7.232  0.8125 -0.2240  0.5246
  294MOL0     C39621   5.846   4.332   7.343  1.1307  0.3419 -0.6646
  294MOL0     C39622   5.752   4.272   7.452  0.0772 -0.6891 -0.3670
  294MOL0     H39623   5.983   3.987   7.629  2.6524  0.8251 -1.6282
  294MOL0     H39624   6.019   3.881   7.836 -4.2264  1.3040  0.4450
  294MOL0     H39625   6.217   3.803   7.911 -1.5931 -3.2034  0.5454
  294MOL0     H39626   6.338   3.854   8.013  0.4778  1.8391 -5.3170
  294MOL0     H39627   6.179   3.810   8.217  0.0209 -0.9586  0.5945
  294MOL0     H39628   6.245   3.671   8.127  0.2411 -1.3025 -5.1636
  294MOL0     H39629   6.037   3.668   7.985 -1.3665  0.4660 -0.0404
  294MOL0     H39630   5.960   3.772   8.104 -1.5882 -1.6409 -0.2853
  294MOL0     H39631   6.096   3.502   8.186 -1.3934 -1.9659  0.9317
  294MOL0     H39632   5.975   3.609   8.277 -2.1767 -0.5009  0.1562
  294MOL0     H39633   5.929   3.481   8.006 -3.7455  1.7773 -1.0350
  294MOL0     H39634   5.878   3.394   8.150 -1.3585 -0.1459 -0.7394
  294MOL0     H39635   5.734   3.594   8.205 -0.8393 -0.6687 -0.3437
  294MOL0     H39636   5.761   3.652   8.042  0.6882  1.6319  1.2664
  294MOL0     H39637   5.652   3.380   8.121  1.0570  0.2882  0.2665
  294MOL0     H39638   5.699   3.427   7.958  0.3676  1.3411  0.4559
  294MOL0     H39639   5.449   3.455   8.014 -0.2091  0.2297 -3.9004
  294MOL0     H39640   5.490   3.565   8.144  0.1184 -0.8779  0.2525
  294MOL0     H39641   5.434   3.544   7.761 -0.9071 -2.1193  1.9554
  294MOL0     H39642   5.431   3.877   7.608  0.6605 -0.4484  1.5161
  294MOL0     H39643   5.426   3.690   7.587 -0.2662  0.5214 -0.9857
  294MOL0     H39644   5.194   3.775   7.533 -2.6781  0.4315  0.6871
  294MOL0     H39645   5.220   3.670   7.677  2.8539 -0.5896  1.0690
  294MOL0     H39646   5.169   3.972   7.674 -4.8791  1.7259  1.1749
  294MOL0     H39647   5.193   3.889   7.815 -0.6750  2.4059 -0.0863
  294MOL0     H39648   4.960   3.912   7.794 -1.5455 -1.6363 -0.0149
  294MOL0     H39649   4.998   3.747   7.745  4.5203 -2.6225 -2.9873
  294MOL0     H39650   4.736   3.861   7.778 -2.5107 -0.6895  0.7700
  294MOL0     H39651   4.509   3.833   7.721  1.9383  0.4072  3.0981
  294MOL0     H39652   4.255   3.987   7.205  1.0302 -2.7285 -1.4618
  294MOL0     H39653   4.012   4.011   7.151  1.5466  1.5824  2.1979
  294MOL0     H39654   3.778   3.750   7.056  1.3105 -2.7728 -0.6421
  294MOL0     H39655   3.818   3.632   7.182  1.0804 -0.0956 -0.2786
  294MOL0     H39656   3.557   3.809   7.166  0.7913 -0.2390 -3.9473
  294MOL0     H39657   3.582   3.657   7.120  3.6289 -3.0168 -0.7012
  294MOL0     H39658   3.660   3.594   7.360  0.1751 -0.6468  1.0063
  294MOL0     H39659   3.623   3.756   7.409  1.8485 -0.5015  0.2645
  294MOL0     H39660   3.434   3.601   7.245  1.8205 -0.1407  0.3917
  294MOL0     H39661   3.387   3.734   7.349 -2.5196 -1.3080  2.1357
  294MOL0     H39662   3.406   3.600   7.561  1.3265 -0.3209 -0.2259
  294MOL0     H39663   3.500   3.477   7.482  0.7694  0.2141 -0.1121
  294MOL0     H39664   3.204   3.547   7.430  0.6415  0.7798  0.0175
  294MOL0     H39665   3.290   3.424   7.337 -1.5793 -0.2488 -0.1042
  294MOL0     H39666   3.311   3.285   7.543 -0.4930 -1.6730 -0.7644
  294MOL0     H39667   3.143   3.330   7.505  0.3098  0.9346  0.0739
  294MOL0     H39668   3.224   3.347   7.753 -1.2593  0.2775  0.0230
  294MOL0     H39669   3.309   3.489   7.706  0.0166 -1.3602  0.8777
  294MOL0     H39670   3.929   3.650   7.369 -0.4603 -0.1534 -1.6216
  294MOL0     H39671   4.173   3.620   7.415  1.1312 -0.3853  0.1260
  294MOL0     H39672   4.621   3.875   7.298 -2.5981  0.1160  0.8528
  294MOL0     H39673   4.850   3.888   7.358 -1.0310  1.6563 -1.2062
  294MOL0     H39674   6.215   4.233   7.998 -0.6029  0.7988 -0.5747
  294MOL0     H39675   6.136   4.354   7.785  1.4771  0.1535  0.6731
  294MOL0     H39676   6.170   4.375   7.257 -0.2307  3.2974  0.5219
  294MOL0     H39677   6.069   4.481   7.073 -1.0412  0.6321 -0.6781
  294MOL0     H39678   5.630   4.386   7.016  1.1687 -0.1278  0.7722
  294MOL0     H39679   5.667   4.484   6.863  1.1386 -0.0902 -0.5422
  294MOL0     H39680   5.677   4.689   6.991  1.6484  0.9118  1.9542
  294MOL0     H39681   5.626   4.613   7.136 -2.8029 -2.5015  0.3075
  294MOL0     H39682   5.445   4.597   6.895 -0.6000  2.2369 -0.0121
  294MOL0     H39683   5.435   4.728   7.017 -2.6523 -1.0169  0.0233
  294MOL0     H39684   5.282   4.537   7.021 -0.1475  3.5159  0.0762
  294MOL0     H39685   5.405   4.425   7.085  0.9770  0.7287 -0.4015
  294MOL0     H39686   5.356   4.654   7.430 -0.2153 -1.6590  0.2906
  294MOL0     H39687   5.679   4.387   7.234  0.8871 -2.7122  0.7277
  294MOL0     H39688   5.794   4.185   7.502 -0.0647  1.5569  4.1665
  294MOL0     H39689   5.748   4.346   7.533  0.4338  0.7155 -1.5803
  294MOL0     H39690   5.650   4.270   7.413 -1.2063  2.3970  2.3943
  295MOL0     O39691   1.742   2.621   6.554 -0.4374 -0.4963  0.1692
  295MOL0     C39692   1.751   2.733   6.490 -0.0530 -0.1077 -0.9618
  295MOL0     O39693   1.650   2.788   6.409  0.3168  0.2032 -0.1268
  295MOL0     C39694   1.549   2.701   6.378 -0.4587 -0.5981  0.0435
  295MOL0     C39695   1.438   2.692   6.453  0.2525  0.2632  0.7100
  295MOL0     C39696   1.353   2.579   6.428 -0.1176  0.2433 -0.1188
  295MOL0     C39697   1.378   2.487   6.320 -0.7778 -0.2213 -0.5686
  295MOL0     O39698   1.295   2.389   6.304  1.0723  0.5784  0.0193
  295MOL0     C39699   1.318   2.273   6.219 -0.5543 -0.5433  0.2793
  295MOL0     C39700   1.270   2.298   6.080  0.2623 -0.0045  0.8961
  295MOL0     C39701   1.338   2.202   5.985 -0.2946  0.6224  0.3625
  295MOL0     C39702   1.294   2.232   5.843 -0.1051  0.3408 -0.5524
  295MOL0     C39703   1.368   2.149   5.732 -0.0872 -0.1821 -0.9792
  295MOL0     C39704   1.518   2.207   5.720  0.6872  0.6552  0.6055
  295MOL0     C39705   1.594   2.148   5.604 -0.0505  0.1688  1.1243
  295MOL0     C39706   1.738   2.213   5.594 -0.7878 -0.1505  0.2948
  295MOL0     N39707   1.826   2.167   5.705  0.6517 -0.4923  0.1270
  295MOL0     C39708   1.895   2.050   5.696  0.3697 -0.2247 -0.3958
  295MOL0     C39709   1.987   2.062   5.797 -0.3958 -0.6278 -0.4972
  295MOL0     C39710   2.086   1.952   5.814  0.4413  0.6378 -0.3781
  295MOL0     C39711   2.199   1.978   5.914  0.2495  0.5546  0.7370
  295MOL0     C39712   2.176   1.993   6.076  0.7827  0.3252  0.4067
  295MOL0     C39713   2.090   1.868   6.123  0.4509  0.8223  0.1135
  295MOL0     O39714   2.164   1.748   6.099 -0.1153 -0.0438 -0.3226
  295MOL0     C39715   2.078   1.651   6.122 -0.2996  0.2637 -0.0859
  295MOL0     C39716   2.027   1.582   6.017  0.7869 -0.7624  0.7146
  295MOL0     C39717   1.938   1.472   6.030 -0.1502  0.6052  0.5994
  295MOL0     C39718   1.898   1.437   6.158 -0.1386 -0.0665  0.1661
  295MOL0     C39719   1.786   1.340   6.179  0.0524 -1.0613  0.5050
  295MOL0     O39720   1.705   1.360   6.290  0.1329 -0.1993  0.2017
  295MOL0     C39721   1.586   1.286   6.287 -0.2999  0.0845 -0.8466
  295MOL0     C39722   1.474   1.363   6.254 -0.0051 -0.0735  0.9743
  295MOL0     C39723   1.351   1.299   6.266  0.0019  1.1997  0.2628
  295MOL0     C39724   1.338   1.162   6.300  0.0235  0.8457 -0.2366
  295MOL0     O39725   1.221   1.092   6.328  0.5565  0.5701 -0.2053
  295MOL0     C39726   1.185   1.094   6.470 -0.1286 -1.1890 -0.1357
  295MOL0     C39727   1.098   0.975   6.495  0.2832  0.4875  0.1889
  295MOL0     C39728   1.166   0.841   6.475  0.7308 -0.1110 -0.5962
  295MOL0     C39729   1.077   0.721   6.525  0.6529  0.0587 -0.5741
  295MOL0     C39730   1.171   0.608   6.536 -0.1778  0.3053 -0.8382
  295MOL0     C39731   1.205   0.533   6.415 -0.2333 -0.3688  0.3125
  295MOL0     C39732   1.101   0.461   6.338  0.1563  0.2180 -0.3547
  295MOL0     C39733   1.163   0.417   6.207  1.2017  0.0412 -0.6033
  295MOL0    Cl39734   1.198   0.559   6.114  0.1817 -0.2141  0.0274
  295MOL0     C39735   1.453   1.090   6.324 -0.0954  1.3991  0.9120
  295MOL0     C39736   1.578   1.154   6.321  0.1359 -0.6667 -0.1404
  295MOL0     O39737   1.751   1.277   6.083 -0.0970 -1.0362  0.6686
  295MOL0     C39738   1.945   1.505   6.265  0.7585 -1.3964  0.2946
  295MOL0     C39739   2.030   1.611   6.250  0.7830 -1.0827 -0.3310
  295MOL0     N39740   1.966   2.185   5.861  0.1082  0.1046  0.4234
  295MOL0     N39741   1.875   2.246   5.804  1.0152 -1.0071  0.0248
  295MOL0     C39742   1.486   2.517   6.237  0.0099  1.0647 -0.5620
  295MOL0     C39743   1.572   2.616   6.263 -0.1882 -0.9022 -0.3736
  295MOL0     C39744   1.886   2.806   6.494  0.4118  0.6440  0.0541
  295MOL0     C39745   1.905   2.896   6.385 -0.4071 -0.9941 -0.1068
  295MOL0     C39746   2.025   2.959   6.358 -0.4649 -0.1135 -0.1368
  295MOL0     C39747   2.128   2.943   6.450  0.5174 -0.9674  0.0991
  295MOL0     O39748   2.240   3.019   6.419  0.1516 -0.6909 -0.4818
  295MOL0     C39749   2.368   2.998   6.488  0.1037 -0.5168 -0.5021
  295MOL0     C39750   2.455   3.113   6.455 -0.0197  0.9046 -0.8847
  295MOL0     C39751   2.598   3.102   6.500 -0.6268 -0.7574 -0.2486
  295MOL0     C39752   2.686   3.221   6.457  0.7680 -0.3757 -0.0616
  295MOL0     C39753   2.622   3.337   6.514  0.7571 -0.0510  0.3858
  295MOL0     C39754   2.569   3.431   6.571 -0.4442 -0.4231 -0.4353
  295MOL0     C39755   2.106   2.860   6.560  0.3197  0.2579  1.1877
  295MOL0     C39756   1.987   2.794   6.585  0.9401  0.2462  0.1659
  295MOL0     C39757   1.968   2.720   6.719  0.0589  0.2663  0.5365
  295MOL0     H39758   1.408   2.762   6.531  1.5962 -0.4552  1.9135
  295MOL0     H39759   1.261   2.568   6.484  0.2877 -1.6073  0.2649
  295MOL0     H39760   1.422   2.239   6.223 -0.2908  0.3627  2.6435
  295MOL0     H39761   1.261   2.187   6.256 -2.5003  0.6572  0.2129
  295MOL0     H39762   1.292   2.403   6.057 -3.8212  0.8790  0.2105
  295MOL0     H39763   1.162   2.279   6.079  0.6666 -2.6679  0.1010
  295MOL0     H39764   1.315   2.101   6.019  1.2491  0.0951 -0.0611
  295MOL0     H39765   1.445   2.224   5.984  0.2065  0.2962 -6.6754
  295MOL0     H39766   1.187   2.209   5.845 -0.0890  0.2035 -1.0866
  295MOL0     H39767   1.298   2.340   5.825  0.5610  0.4258  0.0669
  295MOL0     H39768   1.365   2.040   5.740  1.7660 -0.4024 -2.3982
  295MOL0     H39769   1.309   2.172   5.642 -3.0119 -1.2483  0.5582
  295MOL0     H39770   1.516   2.316   5.708  2.1221  0.4858 -1.6469
  295MOL0     H39771   1.569   2.186   5.814  1.0251 -0.2275  0.2314
  295MOL0     H39772   1.547   2.166   5.507  2.7423 -1.4206 -0.6794
  295MOL0     H39773   1.594   2.039   5.617 -3.9984  0.1979  2.8467
  295MOL0     H39774   1.777   2.200   5.493  0.2806 -0.5857  0.7524
  295MOL0     H39775   1.724   2.321   5.604 -3.3631 -0.2267 -1.3749
  295MOL0     H39776   1.890   1.974   5.619  0.5583  0.1074 -0.7411
  295MOL0     H39777   2.034   1.864   5.854  0.7222  0.0422 -1.2875
  295MOL0     H39778   2.131   1.941   5.715  2.6382  3.1553  0.2234
  295MOL0     H39779   2.262   1.890   5.899  1.8231  1.2839  2.5707
  295MOL0     H39780   2.261   2.063   5.883  0.2830 -0.1977 -1.3887
  295MOL0     H39781   2.124   2.085   6.105 -0.5854 -0.0533 -0.7565
  295MOL0     H39782   2.269   2.000   6.133  0.3943  0.0817  1.0692
  295MOL0     H39783   1.987   1.863   6.086 -0.5637  2.6593  2.3908
  295MOL0     H39784   2.075   1.885   6.230 -1.7428  1.0514 -0.1787
  295MOL0     H39785   2.048   1.605   5.913 -2.5017 -2.1229 -0.3818
  295MOL0     H39786   1.901   1.422   5.941 -1.8814  0.3671  1.4118
  295MOL0     H39787   1.478   1.466   6.220 -0.7749 -0.1474  0.6348
  295MOL0     H39788   1.255   1.348   6.255  0.8120  2.8683  0.3203
  295MOL0     H39789   1.265   1.095   6.544 -2.4164  0.2845  2.5234
  295MOL0     H39790   1.129   1.186   6.489  0.7873 -1.1838  3.2311
  295MOL0     H39791   1.072   0.992   6.600  2.1750  0.9703  0.6061
  295MOL0     H39792   1.010   0.984   6.430 -0.8737 -0.9867  1.4706
  295MOL0     H39793   1.193   0.826   6.371 -2.2241 -0.4478 -1.4000
  295MOL0     H39794   1.252   0.845   6.543 -1.4529 -1.7031  2.5163
  295MOL0     H39795   0.999   0.690   6.456  1.8770  0.3921 -2.1729
  295MOL0     H39796   1.040   0.746   6.625 -0.6323 -1.4239 -0.6497
  295MOL0     H39797   1.119   0.541   6.604 -0.5151  2.5301  1.2415
  295MOL0     H39798   1.258   0.640   6.594  0.4925 -3.7698  0.7489
  295MOL0     H39799   1.245   0.610   6.347 -3.9454  1.3693 -0.1339
  295MOL0     H39800   1.276   0.456   6.448 -0.9790 -0.8247  0.8687
  295MOL0     H39801   1.017   0.529   6.321 -0.4774  0.0283  1.7588
  295MOL0     H39802   1.061   0.374   6.391  2.3784 -1.7863 -1.8080
  295MOL0     H39803   1.257   0.364   6.224  0.5916 -0.9480 -0.2255
  295MOL0     H39804   1.092   0.349   6.160  2.6314 -1.8970 -0.0560
  295MOL0     H39805   1.444   0.985   6.349  0.5245  1.7942  3.0298
  295MOL0     H39806   1.668   1.106   6.357  0.7984  1.1583  0.7407
  295MOL0     H39807   1.913   1.473   6.364 -0.1178  0.6060  0.7089
  295MOL0     H39808   2.052   1.670   6.338 -0.3349 -0.9292 -0.1450
  295MOL0     H39809   1.511   2.445   6.159 -0.7040 -4.0195  3.3173
  295MOL0     H39810   1.661   2.627   6.203 -0.4669 -0.1798 -0.6663
  295MOL0     H39811   1.825   2.905   6.312 -1.2952  0.2549  0.9689
  295MOL0     H39812   2.050   3.009   6.265  0.1694 -0.4235 -0.1327
  295MOL0     H39813   2.405   2.902   6.450  1.9363 -0.3882  0.8304
  295MOL0     H39814   2.357   2.998   6.596  1.7643  2.4818 -0.2338
  295MOL0     H39815   2.412   3.199   6.506 -0.2186 -0.3181  1.0829
  295MOL0     H39816   2.460   3.122   6.346  0.7106 -0.3534 -0.9746
  295MOL0     H39817   2.642   3.012   6.457 -2.5464 -0.9834 -1.8467
  295MOL0     H39818   2.615   3.101   6.608 -1.5561  2.6213  0.0523
  295MOL0     H39819   2.791   3.216   6.490  0.7457  2.6263  0.7072
  295MOL0     H39820   2.675   3.222   6.348  2.1196 -1.2136 -0.2263
  295MOL0     H39821   2.511   3.508   6.616 -2.8286 -2.0126 -0.6433
  295MOL0     H39822   2.192   2.848   6.625  0.9461 -2.6452  0.0107
  295MOL0     H39823   1.982   2.614   6.697 -0.4976  0.5355 -1.3344
  295MOL0     H39824   2.024   2.755   6.806 -1.6394  0.1538  1.7370
  295MOL0     H39825   1.866   2.723   6.759  0.0760 -2.6414  0.9804
  296MOL0     O39826   0.494   7.387   3.231 -1.3821  0.9723  0.7552
  296MOL0     C39827   0.468   7.497   3.279  0.4291  0.4093  0.2211
  296MOL0     O39828   0.514   7.546   3.403  0.5620  0.2051 -0.1893
  296MOL0     C39829   0.620   7.485   3.459  0.5999 -0.1676  0.2823
  296MOL0     C39830   0.618   7.356   3.493  0.1268 -0.4558  0.5236
  296MOL0     C39831   0.737   7.304   3.538 -0.9770  0.4991 -0.4120
  296MOL0     C39832   0.849   7.383   3.576 -0.1920  1.4165  0.2644
  296MOL0     O39833   0.967   7.312   3.620  0.5011  0.4752  0.3815
  296MOL0     C39834   1.094   7.380   3.642 -0.9397  0.1457 -0.5511
  296MOL0     C39835   1.198   7.307   3.735 -0.4163  0.2811 -0.4237
  296MOL0     C39836   1.189   7.157   3.734 -0.5094  0.2350 -1.0333
  296MOL0     C39837   1.246   7.104   3.869  0.5070  0.9086 -0.6756
  296MOL0     C39838   1.225   6.950   3.898 -0.1027 -1.0386  0.2788
  296MOL0     C39839   1.305   6.865   3.799 -0.3596  0.4829 -0.9884
  296MOL0     C39840   1.340   6.734   3.864  0.2261  0.1721  0.6507
  296MOL0     C39841   1.452   6.735   3.960 -1.0202  0.6138 -0.3432
  296MOL0     N39842   1.497   6.598   4.009 -0.2800 -0.4278  0.2850
  296MOL0     C39843   1.421   6.504   4.059 -0.5684 -0.8264 -0.9279
  296MOL0     C39844   1.501   6.398   4.050  0.4040  0.2886 -0.1240
  296MOL0     C39845   1.440   6.256   4.079  0.7364 -0.2477 -0.0084
  296MOL0     C39846   1.529   6.154   4.149  0.6420  0.6342 -0.1970
  296MOL0     C39847   1.502   6.012   4.091  0.8212 -0.0913 -0.0676
  296MOL0     C39848   1.590   5.911   4.166 -0.7225 -0.1463 -0.2619
  296MOL0     O39849   1.588   5.773   4.109  0.4732  0.4489  0.2775
  296MOL0     C39850   1.622   5.763   3.975 -0.0766  0.2412  0.9822
  296MOL0     C39851   1.737   5.819   3.903 -0.1587 -0.2821 -0.8680
  296MOL0     C39852   1.783   5.771   3.778 -0.5465 -0.1802  1.0129
  296MOL0     C39853   1.709   5.674   3.712  0.2339  0.0966  0.2418
  296MOL0     C39854   1.759   5.609   3.583  0.1916 -0.8637  0.6892
  296MOL0     O39855   1.877   5.659   3.534  0.0448  0.7114  0.1867
  296MOL0     C39856   1.912   5.612   3.404 -0.1739  0.0158 -0.0088
  296MOL0     C39857   1.937   5.701   3.311  0.5684  0.3530 -0.0526
  296MOL0     C39858   1.976   5.663   3.185  0.9203  0.0906  0.8554
  296MOL0     C39859   1.981   5.527   3.141  0.0213 -0.9374 -0.2097
  296MOL0     O39860   2.022   5.476   3.017 -0.7343  0.1123 -0.0223
  296MOL0     C39861   2.041   5.561   2.908  0.2922  0.3014 -0.3183
  296MOL0     C39862   2.077   5.468   2.789  0.4374  0.0078 -0.9521
  296MOL0     C39863   1.972   5.366   2.752 -0.7132  1.2020  0.5206
  296MOL0     C39864   2.018   5.266   2.645  0.2414  0.9246 -0.2532
  296MOL0     C39865   1.909   5.180   2.594 -0.3646 -0.4096 -0.0001
  296MOL0     C39866   1.827   5.090   2.684 -0.7002  0.1649 -0.4015
  296MOL0     C39867   1.762   4.972   2.609  1.1296 -0.2638  0.0584
  296MOL0     C39868   1.693   5.025   2.477  0.6669 -0.4023 -0.8057
  296MOL0    Cl39869   1.569   4.904   2.429  0.1984  0.3016  0.6296
  296MOL0     C39870   1.965   5.435   3.245  0.2875 -0.7425 -0.2720
  296MOL0     C39871   1.922   5.470   3.376  0.3816 -0.3869 -0.1100
  296MOL0     O39872   1.684   5.533   3.523 -0.0277  0.0107  0.7409
  296MOL0     C39873   1.590   5.622   3.769 -0.0016  0.0527  0.6795
  296MOL0     C39874   1.549   5.664   3.896 -0.6403  0.7676 -0.9548
  296MOL0     N39875   1.625   6.427   3.994  0.1641  0.2848  0.0800
  296MOL0     N39876   1.621   6.549   3.973  0.1646  0.0140 -0.7536
  296MOL0     C39877   0.839   7.512   3.534 -0.1838  0.5504  0.6427
  296MOL0     C39878   0.728   7.566   3.476  0.4319 -0.6387  0.1856
  296MOL0     C39879   0.358   7.564   3.222 -0.5600  0.0896 -0.0153
  296MOL0     C39880   0.277   7.634   3.299  0.0210 -0.2261 -0.4253
  296MOL0     C39881   0.176   7.710   3.249  0.5140 -0.3694 -0.1625
  296MOL0     C39882   0.142   7.707   3.121 -0.1803  0.0488  0.4413
  296MOL0     O39883   0.034   7.779   3.086  0.3938 -0.0864  0.2698
  296MOL0     C39884  -0.038   7.737   2.963 -0.4951  0.1635 -0.8556
  296MOL0     C39885  -0.161   7.839   2.954 -0.5224  0.2228  0.1359
  296MOL0     C39886  -0.235   7.840   2.821 -0.7229 -0.4335 -0.9145
  296MOL0     C39887  -0.299   7.699   2.792 -0.5808 -0.5332  0.0112
  296MOL0     C39888  -0.342   7.695   2.654  0.3701 -0.3581 -0.3386
  296MOL0     C39889  -0.408   7.686   2.556 -1.1709 -0.5604  0.3083
  296MOL0     C39890   0.211   7.627   3.035 -0.7658 -0.0034  0.1873
  296MOL0     C39891   0.331   7.564   3.075  0.0962 -0.7549  0.5633
  296MOL0     C39892   0.396   7.486   2.962 -0.6418 -0.6290 -0.4657
  296MOL0     H39893   0.527   7.296   3.498  0.3429 -0.7614  0.8039
  296MOL0     H39894   0.750   7.196   3.542 -1.4720  0.4624  0.3960
  296MOL0     H39895   1.142   7.395   3.545  0.7095  1.8579  0.4423
  296MOL0     H39896   1.081   7.481   3.683  0.8228 -1.0618  3.4980
  296MOL0     H39897   1.185   7.341   3.839  1.6203 -3.2559  1.1793
  296MOL0     H39898   1.301   7.339   3.719 -0.4771  1.5864  1.4619
  296MOL0     H39899   1.237   7.117   3.644 -2.2958  0.0884 -1.9654
  296MOL0     H39900   1.084   7.125   3.728 -1.2361  2.0630  0.7604
  296MOL0     H39901   1.348   7.135   3.890 -0.2567  1.8422  2.0330
  296MOL0     H39902   1.192   7.142   3.957  0.2470 -1.6853  0.3734
  296MOL0     H39903   1.265   6.928   3.998  1.4962 -0.9756 -0.3145
  296MOL0     H39904   1.120   6.920   3.888  0.0931 -0.8928 -3.1741
  296MOL0     H39905   1.239   6.845   3.714 -2.9886  0.6231  0.9126
  296MOL0     H39906   1.395   6.923   3.774 -0.4089  1.2407  0.4834
  296MOL0     H39907   1.369   6.668   3.782 -1.4229 -2.1371  1.7926
  296MOL0     H39908   1.241   6.703   3.898 -2.4466  3.1499 -3.4121
  296MOL0     H39909   1.534   6.795   3.920 -1.1670  1.1335  0.1187
  296MOL0     H39910   1.431   6.800   4.045 -0.0505  1.8169 -0.9953
  296MOL0     H39911   1.318   6.514   4.092  0.0417 -0.5775  1.0766
  296MOL0     H39912   1.337   6.267   4.115  1.1745 -2.0936  1.9432
  296MOL0     H39913   1.428   6.212   3.979  0.8045 -1.1216  0.3667
  296MOL0     H39914   1.636   6.177   4.144  2.0740 -4.5194  1.1771
  296MOL0     H39915   1.503   6.158   4.256 -0.9758  0.2865 -0.5584
  296MOL0     H39916   1.518   6.015   3.983 -1.6511  1.3291 -0.4623
  296MOL0     H39917   1.397   5.981   4.099  0.9169 -0.0081  2.3000
  296MOL0     H39918   1.559   5.915   4.270  0.4970  0.0631  0.0986
  296MOL0     H39919   1.694   5.945   4.164 -1.0807  0.9806 -0.3600
  296MOL0     H39920   1.798   5.890   3.959  2.3279 -1.8842 -1.3919
  296MOL0     H39921   1.879   5.809   3.745  0.3087 -1.8194  1.4704
  296MOL0     H39922   1.925   5.807   3.331  5.3029  0.7694  1.8985
  296MOL0     H39923   1.984   5.741   3.111 -0.3397 -1.1166 -0.6266
  296MOL0     H39924   1.947   5.616   2.898 -2.0993 -3.2843  0.2984
  296MOL0     H39925   2.117   5.637   2.926 -0.0143  0.9022 -1.4916
  296MOL0     H39926   2.098   5.534   2.704 -3.5987  2.2667 -0.4350
  296MOL0     H39927   2.169   5.417   2.821 -0.6289 -1.8397 -0.6843
  296MOL0     H39928   1.935   5.307   2.836 -2.5898  5.7800  3.2981
  296MOL0     H39929   1.885   5.418   2.712 -1.5074 -0.0022  0.6324
  296MOL0     H39930   2.105   5.210   2.679  1.2052  2.1386 -0.6490
  296MOL0     H39931   2.054   5.320   2.557 -2.7627  1.9748 -0.9752
  296MOL0     H39932   1.949   5.122   2.509  0.7294 -1.0344  0.9187
  296MOL0     H39933   1.838   5.247   2.545 -1.0437 -1.7044 -0.8742
  296MOL0     H39934   1.892   5.041   2.758  0.1440 -1.8237 -2.3210
  296MOL0     H39935   1.754   5.156   2.732 -2.0337 -0.0928 -1.9932
  296MOL0     H39936   1.681   4.921   2.662 -0.4898 -1.8017 -3.5085
  296MOL0     H39937   1.836   4.898   2.576  0.6630 -0.7960  0.1853
  296MOL0     H39938   1.647   5.122   2.500  1.6639 -0.7237  3.2705
  296MOL0     H39939   1.771   5.043   2.402  1.7619 -1.4573  0.0602
  296MOL0     H39940   1.960   5.334   3.207  0.3110  0.5288 -4.0291
  296MOL0     H39941   1.910   5.400   3.458  0.1429  0.5188  0.6452
  296MOL0     H39942   1.529   5.549   3.718  1.4819  0.3415 -1.6657
  296MOL0     H39943   1.456   5.614   3.923 -1.1073  2.0536 -0.0600
  296MOL0     H39944   0.932   7.566   3.544 -0.2636  1.1470 -1.4617
  296MOL0     H39945   0.714   7.668   3.442  0.7830 -1.2642 -2.0090
  296MOL0     H39946   0.299   7.648   3.405  3.6765  0.9272 -1.2032
  296MOL0     H39947   0.125   7.786   3.307  1.2625  1.3224 -1.6145
  296MOL0     H39948  -0.074   7.634   2.968 -1.8121  0.6489 -0.0373
  296MOL0     H39949   0.017   7.752   2.869  2.9844  2.2630  1.2834
  296MOL0     H39950  -0.125   7.940   2.977 -2.2367  0.9020 -0.0617
  296MOL0     H39951  -0.225   7.823   3.041 -2.2358 -1.0681 -1.2865
  296MOL0     H39952  -0.154   7.860   2.750 -0.4294  2.2598  0.0633
  296MOL0     H39953  -0.305   7.923   2.837 -1.3242 -1.3669  1.7952
  296MOL0     H39954  -0.225   7.623   2.819 -0.0485  0.4028  1.3303
  296MOL0     H39955  -0.379   7.672   2.862 -1.6860 -0.2813 -1.1231
  296MOL0     H39956  -0.474   7.679   2.472 -1.9126  1.1685  0.6964
  296MOL0     H39957   0.182   7.610   2.932  2.5079  0.9113 -0.9897
  296MOL0     H39958   0.397   7.540   2.867  0.1338 -1.4682 -0.9443
  296MOL0     H39959   0.498   7.483   3.002 -1.1753 -2.5113  0.8864
  296MOL0     H39960   0.368   7.381   2.951 -0.3650 -0.8093  0.3971
  297MOL0     O39961   7.990   8.221   7.793  0.1308  0.5913 -0.4791
  297MOL0     C39962   7.890   8.291   7.795 -1.1536 -0.9752 -0.2780
  297MOL0     O39963   7.865   8.386   7.696  0.2679  0.2373  0.0118
  297MOL0     C39964   7.968   8.425   7.629 -0.5942 -0.4706 -0.2909
  297MOL0     C39965   7.992   8.376   7.502 -0.7884  0.1201  0.6215
  297MOL0     C39966   8.103   8.416   7.434  0.6861 -0.7797 -0.0204
  297MOL0     C39967   8.200   8.508   7.475  1.0604 -0.3321  0.5653
  297MOL0     O39968   8.300   8.549   7.393  0.0348  0.6023 -1.2448
  297MOL0     C39969   8.409   8.630   7.443 -0.0194 -0.4419  0.7362
  297MOL0     C39970   8.511   8.658   7.331 -0.2638  0.2159  0.2918
  297MOL0     C39971   8.428   8.725   7.216 -0.3576 -0.6226 -0.3789
  297MOL0     C39972   8.528   8.755   7.099  0.1290  0.2786  0.4907
  297MOL0     C39973   8.442   8.817   6.990 -0.3085  0.1326  0.1694
  297MOL0     C39974   8.512   8.813   6.855 -0.6319  0.3983 -0.1477
  297MOL0     C39975   8.423   8.885   6.742  1.4497 -0.2287  0.0956
  297MOL0     C39976   8.500   8.870   6.611  0.0218  0.3038 -0.7646
  297MOL0     N39977   8.499   8.730   6.576  0.5792  0.3115  0.5566
  297MOL0     C39978   8.392   8.667   6.515  0.2596 -0.1716 -0.0159
  297MOL0     C39979   8.433   8.539   6.505 -0.3089 -0.8539 -0.2561
  297MOL0     C39980   8.362   8.415   6.457  0.4714 -0.2099  0.1216
  297MOL0     C39981   8.291   8.439   6.327 -0.6189 -0.1148  0.2025
  297MOL0     C39982   8.189   8.329   6.300  0.0492  0.8595 -0.6036
  297MOL0     C39983   8.119   8.339   6.164 -0.0276 -0.4073  0.6333
  297MOL0     O39984   8.054   8.220   6.145  0.4719  0.1674  0.0896
  297MOL0     C39985   7.940   8.225   6.076  0.7583  0.6841  0.7203
  297MOL0     C39986   7.929   8.139   5.958  0.5272 -0.3605 -0.1358
  297MOL0     C39987   7.816   8.149   5.880  0.7829  0.0233  0.0224
  297MOL0     C39988   7.705   8.236   5.908 -0.6269  0.4932  0.0610
  297MOL0     C39989   7.584   8.254   5.827 -0.0128  0.7067  0.3476
  297MOL0     O39990   7.570   8.166   5.724  0.9618  0.4715 -0.0400
  297MOL0     C39991   7.480   8.223   5.627 -0.4163 -0.1646  0.1758
  297MOL0     C39992   7.531   8.260   5.500 -0.3617 -0.3170  0.3852
  297MOL0     C39993   7.440   8.296   5.401 -0.6608 -0.1643  1.1537
  297MOL0     C39994   7.300   8.299   5.428 -0.6025 -0.3640  0.0588
  297MOL0     O39995   7.212   8.357   5.334 -0.1967 -0.0950 -0.6729
  297MOL0     C39996   7.066   8.340   5.344  0.2191  0.7118 -0.1603
  297MOL0     C39997   7.000   8.438   5.247 -0.2846 -0.1497  0.0817
  297MOL0     C39998   6.847   8.421   5.250 -0.5367 -0.2161  0.0170
  297MOL0     C39999   6.776   8.530   5.162  0.4140  0.6781 -0.8826
  297MOL0     C40000   6.630   8.516   5.173 -0.4970  0.2041  0.3991
  297MOL0     C40001   6.545   8.619   5.085 -0.8444  0.4359 -0.1001
  297MOL0     C40002   6.574   8.611   4.935  0.0836 -0.5856 -0.1385
  297MOL0     C40003   6.484   8.513   4.859  0.0698  0.5394  0.5363
  297MOL0    Cl40004   6.320   8.553   4.890 -0.0125 -0.0765  0.3562
  297MOL0     C40005   7.250   8.254   5.553 -0.5388  0.9036 -0.4388
  297MOL0     C40006   7.347   8.209   5.649  1.2189 -0.4007 -0.0312
  297MOL0     O40007   7.509   8.347   5.854 -0.3089 -0.7141  0.1117
  297MOL0     C40008   7.720   8.312   6.025 -0.0031 -0.2332 -0.2779
  297MOL0     C40009   7.831   8.307   6.112 -0.7360  1.3323  0.5201
  297MOL0     N40010   8.569   8.531   6.551  0.2216  0.0499 -0.5478
  297MOL0     N40011   8.606   8.644   6.594 -0.0359  0.2154  0.0964
  297MOL0     C40012   8.188   8.544   7.606  0.1769  0.8084 -0.4740
  297MOL0     C40013   8.071   8.508   7.681  0.5033 -0.5285  0.6321
  297MOL0     C40014   7.785   8.257   7.894  0.6990 -1.1656 -0.2831
  297MOL0     C40015   7.745   8.127   7.901 -0.1858 -0.4703 -0.2708
  297MOL0     C40016   7.639   8.093   7.982  0.4380 -0.3940 -0.8557
  297MOL0     C40017   7.561   8.188   8.056 -0.6715  0.4473  0.4676
  297MOL0     O40018   7.456   8.160   8.138  0.0762 -0.0365  0.4844
  297MOL0     C40019   7.320   8.150   8.087 -0.0947 -0.5768  0.6010
  297MOL0     C40020   7.232   8.088   8.199 -0.2228 -0.6932 -0.1713
  297MOL0     C40021   7.116   8.008   8.152  0.1281  0.1812  0.3138
  297MOL0     C40022   7.161   7.863   8.110  0.0060  0.3564 -0.1421
  297MOL0     C40023   7.077   7.817   8.000 -0.5278  0.7002 -0.3470
  297MOL0     C40024   7.003   7.781   7.904  0.4254  0.0888 -0.4536
  297MOL0     C40025   7.615   8.314   8.059  0.3103  0.0567 -0.4672
  297MOL0     C40026   7.717   8.357   7.971  0.5288 -0.3642  0.4962
  297MOL0     C40027   7.754   8.506   7.963 -1.3179 -0.3177  0.4985
  297MOL0     H40028   7.932   8.298   7.456  2.1739 -0.5808 -2.4953
  297MOL0     H40029   8.114   8.390   7.329  1.0108 -0.5124 -0.0544
  297MOL0     H40030   8.368   8.725   7.480 -1.9059 -0.1923 -1.7763
  297MOL0     H40031   8.458   8.575   7.524  0.6225 -1.0872 -0.0781
  297MOL0     H40032   8.559   8.566   7.297 -1.5655 -1.2708  2.2033
  297MOL0     H40033   8.583   8.733   7.367 -0.7579  0.3091  1.1141
  297MOL0     H40034   8.389   8.820   7.254 -4.0937 -1.6118 -1.3924
  297MOL0     H40035   8.348   8.663   7.175 -0.8331  0.6085 -1.3767
  297MOL0     H40036   8.617   8.809   7.132 -0.7230  1.4780  0.9031
  297MOL0     H40037   8.569   8.660   7.063  3.3279  1.5609  0.4557
  297MOL0     H40038   8.354   8.752   6.986  0.5582 -1.0921  0.2365
  297MOL0     H40039   8.426   8.922   7.016 -0.4349  0.0315  0.4963
  297MOL0     H40040   8.605   8.870   6.858 -2.3212  3.3583 -0.5170
  297MOL0     H40041   8.544   8.712   6.827 -0.2921  0.2497  0.7590
  297MOL0     H40042   8.411   8.992   6.760  2.7934 -0.3457  1.8614
  297MOL0     H40043   8.322   8.844   6.747  1.2414  0.3692  0.8493
  297MOL0     H40044   8.456   8.929   6.529  0.3302 -0.6595 -1.6443
  297MOL0     H40045   8.596   8.914   6.639 -1.6519  0.9389  5.4701
  297MOL0     H40046   8.296   8.704   6.482  0.3253  0.5149  0.5545
  297MOL0     H40047   8.434   8.334   6.454  2.7898  1.7297  0.3386
  297MOL0     H40048   8.282   8.393   6.528 -3.4233  1.6893 -3.2514
  297MOL0     H40049   8.232   8.530   6.336 -2.6828 -1.2228 -1.1187
  297MOL0     H40050   8.356   8.463   6.242  1.4817  0.9400  2.0239
  297MOL0     H40051   8.113   8.322   6.379  0.1084  0.9949 -0.5338
  297MOL0     H40052   8.237   8.232   6.304 -2.6895 -0.6058  3.6041
  297MOL0     H40053   8.190   8.365   6.084 -1.4695 -1.9473 -1.2544
  297MOL0     H40054   8.048   8.422   6.169  1.2511  0.8563 -1.1246
  297MOL0     H40055   8.018   8.089   5.920 -0.3146 -1.5399 -0.6068
  297MOL0     H40056   7.810   8.088   5.790  0.1185 -0.7780  0.5980
  297MOL0     H40057   7.638   8.262   5.481  0.0925 -3.0983  2.1164
  297MOL0     H40058   7.451   8.333   5.299 -3.6397  2.8214  1.7280
  297MOL0     H40059   7.044   8.236   5.321  0.9692  0.7656 -1.1855
  297MOL0     H40060   7.030   8.373   5.442 -0.4158  0.8022 -0.4226
  297MOL0     H40061   7.026   8.539   5.278  0.8535 -0.5558  0.5170
  297MOL0     H40062   7.029   8.422   5.143  0.9210  0.6242  0.2770
  297MOL0     H40063   6.809   8.321   5.224  1.0359 -1.3408  1.7596
  297MOL0     H40064   6.824   8.444   5.355  0.2572 -1.0514  0.3894
  297MOL0     H40065   6.807   8.514   5.058  0.0940  1.5139 -1.1083
  297MOL0     H40066   6.815   8.629   5.188 -3.1578  1.0767  4.5205
  297MOL0     H40067   6.588   8.536   5.272 -1.5339  4.1636 -0.6600
  297MOL0     H40068   6.603   8.416   5.137  0.9841 -0.2389  0.4657
  297MOL0     H40069   6.438   8.605   5.104 -0.5612 -1.3801  0.3036
  297MOL0     H40070   6.568   8.722   5.116  2.0393  0.2776 -1.3650
  297MOL0     H40071   6.679   8.591   4.913  1.2605  2.1378  2.2897
  297MOL0     H40072   6.548   8.704   4.884  0.3704 -0.4963 -0.1249
  297MOL0     H40073   6.506   8.529   4.753  1.3837 -0.4139  0.6438
  297MOL0     H40074   6.509   8.410   4.886 -0.8073  0.5612  1.4932
  297MOL0     H40075   7.145   8.236   5.578 -0.7569  3.3471  0.7528
  297MOL0     H40076   7.315   8.161   5.741 -1.5688  1.8408  0.3364
  297MOL0     H40077   7.634   8.373   6.050  1.0029  2.8416 -3.3878
  297MOL0     H40078   7.825   8.369   6.201 -1.4972  1.3914  0.4340
  297MOL0     H40079   8.265   8.610   7.645  1.1764  2.4818 -4.8064
  297MOL0     H40080   8.066   8.552   7.780 -0.1961  1.7437 -0.3488
  297MOL0     H40081   7.791   8.038   7.859  2.9258 -0.2312  2.2378
  297MOL0     H40082   7.615   7.988   7.993  0.6784 -0.2040  2.1619
  297MOL0     H40083   7.319   8.099   7.990 -1.2375  1.6073 -0.6317
  297MOL0     H40084   7.279   8.249   8.062  3.8738  1.0428 -0.2284
  297MOL0     H40085   7.184   8.159   8.267 -0.1331  0.6326 -1.4698
  297MOL0     H40086   7.292   8.014   8.254 -1.1690 -2.7242 -1.7477
  297MOL0     H40087   7.062   8.066   8.076 -1.5138 -1.3494  0.2400
  297MOL0     H40088   7.055   7.989   8.240  0.7032 -1.7610  0.3368
  297MOL0     H40089   7.262   7.867   8.068  1.1638 -2.2257  2.0233
  297MOL0     H40090   7.162   7.794   8.195 -3.1097  2.2891  1.6805
  297MOL0     H40091   6.943   7.742   7.825 -1.3973 -2.9689  2.1920
  297MOL0     H40092   7.556   8.385   8.117 -0.8857 -0.1257 -1.4200
  297MOL0     H40093   7.864   8.499   7.960 -1.1252  1.8329  0.5471
  297MOL0     H40094   7.734   8.554   7.867  1.5781 -1.1262 -0.6181
  297MOL0     H40095   7.732   8.564   8.054 -3.2185 -0.8644  0.4129
  298MOL0     O40096   6.011   0.403   7.567 -0.0712  0.7293  0.0712
  298MOL0     C40097   6.109   0.420   7.492 -0.2609  0.1160  0.8722
  298MOL0     O40098   6.151   0.327   7.402  0.3725  0.0815  0.6661
  298MOL0     C40099   6.104   0.201   7.389 -0.7695 -0.2441  0.8198
  298MOL0     C40100   6.186   0.122   7.308  1.3683  0.1775  0.0909
  298MOL0     C40101   6.153  -0.014   7.297  0.6122  0.3065  0.0157
  298MOL0     C40102   6.026  -0.072   7.333 -0.6341 -0.9152 -1.7507
  298MOL0     O40103   5.989  -0.203   7.318  0.2638 -0.1045  0.1802
  298MOL0     C40104   6.096  -0.290   7.262 -0.2547  0.0686  0.5048
  298MOL0     C40105   6.026  -0.420   7.219 -0.1179  0.9691 -0.2759
  298MOL0     C40106   5.949  -0.426   7.079  0.4599  0.1948  0.8105
  298MOL0     C40107   5.836  -0.534   7.068 -0.1537  0.3693 -0.2176
  298MOL0     C40108   5.754  -0.517   6.937 -0.2842 -0.1548 -0.4416
  298MOL0     C40109   5.638  -0.418   6.935 -0.7077  1.0801  0.4971
  298MOL0     C40110   5.544  -0.449   6.809  0.2562  0.1465 -0.0591
  298MOL0     C40111   5.621  -0.454   6.677 -0.0039  0.0163 -0.2566
  298MOL0     N40112   5.518  -0.489   6.573 -0.7276  0.1433  0.1535
  298MOL0     C40113   5.499  -0.608   6.494  0.1732  0.7515 -0.2632
  298MOL0     C40114   5.394  -0.588   6.420 -0.2416  0.5704 -0.4446
  298MOL0     C40115   5.312  -0.684   6.341  0.0112  0.2539 -0.3045
  298MOL0     C40116   5.203  -0.620   6.253  1.5587  0.8405  1.2239
  298MOL0     C40117   5.134  -0.719   6.159 -0.2297  0.3342  0.3528
  298MOL0     C40118   4.983  -0.724   6.199 -1.1834 -0.0578 -0.4675
  298MOL0     O40119   4.904  -0.785   6.090 -0.1742 -0.2274 -0.2086
  298MOL0     C40120   4.834  -0.699   6.005 -0.8816 -0.5910 -0.2653
  298MOL0     C40121   4.699  -0.714   5.990 -0.4612 -0.2280 -0.3614
  298MOL0     C40122   4.628  -0.631   5.909 -0.0762  0.2909  0.4988
  298MOL0     C40123   4.686  -0.529   5.841  1.0337  0.1765 -0.3711
  298MOL0     C40124   4.605  -0.443   5.760  0.1568 -1.3928  0.7325
  298MOL0     O40125   4.681  -0.335   5.716 -0.5351 -0.4641 -0.0453
  298MOL0     C40126   4.643  -0.217   5.652 -0.2958 -0.0715  0.4451
  298MOL0     C40127   4.586  -0.231   5.529  1.0076 -0.4774  0.2709
  298MOL0     C40128   4.554  -0.119   5.455 -0.2990 -0.4103  0.0664
  298MOL0     C40129   4.580   0.009   5.506 -0.6921  0.0173  0.0633
  298MOL0     O40130   4.538   0.114   5.431  0.4463  0.4350  0.3295
  298MOL0     C40131   4.429   0.173   5.485  1.0395 -0.4272 -0.1436
  298MOL0     C40132   4.455   0.327   5.502 -0.2479  0.7293 -0.1319
  298MOL0     C40133   4.471   0.406   5.366  0.2010  0.6193 -0.2748
  298MOL0     C40134   4.514   0.546   5.411 -0.3669 -1.2205  0.3376
  298MOL0     C40135   4.504   0.652   5.294 -0.6175 -0.6285  0.0021
  298MOL0     C40136   4.371   0.674   5.232  0.1960 -0.0292 -0.2929
  298MOL0     C40137   4.257   0.707   5.328 -1.0484 -0.3239 -0.3669
  298MOL0     C40138   4.125   0.729   5.250 -0.0429 -0.5762  0.4008
  298MOL0    Cl40139   4.072   0.561   5.242  0.1545 -0.3482 -0.1239
  298MOL0     C40140   4.623   0.028   5.639  0.4443 -0.6882  0.8863
  298MOL0     C40141   4.671  -0.093   5.714  0.1745 -0.3078  0.6029
  298MOL0     O40142   4.491  -0.464   5.722 -0.8024 -0.4328  0.8662
  298MOL0     C40143   4.823  -0.509   5.866 -0.8667  1.0326  0.2040
  298MOL0     C40144   4.898  -0.590   5.945  0.4425  0.3687  1.1748
  298MOL0     N40145   5.347  -0.461   6.439  0.4349 -0.0273  0.0077
  298MOL0     N40146   5.428  -0.396   6.524  0.0402  0.1727 -0.4183
  298MOL0     C40147   5.943   0.012   7.402  0.3593 -0.3010 -0.1145
  298MOL0     C40148   5.981   0.147   7.434  0.3952 -0.4331  0.3948
  298MOL0     C40149   6.188   0.545   7.481  0.4909 -0.7843  0.3926
  298MOL0     C40150   6.256   0.574   7.363 -0.3569  1.1763 -0.3821
  298MOL0     C40151   6.325   0.698   7.351  0.4455 -0.3837  0.0178
  298MOL0     C40152   6.322   0.800   7.452 -0.5977  0.5720 -0.0315
  298MOL0     O40153   6.387   0.915   7.449 -0.0249 -0.1300  0.7063
  298MOL0     C40154   6.454   0.961   7.334 -1.1393  0.0557 -0.2803
  298MOL0     C40155   6.604   0.965   7.362 -0.3023  0.5627  0.4175
  298MOL0     C40156   6.660   1.035   7.486  0.2530  0.5685  0.3454
  298MOL0     C40157   6.807   1.039   7.469 -0.0245 -0.4089 -0.0565
  298MOL0     C40158   6.853   1.131   7.571  0.5081  0.6045 -0.6605
  298MOL0     C40159   6.891   1.222   7.642  0.6128  0.6064 -0.0187
  298MOL0     C40160   6.262   0.753   7.575 -0.0754  0.5343  0.4798
  298MOL0     C40161   6.198   0.632   7.595 -0.3949  0.1664  0.8426
  298MOL0     C40162   6.156   0.602   7.738 -1.8163  0.5483  1.2873
  298MOL0     H40163   6.278   0.163   7.267  1.0299 -0.9235 -1.8932
  298MOL0     H40164   6.229  -0.076   7.251 -1.4907 -1.9432 -0.6312
  298MOL0     H40165   6.138  -0.244   7.172 -1.1194 -0.6379 -0.2812
  298MOL0     H40166   6.175  -0.301   7.336 -1.1682 -1.1573  1.3412
  298MOL0     H40167   5.951  -0.438   7.298  2.4707  1.5902  2.5174
  298MOL0     H40168   6.096  -0.503   7.227 -0.2838  0.8991  0.5709
  298MOL0     H40169   6.024  -0.425   7.000 -0.2303  0.0894  0.1429
  298MOL0     H40170   5.888  -0.336   7.071 -0.7085 -0.7404 -2.5096
  298MOL0     H40171   5.893  -0.627   7.064  0.1596  0.4685  1.3669
  298MOL0     H40172   5.770  -0.534   7.156  1.0051 -3.1597  0.8205
  298MOL0     H40173   5.825  -0.497   6.856  1.4055  3.7271  1.7217
  298MOL0     H40174   5.705  -0.613   6.918  1.9161 -1.2180 -1.0792
  298MOL0     H40175   5.576  -0.421   7.025 -2.5714  0.3591 -0.7498
  298MOL0     H40176   5.689  -0.322   6.925  0.6798  0.3891  0.6951
  298MOL0     H40177   5.467  -0.372   6.801 -2.3578 -2.3465 -0.5011
  298MOL0     H40178   5.491  -0.544   6.821 -2.3143  1.4818 -0.1267
  298MOL0     H40179   5.663  -0.355   6.657 -3.2594  1.8352  1.1797
  298MOL0     H40180   5.697  -0.532   6.676  0.9792  0.9457 -0.4588
  298MOL0     H40181   5.552  -0.700   6.518  2.3238  2.0757  0.2991
  298MOL0     H40182   5.371  -0.760   6.288  1.2915 -0.9705  2.6726
  298MOL0     H40183   5.257  -0.747   6.411  0.5496  1.0655  0.8750
  298MOL0     H40184   5.119  -0.592   6.318  1.0803  1.9307  0.1753
  298MOL0     H40185   5.232  -0.533   6.194 -2.3525 -0.7103 -3.7824
  298MOL0     H40186   5.185  -0.814   6.175 -2.0074 -0.9545 -1.2052
  298MOL0     H40187   5.152  -0.684   6.057 -0.1534  1.1589  0.6363
  298MOL0     H40188   4.942  -0.625   6.220  1.8796  0.5995  3.4513
  298MOL0     H40189   4.981  -0.774   6.296  2.4830 -1.6193 -1.0184
  298MOL0     H40190   4.640  -0.789   6.041  1.0533  0.0938  1.9873
  298MOL0     H40191   4.523  -0.657   5.900 -0.1718  0.2885  1.4740
  298MOL0     H40192   4.581  -0.333   5.494  2.6210 -0.9547  1.3381
  298MOL0     H40193   4.509  -0.134   5.357  0.6504 -1.9649 -0.1774
  298MOL0     H40194   4.351   0.166   5.407 -0.5889 -2.1431  1.5303
  298MOL0     H40195   4.391   0.126   5.576  1.7718 -0.9773 -0.1140
  298MOL0     H40196   4.382   0.382   5.562  0.3219  0.6776  0.6112
  298MOL0     H40197   4.546   0.331   5.563  0.5981  0.3295 -1.3268
  298MOL0     H40198   4.541   0.373   5.290 -1.1100 -0.5436 -1.0320
  298MOL0     H40199   4.372   0.409   5.319  0.7618  2.9218 -1.4030
  298MOL0     H40200   4.619   0.534   5.440 -0.4739  1.3021  1.9913
  298MOL0     H40201   4.450   0.578   5.494  0.7902 -3.3295  2.1504
  298MOL0     H40202   4.566   0.608   5.215  0.3924 -0.8501  0.8956
  298MOL0     H40203   4.545   0.748   5.327 -1.2833 -0.9621  1.8912
  298MOL0     H40204   4.372   0.747   5.150 -0.5198  0.1076 -0.1888
  298MOL0     H40205   4.344   0.576   5.191 -2.1521  0.2638  0.4153
  298MOL0     H40206   4.273   0.802   5.380 -1.9881  0.6124 -1.7236
  298MOL0     H40207   4.245   0.632   5.408 -0.1299  1.7247  1.8203
  298MOL0     H40208   4.062   0.791   5.315  1.9964  0.3023  1.6592
  298MOL0     H40209   4.134   0.768   5.148 -1.0551  2.3817  1.3436
  298MOL0     H40210   4.640   0.127   5.679  0.8733 -0.6251  0.5582
  298MOL0     H40211   4.702  -0.089   5.817  1.9275 -0.6784  0.1151
  298MOL0     H40212   4.875  -0.429   5.813  0.7466  0.4886  0.8781
  298MOL0     H40213   5.005  -0.573   5.936  0.5799 -1.0422 -0.4939
  298MOL0     H40214   5.847  -0.032   7.425 -0.0168  1.6302  2.5215
  298MOL0     H40215   5.908   0.214   7.479  2.7423  1.1097  2.1630
  298MOL0     H40216   6.256   0.501   7.283  0.2464  3.0301 -2.1388
  298MOL0     H40217   6.384   0.704   7.260  2.1861 -1.5862  0.9959
  298MOL0     H40218   6.417   1.063   7.318 -1.0282  0.0306 -0.6933
  298MOL0     H40219   6.437   0.907   7.241 -0.7993 -1.1659  0.3552
  298MOL0     H40220   6.661   0.997   7.274  1.5912  0.0084  1.3990
  298MOL0     H40221   6.630   0.859   7.374 -2.5076 -0.3728 -1.9607
  298MOL0     H40222   6.640   0.971   7.572 -0.1724 -1.3567 -1.1312
  298MOL0     H40223   6.609   1.131   7.497 -0.1580  0.3464  0.3710
  298MOL0     H40224   6.841   0.938   7.491  1.7936  0.5226  1.7023
  298MOL0     H40225   6.829   1.085   7.372 -0.2574  1.0344  0.5419
  298MOL0     H40226   6.926   1.300   7.708  0.0325 -0.4530  1.6134
  298MOL0     H40227   6.270   0.826   7.655  1.8599  4.5053 -2.9835
  298MOL0     H40228   6.048   0.615   7.743 -2.1018 -1.7476  2.4130
  298MOL0     H40229   6.192   0.500   7.750 -0.4589 -0.0044 -4.5088
  298MOL0     H40230   6.218   0.658   7.809  2.1387  0.4470 -1.6973
  299MOL0     O40231   6.439   4.021   1.752  0.6914 -0.7160  0.5316
  299MOL0     C40232   6.319   4.023   1.769  0.9392 -0.4645  1.1025
  299MOL0     O40233   6.255   4.099   1.863 -1.0315  0.3385  0.4530
  299MOL0     C40234   6.335   4.185   1.932  0.0595  0.8140 -0.0957
  299MOL0     C40235   6.288   4.317   1.934  0.1443  0.5732 -0.0437
  299MOL0     C40236   6.372   4.410   2.001 -0.4804 -0.1155 -0.5985
  299MOL0     C40237   6.490   4.375   2.074  0.3864  0.1831 -0.7464
  299MOL0     O40238   6.571   4.458   2.150 -0.0380  1.0913 -0.9349
  299MOL0     C40239   6.536   4.600   2.160 -0.7730 -0.3804  0.7383
  299MOL0     C40240   6.618   4.674   2.054 -1.4064  0.2065 -0.0912
  299MOL0     C40241   6.632   4.822   2.089 -0.5161  0.0883  0.4072
  299MOL0     C40242   6.709   4.897   1.975  0.1527  0.7359 -0.0085
  299MOL0     C40243   6.705   5.048   1.990 -0.1073  0.0274  0.0770
  299MOL0     C40244   6.569   5.112   1.977  0.4729  0.0080  0.1595
  299MOL0     C40245   6.537   5.108   1.815 -0.2755 -0.9618 -1.0373
  299MOL0     C40246   6.383   5.104   1.793  0.2530 -0.1666  0.4699
  299MOL0     N40247   6.337   4.965   1.824  0.7875 -0.0010  0.4327
  299MOL0     C40248   6.370   4.849   1.752 -0.6879  0.5583  0.5827
  299MOL0     C40249   6.269   4.761   1.779 -0.3551 -0.9958 -0.1125
  299MOL0     C40250   6.248   4.619   1.746 -0.1122 -0.9659  0.2347
  299MOL0     C40251   6.214   4.597   1.597 -0.6936  0.0142 -0.0648
  299MOL0     C40252   6.168   4.457   1.571 -0.3724  0.5981  0.1652
  299MOL0     C40253   6.141   4.422   1.422  0.3000 -1.5912 -0.5872
  299MOL0     O40254   6.107   4.292   1.384 -0.1499  0.3583 -0.1735
  299MOL0     C40255   5.973   4.259   1.370 -1.3298  0.5812 -0.1482
  299MOL0     C40256   5.962   4.137   1.299  0.6505  0.3667 -0.3327
  299MOL0     C40257   5.836   4.068   1.285 -1.8175  0.5727 -0.4597
  299MOL0     C40258   5.715   4.123   1.322 -1.3547  1.2916  0.4253
  299MOL0     C40259   5.592   4.057   1.281  0.0489  0.2725 -0.4205
  299MOL0     O40260   5.487   4.138   1.301  1.0701 -0.2425 -0.1183
  299MOL0     C40261   5.363   4.115   1.241 -0.4555  0.0201  0.2971
  299MOL0     C40262   5.275   4.014   1.293  0.5636 -0.2678 -0.2661
  299MOL0     C40263   5.144   3.992   1.247  0.6002  1.3048 -0.8917
  299MOL0     C40264   5.092   4.064   1.140  0.5133  0.6102  0.5576
  299MOL0     O40265   4.974   4.027   1.095  0.1183  0.7950  0.9730
  299MOL0     C40266   4.930   4.057   0.964 -0.1216 -0.3047  0.2263
  299MOL0     C40267   4.788   4.010   0.919  0.2700 -0.8154 -0.0008
  299MOL0     C40268   4.667   4.080   0.991 -0.9106 -0.4858  0.1855
  299MOL0     C40269   4.540   4.077   0.910  0.2637  0.3336  0.3018
  299MOL0     C40270   4.475   3.939   0.907 -0.2100 -0.3182 -0.5913
  299MOL0     C40271   4.451   3.888   1.040  0.2775 -1.0724 -0.3825
  299MOL0     C40272   4.351   3.954   1.132  0.7509  0.2421  0.1027
  299MOL0     C40273   4.208   3.987   1.079  0.7166  0.0725  0.7521
  299MOL0    Cl40274   4.122   3.842   1.063  0.1836 -0.3445 -0.2023
  299MOL0     C40275   5.180   4.150   1.078  0.2526  0.6378  0.1996
  299MOL0     C40276   5.315   4.176   1.120  0.0948 -0.2350 -0.0063
  299MOL0     O40277   5.595   3.946   1.225  0.6238 -0.7293  0.1673
  299MOL0     C40278   5.731   4.242   1.398  0.8089  0.3450 -1.0663
  299MOL0     C40279   5.851   4.308   1.422  0.1980  0.0532  0.8905
  299MOL0     N40280   6.186   4.818   1.879  0.0375  0.5533 -0.3850
  299MOL0     N40281   6.230   4.935   1.895  0.6881 -0.0098  0.0541
  299MOL0     C40282   6.525   4.241   2.071  0.4359  0.1292 -0.4441
  299MOL0     C40283   6.450   4.142   2.000 -0.4440  0.1445  0.1270
  299MOL0     C40284   6.234   3.943   1.671  0.3496 -0.5849 -0.9318
  299MOL0     C40285   6.289   3.915   1.544  0.2235  0.5725  0.6918
  299MOL0     C40286   6.215   3.836   1.454  0.2481  1.0885  0.1852
  299MOL0     C40287   6.073   3.804   1.479 -0.3450  0.0139 -0.0639
  299MOL0     O40288   6.001   3.733   1.382  0.4011 -0.2510  0.2145
  299MOL0     C40289   5.859   3.704   1.398  0.8996 -0.1246  0.1761
  299MOL0     C40290   5.812   3.592   1.302  0.6209 -0.0776 -1.1173
  299MOL0     C40291   5.810   3.620   1.145  0.3483 -1.1136 -0.1691
  299MOL0     C40292   5.740   3.517   1.054  0.3784  0.4478  0.1121
  299MOL0     C40293   5.781   3.384   1.084 -0.1005  0.4628 -0.4028
  299MOL0     C40294   5.818   3.277   1.103  0.5661  0.5040 -0.2428
  299MOL0     C40295   6.021   3.844   1.598  0.3635  0.1768 -0.0575
  299MOL0     C40296   6.098   3.899   1.701 -0.9168 -1.2293 -0.3254
  299MOL0     C40297   6.024   3.934   1.828 -0.2706  0.5865 -0.3579
  299MOL0     H40298   6.199   4.350   1.882  2.0690  2.7514 -2.1980
  299MOL0     H40299   6.340   4.514   1.995  1.0883  0.3022 -3.5541
  299MOL0     H40300   6.429   4.619   2.166 -0.7909 -0.1806 -0.0196
  299MOL0     H40301   6.588   4.624   2.253  3.3562 -0.2976 -1.3554
  299MOL0     H40302   6.571   4.663   1.956  4.3059 -1.6848 -3.1427
  299MOL0     H40303   6.716   4.626   2.050 -2.3336 -1.6661 -2.2768
  299MOL0     H40304   6.679   4.841   2.186 -0.0834  0.8288  0.0587
  299MOL0     H40305   6.532   4.862   2.109  0.1814  2.5974 -0.7702
  299MOL0     H40306   6.816   4.881   1.993  0.8542  3.5885 -1.0926
  299MOL0     H40307   6.682   4.862   1.875  0.9097 -1.0300  0.3733
  299MOL0     H40308   6.738   5.071   2.092  2.6298 -0.5754 -0.6082
  299MOL0     H40309   6.771   5.098   1.919 -1.7399  0.9889 -0.8218
  299MOL0     H40310   6.489   5.054   2.023  1.2612 -1.0094  0.2709
  299MOL0     H40311   6.564   5.209   2.028 -0.2784 -1.9506  4.1972
  299MOL0     H40312   6.583   5.025   1.760  1.7312 -0.5413 -0.0752
  299MOL0     H40313   6.573   5.201   1.769  0.3282 -0.7938 -0.2437
  299MOL0     H40314   6.331   5.163   1.868 -2.3761 -1.2907 -0.3413
  299MOL0     H40315   6.364   5.127   1.688  1.0628 -3.8487 -0.6278
  299MOL0     H40316   6.451   4.829   1.682 -1.9255 -3.0982 -0.0155
  299MOL0     H40317   6.338   4.561   1.768  0.9058  0.3698 -0.2972
  299MOL0     H40318   6.168   4.591   1.816  1.5726  0.6466  3.0237
  299MOL0     H40319   6.133   4.667   1.572 -2.2263 -1.4573  0.5564
  299MOL0     H40320   6.306   4.605   1.539 -1.7915  2.0330 -1.6315
  299MOL0     H40321   6.071   4.446   1.621  0.8343  0.7425  2.7223
  299MOL0     H40322   6.245   4.390   1.612  0.1652 -0.5780 -2.5333
  299MOL0     H40323   6.235   4.449   1.373 -0.0895  3.5696  0.8656
  299MOL0     H40324   6.065   4.489   1.380  0.7805 -0.1949  0.6576
  299MOL0     H40325   6.054   4.095   1.260  1.9568  3.1802 -0.5315
  299MOL0     H40326   5.840   3.975   1.230 -1.1145  0.9094 -1.0002
  299MOL0     H40327   5.302   3.957   1.381 -0.5374 -3.7956 -2.0594
  299MOL0     H40328   5.076   3.922   1.295  3.5205 -0.2964  1.2196
  299MOL0     H40329   4.939   4.165   0.949  0.5253 -0.7163 -3.5104
  299MOL0     H40330   4.988   4.015   0.881  2.5898  2.3916  0.5922
  299MOL0     H40331   4.779   4.007   0.810 -1.4478 -1.1191  0.1285
  299MOL0     H40332   4.782   3.904   0.948 -0.6214 -1.5409 -2.5912
  299MOL0     H40333   4.655   4.067   1.099 -3.2879 -4.0614 -0.3445
  299MOL0     H40334   4.692   4.186   0.980 -1.6217 -0.0454  2.2889
  299MOL0     H40335   4.556   4.112   0.808  2.2875  0.7735  0.7298
  299MOL0     H40336   4.470   4.151   0.950 -0.2430  0.1653 -0.2652
  299MOL0     H40337   4.541   3.869   0.855  2.3320  1.5892 -0.1320
  299MOL0     H40338   4.389   3.944   0.839  1.2302  0.5411 -2.4350
  299MOL0     H40339   4.412   3.787   1.022  2.3245 -1.7159 -1.4357
  299MOL0     H40340   4.549   3.897   1.088  0.6976  3.3281 -1.7069
  299MOL0     H40341   4.394   4.054   1.139  3.4019 -0.8526  0.8215
  299MOL0     H40342   4.356   3.909   1.232  0.3185 -2.2007 -0.8967
  299MOL0     H40343   4.156   4.043   1.157 -0.7337 -1.0414  0.6336
  299MOL0     H40344   4.225   4.038   0.984  3.4319  2.2145  2.2587
  299MOL0     H40345   5.147   4.203   0.989  0.9870 -2.6977 -2.2582
  299MOL0     H40346   5.374   4.256   1.077  0.5535 -0.3518  0.3921
  299MOL0     H40347   5.646   4.286   1.450  3.0976  1.9706  1.5372
  299MOL0     H40348   5.837   4.399   1.479 -1.4820  1.4802 -1.5973
  299MOL0     H40349   6.618   4.231   2.125 -0.1029  1.8722  0.8943
  299MOL0     H40350   6.478   4.037   2.012 -0.7142  0.0020 -0.4386
  299MOL0     H40351   6.395   3.933   1.525  0.6051 -2.3878 -0.6315
  299MOL0     H40352   6.253   3.807   1.357  0.5686  0.5590  0.4670
  299MOL0     H40353   5.798   3.793   1.382 -4.0017 -2.7625  1.9155
  299MOL0     H40354   5.829   3.670   1.497 -2.5055 -3.1730 -1.6302
  299MOL0     H40355   5.708   3.572   1.331  0.7913  3.6059  3.0677
  299MOL0     H40356   5.858   3.495   1.324 -1.0680 -1.1119 -1.9422
  299MOL0     H40357   5.910   3.651   1.111  0.8374 -0.5144  1.6987
  299MOL0     H40358   5.741   3.704   1.137  0.5199 -1.0484 -1.0891
  299MOL0     H40359   5.634   3.540   1.066  0.2119 -0.0902 -0.2885
  299MOL0     H40360   5.772   3.533   0.951  1.3960 -0.8824  0.1896
  299MOL0     H40361   5.851   3.175   1.104  0.8925  0.6092 -0.2995
  299MOL0     H40362   5.917   3.821   1.615  0.3812 -0.0144 -0.2034
  299MOL0     H40363   6.002   4.041   1.826  0.2698  0.8351 -5.1450
  299MOL0     H40364   5.922   3.894   1.817 -1.2519  2.7847  0.2003
  299MOL0     H40365   6.071   3.894   1.918  1.0234  1.1023 -0.7876
  300MOL0     O40366   0.962  10.819   0.033 -0.6097 -0.4443 -0.4947
  300MOL0     C40367   0.908  10.925   0.003 -0.1182  0.7209 -0.2585
  300MOL0     O40368   0.944  10.993  -0.113  0.4828 -0.3164 -0.0776
  300MOL0     C40369   1.014  10.927  -0.210 -0.2582 -0.8128  0.4148
  300MOL0     C40370   0.985  10.811  -0.269  1.4408 -0.1425  1.3367
  300MOL0     C40371   1.059  10.769  -0.384  0.5606  0.6005  0.3692
  300MOL0     C40372   1.168  10.837  -0.422 -0.4831 -0.0748  0.6062
  300MOL0     O40373   1.236  10.805  -0.539  0.2757  0.9903 -0.1754
  300MOL0     C40374   1.281  10.670  -0.544 -0.4300 -0.3947 -0.5353
  300MOL0     C40375   1.359  10.668  -0.679 -0.2555 -0.1026 -0.8148
  300MOL0     C40376   1.480  10.766  -0.677 -0.5147  0.4435  0.3724
  300MOL0     C40377   1.570  10.752  -0.798  0.2162  0.6097  0.4587
  300MOL0     C40378   1.496  10.822  -0.926  0.1448  0.5265 -0.1132
  300MOL0     C40379   1.561  10.757  -1.054  0.8754  0.3269 -0.7070
  300MOL0     C40380   1.714  10.727  -1.054 -1.0635 -0.2231 -0.9819
  300MOL0     C40381   1.785  10.703  -1.186 -0.0749 -1.4799 -0.1068
  300MOL0     N40382   1.774  10.571  -1.237 -0.2659 -0.4170  0.3484
  300MOL0     C40383   1.851  10.461  -1.209 -0.1172 -0.7904 -0.0192
  300MOL0     C40384   1.793  10.354  -1.284 -0.3014  0.2915 -0.7767
  300MOL0     C40385   1.810  10.206  -1.266 -0.2730  0.4696 -0.3121
  300MOL0     C40386   1.919  10.145  -1.162  0.4952 -0.4270  0.3958
  300MOL0     C40387   1.881  10.185  -1.014 -0.1914 -0.2352  0.7803
  300MOL0     C40388   1.973  10.118  -0.918 -0.0048  1.1128  0.1797
  300MOL0     O40389   1.953   9.970  -0.932  0.3593  0.6565  0.2019
  300MOL0     C40390   1.937   9.881  -0.827  0.6019  0.1859  0.0391
  300MOL0     C40391   1.942   9.908  -0.688 -0.0500  0.7629 -0.2836
  300MOL0     C40392   1.901   9.801  -0.598 -0.3584  0.0396  0.9468
  300MOL0     C40393   1.853   9.682  -0.644 -0.4008 -0.9917  0.3322
  300MOL0     C40394   1.805   9.589  -0.549  0.8236 -0.7996 -0.1974
  300MOL0     O40395   1.722   9.500  -0.589  0.1457 -0.9689  0.1581
  300MOL0     C40396   1.687   9.402  -0.503 -0.5564 -0.4996 -0.4823
  300MOL0     C40397   1.710   9.270  -0.534 -0.1885  0.1336 -1.1250
  300MOL0     C40398   1.692   9.171  -0.437  0.0768  1.0522 -0.4479
  300MOL0     C40399   1.632   9.193  -0.312  0.4218  0.1654  0.4850
  300MOL0     O40400   1.601   9.095  -0.226  0.2408 -0.2686  0.4940
  300MOL0     C40401   1.621   8.958  -0.255  0.5308  0.6490 -0.0072
  300MOL0     C40402   1.545   8.876  -0.143 -0.8419 -0.4422  0.1557
  300MOL0     C40403   1.620   8.864  -0.007 -0.2423  0.8905  0.4049
  300MOL0     C40404   1.577   8.739   0.072 -0.3381  0.6333 -0.1661
  300MOL0     C40405   1.692   8.698   0.168 -0.2906  0.4497 -0.3299
  300MOL0     C40406   1.645   8.595   0.271 -0.0628 -0.4435  0.6809
  300MOL0     C40407   1.756   8.551   0.357 -0.8365  0.2396 -0.6670
  300MOL0     C40408   1.711   8.436   0.441 -0.4356 -0.0939 -0.2691
  300MOL0    Cl40409   1.612   8.486   0.574  0.2515 -0.4277  0.5296
  300MOL0     C40410   1.609   9.330  -0.284 -0.2469 -0.0843 -0.4277
  300MOL0     C40411   1.629   9.432  -0.377  1.0315  0.9435  0.2051
  300MOL0     O40412   1.854   9.597  -0.433 -0.5461  0.3926  0.2430
  300MOL0     C40413   1.855   9.659  -0.787  0.1304 -0.7309 -1.0781
  300MOL0     C40414   1.891   9.756  -0.878 -0.6582 -0.8690 -0.1002
  300MOL0     N40415   1.681  10.402  -1.346  0.6331 -0.4606 -0.6671
  300MOL0     N40416   1.674  10.537  -1.319  0.3684  0.4801 -1.6693
  300MOL0     C40417   1.217  10.940  -0.347 -0.0370 -0.9221  0.4268
  300MOL0     C40418   1.137  10.995  -0.251  0.4417 -0.5188  0.2015
  300MOL0     C40419   0.794  10.978   0.077  0.1644 -0.9160  0.8031
  300MOL0     C40420   0.710  11.060   0.002 -0.0321 -0.4629 -0.3422
  300MOL0     C40421   0.587  11.095   0.063  0.3368  0.2018 -0.0654
  300MOL0     C40422   0.544  11.036   0.184 -0.2911  1.3193 -0.4510
  300MOL0     O40423   0.417  11.063   0.227  0.2578  0.0984 -0.0327
  300MOL0     C40424   0.385  11.093   0.362 -0.0046  0.6170  0.4558
  300MOL0     C40425   0.234  11.138   0.381  0.2907  0.6697 -0.2535
  300MOL0     C40426   0.220  11.229   0.502 -0.8161  0.3483 -0.3818
  300MOL0     C40427   0.069  11.256   0.517  0.1005  0.3479 -0.2732
  300MOL0     C40428  -0.001  11.155   0.590  0.3491  0.1030 -0.3423
  300MOL0     C40429  -0.071  11.064   0.632 -0.1285 -0.6262 -0.2230
  300MOL0     C40430   0.640  10.972   0.261 -1.1991  0.1606 -0.7070
  300MOL0     C40431   0.761  10.937   0.209 -0.2396 -0.2727  0.0383
  300MOL0     C40432   0.847  10.859   0.303 -1.4990  0.0875  0.4796
  300MOL0     H40433   0.889  10.766  -0.244  0.8093 -1.1124 -2.2556
  300MOL0     H40434   1.017  10.700  -0.456  2.7563  1.8053 -2.2438
  300MOL0     H40435   1.321  10.645  -0.446 -3.3951  1.6395  1.3524
  300MOL0     H40436   1.199  10.599  -0.550 -0.7041 -0.3376  1.7388
  300MOL0     H40437   1.301  10.687  -0.770 -1.1090 -1.7561 -0.6572
  300MOL0     H40438   1.399  10.566  -0.684  1.3416  0.3857  0.8498
  300MOL0     H40439   1.543  10.748  -0.589 -0.2194 -0.1828  0.0437
  300MOL0     H40440   1.446  10.868  -0.662 -1.1612 -0.0040  2.2433
  300MOL0     H40441   1.660  10.812  -0.786  1.2578 -0.3303 -2.0204
  300MOL0     H40442   1.592  10.645  -0.808  0.0875  0.5213  1.0709
  300MOL0     H40443   1.389  10.801  -0.920  0.5957 -1.7942  0.9278
  300MOL0     H40444   1.516  10.929  -0.929 -2.3820  1.0725  0.3563
  300MOL0     H40445   1.531  10.652  -1.058  2.9706 -0.6067  2.9221
  300MOL0     H40446   1.529  10.823  -1.135 -2.8753 -0.1631  0.1765
  300MOL0     H40447   1.735  10.639  -0.993  0.8925  0.6680 -0.2903
  300MOL0     H40448   1.764  10.799  -0.988 -0.8122 -0.8103 -0.5306
  300MOL0     H40449   1.738  10.771  -1.257  0.8402  1.4241  1.9062
  300MOL0     H40450   1.892  10.724  -1.193  0.2762 -2.7363  1.0618
  300MOL0     H40451   1.924  10.459  -1.128 -1.1089  0.3213  0.9516
  300MOL0     H40452   1.713  10.158  -1.248  0.4833 -0.8585  0.3819
  300MOL0     H40453   1.840  10.172  -1.365 -0.7578 -1.0270  0.0192
  300MOL0     H40454   1.915  10.036  -1.156  0.5281 -0.4550 -0.0206
  300MOL0     H40455   2.019  10.177  -1.194 -0.8369  4.4122  0.2558
  300MOL0     H40456   1.774  10.165  -1.003 -0.0973 -2.1228 -1.1322
  300MOL0     H40457   1.892  10.293  -1.001 -0.7266 -0.1289  0.3717
  300MOL0     H40458   1.957  10.146  -0.813 -3.3374 -1.8612  0.6461
  300MOL0     H40459   2.075  10.145  -0.945 -0.2279  2.4956  0.6533
  300MOL0     H40460   1.966  10.004  -0.643 -0.2655 -0.2186  2.1115
  300MOL0     H40461   1.911   9.814  -0.491  0.8364  0.9883  0.7317
  300MOL0     H40462   1.754   9.248  -0.630  0.5809  3.4230 -1.6296
  300MOL0     H40463   1.723   9.068  -0.453 -0.3335  0.3433  2.7303
  300MOL0     H40464   1.563   8.930  -0.344 -1.4451 -2.3168  2.0425
  300MOL0     H40465   1.726   8.937  -0.276  0.2590 -1.0305  0.1771
  300MOL0     H40466   1.447   8.918  -0.120 -0.4955 -0.0289  0.9391
  300MOL0     H40467   1.528   8.778  -0.190  0.3023 -0.4894 -0.2003
  300MOL0     H40468   1.729   8.857  -0.018 -0.0021 -0.6834  2.8942
  300MOL0     H40469   1.596   8.954   0.049  0.6461  2.1659 -1.1755
  300MOL0     H40470   1.554   8.646   0.019  1.2637  0.1781 -0.1215
  300MOL0     H40471   1.491   8.761   0.135 -1.4121 -0.4146 -1.2072
  300MOL0     H40472   1.713   8.787   0.229 -0.7988  0.7220 -0.5453
  300MOL0     H40473   1.778   8.654   0.119  1.3148  2.7320  0.2472
  300MOL0     H40474   1.562   8.623   0.336 -0.8210 -1.5852  0.2398
  300MOL0     H40475   1.600   8.512   0.216 -0.6973  0.9539 -1.0257
  300MOL0     H40476   1.790   8.633   0.422 -0.4911 -2.3588  2.7223
  300MOL0     H40477   1.834   8.506   0.296 -0.7927 -0.2395 -0.2660
  300MOL0     H40478   1.658   8.357   0.388 -0.4228  0.3955 -1.0353
  300MOL0     H40479   1.795   8.389   0.493 -0.1281 -1.0623 -1.6079
  300MOL0     H40480   1.564   9.346  -0.187  4.0714 -0.9196  1.9533
  300MOL0     H40481   1.595   9.525  -0.332  0.0043 -0.4532  2.5001
  300MOL0     H40482   1.830   9.558  -0.821  0.7497 -1.6530  1.0559
  300MOL0     H40483   1.892   9.726  -0.982  0.2241  1.1792 -0.7385
  300MOL0     H40484   1.289  11.004  -0.398 -0.0460 -2.2269 -1.3054
  300MOL0     H40485   1.160  11.088  -0.201 -0.1736  0.5586 -1.4237
  300MOL0     H40486   0.737  11.104  -0.093 -2.1023 -1.1836 -1.3117
  300MOL0     H40487   0.513  11.160   0.018  1.9614  1.0652 -1.6064
  300MOL0     H40488   0.451  11.173   0.397 -0.1853  1.8382 -1.7786
  300MOL0     H40489   0.398  11.002   0.421  4.5515 -0.2819 -1.5392
  300MOL0     H40490   0.171  11.048   0.390 -0.7558  1.2247 -1.6242
  300MOL0     H40491   0.196  11.193   0.294  1.0055  0.0430 -0.9766
  300MOL0     H40492   0.262  11.330   0.495 -0.6064  0.4037  1.2419
  300MOL0     H40493   0.245  11.182   0.598  0.1471 -1.1493 -1.3169
  300MOL0     H40494   0.055  11.352   0.568  0.2881  0.8827 -1.2130
  300MOL0     H40495   0.023  11.265   0.418 -2.4958 -1.3965  0.6776
  300MOL0     H40496  -0.126  10.978   0.665  0.7635 -1.2655 -0.3759
  300MOL0     H40497   0.600  10.941   0.357 -0.4217  1.5573  0.0974
  300MOL0     H40498   0.842  10.755   0.270 -2.4645  0.9697 -2.5075
  300MOL0     H40499   0.949  10.897   0.293 -0.3669 -2.5478  1.3984
  300MOL0     H40500   0.821  10.870   0.408 -1.1528  0.0953  0.5662
  301MOL0     O40501   3.099   8.920   6.991 -0.0995 -0.2162  0.5495
  301MOL0     C40502   3.101   9.037   7.028  0.4461 -1.0195  0.0897
  301MOL0     O40503   3.087   9.076   7.152 -1.0491 -0.5530 -0.1977
  301MOL0     C40504   3.053   8.977   7.245 -0.2743  0.3829  0.1914
  301MOL0     C40505   3.148   8.899   7.308 -0.8566 -0.8426  0.6251
  301MOL0     C40506   3.103   8.801   7.389 -0.4668  0.5589 -0.2881
  301MOL0     C40507   2.974   8.787   7.438 -0.3883 -0.6060  0.8424
  301MOL0     O40508   2.967   8.701   7.541 -0.0998 -0.4567  0.0687
  301MOL0     C40509   2.845   8.645   7.586 -0.0236 -0.5200 -0.4407
  301MOL0     C40510   2.783   8.553   7.486 -1.3438  0.4530 -0.4947
  301MOL0     C40511   2.668   8.476   7.556  1.0463 -0.7913 -0.3485
  301MOL0     C40512   2.603   8.377   7.464 -0.3364  0.1476 -0.6145
  301MOL0     C40513   2.474   8.308   7.518 -0.0879  0.5409 -0.0308
  301MOL0     C40514   2.360   8.415   7.504  0.3270 -0.1643 -0.3031
  301MOL0     C40515   2.224   8.362   7.546 -0.2594 -0.3357 -0.6404
  301MOL0     C40516   2.227   8.343   7.703 -1.3007  0.7376  0.1010
  301MOL0     N40517   2.148   8.456   7.760  0.3630 -0.0714 -0.9456
  301MOL0     C40518   2.194   8.578   7.797 -0.4312 -0.6277  0.9909
  301MOL0     C40519   2.084   8.657   7.822  0.0400 -0.2779 -0.3188
  301MOL0     C40520   2.102   8.810   7.842 -0.2011 -0.8384  0.6083
  301MOL0     C40521   2.126   8.875   7.702  0.1130 -0.3016 -0.9202
  301MOL0     C40522   1.993   8.949   7.648  0.1505 -1.0783  0.0903
  301MOL0     C40523   2.013   9.004   7.508 -0.4718  0.8044  0.7609
  301MOL0     O40524   2.140   9.066   7.476 -0.5056 -0.6510  0.0126
  301MOL0     C40525   2.179   9.100   7.349 -0.5273  1.2086 -0.6576
  301MOL0     C40526   2.106   9.053   7.235 -0.5319  0.2076 -0.0691
  301MOL0     C40527   2.144   9.084   7.110 -0.2583  0.0116  0.3337
  301MOL0     C40528   2.265   9.142   7.087 -0.1279 -0.5409 -0.4456
  301MOL0     C40529   2.330   9.146   6.957  1.1686 -0.2369  0.0549
  301MOL0     O40530   2.318   9.028   6.893 -0.0967  0.0771 -0.0062
  301MOL0     C40531   2.378   9.018   6.773  0.8104 -0.0584 -0.4385
  301MOL0     C40532   2.308   8.998   6.652 -0.1857 -0.3015  0.1460
  301MOL0     C40533   2.380   8.979   6.537 -1.0881  0.1883 -0.1816
  301MOL0     C40534   2.519   8.968   6.533  0.7812 -0.3015  0.2651
  301MOL0     O40535   2.583   8.925   6.416 -0.5743 -0.5847 -0.4567
  301MOL0     C40536   2.728   8.912   6.406 -0.1552 -0.1953  0.5645
  301MOL0     C40537   2.764   8.839   6.281 -0.1888 -0.2791  0.5360
  301MOL0     C40538   2.911   8.855   6.245 -0.9046  0.0313  0.4804
  301MOL0     C40539   2.951   8.774   6.120  0.0428 -0.1677 -0.3732
  301MOL0     C40540   3.092   8.814   6.064 -0.0021 -0.1028  0.1164
  301MOL0     C40541   3.199   8.744   6.142  0.2246 -0.0554  0.0646
  301MOL0     C40542   3.337   8.770   6.084 -0.1634 -0.2308  1.2162
  301MOL0     C40543   3.424   8.644   6.065  0.3933  0.1962 -0.5752
  301MOL0    Cl40544   3.426   8.544   6.224  0.4297  0.1209 -0.0114
  301MOL0     C40545   2.589   8.990   6.653  0.0935 -0.5249  0.9157
  301MOL0     C40546   2.515   9.017   6.768  1.5979  0.7978  0.3770
  301MOL0     O40547   2.375   9.250   6.909 -0.2094 -0.0820  0.2348
  301MOL0     C40548   2.338   9.197   7.198  0.2607 -0.0391  0.3421
  301MOL0     C40549   2.293   9.174   7.333 -0.5084  0.0492  0.8712
  301MOL0     N40550   1.980   8.574   7.802 -0.1243  0.1345  0.3908
  301MOL0     N40551   2.014   8.459   7.759 -1.3056  0.1359 -0.7908
  301MOL0     C40552   2.887   8.874   7.371 -0.5221  0.4161 -0.2814
  301MOL0     C40553   2.927   8.965   7.278 -0.0778  0.2105  1.6071
  301MOL0     C40554   3.136   9.141   6.931  0.4998  0.7097  1.0246
  301MOL0     C40555   3.226   9.237   6.977  0.2432  0.6446  0.2944
  301MOL0     C40556   3.264   9.348   6.908  1.9052  0.2337  0.2257
  301MOL0     C40557   3.197   9.375   6.787 -0.2075  0.0265 -0.1388
  301MOL0     O40558   3.217   9.488   6.716 -0.1922 -0.3098  0.0191
  301MOL0     C40559   3.351   9.546   6.739  0.0510 -0.1796  0.4857
  301MOL0     C40560   3.363   9.665   6.645  0.1190  0.9568  1.2731
  301MOL0     C40561   3.451   9.774   6.686  0.7541 -0.0678  0.2278
  301MOL0     C40562   3.443   9.892   6.578  0.2981  0.6193 -0.4098
  301MOL0     C40563   3.567   9.975   6.571  0.5670 -0.7152  0.3457
  301MOL0     C40564   3.677  10.028   6.557  0.2854  0.5148  0.0423
  301MOL0     C40565   3.103   9.284   6.735 -0.0710  0.1770 -0.8274
  301MOL0     C40566   3.077   9.160   6.803 -0.8529  0.5857  0.0861
  301MOL0     C40567   2.965   9.065   6.757 -0.3217 -0.1094  0.3568
  301MOL0     H40568   3.254   8.922   7.299 -1.5506  2.0467 -1.3844
  301MOL0     H40569   3.183   8.737   7.426  1.7462  1.3753 -3.2446
  301MOL0     H40570   2.880   8.589   7.673  1.5577 -1.5928 -1.7091
  301MOL0     H40571   2.767   8.713   7.622 -0.1234  0.2261 -1.9741
  301MOL0     H40572   2.860   8.480   7.460 -2.4267 -2.3729  3.3538
  301MOL0     H40573   2.750   8.606   7.396 -2.1105  0.7242 -0.0705
  301MOL0     H40574   2.607   8.554   7.601  1.5138 -1.5983  1.8081
  301MOL0     H40575   2.718   8.422   7.638 -0.2090 -0.1184  0.8987
  301MOL0     H40576   2.582   8.422   7.366 -2.3205 -1.7357 -1.1404
  301MOL0     H40577   2.674   8.295   7.443  0.1466  0.2976  0.4112
  301MOL0     H40578   2.429   8.222   7.465  2.3475 -2.0661  1.8252
  301MOL0     H40579   2.486   8.277   7.622  2.5413 -0.7973 -0.6457
  301MOL0     H40580   2.381   8.511   7.552  2.9967 -1.8888  2.3562
  301MOL0     H40581   2.359   8.449   7.400  4.7707  0.7942 -0.2248
  301MOL0     H40582   2.195   8.269   7.497 -2.4670  1.4191 -2.9108
  301MOL0     H40583   2.143   8.431   7.521 -0.9031 -1.9316 -3.3249
  301MOL0     H40584   2.183   8.247   7.731  1.0963 -0.2839  0.7010
  301MOL0     H40585   2.328   8.340   7.746 -0.6495 -1.5216 -1.3778
  301MOL0     H40586   2.295   8.614   7.777 -1.7446  1.1835 -3.9358
  301MOL0     H40587   2.017   8.853   7.896 -3.5240 -2.0828 -3.1251
  301MOL0     H40588   2.194   8.816   7.900  0.7866  1.5598 -1.0003
  301MOL0     H40589   2.204   8.951   7.711 -1.3863  1.2645 -0.6352
  301MOL0     H40590   2.168   8.806   7.628 -0.3453 -1.9543  0.3015
  301MOL0     H40591   1.975   9.034   7.714 -0.3836 -0.4129 -0.8868
  301MOL0     H40592   1.901   8.890   7.644 -0.4164 -0.2342  0.4429
  301MOL0     H40593   1.932   9.076   7.487  1.0207  2.0259 -1.2235
  301MOL0     H40594   2.005   8.916   7.443  1.7677  2.2495 -1.6764
  301MOL0     H40595   2.012   9.000   7.244 -0.3554 -0.7477 -3.0284
  301MOL0     H40596   2.091   9.045   7.023  0.5063 -3.4818  1.2749
  301MOL0     H40597   2.203   8.969   6.656  0.2529 -1.8385  2.3106
  301MOL0     H40598   2.313   8.963   6.453 -1.1444 -0.0083 -0.0999
  301MOL0     H40599   2.776   9.009   6.421  0.4450 -0.5824  1.2127
  301MOL0     H40600   2.770   8.844   6.481  1.6640 -0.6449 -0.7762
  301MOL0     H40601   2.737   8.733   6.283  1.0290 -0.6500 -0.7021
  301MOL0     H40602   2.709   8.891   6.203 -1.6878  0.5836  2.1045
  301MOL0     H40603   2.933   8.958   6.216  1.2777 -0.4964  0.1093
  301MOL0     H40604   2.969   8.821   6.332 -1.0601 -0.0065  0.5710
  301MOL0     H40605   2.876   8.812   6.051 -0.2210  0.2354  0.1323
  301MOL0     H40606   2.946   8.665   6.128  0.2841 -0.2188 -0.8289
  301MOL0     H40607   3.098   8.923   6.067 -2.3672  0.1427 -1.1833
  301MOL0     H40608   3.099   8.794   5.957  1.5337  0.4550  0.0919
  301MOL0     H40609   3.200   8.773   6.248  1.0018 -1.2185  0.3908
  301MOL0     H40610   3.174   8.637   6.143 -0.8712  0.0713  3.8775
  301MOL0     H40611   3.392   8.845   6.143 -0.9380  2.5423 -1.3631
  301MOL0     H40612   3.343   8.818   5.986  1.3894 -1.4845  0.6615
  301MOL0     H40613   3.393   8.594   5.973 -1.7876 -0.8313  0.6321
  301MOL0     H40614   3.520   8.681   6.029  0.9210 -1.5657 -1.0308
  301MOL0     H40615   2.694   8.964   6.661  0.1195 -0.2235  1.6068
  301MOL0     H40616   2.558   9.032   6.867  1.7720  1.6872  0.1742
  301MOL0     H40617   2.425   9.258   7.176  2.0304 -2.4954  0.1479
  301MOL0     H40618   2.360   9.220   7.405 -0.9086 -1.3262  2.1790
  301MOL0     H40619   2.780   8.858   7.376 -0.3349 -0.8051  0.1659
  301MOL0     H40620   2.861   9.025   7.216  1.8313  0.3496 -0.4464
  301MOL0     H40621   3.272   9.222   7.074  2.0059  2.7098 -0.1481
  301MOL0     H40622   3.328   9.424   6.952 -0.0010  2.7249 -1.0323
  301MOL0     H40623   3.429   9.472   6.721  1.1574  1.4395 -2.0427
  301MOL0     H40624   3.370   9.577   6.842  1.4417 -0.2442  0.2686
  301MOL0     H40625   3.266   9.716   6.649 -0.8927 -0.7442  0.0663
  301MOL0     H40626   3.372   9.636   6.540 -0.8416  3.9686  0.2739
  301MOL0     H40627   3.552   9.732   6.695  0.5123 -0.5766  0.5946
  301MOL0     H40628   3.427   9.814   6.785  0.2518 -4.2159  1.9851
  301MOL0     H40629   3.417   9.853   6.479 -2.0687  1.7136 -0.2783
  301MOL0     H40630   3.364   9.966   6.597  2.5997  2.8050  1.3468
  301MOL0     H40631   3.776  10.064   6.537  1.4719 -0.6905  3.1199
  301MOL0     H40632   3.061   9.311   6.639  0.5146  2.2237 -0.5450
  301MOL0     H40633   2.876   9.076   6.820  0.6532  0.3870  1.6873
  301MOL0     H40634   2.933   9.079   6.653  2.4662 -1.0694 -0.7206
  301MOL0     H40635   3.000   8.962   6.771 -0.7716 -0.0048  2.7054
  302MOL0     O40636   2.259   6.815   0.467 -0.5514 -0.2345 -0.5303
  302MOL0     C40637   2.288   6.933   0.493 -0.0959  0.5708 -0.1355
  302MOL0     O40638   2.233   7.042   0.430 -0.0884  0.1579  0.4472
  302MOL0     C40639   2.117   7.036   0.355 -0.1960 -0.4586  1.0196
  302MOL0     C40640   2.009   6.952   0.368  1.2738  0.2794 -0.0215
  302MOL0     C40641   1.899   6.956   0.285  0.2543  0.3124  0.0163
  302MOL0     C40642   1.896   7.032   0.172 -0.3050  0.3228  0.0052
  302MOL0     O40643   1.798   7.028   0.077 -0.2876  0.7356 -0.1553
  302MOL0     C40644   1.850   6.990  -0.052 -0.1524 -0.3831  0.7500
  302MOL0     C40645   1.744   6.928  -0.147 -0.7977 -0.2317 -0.2551
  302MOL0     C40646   1.732   6.778  -0.132  0.0069 -0.5340  0.9126
  302MOL0     C40647   1.583   6.731  -0.129  0.8797  0.5196 -0.2679
  302MOL0     C40648   1.567   6.573  -0.130 -0.8770  0.1267  0.8188
  302MOL0     C40649   1.632   6.514  -0.256  0.3230  0.8669 -0.2860
  302MOL0     C40650   1.584   6.372  -0.283 -1.4185 -0.0284  0.4511
  302MOL0     C40651   1.676   6.309  -0.392 -0.4164 -0.4074 -0.0432
  302MOL0     N40652   1.637   6.173  -0.423  0.3844  0.3497 -0.1083
  302MOL0     C40653   1.693   6.044  -0.390  0.8983 -0.2525  0.4706
  302MOL0     C40654   1.628   5.962  -0.478  0.5451 -0.2311 -1.1669
  302MOL0     C40655   1.654   5.818  -0.481 -0.6286  0.3426  0.0703
  302MOL0     C40656   1.533   5.729  -0.444  0.3183 -0.5521 -0.9974
  302MOL0     C40657   1.479   5.761  -0.304  0.6762 -0.2177 -0.1171
  302MOL0     C40658   1.576   5.737  -0.182  1.0569  0.6665 -0.1100
  302MOL0     O40659   1.664   5.845  -0.172 -0.1794  0.5250 -0.0813
  302MOL0     C40660   1.647   5.925  -0.058 -0.0248  0.3061 -0.2947
  302MOL0     C40661   1.563   6.047  -0.062  0.5062  0.1367 -0.4546
  302MOL0     C40662   1.549   6.116   0.061  0.0515 -0.1770  0.5399
  302MOL0     C40663   1.619   6.071   0.179  0.1249 -0.4267  0.3425
  302MOL0     C40664   1.596   6.148   0.314  0.2043 -0.8636  0.6914
  302MOL0     O40665   1.645   6.096   0.428  0.0230  0.5788 -0.7231
  302MOL0     C40666   1.605   6.137   0.560  0.0377 -0.4073 -0.2285
  302MOL0     C40667   1.496   6.227   0.590  0.2350  0.0209  0.0503
  302MOL0     C40668   1.471   6.274   0.716 -1.1820  0.3111 -0.2385
  302MOL0     C40669   1.553   6.241   0.822  0.2479 -0.8450  0.4322
  302MOL0     O40670   1.547   6.290   0.950 -0.2006  0.3324  0.3191
  302MOL0     C40671   1.446   6.387   0.992 -0.2967 -0.0883 -0.3824
  302MOL0     C40672   1.471   6.416   1.135 -0.7243  0.0140 -0.6486
  302MOL0     C40673   1.516   6.308   1.229 -0.2194 -0.0599  0.2496
  302MOL0     C40674   1.481   6.333   1.376 -0.1263  0.1458 -0.4772
  302MOL0     C40675   1.530   6.219   1.462  0.0116  0.2661 -0.1788
  302MOL0     C40676   1.504   6.232   1.615 -0.4962 -0.2377 -0.4220
  302MOL0     C40677   1.618   6.317   1.671 -0.0448  1.0092  0.0213
  302MOL0     C40678   1.592   6.369   1.816 -0.1240  0.5384  0.6251
  302MOL0    Cl40679   1.518   6.231   1.906 -0.0159 -0.0180  0.2265
  302MOL0     C40680   1.646   6.136   0.799  0.5690 -0.0027  0.6732
  302MOL0     C40681   1.676   6.086   0.668 -0.3994  0.6723  0.3174
  302MOL0     O40682   1.549   6.265   0.304  0.3452  0.2322  0.0933
  302MOL0     C40683   1.692   5.953   0.178  0.8445 -0.9849  0.0918
  302MOL0     C40684   1.712   5.887   0.062 -0.1097  1.3336  1.1222
  302MOL0     N40685   1.542   6.031  -0.563 -0.3414  0.1398  0.1656
  302MOL0     N40686   1.544   6.159  -0.528 -0.5308  0.1088  0.5328
  302MOL0     C40687   1.992   7.131   0.167 -0.0334  0.4053 -1.0770
  302MOL0     C40688   2.094   7.136   0.258  0.8259  0.4325 -0.2280
  302MOL0     C40689   2.378   6.962   0.605  0.5396  0.0991 -1.1638
  302MOL0     C40690   2.395   7.097   0.648  0.2223  0.5308  0.2303
  302MOL0     C40691   2.487   7.128   0.740 -0.4014 -0.1791  0.3051
  302MOL0     C40692   2.553   7.037   0.823  0.4236  0.6260  1.1351
  302MOL0     O40693   2.639   7.079   0.922  1.0588  0.5316 -0.6111
  302MOL0     C40694   2.772   7.010   0.922 -1.0887 -0.8521  0.3120
  302MOL0     C40695   2.885   7.103   0.978 -0.0320  0.3965 -0.4348
  302MOL0     C40696   2.926   7.068   1.125  0.1642  0.5923  0.7079
  302MOL0     C40697   2.806   7.028   1.215 -0.3172 -1.0849  1.2186
  302MOL0     C40698   2.836   7.024   1.362 -0.5676  0.0699  0.3724
  302MOL0     C40699   2.870   7.016   1.475  0.6887 -0.6174  0.5759
  302MOL0     C40700   2.525   6.900   0.793  0.3617  0.5352 -0.8408
  302MOL0     C40701   2.437   6.862   0.683  0.4628 -0.3215  0.6730
  302MOL0     C40702   2.416   6.715   0.668  0.6025 -0.3253  0.5945
  302MOL0     H40703   2.008   6.889   0.456 -1.3383 -2.3990 -1.8002
  302MOL0     H40704   1.808   6.904   0.312 -0.6164  2.1428  0.8059
  302MOL0     H40705   1.895   7.069  -0.113  0.0764 -1.3134 -0.3152
  302MOL0     H40706   1.937   6.924  -0.043 -0.3595 -0.5597  1.5284
  302MOL0     H40707   1.773   6.950  -0.250 -0.5248  1.9145  0.2279
  302MOL0     H40708   1.645   6.969  -0.127 -0.4197  0.5763  0.0145
  302MOL0     H40709   1.790   6.756  -0.043  3.2049 -0.3004 -0.9779
  302MOL0     H40710   1.774   6.725  -0.218 -0.7573 -1.1854  0.9324
  302MOL0     H40711   1.524   6.772  -0.045  1.7801 -0.7474  1.0271
  302MOL0     H40712   1.546   6.760  -0.228 -1.1036 -1.7398 -0.2941
  302MOL0     H40713   1.618   6.529  -0.044  0.0116  0.6274  0.5670
  302MOL0     H40714   1.458   6.559  -0.130 -1.4852  3.7790  0.3292
  302MOL0     H40715   1.605   6.574  -0.344  0.5998  1.8222  0.2665
  302MOL0     H40716   1.741   6.515  -0.258  0.3521 -0.9604 -1.0436
  302MOL0     H40717   1.481   6.376  -0.320 -0.6661  1.2158 -1.6997
  302MOL0     H40718   1.591   6.317  -0.189  0.4748 -1.2117 -0.3330
  302MOL0     H40719   1.678   6.361  -0.488 -0.3554  0.7444  0.5739
  302MOL0     H40720   1.780   6.303  -0.361 -0.1923  0.5917 -0.5719
  302MOL0     H40721   1.779   6.030  -0.325 -0.3534  0.7873  2.4326
  302MOL0     H40722   1.682   5.793  -0.583  1.5014 -1.1025  0.9474
  302MOL0     H40723   1.737   5.784  -0.419 -1.7514 -3.0337 -0.0736
  302MOL0     H40724   1.449   5.747  -0.511 -0.4837  2.3446  0.5953
  302MOL0     H40725   1.555   5.622  -0.454 -2.6473 -1.2831 -0.5712
  302MOL0     H40726   1.393   5.693  -0.301  0.8257 -0.4577 -1.0997
  302MOL0     H40727   1.435   5.861  -0.300 -0.9967 -0.9586  1.0869
  302MOL0     H40728   1.625   5.645  -0.218 -2.2480 -0.8817 -1.0510
  302MOL0     H40729   1.518   5.713  -0.093  2.1593 -4.1296 -0.4225
  302MOL0     H40730   1.514   6.066  -0.156  0.8856 -1.3716 -0.9788
  302MOL0     H40731   1.475   6.195   0.063  2.2891  2.1449 -1.7214
  302MOL0     H40732   1.425   6.261   0.515  0.0555 -0.7158 -0.1246
  302MOL0     H40733   1.405   6.359   0.730  0.4956  1.2659  2.8722
  302MOL0     H40734   1.456   6.476   0.930  1.1976 -2.3685 -3.7122
  302MOL0     H40735   1.346   6.343   0.977 -0.0966 -0.7275  0.1023
  302MOL0     H40736   1.554   6.488   1.135 -2.8697  2.6573 -0.3736
  302MOL0     H40737   1.379   6.464   1.170 -0.1256  0.1533  0.8186
  302MOL0     H40738   1.473   6.214   1.193 -0.0531  0.0049 -0.1185
  302MOL0     H40739   1.625   6.301   1.215 -0.4202  0.3536 -1.8268
  302MOL0     H40740   1.374   6.332   1.402 -0.1332 -0.6094 -0.4939
  302MOL0     H40741   1.526   6.426   1.410 -0.2172 -0.4615  1.4472
  302MOL0     H40742   1.636   6.210   1.435 -0.0930 -0.1708 -0.4515
  302MOL0     H40743   1.476   6.129   1.432 -4.5330  3.2448 -1.9674
  302MOL0     H40744   1.411   6.280   1.649 -1.7913 -2.1759 -1.0900
  302MOL0     H40745   1.517   6.129   1.651 -2.1753 -0.6961 -1.0265
  302MOL0     H40746   1.636   6.397   1.598  0.9944 -1.1255 -2.2267
  302MOL0     H40747   1.709   6.257   1.662 -0.3661  0.7483 -1.9958
  302MOL0     H40748   1.690   6.405   1.846  0.6231 -1.7855  1.2267
  302MOL0     H40749   1.534   6.461   1.808  0.6626  0.8945 -2.1135
  302MOL0     H40750   1.706   6.114   0.886 -0.7279 -1.6556  1.1994
  302MOL0     H40751   1.754   6.011   0.661 -1.5544 -0.5732  0.3926
  302MOL0     H40752   1.741   5.914   0.266 -0.1847 -2.6557 -0.0362
  302MOL0     H40753   1.784   5.807   0.049  0.5015  2.2831 -2.3436
  302MOL0     H40754   1.981   7.208   0.091  1.5339  0.3461 -1.4102
  302MOL0     H40755   2.164   7.219   0.250 -0.7731  1.7341 -1.4418
  302MOL0     H40756   2.357   7.183   0.594 -0.9098  0.1766  0.4392
  302MOL0     H40757   2.505   7.231   0.768  0.5171  0.4273 -2.2841
  302MOL0     H40758   2.790   6.991   0.816 -0.8105 -2.7758  0.6763
  302MOL0     H40759   2.752   6.915   0.972 -1.3919 -0.1990  1.4761
  302MOL0     H40760   2.854   7.208   0.978  1.5947  0.9380  1.2382
  302MOL0     H40761   2.976   7.103   0.917  2.9271  0.3148  3.5690
  302MOL0     H40762   2.968   7.162   1.161  3.4533  0.0119 -1.2181
  302MOL0     H40763   3.008   6.997   1.115  1.9716  2.8187 -1.2216
  302MOL0     H40764   2.737   7.111   1.201  4.6092  3.3997  0.4973
  302MOL0     H40765   2.773   6.929   1.180 -1.3054  0.7069 -3.6383
  302MOL0     H40766   2.908   6.998   1.574 -0.7944  0.2598  1.3299
  302MOL0     H40767   2.565   6.836   0.871  0.8852  4.7976  2.7847
  302MOL0     H40768   2.431   6.677   0.567  0.7052  1.0966  0.0519
  302MOL0     H40769   2.487   6.664   0.734  1.1074 -0.7128 -0.2393
  302MOL0     H40770   2.310   6.699   0.692 -0.2761 -0.4061 -2.8874
  303MOL0     O40771   6.551   0.261   1.647 -0.0676 -0.6469  0.2765
  303MOL0     C40772   6.473   0.237   1.742  0.0804  0.5141  1.6155
  303MOL0     O40773   6.514   0.230   1.875  0.0938 -0.8278 -0.5353
  303MOL0     C40774   6.648   0.250   1.901  0.1030 -0.1802 -0.8990
  303MOL0     C40775   6.742   0.157   1.856  0.8130  0.3366  0.2559
  303MOL0     C40776   6.871   0.182   1.877 -0.0572  0.4642 -0.0490
  303MOL0     C40777   6.925   0.305   1.919 -0.1928  0.3465 -0.4251
  303MOL0     O40778   7.062   0.329   1.925 -1.1259  0.5325  0.5282
  303MOL0     C40779   7.105   0.435   1.845  0.2315 -0.1441 -0.0933
  303MOL0     C40780   7.210   0.378   1.751 -0.9228  0.6331  1.5274
  303MOL0     C40781   7.338   0.326   1.820 -0.7894 -0.7515 -0.1162
  303MOL0     C40782   7.453   0.312   1.724  0.6826  0.5464 -0.3464
  303MOL0     C40783   7.588   0.276   1.790  0.3390  0.3698 -0.6506
  303MOL0     C40784   7.593   0.125   1.829  0.3408 -0.0874  0.1886
  303MOL0     C40785   7.727   0.080   1.894  0.4384  0.0607  0.5795
  303MOL0     C40786   7.767   0.131   2.033 -0.1321  0.0360 -0.3086
  303MOL0     N40787   7.913   0.119   2.061  0.3787 -0.3572 -0.5287
  303MOL0     C40788   8.005   0.178   1.979 -0.0477 -0.5557 -0.2272
  303MOL0     C40789   8.118   0.191   2.056  0.4493  0.6440 -0.9402
  303MOL0     C40790   8.239   0.265   2.015  0.2438 -0.0343 -1.0872
  303MOL0     C40791   8.312   0.215   1.882  1.2963  1.4769 -0.5044
  303MOL0     C40792   8.427   0.314   1.849  0.2470  0.3059 -0.6264
  303MOL0     C40793   8.370   0.456   1.830 -0.1836  0.1230  0.4247
  303MOL0     O40794   8.475   0.545   1.774  0.0730 -0.3650 -0.3242
  303MOL0     C40795   8.516   0.532   1.649 -0.3658  0.6966  0.9160
  303MOL0     C40796   8.452   0.456   1.542  0.5426 -0.5466  1.0580
  303MOL0     C40797   8.498   0.471   1.408 -1.0150 -0.4096  0.4875
  303MOL0     C40798   8.626   0.546   1.378  0.3862 -0.5175  0.1655
  303MOL0     C40799   8.691   0.532   1.252 -1.2629  0.5517 -0.0818
  303MOL0     O40800   8.806   0.608   1.237 -0.2180 -0.1008 -0.1848
  303MOL0     C40801   8.865   0.582   1.118 -1.0957  0.1548 -0.8060
  303MOL0     C40802   8.919   0.462   1.088  0.0333 -0.8797 -0.3555
  303MOL0     C40803   8.979   0.437   0.968  0.5052 -0.3986  0.4297
  303MOL0     C40804   8.979   0.539   0.880 -0.2539 -0.2782 -0.2988
  303MOL0     O40805   9.037   0.504   0.760  0.0979 -0.2562  0.4318
  303MOL0     C40806   9.140   0.598   0.724  0.9530  0.5141  0.5544
  303MOL0     C40807   9.227   0.557   0.601 -0.9154  0.4130 -0.8393
  303MOL0     C40808   9.360   0.640   0.575 -1.1243 -0.3301  0.1173
  303MOL0     C40809   9.339   0.784   0.529 -0.6146 -0.2038  0.0825
  303MOL0     C40810   9.463   0.874   0.563 -0.1460  0.1350 -1.2377
  303MOL0     C40811   9.572   0.863   0.457  1.0991  0.7659  0.3459
  303MOL0     C40812   9.532   0.933   0.320  0.3730 -0.4529 -0.3701
  303MOL0     C40813   9.657   0.940   0.221  0.5962 -0.6877  0.0587
  303MOL0    Cl40814   9.701   0.775   0.186 -0.3939  0.0934 -0.5339
  303MOL0     C40815   8.915   0.660   0.904  0.5973 -1.0048  0.8959
  303MOL0     C40816   8.854   0.687   1.026  0.8102  0.4058  0.0625
  303MOL0     O40817   8.648   0.452   1.167  0.5171  0.9336 -0.3672
  303MOL0     C40818   8.691   0.616   1.490 -0.5734  0.3107 -0.1502
  303MOL0     C40819   8.626   0.610   1.614 -0.0875  0.4163 -0.2387
  303MOL0     N40820   8.095   0.123   2.173 -0.0592 -0.7088 -0.8220
  303MOL0     N40821   7.967   0.098   2.178 -0.0742  0.5506  0.3253
  303MOL0     C40822   6.830   0.407   1.955 -0.4847  0.3545  0.1801
  303MOL0     C40823   6.692   0.372   1.945  0.8254  0.1939 -0.8891
  303MOL0     C40824   6.320   0.211   1.729  0.6941  0.3444  0.6237
  303MOL0     C40825   6.245   0.141   1.824  0.1152  0.1822 -0.6811
  303MOL0     C40826   6.108   0.124   1.823 -0.0801 -0.4282  0.0898
  303MOL0     C40827   6.036   0.191   1.731 -0.0145  0.1189 -0.3770
  303MOL0     O40828   5.900   0.190   1.758 -0.7071 -0.3884 -0.9221
  303MOL0     C40829   5.811   0.270   1.687 -0.7297  0.1710  0.1130
  303MOL0     C40830   5.684   0.270   1.775  0.2990  0.2931  0.2505
  303MOL0     C40831   5.624   0.136   1.790 -0.1708 -0.3576 -0.8114
  303MOL0     C40832   5.478   0.130   1.810  0.4284  0.2801  1.0700
  303MOL0     C40833   5.434   0.182   1.943 -0.2967  0.4378 -0.3596
  303MOL0     C40834   5.388   0.237   2.037 -0.2775 -0.3790 -0.1113
  303MOL0     C40835   6.100   0.269   1.633  0.1360 -0.0288 -0.1817
  303MOL0     C40836   6.239   0.269   1.626  0.2690  0.0719 -0.3789
  303MOL0     C40837   6.298   0.357   1.519  0.3666 -0.9151 -0.0315
  303MOL0     H40838   6.720   0.061   1.810 -1.0508  0.1210  1.4959
  303MOL0     H40839   6.944   0.108   1.845  0.9700  0.9061  1.2392
  303MOL0     H40840   7.019   0.470   1.786 -0.6923 -0.5554  0.9781
  303MOL0     H40841   7.147   0.518   1.900  3.1672 -1.3364 -0.3525
  303MOL0     H40842   7.238   0.458   1.683  0.3803  0.3646  1.7246
  303MOL0     H40843   7.167   0.298   1.690  1.2006  1.0133 -0.6199
  303MOL0     H40844   7.310   0.226   1.852 -3.7262 -0.1124 -0.4388
  303MOL0     H40845   7.372   0.380   1.909 -2.5712 -1.1062  0.8130
  303MOL0     H40846   7.427   0.235   1.652  1.6465 -1.7784  1.6562
  303MOL0     H40847   7.465   0.406   1.669  1.6703  0.0835 -0.9516
  303MOL0     H40848   7.671   0.298   1.722  0.9292 -1.3100 -0.5015
  303MOL0     H40849   7.605   0.339   1.878 -0.5598 -0.4722  0.1476
  303MOL0     H40850   7.524   0.117   1.913 -0.6958 -1.6447 -0.7495
  303MOL0     H40851   7.564   0.066   1.741  0.8918  1.0126 -0.7578
  303MOL0     H40852   7.802   0.111   1.822 -0.4928 -0.5799 -0.7034
  303MOL0     H40853   7.746  -0.028   1.891  3.5077  0.5388 -1.7422
  303MOL0     H40854   7.734   0.234   2.053 -4.0838 -0.9995 -0.5378
  303MOL0     H40855   7.717   0.078   2.115 -1.0227 -0.9412 -1.4569
  303MOL0     H40856   7.995   0.227   1.883  0.5060 -0.4489 -0.2323
  303MOL0     H40857   8.210   0.371   2.008  1.4050  0.2125 -2.8867
  303MOL0     H40858   8.304   0.254   2.102  2.5460  3.4338 -2.1779
  303MOL0     H40859   8.362   0.120   1.902  0.5302  0.8453 -1.5325
  303MOL0     H40860   8.238   0.192   1.806  1.0819 -2.7221  0.7255
  303MOL0     H40861   8.471   0.278   1.756 -1.4536 -1.1719 -0.9201
  303MOL0     H40862   8.501   0.300   1.929 -2.3983  1.1557  2.1769
  303MOL0     H40863   8.336   0.504   1.922 -0.4662  1.2694 -0.2586
  303MOL0     H40864   8.281   0.451   1.766  0.3296 -1.6948 -0.2131
  303MOL0     H40865   8.366   0.394   1.563 -1.0959  0.4018 -2.1828
  303MOL0     H40866   8.442   0.423   1.329  1.1362 -0.7949 -0.9067
  303MOL0     H40867   8.907   0.378   1.156  0.9975 -1.2939 -0.6752
  303MOL0     H40868   9.016   0.339   0.938 -3.4449 -1.7819 -0.6124
  303MOL0     H40869   9.099   0.693   0.690 -0.7833 -0.1193  0.7969
  303MOL0     H40870   9.195   0.628   0.814  3.9906  2.3950 -1.6939
  303MOL0     H40871   9.261   0.457   0.628  0.9804  1.9418  3.3233
  303MOL0     H40872   9.162   0.549   0.513 -1.5429  0.3463 -0.3742
  303MOL0     H40873   9.413   0.631   0.671  1.0640 -4.8203 -1.2148
  303MOL0     H40874   9.426   0.599   0.498  0.5148 -0.7822  1.7025
  303MOL0     H40875   9.252   0.824   0.584  0.3116 -1.2222  2.4325
  303MOL0     H40876   9.319   0.776   0.422 -0.8078  1.1564 -0.0063
  303MOL0     H40877   9.503   0.847   0.661  0.0620  1.2600 -1.0069
  303MOL0     H40878   9.431   0.978   0.574  2.5405  0.9070 -0.0254
  303MOL0     H40879   9.671   0.891   0.495  1.8260 -0.1615 -0.7954
  303MOL0     H40880   9.594   0.756   0.451  3.0898  0.8345  3.7328
  303MOL0     H40881   9.492   1.034   0.331 -0.4585 -0.8874  0.7120
  303MOL0     H40882   9.459   0.875   0.263 -1.4547  0.5804  0.8608
  303MOL0     H40883   9.623   0.991   0.131 -1.3414 -2.0850 -0.0773
  303MOL0     H40884   9.737   0.996   0.268  0.3620 -0.6013  0.3574
  303MOL0     H40885   8.921   0.740   0.831  0.7613  1.1280  3.0832
  303MOL0     H40886   8.816   0.787   1.039  1.2248  0.2695  2.9353
  303MOL0     H40887   8.785   0.669   1.485 -0.5817  0.5134  1.3510
  303MOL0     H40888   8.665   0.657   1.704  2.3824 -2.7882  0.5762
  303MOL0     H40889   6.859   0.502   1.997  1.2186  1.3091 -2.9240
  303MOL0     H40890   6.614   0.434   1.988  0.3188 -0.1023 -1.3738
  303MOL0     H40891   6.311   0.103   1.901 -0.1748  2.4797  0.7890
  303MOL0     H40892   6.066   0.055   1.897  0.4003  0.1842  0.9538
  303MOL0     H40893   5.798   0.234   1.585  3.5275 -0.3251 -0.4378
  303MOL0     H40894   5.842   0.374   1.674  0.9566 -0.5346 -2.1206
  303MOL0     H40895   5.618   0.347   1.732 -1.2400 -1.2939 -0.3294
  303MOL0     H40896   5.711   0.285   1.880 -1.4998  0.7882  0.6867
  303MOL0     H40897   5.680   0.091   1.872 -2.4288  1.2365  1.7627
  303MOL0     H40898   5.641   0.073   1.702  0.5258  2.4004 -2.8057
  303MOL0     H40899   5.420   0.173   1.729 -3.4919 -0.2143  3.3390
  303MOL0     H40900   5.445   0.026   1.813  0.1752  0.2732 -1.0103
  303MOL0     H40901   5.366   0.287   2.129  3.2456 -0.7711  1.1055
  303MOL0     H40902   6.044   0.336   1.568 -0.5854  1.0173  1.4755
  303MOL0     H40903   6.218   0.410   1.467  1.0534 -2.0584 -2.3939
  303MOL0     H40904   6.369   0.424   1.568  0.0985  0.8205 -1.8925
  303MOL0     H40905   6.358   0.294   1.453  0.9400 -2.4182  1.8578
  304MOL0     O40906   1.607   7.083   8.861  1.0359  0.3271 -0.0554
  304MOL0     C40907   1.712   7.097   8.917  1.1556  1.2719  0.0849
  304MOL0     O40908   1.756   7.012   9.018 -0.3056  0.3846  0.1310
  304MOL0     C40909   1.661   6.922   9.070 -0.7398  0.7303  0.8013
  304MOL0     C40910   1.658   6.800   9.003  0.0858 -0.1427  0.4456
  304MOL0     C40911   1.593   6.687   9.062 -0.9089  0.3380  0.5287
  304MOL0     C40912   1.536   6.707   9.189  0.5274 -0.1870 -0.3629
  304MOL0     O40913   1.455   6.611   9.254  0.2279 -1.1361 -0.0084
  304MOL0     C40914   1.475   6.473   9.220  0.7893 -0.3210  0.0464
  304MOL0     C40915   1.417   6.372   9.319 -0.2207  0.6533 -0.4266
  304MOL0     C40916   1.403   6.227   9.264  0.2757  0.6019 -0.3704
  304MOL0     C40917   1.515   6.184   9.173 -0.6176 -0.0812  0.7696
  304MOL0     C40918   1.517   6.029   9.142  0.4763 -1.4349  0.1994
  304MOL0     C40919   1.605   6.006   9.017  0.3844  0.6583  0.4415
  304MOL0     C40920   1.560   5.867   8.965 -1.1431  0.8254  0.8607
  304MOL0     C40921   1.671   5.799   8.885  0.8102 -0.4240  0.1391
  304MOL0     N40922   1.617   5.689   8.794  0.1630 -0.3462  0.5614
  304MOL0     C40923   1.555   5.579   8.845  0.5066  0.0950 -0.5105
  304MOL0     C40924   1.542   5.494   8.740  0.0587 -0.8489  0.7525
  304MOL0     C40925   1.491   5.357   8.734  0.0576 -0.1111  0.7132
  304MOL0     C40926   1.596   5.259   8.789 -0.3048  0.2662  0.2036
  304MOL0     C40927   1.563   5.110   8.777 -0.2751  0.1584  0.6972
  304MOL0     C40928   1.425   5.072   8.848 -0.3752  0.3623 -0.2057
  304MOL0     O40929   1.427   5.089   8.991 -0.2975  0.6519  0.2348
  304MOL0     C40930   1.490   4.997   9.069  0.8488 -0.1930  0.6782
  304MOL0     C40931   1.563   4.886   9.015 -0.4417 -0.2835 -0.0379
  304MOL0     C40932   1.629   4.805   9.108 -0.1028  0.1031  0.3119
  304MOL0     C40933   1.617   4.817   9.247 -0.6995  0.6089 -0.1968
  304MOL0     C40934   1.682   4.712   9.335 -0.0450 -0.5869  0.5504
  304MOL0     O40935   1.775   4.629   9.285 -0.4430 -0.0552 -0.3034
  304MOL0     C40936   1.846   4.541   9.356  0.3895  1.3494  0.3794
  304MOL0     C40937   1.883   4.413   9.300  1.1770 -0.7698 -0.2415
  304MOL0     C40938   1.964   4.325   9.359 -0.5436  0.1054  1.2251
  304MOL0     C40939   2.014   4.347   9.487  0.5980 -0.1718 -0.2792
  304MOL0     O40940   2.095   4.250   9.540  0.2659  0.3294 -0.8520
  304MOL0     C40941   2.065   4.196   9.671 -0.0460 -0.2952  0.1926
  304MOL0     C40942   2.124   4.055   9.693  0.9044  0.8589 -0.8787
  304MOL0     C40943   2.112   3.984   9.830  0.1983  0.1519 -0.4142
  304MOL0     C40944   2.170   4.065   9.949  0.0016  0.2440 -0.0673
  304MOL0     C40945   2.126   4.013  10.084  0.0811  0.4822  0.8435
  304MOL0     C40946   2.184   3.877  10.133 -0.7357 -0.2820 -0.0964
  304MOL0     C40947   2.312   3.906  10.212  0.1820  0.3218 -0.2060
  304MOL0     C40948   2.372   3.788  10.292 -0.5234  0.1391  0.2357
  304MOL0    Cl40949   2.405   3.649  10.193  0.1183  0.1860 -0.1220
  304MOL0     C40950   1.978   4.468   9.558  0.2642  0.7700  0.0918
  304MOL0     C40951   1.899   4.563   9.487  0.5459 -0.3018  0.4936
  304MOL0     O40952   1.654   4.725   9.456  0.1562 -0.2318  0.0884
  304MOL0     C40953   1.534   4.917   9.300 -1.1791 -0.1274  0.0765
  304MOL0     C40954   1.474   5.002   9.210 -0.0096 -0.3174 -0.1396
  304MOL0     N40955   1.610   5.556   8.631  0.2186 -0.9584  0.4519
  304MOL0     N40956   1.641   5.674   8.666 -0.1587  0.2681 -0.4804
  304MOL0     C40957   1.535   6.830   9.251 -0.9290  0.6842 -0.3121
  304MOL0     C40958   1.600   6.939   9.191 -1.1816 -0.5209 -0.4201
  304MOL0     C40959   1.806   7.204   8.877 -0.6105 -0.0302 -0.4070
  304MOL0     C40960   1.918   7.226   8.947 -0.2089 -0.5020  0.7733
  304MOL0     C40961   2.014   7.311   8.900 -0.3270  0.5619 -0.1816
  304MOL0     C40962   2.000   7.388   8.784 -0.0475 -0.8398  1.1421
  304MOL0     O40963   2.100   7.471   8.775 -1.2831 -0.4439 -0.3550
  304MOL0     C40964   2.086   7.592   8.700  0.1968 -0.5427 -0.7112
  304MOL0     C40965   2.037   7.708   8.799  0.4410  0.6579 -0.5293
  304MOL0     C40966   2.139   7.730   8.915  1.0345 -0.5214  0.0602
  304MOL0     C40967   2.162   7.877   8.928  0.3100  0.1078 -0.3088
  304MOL0     C40968   2.252   7.927   9.023  0.2613  0.3921 -0.2435
  304MOL0     C40969   2.336   7.980   9.089 -0.2538 -1.5671 -0.3158
  304MOL0     C40970   1.890   7.365   8.704  0.2351  0.1575  0.3356
  304MOL0     C40971   1.789   7.275   8.753 -0.0782 -0.4613 -1.2315
  304MOL0     C40972   1.659   7.270   8.676 -0.0703 -0.1240  0.2762
  304MOL0     H40973   1.699   6.783   8.904 -2.1949 -0.3557 -0.5202
  304MOL0     H40974   1.573   6.597   9.003 -1.3628  0.0427  1.1319
  304MOL0     H40975   1.421   6.461   9.126  1.6761 -1.2902 -0.3466
  304MOL0     H40976   1.577   6.445   9.193  1.2461  0.0103  1.3099
  304MOL0     H40977   1.324   6.416   9.356  0.3083 -0.1346  2.0427
  304MOL0     H40978   1.472   6.359   9.413 -1.8637 -3.9687  0.1829
  304MOL0     H40979   1.299   6.211   9.235 -0.0590 -1.5636  1.6854
  304MOL0     H40980   1.413   6.157   9.347  1.4000  0.1545 -0.8515
  304MOL0     H40981   1.513   6.246   9.083  0.0974  0.7309  1.2926
  304MOL0     H40982   1.603   6.205   9.234 -0.3471  0.8882  0.0773
  304MOL0     H40983   1.555   5.971   9.227  4.2364  1.3642  0.6942
  304MOL0     H40984   1.412   6.000   9.129 -0.0567 -0.2542  1.6214
  304MOL0     H40985   1.591   6.080   8.937 -0.3072  0.4753  0.3881
  304MOL0     H40986   1.707   5.996   9.054  1.1475  0.8594 -1.4672
  304MOL0     H40987   1.476   5.882   8.897  0.4913  2.4179 -0.9175
  304MOL0     H40988   1.540   5.793   9.043 -0.1175  1.6147  1.9011
  304MOL0     H40989   1.714   5.884   8.831  1.9208 -1.0620 -0.0169
  304MOL0     H40990   1.751   5.761   8.949 -0.5114 -2.0242  0.9052
  304MOL0     H40991   1.543   5.563   8.952  1.5353  0.2632 -0.3585
  304MOL0     H40992   1.399   5.358   8.792 -1.1556  1.2603 -1.1298
  304MOL0     H40993   1.476   5.343   8.627  0.7593  4.9421 -0.3033
  304MOL0     H40994   1.690   5.276   8.736  1.4441  0.4620  3.1331
  304MOL0     H40995   1.614   5.265   8.897  2.4876 -1.4409 -0.0635
  304MOL0     H40996   1.642   5.049   8.821 -0.2862 -1.1507 -0.9602
  304MOL0     H40997   1.562   5.072   8.674  0.1530  2.2878 -0.1474
  304MOL0     H40998   1.409   4.967   8.822  0.2372  0.2289 -0.0616
  304MOL0     H40999   1.351   5.144   8.812 -1.6020 -0.4000  0.7281
  304MOL0     H41000   1.579   4.867   8.910 -3.0564 -2.9412 -0.0887
  304MOL0     H41001   1.669   4.708   9.079 -0.9107  0.2706 -1.4763
  304MOL0     H41002   1.846   4.390   9.201  0.6251  2.1411 -0.8006
  304MOL0     H41003   1.979   4.229   9.311  1.7038  1.3078 -0.6642
  304MOL0     H41004   2.111   4.263   9.744 -0.0064 -0.3327  0.2017
  304MOL0     H41005   1.957   4.203   9.688  0.0665  2.8057  0.2335
  304MOL0     H41006   2.082   3.980   9.626 -1.3385 -0.1825  1.5037
  304MOL0     H41007   2.229   4.072   9.669  1.6273 -0.6004  0.9469
  304MOL0     H41008   2.005   3.967   9.847  0.3082  0.4998  0.6476
  304MOL0     H41009   2.157   3.884   9.835 -0.4054 -0.1198 -0.2802
  304MOL0     H41010   2.142   4.170   9.943  1.2371  0.8397  2.7739
  304MOL0     H41011   2.279   4.056   9.939  0.1546 -2.0895  2.4430
  304MOL0     H41012   2.018   3.998  10.078  0.3004 -1.2521  0.6699
  304MOL0     H41013   2.134   4.089  10.162 -1.8066  1.7064 -0.0781
  304MOL0     H41014   2.119   3.820  10.200 -0.0290 -1.9743 -0.8043
  304MOL0     H41015   2.212   3.817  10.046  0.8331  1.0029 -0.5270
  304MOL0     H41016   2.293   3.978  10.292  3.4871 -0.6493  1.6283
  304MOL0     H41017   2.386   3.940  10.139  0.7016  0.9389  0.5948
  304MOL0     H41018   2.468   3.816  10.335 -1.1001  1.5596  0.6603
  304MOL0     H41019   2.304   3.746  10.368 -1.5111 -1.0199 -1.2153
  304MOL0     H41020   2.028   4.500   9.649  3.9212 -0.1509 -1.3860
  304MOL0     H41021   1.880   4.655   9.543 -0.4684 -1.1269  1.5618
  304MOL0     H41022   1.526   4.928   9.408  0.7421  1.7804  0.0913
  304MOL0     H41023   1.418   5.084   9.253 -1.5969 -2.3401  1.9365
  304MOL0     H41024   1.494   6.835   9.351  3.7275  1.2710  1.8412
  304MOL0     H41025   1.598   7.036   9.240 -1.7628 -0.9759  0.4800
  304MOL0     H41026   1.932   7.181   9.045 -2.8070  0.6429  1.7874
  304MOL0     H41027   2.106   7.320   8.957 -0.4868  0.4157  0.1016
  304MOL0     H41028   2.022   7.586   8.611  1.5853 -0.1179 -1.7738
  304MOL0     H41029   2.181   7.607   8.649  0.4640 -3.8398 -1.4071
  304MOL0     H41030   1.939   7.690   8.844 -0.0327 -0.8504 -2.0401
  304MOL0     H41031   2.027   7.801   8.743  0.3930  0.2216 -1.2718
  304MOL0     H41032   2.238   7.688   8.894  0.9239 -0.6957 -0.1128
  304MOL0     H41033   2.106   7.688   9.010  1.0895  2.2106  1.3813
  304MOL0     H41034   2.192   7.917   8.830  0.6104 -1.7638 -1.0185
  304MOL0     H41035   2.060   7.914   8.940 -0.0360 -0.4519 -1.3641
  304MOL0     H41036   2.403   8.033   9.154  0.2037 -0.9089 -1.2880
  304MOL0     H41037   1.872   7.418   8.611  1.1703 -1.2160 -0.6731
  304MOL0     H41038   1.653   7.364   8.621  1.8233  2.9893  4.7383
  304MOL0     H41039   1.651   7.179   8.616  1.9660 -1.0550  1.3149
  304MOL0     H41040   1.577   7.281   8.749  1.8848  3.6319  2.2416
  305MOL0     O41041   7.243   3.150   2.114  0.2266 -0.7773 -0.0139
  305MOL0     C41042   7.258   3.034   2.149  0.5980  0.6038 -0.4541
  305MOL0     O41043   7.174   2.932   2.120  1.1009  0.9821  0.4351
  305MOL0     C41044   7.068   2.953   2.027 -0.6583  1.0111 -0.1244
  305MOL0     C41045   6.938   2.941   2.073 -0.0800  0.2727 -0.0821
  305MOL0     C41046   6.828   2.939   1.986  0.4019 -0.4034 -0.7221
  305MOL0     C41047   6.838   2.927   1.847 -0.3704  0.0486 -0.3081
  305MOL0     O41048   6.725   2.918   1.765  0.0956 -0.3503  0.2268
  305MOL0     C41049   6.604   2.883   1.826  0.1371  0.5053 -0.6808
  305MOL0     C41050   6.491   2.869   1.723 -0.1910 -0.8024  0.7035
  305MOL0     C41051   6.505   2.763   1.615  0.7517  0.1129 -0.2549
  305MOL0     C41052   6.375   2.767   1.515  0.8447  0.0600 -0.3016
  305MOL0     C41053   6.387   2.667   1.407 -0.0615  0.0310  0.6532
  305MOL0     C41054   6.395   2.517   1.456 -0.3645  0.1429 -0.5443
  305MOL0     C41055   6.392   2.406   1.344 -0.7686  0.0269  0.4900
  305MOL0     C41056   6.367   2.263   1.387  0.0452 -0.0985 -0.3461
  305MOL0     N41057   6.322   2.177   1.278 -0.1834 -0.4617 -0.2179
  305MOL0     C41058   6.234   2.207   1.169  0.2230 -0.3843  0.0953
  305MOL0     C41059   6.262   2.103   1.087  0.6369  0.1679 -0.5094
  305MOL0     C41060   6.193   2.079   0.957  0.4145 -0.8310 -0.0020
  305MOL0     C41061   6.055   2.024   0.951  0.9102  1.8856 -0.2470
  305MOL0     C41062   5.961   2.129   0.895 -0.7615 -0.6468  0.3936
  305MOL0     C41063   5.818   2.069   0.893 -0.2888 -0.2844  0.5328
  305MOL0     O41064   5.765   2.054   1.026  0.3911  0.6293  0.3851
  305MOL0     C41065   5.652   1.969   1.028 -0.5304  0.3929  0.9784
  305MOL0     C41066   5.540   1.982   0.939  0.2030  0.5438  0.6471
  305MOL0     C41067   5.423   1.915   0.961 -0.7249  0.2884  0.1109
  305MOL0     C41068   5.410   1.824   1.067 -1.3135 -0.5953  0.7008
  305MOL0     C41069   5.291   1.737   1.076 -0.5164 -0.3351 -0.0252
  305MOL0     O41070   5.183   1.766   1.001  0.4787 -0.3844 -0.0544
  305MOL0     C41071   5.103   1.656   0.988 -0.1878 -0.1286  0.2197
  305MOL0     C41072   4.973   1.656   1.039 -0.1215  0.1343  0.0977
  305MOL0     C41073   4.886   1.544   1.033  0.4852 -0.3765 -0.3673
  305MOL0     C41074   4.933   1.422   0.965 -0.3501  0.3262  0.4577
  305MOL0     O41075   4.873   1.291   0.973  0.3656  0.0953  0.0352
  305MOL0     C41076   4.738   1.292   1.018  0.1630  0.9934 -0.0635
  305MOL0     C41077   4.675   1.156   0.981  0.2047  0.7193  0.3289
  305MOL0     C41078   4.649   1.148   0.828  0.1336 -0.3668  0.6868
  305MOL0     C41079   4.594   1.018   0.788  0.4764  0.0391  0.5326
  305MOL0     C41080   4.592   1.012   0.636 -0.3983 -0.3432 -0.2098
  305MOL0     C41081   4.727   0.973   0.576  0.4795 -0.3501 -0.9335
  305MOL0     C41082   4.723   0.896   0.438 -0.6748  0.8892  0.0195
  305MOL0     C41083   4.671   0.992   0.325 -0.0692 -0.9282  1.1187
  305MOL0    Cl41084   4.783   1.124   0.294 -0.0952  0.0445 -0.2101
  305MOL0     C41085   5.068   1.431   0.911  0.4766 -0.0692  1.5111
  305MOL0     C41086   5.142   1.544   0.913 -0.1137 -0.7595 -1.4504
  305MOL0     O41087   5.294   1.646   1.162  0.3976  0.2187  0.0710
  305MOL0     C41088   5.513   1.817   1.159  0.9072 -0.3030 -0.5640
  305MOL0     C41089   5.637   1.888   1.140  0.3046  0.6948  0.5400
  305MOL0     N41090   6.357   2.016   1.140  0.6696 -0.1295 -0.6022
  305MOL0     N41091   6.392   2.058   1.261  0.5408 -0.6075  1.3432
  305MOL0     C41092   6.975   2.942   1.795  0.5558  0.1791 -0.7877
  305MOL0     C41093   7.087   2.950   1.887 -0.2945 -0.0108 -1.0494
  305MOL0     C41094   7.371   2.991   2.247 -1.4215  0.0230 -0.8785
  305MOL0     C41095   7.351   2.889   2.341  0.0550  0.0998  0.2429
  305MOL0     C41096   7.445   2.852   2.440  0.0477 -0.2683  0.7088
  305MOL0     C41097   7.565   2.927   2.447 -0.8221  0.3026 -0.5870
  305MOL0     O41098   7.660   2.883   2.536 -0.2210  0.2518  0.6813
  305MOL0     C41099   7.791   2.934   2.538  0.2736  0.6671  0.2190
  305MOL0     C41100   7.805   3.059   2.613  0.1525 -0.0984  0.2640
  305MOL0     C41101   7.954   3.093   2.617  0.5491  0.3953 -0.3406
  305MOL0     C41102   8.028   3.117   2.484  0.5597  0.0421  0.0531
  305MOL0     C41103   7.998   3.251   2.428  0.0716  0.2362 -0.2134
  305MOL0     C41104   7.974   3.361   2.394  0.4929  0.6264 -0.5439
  305MOL0     C41105   7.588   3.028   2.356  0.5461 -0.1745  0.0842
  305MOL0     C41106   7.498   3.058   2.249  0.8317  0.7794 -1.3068
  305MOL0     C41107   7.534   3.162   2.154  0.1200 -0.0206  0.0743
  305MOL0     H41108   6.932   2.927   2.181  0.0881 -2.0515 -0.3277
  305MOL0     H41109   6.733   2.935   2.039  2.4188  1.2962  3.5706
  305MOL0     H41110   6.615   2.786   1.876 -0.5117 -0.4709 -2.3553
  305MOL0     H41111   6.566   2.962   1.890 -0.2618 -1.5712  1.8275
  305MOL0     H41112   6.488   2.961   1.664 -1.7035 -2.1292 -1.4157
  305MOL0     H41113   6.407   2.840   1.786 -0.4225 -4.4972 -1.0297
  305MOL0     H41114   6.513   2.668   1.668  0.1201  0.9901  1.4795
  305MOL0     H41115   6.596   2.790   1.560 -0.8509  1.5673 -2.3687
  305MOL0     H41116   6.279   2.737   1.556 -2.2811  2.9861 -4.5906
  305MOL0     H41117   6.384   2.873   1.491  1.1657  0.2564  0.6352
  305MOL0     H41118   6.326   2.678   1.317  1.6331  1.2598 -0.4013
  305MOL0     H41119   6.486   2.677   1.361 -0.0473  2.1491  1.0291
  305MOL0     H41120   6.487   2.505   1.514 -0.7241  0.3017  0.0663
  305MOL0     H41121   6.314   2.495   1.526  0.5672 -4.5726 -0.6139
  305MOL0     H41122   6.484   2.397   1.285 -1.6932 -0.4825 -0.9326
  305MOL0     H41123   6.324   2.436   1.264 -1.2963 -1.3424  0.4084
  305MOL0     H41124   6.449   2.208   1.435  1.2278  1.3611 -0.6172
  305MOL0     H41125   6.283   2.267   1.457  1.5867 -1.1332  1.6524
  305MOL0     H41126   6.158   2.285   1.171 -2.2176 -2.5048  4.3101
  305MOL0     H41127   6.208   2.175   0.905  0.1297  1.1909  3.3473
  305MOL0     H41128   6.272   2.025   0.904  2.5306  2.3768 -0.3835
  305MOL0     H41129   6.062   1.929   0.897 -0.5531  0.1553  2.3543
  305MOL0     H41130   6.017   1.995   1.050 -1.3550 -0.5188 -1.6841
  305MOL0     H41131   6.004   2.142   0.795  3.2280 -2.4739  1.6719
  305MOL0     H41132   5.962   2.225   0.948 -1.5721  1.4123 -2.9635
  305MOL0     H41133   5.830   1.973   0.840 -1.1318 -0.7373  1.1445
  305MOL0     H41134   5.746   2.130   0.838 -0.0304 -0.6080 -0.1862
  305MOL0     H41135   5.537   2.050   0.855 -0.0267 -1.2199 -0.8248
  305MOL0     H41136   5.340   1.930   0.892 -1.5727 -1.4453  0.7044
  305MOL0     H41137   4.951   1.754   1.080 -0.7511  2.3101 -4.7115
  305MOL0     H41138   4.791   1.551   1.085 -0.1197 -0.2317 -1.4755
  305MOL0     H41139   4.737   1.317   1.125  3.0744  1.0845  0.0353
  305MOL0     H41140   4.686   1.362   0.953  0.1708 -1.5273 -3.0208
  305MOL0     H41141   4.744   1.080   1.019  0.3022 -0.0045 -1.2268
  305MOL0     H41142   4.575   1.140   1.021 -0.5671 -1.6074 -2.2559
  305MOL0     H41143   4.588   1.233   0.795 -1.3458  0.0292  3.9946
  305MOL0     H41144   4.748   1.166   0.785  0.0029 -1.2251  0.0102
  305MOL0     H41145   4.488   1.014   0.814  0.6814 -0.8140  1.2713
  305MOL0     H41146   4.637   0.927   0.829 -0.3920 -1.3923 -1.5461
  305MOL0     H41147   4.547   1.101   0.593  2.2622 -0.3791 -3.4879
  305MOL0     H41148   4.520   0.931   0.624 -1.6058  0.8545 -1.3796
  305MOL0     H41149   4.790   1.062   0.570 -0.4957  0.6290  1.7430
  305MOL0     H41150   4.776   0.900   0.641  0.3666 -0.9728 -1.5376
  305MOL0     H41151   4.652   0.815   0.457 -0.6381  1.1517  1.3720
  305MOL0     H41152   4.815   0.843   0.411  0.6722  2.4713  1.3428
  305MOL0     H41153   4.647   0.937   0.234 -3.3567 -1.6778  2.2762
  305MOL0     H41154   4.579   1.036   0.365  0.0953 -0.4120  0.9451
  305MOL0     H41155   5.109   1.340   0.867 -1.0053  1.0821 -2.7209
  305MOL0     H41156   5.240   1.534   0.869 -0.1551 -1.2349 -1.4484
  305MOL0     H41157   5.497   1.745   1.239  0.1636  1.7254  1.1945
  305MOL0     H41158   5.718   1.867   1.210 -1.2950 -2.4692  1.6610
  305MOL0     H41159   6.980   2.947   1.687  0.3107 -1.3416 -0.8946
  305MOL0     H41160   7.184   2.962   1.839 -0.8442 -3.0378 -3.2217
  305MOL0     H41161   7.257   2.838   2.358 -0.8683  1.6483  0.0346
  305MOL0     H41162   7.417   2.775   2.512 -0.1821 -0.5997  0.2696
  305MOL0     H41163   7.830   2.949   2.437 -0.5664 -2.3901 -0.6684
  305MOL0     H41164   7.851   2.865   2.600 -0.2959 -0.0226  0.0217
  305MOL0     H41165   7.793   3.053   2.721  0.9296  3.2836  0.6522
  305MOL0     H41166   7.740   3.134   2.567 -0.8522 -0.6143  0.8141
  305MOL0     H41167   8.006   3.013   2.670 -0.5369 -1.5718 -2.1217
  305MOL0     H41168   7.955   3.192   2.664 -1.8750 -0.3051  1.3789
  305MOL0     H41169   8.136   3.104   2.498  0.4204  0.9336  2.3082
  305MOL0     H41170   8.007   3.041   2.409  0.7141 -0.7507  0.8040
  305MOL0     H41171   7.939   3.458   2.365 -1.8160  0.2105  0.6318
  305MOL0     H41172   7.677   3.089   2.371  1.8095 -2.1084  0.8310
  305MOL0     H41173   7.480   3.254   2.180 -0.6171 -0.3804 -0.1408
  305MOL0     H41174   7.642   3.176   2.156  0.0218  2.2540 -2.9255
  305MOL0     H41175   7.513   3.138   2.049 -7.4247 -1.3467  1.3129
  306MOL0     O41176   2.997   4.429  11.006 -0.6158  0.6343 -0.3651
  306MOL0     C41177   3.036   4.542  11.046  0.3160 -0.7438 -0.5983
  306MOL0     O41178   2.998   4.605  11.166  0.5904 -0.0573 -0.6364
  306MOL0     C41179   2.875   4.585  11.211 -0.7631 -1.0330 -0.2933
  306MOL0     C41180   2.766   4.522  11.153  0.0621 -0.5611 -0.3913
  306MOL0     C41181   2.656   4.492  11.224  0.0910 -0.4431  0.6904
  306MOL0     C41182   2.644   4.537  11.357  0.6966 -1.2109 -0.2992
  306MOL0     O41183   2.530   4.504  11.420  0.9013 -0.4762 -0.0738
  306MOL0     C41184   2.517   4.510  11.563  0.2174  0.0143  0.0723
  306MOL0     C41185   2.364   4.485  11.593 -0.1326  1.0022 -0.5740
  306MOL0     C41186   2.311   4.550  11.731  0.3724  0.0339  0.5872
  306MOL0     C41187   2.151   4.538  11.735 -0.5930  0.8108  0.4062
  306MOL0     C41188   2.103   4.496  11.868  0.4802 -0.1929 -0.6451
  306MOL0     C41189   1.955   4.491  11.874  0.7135  0.3541  0.2855
  306MOL0     C41190   1.900   4.455  12.016  0.2177  0.7246  0.4670
  306MOL0     C41191   1.964   4.521  12.131 -0.8345 -0.4684 -0.2172
  306MOL0     N41192   1.890   4.518  12.256 -0.0442  0.5054  0.6079
  306MOL0     C41193   1.873   4.408  12.334 -0.4190  0.1081 -0.2724
  306MOL0     C41194   1.828   4.444  12.450  0.3704 -0.0142 -1.9969
  306MOL0     C41195   1.790   4.354  12.574 -0.1362 -0.1272 -1.0186
  306MOL0     C41196   1.908   4.309  12.660  0.7588  0.7321 -0.2371
  306MOL0     C41197   1.872   4.232  12.793  0.9352 -0.1112  0.1459
  306MOL0     C41198   1.935   4.288  12.924  0.7367 -0.1500  0.2748
  306MOL0     O41199   2.076   4.272  12.911  0.4257 -0.6988 -0.2339
  306MOL0     C41200   2.156   4.359  12.979 -0.4438  0.0990  0.7384
  306MOL0     C41201   2.252   4.418  12.907 -0.8350  0.4350  0.7615
  306MOL0     C41202   2.341   4.506  12.971  0.0174  0.3969 -0.6497
  306MOL0     C41203   2.337   4.516  13.118 -0.4973  0.7682  0.8003
  306MOL0     C41204   2.461   4.584  13.176  0.8384 -0.2295 -0.8880
  306MOL0     O41205   2.549   4.657  13.096  0.1722  0.4489  0.5195
  306MOL0     C41206   2.659   4.695  13.154 -1.8929 -0.1358 -1.2670
  306MOL0     C41207   2.696   4.833  13.174  0.0573  0.2228 -1.2753
  306MOL0     C41208   2.822   4.857  13.225  0.1406  0.2114  0.0303
  306MOL0     C41209   2.908   4.767  13.275 -0.9450  0.1242  0.5791
  306MOL0     O41210   3.022   4.811  13.348 -0.1050 -0.8328  0.3313
  306MOL0     C41211   3.020   4.776  13.485 -0.2893  0.0970  1.1724
  306MOL0     C41212   2.918   4.863  13.545  0.0436  0.1633 -0.5177
  306MOL0     C41213   2.911   4.833  13.699 -0.5290 -0.2112  0.2108
  306MOL0     C41214   3.044   4.858  13.772 -0.2312 -0.2626 -0.2946
  306MOL0     C41215   3.028   4.866  13.929 -0.3914 -0.4411 -0.2666
  306MOL0     C41216   3.035   4.725  13.996  1.9823  0.0784  0.4716
  306MOL0     C41217   2.895   4.644  13.976 -0.5544  0.7932 -0.6387
  306MOL0     C41218   2.885   4.539  14.094  0.0201  0.2900  0.2445
  306MOL0    Cl41219   3.013   4.424  14.066  0.1200  0.2459  0.0446
  306MOL0     C41220   2.867   4.626  13.265 -1.0537 -0.2440  1.2206
  306MOL0     C41221   2.750   4.595  13.203 -0.3949 -0.3879  1.2414
  306MOL0     O41222   2.477   4.561  13.298  0.7786 -0.0377 -1.2029
  306MOL0     C41223   2.235   4.448  13.192  0.8132 -0.7699  0.3786
  306MOL0     C41224   2.138   4.378  13.116 -0.3348  0.5289 -0.6199
  306MOL0     N41225   1.832   4.577  12.460 -0.4686 -0.0047 -0.1788
  306MOL0     N41226   1.884   4.626  12.348  0.0769  0.4087 -0.2489
  306MOL0     C41227   2.747   4.614  11.418 -0.5334 -0.5340 -0.2723
  306MOL0     C41228   2.866   4.640  11.340 -0.0527 -0.7268 -0.4587
  306MOL0     C41229   3.135   4.619  10.956 -0.7906  0.8332 -0.5864
  306MOL0     C41230   3.195   4.539  10.858 -1.1465 -0.0481 -0.2442
  306MOL0     C41231   3.296   4.594  10.774  0.1369  0.4828 -0.4030
  306MOL0     C41232   3.335   4.734  10.791 -0.9080  0.1107 -0.3036
  306MOL0     O41233   3.438   4.806  10.724 -0.1322 -0.2832  0.2885
  306MOL0     C41234   3.438   4.772  10.583 -0.9976  0.3209  0.9673
  306MOL0     C41235   3.540   4.665  10.537 -0.3440 -0.3061 -0.2660
  306MOL0     C41236   3.688   4.710  10.537  0.1381 -0.5205 -0.7052
  306MOL0     C41237   3.785   4.611  10.463 -0.9219 -0.3332  0.6705
  306MOL0     C41238   3.745   4.598  10.323  0.4864  1.4668  0.4282
  306MOL0     C41239   3.720   4.556  10.210  0.1966  0.1337 -0.7967
  306MOL0     C41240   3.267   4.806  10.894 -0.1121  0.1293  1.0689
  306MOL0     C41241   3.156   4.757  10.966 -0.0232  0.7691 -0.2085
  306MOL0     C41242   3.077   4.852  11.053 -0.7569  0.6589 -0.0303
  306MOL0     H41243   2.773   4.477  11.054 -0.3143 -2.3339  0.3610
  306MOL0     H41244   2.567   4.443  11.187  0.0804  0.6846 -0.8921
  306MOL0     H41245   2.581   4.434  11.609  1.5127 -0.0100 -1.6724
  306MOL0     H41246   2.534   4.614  11.596 -0.1318 -0.5701  2.2826
  306MOL0     H41247   2.338   4.379  11.597 -0.7295  1.1716  0.3037
  306MOL0     H41248   2.311   4.529  11.508 -2.6659  0.1510  0.4788
  306MOL0     H41249   2.335   4.657  11.723 -1.2844  0.4023  0.0561
  306MOL0     H41250   2.359   4.505  11.818 -1.3664 -1.3035  0.9033
  306MOL0     H41251   2.115   4.640  11.716  2.1002  1.9520  0.8704
  306MOL0     H41252   2.109   4.471  11.660  1.0551 -1.6799  1.5880
  306MOL0     H41253   2.145   4.403  11.908 -1.6085 -0.7126  0.4798
  306MOL0     H41254   2.145   4.577  11.929  2.2910 -1.8787  0.4669
  306MOL0     H41255   1.917   4.586  11.836  1.4021  0.6929  0.4285
  306MOL0     H41256   1.925   4.408  11.809 -4.0477 -0.8937  3.4749
  306MOL0     H41257   1.909   4.346  12.021 -1.2954  0.4039 -2.1760
  306MOL0     H41258   1.792   4.470  12.024  0.0363 -0.4121  0.2869
  306MOL0     H41259   2.071   4.502  12.131 -0.3992  1.5679 -1.6230
  306MOL0     H41260   1.949   4.628  12.111 -0.4102 -0.0868  1.3851
  306MOL0     H41261   1.888   4.303  12.314 -0.2382  0.1138 -0.1708
  306MOL0     H41262   1.720   4.409  12.639  0.4696 -2.0953  1.4638
  306MOL0     H41263   1.732   4.272  12.532 -3.3218  2.2821 -1.6983
  306MOL0     H41264   1.970   4.234  12.611 -0.3943  0.6161 -1.5962
  306MOL0     H41265   1.963   4.403  12.676 -1.1963  1.7278  1.0288
  306MOL0     H41266   1.904   4.128  12.783 -0.1567 -0.4428 -0.1161
  306MOL0     H41267   1.763   4.231  12.805  0.5913  2.0920 -1.8425
  306MOL0     H41268   1.898   4.214  12.995  0.1097  0.6184  0.7613
  306MOL0     H41269   1.903   4.390  12.944  1.6139 -0.1302  1.6914
  306MOL0     H41270   2.260   4.394  12.802  2.3600  1.3731  0.6630
  306MOL0     H41271   2.421   4.561  12.922  0.3428  1.8474  1.3766
  306MOL0     H41272   2.632   4.915  13.143 -1.8065 -1.2191 -1.4455
  306MOL0     H41273   2.850   4.962  13.233  3.3076 -0.6439  2.0193
  306MOL0     H41274   3.005   4.669  13.503 -0.8831 -0.0624 -0.1428
  306MOL0     H41275   3.113   4.821  13.521 -1.1005  1.7784  1.2889
  306MOL0     H41276   2.942   4.968  13.529  0.4115  0.2499  0.5168
  306MOL0     H41277   2.820   4.836  13.507 -0.9822 -0.3334  2.2142
  306MOL0     H41278   2.823   4.881  13.744 -1.2471 -0.6578 -0.6925
  306MOL0     H41279   2.878   4.729  13.705 -1.3834 -0.3255 -3.7984
  306MOL0     H41280   3.085   4.955  13.743  2.5071  0.0536  3.8279
  306MOL0     H41281   3.108   4.776  13.738  0.0483  0.4857 -1.6479
  306MOL0     H41282   2.942   4.926  13.959 -1.6726 -1.2295 -2.1949
  306MOL0     H41283   3.113   4.915  13.978 -2.0254 -0.1437  2.4894
  306MOL0     H41284   3.119   4.663  13.962  0.3812 -1.6337 -0.5605
  306MOL0     H41285   3.038   4.743  14.104 -1.7154  2.6690  0.3037
  306MOL0     H41286   2.881   4.589  13.882 -6.2486 -2.2095  1.4414
  306MOL0     H41287   2.816   4.719  13.983 -0.5305  0.6631  1.7086
  306MOL0     H41288   2.889   4.588  14.191  2.1933  1.0899 -0.1762
  306MOL0     H41289   2.789   4.488  14.096 -1.9727  3.7832  1.5375
  306MOL0     H41290   2.936   4.556  13.310 -1.8862 -1.4135  0.7316
  306MOL0     H41291   2.733   4.493  13.168 -0.5622  0.2747 -0.7015
  306MOL0     H41292   2.239   4.461  13.300  3.2124  0.4571  0.2070
  306MOL0     H41293   2.049   4.334  13.160  1.9515 -2.8497  1.0515
  306MOL0     H41294   2.741   4.663  11.515 -1.5455  1.3622 -1.2337
  306MOL0     H41295   2.937   4.716  11.371 -3.3486  3.0431 -1.3494
  306MOL0     H41296   3.161   4.443  10.822 -0.0209 -0.5059 -0.1194
  306MOL0     H41297   3.342   4.535  10.695 -1.1102  1.8254 -2.2289
  306MOL0     H41298   3.443   4.862  10.521 -3.4544  0.8516  1.4369
  306MOL0     H41299   3.337   4.742  10.553 -1.3790  4.1157 -2.4127
  306MOL0     H41300   3.510   4.629  10.439 -1.4252  0.4242 -0.2176
  306MOL0     H41301   3.522   4.586  10.611 -1.6903 -0.8699 -1.1736
  306MOL0     H41302   3.719   4.742  10.636 -1.8891 -0.1747 -0.1230
  306MOL0     H41303   3.701   4.802  10.480  1.7759 -1.1899 -1.4766
  306MOL0     H41304   3.888   4.645  10.478  0.3341 -2.5270 -2.0732
  306MOL0     H41305   3.778   4.508  10.501 -1.9143 -1.5587 -2.5025
  306MOL0     H41306   3.669   4.512  10.126 -3.1036 -0.9672  1.5282
  306MOL0     H41307   3.286   4.913  10.891 -1.3899  0.3824  1.1047
  306MOL0     H41308   2.970   4.831  11.046 -0.4179 -1.2948  0.0198
  306MOL0     H41309   3.110   4.849  11.157  0.5021 -1.7374 -0.4040
  306MOL0     H41310   3.097   4.956  11.028  0.4926 -0.5134 -5.1974
  307MOL0     O41311   8.680   4.363   8.858 -0.1167  0.1845 -0.2145
  307MOL0     C41312   8.651   4.240   8.859  1.0687 -0.0854 -0.4461
  307MOL0     O41313   8.543   4.178   8.927  0.6050 -1.1457 -0.4033
  307MOL0     C41314   8.455   4.260   8.989 -1.0400 -0.2325 -0.3434
  307MOL0     C41315   8.492   4.333   9.103 -0.2579 -0.0932 -0.7143
  307MOL0     C41316   8.391   4.412   9.164  0.5519  0.6363  0.3645
  307MOL0     C41317   8.263   4.419   9.112  0.2797 -0.2688 -0.0293
  307MOL0     O41318   8.150   4.467   9.172 -0.4778  0.4961  0.1279
  307MOL0     C41319   8.152   4.456   9.314  1.0246 -0.6185 -0.7866
  307MOL0     C41320   8.015   4.504   9.377  0.3082  0.1067 -0.1732
  307MOL0     C41321   7.985   4.651   9.336 -1.1419 -0.0233  0.0069
  307MOL0     C41322   7.852   4.687   9.401  0.5747  0.4824  0.6313
  307MOL0     C41323   7.843   4.844   9.416 -0.5208  1.2154 -0.4218
  307MOL0     C41324   7.714   4.869   9.497 -0.1954  0.3718 -0.3318
  307MOL0     C41325   7.656   5.002   9.471  0.1480 -0.9846  0.1295
  307MOL0     C41326   7.732   5.116   9.548 -0.1548 -0.3663 -1.0073
  307MOL0     N41327   7.657   5.162   9.661 -0.5631  0.3619  0.1485
  307MOL0     C41328   7.604   5.087   9.766 -0.8358  0.5155 -0.0907
  307MOL0     C41329   7.573   5.172   9.862 -0.3812  0.5452  0.4311
  307MOL0     C41330   7.515   5.144   9.999 -0.3735  0.0370 -0.5272
  307MOL0     C41331   7.399   5.045   9.983  0.2885 -0.4840  0.0197
  307MOL0     C41332   7.279   5.099   9.905  0.0658  0.4685  0.4968
  307MOL0     C41333   7.169   4.994   9.897 -0.2394 -0.2693  0.1164
  307MOL0     O41334   7.091   5.027   9.781  0.0750  0.0635 -0.2549
  307MOL0     C41335   7.104   4.937   9.680 -0.5272  0.1393 -0.1786
  307MOL0     C41336   7.033   4.821   9.679  0.0418 -0.5735  0.7585
  307MOL0     C41337   7.038   4.729   9.569 -1.0021 -0.0509  0.9239
  307MOL0     C41338   7.129   4.762   9.458  0.0723  0.0856  0.0003
  307MOL0     C41339   7.143   4.670   9.338 -1.1366  0.7034  0.0759
  307MOL0     O41340   7.106   4.539   9.350 -0.2195  0.0364 -0.0203
  307MOL0     C41341   7.127   4.452   9.240 -0.4239  0.3323 -0.6412
  307MOL0     C41342   7.144   4.317   9.265 -0.7258 -0.3873  0.2164
  307MOL0     C41343   7.171   4.222   9.162 -0.3693 -0.4090 -0.2828
  307MOL0     C41344   7.170   4.261   9.029 -0.2980  0.4143  0.6386
  307MOL0     O41345   7.196   4.185   8.923  0.8024  0.1386  0.3501
  307MOL0     C41346   7.189   4.037   8.940  0.3985 -0.8060  0.7131
  307MOL0     C41347   7.042   3.999   8.955 -0.0816  0.3186  0.3382
  307MOL0     C41348   7.034   3.849   8.977  0.4937 -0.4363  0.1301
  307MOL0     C41349   7.070   3.816   9.126  0.3924  0.0586  0.3154
  307MOL0     C41350   7.098   3.672   9.142  0.0202  0.2154  0.5409
  307MOL0     C41351   6.973   3.575   9.107 -1.2627 -0.8179  0.6192
  307MOL0     C41352   6.964   3.448   9.199 -0.3312 -0.3984  0.1154
  307MOL0     C41353   6.843   3.363   9.185 -0.2804  0.5143  0.7629
  307MOL0    Cl41354   6.688   3.455   9.215 -0.4443  0.1052 -0.1197
  307MOL0     C41355   7.133   4.393   9.002 -1.0004 -0.2276  0.5570
  307MOL0     C41356   7.115   4.490   9.101 -0.0363  1.3087 -0.3858
  307MOL0     O41357   7.207   4.715   9.244 -0.0072  0.1492 -0.3144
  307MOL0     C41358   7.203   4.884   9.457  0.3035 -0.1978 -0.7017
  307MOL0     C41359   7.183   4.968   9.568 -0.5042  0.3052 -0.1477
  307MOL0     N41360   7.608   5.295   9.820  0.2973  0.1278 -0.7083
  307MOL0     N41361   7.661   5.286   9.705 -1.0643 -1.2102  0.7124
  307MOL0     C41362   8.233   4.339   9.000  0.5684  0.0503 -0.8422
  307MOL0     C41363   8.330   4.261   8.939  0.1662 -0.3399 -0.4636
  307MOL0     C41364   8.726   4.147   8.771  0.4770  0.4400 -0.6256
  307MOL0     C41365   8.653   4.076   8.684  0.0545  0.3876  0.1723
  307MOL0     C41366   8.707   3.975   8.609 -0.1289 -0.0284  0.4781
  307MOL0     C41367   8.844   3.969   8.617 -1.4231  0.4864  0.7412
  307MOL0     O41368   8.906   3.892   8.516 -0.6164  0.1672  0.2792
  307MOL0     C41369   9.042   3.924   8.474  0.8236  0.2347 -0.2286
  307MOL0     C41370   9.065   3.854   8.340 -0.1167  0.2947  0.4679
  307MOL0     C41371   9.047   3.697   8.320  0.1933  0.1669 -0.1365
  307MOL0     C41372   9.124   3.619   8.417 -0.7305  0.2622 -0.2599
  307MOL0     C41373   9.267   3.647   8.414  1.4501  0.5319 -0.9846
  307MOL0     C41374   9.378   3.674   8.416 -0.3740 -0.0641  0.3351
  307MOL0     C41375   8.922   4.050   8.698 -0.8082 -0.3504 -0.7403
  307MOL0     C41376   8.864   4.124   8.788  0.5044 -1.0997 -0.3753
  307MOL0     C41377   8.950   4.212   8.882 -0.6176 -0.5875 -0.8289
  307MOL0     H41378   8.596   4.339   9.133 -0.6053  0.8866  0.3495
  307MOL0     H41379   8.429   4.450   9.259  1.7042 -1.6101  0.8738
  307MOL0     H41380   8.166   4.352   9.346  0.7147 -0.9960 -1.8327
  307MOL0     H41381   8.238   4.514   9.348 -0.9617  2.2686 -0.3734
  307MOL0     H41382   8.012   4.483   9.485 -3.0769  0.5743 -0.0855
  307MOL0     H41383   7.935   4.448   9.329  1.6398  1.1608 -3.9575
  307MOL0     H41384   7.964   4.650   9.228  0.8144 -0.1260 -0.4179
  307MOL0     H41385   8.072   4.714   9.358 -0.3379  0.6774 -4.2274
  307MOL0     H41386   7.772   4.645   9.339  1.3105 -1.3002  0.8308
  307MOL0     H41387   7.822   4.650   9.499 -1.2827  3.8378  1.4824
  307MOL0     H41388   7.930   4.882   9.472  0.1399  2.2487 -2.0743
  307MOL0     H41389   7.845   4.884   9.314  1.4223 -1.6611 -1.6477
  307MOL0     H41390   7.641   4.789   9.483  0.7161 -0.5442  0.0210
  307MOL0     H41391   7.731   4.863   9.605  0.6442  2.7254 -0.2718
  307MOL0     H41392   7.550   5.011   9.497  0.2305  1.7376 -0.2606
  307MOL0     H41393   7.658   5.019   9.363  2.2712  3.1987  0.6367
  307MOL0     H41394   7.823   5.074   9.592 -2.1556 -0.1901  3.8995
  307MOL0     H41395   7.757   5.203   9.487  1.4222 -1.2449 -1.6826
  307MOL0     H41396   7.612   4.980   9.781  0.7870  0.5237 -0.6652
  307MOL0     H41397   7.584   5.078  10.052 -0.5600  0.8395  0.7765
  307MOL0     H41398   7.485   5.230  10.060  0.3335 -1.5671  2.2133
  307MOL0     H41399   7.435   4.956   9.930  0.0809 -1.8612  2.0325
  307MOL0     H41400   7.368   5.014  10.084 -3.2749 -0.7065 -1.0170
  307MOL0     H41401   7.316   5.140   9.811  1.2900 -0.7387  0.4184
  307MOL0     H41402   7.237   5.185   9.959 -1.3626  1.5497 -2.1561
  307MOL0     H41403   7.113   4.994   9.991  1.0210  0.8114  0.8966
  307MOL0     H41404   7.208   4.892   9.884 -1.0219 -0.5023 -0.4305
  307MOL0     H41405   6.963   4.801   9.760  0.0293  0.8846  1.1375
  307MOL0     H41406   6.991   4.632   9.559 -0.7231 -0.1469  0.5111
  307MOL0     H41407   7.126   4.291   9.369 -0.0704 -1.2369  0.1282
  307MOL0     H41408   7.192   4.118   9.183  0.6409 -0.9387 -3.3763
  307MOL0     H41409   7.225   4.001   8.844  2.1779 -0.1373  1.0887
  307MOL0     H41410   7.259   4.003   9.017  0.9235  0.9685  1.0733
  307MOL0     H41411   6.979   4.045   9.031  0.0773  1.0356  0.0378
  307MOL0     H41412   7.003   4.026   8.856 -0.3578  0.4123  0.4740
  307MOL0     H41413   6.931   3.816   8.960 -0.4705  0.3957  3.5136
  307MOL0     H41414   7.097   3.788   8.911 -1.6250 -0.3150 -2.1461
  307MOL0     H41415   6.990   3.849   9.192  1.0815 -2.2430  2.4330
  307MOL0     H41416   7.168   3.860   9.148  1.6351 -1.8454 -1.0576
  307MOL0     H41417   7.149   3.657   9.238  1.6190  2.0841  0.0588
  307MOL0     H41418   7.177   3.652   9.069 -0.3340  0.8845 -0.0377
  307MOL0     H41419   6.884   3.639   9.110 -1.2303 -0.7980  1.7287
  307MOL0     H41420   6.971   3.541   9.003  1.9002  1.2521 -0.2418
  307MOL0     H41421   6.985   3.496   9.295 -1.4767  4.5312 -1.8149
  307MOL0     H41422   7.052   3.387   9.175 -0.3035 -0.5746  0.6633
  307MOL0     H41423   6.846   3.321   9.084  0.0161 -0.8345  1.3050
  307MOL0     H41424   6.841   3.284   9.261 -2.8614  0.9058  1.2015
  307MOL0     H41425   7.119   4.411   8.896 -2.1683 -0.9019  0.5756
  307MOL0     H41426   7.075   4.584   9.062 -0.4717  0.3919 -2.3082
  307MOL0     H41427   7.258   4.909   9.368 -0.2856 -1.0187 -1.3186
  307MOL0     H41428   7.220   5.070   9.574 -1.4238  0.6042  0.5324
  307MOL0     H41429   8.134   4.322   8.958  1.2505 -3.3187 -1.3491
  307MOL0     H41430   8.310   4.190   8.859  0.3879  3.0322 -3.8123
  307MOL0     H41431   8.546   4.093   8.696  0.1478 -0.6711  3.7719
  307MOL0     H41432   8.658   3.896   8.553  1.0363 -1.1997  1.0349
  307MOL0     H41433   9.105   3.881   8.553 -0.9819 -0.2323  1.0075
  307MOL0     H41434   9.077   4.028   8.470  0.9318  0.1972 -0.2646
  307MOL0     H41435   9.162   3.887   8.302 -0.0632 -0.5507 -0.1559
  307MOL0     H41436   8.994   3.904   8.272  1.8972 -0.9658 -2.7989
  307MOL0     H41437   9.073   3.664   8.219 -0.6469 -1.7557  0.2254
  307MOL0     H41438   8.938   3.689   8.324  0.2821 -0.9070  0.6703
  307MOL0     H41439   9.075   3.617   8.515  3.2106  0.5144  1.8880
  307MOL0     H41440   9.126   3.513   8.388  2.7535 -0.1051  0.8789
  307MOL0     H41441   9.480   3.701   8.432 -0.1116 -0.8775  0.0657
  307MOL0     H41442   9.030   4.043   8.690 -0.5930 -2.1306  2.3003
  307MOL0     H41443   8.917   4.183   8.982 -0.0736  0.3380 -0.3663
  307MOL0     H41444   9.058   4.198   8.876 -0.5580 -0.2563 -0.5671
  307MOL0     H41445   8.924   4.318   8.881 -2.8333 -1.0804 -0.9029
  308MOL0     O41446   3.997   8.126   8.736 -0.3955 -0.9814  0.6655
  308MOL0     C41447   4.102   8.191   8.715  0.5567  0.5891 -1.1423
  308MOL0     O41448   4.100   8.327   8.702  0.3440  0.0019 -0.1474
  308MOL0     C41449   3.986   8.398   8.682  0.0404 -0.6854 -0.3110
  308MOL0     C41450   3.980   8.535   8.733  0.3102  0.3750 -0.3757
  308MOL0     C41451   3.881   8.627   8.677 -0.5563  0.5224 -0.4374
  308MOL0     C41452   3.799   8.581   8.577  0.1582  0.3926 -0.3736
  308MOL0     O41453   3.710   8.673   8.531  0.2728  0.2997  0.1408
  308MOL0     C41454   3.643   8.660   8.406 -0.1515  0.2731  0.0909
  308MOL0     C41455   3.562   8.778   8.363 -0.3555  0.0577 -0.1118
  308MOL0     C41456   3.643   8.907   8.359  1.0776  0.7600  0.6979
  308MOL0     C41457   3.750   8.908   8.256  0.3415 -0.6194  0.2361
  308MOL0     C41458   3.839   9.032   8.259 -0.2055  0.3190  0.5245
  308MOL0     C41459   3.944   9.022   8.370 -0.2171  0.2657  0.5402
  308MOL0     C41460   4.029   9.145   8.402  0.7049 -0.3601  0.3259
  308MOL0     C41461   4.162   9.108   8.476  0.5072  0.1704 -0.2008
  308MOL0     N41462   4.127   9.046   8.602 -0.0943  0.3925 -0.4567
  308MOL0     C41463   4.062   9.097   8.714 -0.1258 -0.4503  0.3346
  308MOL0     C41464   4.074   9.009   8.821  0.1032 -0.3651  0.2863
  308MOL0     C41465   4.030   9.027   8.967 -0.3841 -0.0810  0.1403
  308MOL0     C41466   4.132   9.108   9.041 -1.2372  0.1351 -0.2716
  308MOL0     C41467   4.232   9.020   9.108 -0.2484  0.0501 -0.3490
  308MOL0     C41468   4.337   9.094   9.186 -0.6164 -0.0828  0.6524
  308MOL0     O41469   4.296   9.128   9.319 -0.2491  0.4578  0.7729
  308MOL0     C41470   4.376   9.194   9.409 -0.6703  0.1288  0.6352
  308MOL0     C41471   4.309   9.242   9.526 -0.1274  0.1722 -0.2782
  308MOL0     C41472   4.395   9.297   9.630  1.0083  0.0870  0.4228
  308MOL0     C41473   4.530   9.318   9.603 -1.4022 -0.1253 -1.7054
  308MOL0     C41474   4.618   9.392   9.695  0.1862  0.4060  0.0990
  308MOL0     O41475   4.613   9.367   9.827  0.3888 -0.2117  0.2551
  308MOL0     C41476   4.702   9.428   9.909  0.8581  0.4064 -0.2000
  308MOL0     C41477   4.721   9.564   9.931 -1.0459  0.5886  0.5254
  308MOL0     C41478   4.830   9.609  10.004 -0.6612  0.2173 -0.0488
  308MOL0     C41479   4.923   9.524  10.058 -0.1741 -0.0244 -0.2764
  308MOL0     O41480   5.038   9.582  10.111 -0.7078  0.3429 -0.2447
  308MOL0     C41481   5.155   9.509  10.111  0.2636  0.1474  0.5022
  308MOL0     C41482   5.252   9.602  10.188  0.6351 -0.2665 -0.1580
  308MOL0     C41483   5.394   9.545  10.210 -0.7103 -0.2448 -0.0617
  308MOL0     C41484   5.502   9.658  10.209  0.7841  0.6910  0.1418
  308MOL0     C41485   5.490   9.729  10.346 -0.0526  1.0721 -0.2313
  308MOL0     C41486   5.586   9.683  10.451  0.1196 -0.0162 -0.0896
  308MOL0     C41487   5.631   9.804  10.525  0.2928  0.2193 -1.1733
  308MOL0     C41488   5.697   9.785  10.665 -0.2025 -0.4356 -0.3530
  308MOL0    Cl41489   5.761   9.940  10.728  0.8808  0.2791  0.0581
  308MOL0     C41490   4.893   9.383  10.047 -0.0973 -0.0091 -0.1861
  308MOL0     C41491   4.784   9.340   9.974 -0.3424 -0.5937  0.5348
  308MOL0     O41492   4.705   9.464   9.641 -0.3384 -0.1338 -0.1671
  308MOL0     C41493   4.582   9.271   9.485 -0.6912  0.0021 -0.5180
  308MOL0     C41494   4.507   9.205   9.391 -0.3311  0.3976 -1.1928
  308MOL0     N41495   4.138   8.902   8.765 -0.5678  0.1258 -0.1553
  308MOL0     N41496   4.148   8.915   8.638 -1.4215  0.0041  0.3536
  308MOL0     C41497   3.789   8.446   8.554 -0.8721 -0.8103 -0.4115
  308MOL0     C41498   3.880   8.360   8.607  0.7306 -0.3186  0.8882
  308MOL0     C41499   4.236   8.123   8.725 -0.4952  0.5481  0.0565
  308MOL0     C41500   4.350   8.199   8.770 -0.2299  0.3794  0.0482
  308MOL0     C41501   4.473   8.139   8.799  0.1683 -0.0143 -0.1624
  308MOL0     C41502   4.495   8.003   8.782 -0.8329  0.2458  0.7893
  308MOL0     O41503   4.622   7.960   8.815  0.7671  0.0557  0.3819
  308MOL0     C41504   4.627   7.822   8.839  0.8618  0.0784  0.0848
  308MOL0     C41505   4.767   7.780   8.862  0.5481  0.5667 -0.2887
  308MOL0     C41506   4.861   7.800   8.741  0.1336  0.7667 -0.0301
  308MOL0     C41507   4.821   7.719   8.610 -0.5400 -0.7285 -0.1856
  308MOL0     C41508   4.831   7.569   8.626 -0.1010  0.0979 -0.1169
  308MOL0     C41509   4.852   7.443   8.635 -1.2015 -1.2821  0.4862
  308MOL0     C41510   4.390   7.923   8.725 -0.0028 -0.9200  0.0667
  308MOL0     C41511   4.266   7.984   8.692  0.9704 -0.2489 -0.8533
  308MOL0     C41512   4.164   7.886   8.635 -0.3185  0.4212  0.6236
  308MOL0     H41513   4.050   8.563   8.812  0.3223 -1.5867  0.3646
  308MOL0     H41514   3.882   8.732   8.705  0.4857  0.3026  0.4109
  308MOL0     H41515   3.710   8.625   8.327  1.0249 -2.4062  2.0930
  308MOL0     H41516   3.569   8.583   8.429 -1.8774  1.0630 -2.4515
  308MOL0     H41517   3.485   8.791   8.441  2.2723  0.4994  2.6166
  308MOL0     H41518   3.519   8.760   8.265 -1.9145  1.4502  0.2665
  308MOL0     H41519   3.679   8.938   8.457  2.5665 -1.0717  0.7737
  308MOL0     H41520   3.566   8.975   8.322  0.9918  0.1516 -0.2662
  308MOL0     H41521   3.807   8.816   8.273 -1.9023 -1.8480  1.7512
  308MOL0     H41522   3.708   8.915   8.155 -0.2689 -0.0768  0.5197
  308MOL0     H41523   3.891   9.042   8.163 -0.7281 -0.7881  0.1117
  308MOL0     H41524   3.781   9.123   8.276 -0.8487  0.1074 -0.4371
  308MOL0     H41525   3.881   8.987   8.452  2.4352 -1.7914  1.8317
  308MOL0     H41526   4.012   8.945   8.332  1.9863  2.1793  0.4034
  308MOL0     H41527   3.976   9.215   8.468  1.1898 -0.4283  0.7936
  308MOL0     H41528   4.047   9.184   8.302  3.6427 -1.2534  0.4181
  308MOL0     H41529   4.220   9.039   8.413  1.3616 -0.3840  1.1467
  308MOL0     H41530   4.225   9.195   8.493  3.4820 -1.8769  0.1685
  308MOL0     H41531   4.029   9.200   8.712  2.1079  0.3259 -0.6723
  308MOL0     H41532   3.944   9.095   8.975  0.1811  0.9494 -1.8381
  308MOL0     H41533   4.001   8.930   9.008  0.7596  0.4272  2.3357
  308MOL0     H41534   4.192   9.169   8.972 -1.8600  1.2648  0.1640
  308MOL0     H41535   4.080   9.174   9.110 -0.7416  0.9446 -0.6541
  308MOL0     H41536   4.278   8.944   9.044  0.1915 -1.2541  1.4667
  308MOL0     H41537   4.183   8.955   9.181  3.7634 -3.0681 -0.0859
  308MOL0     H41538   4.373   9.176   9.123 -0.4979 -0.8948 -0.3658
  308MOL0     H41539   4.426   9.032   9.201 -0.5931 -0.4270 -0.8463
  308MOL0     H41540   4.204   9.221   9.537 -0.0259 -0.2187 -0.0398
  308MOL0     H41541   4.348   9.326   9.724 -0.5279 -0.7816 -0.0358
  308MOL0     H41542   4.655   9.637   9.886  0.1025  1.0776 -0.4067
  308MOL0     H41543   4.865   9.711  10.018  0.9634 -0.3582  0.2945
  308MOL0     H41544   5.143   9.415  10.166 -1.1902 -0.3189 -0.5447
  308MOL0     H41545   5.179   9.499  10.005  0.1547  0.4333  0.4503
  308MOL0     H41546   5.273   9.685  10.120  1.2758 -0.6935 -0.4825
  308MOL0     H41547   5.202   9.643  10.277 -0.9402  4.7239 -2.9577
  308MOL0     H41548   5.407   9.486  10.301 -0.4666  0.0803  0.1181
  308MOL0     H41549   5.421   9.484  10.123 -0.3131 -3.2565  2.0209
  308MOL0     H41550   5.481   9.734  10.132  0.1717  0.6583  0.2707
  308MOL0     H41551   5.603   9.620  10.192  0.7487  0.4766  0.4118
  308MOL0     H41552   5.394   9.719  10.397  1.0211 -0.5113  1.5969
  308MOL0     H41553   5.513   9.835  10.337 -1.4111  1.3872 -0.1654
  308MOL0     H41554   5.549   9.605  10.518  3.3089 -2.6465 -1.1162
  308MOL0     H41555   5.672   9.637  10.400 -0.8128  0.8799 -2.6384
  308MOL0     H41556   5.544   9.868  10.545 -0.0551 -1.1346  2.4942
  308MOL0     H41557   5.703   9.854  10.459 -1.1803  2.1042 -1.4436
  308MOL0     H41558   5.621   9.749  10.735  0.3472 -1.0377 -0.0623
  308MOL0     H41559   5.784   9.721  10.652  0.2253 -0.2696  1.3756
  308MOL0     H41560   4.963   9.316  10.094  0.3399  0.5867  0.0217
  308MOL0     H41561   4.766   9.233   9.975  1.4764 -1.0645 -2.6404
  308MOL0     H41562   4.689   9.286   9.473 -0.2609 -2.3307 -0.0635
  308MOL0     H41563   4.564   9.167   9.307  0.0208  1.1666 -1.3083
  308MOL0     H41564   3.716   8.409   8.482  0.8749 -2.5301 -1.3829
  308MOL0     H41565   3.873   8.261   8.564  0.4263  0.1672 -0.2267
  308MOL0     H41566   4.337   8.304   8.796  1.1001 -0.1663  3.4944
  308MOL0     H41567   4.560   8.197   8.826  0.8052  0.5198 -2.9604
  308MOL0     H41568   4.587   7.753   8.764 -0.8284 -0.5529  1.5062
  308MOL0     H41569   4.567   7.786   8.923  1.3340 -0.1182  0.3417
  308MOL0     H41570   4.767   7.688   8.920 -2.9195 -0.7608 -2.1292
  308MOL0     H41571   4.815   7.849   8.932  2.3934 -0.2168 -0.7270
  308MOL0     H41572   4.959   7.757   8.765 -0.8367 -4.9596 -4.2249
  308MOL0     H41573   4.857   7.907   8.719 -3.1374  0.9960  1.2084
  308MOL0     H41574   4.717   7.740   8.582 -1.0345  0.8325  2.4369
  308MOL0     H41575   4.885   7.749   8.527 -1.5708 -0.6198 -0.9564
  308MOL0     H41576   4.850   7.338   8.656 -0.0005 -1.3014  0.5832
  308MOL0     H41577   4.405   7.822   8.690  2.0241 -0.4045 -0.6831
  308MOL0     H41578   4.079   7.941   8.594 -0.3681 -0.2857 -0.2493
  308MOL0     H41579   4.205   7.829   8.551 -0.5396 -1.3987  1.6959
  308MOL0     H41580   4.125   7.831   8.721 -0.9218  2.6107  1.8282
  309MOL0     O41581   5.394   3.609   2.039 -0.6390  0.0620  0.3109
  309MOL0     C41582   5.285   3.593   1.969 -0.6622 -1.0280 -0.6761
  309MOL0     O41583   5.216   3.469   1.955  0.7429 -0.3982 -1.0983
  309MOL0     C41584   5.251   3.365   2.055  0.1765  0.8495  0.8518
  309MOL0     C41585   5.292   3.240   2.018 -0.0304  0.3071 -0.3434
  309MOL0     C41586   5.316   3.136   2.110  0.1987  0.9973  0.3799
  309MOL0     C41587   5.291   3.161   2.242  0.4130  0.6455 -0.5063
  309MOL0     O41588   5.325   3.062   2.337 -0.2575  0.3274 -0.4662
  309MOL0     C41589   5.336   3.089   2.479 -0.7358 -0.3458 -0.6488
  309MOL0     C41590   5.211   3.051   2.553 -0.4072 -0.0856 -0.3011
  309MOL0     C41591   5.229   3.076   2.701 -0.4782  0.2243 -0.0323
  309MOL0     C41592   5.246   3.221   2.756  0.1765  0.2615  0.4818
  309MOL0     C41593   5.283   3.229   2.906  0.3398  0.6911 -0.4770
  309MOL0     C41594   5.167   3.170   2.991 -0.3496 -0.2137 -0.2653
  309MOL0     C41595   5.209   3.179   3.134 -0.5959 -0.6871  0.7044
  309MOL0     C41596   5.146   3.078   3.226  0.4779  0.3816 -0.2679
  309MOL0     N41597   5.010   3.107   3.258 -0.8308  0.3378 -0.1761
  309MOL0     C41598   4.897   3.046   3.207  0.9483  0.2031  0.3091
  309MOL0     C41599   4.795   3.101   3.290 -0.6628  0.5186  0.6658
  309MOL0     C41600   4.648   3.080   3.286  0.3946  0.2906  0.0070
  309MOL0     C41601   4.556   3.190   3.355  0.4903 -0.1461 -0.4635
  309MOL0     C41602   4.416   3.146   3.347  0.3686 -0.2943  0.4897
  309MOL0     C41603   4.303   3.230   3.398 -0.5795  0.2026  0.5368
  309MOL0     O41604   4.312   3.372   3.375  0.0503 -0.7421  0.6852
  309MOL0     C41605   4.205   3.456   3.419  0.2685  0.1649 -1.2932
  309MOL0     C41606   4.115   3.423   3.517 -0.0688 -0.0682  0.5661
  309MOL0     C41607   4.013   3.524   3.553 -1.0179 -0.2443  0.9165
  309MOL0     C41608   4.006   3.650   3.487 -0.2247 -0.0866  0.3642
  309MOL0     C41609   3.890   3.748   3.506  1.0167  0.2976 -0.4793
  309MOL0     O41610   3.775   3.701   3.572  0.9032  0.1404  0.2005
  309MOL0     C41611   3.645   3.763   3.567 -0.5128 -1.7154 -0.0093
  309MOL0     C41612   3.597   3.802   3.436 -0.5708  0.4772 -0.2801
  309MOL0     C41613   3.468   3.851   3.434  0.1378  0.6810 -0.1089
  309MOL0     C41614   3.392   3.869   3.549  0.0594 -0.6518  0.0253
  309MOL0     O41615   3.265   3.922   3.560 -0.1951 -0.8623  0.6804
  309MOL0     C41616   3.218   4.005   3.452 -0.9122 -0.2317 -0.0413
  309MOL0     C41617   3.095   4.082   3.495 -0.5278  0.2384  0.0821
  309MOL0     C41618   3.037   4.159   3.378  0.8108  0.0307  0.4725
  309MOL0     C41619   2.909   4.100   3.311 -0.3631  0.8783 -0.3337
  309MOL0     C41620   2.844   4.191   3.218  0.2162 -0.7492  0.2167
  309MOL0     C41621   2.917   4.209   3.091 -0.0309 -0.3698 -0.3171
  309MOL0     C41622   2.829   4.293   2.995 -0.3409 -1.2256  0.0071
  309MOL0     C41623   2.818   4.440   3.025  0.3045 -0.7529  0.0067
  309MOL0    Cl41624   2.968   4.540   3.030 -0.5666  0.3000 -0.2207
  309MOL0     C41625   3.439   3.824   3.665 -0.2687 -0.2736  0.2505
  309MOL0     C41626   3.565   3.769   3.675 -0.4209  0.4911 -0.2005
  309MOL0     O41627   3.904   3.859   3.466 -0.1439  0.1089 -0.3783
  309MOL0     C41628   4.115   3.678   3.406 -0.4689 -0.0974 -0.3940
  309MOL0     C41629   4.208   3.580   3.372  0.0758 -1.1489  0.9675
  309MOL0     N41630   4.847   3.194   3.378 -0.3892 -0.0894 -0.5486
  309MOL0     N41631   4.971   3.193   3.355 -1.2659 -0.0597 -0.5990
  309MOL0     C41632   5.258   3.291   2.280  0.1343 -0.4097  0.0005
  309MOL0     C41633   5.231   3.397   2.185 -0.5066  0.4793 -0.3128
  309MOL0     C41634   5.226   3.711   1.898  1.2944  0.3679  0.4499
  309MOL0     C41635   5.211   3.833   1.958  0.5369 -0.5685  0.0955
  309MOL0     C41636   5.147   3.951   1.894  0.0115 -0.3848  0.3720
  309MOL0     C41637   5.094   3.937   1.765 -0.4844  0.1023  0.0041
  309MOL0     O41638   5.033   4.024   1.678  0.0976 -0.5809  0.7073
  309MOL0     C41639   5.053   4.163   1.705  0.1695  0.4350  0.3553
  309MOL0     C41640   4.945   4.249   1.652 -0.1063 -0.0268 -0.0148
  309MOL0     C41641   4.996   4.389   1.652  0.6246  0.0687 -0.3778
  309MOL0     C41642   4.893   4.484   1.594 -0.3881  0.4647 -1.0569
  309MOL0     C41643   4.927   4.625   1.598  0.0914  0.0254 -0.0830
  309MOL0     C41644   4.950   4.747   1.594  0.5091  1.1953  1.0735
  309MOL0     C41645   5.109   3.812   1.704 -0.0866  0.0681  0.2588
  309MOL0     C41646   5.171   3.699   1.768 -0.6668 -1.1493  0.0355
  309MOL0     C41647   5.190   3.575   1.687  0.6609 -1.1568 -0.4889
  309MOL0     H41648   5.295   3.218   1.912  2.6223  0.7556 -0.4364
  309MOL0     H41649   5.334   3.035   2.075 -1.7734  0.5776  0.4338
  309MOL0     H41650   5.430   3.042   2.510  0.1049  2.1851  0.9886
  309MOL0     H41651   5.355   3.196   2.491 -0.0370 -0.6265  0.9973
  309MOL0     H41652   5.213   2.942   2.541  1.5548  0.0628 -2.0455
  309MOL0     H41653   5.119   3.088   2.508 -0.6764 -0.6115 -0.1954
  309MOL0     H41654   5.306   3.015   2.748 -4.1023 -6.1351 -1.2213
  309MOL0     H41655   5.137   3.038   2.747  1.3576 -3.1280  1.2056
  309MOL0     H41656   5.323   3.278   2.703  2.2388 -0.0597  2.9407
  309MOL0     H41657   5.153   3.276   2.740 -0.5315 -1.3395 -1.4087
  309MOL0     H41658   5.374   3.169   2.911  0.1986  0.6080  1.5919
  309MOL0     H41659   5.309   3.330   2.938  1.6596  0.5968 -1.1868
  309MOL0     H41660   5.073   3.217   2.960 -0.6704 -1.9357 -2.1029
  309MOL0     H41661   5.164   3.061   2.978  1.0959 -0.2090 -0.8007
  309MOL0     H41662   5.169   3.276   3.165 -0.2823  0.0337 -1.0854
  309MOL0     H41663   5.318   3.185   3.133 -0.4997  0.7077  4.1341
  309MOL0     H41664   5.137   2.982   3.173 -1.9459  0.2568  0.2141
  309MOL0     H41665   5.205   3.073   3.318 -1.4335  0.7715  1.0374
  309MOL0     H41666   4.884   2.968   3.132 -0.7072  2.1570 -1.5487
  309MOL0     H41667   4.626   3.076   3.179  2.9367 -2.8824 -0.5675
  309MOL0     H41668   4.625   2.977   3.315  0.1687  0.1592 -0.6198
  309MOL0     H41669   4.594   3.197   3.457  3.1571 -2.2565 -1.1950
  309MOL0     H41670   4.573   3.289   3.310 -0.3983  0.7152  1.0125
  309MOL0     H41671   4.399   3.054   3.404 -2.0574 -0.4829 -0.4304
  309MOL0     H41672   4.394   3.117   3.244  3.1532 -0.0208 -0.2705
  309MOL0     H41673   4.297   3.210   3.505 -2.3340 -0.3362  0.3676
  309MOL0     H41674   4.216   3.186   3.348  0.1518 -1.0658  0.3345
  309MOL0     H41675   4.125   3.322   3.557  0.3979  0.2977  1.4135
  309MOL0     H41676   3.935   3.481   3.615 -0.9811 -2.9413 -0.7611
  309MOL0     H41677   3.649   3.783   3.343 -1.6669 -0.4679 -0.7311
  309MOL0     H41678   3.419   3.877   3.340 -0.8065  1.6716  0.6291
  309MOL0     H41679   3.303   4.071   3.434  0.1689 -0.4838  3.4332
  309MOL0     H41680   3.199   3.941   3.365  1.6227 -0.8850 -0.2015
  309MOL0     H41681   3.019   4.012   3.532  0.7343 -1.3872 -0.2694
  309MOL0     H41682   3.122   4.154   3.573  0.4842  4.0155 -3.4066
  309MOL0     H41683   3.001   4.243   3.437  2.7374  0.5187  1.0179
  309MOL0     H41684   3.114   4.182   3.303  0.0641 -0.0330 -0.3191
  309MOL0     H41685   2.835   4.079   3.388 -0.1992  1.4978  0.0017
  309MOL0     H41686   2.939   4.011   3.254  3.1226 -0.1794  2.7749
  309MOL0     H41687   2.831   4.285   3.271  3.1736  1.1963 -2.1279
  309MOL0     H41688   2.748   4.146   3.189  0.2697 -0.3352 -0.6529
  309MOL0     H41689   3.004   4.269   3.119  1.3116 -2.5400  0.4300
  309MOL0     H41690   2.947   4.112   3.050 -0.4407  0.0707 -1.7090
  309MOL0     H41691   2.734   4.252   2.960 -1.3471  4.1971 -5.3119
  309MOL0     H41692   2.890   4.295   2.904  0.0236 -1.4320  0.2438
  309MOL0     H41693   2.751   4.482   2.950  1.0438  2.4662  0.9914
  309MOL0     H41694   2.774   4.443   3.125  2.4252 -1.4705  1.0397
  309MOL0     H41695   3.375   3.829   3.752 -3.0307  0.6381 -1.7049
  309MOL0     H41696   3.601   3.740   3.773  4.8600  2.2759 -1.3110
  309MOL0     H41697   4.140   3.779   3.374  0.3221  1.6082  4.7643
  309MOL0     H41698   4.288   3.609   3.304 -0.8634  1.0992  0.7230
  309MOL0     H41699   5.243   3.321   2.384 -1.6655 -1.4044  0.0658
  309MOL0     H41700   5.207   3.498   2.217 -1.9381  0.5753 -1.5516
  309MOL0     H41701   5.254   3.857   2.054  2.0283 -0.4060 -0.5842
  309MOL0     H41702   5.118   4.039   1.951 -2.3052 -0.6503 -0.2767
  309MOL0     H41703   5.151   4.197   1.672  0.2760  1.8852  2.0217
  309MOL0     H41704   5.049   4.166   1.814 -0.9803 -0.4439  0.3630
  309MOL0     H41705   4.863   4.247   1.724  1.2080 -0.5290  1.5316
  309MOL0     H41706   4.925   4.221   1.548  1.5866 -1.2198 -0.0658
  309MOL0     H41707   5.087   4.405   1.594  1.9921  1.8810  2.0720
  309MOL0     H41708   5.024   4.420   1.753  2.0100  1.0786 -1.0412
  309MOL0     H41709   4.881   4.467   1.487 -0.8825  0.2603 -0.9701
  309MOL0     H41710   4.803   4.470   1.654  1.5743  0.1503  2.0268
  309MOL0     H41711   4.985   4.847   1.609 -1.1779  1.9784  0.1298
  309MOL0     H41712   5.081   3.799   1.600 -1.6222  1.2432  0.4910
  309MOL0     H41713   5.171   3.608   1.585 -0.4724  1.5989  0.4978
  309MOL0     H41714   5.288   3.532   1.709  1.3137  0.9539  1.1295
  309MOL0     H41715   5.109   3.503   1.705 -0.0872  0.2825  2.5840
  310MOL0     O41716   2.495   8.996   1.509  0.0893 -0.6933  0.0888
  310MOL0     C41717   2.497   8.901   1.433  0.2834 -0.2624  0.1733
  310MOL0     O41718   2.419   8.791   1.451  0.1804  0.1559  0.3039
  310MOL0     C41719   2.346   8.750   1.563 -0.9629  0.1226  0.9653
  310MOL0     C41720   2.337   8.830   1.679 -0.0164  0.6059  0.1585
  310MOL0     C41721   2.266   8.784   1.789  0.1995 -0.3999 -1.0077
  310MOL0     C41722   2.203   8.659   1.790  0.1800  0.1600  0.6827
  310MOL0     O41723   2.135   8.594   1.893  0.0477  0.4081 -0.3380
  310MOL0     C41724   2.099   8.668   2.010 -0.6275  0.6086 -0.1435
  310MOL0     C41725   2.003   8.577   2.088 -1.1541  0.4345  0.1968
  310MOL0     C41726   1.858   8.557   2.033 -0.3870  0.6569  0.2671
  310MOL0     C41727   1.757   8.528   2.144 -0.0398  0.1772  0.8144
  310MOL0     C41728   1.617   8.546   2.090 -0.5124  0.3462  0.2743
  310MOL0     C41729   1.500   8.495   2.182 -0.1379  0.7547 -0.1433
  310MOL0     C41730   1.503   8.548   2.332  0.2929 -0.1287  0.0441
  310MOL0     C41731   1.488   8.698   2.338 -0.5473 -0.4040  0.4484
  310MOL0     N41732   1.472   8.746   2.473  0.8269 -0.4258 -0.6584
  310MOL0     C41733   1.359   8.805   2.529  0.4471  0.0361  0.0209
  310MOL0     C41734   1.398   8.841   2.653 -0.3835  0.3242 -0.4958
  310MOL0     C41735   1.314   8.932   2.732  0.2240  0.6135 -0.1065
  310MOL0     C41736   1.392   9.002   2.839 -0.0146  0.6122 -0.8248
  310MOL0     C41737   1.303   9.089   2.930 -0.5080  0.2664  1.0059
  310MOL0     C41738   1.386   9.181   3.014  0.1713  0.2210  0.1471
  310MOL0     O41739   1.302   9.282   3.059 -0.4574  0.3520  0.7473
  310MOL0     C41740   1.348   9.365   3.156 -0.1168  0.2877 -0.2198
  310MOL0     C41741   1.253   9.461   3.183  0.2457  1.3824 -0.2563
  310MOL0     C41742   1.259   9.544   3.287 -0.4628 -0.3093 -0.3148
  310MOL0     C41743   1.370   9.544   3.369 -0.4901 -0.2482  0.3362
  310MOL0     C41744   1.386   9.651   3.464 -0.2368  1.1087 -0.8376
  310MOL0     O41745   1.484   9.623   3.550  0.0657 -0.7919  0.1640
  310MOL0     C41746   1.524   9.712   3.652 -1.2345 -0.7288  0.2489
  310MOL0     C41747   1.619   9.641   3.737  0.1542 -0.6465 -0.3869
  310MOL0     C41748   1.669   9.699   3.858  0.1560  1.0573  0.5203
  310MOL0     C41749   1.623   9.828   3.891 -0.3511 -0.3158  0.3061
  310MOL0     O41750   1.650   9.893   4.009 -0.9243 -0.4376 -0.8735
  310MOL0     C41751   1.639   9.803   4.128 -1.1482 -0.0721  0.3467
  310MOL0     C41752   1.773   9.787   4.201  0.2721 -0.0699  0.0303
  310MOL0     C41753   1.751   9.792   4.365  0.4495 -1.3516  0.7729
  310MOL0     C41754   1.870   9.734   4.443 -0.1936 -0.5266 -0.0673
  310MOL0     C41755   1.997   9.806   4.407 -0.1306 -1.2600 -1.2091
  310MOL0     C41756   2.113   9.733   4.475  0.2908  0.2476  0.3077
  310MOL0     C41757   2.241   9.821   4.481  0.7200 -0.3861  0.5024
  310MOL0     C41758   2.360   9.767   4.551 -0.9760 -0.0761 -0.2200
  310MOL0    Cl41759   2.473   9.701   4.441 -0.3413 -0.0914  0.4354
  310MOL0     C41760   1.541   9.900   3.801 -0.6213  0.4269 -1.0807
  310MOL0     C41761   1.483   9.840   3.687  0.1442  0.4776 -0.5617
  310MOL0     O41762   1.318   9.753   3.459  0.1238 -0.6108  0.5280
  310MOL0     C41763   1.470   9.442   3.348  0.0726  0.3327 -0.0183
  310MOL0     C41764   1.461   9.350   3.241 -0.6257  0.0327  0.6511
  310MOL0     N41765   1.536   8.820   2.676  0.1556 -0.3724  0.5430
  310MOL0     N41766   1.574   8.760   2.563 -0.0623  0.0856 -0.5529
  310MOL0     C41767   2.206   8.584   1.663 -0.1853  0.0863 -0.2569
  310MOL0     C41768   2.275   8.630   1.551  0.6508 -1.3921 -0.2772
  310MOL0     C41769   2.600   8.903   1.327  0.2627 -0.1079  0.3182
  310MOL0     C41770   2.582   8.809   1.218  0.4731  1.3704 -0.0635
  310MOL0     C41771   2.670   8.812   1.102 -0.5933 -0.0943 -0.0938
  310MOL0     C41772   2.776   8.902   1.094 -0.6324  0.3266 -0.0686
  310MOL0     O41773   2.854   8.905   0.977  0.2467  0.8928  0.2545
  310MOL0     C41774   2.970   8.980   0.971  0.4412  0.1130 -0.1969
  310MOL0     C41775   2.947   9.129   0.931  0.3509  0.0288 -0.1555
  310MOL0     C41776   3.058   9.182   0.842  0.0060  0.5825  0.4729
  310MOL0     C41777   3.194   9.167   0.921  1.6586  0.9305 -0.4511
  310MOL0     C41778   3.195   9.249   1.035 -0.2191 -0.8207 -0.0212
  310MOL0     C41779   3.188   9.323   1.137  0.6494 -0.1911  0.2348
  310MOL0     C41780   2.793   8.998   1.198 -0.2171  0.0190  0.2983
  310MOL0     C41781   2.707   8.995   1.313 -0.3917  0.3497 -0.9290
  310MOL0     C41782   2.721   9.104   1.418 -0.4730  0.1327  0.4411
  310MOL0     H41783   2.394   8.919   1.703  1.2808 -0.2899  0.5424
  310MOL0     H41784   2.266   8.844   1.880  0.4693  0.6350 -1.6642
  310MOL0     H41785   2.196   8.686   2.058 -0.5999 -0.4444  0.2117
  310MOL0     H41786   2.046   8.761   1.989 -0.1983  1.0270  0.5575
  310MOL0     H41787   1.986   8.627   2.183  4.1654 -0.0454  1.7101
  310MOL0     H41788   2.056   8.484   2.111 -0.5385  0.8775  0.5831
  310MOL0     H41789   1.854   8.482   1.954 -1.4860  1.3725 -0.3781
  310MOL0     H41790   1.825   8.652   1.990 -1.6365 -0.6827 -1.9323
  310MOL0     H41791   1.772   8.423   2.172  3.1821  0.4441  0.4252
  310MOL0     H41792   1.770   8.589   2.233 -1.1828  2.4255 -0.4793
  310MOL0     H41793   1.589   8.651   2.078  1.5186  0.7112 -2.1852
  310MOL0     H41794   1.612   8.487   1.998  1.0938 -0.3570  0.6113
  310MOL0     H41795   1.405   8.508   2.131  0.5993  0.6969 -1.5994
  310MOL0     H41796   1.518   8.387   2.189  3.5707  0.9869 -2.9385
  310MOL0     H41797   1.597   8.512   2.373 -0.0013 -0.6010  0.3178
  310MOL0     H41798   1.424   8.497   2.388  2.4026 -2.0779  1.3979
  310MOL0     H41799   1.581   8.740   2.299 -0.7808  0.1808  0.5036
  310MOL0     H41800   1.415   8.750   2.275  3.1693  2.0963 -2.1952
  310MOL0     H41801   1.266   8.824   2.477 -1.3030  0.4429  3.0190
  310MOL0     H41802   1.253   9.006   2.679  0.2711  1.6251  1.2016
  310MOL0     H41803   1.239   8.865   2.774 -0.0813 -0.0528 -1.6453
  310MOL0     H41804   1.445   8.935   2.907 -0.8833  2.3544  1.7432
  310MOL0     H41805   1.475   9.060   2.796  0.2902  1.3835  0.7376
  310MOL0     H41806   1.234   9.024   2.986 -2.0392 -0.5520 -1.6526
  310MOL0     H41807   1.239   9.155   2.870  0.0596 -0.8986 -0.9395
  310MOL0     H41808   1.476   9.212   2.961  0.8302 -0.8514  0.5935
  310MOL0     H41809   1.405   9.116   3.100 -2.9765 -1.1501 -0.0312
  310MOL0     H41810   1.164   9.453   3.121 -0.3592  3.7301  0.1993
  310MOL0     H41811   1.175   9.610   3.310  0.8657  1.2705  0.2871
  310MOL0     H41812   1.634   9.535   3.723  2.2260 -0.4081 -0.2692
  310MOL0     H41813   1.721   9.632   3.925 -1.7725 -0.9020  0.1736
  310MOL0     H41814   1.578   9.862   4.198  2.4257  3.0457  1.1615
  310MOL0     H41815   1.593   9.705   4.111 -0.8248 -0.9089  3.6119
  310MOL0     H41816   1.816   9.690   4.174  4.8556  1.7571 -0.1412
  310MOL0     H41817   1.835   9.873   4.175 -1.2237  1.0668  0.0391
  310MOL0     H41818   1.723   9.890   4.405  0.0167 -0.9123 -0.5696
  310MOL0     H41819   1.668   9.725   4.387 -1.3203 -0.2477 -2.0262
  310MOL0     H41820   1.878   9.632   4.403 -2.3849 -1.8057  2.4754
  310MOL0     H41821   1.864   9.723   4.552  2.1240 -2.2602 -0.0210
  310MOL0     H41822   1.994   9.904   4.456 -1.0751 -0.2663 -3.1422
  310MOL0     H41823   2.027   9.834   4.306  4.5803 -0.4719  0.1510
  310MOL0     H41824   2.086   9.734   4.581  1.9935  1.7633  0.7799
  310MOL0     H41825   2.127   9.635   4.428  1.2151 -0.3622  1.7901
  310MOL0     H41826   2.214   9.918   4.523 -1.4222 -0.5913 -0.2533
  310MOL0     H41827   2.258   9.848   4.377 -1.3005  2.3574  0.7727
  310MOL0     H41828   2.409   9.849   4.605 -0.7633 -1.5304  1.9084
  310MOL0     H41829   2.329   9.690   4.621  1.8429 -1.1178  0.0109
  310MOL0     H41830   1.513  10.001   3.830  2.9171 -0.1268  6.4985
  310MOL0     H41831   1.422   9.898   3.618  0.8903  2.0341  0.0407
  310MOL0     H41832   1.565   9.445   3.401  0.8130  1.6855 -1.3633
  310MOL0     H41833   1.536   9.272   3.227 -2.1148 -1.1798 -0.8811
  310MOL0     H41834   2.147   8.493   1.658 -0.3269  0.2299 -1.2725
  310MOL0     H41835   2.251   8.579   1.458 -1.3214  0.2442 -0.7379
  310MOL0     H41836   2.502   8.737   1.231  1.2292  0.0221 -2.2575
  310MOL0     H41837   2.647   8.739   1.024 -2.7694  0.0945  0.3154
  310MOL0     H41838   3.025   8.929   0.892  1.7977 -0.2170  0.9180
  310MOL0     H41839   3.021   8.975   1.068 -0.6618 -1.2187  0.3400
  310MOL0     H41840   2.936   9.187   1.023  2.2566  0.7781 -0.3709
  310MOL0     H41841   2.856   9.133   0.870 -0.8305 -0.0364  1.5136
  310MOL0     H41842   3.039   9.288   0.821 -0.1237  0.3252 -0.7942
  310MOL0     H41843   3.058   9.137   0.742  0.5147 -0.8481  1.0896
  310MOL0     H41844   3.231   9.065   0.937  0.7718  0.1663 -2.8533
  310MOL0     H41845   3.271   9.215   0.860  0.2070 -0.5448 -3.7155
  310MOL0     H41846   3.198   9.387   1.222  1.6567 -1.5836  1.2195
  310MOL0     H41847   2.870   9.072   1.179  1.8427 -2.5957 -2.7205
  310MOL0     H41848   2.814   9.161   1.403 -1.1865  1.2509  0.1176
  310MOL0     H41849   2.651   9.188   1.417  1.9095  2.4089 -4.0422
  310MOL0     H41850   2.731   9.060   1.518 -0.5137 -1.9342 -0.4195
  311MOL0     O41851  10.598   7.083   6.599 -0.3084  0.1318  0.5113
  311MOL0     C41852  10.590   6.965   6.590 -0.1364  0.1916  0.1813
  311MOL0     O41853  10.575   6.881   6.697 -0.5027 -0.5743  0.1390
  311MOL0     C41854  10.538   6.934   6.815  0.6340  0.0389 -0.0870
  311MOL0     C41855  10.412   6.997   6.828 -0.2963 -0.4101  0.0321
  311MOL0     C41856  10.369   7.047   6.952  0.2265  0.7260 -0.7550
  311MOL0     C41857  10.450   7.024   7.067 -0.2158 -1.0545 -0.0158
  311MOL0     O41858  10.419   7.076   7.190 -0.2516 -0.6251  0.3033
  311MOL0     C41859  10.290   7.132   7.217  0.1302  0.4565  0.0314
  311MOL0     C41860  10.289   7.182   7.353 -0.4879 -0.0826 -0.6272
  311MOL0     C41861  10.395   7.304   7.361  0.3091  0.2822 -0.3460
  311MOL0     C41862  10.340   7.418   7.461 -0.2874  0.0958 -0.0038
  311MOL0     C41863  10.450   7.518   7.484 -0.3990  0.0745 -0.3205
  311MOL0     C41864  10.388   7.655   7.519  0.3753 -0.5938 -0.1649
  311MOL0     C41865  10.505   7.763   7.528  0.2346  0.0147 -0.4554
  311MOL0     C41866  10.610   7.736   7.634 -0.0821  0.0767 -0.4152
  311MOL0     N41867  10.571   7.775   7.776  0.2687  0.8966 -0.5655
  311MOL0     C41868  10.461   7.718   7.838 -0.3634 -0.0687  0.0964
  311MOL0     C41869  10.419   7.820   7.908 -0.4734  0.6140 -0.6447
  311MOL0     C41870  10.301   7.811   7.993 -0.0812  1.0549  0.3723
  311MOL0     C41871  10.173   7.769   7.916 -0.3596 -0.2931 -0.5330
  311MOL0     C41872  10.047   7.821   7.996 -0.7317 -0.8729 -0.3123
  311MOL0     C41873   9.923   7.799   7.925  0.8363  0.5840  0.0420
  311MOL0     O41874   9.819   7.834   8.012  0.0253 -0.1720 -0.6630
  311MOL0     C41875   9.692   7.830   7.961 -0.5006  0.2803 -0.2388
  311MOL0     C41876   9.646   7.781   7.825 -1.1679  1.0979 -0.3553
  311MOL0     C41877   9.513   7.791   7.785 -0.0704  0.1282  0.6618
  311MOL0     C41878   9.417   7.814   7.879  0.3909 -0.1819 -1.2083
  311MOL0     C41879   9.280   7.810   7.837 -1.3475 -0.3816 -0.1578
  311MOL0     O41880   9.187   7.758   7.915  0.2582 -0.0562 -0.4270
  311MOL0     C41881   9.054   7.750   7.881 -0.1856 -0.1134 -0.2449
  311MOL0     C41882   9.002   7.725   7.750 -0.3607  0.7370  1.0462
  311MOL0     C41883   8.866   7.733   7.723 -0.1320  0.6081  0.2353
  311MOL0     C41884   8.785   7.742   7.835 -0.3721  0.1465 -0.9664
  311MOL0     O41885   8.653   7.738   7.825 -0.1672 -0.0396  0.3331
  311MOL0     C41886   8.580   7.677   7.716  0.6811 -0.2560  0.5257
  311MOL0     C41887   8.438   7.719   7.714  0.0976 -0.9416  0.3494
  311MOL0     C41888   8.361   7.601   7.647 -0.9447 -0.6815  0.3771
  311MOL0     C41889   8.215   7.624   7.629 -0.0071 -0.0588 -0.3038
  311MOL0     C41890   8.174   7.602   7.481  0.4985  0.1593 -0.2711
  311MOL0     C41891   8.213   7.734   7.388  0.3789 -0.1563  0.7412
  311MOL0     C41892   8.098   7.761   7.293  0.8280  0.2911 -0.2777
  311MOL0     C41893   8.121   7.893   7.219  0.5336 -0.1325 -0.2312
  311MOL0    Cl41894   7.996   7.907   7.098 -0.1842  0.5307  0.6964
  311MOL0     C41895   8.828   7.766   7.964  0.8485 -0.1806  0.4840
  311MOL0     C41896   8.965   7.758   7.988 -0.9089  0.0170  0.7234
  311MOL0     O41897   9.261   7.854   7.724  0.1175  0.5465  0.6533
  311MOL0     C41898   9.453   7.835   8.009  0.5902 -0.0823 -0.0602
  311MOL0     C41899   9.585   7.846   8.053 -0.5622  0.3473 -0.2290
  311MOL0     N41900  10.499   7.932   7.899  0.5722 -0.5799 -0.5428
  311MOL0     N41901  10.593   7.903   7.814 -0.1571 -0.8115 -0.0023
  311MOL0     C41902  10.580   6.981   7.046 -0.1265 -0.3752 -0.7340
  311MOL0     C41903  10.630   6.937   6.918 -1.0942 -0.4770  0.4066
  311MOL0     C41904  10.611   6.898   6.461  0.0453 -0.0392  0.5046
  311MOL0     C41905  10.655   6.768   6.469  0.5070  0.3688  1.1644
  311MOL0     C41906  10.667   6.702   6.351  0.8781 -0.3418  0.1454
  311MOL0     C41907  10.649   6.753   6.222 -0.1167  0.0324 -0.0623
  311MOL0     O41908  10.671   6.679   6.103  0.0733  0.4121 -0.5239
  311MOL0     C41909  10.636   6.728   5.972 -0.3580 -0.7587 -0.2353
  311MOL0     C41910  10.691   6.631   5.866 -0.6246 -0.7288 -0.2924
  311MOL0     C41911  10.727   6.703   5.728 -0.4412 -0.0525  0.1319
  311MOL0     C41912  10.617   6.784   5.658 -0.6981  0.1862 -0.2165
  311MOL0     C41913  10.658   6.877   5.564  0.2738  0.6072  0.3853
  311MOL0     C41914  10.699   6.960   5.489  0.2918 -0.8939  0.0841
  311MOL0     C41915  10.593   6.875   6.221 -0.2182 -0.5824 -0.9630
  311MOL0     C41916  10.580   6.959   6.333  0.4389 -0.0047 -0.2973
  311MOL0     C41917  10.510   7.091   6.322  0.7966 -0.0586  0.1306
  311MOL0     H41918  10.340   6.994   6.747 -2.3310 -2.4052  1.7717
  311MOL0     H41919  10.271   7.094   6.958 -1.3347 -2.5173  2.4582
  311MOL0     H41920  10.262   7.208   7.144 -0.9036  1.4702  1.4266
  311MOL0     H41921  10.223   7.048   7.197 -1.0578  2.1513 -4.1038
  311MOL0     H41922  10.303   7.104   7.428  3.0016  0.1663 -0.8536
  311MOL0     H41923  10.196   7.230   7.383  2.6953  5.6850  1.7817
  311MOL0     H41924  10.396   7.351   7.262  1.7095 -0.2689 -0.6208
  311MOL0     H41925  10.496   7.264   7.371  0.5989  0.6682 -1.4868
  311MOL0     H41926  10.255   7.465   7.409  1.7233  1.8917 -1.8684
  311MOL0     H41927  10.309   7.372   7.555 -1.2319  0.9892  0.1450
  311MOL0     H41928  10.504   7.473   7.568 -2.0200  0.4161  0.9336
  311MOL0     H41929  10.509   7.528   7.391  0.1741  0.4772  0.0780
  311MOL0     H41930  10.325   7.695   7.439  0.3069 -4.1554 -2.1218
  311MOL0     H41931  10.335   7.644   7.614  2.4800  1.2318  1.3331
  311MOL0     H41932  10.473   7.867   7.540  2.5836  0.6814  0.5426
  311MOL0     H41933  10.547   7.759   7.427  0.8355  1.1949 -0.2727
  311MOL0     H41934  10.642   7.631   7.632  1.3861  0.4709 -3.3152
  311MOL0     H41935  10.701   7.794   7.615  1.2464 -1.8665 -0.2900
  311MOL0     H41936  10.416   7.620   7.819 -0.8605 -0.1588  1.6161
  311MOL0     H41937  10.319   7.726   8.059 -1.5353  1.0822  0.8468
  311MOL0     H41938  10.285   7.909   8.040  3.1251  2.8880 -1.9502
  311MOL0     H41939  10.169   7.814   7.816  0.1028  0.5871 -0.1648
  311MOL0     H41940  10.168   7.661   7.905  1.7842 -0.4755 -0.1813
  311MOL0     H41941  10.056   7.930   8.006 -0.6149 -0.5321 -3.2568
  311MOL0     H41942  10.039   7.768   8.092 -0.5078  0.6862  0.6119
  311MOL0     H41943   9.911   7.699   7.882  1.3818  0.6363 -0.2317
  311MOL0     H41944   9.907   7.878   7.852 -3.1384  2.1388  2.2767
  311MOL0     H41945   9.723   7.750   7.755  0.1044  1.5099  0.8250
  311MOL0     H41946   9.489   7.766   7.682  3.1836 -1.0257  0.0383
  311MOL0     H41947   9.075   7.716   7.670 -0.3823  1.5095  0.9376
  311MOL0     H41948   8.823   7.718   7.625 -3.1363 -0.7755  1.6118
  311MOL0     H41949   8.615   7.718   7.621 -1.8979  1.2154  0.1197
  311MOL0     H41950   8.595   7.569   7.720  2.5732 -0.0593 -0.5013
  311MOL0     H41951   8.402   7.721   7.817  2.8910  0.8969  1.4158
  311MOL0     H41952   8.418   7.819   7.674  0.1337 -0.5571  1.2819
  311MOL0     H41953   8.410   7.584   7.551  1.0219  2.0594  0.7793
  311MOL0     H41954   8.359   7.509   7.706 -0.8383 -0.7465  0.2801
  311MOL0     H41955   8.178   7.726   7.647  0.4478  0.0621 -0.0232
  311MOL0     H41956   8.157   7.558   7.694 -3.4621  2.2193 -0.7872
  311MOL0     H41957   8.065   7.592   7.489  0.7546 -2.3680  0.8988
  311MOL0     H41958   8.219   7.508   7.449  0.6867 -0.3125  1.2721
  311MOL0     H41959   8.223   7.823   7.451  1.6166  0.0931  0.2069
  311MOL0     H41960   8.309   7.700   7.348 -0.5711 -2.0512 -0.0576
  311MOL0     H41961   7.996   7.784   7.327  1.0726  2.8943 -1.0560
  311MOL0     H41962   8.105   7.690   7.210  2.0890 -0.7193  0.6615
  311MOL0     H41963   8.124   7.989   7.271  2.6986  0.7061 -1.7441
  311MOL0     H41964   8.213   7.878   7.161 -0.5922 -1.7708 -1.6735
  311MOL0     H41965   8.755   7.778   8.044 -0.0870 -2.4289  0.0589
  311MOL0     H41966   8.982   7.779   8.093  0.6870  1.6640  0.1803
  311MOL0     H41967   9.367   7.853   8.072 -1.6330 -2.3811 -2.2029
  311MOL0     H41968   9.615   7.869   8.155  0.9208 -1.7225 -0.1349
  311MOL0     H41969  10.661   6.996   7.117  0.3758 -1.8149 -0.9594
  311MOL0     H41970  10.737   6.935   6.898 -1.3022  1.4481 -1.1330
  311MOL0     H41971  10.682   6.712   6.558 -2.5332 -4.8371 -0.7691
  311MOL0     H41972  10.684   6.594   6.355 -2.0496 -0.8867  0.1255
  311MOL0     H41973  10.666   6.832   5.957 -3.0459  0.3501  1.3217
  311MOL0     H41974  10.527   6.731   5.965 -0.3790  0.6415  0.5293
  311MOL0     H41975  10.610   6.558   5.856  0.1721 -1.5310 -0.9823
  311MOL0     H41976  10.777   6.575   5.905 -0.1660  1.0694  1.4520
  311MOL0     H41977  10.777   6.630   5.663  0.9546  1.9864 -1.1841
  311MOL0     H41978  10.814   6.768   5.739 -1.2723  1.5920 -2.3037
  311MOL0     H41979  10.547   6.714   5.611  0.4332 -2.4228  1.7120
  311MOL0     H41980  10.559   6.822   5.743  0.0642  3.5468 -1.0783
  311MOL0     H41981  10.721   7.038   5.419  0.5264 -0.2283  0.8864
  311MOL0     H41982  10.547   6.925   6.137 -1.8741  0.6113  0.5606
  311MOL0     H41983  10.405   7.093   6.354 -0.0192  3.1626 -2.1846
  311MOL0     H41984  10.565   7.166   6.379  1.8647 -1.9997  1.7716
  311MOL0     H41985  10.512   7.121   6.216  1.0018  1.4636  0.5444
  312MOL0     O41986  10.907  10.589   3.566 -0.2782  1.4922  0.5657
  312MOL0     C41987  10.933  10.644   3.463 -0.0563  0.0396  0.3838
  312MOL0     O41988  10.846  10.647   3.351  0.3039  0.5880 -0.2037
  312MOL0     C41989  10.727  10.583   3.359  0.8866  0.1274 -0.9142
  312MOL0     C41990  10.712  10.458   3.305 -0.0108 -0.2057  0.1293
  312MOL0     C41991  10.581  10.400   3.324 -0.1113 -0.0488 -0.5442
  312MOL0     C41992  10.466  10.467   3.375 -0.3435 -0.5560  0.3057
  312MOL0     O41993  10.342  10.420   3.393  0.1481  0.0456 -0.4800
  312MOL0     C41994  10.312  10.287   3.360  0.3081  0.3230 -0.9199
  312MOL0     C41995  10.244  10.299   3.223 -0.3046  0.3212  0.5180
  312MOL0     C41996  10.335  10.299   3.098  0.3212 -0.3068 -0.2709
  312MOL0     C41997  10.248  10.333   2.981  0.4441 -0.6418  0.0538
  312MOL0     C41998  10.292  10.309   2.831  0.2908 -0.1836 -0.6172
  312MOL0     C41999  10.448  10.353   2.815  0.5020  0.3171  0.2988
  312MOL0     C42000  10.476  10.329   2.669  0.4042 -0.1909 -0.4167
  312MOL0     C42001  10.614  10.386   2.645 -0.8926  0.5391  0.6983
  312MOL0     N42002  10.642  10.379   2.500 -0.7250 -0.3597  0.3591
  312MOL0     C42003  10.638  10.488   2.417 -0.2377  0.2164 -0.1389
  312MOL0     C42004  10.689  10.442   2.303  0.4528 -0.2724 -0.0595
  312MOL0     C42005  10.724  10.530   2.181  0.8102  0.2819 -0.7056
  312MOL0     C42006  10.607  10.540   2.076 -0.7412  0.0454 -0.0853
  312MOL0     C42007  10.637  10.596   1.940 -0.4501  0.9067  0.4650
  312MOL0     C42008  10.605  10.741   1.934 -0.4937  0.2609  0.1088
  312MOL0     O42009  10.712  10.813   1.998  1.0814 -0.5266  0.0460
  312MOL0     C42010  10.790  10.888   1.923  0.8029 -0.3405 -0.9710
  312MOL0     C42011  10.786  11.025   1.924 -0.5105 -0.1500  0.1344
  312MOL0     C42012  10.872  11.097   1.839  0.5487 -0.4241 -1.3638
  312MOL0     C42013  10.947  11.029   1.738 -0.1693  0.8344  0.0518
  312MOL0     C42014  11.031  11.107   1.646 -0.0141 -0.0333 -0.6472
  312MOL0     O42015  11.087  11.033   1.547  0.1609  0.3709 -0.5552
  312MOL0     C42016  11.144  11.099   1.438 -0.3016 -0.0827 -1.0465
  312MOL0     C42017  11.275  11.142   1.446  0.3596  0.2458  0.4823
  312MOL0     C42018  11.348  11.187   1.339 -0.9091 -0.3415  0.0388
  312MOL0     C42019  11.280  11.218   1.226  0.3432 -0.2683 -0.4893
  312MOL0     O42020  11.349  11.274   1.119  1.1177  0.0206 -0.1633
  312MOL0     C42021  11.489  11.289   1.122 -0.0600 -0.2269  0.2559
  312MOL0     C42022  11.528  11.345   0.984  0.3613 -0.1988 -0.0472
  312MOL0     C42023  11.675  11.365   0.982 -0.2363  0.2602 -0.2668
  312MOL0     C42024  11.710  11.409   0.840  1.6724  0.2788  0.8140
  312MOL0     C42025  11.855  11.404   0.808  0.1414  0.7994  0.2044
  312MOL0     C42026  11.922  11.520   0.870 -0.7675  0.6647 -0.3740
  312MOL0     C42027  12.069  11.533   0.830 -0.1950  0.2525  0.3892
  312MOL0     C42028  12.150  11.650   0.886  0.4963  0.5053 -0.0825
  312MOL0    Cl42029  12.145  11.657   1.057 -0.0898 -0.1028  0.3738
  312MOL0     C42030  11.147  11.170   1.207  0.9070  0.4161  0.3385
  312MOL0     C42031  11.086  11.118   1.318  1.1439  0.5233 -0.0031
  312MOL0     O42032  11.028  11.224   1.648  0.0267  0.5401 -0.5476
  312MOL0     C42033  10.944  10.889   1.737 -0.0717  0.4669  0.8400
  312MOL0     C42034  10.872  10.824   1.830 -0.8346  1.4035 -0.8203
  312MOL0     N42035  10.711  10.303   2.311  0.0410  0.3016 -0.1759
  312MOL0     N42036  10.683  10.269   2.433  0.0517 -0.0889  0.7186
  312MOL0     C42037  10.489  10.594   3.429 -0.2764  0.6270 -1.1854
  312MOL0     C42038  10.618  10.652   3.426 -0.6279  0.7065  0.8165
  312MOL0     C42039  11.064  10.709   3.446  0.0664  0.1784 -0.5578
  312MOL0     C42040  11.082  10.788   3.331  0.3089 -0.7833  0.0785
  312MOL0     C42041  11.206  10.857   3.304  0.9104 -0.2385  0.0309
  312MOL0     C42042  11.301  10.859   3.396 -0.2405 -0.1307 -0.1990
  312MOL0     O42043  11.418  10.931   3.369 -0.4566  0.3390  0.4865
  312MOL0     C42044  11.530  10.926   3.455  0.0519  0.2191  0.0731
  312MOL0     C42045  11.664  10.964   3.372  1.1871 -0.8292  0.1373
  312MOL0     C42046  11.789  10.945   3.448 -0.0482 -0.9059 -0.7551
  312MOL0     C42047  11.797  10.821   3.545 -0.7000  0.1302  0.1344
  312MOL0     C42048  11.919  10.815   3.629 -0.6336 -0.5572 -0.5528
  312MOL0     C42049  12.023  10.813   3.696  0.8405  0.8927  0.4987
  312MOL0     C42050  11.298  10.769   3.503  0.2904 -0.0875  0.2312
  312MOL0     C42051  11.178  10.704   3.530  0.7841 -0.0097 -0.0972
  312MOL0     C42052  11.188  10.618   3.654 -0.4967 -0.8096  0.3699
  312MOL0     H42053  10.788  10.400   3.253  1.5394  1.1065  0.8356
  312MOL0     H42054  10.569  10.306   3.272 -0.2092 -0.8654  0.8978
  312MOL0     H42055  10.385  10.206   3.354 -3.3356 -3.2042 -1.2400
  312MOL0     H42056  10.236  10.245   3.426  1.1863  1.6918  1.1049
  312MOL0     H42057  10.177  10.384   3.235  1.9449  2.0974  1.1136
  312MOL0     H42058  10.192  10.203   3.219 -0.1745  0.2943 -0.9524
  312MOL0     H42059  10.380  10.200   3.091 -0.5273 -0.7209  0.0311
  312MOL0     H42060  10.408  10.378   3.117  1.4015 -1.6329  1.2966
  312MOL0     H42061  10.152  10.281   2.977 -0.9845  1.8676 -1.6210
  312MOL0     H42062  10.233  10.442   2.986  2.0832 -0.4214  1.1539
  312MOL0     H42063  10.304  10.200   2.832  1.8779 -0.0738  2.3602
  312MOL0     H42064  10.221  10.357   2.763  1.0779  1.4691 -0.3036
  312MOL0     H42065  10.454  10.461   2.834  1.1252  0.6297 -1.4776
  312MOL0     H42066  10.525  10.304   2.875 -0.4877 -2.0382 -0.2335
  312MOL0     H42067  10.398  10.379   2.610  1.4549 -1.2871 -2.8966
  312MOL0     H42068  10.475  10.222   2.649  2.8842 -0.4984  0.6967
  312MOL0     H42069  10.612  10.487   2.687  1.6900  0.5304  0.9850
  312MOL0     H42070  10.684  10.330   2.707 -1.1660 -1.1143 -0.4129
  312MOL0     H42071  10.622  10.593   2.443  3.2058  0.6189  0.7376
  312MOL0     H42072  10.736  10.635   2.211 -1.1674  0.3753 -0.1476
  312MOL0     H42073  10.815  10.497   2.129  0.5684 -2.1355  0.2568
  312MOL0     H42074  10.579  10.435   2.062  0.2401 -0.6210  2.4174
  312MOL0     H42075  10.525  10.593   2.124 -0.7682 -0.1734  0.1165
  312MOL0     H42076  10.571  10.547   1.868  1.7636 -3.0938  0.8883
  312MOL0     H42077  10.736  10.572   1.902 -1.7955 -1.4601 -1.8877
  312MOL0     H42078  10.512  10.756   1.989 -0.2611  0.9707  0.3166
  312MOL0     H42079  10.595  10.782   1.832  0.7842  1.0364  0.2721
  312MOL0     H42080  10.731  11.067   2.008  1.1815  0.6580  0.8990
  312MOL0     H42081  10.856  11.204   1.849 -3.0373 -1.0591  3.9814
  312MOL0     H42082  11.322  11.122   1.542  1.8581 -3.0738 -0.7847
  312MOL0     H42083  11.453  11.212   1.348 -1.4300  1.0976  3.6313
  312MOL0     H42084  11.515  11.368   1.193 -1.1653  0.7297 -0.3769
  312MOL0     H42085  11.544  11.198   1.146 -1.0735 -0.0721  3.7789
  312MOL0     H42086  11.494  11.275   0.906  1.3980  0.4328 -1.1013
  312MOL0     H42087  11.480  11.442   0.972  0.7244 -0.2749 -2.8270
  312MOL0     H42088  11.706  11.445   1.050 -0.3553  1.5988 -1.7381
  312MOL0     H42089  11.722  11.268   1.006 -3.2017 -1.2338 -0.0736
  312MOL0     H42090  11.668  11.508   0.822 -1.8039 -1.5393 -2.3752
  312MOL0     H42091  11.655  11.338   0.777  1.1579 -2.2949  3.9074
  312MOL0     H42092  11.861  11.413   0.699  5.0919 -0.0644  0.1747
  312MOL0     H42093  11.898  11.309   0.842 -1.8231  0.1681  1.0288
  312MOL0     H42094  11.878  11.613   0.833 -0.3794  0.3346 -1.6884
  312MOL0     H42095  11.905  11.516   0.978 -0.0861  0.6749 -0.2647
  312MOL0     H42096  12.071  11.536   0.721 -0.6312 -1.3429  0.3071
  312MOL0     H42097  12.117  11.446   0.875 -1.4133 -0.7665 -0.2074
  312MOL0     H42098  12.257  11.644   0.863  0.7584  3.1466  0.1433
  312MOL0     H42099  12.098  11.740   0.851 -0.2327  0.4396  0.7867
  312MOL0     H42100  11.088  11.195   1.119 -0.2621  2.3774  1.6081
  312MOL0     H42101  10.980  11.096   1.310  0.3728  4.2898 -3.2907
  312MOL0     H42102  10.993  10.833   1.657  0.8140  1.2869  0.7916
  312MOL0     H42103  10.875  10.715   1.823  0.1650  1.4047 -0.5520
  312MOL0     H42104  10.417  10.647   3.491 -1.2729 -0.9617 -0.9224
  312MOL0     H42105  10.631  10.753   3.464 -0.3512  0.6068  0.9942
  312MOL0     H42106  11.000  10.800   3.261 -0.1724 -0.9971  0.5976
  312MOL0     H42107  11.211  10.920   3.215 -2.7732 -0.5938 -0.5894
  312MOL0     H42108  11.551  10.825   3.489 -1.4196  0.8318  3.1110
  312MOL0     H42109  11.501  10.986   3.542  1.8046 -2.5945  2.8180
  312MOL0     H42110  11.667  11.066   3.334  0.5412 -0.6719  0.4903
  312MOL0     H42111  11.665  10.904   3.281 -0.0415  0.7348 -0.9575
  312MOL0     H42112  11.809  11.033   3.509  1.0780  0.8127 -3.3950
  312MOL0     H42113  11.864  10.945   3.368  0.7107  0.3796 -0.0797
  312MOL0     H42114  11.718  10.811   3.620 -0.5551  2.3211  0.6356
  312MOL0     H42115  11.779  10.732   3.483 -6.3836 -0.0884  1.5014
  312MOL0     H42116  12.117  10.801   3.745  0.1143 -0.7770  1.5816
  312MOL0     H42117  11.375  10.743   3.575 -2.5367  0.0560  3.6450
  312MOL0     H42118  11.150  10.678   3.737  0.3073  0.6896 -0.2962
  312MOL0     H42119  11.139  10.521   3.643 -0.4492 -0.8344  0.3818
  312MOL0     H42120  11.290  10.589   3.678 -1.0040 -2.1672  1.0142
  313MOL0     O42121   9.974   8.430   3.281 -0.0622 -0.4543 -0.5080
  313MOL0     C42122   9.956   8.314   3.295  0.0342 -0.4140  1.0375
  313MOL0     O42123   9.929   8.221   3.198 -0.0691 -0.3907 -0.1653
  313MOL0     C42124   9.922   8.238   3.060 -1.1781 -0.3081  0.0367
  313MOL0     C42125   9.955   8.351   2.985 -0.6525 -0.5267  0.0186
  313MOL0     C42126   9.960   8.338   2.847  0.1195  0.5954  0.2043
  313MOL0     C42127   9.931   8.225   2.773  0.4770  0.4061 -0.9882
  313MOL0     O42128   9.929   8.226   2.638 -0.3033 -0.0216 -0.1641
  313MOL0     C42129   9.932   8.110   2.556  0.0913  0.6474 -0.6235
  313MOL0     C42130  10.073   8.045   2.542  0.1544  0.3066 -1.2159
  313MOL0     C42131  10.152   8.112   2.434 -0.9609 -0.7398  0.2275
  313MOL0     C42132  10.282   8.050   2.410 -0.7894  0.7501 -0.8040
  313MOL0     C42133  10.345   8.080   2.276  0.7170 -0.9445 -0.2118
  313MOL0     C42134  10.272   8.016   2.158  0.2549  0.1230 -0.3743
  313MOL0     C42135  10.307   8.086   2.036  0.5513 -0.0726  0.3269
  313MOL0     C42136  10.459   8.082   1.998  0.0574  0.0380  0.1737
  313MOL0     N42137  10.465   8.093   1.848  0.5175 -0.4563  0.4655
  313MOL0     C42138  10.495   7.999   1.756 -0.5638 -0.0552  0.7772
  313MOL0     C42139  10.486   8.067   1.642 -0.6380 -0.4178  0.6341
  313MOL0     C42140  10.517   8.008   1.504  0.4599 -0.1915  0.1892
  313MOL0     C42141  10.611   8.111   1.433 -0.1903  0.8398 -0.5268
  313MOL0     C42142  10.757   8.098   1.460 -0.7444 -0.4143 -0.8066
  313MOL0     C42143  10.855   8.183   1.374 -0.0083  0.3402  0.2225
  313MOL0     O42144  10.861   8.319   1.413  0.7382 -0.0553  0.8158
  313MOL0     C42145  10.833   8.410   1.317  0.4113 -0.1093 -0.1919
  313MOL0     C42146  10.752   8.400   1.207  0.1400  0.3777  0.4280
  313MOL0     C42147  10.760   8.497   1.100  1.3305  0.2694 -0.1308
  313MOL0     C42148  10.833   8.616   1.113 -0.8150  0.1995  0.0150
  313MOL0     C42149  10.831   8.721   1.002  0.8351 -0.6823  0.2052
  313MOL0     O42150  10.893   8.838   1.020 -0.1352  0.5263 -0.7180
  313MOL0     C42151  10.938   8.920   0.926 -0.2876 -0.5120  0.9436
  313MOL0     C42152  10.960   9.054   0.966  0.0508  1.2871  0.1627
  313MOL0     C42153  11.033   9.132   0.886 -0.2215 -0.1838  0.2427
  313MOL0     C42154  11.087   9.095   0.769  0.3645  0.2928  1.1124
  313MOL0     O42155  11.129   9.172   0.663 -0.0193 -0.3558  0.5163
  313MOL0     C42156  11.143   9.312   0.686 -0.3354 -0.8558  1.1461
  313MOL0     C42157  11.237   9.377   0.581  0.0221 -0.0146 -0.0838
  313MOL0     C42158  11.162   9.361   0.448  0.4884  0.1334 -0.0261
  313MOL0     C42159  11.062   9.472   0.424  0.0778 -0.1031  0.5120
  313MOL0     C42160  10.968   9.439   0.306  0.5664 -0.1618 -0.4640
  313MOL0     C42161  10.829   9.517   0.321 -0.5439 -0.0311 -0.5122
  313MOL0     C42162  10.744   9.509   0.191  0.0880  0.4194 -0.3516
  313MOL0     C42163  10.646   9.389   0.188  0.1014  0.0678 -1.3396
  313MOL0    Cl42164  10.533   9.399   0.325  0.2819 -0.4975  0.0779
  313MOL0     C42165  11.060   8.967   0.724  0.5932  0.2761  0.5031
  313MOL0     C42166  10.994   8.878   0.805  0.5341 -0.1938  0.0648
  313MOL0     O42167  10.783   8.690   0.897  0.2563  0.1582  0.6443
  313MOL0     C42168  10.908   8.624   1.235  0.6414 -0.7133 -0.7544
  313MOL0     C42169  10.912   8.524   1.332 -0.5144 -0.7261 -0.5712
  313MOL0     N42170  10.461   8.199   1.673 -0.4861 -0.1535  1.5336
  313MOL0     N42171  10.442   8.216   1.797  0.6139  0.5029  0.0627
  313MOL0     C42172   9.885   8.113   2.844  0.8050  0.1864 -0.5468
  313MOL0     C42173   9.874   8.128   2.990 -0.4193 -0.6538  0.2803
  313MOL0     C42174   9.962   8.266   3.435  1.3642 -0.8306 -0.1202
  313MOL0     C42175   9.858   8.301   3.528  0.0901 -0.4399  0.0113
  313MOL0     C42176   9.860   8.257   3.661  0.8426 -0.1860 -0.3768
  313MOL0     C42177   9.961   8.172   3.699 -0.2928  0.6253 -0.0832
  313MOL0     O42178   9.969   8.125   3.834  0.8068 -0.4169 -0.0974
  313MOL0     C42179   9.939   7.987   3.842  0.2081 -0.4880 -0.0374
  313MOL0     C42180   9.789   7.959   3.873  0.7379 -0.0631  0.0863
  313MOL0     C42181   9.739   7.999   4.027 -0.3679  0.4382 -0.3624
  313MOL0     C42182   9.591   8.050   4.023 -0.0754 -0.2314 -0.2870
  313MOL0     C42183   9.496   7.948   3.979 -0.3819  0.5576  0.4115
  313MOL0     C42184   9.410   7.868   3.941 -0.3326 -0.0278 -0.4896
  313MOL0     C42185  10.064   8.140   3.611 -0.2491 -1.1717  0.4129
  313MOL0     C42186  10.069   8.185   3.481  0.5502  0.6147  0.6006
  313MOL0     C42187  10.179   8.134   3.383 -0.3012 -1.1200  0.3107
  313MOL0     H42188   9.972   8.450   3.024 -2.8961  0.0348 -0.2879
  313MOL0     H42189   9.996   8.424   2.792  2.8748 -1.3060 -1.1784
  313MOL0     H42190   9.858   8.035   2.586 -1.8501  2.1933 -1.3485
  313MOL0     H42191   9.895   8.135   2.456  1.2447  1.4655 -0.8641
  313MOL0     H42192  10.058   7.942   2.506  3.4193 -0.8690  0.3560
  313MOL0     H42193  10.118   8.044   2.641 -3.1423 -1.1984  0.4417
  313MOL0     H42194  10.164   8.217   2.464 -4.1567  1.0725 -3.7803
  313MOL0     H42195  10.100   8.117   2.338  0.1344 -1.0144 -0.3955
  313MOL0     H42196  10.352   8.092   2.483 -1.4605  2.5763 -1.1455
  313MOL0     H42197  10.279   7.941   2.415  0.9901  0.6588 -0.9672
  313MOL0     H42198  10.349   8.188   2.262  0.3107 -1.1851 -2.6041
  313MOL0     H42199  10.448   8.044   2.278  0.4755 -1.6511  1.2389
  313MOL0     H42200  10.304   7.912   2.148  1.7753  0.4205  1.0525
  313MOL0     H42201  10.163   8.021   2.167  0.3887 -0.6816  2.5028
  313MOL0     H42202  10.281   8.193   2.036 -1.0994 -0.4377 -1.2977
  313MOL0     H42203  10.247   8.038   1.959  1.5761  2.8763 -2.5436
  313MOL0     H42204  10.517   8.163   2.043 -1.0657 -0.7383  3.3129
  313MOL0     H42205  10.509   7.989   2.027  1.3748  0.7763  0.3714
  313MOL0     H42206  10.503   7.891   1.770 -1.1645 -0.4088 -1.3535
  313MOL0     H42207  10.562   7.908   1.499  0.1302 -0.2758 -2.8137
  313MOL0     H42208  10.428   8.012   1.440  2.4470  3.7972 -2.7556
  313MOL0     H42209  10.596   8.110   1.325  2.4513  1.0621 -0.9660
  313MOL0     H42210  10.588   8.217   1.453  0.7103  0.7561  1.1547
  313MOL0     H42211  10.794   7.996   1.447  4.0524  0.6984  1.7534
  313MOL0     H42212  10.772   8.126   1.565 -1.9173  1.5996 -1.1286
  313MOL0     H42213  10.832   8.169   1.268 -1.2545  1.4389  0.3174
  313MOL0     H42214  10.959   8.153   1.386  0.0762  0.5321 -0.0175
  313MOL0     H42215  10.702   8.306   1.187  0.9913  0.0246 -0.0808
  313MOL0     H42216  10.703   8.495   1.008  1.6927 -1.0388 -0.3419
  313MOL0     H42217  10.911   9.082   1.059 -5.3123  0.5687 -2.0732
  313MOL0     H42218  11.026   9.238   0.907  0.8360  0.6545 -3.0999
  313MOL0     H42219  11.042   9.352   0.693 -0.3634 -0.8778  0.8651
  313MOL0     H42220  11.193   9.333   0.781  1.2977  1.3396 -0.1002
  313MOL0     H42221  11.247   9.486   0.584 -0.9468  0.4528 -5.0551
  313MOL0     H42222  11.337   9.334   0.585  0.5262  1.1906  0.8497
  313MOL0     H42223  11.233   9.367   0.365 -3.6063 -0.5716 -4.0159
  313MOL0     H42224  11.116   9.263   0.435  1.9889 -0.9925  2.4438
  313MOL0     H42225  11.118   9.564   0.404 -2.8371  1.6393 -0.2418
  313MOL0     H42226  10.999   9.500   0.509 -1.0172  4.4080 -1.4433
  313MOL0     H42227  10.958   9.331   0.293  2.6131 -0.3535 -0.8335
  313MOL0     H42228  11.010   9.468   0.210 -0.9999 -1.9400 -1.7563
  313MOL0     H42229  10.793   9.460   0.406  0.6085 -1.5814 -1.0258
  313MOL0     H42230  10.835   9.626   0.334 -2.5275  0.3557 -2.2622
  313MOL0     H42231  10.817   9.492   0.112 -1.7583  0.3781 -2.1444
  313MOL0     H42232  10.691   9.603   0.174  0.7610  0.3510 -3.3699
  313MOL0     H42233  10.588   9.405   0.097  2.1740 -0.6961 -2.8578
  313MOL0     H42234  10.700   9.294   0.194  0.7618  0.3977 -1.9451
  313MOL0     H42235  11.088   8.929   0.626  2.3952  1.9646  0.2965
  313MOL0     H42236  10.979   8.773   0.780  0.5206 -0.0229 -0.6647
  313MOL0     H42237  10.952   8.722   1.249 -2.6881  1.0364 -1.5486
  313MOL0     H42238  10.988   8.532   1.409 -1.1894  0.6506 -0.0133
  313MOL0     H42239   9.842   8.032   2.787  1.6068 -0.9058  0.3434
  313MOL0     H42240   9.833   8.046   3.048  1.0281 -2.6602 -1.3835
  313MOL0     H42241   9.772   8.343   3.477 -0.5856 -1.0633  0.6139
  313MOL0     H42242   9.791   8.282   3.741  2.0946 -7.0538  3.5974
  313MOL0     H42243   9.996   7.934   3.918 -1.4110 -0.4368  1.2775
  313MOL0     H42244   9.953   7.943   3.743 -1.6451  1.4556 -1.2710
  313MOL0     H42245   9.776   7.852   3.858  1.9403 -0.2952  0.6059
  313MOL0     H42246   9.733   8.017   3.799  2.1823  1.4302  0.0969
  313MOL0     H42247   9.799   8.085   4.058 -1.3460  1.7223 -1.8765
  313MOL0     H42248   9.750   7.919   4.101 -1.4595  1.0183  0.4586
  313MOL0     H42249   9.555   8.078   4.122 -2.3851  0.5608 -1.2971
  313MOL0     H42250   9.586   8.143   3.965  0.9227 -0.5330 -0.8869
  313MOL0     H42251   9.340   7.787   3.934 -0.9179  0.3378  0.7351
  313MOL0     H42252  10.149   8.083   3.648 -0.3906  0.1929  3.0832
  313MOL0     H42253  10.145   8.060   3.309 -0.0648 -0.2513 -0.6880
  313MOL0     H42254  10.235   8.216   3.337  0.3125 -1.7719 -0.1338
  313MOL0     H42255  10.259   8.089   3.443  3.5658 -0.9282 -4.1601
  314MOL0     O42256   7.209  10.214   8.102 -0.1026  0.0532  0.3953
  314MOL0     C42257   7.151  10.181   7.995  0.9229  0.9968 -0.1663
  314MOL0     O42258   7.014  10.149   7.989  0.9761  0.8809 -0.1839
  314MOL0     C42259   6.940  10.125   8.103  1.1885  0.3170 -0.0141
  314MOL0     C42260   6.990  10.042   8.198 -1.3316  0.0944 -0.1224
  314MOL0     C42261   6.920  10.010   8.312  0.0307  0.0247 -0.0243
  314MOL0     C42262   6.785  10.051   8.324  0.4101  0.4395 -0.1534
  314MOL0     O42263   6.706  10.023   8.433  1.0721 -0.2880 -0.5889
  314MOL0     C42264   6.679  10.144   8.513  0.1933  1.1390 -0.3241
  314MOL0     C42265   6.599  10.119   8.641 -0.9192 -0.2541  0.2232
  314MOL0     C42266   6.558  10.250   8.716  0.1580 -0.3501 -0.4995
  314MOL0     C42267   6.453  10.239   8.830 -0.3217 -0.2787  0.8340
  314MOL0     C42268   6.423  10.380   8.892  0.3477 -0.3879 -0.5580
  314MOL0     C42269   6.364  10.360   9.025  0.2095  0.1753 -0.4084
  314MOL0     C42270   6.308  10.500   9.069  0.1096  0.4137  0.1721
  314MOL0     C42271   6.409  10.616   9.106  0.3569  0.4954  1.0251
  314MOL0     N42272   6.351  10.754   9.081 -0.2086 -0.0544 -0.9701
  314MOL0     C42273   6.233  10.815   9.111 -1.0162  0.3164 -0.2377
  314MOL0     C42274   6.243  10.942   9.080  0.3408 -0.2962 -0.2266
  314MOL0     C42275   6.140  11.052   9.104 -0.5268 -0.4485 -0.5363
  314MOL0     C42276   6.032  11.077   8.990  0.1078  0.7869 -1.1612
  314MOL0     C42277   6.110  11.126   8.864 -0.6211 -0.2619 -0.6045
  314MOL0     C42278   6.004  11.116   8.748 -0.0432 -0.0921 -0.4749
  314MOL0     O42279   6.077  11.127   8.625 -0.2715  0.0873  0.5986
  314MOL0     C42280   6.011  11.116   8.501  0.1731 -1.2576 -0.9650
  314MOL0     C42281   5.882  11.076   8.504  0.9072  0.2878  0.2962
  314MOL0     C42282   5.818  11.072   8.379  0.2662  0.0500 -0.6833
  314MOL0     C42283   5.876  11.113   8.259  0.6169 -1.0960  0.9196
  314MOL0     C42284   5.788  11.124   8.143 -0.6460 -0.8186 -0.4054
  314MOL0     O42285   5.848  11.141   8.026 -0.0804  0.0355 -0.1256
  314MOL0     C42286   5.769  11.133   7.913 -0.8888  1.2250 -0.4099
  314MOL0     C42287   5.741  11.255   7.855 -0.4857  0.7444 -0.2839
  314MOL0     C42288   5.677  11.254   7.741 -0.5863  1.0051  0.3788
  314MOL0     C42289   5.633  11.138   7.678 -0.6191  0.2380 -0.1541
  314MOL0     O42290   5.565  11.133   7.555 -0.1946 -1.1103  0.8746
  314MOL0     C42291   5.645  11.180   7.445  0.7006  0.0393 -0.1034
  314MOL0     C42292   5.563  11.194   7.314 -0.2034  0.1768  0.3866
  314MOL0     C42293   5.459  11.299   7.320 -0.1455 -0.5077 -0.6489
  314MOL0     C42294   5.348  11.299   7.206 -0.4302 -0.1819 -0.4640
  314MOL0     C42295   5.398  11.360   7.070  0.5568 -0.1747  0.5721
  314MOL0     C42296   5.304  11.312   6.959  0.6534  0.4980  0.4667
  314MOL0     C42297   5.338  11.365   6.827 -0.6325  0.3407  0.6109
  314MOL0     C42298   5.244  11.328   6.716  0.3838 -0.0797 -0.0650
  314MOL0    Cl42299   5.110  11.425   6.745 -0.3885  0.0025 -0.3721
  314MOL0     C42300   5.662  11.013   7.737  0.3746 -0.1853  0.4689
  314MOL0     C42301   5.730  11.009   7.863  0.5108  0.4383 -0.3509
  314MOL0     O42302   5.663  11.126   8.170 -0.3348 -0.1793 -0.0545
  314MOL0     C42303   6.011  11.151   8.263 -0.1144  0.0502  0.8544
  314MOL0     C42304   6.076  11.149   8.390  0.2004 -0.5216 -0.5258
  314MOL0     N42305   6.366  10.959   9.029  0.2700 -0.6641  0.6483
  314MOL0     N42306   6.427  10.844   9.021 -0.1137 -0.9614 -0.6547
  314MOL0     C42307   6.726  10.114   8.214 -0.5942 -0.3304 -0.5350
  314MOL0     C42308   6.801  10.153   8.109  0.3091 -0.6777  0.8548
  314MOL0     C42309   7.209  10.209   7.864  0.5063  0.2949 -1.5895
  314MOL0     C42310   7.134  10.250   7.755  0.4760 -0.4158  0.6212
  314MOL0     C42311   7.196  10.303   7.638  0.4540  0.5532  0.7499
  314MOL0     C42312   7.341  10.295   7.628 -0.3138  0.2374 -0.4548
  314MOL0     O42313   7.426  10.320   7.524  0.3519 -0.0635 -0.2977
  314MOL0     C42314   7.373  10.391   7.415 -0.0815 -0.9395  0.3901
  314MOL0     C42315   7.427  10.532   7.404 -0.0380  0.5752 -0.1732
  314MOL0     C42316   7.576  10.529   7.358 -0.6064  0.1116 -0.0314
  314MOL0     C42317   7.677  10.475   7.453  0.0493  0.5341 -0.1484
  314MOL0     C42318   7.670  10.521   7.596 -0.3801 -0.0481  0.8630
  314MOL0     C42319   7.686  10.574   7.703 -0.0542  0.7049 -0.0294
  314MOL0     C42320   7.410  10.242   7.727  0.6987  0.8686 -0.2860
  314MOL0     C42321   7.352  10.192   7.853  1.2432  1.1632 -0.6942
  314MOL0     C42322   7.442  10.132   7.959 -0.2467 -0.3608 -0.0626
  314MOL0     H42323   7.095  10.014   8.197 -1.3320  0.0879 -0.6859
  314MOL0     H42324   6.962   9.938   8.382 -3.6233 -2.0661  0.2680
  314MOL0     H42325   6.777  10.174   8.552 -0.9244  2.1354  1.8984
  314MOL0     H42326   6.634  10.221   8.449  0.3721  1.2257 -0.3434
  314MOL0     H42327   6.666  10.061   8.705  0.5737  2.1356  0.9758
  314MOL0     H42328   6.513  10.057   8.614 -1.2956  0.1940  0.3754
  314MOL0     H42329   6.525  10.326   8.644 -1.3613 -0.2941  0.2220
  314MOL0     H42330   6.649  10.287   8.764  1.4692 -2.9852 -0.7790
  314MOL0     H42331   6.355  10.207   8.792 -0.1657 -1.4068  1.3436
  314MOL0     H42332   6.472  10.170   8.912 -0.0268 -1.0090  0.1636
  314MOL0     H42333   6.517  10.436   8.894  0.1876 -0.1177 -0.5538
  314MOL0     H42334   6.365  10.442   8.823  2.0039  0.5663 -1.1784
  314MOL0     H42335   6.281  10.288   9.033 -1.0769  1.6563  0.0338
  314MOL0     H42336   6.433  10.323   9.102  0.3148  0.9279 -0.1388
  314MOL0     H42337   6.245  10.489   9.158 -0.1182  0.3187 -0.0017
  314MOL0     H42338   6.240  10.537   8.992 -3.0644 -1.7327  1.7275
  314MOL0     H42339   6.428  10.590   9.210 -0.8562 -1.9247  0.7173
  314MOL0     H42340   6.509  10.601   9.063  0.4843 -2.3891  2.1065
  314MOL0     H42341   6.148  10.777   9.167 -3.2525  4.5678 -0.3830
  314MOL0     H42342   6.088  11.021   9.195 -0.4501  0.2304 -0.2589
  314MOL0     H42343   6.185  11.151   9.112  0.8889 -0.8802 -2.3966
  314MOL0     H42344   5.967  10.990   8.982  2.0208 -0.6870 -1.3817
  314MOL0     H42345   5.971  11.161   9.025 -1.6276  1.0813 -4.4826
  314MOL0     H42346   6.193  11.057   8.843  1.6455  1.9839  0.3649
  314MOL0     H42347   6.143  11.229   8.872  0.3792 -0.4290 -2.0423
  314MOL0     H42348   5.917  11.183   8.747 -0.4414 -0.5240  1.2314
  314MOL0     H42349   5.971  11.011   8.741 -2.8412  0.7951 -2.4996
  314MOL0     H42350   5.825  11.056   8.595  1.5324  1.0865  0.8782
  314MOL0     H42351   5.717  11.033   8.389  0.1430  0.7604  1.5097
  314MOL0     H42352   5.769  11.348   7.902 -1.7601  0.6770  0.6504
  314MOL0     H42353   5.655  11.350   7.695  1.0105  1.1416 -0.1352
  314MOL0     H42354   5.698  11.275   7.457  0.8924 -0.3048  2.1254
  314MOL0     H42355   5.722  11.106   7.424 -1.0174 -2.8884  2.9734
  314MOL0     H42356   5.638  11.227   7.241 -2.6317 -1.4121 -3.0832
  314MOL0     H42357   5.526  11.101   7.271 -3.8843  2.7216 -2.5721
  314MOL0     H42358   5.410  11.289   7.418 -1.9676  1.5212 -1.2679
  314MOL0     H42359   5.513  11.394   7.310 -1.2839  0.1241 -0.9654
  314MOL0     H42360   5.269  11.371   7.231 -0.5422  0.2434 -1.9840
  314MOL0     H42361   5.301  11.200   7.201  2.1375 -1.4682 -0.6888
  314MOL0     H42362   5.497  11.315   7.052  0.4755 -0.0464 -0.2628
  314MOL0     H42363   5.410  11.468   7.076  2.4992 -0.1603 -1.8524
  314MOL0     H42364   5.303  11.203   6.947 -1.6565  0.4643  0.3862
  314MOL0     H42365   5.204  11.343   6.991  0.2068 -0.6495  0.2189
  314MOL0     H42366   5.437  11.325   6.802 -1.0956 -0.0844 -0.6824
  314MOL0     H42367   5.348  11.473   6.820 -0.8143  0.2715 -2.5253
  314MOL0     H42368   5.289  11.323   6.617 -1.7609 -2.2256 -1.0325
  314MOL0     H42369   5.210  11.227   6.739 -2.5004  0.9859  0.7274
  314MOL0     H42370   5.620  10.919   7.703  2.8650 -0.3272 -2.6893
  314MOL0     H42371   5.756  10.921   7.921  0.5660  2.9684  3.8595
  314MOL0     H42372   6.061  11.174   8.170 -2.5218 -0.1436 -0.5884
  314MOL0     H42373   6.177  11.189   8.393  0.4394 -1.0991 -0.6708
  314MOL0     H42374   6.619  10.129   8.205 -0.1111  2.4310 -4.1207
  314MOL0     H42375   6.751  10.199   8.025  0.9292  1.4488  1.5735
  314MOL0     H42376   7.026  10.255   7.749  0.4945 -1.5600 -1.6150
  314MOL0     H42377   7.136  10.340   7.556  0.4984 -2.0071 -0.5621
  314MOL0     H42378   7.264  10.391   7.418 -0.2830  3.0563 -0.8203
  314MOL0     H42379   7.414  10.347   7.324  0.4184  0.8881 -0.3301
  314MOL0     H42380   7.408  10.581   7.500 -1.1996 -0.0952 -0.0484
  314MOL0     H42381   7.376  10.591   7.327 -0.8182 -1.1920 -1.0537
  314MOL0     H42382   7.595  10.632   7.326  3.0520  0.4471  2.6041
  314MOL0     H42383   7.580  10.473   7.264  3.7146 -0.0505  0.0694
  314MOL0     H42384   7.681  10.366   7.448  0.6717  0.5617 -0.2762
  314MOL0     H42385   7.774  10.503   7.410  2.0964 -0.5820  3.2918
  314MOL0     H42386   7.699  10.610   7.803 -0.7834  1.1762 -0.1024
  314MOL0     H42387   7.518  10.247   7.723  1.1394 -4.0366 -0.5975
  314MOL0     H42388   7.400  10.044   8.008 -0.0239 -0.7363 -0.5392
  314MOL0     H42389   7.531  10.088   7.912  0.9288  0.7623  1.0146
  314MOL0     H42390   7.483  10.209   8.025  1.9702 -0.0748 -1.6460
  315MOL0     O42391   0.446   6.927   8.473 -0.4950  0.3861 -0.8093
  315MOL0     C42392   0.537   6.949   8.397  0.3353  0.1969  0.8158
  315MOL0     O42393   0.651   7.017   8.434 -0.7458  0.1125 -0.0947
  315MOL0     C42394   0.664   7.108   8.541  0.5667  0.2784  0.7717
  315MOL0     C42395   0.684   7.052   8.662  0.9080  0.4521  0.1967
  315MOL0     C42396   0.705   7.135   8.772  1.5212 -0.5284  0.6814
  315MOL0     C42397   0.687   7.281   8.757 -0.0746 -0.2479 -1.0127
  315MOL0     O42398   0.698   7.373   8.857 -0.3602  0.4590 -0.2222
  315MOL0     C42399   0.784   7.339   8.966 -0.6553  0.0666 -0.7603
  315MOL0     C42400   0.776   7.460   9.066  0.0034  1.6179  0.5193
  315MOL0     C42401   0.873   7.424   9.183 -0.5357 -0.5155  0.0265
  315MOL0     C42402   0.909   7.547   9.252  0.4871  0.2370  0.1390
  315MOL0     C42403   1.012   7.525   9.365 -0.1384 -0.2438 -0.1843
  315MOL0     C42404   1.053   7.654   9.440 -0.2840 -0.4225 -0.5462
  315MOL0     C42405   1.057   7.787   9.348 -0.7778 -0.3077  0.0520
  315MOL0     C42406   1.123   7.906   9.423  0.4535  0.1586  0.6742
  315MOL0     N42407   1.028   7.973   9.508 -0.4870 -0.1904 -0.4267
  315MOL0     C42408   1.012   7.924   9.637  0.2717  0.3645  0.3687
  315MOL0     C42409   0.907   8.004   9.685  0.3364  0.3022 -0.4430
  315MOL0     C42410   0.868   7.990   9.833  0.3477  0.7050  0.3402
  315MOL0     C42411   0.968   8.073   9.919  0.1859 -0.4945  0.7492
  315MOL0     C42412   0.973   8.218   9.886  0.1254  0.0389  0.1295
  315MOL0     C42413   0.998   8.295  10.016 -0.6853 -0.2500  0.6741
  315MOL0     O42414   1.116   8.231  10.075 -0.9743 -0.3057 -0.6038
  315MOL0     C42415   1.143   8.238  10.212  0.4444 -0.6850 -0.2407
  315MOL0     C42416   1.053   8.299  10.308 -0.9070 -0.0075  0.2640
  315MOL0     C42417   1.092   8.296  10.441 -0.8766  0.5492 -0.3732
  315MOL0     C42418   1.200   8.224  10.491 -0.7033 -0.1358  0.3793
  315MOL0     C42419   1.233   8.222  10.632  0.3915  0.8410 -0.6831
  315MOL0     O42420   1.140   8.258  10.713  1.1434 -0.3175 -0.3645
  315MOL0     C42421   1.153   8.280  10.847 -0.2931  0.1550  1.2488
  315MOL0     C42422   1.052   8.226  10.934 -1.0165 -0.4662 -0.0014
  315MOL0     C42423   1.070   8.251  11.074 -0.1105 -0.0661  0.2774
  315MOL0     C42424   1.175   8.333  11.122 -0.4225 -0.6083  0.3095
  315MOL0     O42425   1.172   8.365  11.256 -0.4470 -0.4161  0.1300
  315MOL0     C42426   1.239   8.489  11.295  0.6464  0.4813 -1.0686
  315MOL0     C42427   1.200   8.508  11.450 -0.8295 -0.1328 -1.0943
  315MOL0     C42428   1.279   8.394  11.523 -0.5065 -0.0954  0.1272
  315MOL0     C42429   1.248   8.382  11.681  0.1864  0.1434  0.3776
  315MOL0     C42430   1.318   8.273  11.762 -0.2939 -0.4050 -0.8251
  315MOL0     C42431   1.308   8.282  11.918 -0.2286 -0.0815 -0.0574
  315MOL0     C42432   1.400   8.184  11.985  0.9981 -0.0168 -0.0254
  315MOL0     C42433   1.377   8.166  12.132 -0.3063 -0.4270 -1.1154
  315MOL0    Cl42434   1.534   8.160  12.225  0.6352  0.2383 -0.3712
  315MOL0     C42435   1.264   8.395  11.027  0.9166 -0.3634  0.1824
  315MOL0     C42436   1.259   8.360  10.895  0.1228 -0.4497  0.1227
  315MOL0     O42437   1.344   8.180  10.668  0.3960  0.2538  0.2843
  315MOL0     C42438   1.285   8.160  10.399 -0.4824  0.7168  0.9956
  315MOL0     C42439   1.257   8.175  10.264 -0.6041  0.8141 -0.8470
  315MOL0     N42440   0.868   8.085   9.585 -0.4293  0.0496 -0.7868
  315MOL0     N42441   0.928   8.062   9.469  1.1189 -0.3896 -0.5830
  315MOL0     C42442   0.661   7.336   8.631 -0.2707  0.1165  0.9888
  315MOL0     C42443   0.642   7.245   8.517 -0.4687 -0.1518 -0.4892
  315MOL0     C42444   0.524   6.889   8.256 -0.4149  0.6709 -0.7586
  315MOL0     C42445   0.468   6.757   8.246 -0.2278 -0.5675  0.5418
  315MOL0     C42446   0.467   6.689   8.127  0.4425  0.1376  0.4654
  315MOL0     C42447   0.511   6.752   8.012 -0.0621  0.1238 -0.0537
  315MOL0     O42448   0.517   6.663   7.905 -0.4379 -0.3547  0.2497
  315MOL0     C42449   0.593   6.713   7.791  0.6109  0.8040  1.3634
  315MOL0     C42450   0.583   6.608   7.688  0.9045 -1.5907 -0.1514
  315MOL0     C42451   0.673   6.496   7.743 -0.1501  0.3132 -0.3652
  315MOL0     C42452   0.708   6.388   7.639  0.3383 -0.6138  0.2933
  315MOL0     C42453   0.825   6.419   7.561  0.1401 -0.0378 -0.2080
  315MOL0     C42454   0.924   6.456   7.495 -0.5495  0.4452 -0.2660
  315MOL0     C42455   0.557   6.887   8.023 -0.1950 -0.2080  0.4220
  315MOL0     C42456   0.565   6.957   8.140 -0.1677 -0.3352 -0.8333
  315MOL0     C42457   0.621   7.099   8.128  0.0750  0.1479  0.1538
  315MOL0     H42458   0.686   6.945   8.680  2.9109  0.1315 -1.4452
  315MOL0     H42459   0.717   7.072   8.860  0.7291  0.2141  1.3401
  315MOL0     H42460   0.746   7.247   9.012 -3.6971  1.2242 -0.7198
  315MOL0     H42461   0.886   7.312   8.937 -1.4630 -2.1427 -1.8432
  315MOL0     H42462   0.676   7.462   9.110  1.5945 -1.2618  5.0125
  315MOL0     H42463   0.813   7.538   8.998 -0.0775  1.0498 -0.1910
  315MOL0     H42464   0.963   7.365   9.163  1.2602  1.1260  2.5661
  315MOL0     H42465   0.819   7.355   9.249  0.7595 -3.1251 -1.4705
  315MOL0     H42466   0.949   7.621   9.181 -0.4588  0.4382 -0.1984
  315MOL0     H42467   0.811   7.589   9.278  0.1834  1.1257 -2.1420
  315MOL0     H42468   0.989   7.448   9.440  3.0026  0.9459  2.2181
  315MOL0     H42469   1.096   7.494   9.301 -2.6636  1.9354 -5.1074
  315MOL0     H42470   0.976   7.669   9.517  1.2191 -2.6716  1.5481
  315MOL0     H42471   1.149   7.633   9.488 -0.5832 -1.0249 -0.2108
  315MOL0     H42472   0.961   7.825   9.312  1.1020  4.6034 -0.5440
  315MOL0     H42473   1.117   7.756   9.263 -0.7337 -0.0252 -0.0203
  315MOL0     H42474   1.210   7.859   9.470  3.3575 -1.2166 -5.1308
  315MOL0     H42475   1.156   7.977   9.347 -0.9462 -0.4348 -0.5366
  315MOL0     H42476   1.070   7.849   9.688 -2.7702 -2.7806 -0.3815
  315MOL0     H42477   0.765   8.028   9.841  0.7902  1.7788  1.3996
  315MOL0     H42478   0.861   7.886   9.865  0.6905  0.4621 -0.3713
  315MOL0     H42479   0.924   8.059  10.018 -1.3484 -3.7714 -0.2607
  315MOL0     H42480   1.070   8.032   9.918 -0.3058 -1.8265 -1.1806
  315MOL0     H42481   0.879   8.255   9.844 -1.6154 -4.2721 -0.2801
  315MOL0     H42482   1.062   8.232   9.824  0.7759  0.5670  1.1579
  315MOL0     H42483   0.905   8.304  10.073 -2.2346  0.3933 -1.7885
  315MOL0     H42484   1.013   8.401   9.990 -0.1735 -0.6515 -0.8083
  315MOL0     H42485   0.970   8.357  10.269 -0.0497  0.7384 -0.4865
  315MOL0     H42486   1.039   8.358  10.513 -0.0829  1.9621 -0.9482
  315MOL0     H42487   0.962   8.177  10.899 -1.2916 -0.6418  0.9346
  315MOL0     H42488   0.997   8.217  11.147 -0.6073 -0.3474 -0.3375
  315MOL0     H42489   1.348   8.478  11.294  0.8474 -1.3310  4.4799
  315MOL0     H42490   1.190   8.569  11.239 -0.1567 -0.4695 -1.7508
  315MOL0     H42491   1.227   8.607  11.489 -1.5884 -1.4955  3.4642
  315MOL0     H42492   1.095   8.494  11.477 -0.0556 -1.9207  1.2712
  315MOL0     H42493   1.261   8.292  11.486  1.5452 -2.1176  4.0093
  315MOL0     H42494   1.384   8.421  11.512 -0.6805 -0.1471 -2.0179
  315MOL0     H42495   1.141   8.363  11.694  0.2091 -0.1734  0.1361
  315MOL0     H42496   1.257   8.481  11.725  0.0511 -0.2458  1.3224
  315MOL0     H42497   1.423   8.271  11.730  0.3543  0.2801  1.1007
  315MOL0     H42498   1.284   8.173  11.734 -2.3364 -0.7510  2.3728
  315MOL0     H42499   1.341   8.384  11.940  2.6380  0.1164 -4.0881
  315MOL0     H42500   1.208   8.273  11.960  0.2999  0.5068  1.4066
  315MOL0     H42501   1.504   8.216  11.972  1.5069 -0.6817  2.0700
  315MOL0     H42502   1.402   8.088  11.933 -1.0185 -0.2517  0.2648
  315MOL0     H42503   1.321   8.255  12.161 -3.8553 -1.6009 -3.6976
  315MOL0     H42504   1.320   8.073  12.144 -2.3287  0.6293 -2.0725
  315MOL0     H42505   1.343   8.462  11.061  1.3082 -0.5066 -0.4299
  315MOL0     H42506   1.335   8.400  10.829  2.3435 -5.0175 -0.4400
  315MOL0     H42507   1.362   8.096  10.440 -1.7479 -0.7660  1.1661
  315MOL0     H42508   1.334   8.148  10.193 -0.3947  1.3423 -0.8279
  315MOL0     H42509   0.652   7.442   8.613 -0.2783 -0.5195 -4.3120
  315MOL0     H42510   0.633   7.272   8.412  3.0293  0.4741 -0.7751
  315MOL0     H42511   0.440   6.701   8.335 -2.9362 -0.0840  0.0830
  315MOL0     H42512   0.429   6.587   8.128 -2.1961  1.0304  0.0010
  315MOL0     H42513   0.694   6.742   7.819  0.7364  0.2739  1.4544
  315MOL0     H42514   0.537   6.793   7.741 -2.3296 -2.1644 -0.5787
  315MOL0     H42515   0.617   6.647   7.592  1.1712  2.3366  1.3689
  315MOL0     H42516   0.479   6.574   7.676  0.9721 -1.2865 -1.8830
  315MOL0     H42517   0.612   6.438   7.812  0.5969 -1.0709 -0.8338
  315MOL0     H42518   0.767   6.523   7.793  1.0346 -0.6621 -1.9529
  315MOL0     H42519   0.721   6.288   7.681  2.3183 -1.9062 -3.0429
  315MOL0     H42520   0.622   6.375   7.573  0.0367 -1.4069  0.8219
  315MOL0     H42521   1.013   6.476   7.440 -0.0189 -1.4682 -0.1916
  315MOL0     H42522   0.569   6.935   7.927 -0.8950 -1.0872 -0.1150
  315MOL0     H42523   0.725   7.083   8.157 -0.2663 -1.0663  0.8015
  315MOL0     H42524   0.626   7.128   8.023  2.1541  1.2254  0.4964
  315MOL0     H42525   0.582   7.169   8.202 -3.7527 -0.7879 -0.7258
  316MOL0     O42526   1.962   7.608   7.409  0.1427 -0.4655  0.0693
  316MOL0     C42527   1.971   7.663   7.306 -0.0536 -0.0630  0.4871
  316MOL0     O42528   2.084   7.658   7.224 -0.6327  0.5857  0.1670
  316MOL0     C42529   2.208   7.609   7.269  0.6655  0.3490 -0.3928
  316MOL0     C42530   2.244   7.586   7.401  0.5628 -0.3931  0.3011
  316MOL0     C42531   2.375   7.543   7.427 -0.5434 -0.3037  0.6601
  316MOL0     C42532   2.469   7.531   7.323  0.3931 -0.0894 -0.5541
  316MOL0     O42533   2.601   7.513   7.356  0.5790  0.1792  0.1779
  316MOL0     C42534   2.631   7.390   7.399  0.4635  0.0988 -0.2946
  316MOL0     C42535   2.775   7.377   7.434 -0.1991 -0.1015  0.1688
  316MOL0     C42536   2.816   7.475   7.549  0.7216 -0.2528 -0.2026
  316MOL0     C42537   2.963   7.508   7.577 -1.0120 -0.3224 -0.0562
  316MOL0     C42538   2.977   7.594   7.710  0.2668  0.2764 -0.1244
  316MOL0     C42539   2.952   7.743   7.685 -0.0082 -0.2037  0.4263
  316MOL0     C42540   2.946   7.812   7.821  0.4671  0.0061  0.7007
  316MOL0     C42541   2.918   7.959   7.814 -1.0778  0.4527 -0.3016
  316MOL0     N42542   2.797   7.991   7.735 -0.1663  0.2891 -0.1870
  316MOL0     C42543   2.669   7.955   7.767  0.0180  1.6033 -0.5231
  316MOL0     C42544   2.588   7.995   7.669 -0.2368 -0.9000 -1.0489
  316MOL0     C42545   2.439   7.989   7.667  0.3485  0.6397 -0.2008
  316MOL0     C42546   2.396   7.841   7.662 -0.3822  0.6736 -0.1808
  316MOL0     C42547   2.248   7.828   7.669  0.0027  0.6215 -0.4691
  316MOL0     C42548   2.186   7.873   7.533  0.1194  0.1106 -0.0243
  316MOL0     O42549   2.149   8.010   7.547 -0.9501  0.1181  0.3565
  316MOL0     C42550   2.033   8.051   7.493  0.3893  0.0505  0.2875
  316MOL0     C42551   1.935   8.122   7.561 -0.3972  0.6731  0.5359
  316MOL0     C42552   1.823   8.171   7.498 -0.2817  0.9535 -1.0388
  316MOL0     C42553   1.807   8.154   7.365  0.0492 -0.1487 -0.5865
  316MOL0     C42554   1.693   8.216   7.293  0.2637  0.4402  0.8722
  316MOL0     O42555   1.601   8.259   7.378  0.7001  0.2989 -0.1627
  316MOL0     C42556   1.467   8.288   7.349  0.6197 -0.1674 -0.5545
  316MOL0     C42557   1.401   8.334   7.464  0.0727  0.6564 -0.8281
  316MOL0     C42558   1.260   8.368   7.455 -0.8031 -0.1362 -0.1655
  316MOL0     C42559   1.185   8.346   7.338 -0.1282  0.0757  0.0195
  316MOL0     O42560   1.047   8.385   7.313  0.5944  0.0820  0.1778
  316MOL0     C42561   0.990   8.454   7.418 -0.5448 -0.0041  0.1863
  316MOL0     C42562   0.840   8.450   7.412  0.5450 -0.0975 -0.1450
  316MOL0     C42563   0.799   8.552   7.311 -0.4055 -0.8848  0.1079
  316MOL0     C42564   0.658   8.555   7.281 -1.0098  0.0340  0.3508
  316MOL0     C42565   0.563   8.613   7.387 -0.1109 -0.4161  0.1707
  316MOL0     C42566   0.502   8.508   7.472 -0.0667  0.7402 -0.0791
  316MOL0     C42567   0.365   8.539   7.536  0.2101 -0.2632  0.6116
  316MOL0     C42568   0.284   8.417   7.589 -1.2844  1.0621 -0.3991
  316MOL0    Cl42569   0.395   8.321   7.708  0.0444  0.2280  0.0174
  316MOL0     C42570   1.256   8.305   7.229  0.4342 -0.8975 -1.1709
  316MOL0     C42571   1.393   8.281   7.228 -0.3551  0.1875 -0.1735
  316MOL0     O42572   1.669   8.203   7.169 -0.7556  0.3710  0.0762
  316MOL0     C42573   1.902   8.077   7.298  0.2734  0.1508 -0.1999
  316MOL0     C42574   2.014   8.031   7.355 -0.2984 -0.3331 -0.8591
  316MOL0     N42575   2.673   8.054   7.574  0.4328 -0.1140  0.0720
  316MOL0     N42576   2.796   8.037   7.609  0.4838 -0.2501 -0.5962
  316MOL0     C42577   2.429   7.545   7.192  0.4117  0.1388  0.6971
  316MOL0     C42578   2.301   7.592   7.164  0.4345  0.1581 -0.0237
  316MOL0     C42579   1.844   7.727   7.251 -0.5511 -0.8486 -0.8454
  316MOL0     C42580   1.748   7.758   7.343 -0.4702  0.0057  0.9675
  316MOL0     C42581   1.630   7.821   7.301  0.9338 -0.7289 -1.3335
  316MOL0     C42582   1.604   7.848   7.172 -0.0529 -1.2309  0.3536
  316MOL0     O42583   1.478   7.884   7.138 -0.9579  0.5346  0.9325
  316MOL0     C42584   1.441   7.916   6.999 -0.3881 -0.2045 -0.4956
  316MOL0     C42585   1.285   7.908   7.008  0.0209 -0.0694  0.2117
  316MOL0     C42586   1.226   7.959   6.869  0.6193  0.9916 -2.0332
  316MOL0     C42587   1.075   7.953   6.886 -0.6426 -0.4594  0.1751
  316MOL0     C42588   1.023   8.065   6.965 -0.6035  1.1540 -0.1604
  316MOL0     C42589   0.970   8.151   7.028 -1.3363 -0.5667 -1.4166
  316MOL0     C42590   1.701   7.820   7.083  0.2420  0.3983 -0.6905
  316MOL0     C42591   1.826   7.757   7.115  0.5527 -0.2149 -0.6835
  316MOL0     C42592   1.922   7.727   6.996  1.1907 -0.0294 -1.0092
  316MOL0     H42593   2.175   7.618   7.477  1.7288  2.7244  0.2130
  316MOL0     H42594   2.403   7.531   7.531  1.0423 -1.3517  0.1319
  316MOL0     H42595   2.578   7.367   7.492  0.6896  2.9304  0.6397
  316MOL0     H42596   2.613   7.323   7.314  1.6781  0.2543 -0.6893
  316MOL0     H42597   2.835   7.407   7.347  0.5526 -1.0420  0.3429
  316MOL0     H42598   2.790   7.271   7.456  0.4869  0.0016  0.2429
  316MOL0     H42599   2.767   7.434   7.637 -1.9788  1.1422 -0.9662
  316MOL0     H42600   2.764   7.568   7.525  0.0720 -0.9619 -1.6411
  316MOL0     H42601   3.022   7.416   7.583  1.6539  1.3167  0.2803
  316MOL0     H42602   3.002   7.564   7.491 -0.2902 -0.0565  0.4334
  316MOL0     H42603   2.905   7.556   7.784  0.1542 -1.9109 -1.2748
  316MOL0     H42604   3.078   7.592   7.753 -0.6200  1.6636  2.2420
  316MOL0     H42605   3.027   7.793   7.623 -1.4070  3.5347  1.4306
  316MOL0     H42606   2.856   7.761   7.635 -1.3435 -2.0224  2.1841
  316MOL0     H42607   3.047   7.804   7.864 -1.6241  0.1220  6.5692
  316MOL0     H42608   2.871   7.772   7.890  2.5915 -1.4945  2.3069
  316MOL0     H42609   2.905   7.989   7.919 -0.6202 -2.4530  0.6993
  316MOL0     H42610   3.004   8.007   7.768 -1.2532 -1.0590 -2.3451
  316MOL0     H42611   2.637   7.900   7.856 -0.2266  4.5361  1.3523
  316MOL0     H42612   2.411   8.038   7.761  2.1636  4.0523 -1.2709
  316MOL0     H42613   2.410   8.050   7.581 -0.5525 -1.1864 -1.2749
  316MOL0     H42614   2.444   7.786   7.581 -2.7434 -4.2758  1.3534
  316MOL0     H42615   2.430   7.793   7.755 -2.2836  0.8952  0.6687
  316MOL0     H42616   2.193   7.878   7.749 -1.0407 -0.7864 -0.2761
  316MOL0     H42617   2.219   7.725   7.691  0.9621  0.6846  1.2020
  316MOL0     H42618   2.097   7.814   7.511 -0.4808  1.1132 -0.3260
  316MOL0     H42619   2.251   7.867   7.446 -0.9553 -0.5686 -0.7975
  316MOL0     H42620   1.962   8.156   7.660 -0.9433  3.6136 -0.2211
  316MOL0     H42621   1.755   8.238   7.550 -3.1574 -1.0784 -1.9259
  316MOL0     H42622   1.463   8.343   7.553 -0.2742 -7.1603  0.9095
  316MOL0     H42623   1.219   8.399   7.550  0.0663 -1.1501  0.5645
  316MOL0     H42624   1.006   8.403   7.513 -0.4962 -3.6984 -1.6225
  316MOL0     H42625   1.023   8.558   7.413 -5.3411  1.7467  0.1712
  316MOL0     H42626   0.803   8.348   7.405  1.2894 -0.3701 -0.1620
  316MOL0     H42627   0.808   8.491   7.508  0.8703 -0.7913  0.2657
  316MOL0     H42628   0.848   8.645   7.340  2.1312 -1.6454 -1.4189
  316MOL0     H42629   0.858   8.527   7.222 -0.6915 -1.7137  0.1433
  316MOL0     H42630   0.623   8.456   7.251 -0.3454  0.2068 -1.0667
  316MOL0     H42631   0.648   8.619   7.193 -1.1870 -0.8390 -0.2769
  316MOL0     H42632   0.486   8.670   7.335  2.0485  0.9827 -1.7024
  316MOL0     H42633   0.628   8.681   7.443  1.3747 -1.2714 -0.4568
  316MOL0     H42634   0.485   8.419   7.412 -1.1330  1.1934 -0.4793
  316MOL0     H42635   0.572   8.483   7.552  1.8942 -0.3885 -2.0546
  316MOL0     H42636   0.303   8.593   7.464 -1.3306 -0.1940  1.9476
  316MOL0     H42637   0.381   8.604   7.622  0.3763  1.1574 -0.4557
  316MOL0     H42638   0.189   8.450   7.631 -1.2317 -1.0443  1.5439
  316MOL0     H42639   0.268   8.339   7.514  0.2387 -0.4866  0.8117
  316MOL0     H42640   1.203   8.300   7.135 -1.9564 -0.4086  0.0621
  316MOL0     H42641   1.435   8.255   7.131  1.1224  2.7092 -0.3076
  316MOL0     H42642   1.893   8.075   7.189 -2.4321 -2.0739 -0.0717
  316MOL0     H42643   2.087   7.996   7.283 -2.6402 -1.6085 -2.7660
  316MOL0     H42644   2.501   7.519   7.115 -2.1498 -3.7444 -0.6602
  316MOL0     H42645   2.259   7.607   7.065 -0.3906 -3.0603 -0.2663
  316MOL0     H42646   1.763   7.729   7.447  0.2154 -3.1951  0.0777
  316MOL0     H42647   1.564   7.849   7.382  2.0466  0.1261 -0.6909
  316MOL0     H42648   1.483   7.847   6.925  0.5661 -1.0672  0.8090
  316MOL0     H42649   1.476   8.016   6.975 -0.6505  0.3933  1.4030
  316MOL0     H42650   1.251   7.968   7.093  0.0562 -2.2194  1.8477
  316MOL0     H42651   1.251   7.810   7.041 -1.3013  0.7198  1.2931
  316MOL0     H42652   1.261   7.884   6.797  2.1220  0.5557 -0.9206
  316MOL0     H42653   1.265   8.059   6.846 -0.9249  1.8136 -1.1906
  316MOL0     H42654   1.030   7.954   6.786  0.4179  0.5710 -0.3203
  316MOL0     H42655   1.046   7.859   6.934 -0.9821  0.0894  1.0745
  316MOL0     H42656   0.924   8.221   7.095 -2.0074 -0.4176 -2.0187
  316MOL0     H42657   1.680   7.836   6.977  0.7046  0.6552 -0.7505
  316MOL0     H42658   1.955   7.622   6.995  2.1043  0.2059  0.5283
  316MOL0     H42659   1.869   7.758   6.906 -1.6369  2.0345  1.1949
  316MOL0     H42660   2.012   7.788   7.006  1.3802 -0.0223 -2.4782
  317MOL0     O42661   4.481   2.702   3.503  0.1546 -0.2737  0.0069
  317MOL0     C42662   4.479   2.731   3.620  0.5531 -0.5346  0.1349
  317MOL0     O42663   4.592   2.731   3.702 -0.4079 -0.7767 -0.2372
  317MOL0     C42664   4.719   2.750   3.662 -0.2120 -0.2295  0.2423
  317MOL0     C42665   4.805   2.696   3.743 -0.5019  0.5256 -0.8625
  317MOL0     C42666   4.939   2.713   3.721 -0.1791 -0.0868 -0.1320
  317MOL0     C42667   4.985   2.794   3.619 -0.1645 -0.5174  0.4084
  317MOL0     O42668   5.121   2.818   3.618  0.2032  0.7919 -0.5368
  317MOL0     C42669   5.185   2.924   3.554 -0.4045  0.2428 -0.4889
  317MOL0     C42670   5.325   2.962   3.606 -0.1088  0.1581  0.2937
  317MOL0     C42671   5.319   3.036   3.742  0.5685  0.1235 -0.3550
  317MOL0     C42672   5.442   3.047   3.827 -0.2495  0.4803 -0.5252
  317MOL0     C42673   5.418   3.135   3.951  0.1305 -0.0111  0.4128
  317MOL0     C42674   5.296   3.107   4.042  0.1646  0.3797  0.2382
  317MOL0     C42675   5.325   3.163   4.177 -0.4021 -0.8177 -0.3161
  317MOL0     C42676   5.283   3.321   4.184 -0.4381 -0.5219 -0.2565
  317MOL0     N42677   5.262   3.356   4.324  0.3971  0.7778 -0.3356
  317MOL0     C42678   5.132   3.382   4.371  0.1516  0.4993 -0.4235
  317MOL0     C42679   5.154   3.454   4.481  0.6223  0.3141 -0.5019
  317MOL0     C42680   5.039   3.504   4.566  0.6781 -0.5597 -0.2446
  317MOL0     C42681   5.031   3.428   4.694  0.6655 -0.2258  1.1739
  317MOL0     C42682   4.955   3.488   4.801  0.0071 -0.1579  0.1082
  317MOL0     C42683   4.995   3.435   4.942  0.0475 -0.3067  0.1052
  317MOL0     O42684   4.974   3.302   4.959  1.0559  0.4396 -0.4150
  317MOL0     C42685   5.018   3.238   5.079 -0.3481  0.1027 -0.1840
  317MOL0     C42686   5.021   3.295   5.212  0.5597  0.3455  0.1638
  317MOL0     C42687   5.087   3.229   5.314  0.5845 -0.2425 -0.2216
  317MOL0     C42688   5.124   3.094   5.306 -0.1861  0.1311 -0.0952
  317MOL0     C42689   5.174   3.020   5.425  0.1678 -0.9596 -0.7044
  317MOL0     O42690   5.230   2.902   5.388 -0.4124 -0.2809 -0.8361
  317MOL0     C42691   5.328   2.847   5.473  0.7934  0.8137  0.8786
  317MOL0     C42692   5.442   2.917   5.508 -0.9527  1.0021 -0.0031
  317MOL0     C42693   5.534   2.844   5.586 -0.1810  0.1945  0.8506
  317MOL0     C42694   5.527   2.710   5.616 -0.6834 -0.5410 -0.9721
  317MOL0     O42695   5.617   2.664   5.700  0.0480 -0.2323  0.2321
  317MOL0     C42696   5.670   2.541   5.663 -0.1673  0.6845 -0.5853
  317MOL0     C42697   5.807   2.529   5.720 -0.2737 -0.7345  0.0949
  317MOL0     C42698   5.822   2.566   5.866 -0.1372 -0.7599 -0.1220
  317MOL0     C42699   5.916   2.462   5.938  0.0864 -0.7164  0.4086
  317MOL0     C42700   5.925   2.498   6.090  0.1785  0.1000  0.4801
  317MOL0     C42701   6.000   2.398   6.169  0.6098  0.1898  0.1476
  317MOL0     C42702   5.991   2.443   6.318 -0.6552  0.7217  0.2421
  317MOL0     C42703   5.866   2.388   6.384 -0.3253  0.4184 -0.6782
  317MOL0    Cl42704   5.866   2.446   6.554  0.9946 -0.2637  0.0090
  317MOL0     C42705   5.413   2.640   5.553 -0.2826 -1.0806  0.0864
  317MOL0     C42706   5.323   2.711   5.476  0.6043 -0.3277  0.0475
  317MOL0     O42707   5.175   3.079   5.535 -0.7083 -0.6293 -0.2068
  317MOL0     C42708   5.121   3.036   5.179  0.5871  0.0985  0.5954
  317MOL0     C42709   5.066   3.103   5.071  0.4179  0.0249 -0.3115
  317MOL0     N42710   5.288   3.487   4.496 -0.3136 -0.2832  0.4193
  317MOL0     N42711   5.351   3.422   4.404 -0.4014  0.0920 -0.1326
  317MOL0     C42712   4.898   2.853   3.527  0.5776 -0.3836 -0.3013
  317MOL0     C42713   4.763   2.827   3.552  0.7072 -0.1574 -0.4456
  317MOL0     C42714   4.346   2.755   3.684  0.2050 -1.1160 -0.2827
  317MOL0     C42715   4.242   2.804   3.597 -0.3170  0.4355 -0.8991
  317MOL0     C42716   4.116   2.835   3.648 -0.1813 -0.4969 -0.2829
  317MOL0     C42717   4.079   2.831   3.785 -0.2629 -0.1681 -0.1439
  317MOL0     O42718   3.951   2.876   3.821 -0.3586 -0.2241 -0.2351
  317MOL0     C42719   3.932   2.914   3.966  0.3488  0.6217  0.5026
  317MOL0     C42720   3.988   3.047   4.010 -0.2971  0.3008  0.6791
  317MOL0     C42721   3.900   3.115   4.113  0.2227 -0.3615  0.2017
  317MOL0     C42722   3.887   3.034   4.246 -0.6386 -0.3652  0.0436
  317MOL0     C42723   3.811   3.114   4.352 -1.1189 -0.3082 -0.1291
  317MOL0     C42724   3.760   3.179   4.442 -0.1969 -0.1360  0.6352
  317MOL0     C42725   4.183   2.797   3.877 -0.7847  0.1127 -0.5449
  317MOL0     C42726   4.318   2.765   3.829  0.4182 -0.4727 -0.4936
  317MOL0     C42727   4.426   2.760   3.932  0.2217 -0.1297  0.4457
  317MOL0     H42728   4.767   2.644   3.831 -3.0882  0.8880 -1.6814
  317MOL0     H42729   5.017   2.664   3.779  0.1043 -1.1065 -1.3466
  317MOL0     H42730   5.196   2.888   3.451 -1.1060 -0.9430 -0.1749
  317MOL0     H42731   5.117   3.009   3.556 -1.7375 -0.6631 -2.7347
  317MOL0     H42732   5.370   3.024   3.528 -0.5296  0.3184  0.1739
  317MOL0     H42733   5.394   2.877   3.615  0.2424  0.3188 -0.7760
  317MOL0     H42734   5.234   3.000   3.801  2.1792 -2.1369  0.7401
  317MOL0     H42735   5.291   3.139   3.719  0.8874  0.0422 -1.1173
  317MOL0     H42736   5.453   2.943   3.856 -1.6729  0.4696  0.0835
  317MOL0     H42737   5.534   3.072   3.774  1.9307 -3.2573  1.1167
  317MOL0     H42738   5.511   3.118   4.005 -1.0629 -2.6751  1.8344
  317MOL0     H42739   5.410   3.240   3.923 -3.8309 -0.5837 -1.4131
  317MOL0     H42740   5.203   3.134   3.991  2.3435  1.4979 -3.4874
  317MOL0     H42741   5.295   2.999   4.062  2.1135 -0.2663 -2.5979
  317MOL0     H42742   5.427   3.135   4.205 -0.5822 -0.4830  0.7424
  317MOL0     H42743   5.266   3.107   4.251  0.2959 -0.9662  0.1417
  317MOL0     H42744   5.359   3.381   4.134 -0.5019  1.4970  1.9451
  317MOL0     H42745   5.186   3.324   4.134  0.7594  0.3539 -2.6826
  317MOL0     H42746   5.039   3.341   4.332  1.7524 -3.3467 -0.7205
  317MOL0     H42747   5.050   3.610   4.588  5.1802 -0.7073 -0.9993
  317MOL0     H42748   4.947   3.494   4.507  2.0812  0.9577 -2.8987
  317MOL0     H42749   4.983   3.332   4.673 -1.4613  1.4128 -2.4257
  317MOL0     H42750   5.130   3.413   4.739  0.7698  1.5761  1.5972
  317MOL0     H42751   4.847   3.482   4.784 -0.1003  2.9332 -0.9202
  317MOL0     H42752   4.975   3.595   4.800 -0.8390  0.0017 -0.5487
  317MOL0     H42753   4.936   3.480   5.023  1.1019  0.7250  0.3220
  317MOL0     H42754   5.101   3.458   4.956 -0.0168 -0.2727  0.5591
  317MOL0     H42755   4.978   3.395   5.216  0.2532  0.1936  0.8731
  317MOL0     H42756   5.093   3.279   5.410  3.2509  0.3262 -0.5971
  317MOL0     H42757   5.465   3.019   5.480 -1.9557  1.1672 -0.2643
  317MOL0     H42758   5.622   2.903   5.611  0.3251  1.3948 -3.0679
  317MOL0     H42759   5.614   2.455   5.699  1.7522 -0.4512 -0.1632
  317MOL0     H42760   5.687   2.529   5.555  3.5904 -3.0163  0.1362
  317MOL0     H42761   5.839   2.428   5.695  0.0410  0.2377 -4.1938
  317MOL0     H42762   5.874   2.595   5.665  3.2060 -1.8908  2.5650
  317MOL0     H42763   5.866   2.666   5.860 -0.9663 -0.4548 -2.6078
  317MOL0     H42764   5.725   2.562   5.915 -0.3793 -2.0747 -0.6606
  317MOL0     H42765   6.017   2.453   5.898 -0.6887 -2.1266 -1.3531
  317MOL0     H42766   5.866   2.366   5.927 -2.8469  0.8799 -1.6068
  317MOL0     H42767   5.829   2.486   6.141  0.3806 -3.7618  0.2671
  317MOL0     H42768   5.966   2.598   6.106  0.2583  0.1783 -0.1963
  317MOL0     H42769   5.954   2.299   6.166  2.4172 -0.7893  2.4075
  317MOL0     H42770   6.103   2.380   6.136  0.5622 -1.2584  0.7280
  317MOL0     H42771   5.990   2.552   6.319 -0.2954  0.7881 -1.9047
  317MOL0     H42772   6.067   2.394   6.379 -0.0080  1.5817  0.1453
  317MOL0     H42773   5.773   2.414   6.334 -0.6446  3.2338  1.1639
  317MOL0     H42774   5.868   2.279   6.381  1.8574  0.2866  1.4093
  317MOL0     H42775   5.412   2.531   5.551 -1.5707 -1.1807  2.4489
  317MOL0     H42776   5.235   2.668   5.430 -0.0159 -0.7037  1.5022
  317MOL0     H42777   5.171   2.941   5.164 -0.7868 -0.8114  1.5431
  317MOL0     H42778   5.060   3.040   4.983  1.5945 -1.3401  0.5343
  317MOL0     H42779   4.933   2.913   3.444  0.0242 -0.9383 -0.9472
  317MOL0     H42780   4.695   2.875   3.481  3.4661  2.0007 -1.8321
  317MOL0     H42781   4.260   2.814   3.490  0.3049 -0.8086 -0.9265
  317MOL0     H42782   4.043   2.879   3.580  2.0095  0.3713 -2.2253
  317MOL0     H42783   3.975   2.829   4.019  3.1361  0.4198 -1.8052
  317MOL0     H42784   3.824   2.927   3.977  0.1521 -1.1195  0.9028
  317MOL0     H42785   3.998   3.118   3.928  0.3957  1.6753  1.9013
  317MOL0     H42786   4.081   3.024   4.062  1.3219  0.2343 -2.0711
  317MOL0     H42787   3.800   3.130   4.072  0.3202 -1.8928 -0.6596
  317MOL0     H42788   3.941   3.216   4.127  0.9774 -0.5307 -0.7213
  317MOL0     H42789   3.833   2.940   4.233 -0.1671 -0.5890 -0.3465
  317MOL0     H42790   3.983   3.009   4.292 -1.2948  0.9384  2.2418
  317MOL0     H42791   3.707   3.239   4.513  1.4010  0.0227  1.7585
  317MOL0     H42792   4.174   2.799   3.985  2.6169  0.6921 -0.1588
  317MOL0     H42793   4.493   2.841   3.901 -2.3004  1.8377 -0.2161
  317MOL0     H42794   4.384   2.780   4.031  1.5731  2.6128  0.5598
  317MOL0     H42795   4.470   2.662   3.916 -2.4298 -1.1629 -1.1316
  318MOL0     O42796   3.992   5.665   7.845 -0.1872  0.2090 -0.3034
  318MOL0     C42797   4.026   5.652   7.960 -0.6476  0.0921 -0.3715
  318MOL0     O42798   4.119   5.730   8.022  0.1638 -0.1959 -0.7200
  318MOL0     C42799   4.171   5.838   7.954 -0.7893  0.1039  0.6522
  318MOL0     C42800   4.145   5.960   8.007 -0.3554 -0.7668 -0.2967
  318MOL0     C42801   4.167   6.077   7.930  0.1727 -0.8451 -0.2789
  318MOL0     C42802   4.214   6.068   7.801 -0.6506  0.5393 -0.6918
  318MOL0     O42803   4.228   6.192   7.734  0.0036  0.0911 -0.2179
  318MOL0     C42804   4.271   6.200   7.593 -0.3884 -0.4671 -0.1465
  318MOL0     C42805   4.424   6.207   7.582 -0.0149  0.3805  0.2040
  318MOL0     C42806   4.472   6.207   7.435  0.4009 -1.1498 -0.0866
  318MOL0     C42807   4.620   6.213   7.431 -0.1067 -0.4727 -0.7284
  318MOL0     C42808   4.662   6.166   7.289 -0.1583 -0.4962 -2.2265
  318MOL0     C42809   4.811   6.149   7.277 -0.3295 -0.2411  1.0059
  318MOL0     C42810   4.874   6.278   7.230  0.0557 -0.5229  0.3339
  318MOL0     C42811   5.014   6.258   7.174 -0.6403 -0.2732 -0.4237
  318MOL0     N42812   5.014   6.163   7.059 -0.5671 -0.3611  0.1716
  318MOL0     C42813   5.026   6.200   6.922  1.0811  0.3039  0.0553
  318MOL0     C42814   5.062   6.091   6.856  0.6744  0.8434 -0.0193
  318MOL0     C42815   5.080   6.075   6.708  0.5468  0.0529 -0.2193
  318MOL0     C42816   5.222   6.038   6.680  0.0959 -0.0493  0.1458
  318MOL0     C42817   5.331   6.145   6.716  0.8454  0.1992 -0.7148
  318MOL0     C42818   5.473   6.103   6.705  1.7776  0.4166  0.2312
  318MOL0     O42819   5.514   6.074   6.571 -0.5955 -0.2035 -1.0470
  318MOL0     C42820   5.642   6.039   6.547  0.6497 -0.1985  0.3196
  318MOL0     C42821   5.744   6.023   6.638 -0.3223 -0.7884 -0.4678
  318MOL0     C42822   5.875   5.998   6.614 -0.5386 -0.7466  0.4220
  318MOL0     C42823   5.921   5.981   6.480  0.0269  0.0637  0.1969
  318MOL0     C42824   6.059   5.950   6.454  0.1800  0.7949 -0.6323
  318MOL0     O42825   6.115   5.953   6.322 -0.7738 -0.7508 -0.9482
  318MOL0     C42826   6.239   5.901   6.309 -0.2083  0.2724  1.3718
  318MOL0     C42827   6.234   5.770   6.267  0.1815  0.1871  0.1460
  318MOL0     C42828   6.348   5.701   6.235  0.0046  0.1378 -0.8318
  318MOL0     C42829   6.475   5.757   6.246 -0.1063  0.2305  0.2461
  318MOL0     O42830   6.583   5.673   6.219  0.8440 -0.7737 -1.0068
  318MOL0     C42831   6.716   5.704   6.266  0.4447 -0.4117  0.8717
  318MOL0     C42832   6.811   5.583   6.241  0.3983 -0.6681 -0.0895
  318MOL0     C42833   6.765   5.445   6.299 -0.8409 -0.5020  0.6045
  318MOL0     C42834   6.860   5.329   6.260 -0.4561 -0.3213  0.2462
  318MOL0     C42835   6.829   5.200   6.337 -0.3930  0.5942  0.1283
  318MOL0     C42836   6.915   5.077   6.301 -0.3202 -0.0772  1.2146
  318MOL0     C42837   6.898   4.964   6.409 -0.2905 -0.6912  0.1454
  318MOL0     C42838   6.746   4.893   6.397  0.4223 -0.1845 -0.3433
  318MOL0    Cl42839   6.706   4.840   6.228  0.3171  0.0222  0.3361
  318MOL0     C42840   6.473   5.885   6.304 -0.5738 -0.3284  0.0609
  318MOL0     C42841   6.364   5.957   6.347 -0.1018 -0.3955 -0.4071
  318MOL0     O42842   6.116   5.915   6.556  0.1700  0.2210 -0.0324
  318MOL0     C42843   5.821   6.011   6.385  0.9099  0.7697 -0.1627
  318MOL0     C42844   5.687   6.043   6.418  0.8015  0.7777  0.3433
  318MOL0     N42845   5.077   5.987   6.951  0.3241  0.3093  0.3601
  318MOL0     N42846   5.048   6.036   7.073 -0.2957 -0.1945 -0.7807
  318MOL0     C42847   4.248   5.942   7.754 -0.2107  0.1807  0.1285
  318MOL0     C42848   4.232   5.830   7.826 -0.7579  0.6821  0.8046
  318MOL0     C42849   3.993   5.519   8.012  0.5245 -0.4881  0.3369
  318MOL0     C42850   4.080   5.476   8.111 -0.3337  0.2184  0.6808
  318MOL0     C42851   4.068   5.358   8.177  0.3319  1.1569 -0.0687
  318MOL0     C42852   3.966   5.270   8.148 -0.1283  1.0558 -0.1238
  318MOL0     O42853   3.947   5.160   8.228 -0.3202  0.3552  0.5522
  318MOL0     C42854   3.857   5.052   8.189 -0.0745 -0.7463  0.6098
  318MOL0     C42855   3.838   4.956   8.301  0.6133 -0.9165  0.3947
  318MOL0     C42856   3.780   5.007   8.427  0.5286 -0.3846 -0.5572
  318MOL0     C42857   3.634   5.023   8.416  1.0104  0.2236 -0.1248
  318MOL0     C42858   3.549   5.054   8.537  0.3351 -1.0356  0.8282
  318MOL0     C42859   3.471   5.084   8.621  0.4568  0.9154 -0.5062
  318MOL0     C42860   3.898   5.295   8.032  0.4083  0.0714  0.5747
  318MOL0     C42861   3.898   5.423   7.965  0.7896  0.6538 -1.6016
  318MOL0     C42862   3.794   5.452   7.859  0.0168 -0.2581  0.0872
  318MOL0     H42863   4.115   5.971   8.110 -0.3007  0.4476 -0.3970
  318MOL0     H42864   4.147   6.173   7.977 -1.8076  0.5048 -3.5011
  318MOL0     H42865   4.225   6.116   7.540 -0.4785 -0.6889  0.2839
  318MOL0     H42866   4.239   6.297   7.552  0.7240 -0.1597 -0.3172
  318MOL0     H42867   4.471   6.124   7.635 -2.1751  0.6284  2.6863
  318MOL0     H42868   4.464   6.296   7.632  0.9982  0.3587 -0.5250
  318MOL0     H42869   4.427   6.283   7.371  0.0234 -2.5071 -1.4785
  318MOL0     H42870   4.436   6.113   7.392 -0.9004 -1.3711  1.3888
  318MOL0     H42871   4.634   6.321   7.441  0.0853 -0.4608 -1.0856
  318MOL0     H42872   4.659   6.152   7.512 -5.7371 -1.9878  1.3049
  318MOL0     H42873   4.622   6.066   7.274 -0.5497 -1.1519  1.8732
  318MOL0     H42874   4.611   6.238   7.224 -0.0707  0.5200 -1.2137
  318MOL0     H42875   4.852   6.126   7.375  0.2411 -1.2109  0.5558
  318MOL0     H42876   4.824   6.066   7.206 -1.0755  0.4006  0.0802
  318MOL0     H42877   4.874   6.351   7.312 -2.9202  1.6961 -1.4375
  318MOL0     H42878   4.815   6.321   7.148  1.0021 -0.8336 -0.5255
  318MOL0     H42879   5.053   6.357   7.150 -1.5575  0.2750  0.2662
  318MOL0     H42880   5.077   6.219   7.254 -1.4080  2.1202  1.4590
  318MOL0     H42881   5.008   6.296   6.875 -0.8036  0.6845  1.4223
  318MOL0     H42882   5.005   6.004   6.672  0.8920 -0.8953  0.8727
  318MOL0     H42883   5.061   6.166   6.649  0.3027  1.9321  2.5560
  318MOL0     H42884   5.239   5.949   6.741  1.7182  1.1845  1.5984
  318MOL0     H42885   5.232   6.011   6.575 -0.3964  2.3741 -0.5928
  318MOL0     H42886   5.309   6.183   6.816 -0.2806 -2.0350 -0.0446
  318MOL0     H42887   5.318   6.231   6.650 -3.8946  2.4370  2.5940
  318MOL0     H42888   5.488   6.016   6.770  0.1753 -1.1747 -1.4033
  318MOL0     H42889   5.534   6.182   6.749 -0.4128  1.4889  1.5121
  318MOL0     H42890   5.720   6.057   6.739 -0.4411 -1.1879 -0.3592
  318MOL0     H42891   5.936   6.002   6.704  4.1039  0.4586 -2.3795
  318MOL0     H42892   6.129   5.742   6.270  0.0353  0.7785  0.8958
  318MOL0     H42893   6.340   5.598   6.200 -2.3497  0.0756 -0.2874
  318MOL0     H42894   6.752   5.794   6.216 -1.0349  0.0534  0.6255
  318MOL0     H42895   6.711   5.710   6.375 -0.5428 -0.8962  0.8662
  318MOL0     H42896   6.832   5.573   6.134 -1.0311 -0.3800 -0.4109
  318MOL0     H42897   6.907   5.604   6.289  0.4412  0.4602 -0.6355
  318MOL0     H42898   6.775   5.451   6.408  2.4266  0.1844  0.3804
  318MOL0     H42899   6.666   5.424   6.259 -1.1156  1.4077  0.2246
  318MOL0     H42900   6.962   5.359   6.286  0.7975 -1.6831 -2.5671
  318MOL0     H42901   6.854   5.316   6.151 -2.2080  0.0091  0.2919
  318MOL0     H42902   6.726   5.165   6.324 -0.3461  0.2150  0.7447
  318MOL0     H42903   6.837   5.216   6.444  0.5022 -0.3972  0.2301
  318MOL0     H42904   6.888   5.044   6.200 -1.4063  2.0421  0.7429
  318MOL0     H42905   7.020   5.109   6.301 -0.5958  0.9180 -0.1008
  318MOL0     H42906   6.915   5.008   6.507 -3.2100 -1.9793  1.3346
  318MOL0     H42907   6.977   4.890   6.398  1.4882  0.9737  1.1134
  318MOL0     H42908   6.745   4.810   6.467  2.2354  1.4462  1.7530
  318MOL0     H42909   6.673   4.968   6.431  0.6487 -0.7649  1.4757
  318MOL0     H42910   6.573   5.925   6.321 -0.7435 -0.6501  2.1585
  318MOL0     H42911   6.366   6.055   6.394 -1.7857  1.4888 -3.8557
  318MOL0     H42912   5.850   6.006   6.280 -0.5585 -0.8341 -0.5313
  318MOL0     H42913   5.605   6.057   6.348 -0.0678 -2.0960  0.6708
  318MOL0     H42914   4.287   5.942   7.653  0.1870 -0.5422  0.2788
  318MOL0     H42915   4.253   5.731   7.787  0.3907  0.8373  0.9762
  318MOL0     H42916   4.160   5.536   8.153 -1.6836 -0.0586  3.9802
  318MOL0     H42917   4.146   5.331   8.248  0.3325  3.6075  0.9468
  318MOL0     H42918   3.904   4.998   8.107  0.8201 -0.2015  0.7489
  318MOL0     H42919   3.761   5.096   8.162 -1.3442 -4.1306 -0.9949
  318MOL0     H42920   3.933   4.906   8.325  1.4125 -0.7755 -2.1656
  318MOL0     H42921   3.786   4.872   8.253 -2.5258 -0.2919  2.4465
  318MOL0     H42922   3.829   5.099   8.460  1.4481  0.2102 -3.3660
  318MOL0     H42923   3.802   4.927   8.499 -0.8437 -1.1144 -0.9258
  318MOL0     H42924   3.618   5.100   8.340  1.4863 -1.4297 -1.9713
  318MOL0     H42925   3.603   4.928   8.372 -0.3293 -0.4782  2.1514
  318MOL0     H42926   3.397   5.097   8.698  0.7146 -0.2200 -0.0389
  318MOL0     H42927   3.833   5.215   7.996  1.7997 -1.5951  1.6185
  318MOL0     H42928   3.709   5.384   7.873 -2.4841  2.4606 -0.9288
  318MOL0     H42929   3.753   5.552   7.873  0.8146 -0.0589  1.0894
  318MOL0     H42930   3.844   5.446   7.762 -1.3410  1.5160 -0.7791
  319MOL0     O42931   8.449   1.463  11.363  0.3146  0.0795 -0.7544
  319MOL0     C42932   8.524   1.501  11.281 -0.0610  0.1779  0.6291
  319MOL0     O42933   8.580   1.440  11.174 -0.7383 -0.5591  0.3515
  319MOL0     C42934   8.544   1.308  11.159 -0.1225  0.7229  0.9505
  319MOL0     C42935   8.637   1.233  11.096 -0.3572 -0.0111  0.3388
  319MOL0     C42936   8.620   1.096  11.066 -0.8602 -0.9478  0.6396
  319MOL0     C42937   8.502   1.027  11.098  0.2951 -1.0847  1.1494
  319MOL0     O42938   8.505   0.893  11.071  0.6090  0.4663  0.1575
  319MOL0     C42939   8.375   0.837  11.105  0.1705  0.1814 -0.7891
  319MOL0     C42940   8.356   0.680  11.096 -0.4573  0.6262  0.3790
  319MOL0     C42941   8.203   0.638  11.125  0.1252  0.1694 -0.7578
  319MOL0     C42942   8.149   0.710  11.260  0.0211 -0.0271  0.4433
  319MOL0     C42943   8.013   0.659  11.287 -0.0668 -0.4973 -0.3025
  319MOL0     C42944   7.956   0.710  11.427 -0.1396 -0.0772 -0.2195
  319MOL0     C42945   7.824   0.641  11.459  0.4830  0.3602 -1.2637
  319MOL0     C42946   7.748   0.701  11.578 -0.3648 -0.7940 -0.1590
  319MOL0     N42947   7.836   0.686  11.699 -0.6730  0.8977 -0.3210
  319MOL0     C42948   7.935   0.768  11.745 -0.1200 -0.1156 -0.3937
  319MOL0     C42949   7.975   0.713  11.863 -0.3873  0.6625  0.3173
  319MOL0     C42950   8.089   0.763  11.948 -0.2089  0.4795 -0.4000
  319MOL0     C42951   8.220   0.678  11.940 -0.2520  0.8893 -0.2015
  319MOL0     C42952   8.222   0.536  12.011  0.4555 -0.1046  1.4259
  319MOL0     C42953   8.166   0.519  12.150  0.3150 -0.6703 -0.2501
  319MOL0     O42954   8.229   0.611  12.238  0.2054  0.1344  0.5212
  319MOL0     C42955   8.196   0.590  12.368 -0.1823  0.1176  1.0809
  319MOL0     C42956   8.278   0.495  12.437 -0.1146 -0.1634 -0.5192
  319MOL0     C42957   8.254   0.471  12.575  0.2217 -0.3454  0.9322
  319MOL0     C42958   8.144   0.542  12.636 -0.4306 -0.3551 -0.3918
  319MOL0     C42959   8.116   0.536  12.777 -0.0020  0.6080  0.0040
  319MOL0     O42960   8.036   0.631  12.837 -1.1586 -0.3535  0.4404
  319MOL0     C42961   8.004   0.618  12.973  0.2279  0.0749  0.2909
  319MOL0     C42962   8.093   0.637  13.080  0.6730 -0.4297  0.2936
  319MOL0     C42963   8.049   0.619  13.214  0.5941 -0.4009 -0.5664
  319MOL0     C42964   7.916   0.583  13.233 -0.2756 -0.3337 -0.1533
  319MOL0     O42965   7.876   0.574  13.363 -0.0385  0.5249  0.3250
  319MOL0     C42966   7.755   0.650  13.398  0.5599 -0.1890 -0.6021
  319MOL0     C42967   7.771   0.801  13.364  0.0136 -0.2400 -0.2893
  319MOL0     C42968   7.657   0.892  13.424 -0.0725 -0.7195 -0.1453
  319MOL0     C42969   7.679   1.037  13.376  0.0191  0.5172  0.4919
  319MOL0     C42970   7.572   1.136  13.438 -0.2274  0.1714  0.5798
  319MOL0     C42971   7.437   1.076  13.469  0.0075  0.5787 -0.7069
  319MOL0     C42972   7.329   1.174  13.509 -1.1887  0.7402  0.2205
  319MOL0     C42973   7.351   1.256  13.636 -0.8528 -0.7877  0.2880
  319MOL0    Cl42974   7.377   1.163  13.779  0.0523  0.2537 -0.1666
  319MOL0     C42975   7.830   0.557  13.125  0.9893  1.2745 -1.4257
  319MOL0     C42976   7.872   0.571  12.996  0.1915  0.1583  0.5669
  319MOL0     O42977   8.172   0.440  12.836  0.0558  0.2223 -0.3129
  319MOL0     C42978   8.062   0.632  12.562  0.5104  0.7354 -0.2118
  319MOL0     C42979   8.098   0.656  12.428 -0.2011  0.2351 -0.3608
  319MOL0     N42980   7.896   0.605  11.891 -0.5745  1.0195 -0.3469
  319MOL0     N42981   7.813   0.601  11.800 -0.2277  0.5842  0.4961
  319MOL0     C42982   8.399   1.111  11.142  0.2820  0.5872  0.1487
  319MOL0     C42983   8.418   1.246  11.170  0.5556 -0.7520 -0.7116
  319MOL0     C42984   8.536   1.644  11.286 -0.4901 -0.7586  0.2215
  319MOL0     C42985   8.528   1.716  11.166  0.3287  0.4885 -0.4224
  319MOL0     C42986   8.549   1.851  11.156  0.7053 -0.2777  0.0633
  319MOL0     C42987   8.581   1.930  11.269 -0.1732 -0.3322  0.2805
  319MOL0     O42988   8.604   2.066  11.245  0.0934  0.0293 -0.0017
  319MOL0     C42989   8.660   2.152  11.351  0.3566  0.9794  0.2061
  319MOL0     C42990   8.613   2.293  11.324  0.1316 -0.7561 -0.1964
  319MOL0     C42991   8.690   2.406  11.392  0.5546 -0.1935 -0.3437
  319MOL0     C42992   8.685   2.538  11.309  0.1435  0.5416 -1.7013
  319MOL0     C42993   8.551   2.606  11.321  0.1937  0.0745 -0.3152
  319MOL0     C42994   8.443   2.659  11.306  0.0955  0.4113 -0.5175
  319MOL0     C42995   8.583   1.866  11.396  0.8187 -0.2677  0.2173
  319MOL0     C42996   8.554   1.722  11.406 -0.7842 -1.1345  0.8384
  319MOL0     C42997   8.563   1.665  11.549  0.3730 -0.9731  0.3629
  319MOL0     H42998   8.731   1.286  11.082  0.9399 -1.1012  3.8990
  319MOL0     H42999   8.701   1.055  11.008  2.6343  1.3295  3.4162
  319MOL0     H43000   8.339   0.873  11.201 -0.1934  1.1414 -1.2747
  319MOL0     H43001   8.307   0.879  11.029  1.2988  2.3460 -0.6686
  319MOL0     H43002   8.431   0.637  11.162  0.0068  0.7724 -0.0492
  319MOL0     H43003   8.386   0.650  10.995  0.4570 -1.4694  1.2245
  319MOL0     H43004   8.193   0.529  11.129 -3.3591  0.4117 -0.1983
  319MOL0     H43005   8.134   0.662  11.044 -0.0677  0.0314 -0.6336
  319MOL0     H43006   8.212   0.684  11.345 -1.2691 -0.7466  1.2191
  319MOL0     H43007   8.136   0.817  11.242  2.6239  0.5764  1.6831
  319MOL0     H43008   7.936   0.690  11.216 -3.3971  0.2187  3.2861
  319MOL0     H43009   8.022   0.551  11.298 -1.1985 -0.6142 -0.3994
  319MOL0     H43010   8.028   0.685  11.505  0.9947  0.4185 -1.0830
  319MOL0     H43011   7.940   0.818  11.423  1.1415  0.2397  1.7617
  319MOL0     H43012   7.853   0.541  11.493 -1.9208 -0.5313 -1.6790
  319MOL0     H43013   7.755   0.618  11.378  2.9046 -4.0590 -2.3980
  319MOL0     H43014   7.717   0.805  11.560 -3.2102 -1.3715  0.9011
  319MOL0     H43015   7.651   0.651  11.584 -0.3166 -0.8929 -0.2139
  319MOL0     H43016   7.974   0.861  11.703 -0.7569  0.3809  0.0785
  319MOL0     H43017   8.105   0.868  11.921 -3.8114  1.4404  0.7063
  319MOL0     H43018   8.055   0.761  12.052 -0.5175 -1.7263 -0.4947
  319MOL0     H43019   8.242   0.648  11.837 -2.4140 -4.4406  0.5694
  319MOL0     H43020   8.303   0.729  11.990  0.3921 -2.0232  1.9610
  319MOL0     H43021   8.322   0.492  12.007  0.6840  0.4940  0.1890
  319MOL0     H43022   8.160   0.477  11.943  0.8266  1.4338 -0.3416
  319MOL0     H43023   8.189   0.418  12.183 -1.7929 -1.0619  0.1466
  319MOL0     H43024   8.060   0.540  12.165  0.0751 -2.0327  0.0229
  319MOL0     H43025   8.359   0.447  12.383  2.8980 -1.4791  4.4652
  319MOL0     H43026   8.311   0.398  12.631 -0.6426 -2.0918 -0.3900
  319MOL0     H43027   8.195   0.656  13.049  1.7206 -2.6680  2.0621
  319MOL0     H43028   8.117   0.633  13.297  0.6822 -0.2649 -0.6618
  319MOL0     H43029   7.659   0.617  13.356 -0.3794  1.4135  0.2002
  319MOL0     H43030   7.749   0.632  13.506  0.1705 -1.6624 -0.8386
  319MOL0     H43031   7.863   0.839  13.409 -1.9820  0.4001  3.6503
  319MOL0     H43032   7.773   0.822  13.256 -3.9506 -1.5027 -0.7912
  319MOL0     H43033   7.561   0.853  13.388 -1.1910  1.5363  0.1919
  319MOL0     H43034   7.670   0.887  13.533  0.1825 -0.8792 -0.1854
  319MOL0     H43035   7.672   1.043  13.267  3.2325 -0.6286  0.1090
  319MOL0     H43036   7.776   1.072  13.412 -0.0388  0.7127  0.4576
  319MOL0     H43037   7.544   1.217  13.371 -2.9682 -1.5809 -0.5706
  319MOL0     H43038   7.617   1.170  13.532  3.6017  0.3336 -1.0996
  319MOL0     H43039   7.404   1.020  13.381  0.0143 -2.8420  1.2829
  319MOL0     H43040   7.442   0.998  13.545  1.6992  0.7378 -0.6111
  319MOL0     H43041   7.231   1.126  13.519 -1.9598  2.7482  5.5114
  319MOL0     H43042   7.307   1.235  13.420 -0.7831 -0.6209 -0.8526
  319MOL0     H43043   7.446   1.307  13.616 -1.4812 -0.2400 -1.4156
  319MOL0     H43044   7.269   1.327  13.653 -0.0625  0.4209 -0.7494
  319MOL0     H43045   7.735   0.513  13.155  0.8947  2.1028 -0.4564
  319MOL0     H43046   7.817   0.541  12.908 -2.1660 -0.2393  2.0657
  319MOL0     H43047   7.981   0.692  12.602 -0.3269 -1.1485  1.0766
  319MOL0     H43048   8.029   0.713  12.366  0.5012  0.3630 -1.0393
  319MOL0     H43049   8.300   1.070  11.153  0.5270  0.3063  1.4174
  319MOL0     H43050   8.338   1.316  11.189  0.4491 -1.2796  0.9579
  319MOL0     H43051   8.524   1.661  11.073  0.1520 -1.8195  0.8641
  319MOL0     H43052   8.540   1.895  11.057 -1.2629  2.1045  1.2154
  319MOL0     H43053   8.768   2.158  11.338  0.2613  2.5746 -0.0422
  319MOL0     H43054   8.639   2.113  11.451  2.2492  0.8283  0.5718
  319MOL0     H43055   8.511   2.299  11.362  0.5370 -0.6320  0.9254
  319MOL0     H43056   8.614   2.311  11.217 -1.9262 -1.0825 -0.3042
  319MOL0     H43057   8.795   2.375  11.399  0.0673 -1.7533  0.4865
  319MOL0     H43058   8.649   2.421  11.493  2.1325  1.1047  0.1540
  319MOL0     H43059   8.748   2.622  11.339 -2.6073  2.2542 -0.2934
  319MOL0     H43060   8.698   2.521  11.202  1.8640  0.5898 -1.5322
  319MOL0     H43061   8.341   2.692  11.310  0.0232  0.0625  1.9735
  319MOL0     H43062   8.589   1.916  11.492 -1.7849  4.9682 -1.9375
  319MOL0     H43063   8.656   1.614  11.578  0.9504 -1.0785 -1.5714
  319MOL0     H43064   8.565   1.744  11.626 -1.4029 -0.3211 -0.2221
  319MOL0     H43065   8.470   1.610  11.568 -0.9877  1.6743  2.0853
  320MOL0     O43066  10.051   2.460   9.417  0.3300 -0.3193  0.6691
  320MOL0     C43067  10.103   2.349   9.417 -0.6008 -0.6028  0.0598
  320MOL0     O43068  10.068   2.258   9.316  0.1815 -0.7568  0.7363
  320MOL0     C43069   9.985   2.292   9.215  0.5882 -0.5139 -0.1574
  320MOL0     C43070   9.847   2.260   9.237 -0.4202  0.0738 -0.2833
  320MOL0     C43071   9.760   2.285   9.126  0.0869  0.5580 -1.0813
  320MOL0     C43072   9.808   2.297   8.999 -0.3425  0.0122  0.2076
  320MOL0     O43073   9.716   2.296   8.897  0.4265  0.8367  0.1049
  320MOL0     C43074   9.715   2.418   8.821 -0.2707  0.5176  0.7454
  320MOL0     C43075   9.592   2.434   8.722 -0.0687  0.8635 -0.2699
  320MOL0     C43076   9.605   2.333   8.601 -0.5524 -0.0485 -0.5414
  320MOL0     C43077   9.504   2.347   8.493  0.3866 -0.5023  0.1455
  320MOL0     C43078   9.482   2.227   8.390 -0.4866  0.1590 -0.6367
  320MOL0     C43079   9.352   2.246   8.298 -0.0515  1.1799 -0.2319
  320MOL0     C43080   9.347   2.148   8.183 -0.0149  0.1793 -0.6564
  320MOL0     C43081   9.224   2.168   8.107  0.0724 -0.1212  0.6528
  320MOL0     N43082   9.236   2.279   8.005 -0.2919 -0.0561 -0.1450
  320MOL0     C43083   9.355   2.337   7.960  0.3263 -0.0957 -0.5417
  320MOL0     C43084   9.316   2.440   7.880 -0.1974 -0.2660 -0.0086
  320MOL0     C43085   9.400   2.519   7.791 -0.0274 -0.3306  0.1146
  320MOL0     C43086   9.525   2.563   7.863  0.9409  0.7201 -0.2347
  320MOL0     C43087   9.619   2.645   7.775  0.1902 -0.4068 -0.1014
  320MOL0     C43088   9.723   2.704   7.861  0.0721  1.0025 -0.4698
  320MOL0     O43089   9.820   2.778   7.780 -0.1635 -0.7413 -0.1190
  320MOL0     C43090   9.916   2.848   7.842 -0.4239  0.6660  0.5883
  320MOL0     C43091   9.979   2.812   7.961  0.1692 -0.0336  0.2517
  320MOL0     C43092  10.098   2.884   8.007  0.0494  0.2005  0.2471
  320MOL0     C43093  10.158   2.985   7.931  0.0413 -0.0416  0.1912
  320MOL0     C43094  10.269   3.063   7.990 -0.1209 -0.5525 -0.9447
  320MOL0     O43095  10.329   3.165   7.909 -0.0025  0.3785  0.0572
  320MOL0     C43096  10.428   3.244   7.965 -0.1774 -0.8340  0.0521
  320MOL0     C43097  10.534   3.272   7.880  0.0302  0.4998  0.2981
  320MOL0     C43098  10.637   3.356   7.910  0.0078 -0.4544  0.4331
  320MOL0     C43099  10.643   3.419   8.034 -0.4351  0.3296  0.2339
  320MOL0     O43100  10.760   3.485   8.064 -0.5843 -0.4469  0.8584
  320MOL0     C43101  10.823   3.477   8.190  0.1467  0.2203  0.7029
  320MOL0     C43102  10.898   3.608   8.200  0.1978 -0.5579  0.4416
  320MOL0     C43103  10.992   3.611   8.312  0.3697  0.3035 -0.1787
  320MOL0     C43104  10.914   3.595   8.452 -0.1537 -0.2529  0.0339
  320MOL0     C43105  11.006   3.632   8.568 -0.3722 -0.1582  0.0394
  320MOL0     C43106  10.927   3.660   8.708 -0.3808  0.2659 -0.4967
  320MOL0     C43107  11.030   3.671   8.835  0.4817  0.5255  0.7462
  320MOL0     C43108  11.154   3.763   8.805  0.4280 -0.2449  0.1595
  320MOL0    Cl43109  11.221   3.822   8.957 -0.2868 -0.3378 -0.0091
  320MOL0     C43110  10.528   3.409   8.114  0.3067 -0.1636  1.1471
  320MOL0     C43111  10.416   3.333   8.077  0.4698  0.2720  0.1772
  320MOL0     O43112  10.309   3.030   8.103 -0.4540  0.0516  1.5825
  320MOL0     C43113  10.099   3.007   7.810 -0.1645 -0.0003  0.0563
  320MOL0     C43114   9.977   2.941   7.765  0.2667  0.1337 -0.0036
  320MOL0     N43115   9.178   2.453   7.891  0.3374  0.1980  0.0365
  320MOL0     N43116   9.134   2.370   7.973 -0.9111  0.1188  0.4485
  320MOL0     C43117   9.947   2.304   8.978 -0.5474 -1.0865  0.4567
  320MOL0     C43118  10.039   2.309   9.082  0.0658  0.5098 -0.1137
  320MOL0     C43119  10.203   2.306   9.519 -0.2537 -0.2386 -0.5354
  320MOL0     C43120  10.227   2.389   9.628 -0.5993 -1.1301  0.4816
  320MOL0     C43121  10.322   2.356   9.726  0.0458 -0.0528 -0.7463
  320MOL0     C43122  10.396   2.237   9.705 -0.4713 -0.7812 -0.0075
  320MOL0     O43123  10.494   2.202   9.795  0.2758 -0.1960  0.3669
  320MOL0     C43124  10.475   2.237   9.937  0.6102  0.0397 -0.1532
  320MOL0     C43125  10.340   2.194   9.998 -0.7069  0.4998 -0.5864
  320MOL0     C43126  10.337   2.220  10.148 -0.2884  0.7342 -0.4429
  320MOL0     C43127  10.198   2.170  10.194  0.3609  0.3004 -0.1073
  320MOL0     C43128  10.188   2.201  10.336 -0.3223  0.9052  0.2040
  320MOL0     C43129  10.172   2.216  10.452 -0.3225  0.1270  0.3100
  320MOL0     C43130  10.367   2.149   9.597 -1.1425  0.0680 -0.4895
  320MOL0     C43131  10.273   2.188   9.504  0.7848 -1.1082  0.0232
  320MOL0     C43132  10.274   2.097   9.377 -0.2816  0.0710 -0.1756
  320MOL0     H43133   9.802   2.221   9.328  1.5675  1.8658  1.5834
  320MOL0     H43134   9.657   2.253   9.144  0.8699 -0.6769  1.7540
  320MOL0     H43135   9.707   2.500   8.893 -0.8614  2.0656 -0.9880
  320MOL0     H43136   9.810   2.433   8.769 -0.6758  0.9384  0.1131
  320MOL0     H43137   9.591   2.529   8.668 -0.6707  1.2194  0.3606
  320MOL0     H43138   9.499   2.413   8.775 -0.5859  1.2505 -1.0169
  320MOL0     H43139   9.611   2.229   8.635 -0.1085 -0.0110 -0.5030
  320MOL0     H43140   9.707   2.336   8.562  0.0528 -0.2097  0.9270
  320MOL0     H43141   9.404   2.353   8.536 -1.0939 -0.2195 -3.0115
  320MOL0     H43142   9.508   2.438   8.433  0.3780 -2.1320 -2.4992
  320MOL0     H43143   9.564   2.232   8.318  0.9442 -2.0623  0.7096
  320MOL0     H43144   9.493   2.130   8.439  4.3588  1.4409  1.4782
  320MOL0     H43145   9.263   2.238   8.362 -1.4953 -2.1659 -2.3311
  320MOL0     H43146   9.356   2.338   8.240 -0.2479  0.9768 -0.5670
  320MOL0     H43147   9.343   2.048   8.229  0.7358 -1.2307 -3.4274
  320MOL0     H43148   9.440   2.147   8.126  0.4101 -0.5021  0.0346
  320MOL0     H43149   9.203   2.076   8.050  1.2447  0.2377 -0.4063
  320MOL0     H43150   9.132   2.169   8.165 -0.8895 -0.5523 -0.7941
  320MOL0     H43151   9.460   2.313   7.972  1.3144  4.1663  1.5371
  320MOL0     H43152   9.422   2.451   7.708 -1.3454 -0.4795 -0.1357
  320MOL0     H43153   9.346   2.607   7.755  0.7528 -0.7936 -2.4458
  320MOL0     H43154   9.498   2.623   7.950 -0.2688  0.8806 -0.6960
  320MOL0     H43155   9.584   2.477   7.896  0.6211 -0.5591 -2.7034
  320MOL0     H43156   9.563   2.717   7.715 -3.0894 -2.7681 -0.1715
  320MOL0     H43157   9.671   2.587   7.699  1.7987  0.7777  0.0257
  320MOL0     H43158   9.768   2.618   7.911 -1.8802  0.0392 -0.2828
  320MOL0     H43159   9.669   2.761   7.938  0.4460 -0.8354  1.2216
  320MOL0     H43160   9.934   2.743   8.031 -0.5677  1.0163  0.8377
  320MOL0     H43161  10.136   2.857   8.105  1.4192  0.5476 -0.1634
  320MOL0     H43162  10.538   3.217   7.786 -0.3178 -1.2614  1.2633
  320MOL0     H43163  10.722   3.379   7.846 -0.2111  1.2589  0.7035
  320MOL0     H43164  10.762   3.455   8.278  0.4223 -0.1565  0.8041
  320MOL0     H43165  10.898   3.398   8.177  0.0034  0.0685  0.7929
  320MOL0     H43166  10.966   3.621   8.115 -1.0480  3.4668 -0.1326
  320MOL0     H43167  10.823   3.687   8.208  0.5082 -0.3308  1.2662
  320MOL0     H43168  11.069   3.534   8.299 -0.4218 -0.3482 -1.1687
  320MOL0     H43169  11.045   3.706   8.323 -0.3064  0.6779 -0.0845
  320MOL0     H43170  10.865   3.498   8.465 -3.6285  1.0400 -1.9667
  320MOL0     H43171  10.832   3.668   8.457  0.2947  0.3381 -0.9305
  320MOL0     H43172  11.060   3.724   8.546  1.8140 -1.3054  0.2931
  320MOL0     H43173  11.079   3.550   8.570  1.3125  1.2384 -0.8558
  320MOL0     H43174  10.871   3.752   8.688  2.0880  1.4725 -2.5087
  320MOL0     H43175  10.869   3.569   8.728  1.4053 -0.6554  0.8579
  320MOL0     H43176  11.063   3.569   8.858  0.1354  0.2025 -0.1394
  320MOL0     H43177  10.969   3.715   8.915  0.3149  1.1396  0.2885
  320MOL0     H43178  11.226   3.710   8.741  0.8910 -0.7206  1.0570
  320MOL0     H43179  11.114   3.844   8.744  0.3538 -0.6116 -0.2914
  320MOL0     H43180  10.522   3.474   8.201 -1.9691  0.1361  0.8190
  320MOL0     H43181  10.327   3.308   8.135  0.4783  0.1188  0.1232
  320MOL0     H43182  10.134   3.098   7.762  0.1354  1.2958  2.5276
  320MOL0     H43183   9.936   2.972   7.669  1.3053 -4.4845 -2.1993
  320MOL0     H43184   9.974   2.309   8.873 -0.2143 -3.3481  0.3717
  320MOL0     H43185  10.143   2.312   9.052 -0.1302  3.8219 -0.9470
  320MOL0     H43186  10.184   2.488   9.634  3.8010  0.9454  1.2784
  320MOL0     H43187  10.334   2.419   9.814 -1.9450 -0.0722 -0.4289
  320MOL0     H43188  10.493   2.344   9.949 -0.8223  0.3421 -0.5607
  320MOL0     H43189  10.549   2.177   9.992 -0.0535  2.0682  3.2335
  320MOL0     H43190  10.335   2.086   9.980 -2.6293  0.0061  2.1939
  320MOL0     H43191  10.251   2.236   9.950 -0.3242  1.7643 -0.2297
  320MOL0     H43192  10.345   2.325  10.177 -0.9922  0.1953  1.9389
  320MOL0     H43193  10.423   2.168  10.191  0.8120  0.5041 -2.7868
  320MOL0     H43194  10.115   2.210  10.136  0.3007  1.2409  0.6007
  320MOL0     H43195  10.195   2.061  10.184  0.6003  0.4985 -3.4586
  320MOL0     H43196  10.159   2.203  10.558 -2.1155 -1.6861 -0.0945
  320MOL0     H43197  10.425   2.059   9.581  1.4415  1.2706  1.3804
  320MOL0     H43198  10.359   2.029   9.363 -2.5343 -2.2488 -4.6047
  320MOL0     H43199  10.178   2.044   9.380 -1.7501  2.6086  2.4702
  320MOL0     H43200  10.272   2.153   9.283 -1.7977  0.7513  0.2394
  321MOL0     O43201   1.450   8.689   1.418  0.6013 -0.2084 -0.0940
  321MOL0     C43202   1.485   8.707   1.532  0.0184  0.4571 -1.0301
  321MOL0     O43203   1.605   8.769   1.571  0.3584  0.5925  0.4581
  321MOL0     C43204   1.695   8.815   1.485  0.7440  0.1882 -1.0774
  321MOL0     C43205   1.659   8.902   1.378  0.0741 -0.1944  0.6531
  321MOL0     C43206   1.756   8.942   1.281  0.5796 -0.2172 -0.5763
  321MOL0     C43207   1.886   8.895   1.301 -0.4391 -0.3083  0.4669
  321MOL0     O43208   1.978   8.947   1.212  0.0688 -0.3123  0.1260
  321MOL0     C43209   2.118   8.955   1.237  1.1096  0.2834  0.5689
  321MOL0     C43210   2.186   8.831   1.192 -0.0762  0.2630  0.3074
  321MOL0     C43211   2.195   8.814   1.041  0.1640  0.5341 -0.6464
  321MOL0     C43212   2.291   8.684   1.015  0.1530 -1.1712 -0.1823
  321MOL0     C43213   2.281   8.655   0.865 -0.0076 -0.5188  0.3375
  321MOL0     C43214   2.377   8.533   0.838  1.1775  0.2838  0.2270
  321MOL0     C43215   2.404   8.541   0.685  0.6645  0.8150 -0.9911
  321MOL0     C43216   2.482   8.416   0.650 -0.0221 -0.5777 -0.3490
  321MOL0     N43217   2.623   8.449   0.662 -0.4894  0.5586 -1.0515
  321MOL0     C43218   2.692   8.417   0.775 -0.9428 -0.0081 -0.0763
  321MOL0     C43219   2.814   8.468   0.744  0.0179 -0.0737  0.3248
  321MOL0     C43220   2.934   8.446   0.825 -0.3144  1.0459  0.4217
  321MOL0     C43221   2.969   8.297   0.804 -1.1809 -0.5760  0.3664
  321MOL0     C43222   3.111   8.256   0.850  0.0230 -0.1818  0.8564
  321MOL0     C43223   3.140   8.106   0.828  0.0230  0.1776 -0.1173
  321MOL0     O43224   3.088   8.040   0.945 -0.0702  0.2441 -0.6498
  321MOL0     C43225   3.119   7.905   0.954  0.2023 -0.1705 -0.3354
  321MOL0     C43226   3.074   7.825   1.065 -0.5078  1.1426 -0.6727
  321MOL0     C43227   3.082   7.682   1.075 -0.3073  0.8751  0.1727
  321MOL0     C43228   3.146   7.610   0.971 -0.9684 -0.6012 -0.3954
  321MOL0     C43229   3.165   7.466   0.977 -0.1150  0.0773 -0.6965
  321MOL0     O43230   3.268   7.406   0.905  0.4587  0.0336 -0.2590
  321MOL0     C43231   3.272   7.267   0.888 -0.5221  0.0006  0.0670
  321MOL0     C43232   3.270   7.174   0.990  0.3078  1.3855 -0.5854
  321MOL0     C43233   3.278   7.034   0.972 -0.0585 -0.1772 -0.9305
  321MOL0     C43234   3.287   6.983   0.848 -0.5402  1.0466  0.0829
  321MOL0     O43235   3.277   6.846   0.824  0.2836 -0.4296  0.0393
  321MOL0     C43236   3.366   6.771   0.903  0.4338  0.1575 -0.4293
  321MOL0     C43237   3.295   6.660   0.975 -0.0345 -0.3123 -0.3658
  321MOL0     C43238   3.171   6.693   1.065 -1.4307 -0.4983 -0.5959
  321MOL0     C43239   3.076   6.578   1.095  0.0179  0.4010 -0.2802
  321MOL0     C43240   2.948   6.639   1.135  0.2542  0.0755 -0.2114
  321MOL0     C43241   2.869   6.530   1.216 -0.3007 -0.0537  0.6082
  321MOL0     C43242   2.749   6.597   1.287  0.4801 -0.5615 -0.8781
  321MOL0     C43243   2.683   6.499   1.391  0.2126  0.2585  0.3281
  321MOL0    Cl43244   2.528   6.574   1.450 -0.0106  0.3062 -0.1655
  321MOL0     C43245   3.278   7.069   0.736  0.5816 -0.4504 -0.0715
  321MOL0     C43246   3.271   7.207   0.760 -0.9767  0.3657 -0.2046
  321MOL0     O43247   3.075   7.404   1.042 -0.6195 -0.1283 -0.4063
  321MOL0     C43248   3.206   7.692   0.870  0.7630 -1.2048  0.5499
  321MOL0     C43249   3.179   7.827   0.856 -0.4723  0.3717 -0.5664
  321MOL0     N43250   2.816   8.514   0.616 -0.1020 -0.4957 -0.0380
  321MOL0     N43251   2.696   8.513   0.567  1.1125  0.0845 -0.8477
  321MOL0     C43252   1.923   8.818   1.411  0.0575  0.5127 -0.2592
  321MOL0     C43253   1.831   8.783   1.508 -0.5916  1.0507 -0.6875
  321MOL0     C43254   1.402   8.651   1.647  0.1899 -0.6811  0.2677
  321MOL0     C43255   1.430   8.703   1.776 -0.0793  0.1945  1.1155
  321MOL0     C43256   1.364   8.650   1.889  0.7159 -0.8211 -1.3196
  321MOL0     C43257   1.263   8.559   1.888  0.1775 -0.2303  0.7089
  321MOL0     O43258   1.198   8.536   2.005  0.1620 -0.3357 -0.0359
  321MOL0     C43259   1.098   8.436   2.023  0.1435 -0.2249  0.7344
  321MOL0     C43260   0.961   8.510   2.000  0.1051 -0.8171  0.8075
  321MOL0     C43261   0.829   8.422   1.972 -1.5519 -0.1668  0.4093
  321MOL0     C43262   0.853   8.312   1.871  0.2920  0.3243 -0.8850
  321MOL0     C43263   0.892   8.366   1.741  0.5792 -0.0064 -0.6667
  321MOL0     C43264   0.917   8.393   1.623  0.2360  0.2088  0.3722
  321MOL0     C43265   1.227   8.511   1.760  1.0661  0.6989 -0.5476
  321MOL0     C43266   1.299   8.553   1.638  0.8187 -0.2304 -0.6931
  321MOL0     C43267   1.259   8.477   1.511  0.4742 -0.6397  0.9396
  321MOL0     H43268   1.554   8.927   1.365  0.1034 -0.4838 -0.2754
  321MOL0     H43269   1.738   8.994   1.188 -0.7473  0.8928  0.2617
  321MOL0     H43270   2.149   9.042   1.177 -2.8829  1.0952 -0.5844
  321MOL0     H43271   2.145   8.979   1.340  1.8075  4.0019 -0.3236
  321MOL0     H43272   2.141   8.741   1.235  0.3517  0.4316  1.1227
  321MOL0     H43273   2.285   8.836   1.237 -0.0074 -2.6774  0.6566
  321MOL0     H43274   2.236   8.906   0.997 -1.8156  2.2761  0.9386
  321MOL0     H43275   2.097   8.803   0.994  1.4878  0.0679 -3.5050
  321MOL0     H43276   2.397   8.704   1.029 -0.1613 -0.7847  2.0036
  321MOL0     H43277   2.260   8.598   1.075 -1.6746  0.6852  1.7262
  321MOL0     H43278   2.182   8.617   0.837  0.7454 -2.9247  0.7183
  321MOL0     H43279   2.312   8.741   0.804  3.1196  0.0469  2.5267
  321MOL0     H43280   2.462   8.533   0.907  0.2242 -0.2837  1.4382
  321MOL0     H43281   2.323   8.440   0.860 -0.8614  1.6058  1.1832
  321MOL0     H43282   2.448   8.640   0.663 -1.7029  2.2065  0.1605
  321MOL0     H43283   2.303   8.535   0.644 -1.2575  0.7009  3.2659
  321MOL0     H43284   2.468   8.318   0.697  0.5900 -0.8971 -0.8181
  321MOL0     H43285   2.455   8.392   0.547 -2.0032  0.5625 -0.1518
  321MOL0     H43286   2.677   8.356   0.863 -0.1189  0.3921  0.3511
  321MOL0     H43287   3.008   8.518   0.786 -0.6431  0.3217 -1.6989
  321MOL0     H43288   2.911   8.469   0.929  1.3953  1.8696  0.6597
  321MOL0     H43289   2.895   8.233   0.853 -1.2365 -0.4690  0.4226
  321MOL0     H43290   2.957   8.267   0.700 -0.9657 -0.9623  0.4491
  321MOL0     H43291   3.128   8.286   0.954 -1.4726  1.9479  0.5564
  321MOL0     H43292   3.174   8.313   0.781  0.1450  1.1971  2.0493
  321MOL0     H43293   3.246   8.085   0.816  0.4535  0.7922  2.0197
  321MOL0     H43294   3.078   8.073   0.744  0.2441 -0.0775 -0.1783
  321MOL0     H43295   3.036   7.879   1.151 -0.7182 -0.5881  0.3609
  321MOL0     H43296   3.053   7.633   1.167 -2.7354 -1.9513 -1.8878
  321MOL0     H43297   3.265   7.220   1.088 -2.0847  0.1507 -0.0595
  321MOL0     H43298   3.287   6.967   1.057 -0.3772  0.4188 -0.4243
  321MOL0     H43299   3.436   6.731   0.830  0.1290 -2.3569  0.5487
  321MOL0     H43300   3.436   6.824   0.968  1.3770  0.7507 -1.9076
  321MOL0     H43301   3.268   6.593   0.894 -2.2038  4.2520 -3.8838
  321MOL0     H43302   3.368   6.606   1.037 -0.6008 -0.9195 -0.2184
  321MOL0     H43303   3.215   6.735   1.156 -0.5915 -1.7137 -0.4246
  321MOL0     H43304   3.109   6.773   1.024  0.0470  1.5769  1.0140
  321MOL0     H43305   3.103   6.512   1.178 -2.7323 -1.4296 -0.6979
  321MOL0     H43306   3.067   6.521   1.003 -0.2870 -2.6586  1.5088
  321MOL0     H43307   2.899   6.670   1.042 -0.5960  0.0039  0.1970
  321MOL0     H43308   2.957   6.725   1.202 -0.9850  2.1170 -2.4755
  321MOL0     H43309   2.839   6.460   1.137  0.7473  0.5919 -0.3752
  321MOL0     H43310   2.942   6.486   1.285  1.6824 -0.3226 -1.5472
  321MOL0     H43311   2.672   6.628   1.216  0.5271  0.8448 -0.3383
  321MOL0     H43312   2.782   6.687   1.340 -3.3490 -0.7337  2.2581
  321MOL0     H43313   2.680   6.397   1.352 -1.1750  1.2515 -2.4771
  321MOL0     H43314   2.746   6.489   1.479 -1.0663  0.1357  1.2564
  321MOL0     H43315   3.283   7.028   0.636 -1.6929 -2.8223  0.6502
  321MOL0     H43316   3.246   7.262   0.670  1.0730  1.6087 -0.0632
  321MOL0     H43317   3.265   7.647   0.790  1.8190  2.5783 -0.9961
  321MOL0     H43318   3.211   7.883   0.768  1.0181  2.1656  1.0190
  321MOL0     H43319   2.028   8.791   1.417 -0.4899 -1.6066  0.9739
  321MOL0     H43320   1.869   8.719   1.587  1.6493  0.3139 -2.2627
  321MOL0     H43321   1.511   8.774   1.789 -0.9834  1.2550  1.1011
  321MOL0     H43322   1.374   8.704   1.983  0.2895  0.0560 -1.7673
  321MOL0     H43323   1.092   8.393   2.123  0.1133 -0.6546  0.5500
  321MOL0     H43324   1.117   8.352   1.955  0.1901 -1.7286  2.5105
  321MOL0     H43325   0.963   8.587   1.922 -0.0618 -1.6831 -0.0797
  321MOL0     H43326   0.937   8.574   2.085  1.4647  1.7411 -0.6037
  321MOL0     H43327   0.746   8.485   1.938 -1.2781  0.7046  1.2948
  321MOL0     H43328   0.801   8.372   2.065 -0.4770  0.3934  1.0593
  321MOL0     H43329   0.926   8.234   1.896  0.4240 -0.0405 -2.3136
  321MOL0     H43330   0.759   8.256   1.865  0.4320 -0.3549  1.8959
  321MOL0     H43331   0.934   8.411   1.519  1.9969  2.7841  1.0094
  321MOL0     H43332   1.148   8.437   1.753 -0.2177  1.8849  0.7972
  321MOL0     H43333   1.207   8.546   1.444  0.0395 -0.2609  1.6531
  321MOL0     H43334   1.355   8.443   1.470  1.1595  0.4246  1.6184
  321MOL0     H43335   1.187   8.396   1.528  0.4509 -0.8833 -0.2084
  322MOL0     O43336   3.403   6.986   3.164 -0.2011 -0.1619 -0.0114
  322MOL0     C43337   3.387   6.970   3.284  0.0261  0.0444 -0.4022
  322MOL0     O43338   3.359   7.073   3.370 -0.0563  0.6681  0.0944
  322MOL0     C43339   3.356   7.202   3.320  0.8503 -0.1604 -0.4121
  322MOL0     C43340   3.261   7.241   3.222 -0.4171  0.2617  0.3475
  322MOL0     C43341   3.272   7.366   3.171 -0.5364  0.0620 -0.2319
  322MOL0     C43342   3.369   7.461   3.217  0.8376  0.0608 -0.2137
  322MOL0     O43343   3.373   7.585   3.164  0.5726  1.2579  0.2502
  322MOL0     C43344   3.414   7.685   3.252 -0.5138 -1.0157 -0.2048
  322MOL0     C43345   3.320   7.719   3.376  0.1240 -0.7155 -0.6957
  322MOL0     C43346   3.379   7.839   3.470 -0.1333  0.2013  0.3911
  322MOL0     C43347   3.523   7.828   3.502 -0.3490 -0.0655 -0.3568
  322MOL0     C43348   3.546   7.913   3.624 -0.2070 -0.4296  0.1781
  322MOL0     C43349   3.694   7.896   3.666 -0.5764  0.8844 -0.0317
  322MOL0     C43350   3.716   7.992   3.785  0.5086  0.8984 -0.3925
  322MOL0     C43351   3.644   7.941   3.923 -0.2463 -0.1215 -0.5129
  322MOL0     N43352   3.673   7.793   3.949  0.4257  0.0113 -0.0328
  322MOL0     C43353   3.583   7.686   3.950  0.3146 -1.1873 -0.7737
  322MOL0     C43354   3.663   7.582   3.947  0.0150 -0.3279 -0.5452
  322MOL0     C43355   3.631   7.433   3.958  0.5847  0.1874  0.0924
  322MOL0     C43356   3.657   7.386   4.103  0.4447  0.2487  0.7256
  322MOL0     C43357   3.799   7.391   4.152  1.9683 -0.9279 -0.5007
  322MOL0     C43358   3.813   7.343   4.292 -0.5315  0.1621 -0.1314
  322MOL0     O43359   3.717   7.397   4.381  0.1490 -0.7459  0.0417
  322MOL0     C43360   3.738   7.528   4.434  0.4666  0.3086 -0.5405
  322MOL0     C43361   3.851   7.614   4.414 -0.3367 -0.5961 -0.7316
  322MOL0     C43362   3.864   7.732   4.477 -0.3641  0.0280  0.3827
  322MOL0     C43363   3.777   7.764   4.581 -0.0765 -0.0973  0.3540
  322MOL0     C43364   3.791   7.874   4.672  0.4038  0.0306 -0.2339
  322MOL0     O43365   3.910   7.942   4.675  0.3027  0.0679  0.1066
  322MOL0     C43366   3.923   8.061   4.745 -0.2660  0.0217 -0.2883
  322MOL0     C43367   4.032   8.072   4.830  0.0829 -0.7303  0.1928
  322MOL0     C43368   4.057   8.192   4.905 -1.1730  0.1000  0.2661
  322MOL0     C43369   3.968   8.301   4.901  0.2436  0.8058  0.4358
  322MOL0     O43370   3.972   8.415   4.979 -0.2898 -0.2180 -0.1469
  322MOL0     C43371   4.098   8.458   5.028 -0.3045 -0.6167 -0.4240
  322MOL0     C43372   4.119   8.616   5.067  0.7887  1.6013  0.4659
  322MOL0     C43373   4.249   8.641   5.137  0.5460 -0.3922 -0.1603
  322MOL0     C43374   4.245   8.787   5.202 -0.0954  0.9152 -0.2767
  322MOL0     C43375   4.390   8.838   5.237  0.4285  0.7055  0.3264
  322MOL0     C43376   4.456   8.771   5.362 -0.4485 -0.4583 -0.1597
  322MOL0     C43377   4.609   8.802   5.371  0.6436 -0.7531  1.4665
  322MOL0     C43378   4.654   8.744   5.503  0.0186  0.3504 -0.5654
  322MOL0    Cl43379   4.696   8.573   5.481 -0.3850 -0.2320 -0.5569
  322MOL0     C43380   3.856   8.290   4.816 -0.9854  0.0421 -0.0510
  322MOL0     C43381   3.831   8.169   4.737  0.0201 -0.3933 -0.7591
  322MOL0     O43382   3.698   7.913   4.743  0.2275  0.2300  0.3010
  322MOL0     C43383   3.662   7.692   4.593  0.2142  0.0069 -0.4587
  322MOL0     C43384   3.645   7.573   4.533  0.5278  0.5355  0.1988
  322MOL0     N43385   3.788   7.615   3.932  0.0371  0.3440  0.7699
  322MOL0     N43386   3.797   7.744   3.944  0.0969  0.7677  1.0545
  322MOL0     C43387   3.458   7.424   3.315  0.0549 -0.1351 -0.1385
  322MOL0     C43388   3.441   7.298   3.368 -0.2560  0.0064  0.0247
  322MOL0     C43389   3.373   6.837   3.348  0.3486 -0.1247 -0.8088
  322MOL0     C43390   3.319   6.828   3.476  0.1251 -0.0067  0.4789
  322MOL0     C43391   3.311   6.699   3.537  0.0545  0.4869  0.0444
  322MOL0     C43392   3.356   6.589   3.475 -0.7470 -0.1000 -0.4008
  322MOL0     O43393   3.345   6.467   3.532 -0.1761  0.2134 -0.0468
  322MOL0     C43394   3.458   6.432   3.611  0.6773 -0.6094  0.7651
  322MOL0     C43395   3.495   6.290   3.587 -0.8400  0.1273  0.8003
  322MOL0     C43396   3.388   6.181   3.587 -0.5488 -0.0262  0.1533
  322MOL0     C43397   3.358   6.122   3.731  0.5281 -1.0932 -0.4624
  322MOL0     C43398   3.253   6.032   3.698 -0.6530 -0.6001  0.2363
  322MOL0     C43399   3.154   5.968   3.681  0.2115  0.9437  0.4771
  322MOL0     C43400   3.413   6.600   3.350 -0.2102  0.4732  0.9889
  322MOL0     C43401   3.421   6.717   3.279 -0.2671 -0.1572 -1.1456
  322MOL0     C43402   3.486   6.712   3.138 -0.8093 -1.1904  0.8625
  322MOL0     H43403   3.189   7.167   3.188 -2.4936  1.7021  1.4031
  322MOL0     H43404   3.205   7.401   3.093 -1.5025 -0.5765  0.2885
  322MOL0     H43405   3.514   7.680   3.294 -1.5601 -2.3184  2.3298
  322MOL0     H43406   3.413   7.772   3.184  0.0798  0.7934  1.9651
  322MOL0     H43407   3.300   7.629   3.435 -0.7365  0.0949  0.2839
  322MOL0     H43408   3.217   7.740   3.345  0.5525 -1.1214 -2.5310
  322MOL0     H43409   3.326   7.831   3.565  1.2272  1.5411  1.3029
  322MOL0     H43410   3.358   7.938   3.429 -0.9170 -1.2456 -3.0893
  322MOL0     H43411   3.559   7.728   3.528 -0.3181 -0.7289 -2.7131
  322MOL0     H43412   3.577   7.861   3.413 -1.7691 -0.9167 -1.5797
  322MOL0     H43413   3.528   8.018   3.600  0.7164  0.1367  1.7794
  322MOL0     H43414   3.477   7.902   3.708 -0.6208  1.4924  0.1505
  322MOL0     H43415   3.713   7.789   3.681 -1.4480  0.8577  0.9730
  322MOL0     H43416   3.751   7.940   3.584  2.5084 -3.1897 -0.3914
  322MOL0     H43417   3.679   8.091   3.756 -0.4240 -0.7218 -5.7006
  322MOL0     H43418   3.825   7.999   3.800  0.6310 -2.5127  1.5135
  322MOL0     H43419   3.695   8.002   3.999  4.4754 -3.9344 -0.1031
  322MOL0     H43420   3.536   7.955   3.931 -0.3885 -1.2160 -0.3501
  322MOL0     H43421   3.475   7.696   3.944  0.4778  0.1501 -1.9350
  322MOL0     H43422   3.525   7.416   3.937  1.1699 -2.9249 -0.9145
  322MOL0     H43423   3.687   7.379   3.880  2.7636 -0.2876  1.8879
  322MOL0     H43424   3.593   7.449   4.165 -3.1121  0.2170 -2.4775
  322MOL0     H43425   3.629   7.280   4.113 -1.9286  0.8961  1.5223
  322MOL0     H43426   3.832   7.495   4.148 -0.5595 -0.0481 -0.6457
  322MOL0     H43427   3.854   7.327   4.082 -0.2446 -2.1212 -1.2445
  322MOL0     H43428   3.918   7.352   4.321 -0.0969  3.0563 -2.2624
  322MOL0     H43429   3.794   7.235   4.290 -3.2778  0.5869 -0.1899
  322MOL0     H43430   3.932   7.589   4.347  1.3201 -0.7052  1.1907
  322MOL0     H43431   3.942   7.799   4.442 -0.3290 -0.9629 -1.6202
  322MOL0     H43432   4.113   8.002   4.846  1.0056  0.3755  0.4683
  322MOL0     H43433   4.147   8.207   4.963 -0.2110  0.4059 -1.2549
  322MOL0     H43434   4.134   8.397   5.111  2.8441 -0.3943 -1.4932
  322MOL0     H43435   4.166   8.438   4.944  0.4294  0.6520 -0.1524
  322MOL0     H43436   4.118   8.670   4.972  3.2116  0.6724 -0.1517
  322MOL0     H43437   4.041   8.647   5.138  1.0011 -0.6464  1.7884
  322MOL0     H43438   4.275   8.569   5.215 -0.3101 -0.3576  0.1655
  322MOL0     H43439   4.337   8.647   5.071  2.0849 -2.7472  1.5221
  322MOL0     H43440   4.181   8.785   5.291 -2.1019  0.0068 -1.6520
  322MOL0     H43441   4.201   8.851   5.125  0.2386  0.8168 -0.5532
  322MOL0     H43442   4.395   8.947   5.245  2.4044  0.5426  2.0943
  322MOL0     H43443   4.445   8.807   5.148  2.5328  3.6474  0.4362
  322MOL0     H43444   4.411   8.818   5.450 -3.0429 -2.9172 -0.0540
  322MOL0     H43445   4.431   8.664   5.364  0.1858 -0.6209 -0.4945
  322MOL0     H43446   4.631   8.909   5.380  0.0374 -0.4627 -0.1734
  322MOL0     H43447   4.662   8.768   5.281 -1.1172  2.2963 -0.9184
  322MOL0     H43448   4.740   8.794   5.549 -1.1051  1.8426 -0.0110
  322MOL0     H43449   4.584   8.758   5.586  2.5739  0.9956  1.6324
  322MOL0     H43450   3.779   8.367   4.817  0.2788  1.4166 -1.8499
  322MOL0     H43451   3.746   8.166   4.670  0.8366  0.9301 -1.9184
  322MOL0     H43452   3.584   7.722   4.662  1.8646 -1.0288  2.0031
  322MOL0     H43453   3.560   7.510   4.559 -1.1372  2.9774  1.0250
  322MOL0     H43454   3.538   7.489   3.347 -0.6234  0.3550  0.5763
  322MOL0     H43455   3.511   7.264   3.444  1.3835  0.6622 -1.1359
  322MOL0     H43456   3.273   6.911   3.529 -1.8576 -1.3399  0.9378
  322MOL0     H43457   3.269   6.698   3.636  0.3594  0.9802  0.1836
  322MOL0     H43458   3.416   6.447   3.711  0.8755  1.3592  0.6073
  322MOL0     H43459   3.537   6.508   3.614 -0.2467  0.3706  2.6248
  322MOL0     H43460   3.580   6.264   3.651 -0.9237 -2.9962 -0.2108
  322MOL0     H43461   3.533   6.293   3.484 -0.3807 -0.4716  0.9501
  322MOL0     H43462   3.436   6.097   3.536 -4.6156 -1.1415 -2.3594
  322MOL0     H43463   3.298   6.224   3.540 -0.7210  3.9149  3.5586
  322MOL0     H43464   3.449   6.072   3.765  0.8752 -0.1819 -0.0178
  322MOL0     H43465   3.338   6.203   3.801  3.1086 -0.4751 -0.3140
  322MOL0     H43466   3.053   5.937   3.660 -0.0599  2.0714  0.0619
  322MOL0     H43467   3.446   6.513   3.294 -2.2042  1.6283 -2.2436
  322MOL0     H43468   3.483   6.607   3.109 -0.7182 -1.1406  0.6670
  322MOL0     H43469   3.435   6.762   3.055  1.1128 -2.9820 -1.5610
  322MOL0     H43470   3.587   6.755   3.145 -1.5998  1.4661 -1.9772
  323MOL0     O43471   1.958   0.350   7.697  0.2418 -0.5996 -0.4026
  323MOL0     C43472   2.032   0.358   7.798  0.0064 -0.3135  0.4083
  323MOL0     O43473   2.111   0.251   7.846 -0.4363 -0.2506 -0.7191
  323MOL0     C43474   2.121   0.123   7.801  0.0253  0.2361  0.5436
  323MOL0     C43475   2.151   0.024   7.894  0.6707  0.1612 -0.0586
  323MOL0     C43476   2.147  -0.110   7.865  0.5622  0.3225 -0.2060
  323MOL0     C43477   2.120  -0.156   7.730  0.4844 -0.2688  0.4957
  323MOL0     O43478   2.125  -0.292   7.705 -0.0862 -1.0037 -0.0953
  323MOL0     C43479   2.029  -0.331   7.604 -0.5111 -0.2312  0.2151
  323MOL0     C43480   1.963  -0.458   7.639 -0.3636 -0.8067  0.1505
  323MOL0     C43481   1.894  -0.512   7.509 -0.0156 -0.0436 -0.3034
  323MOL0     C43482   1.832  -0.645   7.553 -0.0595  0.0332  0.3419
  323MOL0     C43483   1.818  -0.748   7.442  0.5122  0.2512  0.3791
  323MOL0     C43484   1.724  -0.875   7.490  0.4639 -0.4338  0.1450
  323MOL0     C43485   1.638  -0.934   7.378  0.2229  1.3491  0.3001
  323MOL0     C43486   1.715  -1.016   7.270  1.0905 -0.1698  0.2021
  323MOL0     N43487   1.764  -1.148   7.325 -0.0545 -0.4015  0.5253
  323MOL0     C43488   1.713  -1.278   7.297 -0.3188 -0.9591  0.1012
  323MOL0     C43489   1.791  -1.365   7.371 -0.0343  0.7731  0.9607
  323MOL0     C43490   1.776  -1.517   7.345  0.2424 -0.5541 -0.1847
  323MOL0     C43491   1.798  -1.597   7.468 -0.8420  0.1938 -0.1974
  323MOL0     C43492   1.675  -1.590   7.561 -0.5758  0.0335  0.0996
  323MOL0     C43493   1.694  -1.674   7.690 -0.6064  0.3465 -0.2059
  323MOL0     O43494   1.774  -1.789   7.676  0.1571 -0.1576 -0.0748
  323MOL0     C43495   1.766  -1.891   7.773 -0.3081 -0.2831 -0.5934
  323MOL0     C43496   1.802  -2.018   7.724  0.1239 -0.4057  0.6550
  323MOL0     C43497   1.810  -2.126   7.799 -0.1364  0.7273  0.0605
  323MOL0     C43498   1.778  -2.113   7.939  0.0522  1.1803 -0.5429
  323MOL0     C43499   1.775  -2.227   8.029 -0.5807  0.3902 -0.4472
  323MOL0     O43500   1.802  -2.345   7.970 -0.0299 -0.3050  0.6006
  323MOL0     C43501   1.803  -2.468   8.037  0.6429 -0.3372  0.4471
  323MOL0     C43502   1.758  -2.589   7.970 -0.2176 -0.7852  0.8596
  323MOL0     C43503   1.767  -2.717   8.021 -0.1718 -0.3840 -0.2304
  323MOL0     C43504   1.814  -2.725   8.160  0.9340  0.0287  0.4444
  323MOL0     O43505   1.839  -2.842   8.232 -0.9546 -0.6579  0.3218
  323MOL0     C43506   1.803  -2.970   8.172 -0.6234  0.2648 -0.0441
  323MOL0     C43507   1.863  -3.072   8.272 -0.1421 -0.4705  0.4799
  323MOL0     C43508   1.792  -3.099   8.406  0.8180  0.3050  0.6444
  323MOL0     C43509   1.655  -3.177   8.388  0.1072 -1.1382 -1.0940
  323MOL0     C43510   1.562  -3.168   8.514  0.5301 -0.8107 -1.0476
  323MOL0     C43511   1.414  -3.199   8.468  0.2936  0.1755 -0.3482
  323MOL0     C43512   1.308  -3.164   8.575 -1.1189  0.3789  0.2936
  323MOL0     C43513   1.283  -3.261   8.680 -0.7014  0.6716  0.0520
  323MOL0    Cl43514   1.415  -3.266   8.811 -0.6627 -0.1647 -0.0658
  323MOL0     C43515   1.859  -2.606   8.226 -0.3325  0.0684 -0.3558
  323MOL0     C43516   1.856  -2.477   8.160 -0.7445 -0.4840 -0.0341
  323MOL0     O43517   1.744  -2.214   8.145 -0.2909  0.3106  1.3222
  323MOL0     C43518   1.750  -1.987   7.995  0.4160  0.2283 -0.0153
  323MOL0     C43519   1.742  -1.874   7.910  0.7903  0.1026 -0.5163
  323MOL0     N43520   1.893  -1.289   7.428 -0.7026 -1.0883  0.1577
  323MOL0     N43521   1.876  -1.161   7.396 -0.4358 -0.2502 -0.2065
  323MOL0     C43522   2.103  -0.057   7.634 -1.1809 -0.0149 -0.4405
  323MOL0     C43523   2.096   0.076   7.672 -1.0758 -0.4103 -1.0232
  323MOL0     C43524   2.070   0.494   7.856 -0.4931 -0.2126 -0.0811
  323MOL0     C43525   2.107   0.510   7.990 -0.9964 -0.5033 -0.9917
  323MOL0     C43526   2.166   0.631   8.039 -0.8140  0.3421 -0.5900
  323MOL0     C43527   2.165   0.748   7.967 -0.6087 -0.7021  0.0097
  323MOL0     O43528   2.202   0.871   8.033 -0.3286  0.2237 -0.1559
  323MOL0     C43529   2.154   0.996   7.994 -0.0105 -0.0562 -0.3867
  323MOL0     C43530   2.248   1.069   7.897  0.5203  0.6552 -0.5462
  323MOL0     C43531   2.395   1.063   7.939  0.4105 -0.8269  0.1787
  323MOL0     C43532   2.426   1.140   8.073  0.5948  0.2468  0.1480
  323MOL0     C43533   2.570   1.138   8.103  0.4719 -0.0211  0.5216
  323MOL0     C43534   2.685   1.149   8.138  0.0099 -1.2181  0.0602
  323MOL0     C43535   2.104   0.742   7.839  0.6060 -0.2544  0.0198
  323MOL0     C43536   2.063   0.617   7.788 -0.1849  0.2394  0.2363
  323MOL0     C43537   2.007   0.621   7.645  0.1426 -0.5850 -0.8275
  323MOL0     H43538   2.180   0.063   7.991 -0.3496 -0.0520  0.3365
  323MOL0     H43539   2.153  -0.187   7.940 -1.7090 -0.3598 -0.6327
  323MOL0     H43540   1.946  -0.260   7.601 -0.0172  0.4533  1.8369
  323MOL0     H43541   2.083  -0.345   7.510  0.8899  1.0398  0.7949
  323MOL0     H43542   1.894  -0.441   7.722 -1.1324  0.7427 -0.7625
  323MOL0     H43543   2.039  -0.526   7.679 -0.0281  0.4305  1.7038
  323MOL0     H43544   1.962  -0.523   7.425  1.1950 -0.7952  0.7319
  323MOL0     H43545   1.809  -0.451   7.477 -2.6839 -2.6849  1.2189
  323MOL0     H43546   1.880  -0.693   7.639  0.5349 -0.5567 -0.3077
  323MOL0     H43547   1.731  -0.619   7.586  0.1037  1.6398 -0.3440
  323MOL0     H43548   1.777  -0.704   7.351  0.2114 -2.9415 -1.1849
  323MOL0     H43549   1.917  -0.777   7.406  0.2872  3.0995 -3.0973
  323MOL0     H43550   1.787  -0.957   7.526  0.1071 -1.5523 -1.6340
  323MOL0     H43551   1.651  -0.855   7.569  2.1233 -3.4605  2.7001
  323MOL0     H43552   1.586  -0.851   7.328 -3.7129 -0.7188  0.4994
  323MOL0     H43553   1.551  -0.988   7.419  1.1312 -0.7914 -0.4292
  323MOL0     H43554   1.637  -1.027   7.193  0.8473  0.4735  0.3516
  323MOL0     H43555   1.797  -0.959   7.227  0.2366  1.0304  0.1209
  323MOL0     H43556   1.635  -1.299   7.225 -2.7208  1.8278  1.6823
  323MOL0     H43557   1.676  -1.539   7.308  0.4678 -2.3841  0.1882
  323MOL0     H43558   1.848  -1.551   7.270 -1.7849  1.4791 -3.2401
  323MOL0     H43559   1.812  -1.702   7.440 -3.7123 -0.0455 -1.0550
  323MOL0     H43560   1.888  -1.561   7.520 -0.8336 -4.1465  3.4238
  323MOL0     H43561   1.586  -1.634   7.515  1.7083 -0.1482 -4.8043
  323MOL0     H43562   1.642  -1.487   7.577 -1.7519 -0.7351  3.3976
  323MOL0     H43563   1.597  -1.707   7.729 -0.5913  1.4619  0.8144
  323MOL0     H43564   1.741  -1.610   7.764 -0.4051  3.6237 -2.9278
  323MOL0     H43565   1.815  -2.042   7.619  2.9923  2.9851  0.0581
  323MOL0     H43566   1.825  -2.220   7.748  1.1175  0.6020  0.6423
  323MOL0     H43567   1.729  -2.578   7.866  1.4981  2.1850  0.5824
  323MOL0     H43568   1.720  -2.805   7.979 -1.9222 -1.3145  3.3197
  323MOL0     H43569   1.696  -2.979   8.151 -0.7801  0.8234  0.4799
  323MOL0     H43570   1.850  -2.982   8.074 -3.7679  1.3643 -1.8163
  323MOL0     H43571   1.868  -3.165   8.214 -0.7889 -0.1719 -0.0769
  323MOL0     H43572   1.971  -3.061   8.285 -0.0162 -2.2751  1.1682
  323MOL0     H43573   1.859  -3.163   8.465  2.0270 -1.0576 -2.0474
  323MOL0     H43574   1.761  -3.002   8.446 -3.8227  0.3335 -2.2811
  323MOL0     H43575   1.672  -3.283   8.366 -2.1791 -2.1974  1.7006
  323MOL0     H43576   1.605  -3.136   8.299  2.0081  0.1136 -1.6668
  323MOL0     H43577   1.554  -3.068   8.557 -0.0045 -0.5748 -1.6764
  323MOL0     H43578   1.590  -3.239   8.592 -1.8961 -0.8250 -0.1214
  323MOL0     H43579   1.386  -3.137   8.382 -0.8323 -0.3795 -0.3949
  323MOL0     H43580   1.417  -3.302   8.432  2.8995  0.2320 -0.5130
  323MOL0     H43581   1.213  -3.147   8.524 -0.5141  0.4937 -0.8454
  323MOL0     H43582   1.333  -3.062   8.607  0.8214  0.0391 -0.0105
  323MOL0     H43583   1.188  -3.225   8.722 -3.1254 -2.7469 -1.9762
  323MOL0     H43584   1.255  -3.359   8.640  0.0869 -0.1739  1.4675
  323MOL0     H43585   1.907  -2.619   8.323  0.6797  1.0195 -0.7010
  323MOL0     H43586   1.893  -2.384   8.202 -2.5405  0.5854 -0.7172
  323MOL0     H43587   1.752  -1.976   8.103 -1.0073 -2.9534  0.4601
  323MOL0     H43588   1.714  -1.780   7.957  0.4663 -0.6654  0.8867
  323MOL0     H43589   2.082  -0.078   7.530  2.2577  1.3363 -1.5726
  323MOL0     H43590   2.073   0.157   7.604 -0.0801 -0.2390 -1.1730
  323MOL0     H43591   2.113   0.418   8.048  2.9427  2.0762  3.3647
  323MOL0     H43592   2.207   0.643   8.138  1.7189 -0.8243 -1.4053
  323MOL0     H43593   2.148   1.066   8.078  1.8594  1.8321 -1.7280
  323MOL0     H43594   2.051   0.976   7.962 -0.0705 -4.4373  1.7893
  323MOL0     H43595   2.211   1.171   7.882 -2.3220 -0.2358 -0.0810
  323MOL0     H43596   2.245   1.022   7.799 -0.2172  0.2329 -0.3280
  323MOL0     H43597   2.465   1.096   7.862  0.2453 -1.4277 -0.2389
  323MOL0     H43598   2.427   0.958   7.948 -0.9498 -1.2990 -0.2292
  323MOL0     H43599   2.402   1.243   8.045 -0.5571  0.5093  1.9706
  323MOL0     H43600   2.368   1.103   8.157 -0.9541 -3.8887 -2.4487
  323MOL0     H43601   2.786   1.172   8.165 -0.0507 -1.5185  0.5470
  323MOL0     H43602   2.099   0.824   7.768  1.6328  1.2330  1.5548
  323MOL0     H43603   2.005   0.721   7.599 -2.7872 -1.4478 -2.8533
  323MOL0     H43604   2.077   0.576   7.574  0.3734  1.6026 -2.0795
  323MOL0     H43605   1.903   0.592   7.629  0.3847  0.1889 -5.2784
  324MOL0     O43606   5.360   5.035   6.535 -0.1377  0.1806  0.0790
  324MOL0     C43607   5.387   5.094   6.640 -0.2164 -0.1281 -0.0075
  324MOL0     O43608   5.300   5.148   6.734 -0.0281 -0.2485  0.2456
  324MOL0     C43609   5.168   5.131   6.731  0.1687 -0.0978  1.0901
  324MOL0     C43610   5.107   5.025   6.659  0.1405  0.2140 -0.1465
  324MOL0     C43611   4.965   5.014   6.669 -0.2936 -0.2709 -0.5646
  324MOL0     C43612   4.896   5.110   6.728  0.4420  0.0054  0.1396
  324MOL0     O43613   4.759   5.110   6.719  0.0577 -0.0623 -0.4621
  324MOL0     C43614   4.691   4.985   6.721 -0.6736  0.3021 -0.4058
  324MOL0     C43615   4.550   4.999   6.730 -0.0920 -0.0310 -0.7304
  324MOL0     C43616   4.482   4.869   6.778  1.0567  0.5166  0.5010
  324MOL0     C43617   4.336   4.908   6.804 -0.5567  1.1216 -0.7357
  324MOL0     C43618   4.269   4.803   6.895  0.1691 -1.3808  0.4388
  324MOL0     C43619   4.245   4.665   6.822  0.4718 -1.0656 -0.4752
  324MOL0     C43620   4.158   4.570   6.904  0.0015  0.5364 -0.8218
  324MOL0     C43621   4.148   4.452   6.803  0.6913 -0.4938 -0.2326
  324MOL0     N43622   4.073   4.356   6.889 -0.4222  0.1289 -0.3023
  324MOL0     C43623   3.940   4.323   6.872 -0.1862  0.2561  0.3959
  324MOL0     C43624   3.902   4.242   6.977 -0.2003  0.0038  0.3877
  324MOL0     C43625   3.780   4.167   7.000 -0.1553  0.0631 -0.5756
  324MOL0     C43626   3.709   4.131   6.869 -0.1155 -0.2995  0.6086
  324MOL0     C43627   3.623   4.008   6.881 -0.1597  0.0223 -0.4470
  324MOL0     C43628   3.542   3.974   6.759  0.1570  0.2374  0.5538
  324MOL0     O43629   3.633   3.922   6.655 -0.3975 -0.1751  0.1087
  324MOL0     C43630   3.594   3.820   6.569 -0.2900 -0.5887  1.3745
  324MOL0     C43631   3.462   3.770   6.557  0.5888  0.6387  0.3574
  324MOL0     C43632   3.421   3.668   6.479  0.5307 -0.1564  0.0113
  324MOL0     C43633   3.522   3.608   6.398 -0.1382  0.1401 -0.2255
  324MOL0     C43634   3.487   3.480   6.329 -0.2135 -0.5225 -0.0569
  324MOL0     O43635   3.578   3.416   6.258  0.2486 -0.3460  0.4339
  324MOL0     C43636   3.535   3.309   6.179  0.0534 -0.5081 -0.1979
  324MOL0     C43637   3.558   3.177   6.231 -0.0433 -0.5884 -0.4740
  324MOL0     C43638   3.498   3.069   6.175 -0.5415  0.2250  0.3502
  324MOL0     C43639   3.421   3.085   6.050 -0.5140 -0.5480 -0.5019
  324MOL0     O43640   3.350   2.986   5.993 -0.2418  0.2879  0.7535
  324MOL0     C43641   3.314   2.877   6.071 -0.9949  0.2784 -0.6212
  324MOL0     C43642   3.205   2.816   5.993 -0.7495  0.2869 -0.4374
  324MOL0     C43643   3.261   2.740   5.875 -0.2145 -0.1830  0.6000
  324MOL0     C43644   3.150   2.677   5.778 -0.6291 -0.4721 -0.4155
  324MOL0     C43645   3.219   2.609   5.659 -0.1668 -0.2487  0.5201
  324MOL0     C43646   3.280   2.719   5.566 -0.3380  0.5353  0.0778
  324MOL0     C43647   3.196   2.837   5.539  0.5993 -0.5245 -0.9237
  324MOL0     C43648   3.258   2.923   5.420  0.6472  0.3525 -0.3512
  324MOL0    Cl43649   3.179   3.087   5.432  0.0883  0.1692 -0.1487
  324MOL0     C43650   3.407   3.216   5.996 -0.0418 -0.0513  0.1696
  324MOL0     C43651   3.456   3.329   6.061 -0.1314  0.5868 -0.5276
  324MOL0     O43652   3.374   3.445   6.333  0.2015 -0.1206  0.5752
  324MOL0     C43653   3.653   3.654   6.403 -0.5686  0.2399 -0.2580
  324MOL0     C43654   3.691   3.755   6.489  0.0735  0.3666 -0.6009
  324MOL0     N43655   4.014   4.224   7.056 -0.1887  0.3016 -0.4685
  324MOL0     N43656   4.115   4.288   7.002 -1.4231 -0.4902 -1.1185
  324MOL0     C43657   4.952   5.212   6.797  0.0378  0.1883 -0.4476
  324MOL0     C43658   5.089   5.221   6.806 -0.1148  0.2205  1.4684
  324MOL0     C43659   5.530   5.143   6.656  0.0478  0.0564 -0.4047
  324MOL0     C43660   5.564   5.269   6.599 -0.5328  0.1296  0.3129
  324MOL0     C43661   5.697   5.313   6.607 -0.9031  0.7790  0.2759
  324MOL0     C43662   5.795   5.233   6.669 -0.5723 -0.1146  0.3745
  324MOL0     O43663   5.926   5.272   6.666 -0.0344 -0.0601  0.1572
  324MOL0     C43664   6.017   5.185   6.607 -0.6359  0.0076 -0.4087
  324MOL0     C43665   6.074   5.241   6.478  0.4767  0.2922  0.2640
  324MOL0     C43666   6.115   5.383   6.492 -1.1852 -0.5191 -0.5033
  324MOL0     C43667   6.224   5.427   6.400 -0.4666 -0.2399 -0.2431
  324MOL0     C43668   6.362   5.398   6.449  0.0702  0.3759  0.4017
  324MOL0     C43669   6.480   5.360   6.462 -0.9412  0.1946  0.1062
  324MOL0     C43670   5.751   5.113   6.723  0.4321  0.0384  0.2792
  324MOL0     C43671   5.623   5.067   6.723  0.8187 -0.3666 -0.4944
  324MOL0     C43672   5.594   4.933   6.768  0.8176  0.6778  0.3516
  324MOL0     H43673   5.139   4.942   6.596 -1.5445  1.9868 -3.6090
  324MOL0     H43674   4.918   4.923   6.633 -0.6531 -0.1042 -0.5179
  324MOL0     H43675   4.707   4.920   6.634  0.4543  1.5897 -1.1971
  324MOL0     H43676   4.715   4.932   6.814 -0.2254  2.1234  0.5455
  324MOL0     H43677   4.510   5.038   6.637  2.4814  1.1513 -1.4374
  324MOL0     H43678   4.522   5.077   6.802 -2.5641 -1.9300  0.5190
  324MOL0     H43679   4.540   4.839   6.866 -0.6575 -1.2431  1.0862
  324MOL0     H43680   4.492   4.793   6.700 -0.6834  2.4052 -1.7004
  324MOL0     H43681   4.343   5.008   6.848  0.6644 -0.6056  3.5850
  324MOL0     H43682   4.276   4.909   6.712 -1.5738 -0.5021 -0.1422
  324MOL0     H43683   4.324   4.803   6.989  1.5105  5.5415  0.1629
  324MOL0     H43684   4.176   4.851   6.926 -0.2225 -1.5329 -0.4481
  324MOL0     H43685   4.192   4.684   6.728 -2.2536 -2.8519  0.5858
  324MOL0     H43686   4.350   4.634   6.816  2.1907  3.0707  2.7302
  324MOL0     H43687   4.067   4.616   6.942  2.5765  3.5319  2.4403
  324MOL0     H43688   4.218   4.540   6.991 -1.0488 -3.2598 -1.2387
  324MOL0     H43689   4.093   4.484   6.714  1.4983  0.8326 -0.2849
  324MOL0     H43690   4.252   4.424   6.780  1.5965  1.6454  0.9369
  324MOL0     H43691   3.867   4.355   6.799 -1.9280 -0.8976  1.5531
  324MOL0     H43692   3.798   4.071   7.049  0.8222  0.0346 -0.9662
  324MOL0     H43693   3.718   4.222   7.071 -0.8559  1.7024 -2.3792
  324MOL0     H43694   3.642   4.214   6.847  0.5291 -0.1545 -0.9414
  324MOL0     H43695   3.780   4.116   6.787 -0.4365 -2.1872  0.6126
  324MOL0     H43696   3.549   4.030   6.958 -1.2448 -1.7207 -0.9326
  324MOL0     H43697   3.682   3.921   6.913  0.1350  0.9282  1.6200
  324MOL0     H43698   3.478   4.060   6.735  0.0989  0.6316  2.0106
  324MOL0     H43699   3.474   3.894   6.791  0.2215 -0.0986 -0.1388
  324MOL0     H43700   3.388   3.807   6.627 -1.3939  3.2057 -2.8034
  324MOL0     H43701   3.319   3.634   6.468  1.4535 -3.6207  0.8584
  324MOL0     H43702   3.595   3.173   6.333  1.2272  2.3821 -0.7001
  324MOL0     H43703   3.500   2.980   6.237 -1.5762 -0.7125 -0.9002
  324MOL0     H43704   3.392   2.802   6.085 -0.9149  0.1716 -1.5633
  324MOL0     H43705   3.287   2.904   6.174  0.6594  0.2652 -0.1607
  324MOL0     H43706   3.143   2.751   6.055 -0.0109  2.0880  2.3832
  324MOL0     H43707   3.138   2.898   5.965  2.5929  3.7583  0.9042
  324MOL0     H43708   3.334   2.802   5.822  1.6329 -1.9848  0.8907
  324MOL0     H43709   3.324   2.659   5.916 -0.2082 -0.6820 -0.3707
  324MOL0     H43710   3.080   2.754   5.746 -2.9465 -2.4074 -0.3053
  324MOL0     H43711   3.094   2.597   5.827  3.3434 -3.1234  0.3218
  324MOL0     H43712   3.141   2.562   5.598  1.4891 -0.8405 -1.2231
  324MOL0     H43713   3.297   2.546   5.702 -2.2319 -0.4725  4.3726
  324MOL0     H43714   3.374   2.757   5.607  1.1868  1.2171 -3.6228
  324MOL0     H43715   3.298   2.659   5.476 -2.9651  0.4663 -0.4953
  324MOL0     H43716   3.186   2.910   5.620 -1.9922 -0.8353 -0.8792
  324MOL0     H43717   3.089   2.816   5.527  0.1888  0.9686 -0.0666
  324MOL0     H43718   3.367   2.925   5.416  0.6308  0.2058 -1.0869
  324MOL0     H43719   3.226   2.884   5.323  1.8683  0.7916 -0.9480
  324MOL0     H43720   3.360   3.230   5.899  4.1418  4.1015 -1.6014
  324MOL0     H43721   3.432   3.430   6.030 -3.2652  0.5080  1.2063
  324MOL0     H43722   3.729   3.605   6.344 -1.1085  1.5282 -2.1119
  324MOL0     H43723   3.796   3.781   6.493  0.9154 -2.7227  1.7193
  324MOL0     H43724   4.887   5.285   6.845  0.0382 -0.4056  0.4889
  324MOL0     H43725   5.144   5.297   6.860  1.1478 -0.7952  1.6652
  324MOL0     H43726   5.500   5.341   6.550 -0.3259  0.1938  0.1322
  324MOL0     H43727   5.729   5.407   6.563 -2.5837  0.5123 -1.6566
  324MOL0     H43728   5.976   5.086   6.586 -2.9541  1.1550 -1.8105
  324MOL0     H43729   6.103   5.170   6.673 -0.1471  0.2334 -0.9828
  324MOL0     H43730   5.993   5.227   6.406 -0.2016 -1.1226  1.2555
  324MOL0     H43731   6.164   5.186   6.450  0.2270  1.1518 -2.4832
  324MOL0     H43732   6.131   5.413   6.596  4.6442 -1.9194 -0.6528
  324MOL0     H43733   6.038   5.454   6.458  0.8707  2.2486  0.2227
  324MOL0     H43734   6.212   5.383   6.300 -0.1515 -2.4362  0.6265
  324MOL0     H43735   6.220   5.534   6.381  0.9436 -0.3754 -1.5463
  324MOL0     H43736   6.581   5.329   6.479 -0.7891  0.8620  0.4728
  324MOL0     H43737   5.824   5.060   6.784  1.6413  2.1449  0.7567
  324MOL0     H43738   5.646   4.917   6.863  4.3592 -0.7532 -1.6258
  324MOL0     H43739   5.489   4.916   6.795  0.4198  0.6236 -1.1293
  324MOL0     H43740   5.637   4.865   6.694  1.8813  2.5242 -0.8013
  325MOL0     O43741   1.490   4.129   6.893 -0.5306 -0.9660 -0.3409
  325MOL0     C43742   1.473   4.026   6.845  0.3258 -0.4735  1.3828
  325MOL0     O43743   1.348   3.975   6.814 -0.8093  0.0942 -0.3764
  325MOL0     C43744   1.237   4.030   6.858  0.0108 -0.0777  0.2973
  325MOL0     C43745   1.207   4.162   6.822 -0.1110 -0.4027 -0.0266
  325MOL0     C43746   1.108   4.232   6.888 -0.3061  0.0221 -0.2405
  325MOL0     C43747   1.024   4.163   6.978  0.5862  0.5292  0.3191
  325MOL0     O43748   0.910   4.218   7.039 -0.0673 -0.0280  0.5685
  325MOL0     C43749   0.797   4.264   6.948  0.6311 -0.3605  0.3786
  325MOL0     C43750   0.682   4.305   7.040  0.2544 -0.4505  0.3191
  325MOL0     C43751   0.579   4.390   6.961  0.0208  0.7058  0.3599
  325MOL0     C43752   0.439   4.407   7.026  0.4817  0.5995 -0.9784
  325MOL0     C43753   0.437   4.544   7.094 -0.2559 -0.2513 -0.3351
  325MOL0     C43754   0.291   4.563   7.149 -0.9709  0.5587  0.5436
  325MOL0     C43755   0.272   4.702   7.207  0.7536  0.1838 -0.4974
  325MOL0     C43756   0.180   4.702   7.326 -0.0864 -0.2267 -0.2646
  325MOL0     N43757   0.040   4.715   7.286  0.0009  0.0319  0.8944
  325MOL0     C43758  -0.021   4.827   7.249  0.9628  0.4872  0.4498
  325MOL0     C43759  -0.149   4.783   7.218  0.8715  0.3979  0.5836
  325MOL0     C43760  -0.255   4.872   7.170 -0.3597  0.8358  0.2551
  325MOL0     C43761  -0.321   4.808   7.043 -1.1670 -0.7667  0.8531
  325MOL0     C43762  -0.448   4.890   6.997 -0.8367 -0.1219 -0.4682
  325MOL0     C43763  -0.483   4.863   6.852  0.6960 -0.0122 -0.4350
  325MOL0     O43764  -0.602   4.933   6.812 -0.1130 -0.1032 -0.1467
  325MOL0     C43765  -0.654   4.912   6.690 -0.8139 -0.7383 -0.7495
  325MOL0     C43766  -0.589   4.841   6.587 -0.9281 -0.3514  0.8867
  325MOL0     C43767  -0.641   4.834   6.453 -0.2036 -0.2869  0.1123
  325MOL0     C43768  -0.767   4.882   6.421 -0.6999 -1.2897  0.0862
  325MOL0     C43769  -0.832   4.866   6.285 -1.4446 -0.4871  0.6395
  325MOL0     O43770  -0.960   4.914   6.281 -0.4880 -0.5443  0.3659
  325MOL0     C43771  -1.021   4.907   6.163  0.2099  0.1704  0.0099
  325MOL0     C43772  -1.089   4.790   6.130  0.2527  0.2827 -0.3326
  325MOL0     C43773  -1.166   4.788   6.016  0.1076 -0.1889  0.2591
  325MOL0     C43774  -1.151   4.894   5.912 -0.5927 -0.0384  0.1862
  325MOL0     O43775  -1.227   4.896   5.800 -0.3493 -0.0709 -0.3513
  325MOL0     C43776  -1.160   4.835   5.688 -0.6535 -0.1313  0.1849
  325MOL0     C43777  -1.162   4.681   5.685  0.8903  0.6628  0.5241
  325MOL0     C43778  -1.155   4.616   5.541  0.2734  0.0619  0.1742
  325MOL0     C43779  -1.079   4.482   5.535 -0.3915 -0.2622  0.0096
  325MOL0     C43780  -0.932   4.498   5.487 -0.5838  0.0378  0.3128
  325MOL0     C43781  -0.882   4.355   5.445 -0.6820 -0.0680  0.2331
  325MOL0     C43782  -0.943   4.317   5.302  0.5763 -0.1463  0.0743
  325MOL0     C43783  -0.833   4.274   5.218  0.1726  0.0750  0.1259
  325MOL0    Cl43784  -0.765   4.130   5.285 -0.2818 -0.5565 -0.0589
  325MOL0     C43785  -1.079   5.010   5.956  0.0802 -0.3446  0.3853
  325MOL0     C43786  -1.016   5.017   6.081  0.0353  0.4328  0.1972
  325MOL0     O43787  -0.772   4.791   6.197  0.6221 -0.3450 -0.4096
  325MOL0     C43788  -0.828   4.951   6.528  0.8269 -0.2372  0.7306
  325MOL0     C43789  -0.781   4.977   6.657 -0.7420 -0.5133 -0.5490
  325MOL0     N43790  -0.165   4.651   7.253  0.3677 -0.4768  0.3563
  325MOL0     N43791  -0.047   4.606   7.290  0.4726  0.0051 -0.2077
  325MOL0     C43792   1.052   4.033   7.011 -0.0591 -1.1533 -0.1647
  325MOL0     C43793   1.159   3.969   6.948  1.1201  0.1372  0.6188
  325MOL0     C43794   1.592   3.955   6.785  0.7662 -0.1436 -0.4166
  325MOL0     C43795   1.566   3.867   6.678  0.0783 -0.2649  1.0775
  325MOL0     C43796   1.664   3.798   6.608  0.0483  0.9613 -0.3583
  325MOL0     C43797   1.790   3.802   6.659 -0.4937  0.1865 -0.4477
  325MOL0     O43798   1.901   3.750   6.595 -0.1958 -0.5503 -0.0059
  325MOL0     C43799   1.891   3.645   6.502 -0.2730  0.3038 -0.0992
  325MOL0     C43800   2.016   3.564   6.499  1.1726 -0.2702 -0.8247
  325MOL0     C43801   2.012   3.470   6.378 -0.2287 -0.9512 -0.2368
  325MOL0     C43802   2.115   3.352   6.367 -0.5608  0.2515  0.3393
  325MOL0     C43803   2.248   3.406   6.347  0.6879  0.6377  0.1028
  325MOL0     C43804   2.359   3.441   6.326 -0.3030  0.2139  0.4462
  325MOL0     C43805   1.818   3.890   6.765  0.0132  0.3365  0.1308
  325MOL0     C43806   1.724   3.970   6.830  0.2660  0.0472  0.7421
  325MOL0     C43807   1.762   4.046   6.954 -0.4875 -0.2200 -0.3123
  325MOL0     H43808   1.272   4.218   6.755  0.8785 -0.0545  1.1873
  325MOL0     H43809   1.093   4.332   6.849 -0.8165  0.1304  0.2104
  325MOL0     H43810   0.834   4.343   6.883 -1.8403 -0.9041 -1.8792
  325MOL0     H43811   0.771   4.186   6.876  2.7886  1.0606 -2.1071
  325MOL0     H43812   0.715   4.379   7.114 -1.4570  2.6403 -1.7606
  325MOL0     H43813   0.633   4.219   7.087 -0.9389 -0.5154 -0.9663
  325MOL0     H43814   0.572   4.339   6.864  2.3015  0.1292  0.4534
  325MOL0     H43815   0.627   4.487   6.948  1.4261 -0.1698 -1.5043
  325MOL0     H43816   0.353   4.395   6.960 -0.4821  0.3550  0.2844
  325MOL0     H43817   0.430   4.334   7.107 -1.2112  2.5347  0.6845
  325MOL0     H43818   0.518   4.553   7.167  0.9249 -0.9603 -1.5039
  325MOL0     H43819   0.450   4.611   7.009 -1.5130  1.2968  0.6374
  325MOL0     H43820   0.224   4.557   7.062  2.7047 -1.0181 -2.4590
  325MOL0     H43821   0.255   4.482   7.213  1.7234 -2.4293 -1.4181
  325MOL0     H43822   0.230   4.768   7.131  0.2966  0.1724 -0.2562
  325MOL0     H43823   0.370   4.743   7.236 -0.1073  3.0084 -1.2607
  325MOL0     H43824   0.166   4.609   7.383 -2.0651 -0.8242 -1.5976
  325MOL0     H43825   0.213   4.777   7.399 -0.0419 -2.9517  2.7577
  325MOL0     H43826   0.020   4.921   7.216 -1.2971  0.4027 -3.1470
  325MOL0     H43827  -0.334   4.879   7.245  2.3632 -0.2031  3.4473
  325MOL0     H43828  -0.210   4.968   7.145  0.1621  0.7967  1.0399
  325MOL0     H43829  -0.256   4.807   6.955 -1.5848 -3.4916  0.5158
  325MOL0     H43830  -0.348   4.703   7.058  3.6939 -2.5528 -0.9330
  325MOL0     H43831  -0.417   4.994   7.000 -2.8671  0.5016  0.7962
  325MOL0     H43832  -0.536   4.866   7.057 -0.5944 -2.1808 -0.8581
  325MOL0     H43833  -0.494   4.756   6.839  2.1723 -0.1285 -0.9485
  325MOL0     H43834  -0.391   4.885   6.796 -1.4976 -0.6717 -4.6194
  325MOL0     H43835  -0.487   4.811   6.607  0.6993  3.9559  0.3060
  325MOL0     H43836  -0.571   4.791   6.382  1.3460  0.6760  1.0200
  325MOL0     H43837  -1.102   4.710   6.201 -0.5466  1.9607  1.5182
  325MOL0     H43838  -1.224   4.707   5.972  1.9048  0.0350 -2.8654
  325MOL0     H43839  -1.211   4.890   5.609  2.1709  0.3642 -1.4215
  325MOL0     H43840  -1.053   4.856   5.679 -0.1277 -2.6344 -0.0993
  325MOL0     H43841  -1.086   4.645   5.755 -0.9249  1.7981  3.2417
  325MOL0     H43842  -1.255   4.656   5.736  0.7022  0.0581 -0.1089
  325MOL0     H43843  -1.249   4.603   5.487  1.8634 -0.4607 -2.6717
  325MOL0     H43844  -1.095   4.687   5.483  1.0127 -2.0538 -1.8199
  325MOL0     H43845  -1.144   4.417   5.476 -0.2384 -2.3139  1.9737
  325MOL0     H43846  -1.076   4.434   5.633 -1.8274 -1.1294 -0.3452
  325MOL0     H43847  -0.866   4.549   5.557  0.2070 -0.7961  0.1954
  325MOL0     H43848  -0.942   4.567   5.403 -0.6924  3.5329  2.9650
  325MOL0     H43849  -0.773   4.343   5.446 -0.5110  1.2244  2.0678
  325MOL0     H43850  -0.907   4.280   5.521  3.5765 -2.7622 -0.6739
  325MOL0     H43851  -0.986   4.399   5.243 -1.3642 -2.1973 -1.5257
  325MOL0     H43852  -1.017   4.237   5.304  0.8565 -0.4692 -1.4106
  325MOL0     H43853  -0.867   4.251   5.116  2.4696 -3.1649 -0.0421
  325MOL0     H43854  -0.748   4.343   5.221 -0.9823  1.5608 -0.2118
  325MOL0     H43855  -1.073   5.096   5.890 -2.3310 -0.4127 -0.0359
  325MOL0     H43856  -0.973   5.104   6.130  1.2882 -0.1392  0.1692
  325MOL0     H43857  -0.926   4.992   6.507  0.8238 -0.5162  0.1872
  325MOL0     H43858  -0.831   5.039   6.731 -0.5484 -2.4762  1.3301
  325MOL0     H43859   0.993   3.983   7.087  2.3587 -2.4638  0.9622
  325MOL0     H43860   1.172   3.861   6.953  1.3822  0.0990 -0.5719
  325MOL0     H43861   1.460   3.849   6.662 -0.1143 -2.2857  4.0412
  325MOL0     H43862   1.637   3.741   6.520  1.3395 -1.3713  0.6770
  325MOL0     H43863   1.866   3.688   6.404  0.6171 -0.3729 -0.6408
  325MOL0     H43864   1.805   3.578   6.515 -0.1877  0.1566 -0.2872
  325MOL0     H43865   2.041   3.505   6.588  5.7431  1.7473 -0.4687
  325MOL0     H43866   2.100   3.633   6.487  2.0969 -1.4595 -1.3951
  325MOL0     H43867   2.008   3.526   6.284 -2.3657 -0.5944  0.0139
  325MOL0     H43868   1.911   3.427   6.386 -1.9972  2.7820 -0.3857
  325MOL0     H43869   2.111   3.288   6.456 -2.9338  3.0409  2.4588
  325MOL0     H43870   2.091   3.286   6.283  1.5629  0.6642 -0.6595
  325MOL0     H43871   2.461   3.465   6.307  0.0533 -0.0090  1.9492
  325MOL0     H43872   1.924   3.902   6.788  0.1879 -3.2277  2.0282
  325MOL0     H43873   1.863   4.016   6.984 -0.8122 -0.7958  0.2365
  325MOL0     H43874   1.752   4.152   6.927 -2.9966  0.0730  1.4475
  325MOL0     H43875   1.702   4.019   7.042 -0.3426 -1.4602 -0.5776
  326MOL0     O43876   4.631   4.911   6.331  0.6490  1.5540 -0.3892
  326MOL0     C43877   4.573   4.945   6.228  0.3252 -0.2257  0.9110
  326MOL0     O43878   4.639   4.970   6.116  0.7457 -0.3859 -0.3888
  326MOL0     C43879   4.780   4.950   6.112  0.3131 -0.0187  0.2604
  326MOL0     C43880   4.867   5.012   6.197  0.0552  0.2209  0.1703
  326MOL0     C43881   5.004   4.987   6.185  0.4654 -0.0671 -0.0374
  326MOL0     C43882   5.055   4.894   6.093 -0.4957  0.6701 -0.0842
  326MOL0     O43883   5.193   4.876   6.079  0.0697 -0.3432  0.2944
  326MOL0     C43884   5.277   4.881   6.199 -0.4942 -0.3042  0.2306
  326MOL0     C43885   5.402   4.797   6.191 -0.2335  0.0270 -0.1059
  326MOL0     C43886   5.374   4.649   6.179  0.0320  0.7407  0.0432
  326MOL0     C43887   5.296   4.567   6.288  0.0528  0.4815 -0.0348
  326MOL0     C43888   5.267   4.418   6.248  0.3697  0.3951 -0.1373
  326MOL0     C43889   5.173   4.412   6.129  0.6749  0.4310  0.4224
  326MOL0     C43890   5.121   4.271   6.108 -0.5211  0.2010  0.6638
  326MOL0     C43891   5.022   4.272   5.993  0.3250 -0.0726 -0.2463
  326MOL0     N43892   4.897   4.349   6.025 -0.4101 -0.5116 -0.6275
  326MOL0     C43893   4.836   4.347   6.154  0.2793  0.2023  0.1052
  326MOL0     C43894   4.731   4.436   6.144  0.6330  0.5360  0.0302
  326MOL0     C43895   4.616   4.453   6.236 -0.5012  0.0357 -0.3202
  326MOL0     C43896   4.659   4.483   6.385  0.0565  0.2462 -0.3052
  326MOL0     C43897   4.745   4.612   6.411 -0.2213  0.7453 -0.2730
  326MOL0     C43898   4.772   4.638   6.565 -0.6143 -0.5376  0.7906
  326MOL0     O43899   4.859   4.534   6.621  0.4490  0.6122  0.5721
  326MOL0     C43900   4.998   4.518   6.611 -0.0015 -0.6273  0.6156
  326MOL0     C43901   5.048   4.385   6.596  0.8040 -0.7843  1.0499
  326MOL0     C43902   5.189   4.365   6.605  0.1348  0.2666  0.1035
  326MOL0     C43903   5.286   4.473   6.614 -0.0333  0.6502 -0.5762
  326MOL0     C43904   5.432   4.440   6.615 -0.4680  0.7318 -0.7537
  326MOL0     O43905   5.461   4.316   6.655  0.3635  0.4260  0.1225
  326MOL0     C43906   5.585   4.261   6.617  0.1077  0.1837 -0.2180
  326MOL0     C43907   5.639   4.154   6.700  0.3202 -0.1978  0.2937
  326MOL0     C43908   5.768   4.122   6.682  0.0932  0.9840  0.2317
  326MOL0     C43909   5.845   4.168   6.570 -0.1956 -0.1114 -0.8464
  326MOL0     O43910   5.965   4.102   6.543  0.6355 -0.5558  0.3298
  326MOL0     C43911   6.072   4.162   6.469 -0.9365  0.2815 -0.3420
  326MOL0     C43912   6.151   4.043   6.414  0.2831  0.3984 -0.4660
  326MOL0     C43913   6.203   3.940   6.515  0.4003 -0.4889  0.4416
  326MOL0     C43914   6.268   3.814   6.450 -0.2308 -0.5659  0.0950
  326MOL0     C43915   6.180   3.698   6.448  0.2213  0.5651  0.3617
  326MOL0     C43916   6.231   3.567   6.377  0.4649  0.4673  0.9359
  326MOL0     C43917   6.197   3.578   6.227  0.1779 -0.6252 -0.0912
  326MOL0     C43918   6.283   3.467   6.157  0.6169  0.2853 -0.5819
  326MOL0    Cl43919   6.247   3.449   5.988  0.5804  0.0624  0.0910
  326MOL0     C43920   5.784   4.247   6.475  0.5496  0.0563  0.3470
  326MOL0     C43921   5.657   4.296   6.504 -0.1221  0.0414 -0.1602
  326MOL0     O43922   5.512   4.533   6.604  0.9399  0.3710 -0.9471
  326MOL0     C43923   5.237   4.604   6.628 -0.2744  0.5141  0.8132
  326MOL0     C43924   5.094   4.622   6.624 -0.2860 -0.2218 -1.1973
  326MOL0     N43925   4.747   4.491   6.022 -0.1265  0.4266  0.2051
  326MOL0     N43926   4.846   4.445   5.948 -0.2638 -0.3545  0.0094
  326MOL0     C43927   4.972   4.843   5.993  0.2477 -0.6876  0.5197
  326MOL0     C43928   4.833   4.870   6.005  0.3209 -0.2864 -0.5634
  326MOL0     C43929   4.425   4.969   6.227  0.6243 -0.0574 -0.5976
  326MOL0     C43930   4.369   5.073   6.157  0.7802 -0.2778 -0.2835
  326MOL0     C43931   4.233   5.099   6.149 -0.3232 -0.2994 -0.8609
  326MOL0     C43932   4.148   5.018   6.233 -0.9240 -1.2415 -0.6349
  326MOL0     O43933   4.021   5.063   6.262 -0.3106 -0.6798 -0.5791
  326MOL0     C43934   3.935   5.102   6.163  0.2351 -1.2575  0.5153
  326MOL0     C43935   3.895   5.246   6.169 -0.0963  0.1658  1.1135
  326MOL0     C43936   3.859   5.287   6.311  0.3892 -0.3558 -0.6949
  326MOL0     C43937   3.748   5.386   6.297  0.6488 -0.3910 -0.1790
  326MOL0     C43938   3.774   5.528   6.262  0.3391  0.1149  1.2721
  326MOL0     C43939   3.808   5.644   6.240 -0.4339 -0.1190 -0.4395
  326MOL0     C43940   4.202   4.928   6.324  0.1150 -0.3393  0.9705
  326MOL0     C43941   4.335   4.888   6.310 -0.4405 -0.0255 -1.1505
  326MOL0     C43942   4.388   4.777   6.405 -1.1216 -0.7330 -0.1314
  326MOL0     H43943   4.848   5.085   6.275 -1.0529  0.0784  0.0424
  326MOL0     H43944   5.069   5.042   6.251 -0.2280  1.8487 -0.8639
  326MOL0     H43945   5.302   4.982   6.235  0.1552 -0.4138  0.0862
  326MOL0     H43946   5.228   4.830   6.282 -1.5080  0.9482  0.4450
  326MOL0     H43947   5.469   4.820   6.275  0.4016  2.5764 -1.2091
  326MOL0     H43948   5.461   4.833   6.107 -0.4933  1.7609  0.4252
  326MOL0     H43949   5.472   4.602   6.171 -0.4535 -0.7404  2.1258
  326MOL0     H43950   5.316   4.630   6.088  0.4759 -2.4476  0.3224
  326MOL0     H43951   5.351   4.584   6.381 -0.7869 -0.9226  0.7546
  326MOL0     H43952   5.202   4.622   6.292  1.0028  2.2362 -0.8030
  326MOL0     H43953   5.365   4.368   6.245  0.4615  0.5992 -0.5822
  326MOL0     H43954   5.206   4.365   6.322 -0.8420 -0.2238 -1.5147
  326MOL0     H43955   5.088   4.480   6.121 -0.8093 -1.5587 -2.4023
  326MOL0     H43956   5.245   4.424   6.047  0.5347 -3.2794 -0.4221
  326MOL0     H43957   5.058   4.239   6.192  0.7707 -0.0791  1.5672
  326MOL0     H43958   5.201   4.198   6.090 -0.9855  0.5626 -3.9212
  326MOL0     H43959   5.070   4.319   5.907 -0.5025 -1.3570 -1.4612
  326MOL0     H43960   4.980   4.176   5.962 -0.3058  0.6819 -1.8889
  326MOL0     H43961   4.859   4.282   6.237 -2.4017 -0.1825  0.6643
  326MOL0     H43962   4.562   4.544   6.208  0.3073  0.4089 -0.6785
  326MOL0     H43963   4.556   4.363   6.217 -0.5739 -0.3651  1.6382
  326MOL0     H43964   4.565   4.487   6.439  0.2668  0.0465  0.0769
  326MOL0     H43965   4.721   4.405   6.431  3.5307  2.2256 -1.2472
  326MOL0     H43966   4.687   4.696   6.372  0.0543  1.9566  1.7212
  326MOL0     H43967   4.847   4.596   6.375  1.8652 -1.0515  5.2887
  326MOL0     H43968   4.681   4.638   6.626  2.1106  1.7248  5.3949
  326MOL0     H43969   4.821   4.735   6.578  0.4078 -0.7977 -0.7894
  326MOL0     H43970   4.973   4.309   6.577  0.6393 -0.6405  1.1256
  326MOL0     H43971   5.235   4.268   6.586  2.1607  1.7496 -3.6458
  326MOL0     H43972   5.588   4.108   6.784  1.1167 -1.1674  0.2706
  326MOL0     H43973   5.814   4.058   6.756  0.3151 -0.2537 -0.9283
  326MOL0     H43974   6.054   4.228   6.383  2.6837  2.5924  0.4591
  326MOL0     H43975   6.136   4.217   6.538 -1.6526  0.4424  0.2081
  326MOL0     H43976   6.082   3.987   6.350 -0.4580 -1.4754  1.8356
  326MOL0     H43977   6.230   4.087   6.353 -2.3814  1.4433 -3.4563
  326MOL0     H43978   6.285   3.995   6.562  1.5522 -1.1293 -0.7458
  326MOL0     H43979   6.136   3.911   6.597 -0.5603 -1.6527 -0.7064
  326MOL0     H43980   6.346   3.793   6.523  0.2139  1.0582  0.1406
  326MOL0     H43981   6.302   3.844   6.350  0.3130 -0.6237  0.2639
  326MOL0     H43982   6.080   3.725   6.413  0.6787  1.3661 -0.3362
  326MOL0     H43983   6.166   3.671   6.554 -0.4045 -0.0022  0.1423
  326MOL0     H43984   6.337   3.548   6.398  0.8589  1.4402 -0.0940
  326MOL0     H43985   6.171   3.481   6.408 -0.1781  0.4467 -0.3281
  326MOL0     H43986   6.230   3.674   6.188 -0.4611 -0.1800  0.4432
  326MOL0     H43987   6.092   3.580   6.200  0.5991 -3.0774 -2.3051
  326MOL0     H43988   6.391   3.483   6.167  0.4834  1.5066 -0.9360
  326MOL0     H43989   6.264   3.373   6.209  5.0340 -0.3805  0.2608
  326MOL0     H43990   5.844   4.283   6.392 -0.4552 -1.8280 -1.2796
  326MOL0     H43991   5.618   4.376   6.442  2.9731  3.8460  2.3025
  326MOL0     H43992   5.298   4.694   6.629 -1.4464  1.3251  0.8781
  326MOL0     H43993   5.063   4.723   6.647  1.4034 -0.2105  1.5727
  326MOL0     H43994   5.030   4.785   5.922  0.6709 -0.9733  1.0939
  326MOL0     H43995   4.766   4.826   5.931 -1.4410  1.3942 -0.0219
  326MOL0     H43996   4.429   5.124   6.082 -1.4858  1.4589 -1.0430
  326MOL0     H43997   4.202   5.186   6.091  2.2250  0.7443 -0.7438
  326MOL0     H43998   3.846   5.040   6.172 -1.1666  0.7715  1.4990
  326MOL0     H43999   3.962   5.095   6.057 -3.1428  0.6316 -0.6467
  326MOL0     H44000   3.813   5.261   6.098 -2.4765 -1.4764  3.3034
  326MOL0     H44001   3.988   5.298   6.144  0.4373 -0.9193  0.7659
  326MOL0     H44002   3.942   5.329   6.369 -0.9718  1.2799  0.1674
  326MOL0     H44003   3.824   5.192   6.354  4.2259 -1.7838 -0.3321
  326MOL0     H44004   3.663   5.350   6.239 -1.5842  4.3519 -0.3413
  326MOL0     H44005   3.707   5.404   6.396 -1.2284  3.0238 -1.3860
  326MOL0     H44006   3.854   5.739   6.225 -2.3896  0.6634 -1.8127
  326MOL0     H44007   4.138   4.872   6.391  2.2276 -1.6300  2.0465
  326MOL0     H44008   4.442   4.825   6.487  0.8178 -2.2891 -0.4131
  326MOL0     H44009   4.300   4.719   6.435 -1.8283  0.9497  1.2082
  326MOL0     H44010   4.448   4.709   6.344  2.5665  1.9455  0.2284
  327MOL0     O44011   0.430   0.773   1.261 -0.1025  0.8572  0.0207
  327MOL0     C44012   0.420   0.890   1.290  0.1739  0.5475  0.3875
  327MOL0     O44013   0.500   0.964   1.378  0.3018  0.6538 -0.6651
  327MOL0     C44014   0.587   0.882   1.453 -0.8989  0.1276  0.2930
  327MOL0     C44015   0.560   0.837   1.582  0.0366 -0.1003  0.3803
  327MOL0     C44016   0.657   0.762   1.658 -0.2442  0.6251 -0.3453
  327MOL0     C44017   0.777   0.721   1.599 -0.2774  0.0246 -0.8218
  327MOL0     O44018   0.852   0.650   1.691  0.3651  0.6908  0.2640
  327MOL0     C44019   0.970   0.597   1.647  0.1737  0.0248  0.0156
  327MOL0     C44020   1.083   0.687   1.685  0.4943  0.2356 -0.8118
  327MOL0     C44021   1.217   0.612   1.680  0.3788  0.0514 -0.3472
  327MOL0     C44022   1.265   0.606   1.535 -0.3503  0.0748 -0.1043
  327MOL0     C44023   1.372   0.704   1.512 -0.0587 -0.2466  0.4749
  327MOL0     C44024   1.395   0.714   1.361 -0.0820 -0.1296  0.5756
  327MOL0     C44025   1.293   0.812   1.297 -0.3457 -0.8725 -0.2022
  327MOL0     C44026   1.349   0.952   1.265  0.0679 -0.2689 -0.5144
  327MOL0     N44027   1.247   1.037   1.197 -0.2537  0.7633 -0.2467
  327MOL0     C44028   1.198   1.011   1.067 -0.3915  0.7678  0.5563
  327MOL0     C44029   1.116   1.121   1.037  0.2198  0.2084 -0.9729
  327MOL0     C44030   1.037   1.142   0.905 -0.1418  0.0713  0.4767
  327MOL0     C44031   0.915   1.223   0.920 -0.0613  0.2614  0.2612
  327MOL0     C44032   0.813   1.168   1.024  0.5051  0.0964 -0.0341
  327MOL0     C44033   0.702   1.270   1.064 -0.3742  0.9474 -0.1615
  327MOL0     O44034   0.626   1.311   0.948  0.0897 -0.2067 -0.1740
  327MOL0     C44035   0.494   1.358   0.965 -0.6345  0.8415 -0.8756
  327MOL0     C44036   0.418   1.356   1.083 -1.3935  0.0982  0.5761
  327MOL0     C44037   0.295   1.417   1.086  0.4751  0.2318 -0.0582
  327MOL0     C44038   0.238   1.484   0.977 -1.3216  0.2099  0.1182
  327MOL0     C44039   0.117   1.566   0.990 -0.2058  0.3581 -0.1918
  327MOL0     O44040   0.053   1.569   1.112 -0.5516  0.0191 -0.0921
  327MOL0     C44041  -0.085   1.591   1.108  0.2080  0.4686 -0.4426
  327MOL0     C44042  -0.177   1.481   1.079 -1.0539  0.3593 -0.0038
  327MOL0     C44043  -0.311   1.509   1.086  0.0006  0.8563  0.9957
  327MOL0     C44044  -0.360   1.637   1.097  0.7735  0.9772 -0.5311
  327MOL0     O44045  -0.494   1.664   1.094  0.6659  0.8684  0.1597
  327MOL0     C44046  -0.574   1.578   1.011  0.0311  0.4554 -0.8505
  327MOL0     C44047  -0.712   1.642   0.998  0.2733  0.4374  0.8686
  327MOL0     C44048  -0.803   1.585   0.878  0.9998  0.6550  0.3492
  327MOL0     C44049  -0.871   1.450   0.922  0.0097 -0.3502  0.3045
  327MOL0     C44050  -0.970   1.393   0.820 -0.1659 -0.1571  0.6852
  327MOL0     C44051  -1.074   1.495   0.785  0.7851  0.9576  1.1294
  327MOL0     C44052  -1.191   1.534   0.888 -0.2959 -0.1417  0.6867
  327MOL0     C44053  -1.264   1.411   0.940  0.1276 -0.4878  0.5374
  327MOL0    Cl44054  -1.330   1.486   1.087  0.1487 -0.5477  0.3164
  327MOL0     C44055  -0.266   1.741   1.130  0.0112  0.0799 -0.5945
  327MOL0     C44056  -0.132   1.719   1.139  0.2009  0.3397  0.9654
  327MOL0     O44057   0.063   1.602   0.890 -0.1068 -1.1524  0.0993
  327MOL0     C44058   0.323   1.484   0.860 -0.0956 -0.3216  0.3775
  327MOL0     C44059   0.440   1.417   0.852  0.3521 -0.1985  0.2837
  327MOL0     N44060   1.127   1.213   1.148  0.2226  0.6979 -0.3183
  327MOL0     N44061   1.204   1.158   1.231  0.4527 -0.1352  0.2917
  327MOL0     C44062   0.801   0.763   1.470  0.0979  0.2876  0.3634
  327MOL0     C44063   0.713   0.845   1.400 -0.0159 -0.1758 -0.5020
  327MOL0     C44064   0.305   0.958   1.231 -1.1975 -0.3342  0.1853
  327MOL0     C44065   0.253   0.903   1.115 -0.4279 -0.4767  0.4235
  327MOL0     C44066   0.130   0.937   1.056 -0.1621 -0.7519  0.6484
  327MOL0     C44067   0.052   1.040   1.111  0.6568 -0.2068  0.4348
  327MOL0     O44068  -0.070   1.062   1.052  0.3138  0.6489  0.6855
  327MOL0     C44069  -0.170   1.069   1.147 -0.2788 -0.5103 -0.5275
  327MOL0     C44070  -0.176   0.960   1.255 -0.3990 -0.4668 -0.7880
  327MOL0     C44071  -0.196   0.816   1.215 -0.7753  0.2366  0.4123
  327MOL0     C44072  -0.283   0.727   1.306  0.1561 -0.0800 -0.3579
  327MOL0     C44073  -0.421   0.755   1.272 -0.7475  0.5415 -0.4038
  327MOL0     C44074  -0.537   0.775   1.236  0.5594 -0.0921 -0.0439
  327MOL0     C44075   0.116   1.108   1.209  0.0117  0.7088  0.1715
  327MOL0     C44076   0.235   1.065   1.282  0.0273 -0.2625 -0.7031
  327MOL0     C44077   0.283   1.154   1.390  0.6579 -0.0729  0.2103
  327MOL0     H44078   0.461   0.848   1.624 -1.5036 -2.4596 -2.2854
  327MOL0     H44079   0.630   0.719   1.754  0.0280 -1.1556 -1.0205
  327MOL0     H44080   0.981   0.498   1.692 -1.0203 -0.7127 -1.2286
  327MOL0     H44081   0.966   0.571   1.541 -0.6849 -0.4729  0.1645
  327MOL0     H44082   1.068   0.722   1.787 -1.9978 -1.0896 -0.6485
  327MOL0     H44083   1.086   0.775   1.619 -1.4949  1.0040  0.0508
  327MOL0     H44084   1.193   0.514   1.722 -5.2505  2.0912  2.1939
  327MOL0     H44085   1.289   0.661   1.745 -1.5320 -1.2039  2.9478
  327MOL0     H44086   1.305   0.506   1.514  0.3975  0.6442 -1.5730
  327MOL0     H44087   1.186   0.623   1.461 -0.5058  0.5170  0.1591
  327MOL0     H44088   1.351   0.803   1.555 -3.7952 -1.0472  0.8485
  327MOL0     H44089   1.461   0.665   1.562  0.0702  1.3734  1.5879
  327MOL0     H44090   1.501   0.733   1.344  0.8739 -2.5092  3.0828
  327MOL0     H44091   1.382   0.617   1.312  0.9109 -0.0118  0.0472
  327MOL0     H44092   1.204   0.819   1.361  0.4693 -2.0187  1.0908
  327MOL0     H44093   1.260   0.772   1.201  0.3795 -1.0521 -0.3743
  327MOL0     H44094   1.375   0.995   1.363 -1.5853  0.8759 -0.5514
  327MOL0     H44095   1.438   0.947   1.201  0.4208 -2.9251  0.0644
  327MOL0     H44096   1.234   0.929   1.006  1.0883  0.3945  1.8458
  327MOL0     H44097   1.120   1.189   0.850  1.2773  1.0970  3.3131
  327MOL0     H44098   1.004   1.049   0.857 -3.0378  0.7104  1.0805
  327MOL0     H44099   0.945   1.322   0.956  3.8330 -0.7480  0.2628
  327MOL0     H44100   0.866   1.208   0.823 -0.2400 -1.9867  0.6445
  327MOL0     H44101   0.868   1.145   1.115 -1.7044 -1.8732  0.9247
  327MOL0     H44102   0.771   1.075   0.986  1.8252 -1.6649  2.5397
  327MOL0     H44103   0.742   1.359   1.114  1.0796  3.2432 -4.7527
  327MOL0     H44104   0.644   1.203   1.127  0.0424 -1.0929 -1.8219
  327MOL0     H44105   0.449   1.304   1.173 -1.3608 -1.5509 -0.3598
  327MOL0     H44106   0.246   1.424   1.183  0.7763 -0.7784  0.1728
  327MOL0     H44107  -0.150   1.382   1.046 -5.3205 -1.9684  2.6074
  327MOL0     H44108  -0.368   1.421   1.059  1.3063  1.0246 -3.0646
  327MOL0     H44109  -0.526   1.582   0.913 -1.1134 -0.5684 -1.4790
  327MOL0     H44110  -0.585   1.478   1.053 -1.4225  1.4868  1.4281
  327MOL0     H44111  -0.758   1.634   1.097 -0.8898  0.2010  0.3326
  327MOL0     H44112  -0.695   1.746   0.967 -0.5921  0.0063 -1.2447
  327MOL0     H44113  -0.886   1.653   0.856 -0.1967 -1.0100 -0.4766
  327MOL0     H44114  -0.761   1.577   0.777 -3.7199 -3.1347 -1.6641
  327MOL0     H44115  -0.927   1.468   1.014 -0.6619  0.6780 -0.2980
  327MOL0     H44116  -0.796   1.372   0.942  1.1678  1.1000  1.9197
  327MOL0     H44117  -1.022   1.300   0.845 -0.6307 -0.0591  0.1041
  327MOL0     H44118  -0.921   1.373   0.724  0.5691  0.5060  0.9168
  327MOL0     H44119  -1.037   1.583   0.731  0.8079 -0.6703 -1.6824
  327MOL0     H44120  -1.131   1.456   0.701  0.2823  2.9453  0.5021
  327MOL0     H44121  -1.253   1.606   0.834  3.0556  2.3937 -0.1719
  327MOL0     H44122  -1.140   1.582   0.972 -0.4772  3.8111 -1.2259
  327MOL0     H44123  -1.344   1.388   0.869  0.9876  0.0886 -0.6680
  327MOL0     H44124  -1.199   1.330   0.973 -2.3844 -1.4345  3.6094
  327MOL0     H44125  -0.309   1.837   1.156 -3.1043 -1.8324  2.0383
  327MOL0     H44126  -0.076   1.803   1.180  0.8360  2.2082 -3.1523
  327MOL0     H44127   0.267   1.525   0.777  1.5183 -1.2384 -1.2399
  327MOL0     H44128   0.498   1.432   0.761  0.1370  1.2276  0.3652
  327MOL0     H44129   0.897   0.749   1.421  1.4392 -0.9479  3.1129
  327MOL0     H44130   0.749   0.878   1.304 -0.3989 -2.3428 -1.4402
  327MOL0     H44131   0.317   0.829   1.068  1.8751  1.6121  0.0654
  327MOL0     H44132   0.111   0.882   0.964  2.6805  1.1324 -1.1923
  327MOL0     H44133  -0.269   1.049   1.104 -0.6230 -0.0410  0.0338
  327MOL0     H44134  -0.166   1.169   1.190 -1.5850 -0.6130 -0.1298
  327MOL0     H44135  -0.268   0.977   1.311  0.4340  0.4577  0.3473
  327MOL0     H44136  -0.097   0.958   1.331 -1.7899  0.8416  0.7512
  327MOL0     H44137  -0.098   0.768   1.204  0.3872  2.4090  0.5837
  327MOL0     H44138  -0.244   0.815   1.117 -1.6684 -0.5653  0.8465
  327MOL0     H44139  -0.247   0.624   1.296 -1.1196 -0.3656 -2.4794
  327MOL0     H44140  -0.259   0.758   1.408  0.3522  0.7494 -0.6492
  327MOL0     H44141  -0.641   0.779   1.213 -0.1613  0.3896  2.9292
  327MOL0     H44142   0.075   1.207   1.231 -1.8554  0.1128 -0.4635
  327MOL0     H44143   0.210   1.233   1.411  0.8823  0.5027 -1.1228
  327MOL0     H44144   0.299   1.099   1.483  1.3279 -0.1275  0.0682
  327MOL0     H44145   0.383   1.196   1.374 -0.2121  2.2686  0.6087
  328MOL0     O44146   0.876   1.406   5.842  0.5077  0.2555 -0.0919
  328MOL0     C44147   0.980   1.386   5.913  0.9825  0.7005 -0.6287
  328MOL0     O44148   0.970   1.336   6.040  0.6910 -0.0382 -0.2247
  328MOL0     C44149   0.871   1.385   6.125  0.3452  0.6843 -0.3205
  328MOL0     C44150   0.740   1.419   6.086  0.4996 -0.3268 -0.3513
  328MOL0     C44151   0.655   1.476   6.177 -0.4067  0.3820  0.0318
  328MOL0     C44152   0.703   1.486   6.312 -0.4869 -0.4246  0.2307
  328MOL0     O44153   0.618   1.519   6.408  0.2889 -0.3347 -0.4023
  328MOL0     C44154   0.610   1.657   6.427 -0.1870 -0.4851  0.2556
  328MOL0     C44155   0.676   1.700   6.556 -0.5164 -0.2929  0.2971
  328MOL0     C44156   0.666   1.607   6.673 -0.5258 -0.2730  0.1634
  328MOL0     C44157   0.792   1.612   6.765 -0.7799  0.1838 -0.2525
  328MOL0     C44158   0.787   1.485   6.860  0.3717 -0.4969 -0.0443
  328MOL0     C44159   0.670   1.476   6.964  0.0731  0.3970 -0.2138
  328MOL0     C44160   0.666   1.585   7.074  0.4114 -0.0286  0.2609
  328MOL0     C44161   0.804   1.637   7.124 -0.5205  0.2138  0.5518
  328MOL0     N44162   0.792   1.744   7.216 -0.0500  1.0981  0.1657
  328MOL0     C44163   0.682   1.794   7.271 -0.2625 -0.6278  0.3194
  328MOL0     C44164   0.728   1.891   7.351  0.1203  0.0182  0.2473
  328MOL0     C44165   0.654   1.973   7.462  0.3169 -0.8929 -0.7427
  328MOL0     C44166   0.615   1.896   7.585  1.4765 -0.1256  0.4157
  328MOL0     C44167   0.589   1.992   7.706 -0.6497 -0.6739 -0.1582
  328MOL0     C44168   0.530   1.908   7.813  0.4587 -0.6726  0.3899
  328MOL0     O44169   0.553   1.982   7.936 -0.0596  0.0879  0.1622
  328MOL0     C44170   0.464   1.962   8.048  0.0008 -0.7744  0.1675
  328MOL0     C44171   0.352   1.874   8.041  1.1768  0.0151 -0.4273
  328MOL0     C44172   0.274   1.883   8.159 -0.5318 -0.0512  0.0632
  328MOL0     C44173   0.317   1.933   8.290 -0.1589  0.0575  0.1712
  328MOL0     C44174   0.233   1.919   8.410  0.5973  0.6937  0.5799
  328MOL0     O44175   0.116   1.866   8.385 -0.2431  0.0303 -0.8417
  328MOL0     C44176   0.027   1.843   8.493 -0.4382 -0.2585 -0.2749
  328MOL0     C44177  -0.086   1.932   8.501 -0.7054  0.0496  0.4325
  328MOL0     C44178  -0.178   1.910   8.602 -0.1830 -0.1878 -0.2673
  328MOL0     C44179  -0.172   1.807   8.697  0.5396  0.8987 -0.6212
  328MOL0     O44180  -0.270   1.768   8.797  0.3531  0.1950  0.3892
  328MOL0     C44181  -0.404   1.816   8.773  0.7955  1.0530 -0.3832
  328MOL0     C44182  -0.490   1.771   8.893 -0.7939  0.4203 -0.6118
  328MOL0     C44183  -0.647   1.775   8.859 -0.0700 -0.4995 -0.8689
  328MOL0     C44184  -0.680   1.649   8.793 -0.5052 -0.0631  0.1556
  328MOL0     C44185  -0.826   1.633   8.763  1.3751 -0.7154 -0.0260
  328MOL0     C44186  -0.879   1.724   8.647  0.3659  0.1687 -0.0560
  328MOL0     C44187  -1.025   1.746   8.646 -0.0419 -1.0039  0.3038
  328MOL0     C44188  -1.098   1.614   8.606 -0.0292  0.2280  0.1855
  328MOL0    Cl44189  -1.099   1.503   8.749  0.1247 -0.2448 -0.3390
  328MOL0     C44190  -0.062   1.723   8.687 -0.2896 -0.1194 -0.1022
  328MOL0     C44191   0.033   1.734   8.580  0.4285  0.0628  0.7440
  328MOL0     O44192   0.272   1.961   8.520  0.6758  0.3901  0.3862
  328MOL0     C44193   0.445   1.991   8.289 -0.3187 -0.4200 -0.4086
  328MOL0     C44194   0.511   2.016   8.168  1.0222 -0.3091 -0.6426
  328MOL0     N44195   0.866   1.896   7.333  0.6047  0.2009  0.2364
  328MOL0     N44196   0.902   1.821   7.239  0.7174  0.7786 -0.4795
  328MOL0     C44197   0.833   1.442   6.350 -0.0279  0.6576  0.1375
  328MOL0     C44198   0.913   1.382   6.259 -0.2426 -0.3191  1.2613
  328MOL0     C44199   1.122   1.387   5.865  1.0763  0.2538 -0.4847
  328MOL0     C44200   1.219   1.330   5.943 -0.1200 -0.2473 -0.2456
  328MOL0     C44201   1.346   1.308   5.898  0.2043  0.3896  0.2861
  328MOL0     C44202   1.382   1.336   5.766 -0.7383  0.0134  0.2151
  328MOL0     O44203   1.507   1.326   5.709  0.2953 -0.0802 -0.4986
  328MOL0     C44204   1.615   1.300   5.803 -0.2701  0.5274  0.2112
  328MOL0     C44205   1.745   1.271   5.722 -0.6396  0.1832  0.0638
  328MOL0     C44206   1.731   1.171   5.609  0.7621 -0.5230  1.1189
  328MOL0     C44207   1.861   1.133   5.537 -0.5382 -0.2867 -0.8595
  328MOL0     C44208   1.936   1.018   5.602 -0.4089  0.3255 -0.1161
  328MOL0     C44209   2.008   0.924   5.636  0.2675  0.9461  0.1777
  328MOL0     C44210   1.284   1.391   5.684 -0.4525  0.7821 -0.6501
  328MOL0     C44211   1.152   1.414   5.731 -0.4913  0.8956 -1.0281
  328MOL0     C44212   1.062   1.445   5.613 -0.4953 -0.0643 -0.8314
  328MOL0     H44213   0.706   1.396   5.986  2.0493 -3.6145 -0.2531
  328MOL0     H44214   0.557   1.504   6.140  0.6345  0.5410 -2.7849
  328MOL0     H44215   0.659   1.720   6.352 -3.4569 -0.8117 -2.4364
  328MOL0     H44216   0.502   1.669   6.433 -0.3260 -1.0072 -0.7679
  328MOL0     H44217   0.631   1.792   6.592 -0.4878  0.5723 -1.7559
  328MOL0     H44218   0.782   1.721   6.539 -0.5560  2.5248  2.7820
  328MOL0     H44219   0.652   1.504   6.639 -1.9360 -0.3109  0.7947
  328MOL0     H44220   0.573   1.634   6.723 -0.0047  0.8516  0.5756
  328MOL0     H44221   0.886   1.605   6.709 -0.4099 -1.1298  0.4913
  328MOL0     H44222   0.804   1.709   6.814  0.9713  1.2001 -2.5138
  328MOL0     H44223   0.791   1.395   6.798  0.7206  1.4259 -3.0266
  328MOL0     H44224   0.881   1.495   6.916 -0.5531  3.6521  1.0594
  328MOL0     H44225   0.576   1.483   6.908  0.5278  0.6404 -0.9600
  328MOL0     H44226   0.674   1.381   7.018 -1.8372  0.6244  0.4004
  328MOL0     H44227   0.616   1.542   7.161  2.3185 -0.6105  1.1167
  328MOL0     H44228   0.613   1.667   7.025  0.0293 -0.9044 -0.8460
  328MOL0     H44229   0.852   1.549   7.166 -1.8455 -1.4050 -1.1428
  328MOL0     H44230   0.860   1.668   7.035 -0.3963 -0.2380  0.4723
  328MOL0     H44231   0.577   1.771   7.260 -0.3629  1.0738 -4.6860
  328MOL0     H44232   0.717   2.052   7.502 -0.6400 -0.4402 -0.1006
  328MOL0     H44233   0.561   2.020   7.428 -0.0707 -1.2087 -0.1187
  328MOL0     H44234   0.522   1.840   7.568  0.0911  1.5234  2.1266
  328MOL0     H44235   0.698   1.830   7.613  2.2222  1.2690  1.6717
  328MOL0     H44236   0.534   2.084   7.682  3.7061  2.0987 -0.5849
  328MOL0     H44237   0.686   2.017   7.748 -1.6444 -1.0798  2.5697
  328MOL0     H44238   0.563   1.804   7.805 -1.5448 -1.3253  0.1377
  328MOL0     H44239   0.424   1.908   7.789  0.1272 -2.8798  1.5680
  328MOL0     H44240   0.307   1.821   7.958 -1.5043 -0.2114  1.0502
  328MOL0     H44241   0.183   1.825   8.172 -0.5975 -0.4616 -1.9093
  328MOL0     H44242  -0.089   2.017   8.434 -0.4817  0.8658  1.4384
  328MOL0     H44243  -0.268   1.971   8.603 -0.7646 -1.0227 -0.6988
  328MOL0     H44244  -0.416   1.924   8.757  3.4690  1.1161 -2.9952
  328MOL0     H44245  -0.455   1.767   8.689 -2.1630  3.8628 -0.4233
  328MOL0     H44246  -0.464   1.670   8.924  3.3869  1.7490  0.9438
  328MOL0     H44247  -0.465   1.840   8.974  1.1396 -1.5376  0.5694
  328MOL0     H44248  -0.700   1.771   8.954  4.9403 -4.5497  2.3521
  328MOL0     H44249  -0.674   1.867   8.807 -0.3298  0.5684  1.0744
  328MOL0     H44250  -0.675   1.575   8.873 -1.3161 -0.9262 -0.5618
  328MOL0     H44251  -0.615   1.633   8.706  0.8531 -0.7501  1.2477
  328MOL0     H44252  -0.890   1.659   8.848  0.5749 -1.0623 -0.4984
  328MOL0     H44253  -0.844   1.528   8.734 -3.9777  0.4269 -2.0302
  328MOL0     H44254  -0.813   1.812   8.646  1.5767 -0.6828  1.5757
  328MOL0     H44255  -0.863   1.667   8.555 -2.1979  2.7362 -2.3012
  328MOL0     H44256  -1.040   1.818   8.565  1.8390  0.1391  0.9160
  328MOL0     H44257  -1.059   1.781   8.743 -3.2517 -2.8080 -0.0132
  328MOL0     H44258  -1.199   1.642   8.575  0.1280  1.0775  0.4330
  328MOL0     H44259  -1.055   1.562   8.519  1.6009  3.4268 -1.0750
  328MOL0     H44260  -0.032   1.647   8.758  1.9432  0.7681 -0.0131
  328MOL0     H44261   0.114   1.662   8.584  0.2493 -0.1698  0.2252
  328MOL0     H44262   0.488   2.034   8.379  5.6221 -2.1846 -1.9629
  328MOL0     H44263   0.599   2.080   8.171  2.0380 -1.6034 -1.4878
  328MOL0     H44264   0.860   1.439   6.455  0.6341  1.3752 -0.0017
  328MOL0     H44265   1.016   1.352   6.274  1.2216  0.4858 -4.6353
  328MOL0     H44266   1.203   1.311   6.049  2.7296 -0.5182  0.2034
  328MOL0     H44267   1.412   1.271   5.974 -0.6285  0.5962  1.1274
  328MOL0     H44268   1.596   1.205   5.854 -0.6156  1.2620  1.4967
  328MOL0     H44269   1.635   1.382   5.872  2.9786  1.2866 -1.4042
  328MOL0     H44270   1.812   1.223   5.794 -1.8660 -3.4060 -0.9785
  328MOL0     H44271   1.800   1.360   5.688  1.5403 -0.7058  1.0935
  328MOL0     H44272   1.682   1.230   5.532  0.1615  0.8944  2.5151
  328MOL0     H44273   1.670   1.086   5.641 -2.2342  0.8471 -0.5351
  328MOL0     H44274   1.839   1.113   5.432  2.0016 -0.3642 -1.4285
  328MOL0     H44275   1.933   1.214   5.523 -0.8139  0.0055 -0.6089
  328MOL0     H44276   2.070   0.842   5.666 -1.0627 -1.0934 -2.2106
  328MOL0     H44277   1.317   1.404   5.582  0.3071 -0.4724 -0.5958
  328MOL0     H44278   0.985   1.515   5.647 -1.4349  0.6495 -4.0894
  328MOL0     H44279   1.117   1.506   5.541 -0.8510 -0.5161 -1.4904
  328MOL0     H44280   1.037   1.348   5.570  0.0401  0.3533 -2.1401
  329MOL0     O44281   0.045   6.826   8.657 -1.5620 -0.9091 -0.2574
  329MOL0     C44282   0.145   6.766   8.704  0.3987  0.3749 -0.5495
  329MOL0     O44283   0.232   6.815   8.796  0.3838  1.2729  0.4031
  329MOL0     C44284   0.215   6.939   8.865 -1.2889  0.0265  0.5701
  329MOL0     C44285   0.094   6.977   8.905  0.2828 -0.0928  0.2462
  329MOL0     C44286   0.079   7.100   8.963 -0.0149 -0.6258  0.1801
  329MOL0     C44287   0.178   7.199   8.965  1.0198  0.4112  0.4163
  329MOL0     O44288   0.146   7.319   9.015  0.5542 -0.5331 -0.0422
  329MOL0     C44289   0.254   7.399   9.078  0.2002  0.0071 -0.5079
  329MOL0     C44290   0.201   7.508   9.173 -1.0866  0.5058 -0.3611
  329MOL0     C44291   0.323   7.575   9.251 -0.6272  0.6390  0.3761
  329MOL0     C44292   0.405   7.664   9.166  0.2518 -1.2217  0.3700
  329MOL0     C44293   0.506   7.747   9.248 -0.2629  0.3128  0.3713
  329MOL0     C44294   0.451   7.872   9.326 -0.6969 -0.2860  0.2317
  329MOL0     C44295   0.559   7.912   9.428  0.2244  0.1468  0.2596
  329MOL0     C44296   0.520   8.024   9.517 -0.4482 -1.2455 -0.5614
  329MOL0     N44297   0.453   8.142   9.457 -0.2018  0.0964  0.5594
  329MOL0     C44298   0.496   8.226   9.354 -0.3899 -0.0741  0.8666
  329MOL0     C44299   0.398   8.314   9.332  0.4323  0.2485  0.0384
  329MOL0     C44300   0.382   8.401   9.220 -0.1434 -0.3108 -0.3289
  329MOL0     C44301   0.436   8.346   9.094 -0.0512  0.2998  0.7953
  329MOL0     C44302   0.428   8.445   8.975 -0.9403 -0.2573  0.6623
  329MOL0     C44303   0.525   8.567   8.986  0.3082  0.1999  0.1844
  329MOL0     O44304   0.456   8.672   9.060  0.7548 -0.9560 -0.2227
  329MOL0     C44305   0.466   8.802   9.015  0.2553 -1.1186 -0.1975
  329MOL0     C44306   0.478   8.902   9.116  0.2655  0.9097 -0.2103
  329MOL0     C44307   0.490   9.036   9.078 -0.3535 -0.3556  0.6665
  329MOL0     C44308   0.517   9.070   8.938 -0.2917 -0.7514 -0.1064
  329MOL0     C44309   0.553   9.210   8.900  0.5732  0.4683 -0.2006
  329MOL0     O44310   0.566   9.298   8.997 -0.5454  0.0513 -0.4585
  329MOL0     C44311   0.622   9.424   8.991 -0.0849  0.0818 -0.6491
  329MOL0     C44312   0.725   9.464   8.894 -0.1807  1.0287 -0.8063
  329MOL0     C44313   0.773   9.598   8.891 -1.6614  0.7485 -1.3308
  329MOL0     C44314   0.696   9.692   8.962  0.4976 -1.1531 -0.5162
  329MOL0     O44315   0.737   9.819   8.951  0.2481  0.3449 -0.4308
  329MOL0     C44316   0.826   9.862   9.054 -0.0873 -0.0193 -0.2608
  329MOL0     C44317   0.965   9.895   8.995 -0.0208 -1.0631 -0.0373
  329MOL0     C44318   1.037   9.982   9.101 -0.0939  0.2786  0.1130
  329MOL0     C44319   1.177  10.017   9.041 -0.4141 -0.2299 -0.1677
  329MOL0     C44320   1.270  10.079   9.133 -1.1467  0.2489 -0.1005
  329MOL0     C44321   1.409  10.121   9.074  0.9608 -0.6735  0.8970
  329MOL0     C44322   1.505  10.162   9.185  0.3058 -0.1643  0.0807
  329MOL0     C44323   1.640  10.217   9.132 -0.4064  1.0777 -0.5344
  329MOL0    Cl44324   1.731  10.264   9.286 -0.0684  0.4602 -0.2687
  329MOL0     C44325   0.597   9.648   9.051 -0.5212 -0.7386  0.0313
  329MOL0     C44326   0.570   9.521   9.070 -0.4613 -0.8783 -0.2836
  329MOL0     O44327   0.563   9.236   8.782 -0.5517 -0.1811 -0.0464
  329MOL0     C44328   0.518   8.963   8.844  0.4925  0.3509 -0.0522
  329MOL0     C44329   0.490   8.833   8.879 -0.8589  0.2000  1.0431
  329MOL0     N44330   0.289   8.275   9.406  0.4300  0.2854  0.6291
  329MOL0     N44331   0.322   8.172   9.474 -0.5423 -0.2894 -0.2911
  329MOL0     C44332   0.297   7.160   8.910  0.4188 -0.4490 -0.2939
  329MOL0     C44333   0.318   7.033   8.865  0.3031  0.0448  0.2538
  329MOL0     C44334   0.194   6.645   8.628 -0.3022  0.6122 -0.4138
  329MOL0     C44335   0.330   6.634   8.601 -0.5330 -0.5534  0.3933
  329MOL0     C44336   0.381   6.517   8.546  0.6030 -0.2012  0.2264
  329MOL0     C44337   0.294   6.415   8.509  0.3482  0.8575 -0.2658
  329MOL0     O44338   0.346   6.299   8.471 -0.4130 -0.5551  0.2865
  329MOL0     C44339   0.426   6.299   8.347 -0.3136 -0.7878  0.9068
  329MOL0     C44340   0.423   6.166   8.273  0.5896  0.5211  0.4264
  329MOL0     C44341   0.294   6.138   8.198 -0.2385  0.0505 -0.0222
  329MOL0     C44342   0.292   5.996   8.153 -0.1731  0.8541 -0.1700
  329MOL0     C44343   0.163   5.960   8.090 -0.2567 -0.0318 -0.4039
  329MOL0     C44344   0.060   5.927   8.037 -0.8808 -0.0912  0.0468
  329MOL0     C44345   0.154   6.427   8.529  0.4074  0.7526  0.3884
  329MOL0     C44346   0.100   6.542   8.586 -0.2834 -0.1645  0.3658
  329MOL0     C44347  -0.052   6.532   8.606  0.8127 -0.4338  0.3519
  329MOL0     H44348   0.015   6.904   8.893 -0.1327  0.3858  0.0702
  329MOL0     H44349  -0.018   7.141   8.988  1.6504  3.9490  0.0910
  329MOL0     H44350   0.303   7.325   9.142 -3.0160  0.1047  2.4258
  329MOL0     H44351   0.324   7.439   9.005  1.2243  1.0030  0.9590
  329MOL0     H44352   0.139   7.452   9.243 -3.2612 -2.7010 -4.4222
  329MOL0     H44353   0.138   7.584   9.125  0.3040  1.6770 -0.4098
  329MOL0     H44354   0.390   7.505   9.301 -0.6532 -0.1921 -0.7236
  329MOL0     H44355   0.270   7.635   9.326  2.4003  1.4539  2.0401
  329MOL0     H44356   0.455   7.612   9.083  1.2233 -1.2462  0.9573
  329MOL0     H44357   0.333   7.734   9.122  0.7134  1.3306  3.3422
  329MOL0     H44358   0.544   7.677   9.322  0.4907 -0.2233 -0.4987
  329MOL0     H44359   0.591   7.782   9.189 -0.7411 -0.5027 -0.8396
  329MOL0     H44360   0.440   7.958   9.260 -0.3896  2.0656  3.0121
  329MOL0     H44361   0.362   7.845   9.382  0.7711 -4.1140  1.0267
  329MOL0     H44362   0.642   7.945   9.365 -2.2479  0.2129 -3.2353
  329MOL0     H44363   0.591   7.824   9.484 -3.5313  0.2791  2.9402
  329MOL0     H44364   0.464   7.988   9.604  2.3015  0.9990  2.3831
  329MOL0     H44365   0.613   8.059   9.563 -1.0678  0.2365 -0.3814
  329MOL0     H44366   0.590   8.221   9.300 -1.2587 -0.7019 -0.6301
  329MOL0     H44367   0.276   8.425   9.203 -0.3036 -0.0532  0.9331
  329MOL0     H44368   0.434   8.496   9.233  0.8598 -0.9027  0.0719
  329MOL0     H44369   0.538   8.319   9.123 -0.1336  1.8511  2.7376
  329MOL0     H44370   0.375   8.258   9.073  0.2846  0.3517 -0.5275
  329MOL0     H44371   0.329   8.489   8.961 -0.1572  1.4732  0.2212
  329MOL0     H44372   0.433   8.390   8.880  0.8339 -3.9239  2.6754
  329MOL0     H44373   0.566   8.598   8.889  1.3197  2.1273  1.1753
  329MOL0     H44374   0.606   8.521   9.043 -0.9816 -1.0551  1.0485
  329MOL0     H44375   0.482   8.878   9.222  0.3014  2.3420  0.1361
  329MOL0     H44376   0.482   9.115   9.152  1.7772  0.7053 -0.1652
  329MOL0     H44377   0.770   9.394   8.823  0.6895  1.5628 -0.8046
  329MOL0     H44378   0.854   9.628   8.826 -0.3800  1.1614  0.3771
  329MOL0     H44379   0.774   9.948   9.097 -1.4820 -1.5461  1.2705
  329MOL0     H44380   0.845   9.778   9.121 -0.2948  0.1743  0.0444
  329MOL0     H44381   1.020   9.802   8.980  2.1556  0.3212 -1.2079
  329MOL0     H44382   0.955   9.955   8.904  0.0348  0.5937  1.0018
  329MOL0     H44383   0.989  10.073   9.138  0.3786 -0.9630  4.3468
  329MOL0     H44384   1.049   9.907   9.180 -1.4827 -2.1324 -1.8459
  329MOL0     H44385   1.174  10.093   8.962  0.5898 -0.1171 -0.1048
  329MOL0     H44386   1.221   9.922   9.009  1.8848  0.4577  0.7304
  329MOL0     H44387   1.293  10.002   9.207 -2.5736 -1.4300 -1.3224
  329MOL0     H44388   1.210  10.165   9.164  1.2024  2.7300 -1.9939
  329MOL0     H44389   1.453  10.042   9.013 -2.9970 -0.7403 -2.2997
  329MOL0     H44390   1.388  10.197   8.998  1.1465 -1.0937  0.4184
  329MOL0     H44391   1.525  10.070   9.240  0.3650  0.4211  1.0729
  329MOL0     H44392   1.465  10.241   9.250  1.3843 -0.0340  0.6084
  329MOL0     H44393   1.695  10.148   9.068 -1.2370  1.8312 -2.1067
  329MOL0     H44394   1.628  10.313   9.080 -2.1431  0.1428 -1.9595
  329MOL0     H44395   0.536   9.717   9.109 -0.2756  0.2386 -0.8435
  329MOL0     H44396   0.484   9.513   9.136 -0.7940  1.2968 -0.3919
  329MOL0     H44397   0.539   8.969   8.738  1.3416 -0.8886  0.0339
  329MOL0     H44398   0.500   8.753   8.806  0.9834 -0.3302  1.8137
  329MOL0     H44399   0.374   7.236   8.905 -0.3003  0.2572 -0.8351
  329MOL0     H44400   0.413   7.005   8.821  1.3841  0.6936  2.0951
  329MOL0     H44401   0.402   6.711   8.628  0.6107 -1.3532 -0.2652
  329MOL0     H44402   0.487   6.494   8.543  0.4450 -1.1692  1.4214
  329MOL0     H44403   0.530   6.320   8.374 -0.1301 -0.6764  0.1373
  329MOL0     H44404   0.391   6.379   8.282  1.9531 -1.1725 -0.9340
  329MOL0     H44405   0.445   6.089   8.348 -3.4527 -0.7369  0.5615
  329MOL0     H44406   0.502   6.164   8.197  1.5535 -0.5977  1.4214
  329MOL0     H44407   0.294   6.196   8.105  1.8591  1.2386  0.6564
  329MOL0     H44408   0.206   6.157   8.261  1.3497  1.1087  1.9951
  329MOL0     H44409   0.374   5.972   8.085 -0.2360  0.8148 -0.2335
  329MOL0     H44410   0.309   5.929   8.238  0.7998  2.4132  0.9161
  329MOL0     H44411  -0.034   5.904   7.992 -1.1153  5.4586 -3.2659
  329MOL0     H44412   0.083   6.349   8.505 -1.5288  2.0020  1.7340
  329MOL0     H44413  -0.092   6.627   8.570 -3.1274 -2.0435 -0.0780
  329MOL0     H44414  -0.109   6.454   8.555 -1.9880  3.1530 -2.5585
  329MOL0     H44415  -0.069   6.518   8.713 -0.8427 -0.3009  0.1306
  330MOL0     O44416   3.810   3.318   2.953  0.0201  0.0294 -0.2264
  330MOL0     C44417   3.905   3.396   2.974 -0.5956  0.2107 -0.9808
  330MOL0     O44418   3.914   3.473   3.086  0.3097 -0.0501  0.0608
  330MOL0     C44419   3.795   3.481   3.156  0.1552 -0.6177  0.0020
  330MOL0     C44420   3.800   3.440   3.285 -0.2691  0.4533 -0.2376
  330MOL0     C44421   3.679   3.449   3.364 -1.1339 -0.5433 -0.2252
  330MOL0     C44422   3.552   3.489   3.302  0.1014 -0.6144 -0.5985
  330MOL0     O44423   3.430   3.488   3.366  0.4159 -0.3752 -0.4828
  330MOL0     C44424   3.439   3.424   3.496  0.8329  0.5225  0.1255
  330MOL0     C44425   3.305   3.410   3.571  0.5785 -0.1337 -0.1958
  330MOL0     C44426   3.196   3.333   3.494 -0.1726  0.0216 -0.3415
  330MOL0     C44427   3.057   3.393   3.482  0.2301 -0.5965  0.1600
  330MOL0     C44428   3.005   3.415   3.623 -0.1424  0.2430 -0.1776
  330MOL0     C44429   2.860   3.373   3.633 -0.4363 -0.6122 -0.3143
  330MOL0     C44430   2.811   3.408   3.777 -0.4434 -0.9388  0.0482
  330MOL0     C44431   2.660   3.412   3.791 -0.5869  0.4481  1.3436
  330MOL0     N44432   2.598   3.378   3.920  0.6205 -0.9177  0.1828
  330MOL0     C44433   2.495   3.440   3.975 -0.3160 -0.1750 -0.8495
  330MOL0     C44434   2.494   3.388   4.100  0.4022 -0.7388 -0.0777
  330MOL0     C44435   2.392   3.415   4.205  0.3095 -0.7232 -0.7287
  330MOL0     C44436   2.251   3.428   4.155  0.2141 -0.0307 -0.3920
  330MOL0     C44437   2.157   3.477   4.271  0.8718 -1.0635  1.0133
  330MOL0     C44438   2.020   3.503   4.224 -0.3818  1.1457  0.0544
  330MOL0     O44439   1.932   3.523   4.339 -0.4751 -0.2632  0.2428
  330MOL0     C44440   1.799   3.560   4.316 -0.2288 -0.1937 -0.5380
  330MOL0     C44441   1.726   3.556   4.198 -0.2685  0.6609  0.1892
  330MOL0     C44442   1.593   3.586   4.184  0.3976  0.1658 -0.4514
  330MOL0     C44443   1.518   3.621   4.298 -0.6986  0.2435 -0.5715
  330MOL0     C44444   1.372   3.657   4.288 -0.0899  0.0359  0.2662
  330MOL0     O44445   1.303   3.665   4.408  0.3102  0.1057  0.1822
  330MOL0     C44446   1.160   3.692   4.408  0.5036 -0.7293  0.0695
  330MOL0     C44447   1.084   3.630   4.515  0.0133  0.3975  0.5246
  330MOL0     C44448   0.948   3.666   4.526 -0.6291  0.4393  0.3802
  330MOL0     C44449   0.883   3.754   4.443 -0.3505  0.6188 -0.1725
  330MOL0     O44450   0.749   3.779   4.455  0.7172  0.6459  0.6830
  330MOL0     C44451   0.687   3.880   4.383 -0.1671  0.2951  0.0719
  330MOL0     C44452   0.546   3.908   4.447 -0.4530 -0.1386  0.2482
  330MOL0     C44453   0.462   3.778   4.455  0.0997 -0.1486  0.2108
  330MOL0     C44454   0.313   3.827   4.438 -0.5949  0.4931  0.7824
  330MOL0     C44455   0.209   3.725   4.473  0.3370  0.1259  0.0439
  330MOL0     C44456   0.078   3.778   4.418  0.3072 -0.0992 -0.5545
  330MOL0     C44457  -0.031   3.771   4.517  0.0274  0.3756 -0.6878
  330MOL0     C44458  -0.169   3.752   4.462  0.8018 -0.6297 -0.3884
  330MOL0    Cl44459  -0.203   3.599   4.392 -0.1242  0.3582  0.3627
  330MOL0     C44460   0.963   3.830   4.352 -0.5161  0.4760  1.3071
  330MOL0     C44461   1.104   3.792   4.330  1.1167  0.2588 -0.8978
  330MOL0     O44462   1.325   3.662   4.177  0.4232  1.1564  0.2189
  330MOL0     C44463   1.591   3.641   4.419  0.1550  1.2400  0.1373
  330MOL0     C44464   1.728   3.601   4.429  0.4374 -0.3631 -0.5105
  330MOL0     N44465   2.601   3.299   4.123 -0.0717 -0.1087  0.2082
  330MOL0     N44466   2.662   3.301   4.011 -0.1640 -0.1621 -0.1342
  330MOL0     C44467   3.556   3.544   3.175 -0.2102  0.7019 -0.4371
  330MOL0     C44468   3.677   3.525   3.098 -0.4644 -0.0870  0.6986
  330MOL0     C44469   4.019   3.394   2.880 -0.6703  0.1740  0.3446
  330MOL0     C44470   4.142   3.454   2.926 -0.7346 -0.0880 -0.7022
  330MOL0     C44471   4.247   3.465   2.843 -1.0514 -0.4209  0.9898
  330MOL0     C44472   4.247   3.420   2.713 -0.7796 -0.1423  0.5818
  330MOL0     O44473   4.367   3.447   2.645  0.3588 -0.1943  0.6358
  330MOL0     C44474   4.391   3.407   2.510 -0.6241  0.8437 -1.4302
  330MOL0     C44475   4.404   3.527   2.427 -0.5081  0.3431  0.4518
  330MOL0     C44476   4.461   3.478   2.289 -0.0536  0.1601  0.3960
  330MOL0     C44477   4.536   3.593   2.229 -0.5187 -0.4529  0.0535
  330MOL0     C44478   4.545   3.580   2.090  0.6889  0.2345 -0.2999
  330MOL0     C44479   4.563   3.565   1.973  0.1399 -0.5559  0.6230
  330MOL0     C44480   4.143   3.340   2.667 -0.1224  1.1428 -0.1948
  330MOL0     C44481   4.037   3.324   2.753 -0.6665  0.5414  0.9613
  330MOL0     C44482   3.937   3.223   2.704  0.3814 -0.5091 -0.3371
  330MOL0     H44483   3.892   3.407   3.332 -0.2343 -0.9789 -1.2536
  330MOL0     H44484   3.685   3.419   3.468  2.4663  1.0554  0.1738
  330MOL0     H44485   3.475   3.322   3.480  1.9557  0.7763  0.9351
  330MOL0     H44486   3.510   3.476   3.561  2.0201  0.1726 -0.8635
  330MOL0     H44487   3.271   3.504   3.615  1.1366  0.1099 -0.2736
  330MOL0     H44488   3.329   3.352   3.661 -0.1760  0.5378  0.4532
  330MOL0     H44489   3.180   3.236   3.543 -0.5353  0.4135  0.3278
  330MOL0     H44490   3.228   3.305   3.393  0.4293 -0.3496 -0.0594
  330MOL0     H44491   3.073   3.494   3.442  2.6699 -1.5209 -1.4765
  330MOL0     H44492   2.983   3.339   3.423 -1.6416 -0.3906  2.1809
  330MOL0     H44493   3.066   3.362   3.697 -0.4449 -0.2349 -0.2699
  330MOL0     H44494   3.016   3.517   3.660  0.4280  0.3787 -0.6936
  330MOL0     H44495   2.804   3.427   3.556 -0.5788 -0.8931 -0.4087
  330MOL0     H44496   2.840   3.268   3.609  2.2264 -2.0028  2.8191
  330MOL0     H44497   2.848   3.502   3.818 -1.1747  0.0898 -1.5213
  330MOL0     H44498   2.856   3.341   3.851  2.2724  0.8006  0.0916
  330MOL0     H44499   2.619   3.503   3.747  0.3570 -0.9973 -3.0418
  330MOL0     H44500   2.629   3.341   3.714  2.2466 -0.3885  0.8465
  330MOL0     H44501   2.416   3.504   3.939 -0.4433 -0.8111 -1.7306
  330MOL0     H44502   2.399   3.336   4.280  0.1811  0.5916  0.7229
  330MOL0     H44503   2.416   3.508   4.258  0.4338 -0.3092 -1.4937
  330MOL0     H44504   2.252   3.506   4.078  4.9085  2.0518  1.4133
  330MOL0     H44505   2.214   3.332   4.118 -1.4100 -0.5142  2.1912
  330MOL0     H44506   2.194   3.574   4.305  0.3899 -0.1921 -0.8297
  330MOL0     H44507   2.150   3.396   4.345 -1.3075  0.4976  2.6439
  330MOL0     H44508   1.990   3.419   4.161 -0.0465  1.1791 -0.1545
  330MOL0     H44509   2.025   3.596   4.167  0.0258  0.5071 -0.9926
  330MOL0     H44510   1.775   3.541   4.103 -1.7240  3.3984 -1.1108
  330MOL0     H44511   1.555   3.593   4.083 -0.4158 -0.9658 -0.2441
  330MOL0     H44512   1.136   3.557   4.576 -1.6916 -0.9515  0.4178
  330MOL0     H44513   0.895   3.609   4.602 -0.5773 -2.9380 -1.8709
  330MOL0     H44514   0.748   3.971   4.392 -0.3539  0.4161  0.1277
  330MOL0     H44515   0.670   3.848   4.280  0.0655  2.4318 -0.6920
  330MOL0     H44516   0.561   3.941   4.550 -0.2775 -1.2662  0.5961
  330MOL0     H44517   0.500   3.990   4.390  1.7875  0.4416 -0.8212
  330MOL0     H44518   0.490   3.704   4.380  1.0360  0.1411  0.2562
  330MOL0     H44519   0.474   3.734   4.555  0.2205 -1.1544 -0.2365
  330MOL0     H44520   0.309   3.823   4.329  0.5112 -3.8415  0.7072
  330MOL0     H44521   0.291   3.926   4.480 -0.1810  1.5258 -1.3056
  330MOL0     H44522   0.211   3.715   4.582 -3.7713  2.1757  0.5034
  330MOL0     H44523   0.237   3.632   4.422  0.0479  1.5989 -3.0170
  330MOL0     H44524   0.079   3.878   4.374 -3.9735 -1.2359 -3.9591
  330MOL0     H44525   0.044   3.716   4.334 -0.1699  1.0849 -1.2594
  330MOL0     H44526  -0.020   3.862   4.578  0.2936 -1.4099  2.1190
  330MOL0     H44527   0.001   3.698   4.592  1.4584  0.2995 -1.3546
  330MOL0     H44528  -0.242   3.760   4.543 -0.4908  1.7989 -1.7063
  330MOL0     H44529  -0.199   3.823   4.385  1.2366 -3.6273 -3.5875
  330MOL0     H44530   0.929   3.902   4.278  0.2458  1.4380  1.8837
  330MOL0     H44531   1.156   3.836   4.246  1.8429 -0.3968 -0.8021
  330MOL0     H44532   1.530   3.680   4.500 -2.5143 -1.4553 -0.3761
  330MOL0     H44533   1.782   3.596   4.523  0.8807  0.9166 -0.6784
  330MOL0     H44534   3.474   3.576   3.113  0.7693 -3.8119 -4.6508
  330MOL0     H44535   3.674   3.550   2.992 -0.7925 -2.1130  0.1882
  330MOL0     H44536   4.143   3.497   3.026 -0.9616  2.5709 -1.7590
  330MOL0     H44537   4.342   3.508   2.873 -0.8319 -1.6597  2.1468
  330MOL0     H44538   4.322   3.338   2.460  2.0017 -2.1245 -1.2687
  330MOL0     H44539   4.485   3.353   2.497 -0.8939 -0.1145  0.3547
  330MOL0     H44540   4.472   3.595   2.479 -1.6290  1.9330 -0.0978
  330MOL0     H44541   4.309   3.582   2.419  1.1246  3.1706 -5.6127
  330MOL0     H44542   4.374   3.446   2.230  2.3683  1.1851 -4.2264
  330MOL0     H44543   4.539   3.402   2.296  0.9774  1.1815  0.2670
  330MOL0     H44544   4.497   3.694   2.241 -1.7516 -0.8892 -0.0588
  330MOL0     H44545   4.631   3.579   2.281 -1.8173 -4.3618  1.7893
  330MOL0     H44546   4.591   3.558   1.869  1.0798  2.5099  0.5740
  330MOL0     H44547   4.157   3.290   2.572  2.1316  1.7431 -0.2348
  330MOL0     H44548   3.984   3.149   2.638  2.4955 -1.4417  2.0511
  330MOL0     H44549   3.892   3.174   2.791 -2.3662 -0.6165 -1.6964
  330MOL0     H44550   3.863   3.280   2.647  1.5122  1.5137  0.1174
  331MOL0     O44551   9.947   3.811   5.514  0.2421 -0.7025 -0.1055
  331MOL0     C44552   9.852   3.746   5.558 -0.5485 -0.1930 -0.6190
  331MOL0     O44553   9.806   3.625   5.523 -0.0202  0.5625  0.2561
  331MOL0     C44554   9.870   3.551   5.420  0.0016  0.3587  0.2860
  331MOL0     C44555   9.982   3.482   5.453  0.4387 -0.5756 -0.0235
  331MOL0     C44556  10.040   3.391   5.376  0.0204 -0.4034 -0.2739
  331MOL0     C44557   9.986   3.351   5.254 -0.4926 -0.4648 -0.4636
  331MOL0     O44558  10.050   3.267   5.170 -0.7775 -0.1989  0.1617
  331MOL0     C44559   9.985   3.137   5.155 -0.8556  0.1745 -0.6657
  331MOL0     C44560  10.101   3.030   5.153  0.1921  0.0782  0.2857
  331MOL0     C44561  10.055   2.885   5.121 -0.0390 -0.1884  0.4695
  331MOL0     C44562  10.178   2.800   5.096 -0.6685  0.4784  0.4751
  331MOL0     C44563  10.148   2.656   5.121  0.2416  0.5748 -0.5293
  331MOL0     C44564  10.134   2.628   5.273 -1.0675 -0.4955  0.4106
  331MOL0     C44565  10.098   2.484   5.295  0.6778  1.0639 -0.3943
  331MOL0     C44566  10.120   2.443   5.440 -0.0784  0.5216 -0.2262
  331MOL0     N44567  10.065   2.306   5.478 -0.3133  0.4549  0.0249
  331MOL0     C44568  10.068   2.186   5.408 -0.1588  0.4307 -0.0488
  331MOL0     C44569   9.958   2.121   5.453  0.2414  1.3353  0.9041
  331MOL0     C44570   9.901   1.993   5.391 -0.0468 -0.3120  0.3966
  331MOL0     C44571   9.757   2.012   5.339  0.3526 -0.0646  0.2216
  331MOL0     C44572   9.707   1.884   5.285 -0.7627 -0.1833  0.2815
  331MOL0     C44573   9.624   1.819   5.394 -0.6262 -0.2111  0.0147
  331MOL0     O44574   9.557   1.696   5.352  0.1254 -0.4319  0.5963
  331MOL0     C44575   9.515   1.601   5.442 -1.3109 -0.1474 -0.5222
  331MOL0     C44576   9.515   1.611   5.580 -0.4536  0.6601  0.8523
  331MOL0     C44577   9.455   1.505   5.658 -0.1700 -0.1373 -1.4054
  331MOL0     C44578   9.410   1.389   5.604 -0.9512 -0.2955 -0.2417
  331MOL0     C44579   9.363   1.281   5.691  0.4132  0.3358 -0.1803
  331MOL0     O44580   9.282   1.192   5.636 -0.0788  0.1656 -0.4266
  331MOL0     C44581   9.226   1.090   5.717  0.0476  0.3655 -0.2921
  331MOL0     C44582   9.105   1.119   5.769  0.8140  0.2364  0.0813
  331MOL0     C44583   9.037   1.024   5.845  0.2437  0.4554  0.0556
  331MOL0     C44584   9.097   0.898   5.866  0.6081  0.7406 -0.3409
  331MOL0     O44585   9.027   0.798   5.935  0.4098 -0.1532 -0.4204
  331MOL0     C44586   9.087   0.668   5.965 -0.6854  0.1485  0.2870
  331MOL0     C44587   9.010   0.577   6.062 -0.1116  0.1850 -0.0638
  331MOL0     C44588   9.012   0.629   6.203  0.6596 -0.0400  1.1549
  331MOL0     C44589   8.886   0.594   6.276 -0.3237  0.6808  1.0519
  331MOL0     C44590   8.863   0.702   6.373  0.4406 -0.2083 -0.1654
  331MOL0     C44591   8.749   0.680   6.462  0.4428  0.0083  0.8942
  331MOL0     C44592   8.734   0.812   6.541  0.2792 -0.4805 -0.1958
  331MOL0     C44593   8.651   0.799   6.667 -0.6605  0.4162 -0.7046
  331MOL0    Cl44594   8.722   0.679   6.782 -0.2212  0.1740  0.6496
  331MOL0     C44595   9.221   0.878   5.809 -0.5120  0.0369 -0.0288
  331MOL0     C44596   9.280   0.965   5.717  0.7428  0.0430  0.0018
  331MOL0     O44597   9.400   1.283   5.808  0.2280  0.0588 -0.2343
  331MOL0     C44598   9.410   1.375   5.461  0.5230 -0.1824 -0.0518
  331MOL0     C44599   9.464   1.479   5.383 -0.9426  0.5553 -0.0903
  331MOL0     N44600   9.889   2.194   5.548 -0.3492  0.8390 -0.1027
  331MOL0     N44601   9.953   2.301   5.555  0.1605 -0.0386 -0.4221
  331MOL0     C44602   9.869   3.419   5.215  0.3533 -0.2848  0.1247
  331MOL0     C44603   9.815   3.526   5.296  0.6659 -0.2547 -0.3488
  331MOL0     C44604   9.786   3.815   5.670  0.0481  0.0376 -0.1560
  331MOL0     C44605   9.778   3.757   5.795  0.6181 -1.1415 -0.0819
  331MOL0     C44606   9.712   3.830   5.898  0.5203 -0.7714 -0.4697
  331MOL0     C44607   9.625   3.930   5.875 -0.9555 -0.3489 -0.9272
  331MOL0     O44608   9.560   3.990   5.982  0.3562 -0.1440 -0.2773
  331MOL0     C44609   9.620   4.112   6.018  0.4872  0.0151 -0.1754
  331MOL0     C44610   9.745   4.103   6.110  0.9799  0.5136  0.2343
  331MOL0     C44611   9.753   4.006   6.218 -0.4619 -0.5073  0.0024
  331MOL0     C44612   9.890   4.023   6.293 -0.1718 -0.8799 -0.7623
  331MOL0     C44613   9.878   4.159   6.366 -0.7806 -0.0883  0.0111
  331MOL0     C44614   9.872   4.269   6.420  0.3856 -0.2977  0.2974
  331MOL0     C44615   9.618   3.967   5.744 -0.1544  0.2913 -0.1703
  331MOL0     C44616   9.697   3.919   5.640  0.5801 -0.8647  0.9211
  331MOL0     C44617   9.659   3.973   5.507  0.5623  0.1164  0.2299
  331MOL0     H44618  10.024   3.503   5.551  0.0310 -0.9601  0.2389
  331MOL0     H44619  10.138   3.358   5.410 -0.4544 -1.0155  0.5460
  331MOL0     H44620   9.927   3.101   5.240 -0.2035 -0.4254 -0.4680
  331MOL0     H44621   9.915   3.129   5.071 -1.0041  1.0599 -0.6396
  331MOL0     H44622  10.150   3.033   5.250 -0.7751 -0.0470  0.7866
  331MOL0     H44623  10.176   3.057   5.078 -0.3581  3.5042  0.8321
  331MOL0     H44624   9.994   2.871   5.031  2.1279  2.7413 -1.6664
  331MOL0     H44625   9.997   2.849   5.206 -0.6256  1.1224  0.6524
  331MOL0     H44626  10.192   2.794   4.987 -1.0448 -2.1782  0.4886
  331MOL0     H44627  10.273   2.827   5.143 -1.5538 -0.1810  2.7345
  331MOL0     H44628  10.053   2.632   5.073 -0.2630  1.1829  0.1461
  331MOL0     H44629  10.236   2.599   5.088  1.0369  0.6513  1.3235
  331MOL0     H44630  10.224   2.650   5.330  0.1744 -1.9239 -0.9094
  331MOL0     H44631  10.054   2.687   5.318 -2.0149 -0.8197 -0.7648
  331MOL0     H44632  10.148   2.417   5.225  2.2323  2.0613 -0.2979
  331MOL0     H44633   9.992   2.476   5.273  0.9192  0.3691 -1.3659
  331MOL0     H44634  10.229   2.451   5.447 -0.2113  1.9430  0.5962
  331MOL0     H44635  10.077   2.518   5.506 -2.7676  1.0279 -2.3963
  331MOL0     H44636  10.140   2.163   5.331  0.5626 -0.8970  0.9793
  331MOL0     H44637   9.946   1.976   5.293 -2.0585  2.9417 -1.2678
  331MOL0     H44638   9.919   1.905   5.454 -1.6679  0.3559  1.8743
  331MOL0     H44639   9.694   2.061   5.414 -0.4683 -1.3676  0.3991
  331MOL0     H44640   9.752   2.077   5.251 -4.1638 -0.4442 -0.0264
  331MOL0     H44641   9.791   1.823   5.250 -1.5376 -1.0858 -0.0445
  331MOL0     H44642   9.636   1.898   5.203 -2.4713 -0.5876  1.6245
  331MOL0     H44643   9.559   1.902   5.424  2.4106  2.4641 -0.1677
  331MOL0     H44644   9.688   1.808   5.482  1.3543  3.4721 -0.7324
  331MOL0     H44645   9.552   1.699   5.630  2.4251  0.0617  0.0068
  331MOL0     H44646   9.455   1.509   5.766  3.0130  0.2974 -1.3318
  331MOL0     H44647   9.067   1.217   5.741  1.4450  0.2961 -0.5902
  331MOL0     H44648   8.932   1.040   5.866 -0.0736 -1.4773  0.1435
  331MOL0     H44649   9.089   0.612   5.871 -1.8783 -1.3153  1.0891
  331MOL0     H44650   9.189   0.674   6.004  0.2876 -5.4339 -0.5467
  331MOL0     H44651   8.911   0.578   6.015  0.9314  1.3967 -2.4168
  331MOL0     H44652   9.045   0.474   6.067  0.6557  0.1328 -3.6757
  331MOL0     H44653   9.097   0.589   6.260  1.7687 -0.8677 -0.9576
  331MOL0     H44654   9.014   0.738   6.199 -1.7604  0.0299 -1.2162
  331MOL0     H44655   8.905   0.505   6.335 -0.1803  0.0127  0.0230
  331MOL0     H44656   8.791   0.577   6.223  0.0614 -2.0974  1.1208
  331MOL0     H44657   8.849   0.793   6.312  0.7132  0.8349  1.2874
  331MOL0     H44658   8.943   0.716   6.446 -0.6606  1.7932  0.7382
  331MOL0     H44659   8.666   0.678   6.390  2.9348 -1.6800 -2.2189
  331MOL0     H44660   8.755   0.583   6.514  0.0522 -0.3290  0.3209
  331MOL0     H44661   8.686   0.887   6.477 -2.0339 -0.5829  1.3038
  331MOL0     H44662   8.834   0.845   6.571 -0.6254 -0.1811  2.8013
  331MOL0     H44663   8.643   0.895   6.718 -4.6799 -0.2252  0.2783
  331MOL0     H44664   8.544   0.777   6.655 -0.6037 -0.8705  0.7787
  331MOL0     H44665   9.269   0.781   5.821  0.4335  0.2639 -1.7364
  331MOL0     H44666   9.369   0.940   5.660 -0.6891 -3.3266 -1.0281
  331MOL0     H44667   9.374   1.284   5.413 -0.5253  0.1419  0.1036
  331MOL0     H44668   9.466   1.470   5.274 -1.7560  0.2966 -0.0911
  331MOL0     H44669   9.824   3.393   5.120  1.9003 -3.8937  0.2040
  331MOL0     H44670   9.722   3.571   5.260  1.0030 -0.0159 -0.9307
  331MOL0     H44671   9.831   3.664   5.814 -0.1744 -1.9627 -1.6951
  331MOL0     H44672   9.731   3.794   5.999  0.7676 -1.0503 -0.6146
  331MOL0     H44673   9.543   4.177   6.062 -1.0368 -1.2108 -0.9287
  331MOL0     H44674   9.655   4.168   5.930  0.9031 -0.9482 -0.6326
  331MOL0     H44675   9.752   4.202   6.156 -1.2487  0.4474  0.8199
  331MOL0     H44676   9.821   4.109   6.032 -0.7942  1.4773 -1.5097
  331MOL0     H44677   9.744   3.901   6.190  1.1038 -0.1667 -2.0201
  331MOL0     H44678   9.673   4.025   6.290  0.4665 -2.9886  1.8192
  331MOL0     H44679   9.914   3.949   6.370  0.8062  1.8597  1.7597
  331MOL0     H44680   9.974   4.022   6.223 -1.7005 -2.7578 -2.6945
  331MOL0     H44681   9.858   4.362   6.472  0.3516 -0.6340  0.9017
  331MOL0     H44682   9.536   4.037   5.729  0.9321  1.9837  1.3344
  331MOL0     H44683   9.721   3.949   5.420  0.1766  1.3564 -0.4237
  331MOL0     H44684   9.554   3.944   5.494  0.4996 -0.7430  2.3483
  331MOL0     H44685   9.657   4.081   5.523  2.3496  0.0066  1.4635
  332MOL0     O44686   3.803   0.111   7.161  0.0363 -0.0018 -0.2499
  332MOL0     C44687   3.731   0.167   7.076 -0.9093 -0.5996 -0.3580
  332MOL0     O44688   3.763   0.292   7.020  0.5101  0.0321 -0.5719
  332MOL0     C44689   3.885   0.343   7.043  0.9948 -0.6196 -0.7203
  332MOL0     C44690   3.978   0.366   6.944 -1.5314  0.5194 -0.0773
  332MOL0     C44691   4.094   0.437   6.971 -0.6113  0.4979 -0.3288
  332MOL0     C44692   4.110   0.510   7.089  0.4335 -0.3275  0.8114
  332MOL0     O44693   4.216   0.601   7.112 -0.1093 -0.1254  0.1061
  332MOL0     C44694   4.197   0.720   7.038  0.2685  0.2045 -0.0823
  332MOL0     C44695   4.323   0.808   7.031  0.8817 -0.8232 -0.4390
  332MOL0     C44696   4.332   0.898   7.152  0.4197 -0.1430  0.1369
  332MOL0     C44697   4.394   0.836   7.271  0.6519  0.0724 -0.7968
  332MOL0     C44698   4.350   0.924   7.389  0.1794 -0.2224 -0.3427
  332MOL0     C44699   4.423   0.863   7.518  0.0906  0.2036  0.0601
  332MOL0     C44700   4.361   0.941   7.640  0.8662  0.7834  0.0929
  332MOL0     C44701   4.423   0.897   7.774 -0.0594 -0.1635 -0.0478
  332MOL0     N44702   4.567   0.937   7.775  0.3677 -0.1369 -0.1360
  332MOL0     C44703   4.615   1.064   7.799 -0.2426 -0.0766  0.1868
  332MOL0     C44704   4.743   1.054   7.793 -0.4898 -1.5326 -0.6770
  332MOL0     C44705   4.835   1.180   7.815  0.6011  0.0793  0.9427
  332MOL0     C44706   4.861   1.272   7.701 -0.6898  1.5099 -0.1062
  332MOL0     C44707   4.745   1.346   7.651 -1.0143 -0.8058  0.9936
  332MOL0     C44708   4.783   1.404   7.512  0.8903  1.0075  0.1009
  332MOL0     O44709   4.708   1.528   7.503  0.0297 -0.0663  0.0039
  332MOL0     C44710   4.659   1.563   7.379  1.7274  0.9837 -1.0755
  332MOL0     C44711   4.707   1.674   7.312  0.2327 -0.2241  0.0781
  332MOL0     C44712   4.638   1.718   7.195  0.3438 -1.3336 -1.8295
  332MOL0     C44713   4.521   1.648   7.157 -0.1503 -0.3719 -0.4509
  332MOL0     C44714   4.438   1.700   7.049  0.5254  0.4351 -0.5298
  332MOL0     O44715   4.489   1.809   6.987 -0.3143  0.2027  0.3574
  332MOL0     C44716   4.442   1.835   6.862 -0.2017  0.4705  0.3362
  332MOL0     C44717   4.509   1.801   6.743 -0.3548 -0.8404  0.2378
  332MOL0     C44718   4.463   1.845   6.620 -0.1709  0.9748  0.2482
  332MOL0     C44719   4.341   1.909   6.618 -0.8381  0.3181  0.5590
  332MOL0     O44720   4.296   1.958   6.500 -0.1403 -0.4739 -0.6438
  332MOL0     C44721   4.271   1.862   6.394 -0.4719  0.6871 -0.1950
  332MOL0     C44722   4.149   1.785   6.435  0.5121  0.7532 -1.0503
  332MOL0     C44723   4.022   1.868   6.453  0.5469 -0.9266  0.3819
  332MOL0     C44724   3.973   1.943   6.328 -0.8366  0.8883 -0.2367
  332MOL0     C44725   3.843   2.023   6.343 -0.4594  0.1217  1.0604
  332MOL0     C44726   3.854   2.128   6.453  0.1424 -0.7230 -0.6863
  332MOL0     C44727   3.733   2.218   6.457 -0.0425 -0.4788 -0.1313
  332MOL0     C44728   3.717   2.302   6.585  0.5885  0.7249 -1.2403
  332MOL0    Cl44729   3.675   2.211   6.734 -0.0542 -0.4285  0.3295
  332MOL0     C44730   4.277   1.941   6.732 -0.9457  0.3869 -1.6369
  332MOL0     C44731   4.320   1.900   6.854 -0.0344  0.3908  0.4166
  332MOL0     O44732   4.328   1.648   7.027  0.1886 -0.0428  0.1604
  332MOL0     C44733   4.475   1.536   7.227  0.5177 -0.1107  0.8475
  332MOL0     C44734   4.545   1.493   7.337 -0.1436 -0.5316 -0.4281
  332MOL0     N44735   4.785   0.930   7.768  0.1459  1.3868 -0.8410
  332MOL0     N44736   4.677   0.856   7.742  0.5473 -0.0082  0.1499
  332MOL0     C44737   4.009   0.488   7.194  0.9498 -0.4548  0.5608
  332MOL0     C44738   3.907   0.395   7.171  0.3373  0.3574 -0.3897
  332MOL0     C44739   3.598   0.129   7.063  0.5772 -0.4762 -1.1341
  332MOL0     C44740   3.497   0.223   7.098  0.6700  0.3882  0.6994
  332MOL0     C44741   3.364   0.182   7.074  0.2100  0.7184 -1.2995
  332MOL0     C44742   3.330   0.051   7.025 -0.1864 -1.1821  0.2176
  332MOL0     O44743   3.199   0.001   6.993 -0.7265 -0.5645  0.3790
  332MOL0     C44744   3.098   0.102   6.998 -0.2211 -0.2928  1.3733
  332MOL0     C44745   2.976   0.042   6.936  0.9934 -0.0938 -0.7757
  332MOL0     C44746   2.975   0.015   6.782  0.6118 -0.0629  0.6547
  332MOL0     C44747   3.034   0.138   6.706  0.3685  0.1397  0.0281
  332MOL0     C44748   2.949   0.252   6.703 -0.4052  0.5755 -0.5233
  332MOL0     C44749   2.865   0.342   6.698 -0.3872  0.5732  0.2695
  332MOL0     C44750   3.439  -0.036   7.007  1.1457  0.0074  0.8081
  332MOL0     C44751   3.573  -0.001   7.021  0.5697 -0.1902  0.2635
  332MOL0     C44752   3.677  -0.110   7.011 -0.3689 -0.2966  0.7894
  332MOL0     H44753   3.960   0.331   6.843 -2.2157  0.3372  0.1020
  332MOL0     H44754   4.171   0.455   6.896 -0.8965  1.3749 -0.4166
  332MOL0     H44755   4.163   0.683   6.941  2.6032 -1.4227 -0.3634
  332MOL0     H44756   4.118   0.783   7.081  2.3733  3.0576 -0.0842
  332MOL0     H44757   4.316   0.866   6.939 -1.1368 -1.2033 -0.5716
  332MOL0     H44758   4.416   0.751   7.037  2.7207  2.0619  0.3743
  332MOL0     H44759   4.228   0.926   7.172  0.9108  2.7463 -0.9094
  332MOL0     H44760   4.382   0.986   7.112  0.2106  1.1013  2.4937
  332MOL0     H44761   4.379   0.731   7.294  2.9088  0.2176  1.8519
  332MOL0     H44762   4.503   0.832   7.273  0.6860 -1.2332 -2.6447
  332MOL0     H44763   4.372   1.031   7.377  2.1226 -0.4416  0.8179
  332MOL0     H44764   4.244   0.906   7.403  0.1103 -1.0900 -1.7937
  332MOL0     H44765   4.410   0.755   7.523 -0.3773  0.1892 -1.1907
  332MOL0     H44766   4.532   0.879   7.520 -0.0821  1.5715 -0.4516
  332MOL0     H44767   4.255   0.913   7.644  0.1205  2.9927 -1.9924
  332MOL0     H44768   4.372   1.048   7.625  2.5169  0.6111 -0.0817
  332MOL0     H44769   4.374   0.943   7.860  0.4579  2.6171 -1.1119
  332MOL0     H44770   4.438   0.791   7.797  0.6739 -0.3430 -1.2858
  332MOL0     H44771   4.554   1.145   7.838 -0.6545 -0.6541  0.7560
  332MOL0     H44772   4.793   1.245   7.893  1.0381  1.4669  0.0465
  332MOL0     H44773   4.926   1.136   7.856 -1.1918 -5.6120 -0.1744
  332MOL0     H44774   4.937   1.346   7.728  1.2598  0.7870 -3.1953
  332MOL0     H44775   4.897   1.206   7.621  1.6868  0.3939  1.7505
  332MOL0     H44776   4.733   1.420   7.730 -2.1113 -0.1207  0.1979
  332MOL0     H44777   4.660   1.280   7.633 -2.0492  0.8276 -0.3012
  332MOL0     H44778   4.764   1.333   7.431 -2.5192 -0.1476  1.7498
  332MOL0     H44779   4.887   1.439   7.514  0.7601  1.3784  0.5174
  332MOL0     H44780   4.788   1.734   7.351 -0.6504  0.5708  0.7268
  332MOL0     H44781   4.670   1.805   7.140  0.0919 -0.3973 -0.5231
  332MOL0     H44782   4.608   1.758   6.754  0.5446  0.5164 -1.9757
  332MOL0     H44783   4.515   1.834   6.526  0.6583  0.1643  0.7836
  332MOL0     H44784   4.267   1.921   6.302  2.6444  2.2359  0.5432
  332MOL0     H44785   4.347   1.784   6.380 -0.8966  0.4819 -1.4829
  332MOL0     H44786   4.124   1.703   6.367 -1.7663 -0.2751  0.9008
  332MOL0     H44787   4.186   1.742   6.528  1.7165 -0.2212 -1.9394
  332MOL0     H44788   3.946   1.796   6.484  1.6804 -0.8340  3.7543
  332MOL0     H44789   4.042   1.933   6.538  1.2489  0.9237 -1.1268
  332MOL0     H44790   3.962   1.866   6.251  0.2389 -0.6318  1.0546
  332MOL0     H44791   4.056   2.009   6.299 -0.4823 -0.0039 -1.3191
  332MOL0     H44792   3.762   1.953   6.370  0.2507 -0.7237  1.0562
  332MOL0     H44793   3.832   2.075   6.247  2.3132 -0.5240  0.3192
  332MOL0     H44794   3.870   2.075   6.547  2.0265  1.9218  0.6176
  332MOL0     H44795   3.947   2.185   6.444 -0.7921  0.6987 -1.6840
  332MOL0     H44796   3.642   2.158   6.446 -0.4000  0.1044 -0.4026
  332MOL0     H44797   3.743   2.300   6.385 -0.7780  0.9834  1.3432
  332MOL0     H44798   3.810   2.359   6.596  0.3546  0.7266  1.4583
  332MOL0     H44799   3.634   2.373   6.576 -1.0761 -1.1736 -1.4350
  332MOL0     H44800   4.193   2.009   6.719  1.1042  3.4225 -0.0232
  332MOL0     H44801   4.259   1.931   6.938 -1.4900 -2.1676  0.4066
  332MOL0     H44802   4.386   1.483   7.196 -0.5531  1.4092  1.2211
  332MOL0     H44803   4.515   1.398   7.379  2.8526 -1.9830 -1.2442
  332MOL0     H44804   4.016   0.548   7.285 -2.6525  2.6018 -0.8698
  332MOL0     H44805   3.847   0.366   7.257  1.6052 -0.5358  0.2372
  332MOL0     H44806   3.519   0.320   7.141 -0.3168  1.3081 -0.7863
  332MOL0     H44807   3.282   0.246   7.104 -2.3333 -2.6729 -0.2861
  332MOL0     H44808   3.137   0.196   6.958  0.9592 -0.3971  2.2404
  332MOL0     H44809   3.070   0.126   7.101  0.3683  1.4275  1.1715
  332MOL0     H44810   2.888   0.101   6.963  1.0607 -0.2137 -0.2654
  332MOL0     H44811   2.956  -0.046   6.998  0.9039  1.3249  1.3557
  332MOL0     H44812   2.876  -0.017   6.750  0.3114  0.0530  1.4329
  332MOL0     H44813   3.038  -0.072   6.763  1.4994  0.4335  1.2345
  332MOL0     H44814   3.130   0.166   6.752 -0.5670 -0.3507  2.4196
  332MOL0     H44815   3.043   0.118   6.599 -0.4350  2.3148 -0.5032
  332MOL0     H44816   2.795   0.422   6.695 -0.7845  0.2056 -0.6477
  332MOL0     H44817   3.412  -0.138   6.984  0.8394  0.7384 -2.5273
  332MOL0     H44818   3.732  -0.125   7.105 -3.3662 -1.2234  2.5171
  332MOL0     H44819   3.627  -0.207   7.011  0.3681 -0.6872  0.6280
  332MOL0     H44820   3.743  -0.091   6.925  1.3115  0.3338  2.1607
  333MOL0     O44821   5.515  10.255   6.688 -0.0989 -0.0488 -0.3677
  333MOL0     C44822   5.438  10.313   6.609  0.1386  1.1911  0.5378
  333MOL0     O44823   5.474  10.400   6.509 -0.0405 -1.3053 -0.2595
  333MOL0     C44824   5.588  10.478   6.546 -0.5877  0.3044 -0.1808
  333MOL0     C44825   5.683  10.508   6.445 -0.0950  0.4798 -0.1072
  333MOL0     C44826   5.778  10.602   6.466 -0.1072 -0.9107 -0.1156
  333MOL0     C44827   5.806  10.647   6.601 -0.1123 -0.9144  0.5183
  333MOL0     O44828   5.916  10.727   6.639  0.4672 -0.0020  0.2137
  333MOL0     C44829   6.046  10.665   6.630  0.3051 -0.5733 -0.4641
  333MOL0     C44830   6.170  10.755   6.611 -0.4139  0.0367 -0.1986
  333MOL0     C44831   6.193  10.857   6.724 -0.0680  1.0248  0.1801
  333MOL0     C44832   6.297  10.807   6.826 -0.2053 -0.5932 -0.2910
  333MOL0     C44833   6.324  10.897   6.950 -0.4784 -0.2406  0.0544
  333MOL0     C44834   6.445  10.850   7.033  0.8040  0.4638 -0.1375
  333MOL0     C44835   6.516  10.962   7.090  0.3603  0.0867 -0.3090
  333MOL0     C44836   6.436  11.026   7.199 -0.4572 -0.4139 -0.4542
  333MOL0     N44837   6.497  11.149   7.248 -0.0589  0.2141  0.1098
  333MOL0     C44838   6.549  11.255   7.172 -0.2264  0.3120 -0.2559
  333MOL0     C44839   6.569  11.361   7.258 -0.5860 -0.1857  0.4894
  333MOL0     C44840   6.621  11.501   7.227 -0.1741 -0.0055  0.3074
  333MOL0     C44841   6.760  11.506   7.158  0.4014 -0.1836 -0.3161
  333MOL0     C44842   6.804  11.649   7.180 -0.8927  0.2315  1.1948
  333MOL0     C44843   6.959  11.668   7.144  0.2897 -1.0978  0.0169
  333MOL0     O44844   6.974  11.631   7.008 -0.4540  1.0022  0.1644
  333MOL0     C44845   7.102  11.621   6.947  0.6937  0.0970  0.2038
  333MOL0     C44846   7.099  11.589   6.811 -0.5038  0.0437 -0.2949
  333MOL0     C44847   7.225  11.570   6.744  0.1372 -0.6617 -0.1201
  333MOL0     C44848   7.350  11.558   6.811  0.6237  0.7529  0.5887
  333MOL0     C44849   7.475  11.508   6.744  0.0440 -0.9087  1.2691
  333MOL0     O44850   7.590  11.476   6.826 -0.1098 -0.8461 -0.0072
  333MOL0     C44851   7.698  11.415   6.778 -0.5665 -0.3725  0.0644
  333MOL0     C44852   7.782  11.474   6.688  0.7200  0.6770 -0.2757
  333MOL0     C44853   7.878  11.395   6.628 -0.6268 -0.2563  0.6798
  333MOL0     C44854   7.910  11.261   6.665 -0.0779  0.2224 -0.0872
  333MOL0     O44855   8.006  11.185   6.609 -0.4072 -0.5544 -0.4159
  333MOL0     C44856   8.142  11.243   6.615  0.4320  0.9774 -0.0572
  333MOL0     C44857   8.231  11.121   6.563  0.1531  0.0448  0.1758
  333MOL0     C44858   8.383  11.149   6.574  0.1740 -0.0239  0.4994
  333MOL0     C44859   8.470  11.059   6.656  0.2924  0.1952  0.1816
  333MOL0     C44860   8.615  11.103   6.658 -0.7076  0.4043 -1.3773
  333MOL0     C44861   8.696  11.080   6.527  0.1074  0.3601 -0.0337
  333MOL0     C44862   8.846  11.105   6.530 -0.6695  0.4654  0.3271
  333MOL0     C44863   8.914  11.013   6.635  0.6635 -0.4353 -0.6056
  333MOL0    Cl44864   8.902  10.837   6.609 -0.1351  0.2407  0.0797
  333MOL0     C44865   7.823  11.208   6.765 -0.8240  0.3239 -0.0511
  333MOL0     C44866   7.718  11.285   6.812 -0.1109  0.3775 -0.5657
  333MOL0     O44867   7.465  11.480   6.618  1.1564  0.3912 -0.2413
  333MOL0     C44868   7.347  11.598   6.952  0.3717 -0.1037 -0.0869
  333MOL0     C44869   7.224  11.641   7.018  0.5484  0.8354 -0.4856
  333MOL0     N44870   6.539  11.313   7.387  0.1003 -0.7381  0.3929
  333MOL0     N44871   6.489  11.200   7.371  0.5183  0.0696  0.0971
  333MOL0     C44872   5.706  10.633   6.696 -0.7249  0.6345 -0.6340
  333MOL0     C44873   5.605  10.541   6.675  0.4346  1.1684  1.3371
  333MOL0     C44874   5.293  10.264   6.608  0.2149  0.0331  0.0609
  333MOL0     C44875   5.270  10.126   6.614 -0.2525  0.7346  0.0745
  333MOL0     C44876   5.140  10.082   6.614  0.5274 -1.1907  0.4122
  333MOL0     C44877   5.034  10.168   6.595 -0.2266 -0.3264 -0.8681
  333MOL0     O44878   4.909  10.109   6.596 -0.7239  0.3994 -0.3036
  333MOL0     C44879   4.896   9.977   6.515  0.3278 -0.1266  0.9030
  333MOL0     C44880   4.762   9.972   6.459 -0.1472  0.4623  0.0189
  333MOL0     C44881   4.737  10.068   6.349 -0.6979 -0.4245  0.0399
  333MOL0     C44882   4.582  10.061   6.302 -0.5383 -0.0011  0.2183
  333MOL0     C44883   4.491  10.119   6.402  0.7837 -0.0549  0.7657
  333MOL0     C44884   4.426  10.179   6.490 -0.3536 -0.0574 -0.5221
  333MOL0     C44885   5.045  10.305   6.595 -1.2633  0.0889  0.4612
  333MOL0     C44886   5.178  10.355   6.590  0.6055  0.3844  0.0341
  333MOL0     C44887   5.197  10.500   6.576  0.2937 -0.2609  1.2355
  333MOL0     H44888   5.693  10.461   6.348 -0.9966 -0.6475  0.3310
  333MOL0     H44889   5.849  10.641   6.394 -2.7342 -2.6055 -3.9797
  333MOL0     H44890   6.071  10.624   6.728  1.6307  2.0457  0.3885
  333MOL0     H44891   6.049  10.579   6.562 -0.4425 -3.8218  3.2815
  333MOL0     H44892   6.166  10.795   6.510 -1.0138 -0.0367 -0.2076
  333MOL0     H44893   6.256  10.688   6.619 -0.0319  0.6915  1.9578
  333MOL0     H44894   6.099  10.900   6.760  0.1172  2.0281 -0.4715
  333MOL0     H44895   6.255  10.935   6.678 -1.2589  0.8728 -1.8254
  333MOL0     H44896   6.277  10.706   6.862  2.8072 -0.7413  1.2953
  333MOL0     H44897   6.389  10.807   6.767 -0.3482 -0.2857 -0.5174
  333MOL0     H44898   6.344  10.999   6.916  0.1521  0.4240  2.2474
  333MOL0     H44899   6.243  10.896   7.024  0.2804 -0.5304  0.8923
  333MOL0     H44900   6.398  10.786   7.108 -1.9349 -0.1572 -2.1992
  333MOL0     H44901   6.509  10.790   6.968  3.4259  5.2176 -2.4710
  333MOL0     H44902   6.557  11.025   7.010  0.2765 -0.6061 -0.9073
  333MOL0     H44903   6.605  10.923   7.140 -0.0328  0.1405  0.4475
  333MOL0     H44904   6.339  11.065   7.168  0.4964  0.6647 -2.2469
  333MOL0     H44905   6.428  10.958   7.285  1.1604  2.1128  1.8869
  333MOL0     H44906   6.561  11.253   7.064  0.2520 -3.3227 -0.2591
  333MOL0     H44907   6.546  11.549   7.163 -0.5174  2.5062  2.4378
  333MOL0     H44908   6.613  11.561   7.318  1.0634  0.6012  0.0481
  333MOL0     H44909   6.823  11.440   7.218 -0.3607 -1.6148 -1.0578
  333MOL0     H44910   6.764  11.467   7.056  5.0641 -1.9989  0.2685
  333MOL0     H44911   6.796  11.665   7.288  0.6807 -3.0432  1.9441
  333MOL0     H44912   6.745  11.712   7.114 -1.9852 -2.3775 -0.4980
  333MOL0     H44913   7.009  11.600   7.214 -0.0383 -0.0481  1.3105
  333MOL0     H44914   6.986  11.771   7.168 -0.6259 -1.1392  1.3380
  333MOL0     H44915   7.002  11.584   6.762  0.3385  2.7280 -2.5023
  333MOL0     H44916   7.221  11.554   6.637  0.6476 -1.6661 -0.0110
  333MOL0     H44917   7.776  11.579   6.663 -1.5085  0.5294 -0.5660
  333MOL0     H44918   7.932  11.427   6.540 -1.3215 -2.4310 -0.6058
  333MOL0     H44919   8.139  11.325   6.542 -1.0317 -0.2171 -1.4136
  333MOL0     H44920   8.178  11.275   6.714  2.7369  1.5945 -1.0419
  333MOL0     H44921   8.202  11.028   6.612 -0.0238 -0.8035 -1.4966
  333MOL0     H44922   8.205  11.117   6.457  1.3682  1.0909 -0.1924
  333MOL0     H44923   8.423  11.175   6.476 -2.3336  1.3050 -0.2724
  333MOL0     H44924   8.394  11.249   6.617  1.7227  0.0422  0.0225
  333MOL0     H44925   8.482  10.958   6.614  0.7498  0.1735  0.3563
  333MOL0     H44926   8.424  11.053   6.755 -2.2552 -0.8144 -0.9763
  333MOL0     H44927   8.669  11.039   6.729  0.3297  1.5935 -1.0508
  333MOL0     H44928   8.619  11.210   6.682 -2.1842  0.1328  0.2994
  333MOL0     H44929   8.680  10.976   6.500 -4.1122  0.1544  2.4456
  333MOL0     H44930   8.644  11.141   6.453 -1.2849 -1.8745 -0.9774
  333MOL0     H44931   8.871  11.208   6.558  0.0630  0.8160 -1.4885
  333MOL0     H44932   8.899  11.084   6.436 -1.5617  1.4181 -0.4137
  333MOL0     H44933   9.021  11.034   6.628  1.7242 -5.3992 -3.8158
  333MOL0     H44934   8.890  11.041   6.739  1.3542 -1.6754 -0.0895
  333MOL0     H44935   7.829  11.102   6.788 -2.3125  0.4262  0.9867
  333MOL0     H44936   7.654  11.238   6.886  2.4382  0.4488  1.8453
  333MOL0     H44937   7.434  11.612   7.016  2.7415  0.3246 -3.1398
  333MOL0     H44938   7.243  11.651   7.124  3.3382 -3.3308 -0.3346
  333MOL0     H44939   5.725  10.674   6.795 -2.5185  1.2431 -0.5131
  333MOL0     H44940   5.519  10.549   6.740 -1.0808 -0.5614 -0.2965
  333MOL0     H44941   5.353  10.057   6.612  0.6434  1.7909 -1.5771
  333MOL0     H44942   5.111   9.978   6.607 -2.6702 -0.3021 -3.1641
  333MOL0     H44943   4.914   9.903   6.593 -1.4310 -1.0257  0.5208
  333MOL0     H44944   4.962   9.970   6.429 -1.6981  0.1303 -0.7611
  333MOL0     H44945   4.695   9.985   6.544 -1.6089 -2.2719 -0.6301
  333MOL0     H44946   4.738   9.875   6.416  2.0464 -0.1261  0.0294
  333MOL0     H44947   4.794  10.045   6.258 -0.9935  0.9075 -0.5181
  333MOL0     H44948   4.765  10.170   6.377  1.9806 -0.4678 -2.0005
  333MOL0     H44949   4.558  10.107   6.206  0.6182 -0.4386 -0.2989
  333MOL0     H44950   4.550   9.956   6.296  1.3611 -0.5976  0.0006
  333MOL0     H44951   4.363  10.231   6.558  1.7606  1.9252  0.0666
  333MOL0     H44952   4.957  10.365   6.572 -0.8795  1.8133  3.1801
  333MOL0     H44953   5.296  10.537   6.602  0.1501  0.8967  0.2083
  333MOL0     H44954   5.162  10.535   6.478 -0.5970 -2.2151  0.7965
  333MOL0     H44955   5.132  10.551   6.647  1.1974 -0.1350  1.9905
  334MOL0     O44956  11.358   5.341   8.785  0.4990 -0.0444  0.7286
  334MOL0     C44957  11.473   5.358   8.826 -0.3619 -0.2948  1.2344
  334MOL0     O44958  11.527   5.478   8.857 -0.4946 -0.3464 -0.8883
  334MOL0     C44959  11.441   5.587   8.865  1.0109 -0.7082 -0.9274
  334MOL0     C44960  11.495   5.708   8.821 -0.6116  0.5403 -0.6414
  334MOL0     C44961  11.433   5.827   8.845  0.5602  0.4243  0.2689
  334MOL0     C44962  11.308   5.828   8.907  0.8139 -0.0945 -0.2653
  334MOL0     O44963  11.233   5.941   8.917 -0.6852 -0.1985  0.1269
  334MOL0     C44964  11.289   6.027   9.016 -0.4663 -0.0430  1.1087
  334MOL0     C44965  11.197   6.154   9.023 -0.2897  0.0846  0.9551
  334MOL0     C44966  11.225   6.248   8.912 -0.2741 -0.6899 -0.9682
  334MOL0     C44967  11.208   6.404   8.942 -1.1363  0.5113 -0.7363
  334MOL0     C44968  11.070   6.442   8.981 -0.3807  0.3160 -0.1810
  334MOL0     C44969  10.979   6.455   8.867 -0.8494 -0.7273 -0.3130
  334MOL0     C44970  10.833   6.489   8.905  0.4418  0.1796 -0.1852
  334MOL0     C44971  10.759   6.371   8.983 -0.5681  0.6834  0.4248
  334MOL0     N44972  10.686   6.421   9.101  0.1949 -0.2886 -0.3211
  334MOL0     C44973  10.749   6.462   9.220 -0.1956  0.6356  0.6722
  334MOL0     C44974  10.649   6.492   9.296 -0.7419  0.4871 -0.1358
  334MOL0     C44975  10.642   6.528   9.447 -0.3953  0.7869  0.4915
  334MOL0     C44976  10.708   6.433   9.543  0.0161  0.1473  0.7208
  334MOL0     C44977  10.661   6.296   9.528 -0.3587 -0.1499  0.3942
  334MOL0     C44978  10.706   6.203   9.649 -0.0353 -0.3668  0.4231
  334MOL0     O44979  10.854   6.195   9.636 -0.3273 -0.2259 -0.1504
  334MOL0     C44980  10.940   6.098   9.676  0.1326 -0.4751  0.5462
  334MOL0     C44981  11.073   6.118   9.684 -0.3320  0.3704 -0.1146
  334MOL0     C44982  11.155   6.019   9.728  0.1800  0.2696 -0.6970
  334MOL0     C44983  11.114   5.890   9.769  0.0051  0.0027 -0.7140
  334MOL0     C44984  11.216   5.786   9.786 -0.3480  0.6391  0.0845
  334MOL0     O44985  11.169   5.656   9.820 -0.2358 -0.2558 -1.1262
  334MOL0     C44986  11.263   5.566   9.846 -0.1982 -0.1690 -0.6607
  334MOL0     C44987  11.321   5.563   9.967  0.2682 -0.3761  0.8264
  334MOL0     C44988  11.421   5.464  10.002 -0.1872 -0.4731  0.2905
  334MOL0     C44989  11.456   5.372   9.909 -0.0711 -1.1013 -0.0158
  334MOL0     O44990  11.547   5.272   9.921  0.4948 -0.5111 -0.2376
  334MOL0     C44991  11.600   5.241  10.053 -0.1708 -0.0741 -1.1252
  334MOL0     C44992  11.714   5.136  10.050 -1.2969  0.1122 -0.7756
  334MOL0     C44993  11.806   5.146  10.178  0.0327  0.2858 -0.0283
  334MOL0     C44994  11.918   5.039  10.153 -0.1342 -0.3550 -0.1840
  334MOL0     C44995  12.031   5.056  10.255  0.2532 -0.8005  0.6804
  334MOL0     C44996  12.137   4.949  10.240 -0.2464 -0.0783  1.0304
  334MOL0     C44997  12.258   4.980  10.335 -0.7436  0.9896 -0.1172
  334MOL0     C44998  12.366   4.869  10.315  0.4936  0.9958 -0.2321
  334MOL0    Cl44999  12.528   4.935  10.347  0.2439  0.3415 -0.4304
  334MOL0     C45000  11.398   5.374   9.781 -0.4861 -0.5901  0.0495
  334MOL0     C45001  11.295   5.469   9.760  0.1680  0.2670 -0.4517
  334MOL0     O45002  11.333   5.821   9.754 -0.4267  0.1755 -0.1737
  334MOL0     C45003  10.982   5.869   9.765 -0.0896 -0.4384  0.0772
  334MOL0     C45004  10.898   5.967   9.710  0.1272 -0.3520  1.3263
  334MOL0     N45005  10.530   6.481   9.222 -0.9784  0.0445  0.4333
  334MOL0     N45006  10.555   6.436   9.105  0.5654 -0.1013 -0.2741
  334MOL0     C45007  11.253   5.710   8.950 -0.4110 -0.7530 -0.4347
  334MOL0     C45008  11.323   5.593   8.937 -0.4735  0.7364 -0.0062
  334MOL0     C45009  11.550   5.230   8.828  0.6584  0.7560  0.5409
  334MOL0     C45010  11.674   5.232   8.774  0.3482  0.2579  0.2036
  334MOL0     C45011  11.754   5.123   8.781 -0.2514  0.0723  0.1925
  334MOL0     C45012  11.718   5.011   8.851 -0.2392  1.7222  0.5495
  334MOL0     O45013  11.787   4.895   8.872  0.0889  0.5466 -0.1317
  334MOL0     C45014  11.899   4.860   8.796  0.5699  0.2864 -0.7115
  334MOL0     C45015  12.023   4.908   8.863  0.3824 -0.1014  0.6123
  334MOL0     C45016  12.141   4.901   8.770 -0.4554 -0.3118  1.4962
  334MOL0     C45017  12.276   4.940   8.833  0.2695 -0.4073 -0.0895
  334MOL0     C45018  12.314   4.844   8.935 -0.2487 -0.5929 -0.1966
  334MOL0     C45019  12.350   4.772   9.024  0.9945 -0.1850  0.9963
  334MOL0     C45020  11.590   5.010   8.906  0.1683 -0.5951 -0.4278
  334MOL0     C45021  11.501   5.117   8.900  0.1256  0.0354  0.1043
  334MOL0     C45022  11.369   5.103   8.979  0.1169 -0.3982  0.5042
  334MOL0     H45023  11.588   5.694   8.767  0.5269 -0.3772  1.4453
  334MOL0     H45024  11.463   5.923   8.803  2.2418 -0.5906 -0.9616
  334MOL0     H45025  11.279   5.962   9.103 -2.9911 -0.7192  0.4032
  334MOL0     H45026  11.394   6.051   8.997 -0.0459 -1.0402  2.0630
  334MOL0     H45027  11.206   6.205   9.119 -0.5863 -1.7058  1.9653
  334MOL0     H45028  11.094   6.116   9.023 -0.5112  0.6547  1.8362
  334MOL0     H45029  11.152   6.225   8.834  0.5754  0.2682 -2.0689
  334MOL0     H45030  11.325   6.224   8.875  1.0089  0.0801  1.7553
  334MOL0     H45031  11.289   6.431   9.011  1.1371 -0.2921 -2.9513
  334MOL0     H45032  11.236   6.454   8.849 -1.1937  0.7950 -0.6034
  334MOL0     H45033  11.029   6.377   9.060  0.5485 -0.4416 -0.3092
  334MOL0     H45034  11.083   6.535   9.037 -0.9623  0.4532 -0.2649
  334MOL0     H45035  11.011   6.533   8.798  2.0174 -3.6527 -2.6126
  334MOL0     H45036  10.980   6.370   8.797  0.6026  0.2871 -1.6034
  334MOL0     H45037  10.766   6.523   8.825  0.0861  0.1333  0.0889
  334MOL0     H45038  10.849   6.571   8.976  4.6406  0.9735 -1.7781
  334MOL0     H45039  10.683   6.320   8.922 -3.2128  3.1255  1.4635
  334MOL0     H45040  10.831   6.301   9.026  0.6779  1.5662 -0.1732
  334MOL0     H45041  10.851   6.457   9.258 -0.6645 -3.9009  1.8464
  334MOL0     H45042  10.687   6.627   9.457 -0.8396  0.8096  2.7019
  334MOL0     H45043  10.538   6.545   9.475  0.1082  1.3803  2.0748
  334MOL0     H45044  10.816   6.443   9.532  0.6791  0.5522  5.3160
  334MOL0     H45045  10.690   6.468   9.646  1.0044 -2.4903  1.8692
  334MOL0     H45046  10.710   6.246   9.444  1.2741  1.3825  0.3730
  334MOL0     H45047  10.553   6.302   9.510 -0.4213 -2.6123 -0.4212
  334MOL0     H45048  10.657   6.108   9.629 -0.8046  0.0332  0.3749
  334MOL0     H45049  10.665   6.223   9.749 -0.5412 -2.4113  0.6769
  334MOL0     H45050  11.107   6.212   9.643  1.1313  0.0442  0.2649
  334MOL0     H45051  11.262   6.034   9.726  0.5756 -1.4060  2.3051
  334MOL0     H45052  11.283   5.623  10.049 -0.0912  1.0350 -0.3406
  334MOL0     H45053  11.459   5.472  10.103 -2.2511 -1.0135  1.1571
  334MOL0     H45054  11.646   5.327  10.100  1.9519 -1.1441 -1.1247
  334MOL0     H45055  11.521   5.203  10.118  1.6332 -1.2792  0.4654
  334MOL0     H45056  11.678   5.033  10.046 -0.6304 -0.1453 -0.2218
  334MOL0     H45057  11.772   5.159   9.961 -2.5964  0.4365 -1.5738
  334MOL0     H45058  11.830   5.253  10.173 -5.2158  1.9351  2.7147
  334MOL0     H45059  11.761   5.134  10.277  2.2729  0.7007  1.1091
  334MOL0     H45060  11.959   5.048  10.052  0.4365 -1.9818 -0.1196
  334MOL0     H45061  11.869   4.942  10.163 -1.3604  0.3725  1.0962
  334MOL0     H45062  11.993   5.062  10.357  0.3116  1.4639  0.6237
  334MOL0     H45063  12.080   5.153  10.239  0.3552 -0.9609 -0.0302
  334MOL0     H45064  12.098   4.850  10.264 -1.9845  0.7777  1.9271
  334MOL0     H45065  12.171   4.945  10.136 -2.5443  2.5816  0.0533
  334MOL0     H45066  12.226   4.983  10.440 -1.0835  0.8222 -0.2118
  334MOL0     H45067  12.301   5.077  10.309 -1.0305  0.8927 -0.9929
  334MOL0     H45068  12.342   4.781  10.377 -1.3966  1.9418  0.4620
  334MOL0     H45069  12.359   4.838  10.210  0.1847 -1.0948  0.3535
  334MOL0     H45070  11.427   5.297   9.710  0.1102 -1.9256  1.6810
  334MOL0     H45071  11.232   5.461   9.672  0.4259  1.5319 -0.7682
  334MOL0     H45072  10.942   5.770   9.785 -1.5864 -0.0052 -0.6585
  334MOL0     H45073  10.791   5.957   9.729 -0.3959  3.0635  0.7172
  334MOL0     H45074  11.146   5.703   8.969 -0.2498 -1.8285  0.1672
  334MOL0     H45075  11.297   5.498   8.982  0.4239  0.6598  0.3695
  334MOL0     H45076  11.719   5.320   8.728  3.7819 -2.3772 -2.0061
  334MOL0     H45077  11.846   5.129   8.724 -0.6844 -0.7926 -0.6284
  334MOL0     H45078  11.887   4.906   8.697 -1.6592 -3.4306 -2.4193
  334MOL0     H45079  11.893   4.751   8.781 -0.3228  0.1531  0.4929
  334MOL0     H45080  12.045   4.850   8.954  0.2112 -1.8190 -0.3885
  334MOL0     H45081  12.021   5.012   8.897  1.7018 -0.0967  0.7260
  334MOL0     H45082  12.136   4.972   8.686  4.6328 -0.5201  0.6560
  334MOL0     H45083  12.156   4.801   8.728 -3.2488 -0.4580  0.6282
  334MOL0     H45084  12.363   4.935   8.767  1.1011  3.8155  0.4322
  334MOL0     H45085  12.282   5.040   8.875  2.2911 -0.0347 -1.1383
  334MOL0     H45086  12.375   4.707   9.106 -1.3106 -1.2536  0.9212
  334MOL0     H45087  11.578   4.919   8.963  0.7197 -0.0932  0.5142
  334MOL0     H45088  11.356   5.185   9.050  1.8200  1.2222 -0.9536
  334MOL0     H45089  11.286   5.115   8.908  0.0608 -2.2083  0.2162
  334MOL0     H45090  11.364   5.014   9.042 -0.3523 -1.8034 -1.4200
  335MOL0     O45091  10.340   4.953   3.815  0.4203 -0.7772  0.2751
  335MOL0     C45092  10.446   4.992   3.871 -0.4529 -1.6232 -0.2911
  335MOL0     O45093  10.461   5.101   3.944  0.5075  0.6611  0.6934
  335MOL0     C45094  10.353   5.169   3.984  0.0893  0.4061 -0.1304
  335MOL0     C45095  10.263   5.110   4.073  0.3539  0.4918 -0.5139
  335MOL0     C45096  10.147   5.186   4.122  0.1560  0.3081 -0.2912
  335MOL0     C45097  10.130   5.311   4.075 -1.6201 -1.5306  0.5279
  335MOL0     O45098  10.042   5.392   4.133 -0.2478  0.8187  0.1800
  335MOL0     C45099   9.952   5.451   4.042 -0.0862 -0.6967  0.6295
  335MOL0     C45100   9.844   5.542   4.116 -0.0041  0.2467 -0.2096
  335MOL0     C45101   9.910   5.665   4.192  0.5981  0.8699  0.7981
  335MOL0     C45102   9.787   5.760   4.224 -0.2055 -0.7277 -0.3987
  335MOL0     C45103   9.831   5.888   4.309  0.4249  0.6742  1.2288
  335MOL0     C45104   9.727   5.996   4.288 -0.7781 -0.1188 -0.1074
  335MOL0     C45105   9.771   6.139   4.342  0.8889  0.6279  1.1359
  335MOL0     C45106   9.857   6.206   4.235  0.1382 -0.0129 -0.0294
  335MOL0     N45107   9.858   6.345   4.262  0.0364  0.8250  0.3648
  335MOL0     C45108   9.898   6.402   4.375  0.0777  0.6562  0.2723
  335MOL0     C45109   9.853   6.531   4.373  0.4554 -0.9286  0.3628
  335MOL0     C45110   9.859   6.625   4.485 -0.4386 -0.3873 -0.5121
  335MOL0     C45111   9.755   6.609   4.596 -0.3208 -0.1004  0.2958
  335MOL0     C45112   9.794   6.494   4.685  0.1256 -0.1289  0.4390
  335MOL0     C45113   9.705   6.456   4.803 -0.1852  0.6870  0.2548
  335MOL0     O45114   9.722   6.551   4.911  0.0851 -0.2571  0.0034
  335MOL0     C45115   9.637   6.525   5.018  0.5034  0.3473 -0.9289
  335MOL0     C45116   9.524   6.445   5.017 -0.0120  0.3042  0.6265
  335MOL0     C45117   9.442   6.421   5.131 -1.0477  1.9546  0.2696
  335MOL0     C45118   9.470   6.484   5.248 -0.3917 -1.0773 -0.8312
  335MOL0     C45119   9.377   6.464   5.368 -0.7077 -0.3754 -0.8108
  335MOL0     O45120   9.417   6.512   5.485 -0.1579  0.0399 -0.9867
  335MOL0     C45121   9.341   6.499   5.601 -0.0708 -0.2230 -0.5925
  335MOL0     C45122   9.317   6.605   5.691 -0.9451  0.7242 -0.7700
  335MOL0     C45123   9.265   6.588   5.819 -0.5304  0.6030  0.3097
  335MOL0     C45124   9.221   6.462   5.865 -0.0927  0.5383 -0.4298
  335MOL0     O45125   9.165   6.463   5.989  0.2869  0.2331 -0.6423
  335MOL0     C45126   9.076   6.358   6.036  0.1403 -0.8260 -0.4384
  335MOL0     C45127   9.052   6.376   6.193 -0.2257  0.3846  0.3856
  335MOL0     C45128   8.912   6.395   6.218  0.7140  1.4872 -0.1017
  335MOL0     C45129   8.844   6.515   6.137  0.4351  0.0521 -0.3150
  335MOL0     C45130   8.701   6.533   6.188  0.0251  0.3255 -0.3189
  335MOL0     C45131   8.640   6.665   6.129 -0.5825  0.1787  0.8932
  335MOL0     C45132   8.494   6.702   6.155 -0.3320  1.5648  0.1912
  335MOL0     C45133   8.399   6.610   6.075 -0.6889 -0.9404 -0.6648
  335MOL0    Cl45134   8.370   6.452   6.160 -0.1580  0.1208 -0.5206
  335MOL0     C45135   9.235   6.356   5.773 -0.2907  0.2406 -0.1879
  335MOL0     C45136   9.299   6.374   5.652 -0.3882 -0.1655 -0.0680
  335MOL0     O45137   9.273   6.408   5.353 -1.0284 -0.3897  0.0050
  335MOL0     C45138   9.591   6.566   5.243 -0.6625  0.6991 -1.7827
  335MOL0     C45139   9.673   6.574   5.137 -1.1133 -1.4170 -0.5132
  335MOL0     N45140   9.783   6.555   4.257 -0.1976  0.6794  0.4793
  335MOL0     N45141   9.794   6.442   4.191 -0.3961  0.3276  0.9992
  335MOL0     C45142  10.224   5.375   3.985 -0.4775 -0.0855 -0.1262
  335MOL0     C45143  10.322   5.294   3.934 -0.3847  0.1875 -0.2390
  335MOL0     C45144  10.563   4.928   3.836  0.7413  0.4619 -0.0957
  335MOL0     C45145  10.558   4.835   3.725  0.0784 -0.8265  0.4363
  335MOL0     C45146  10.671   4.753   3.692 -0.5055 -0.3518  0.1485
  335MOL0     C45147  10.781   4.750   3.772  0.4919 -0.1532 -0.6969
  335MOL0     O45148  10.892   4.662   3.768  0.0936  0.3118 -0.4426
  335MOL0     C45149  10.896   4.581   3.643  0.6537  0.6124 -0.5073
  335MOL0     C45150  10.843   4.432   3.666  0.1709 -0.4933 -1.0416
  335MOL0     C45151  10.935   4.359   3.761 -0.0815 -0.1415  0.3343
  335MOL0     C45152  10.903   4.216   3.771  0.1375  0.7840  0.8699
  335MOL0     C45153  10.964   4.142   3.880 -0.8103  1.0795 -0.8607
  335MOL0     C45154  11.016   4.078   3.970  0.0903  0.8263 -0.8079
  335MOL0     C45155  10.789   4.844   3.873  0.3398  0.4951  0.1419
  335MOL0     C45156  10.678   4.922   3.915  0.2461 -1.0530 -0.3631
  335MOL0     C45157  10.693   5.011   4.035  0.1799 -0.4096 -0.0690
  335MOL0     H45158  10.276   5.007   4.104 -3.9037  0.0974  0.5019
  335MOL0     H45159  10.068   5.142   4.182  0.2675  1.9953  1.1406
  335MOL0     H45160  10.010   5.523   3.983 -0.0052  0.3773  1.9586
  335MOL0     H45161   9.900   5.373   3.986 -0.4671  0.0702 -0.1162
  335MOL0     H45162   9.787   5.479   4.185 -0.7452  2.6489  1.5426
  335MOL0     H45163   9.767   5.572   4.044 -1.3088 -0.9668  0.6290
  335MOL0     H45164   9.986   5.715   4.130 -0.0961 -0.1683 -0.9664
  335MOL0     H45165   9.969   5.633   4.278  0.3827  1.1757  1.0587
  335MOL0     H45166   9.743   5.798   4.131  0.2572 -0.6900 -0.6007
  335MOL0     H45167   9.706   5.703   4.271  1.3477 -3.5376 -0.9543
  335MOL0     H45168   9.841   5.857   4.413  1.3972 -0.7845  0.7414
  335MOL0     H45169   9.922   5.919   4.256 -0.2102  1.5376  0.6151
  335MOL0     H45170   9.688   5.995   4.186 -2.0142 -2.1282  0.3176
  335MOL0     H45171   9.644   5.954   4.346  1.1044 -2.2554  1.2169
  335MOL0     H45172   9.819   6.133   4.441  0.0168  1.7096  1.6483
  335MOL0     H45173   9.680   6.197   4.359 -0.7105 -1.5115  0.3416
  335MOL0     H45174   9.958   6.166   4.232  1.6725  3.5183 -1.4236
  335MOL0     H45175   9.817   6.186   4.136  0.9886  1.9101 -0.8140
  335MOL0     H45176   9.958   6.369   4.460 -1.3949  0.5344  1.3085
  335MOL0     H45177   9.953   6.598   4.534 -2.2643 -3.6478  1.4455
  335MOL0     H45178   9.860   6.731   4.458 -0.4291  0.9343  3.8661
  335MOL0     H45179   9.736   6.697   4.658  0.6697  0.8312 -0.6914
  335MOL0     H45180   9.662   6.588   4.543 -0.2923  0.6662 -0.0756
  335MOL0     H45181   9.890   6.522   4.728 -0.7413  1.9451  1.1393
  335MOL0     H45182   9.795   6.401   4.628  0.2363 -1.4952  2.5453
  335MOL0     H45183   9.726   6.353   4.833  0.3856 -0.7272 -4.2907
  335MOL0     H45184   9.608   6.465   4.752  0.8959  0.8408 -1.8694
  335MOL0     H45185   9.495   6.400   4.922 -1.2280  1.5565  0.3656
  335MOL0     H45186   9.369   6.341   5.127  1.7746 -1.0088 -5.3147
  335MOL0     H45187   9.342   6.710   5.675  0.1296  0.8007  1.1781
  335MOL0     H45188   9.274   6.679   5.877 -1.4517  2.0016 -1.6188
  335MOL0     H45189   8.987   6.356   5.973  1.4939  0.2480 -2.5118
  335MOL0     H45190   9.120   6.259   6.017  0.2780 -0.6634 -0.9791
  335MOL0     H45191   9.081   6.294   6.259  0.5965 -1.9650 -2.6615
  335MOL0     H45192   9.106   6.465   6.224 -3.7128  2.7308  0.3107
  335MOL0     H45193   8.858   6.301   6.204  0.2686  0.6938  5.0547
  335MOL0     H45194   8.904   6.414   6.325  0.7419 -2.2170  0.6967
  335MOL0     H45195   8.831   6.501   6.029 -0.0126 -0.7924 -0.1563
  335MOL0     H45196   8.907   6.604   6.151  3.4659 -1.9066 -0.4968
  335MOL0     H45197   8.697   6.523   6.297 -1.7233  0.2467 -0.3682
  335MOL0     H45198   8.639   6.451   6.150  1.8832 -0.1681 -2.4938
  335MOL0     H45199   8.715   6.743   6.142  0.9663 -1.0898 -0.0166
  335MOL0     H45200   8.648   6.641   6.023  0.4974 -1.6924  1.3484
  335MOL0     H45201   8.464   6.806   6.139 -2.2483  0.9255 -0.8005
  335MOL0     H45202   8.469   6.679   6.259 -0.8342 -0.7966 -0.3920
  335MOL0     H45203   8.297   6.646   6.060 -0.3297  0.0697 -0.8106
  335MOL0     H45204   8.440   6.591   5.975  3.5750 -2.5521  1.1336
  335MOL0     H45205   9.213   6.255   5.803  0.0079  0.4907  0.9359
  335MOL0     H45206   9.323   6.285   5.594  5.2726 -2.3652  4.6064
  335MOL0     H45207   9.639   6.608   5.330 -1.5363 -0.1962 -0.8332
  335MOL0     H45208   9.766   6.628   5.151 -2.0677  0.3903 -0.8456
  335MOL0     H45209  10.228   5.479   3.953  1.8308 -0.4969 -1.3398
  335MOL0     H45210  10.387   5.329   3.855 -2.3945 -0.5535 -2.3233
  335MOL0     H45211  10.479   4.842   3.650 -0.6741 -1.0034  1.1914
  335MOL0     H45212  10.674   4.701   3.596  2.3333  2.1370 -1.2575
  335MOL0     H45213  11.002   4.583   3.614  0.4810  0.0660 -1.2004
  335MOL0     H45214  10.848   4.629   3.557 -2.0418 -0.7340  0.1512
  335MOL0     H45215  10.839   4.384   3.568  4.2034 -0.0176 -1.6212
  335MOL0     H45216  10.737   4.428   3.693  0.0014 -0.5311 -1.6904
  335MOL0     H45217  10.931   4.389   3.866 -0.0555  1.5597 -0.1308
  335MOL0     H45218  11.036   4.370   3.721 -0.6854  3.4724 -0.5400
  335MOL0     H45219  10.799   4.195   3.795  0.0698 -0.3315 -0.2686
  335MOL0     H45220  10.927   4.166   3.676  4.0524 -0.2409  2.2029
  335MOL0     H45221  11.047   4.024   4.057  0.1375  0.5480 -0.9943
  335MOL0     H45222  10.868   4.847   3.947 -0.1031  0.3948  0.6290
  335MOL0     H45223  10.615   4.994   4.109  0.0385 -0.2225 -0.1744
  335MOL0     H45224  10.793   4.991   4.076 -0.8408 -1.5169  1.9994
  335MOL0     H45225  10.698   5.116   4.003 -0.7746 -0.9286 -2.0788
  336MOL0     O45226   0.251   1.826   2.540  0.9399  0.6181 -0.4466
  336MOL0     C45227   0.157   1.748   2.577 -0.5169  0.2742 -0.3311
  336MOL0     O45228   0.154   1.617   2.538  0.4068  0.4299 -0.1714
  336MOL0     C45229   0.245   1.578   2.442 -0.8723 -0.3994  0.4768
  336MOL0     C45230   0.356   1.500   2.471 -0.4947 -0.1322 -0.5509
  336MOL0     C45231   0.456   1.473   2.380 -0.1736 -0.1141  0.3407
  336MOL0     C45232   0.441   1.515   2.241  0.6497 -0.1774 -0.6098
  336MOL0     O45233   0.532   1.481   2.163 -0.5187 -0.0517 -0.2371
  336MOL0     C45234   0.535   1.506   2.028 -1.1868 -0.0350  0.0254
  336MOL0     C45235   0.666   1.461   1.975  0.6787 -0.4277  0.5538
  336MOL0     C45236   0.692   1.305   1.989 -0.1982  0.3033 -0.0562
  336MOL0     C45237   0.841   1.276   1.955  0.0332 -1.0835 -1.0361
  336MOL0     C45238   0.866   1.128   1.966 -0.5070  0.3728 -1.0179
  336MOL0     C45239   0.891   1.069   2.108 -0.0981 -0.1288  0.3523
  336MOL0     C45240   0.897   0.920   2.101  0.1570 -0.1125  0.0072
  336MOL0     C45241   0.958   0.860   2.223 -0.9130 -0.8210 -0.2158
  336MOL0     N45242   0.941   0.713   2.237 -0.7143 -0.5454  0.7285
  336MOL0     C45243   0.982   0.625   2.139 -0.3986 -0.3600 -0.8305
  336MOL0     C45244   0.937   0.510   2.199 -0.0140  0.9663  0.1449
  336MOL0     C45245   0.987   0.375   2.151 -0.0756 -0.6744 -0.0650
  336MOL0     C45246   0.931   0.254   2.213  0.9726  0.4047 -0.1166
  336MOL0     C45247   0.986   0.228   2.358 -0.0196  0.0068  0.7921
  336MOL0     C45248   1.131   0.166   2.362 -0.1901 -0.4878 -1.1220
  336MOL0     O45249   1.131   0.033   2.317  0.4654  1.1914  0.1288
  336MOL0     C45250   1.224  -0.045   2.374 -0.1550  0.8750 -0.0594
  336MOL0     C45251   1.312  -0.116   2.291  0.6456 -0.0007 -0.9358
  336MOL0     C45252   1.401  -0.211   2.349 -0.3918 -0.5924 -0.2481
  336MOL0     C45253   1.415  -0.237   2.489  0.2897  0.1003 -0.1164
  336MOL0     C45254   1.515  -0.332   2.547 -0.2235 -0.3996  0.2915
  336MOL0     O45255   1.548  -0.318   2.678  0.9649 -0.7100  0.3338
  336MOL0     C45256   1.614  -0.420   2.729  0.0367  1.1044  0.1766
  336MOL0     C45257   1.552  -0.514   2.816 -0.4177 -0.2676 -0.6782
  336MOL0     C45258   1.632  -0.617   2.860  0.6876 -1.0871 -0.5590
  336MOL0     C45259   1.764  -0.635   2.834  0.4461  0.1977 -0.7400
  336MOL0     O45260   1.831  -0.750   2.865 -0.1371 -0.1503  0.0014
  336MOL0     C45261   1.770  -0.850   2.950  0.3749  0.9121 -0.5549
  336MOL0     C45262   1.869  -0.969   2.968  0.3030  0.5016 -0.4889
  336MOL0     C45263   1.991  -0.951   3.064  0.9566  0.1005  0.0914
  336MOL0     C45264   2.065  -1.082   3.077 -0.0610  0.0614  0.0231
  336MOL0     C45265   2.090  -1.123   3.218 -0.7016 -0.0566 -0.7772
  336MOL0     C45266   2.198  -1.233   3.231 -0.4747 -0.9561 -0.4525
  336MOL0     C45267   2.231  -1.239   3.375 -0.0981 -0.7283 -0.1223
  336MOL0     C45268   2.334  -1.122   3.416  0.6681 -0.5466  0.9137
  336MOL0    Cl45269   2.504  -1.184   3.441  0.3854 -0.1123 -0.3897
  336MOL0     C45270   1.818  -0.549   2.735 -1.0457 -1.1119 -0.4944
  336MOL0     C45271   1.745  -0.438   2.696  0.3863 -0.3474  0.4353
  336MOL0     O45272   1.535  -0.433   2.479  0.0892  0.0809 -0.2348
  336MOL0     C45273   1.321  -0.166   2.563 -0.6635  0.8069  0.7111
  336MOL0     C45274   1.223  -0.084   2.511  0.0082 -0.9216 -0.2298
  336MOL0     N45275   0.866   0.537   2.312  0.5565  0.2425  0.1077
  336MOL0     N45276   0.862   0.661   2.337  0.6029 -0.5248 -0.4444
  336MOL0     C45277   0.328   1.583   2.211 -0.0837 -0.9483  0.2113
  336MOL0     C45278   0.229   1.613   2.307 -0.5020  0.6461 -0.1302
  336MOL0     C45279   0.068   1.797   2.687  0.7361 -0.7754  0.6358
  336MOL0     C45280   0.061   1.936   2.711 -0.1589  0.3035  1.1550
  336MOL0     C45281  -0.028   1.997   2.802  0.0955  0.7182 -1.1655
  336MOL0     C45282  -0.108   1.921   2.890  0.1764  0.0209 -0.1576
  336MOL0     O45283  -0.202   1.967   2.979  0.0121 -0.5432 -0.5965
  336MOL0     C45284  -0.209   2.108   3.003 -0.0201  0.3765 -0.3537
  336MOL0     C45285  -0.080   2.175   3.064 -0.8762  0.0284  0.4208
  336MOL0     C45286  -0.027   2.121   3.199  0.6830 -0.4322  0.7113
  336MOL0     C45287  -0.134   2.098   3.305  0.1108 -0.6393 -0.3108
  336MOL0     C45288  -0.064   2.070   3.426  0.1054  0.0349 -0.3084
  336MOL0     C45289  -0.020   2.061   3.540 -0.6070  0.0222  0.9125
  336MOL0     C45290  -0.095   1.779   2.880 -0.5238  0.1017 -0.4894
  336MOL0     C45291  -0.020   1.714   2.776 -0.8915 -0.1166 -0.3493
  336MOL0     C45292  -0.030   1.565   2.774  0.2812 -0.2798 -1.2297
  336MOL0     H45293   0.373   1.468   2.573 -1.7021  1.7530  0.3056
  336MOL0     H45294   0.536   1.410   2.416 -0.2344  0.9358  2.4818
  336MOL0     H45295   0.458   1.449   1.975 -1.4869 -0.6757  1.1265
  336MOL0     H45296   0.526   1.613   2.007  0.1041  0.5250  2.0638
  336MOL0     H45297   0.745   1.518   2.024 -0.5196  2.7819 -0.9856
  336MOL0     H45298   0.669   1.494   1.870 -1.1436  0.2704  0.6915
  336MOL0     H45299   0.632   1.257   1.911  0.9992 -1.6754  0.1627
  336MOL0     H45300   0.673   1.272   2.092  0.1918 -0.1274 -0.1209
  336MOL0     H45301   0.867   1.299   1.852 -1.9350  1.1608 -1.1112
  336MOL0     H45302   0.909   1.335   2.016 -0.6533 -0.7444 -0.5829
  336MOL0     H45303   0.771   1.080   1.940 -0.8787  0.2061  0.5032
  336MOL0     H45304   0.949   1.100   1.901  1.7386  3.5175  0.2504
  336MOL0     H45305   0.987   1.115   2.134 -0.3053  0.7393 -0.3906
  336MOL0     H45306   0.820   1.105   2.184 -0.6178 -0.5190  0.0625
  336MOL0     H45307   0.953   0.893   2.011 -0.5202  0.9031 -0.7361
  336MOL0     H45308   0.790   0.896   2.097 -0.0563  0.4216  1.5833
  336MOL0     H45309   1.065   0.879   2.220 -0.9859 -0.4451 -2.7478
  336MOL0     H45310   0.916   0.918   2.306 -0.0296  1.5376 -1.3050
  336MOL0     H45311   1.040   0.626   2.047  3.2530 -3.1795  1.1646
  336MOL0     H45312   0.960   0.370   2.045 -3.4354 -4.2080  0.7233
  336MOL0     H45313   1.096   0.373   2.165  0.1856  1.1791 -1.3540
  336MOL0     H45314   0.822   0.249   2.214  1.0173 -2.9082 -0.1552
  336MOL0     H45315   0.970   0.167   2.159  2.3298  1.1769 -0.4253
  336MOL0     H45316   0.922   0.149   2.398 -0.6193 -1.3115 -2.4242
  336MOL0     H45317   0.987   0.310   2.430 -4.5536 -0.0119  1.1732
  336MOL0     H45318   1.163   0.161   2.467 -0.2620  0.5035 -1.0480
  336MOL0     H45319   1.196   0.237   2.310 -0.5841  1.2887  0.7114
  336MOL0     H45320   1.313  -0.093   2.185  2.4344 -2.4904 -1.5445
  336MOL0     H45321   1.473  -0.260   2.285  0.1073  1.4470 -1.3347
  336MOL0     H45322   1.447  -0.518   2.844 -1.2518  3.5029 -2.6924
  336MOL0     H45323   1.570  -0.683   2.918 -0.6641  0.0820 -0.6175
  336MOL0     H45324   1.751  -0.818   3.053 -0.3286 -1.4362  0.1201
  336MOL0     H45325   1.680  -0.895   2.906  1.0832 -0.6412 -0.4863
  336MOL0     H45326   1.812  -1.048   3.018  0.0913  2.2156  2.1946
  336MOL0     H45327   1.895  -0.994   2.865 -1.1838  0.4133 -0.8735
  336MOL0     H45328   2.036  -0.877   2.997 -3.1337  0.0084 -3.2528
  336MOL0     H45329   1.944  -0.909   3.153 -1.0772 -2.3961  0.3308
  336MOL0     H45330   2.166  -1.072   3.034  1.0967 -1.0161  2.3001
  336MOL0     H45331   2.023  -1.163   3.016 -3.0355  2.9027 -1.9868
  336MOL0     H45332   1.996  -1.167   3.252 -1.3399  0.1338 -2.2179
  336MOL0     H45333   2.106  -1.041   3.288  0.8241 -0.8376 -0.1587
  336MOL0     H45334   2.157  -1.326   3.189  0.3564 -2.0034  0.9585
  336MOL0     H45335   2.293  -1.213   3.182  0.3347 -1.5228  0.8211
  336MOL0     H45336   2.280  -1.335   3.393  1.2630  0.3637  2.6257
  336MOL0     H45337   2.144  -1.234   3.441  0.4895  1.0714  0.5737
  336MOL0     H45338   2.340  -1.054   3.330  3.0446  0.6479  1.9410
  336MOL0     H45339   2.297  -1.061   3.499  3.4635  2.3728  0.2073
  336MOL0     H45340   1.914  -0.569   2.689 -0.3456  0.4710  0.2021
  336MOL0     H45341   1.788  -0.373   2.620 -1.2228  1.3687  0.9248
  336MOL0     H45342   1.314  -0.189   2.669  0.5434  0.1129  0.6681
  336MOL0     H45343   1.157  -0.041   2.586  2.1549  3.8825 -0.7220
  336MOL0     H45344   0.321   1.616   2.108  1.3501  0.1605  0.4305
  336MOL0     H45345   0.132   1.660   2.296 -0.7571 -0.1527 -1.5287
  336MOL0     H45346   0.117   1.995   2.640  1.4034 -1.6083  0.7000
  336MOL0     H45347  -0.022   2.104   2.784 -1.1411  0.6064 -2.4460
  336MOL0     H45348  -0.295   2.132   3.067  1.7718 -0.4202  2.5313
  336MOL0     H45349  -0.227   2.167   2.913 -0.9463  0.2727 -0.2491
  336MOL0     H45350  -0.097   2.283   3.061 -2.9135 -0.2119 -3.0593
  336MOL0     H45351   0.008   2.156   3.002 -0.2556  0.5788  1.1254
  336MOL0     H45352   0.047   2.194   3.234  1.0013  0.3735 -1.4512
  336MOL0     H45353   0.032   2.029   3.191 -0.4189 -0.9907 -1.7478
  336MOL0     H45354  -0.180   2.194   3.328 -1.6848 -1.5356  0.0331
  336MOL0     H45355  -0.210   2.025   3.273 -3.0863  2.0606  0.5977
  336MOL0     H45356   0.002   2.041   3.643 -2.3153 -3.5718  0.7343
  336MOL0     H45357  -0.154   1.714   2.945 -0.7371  2.0730  1.3873
  336MOL0     H45358  -0.059   1.537   2.673 -0.4481  2.5808 -1.8960
  336MOL0     H45359   0.071   1.532   2.801 -1.0159 -2.9093  0.8727
  336MOL0     H45360  -0.089   1.530   2.859 -0.1725  2.6649 -0.2130
  337MOL0     O45361   0.142  10.311   5.297  0.4439 -0.0150  0.3267
  337MOL0     C45362   0.095  10.414   5.345 -0.6804 -0.3210  0.1388
  337MOL0     O45363  -0.027  10.465   5.321 -0.2543  0.3695 -0.2647
  337MOL0     C45364  -0.104  10.394   5.231  1.0124 -0.2799  0.9102
  337MOL0     C45365  -0.181  10.283   5.254  0.0976 -0.4520  0.3898
  337MOL0     C45366  -0.242  10.212   5.159  0.2431 -0.0324 -0.1813
  337MOL0     C45367  -0.244  10.258   5.030 -0.0426  0.0203  0.6147
  337MOL0     O45368  -0.317  10.178   4.946  0.6358 -0.2818  0.6913
  337MOL0     C45369  -0.309  10.190   4.800 -0.1140  0.6337  0.2415
  337MOL0     C45370  -0.328  10.053   4.736  0.1788 -0.0782  0.1526
  337MOL0     C45371  -0.219   9.954   4.787  0.0337 -0.6149  0.1894
  337MOL0     C45372  -0.068   9.999   4.756 -0.1800  0.5698 -0.7054
  337MOL0     C45373   0.032   9.959   4.875  0.8230 -0.3462  0.3168
  337MOL0     C45374   0.024  10.054   4.998 -1.2132 -0.0382  0.1787
  337MOL0     C45375   0.129  10.010   5.106 -0.9390  0.1621 -0.4993
  337MOL0     C45376   0.266  10.074   5.086 -0.8507  0.0369  0.5192
  337MOL0     N45377   0.376  10.011   5.159 -0.1233 -0.3646 -0.1506
  337MOL0     C45378   0.384  10.008   5.297 -1.0711  0.1687 -0.4034
  337MOL0     C45379   0.484   9.921   5.330 -0.0161 -0.8503 -0.4623
  337MOL0     C45380   0.520   9.879   5.463 -0.1574  0.3657 -0.2482
  337MOL0     C45381   0.585   9.988   5.553 -0.2280  0.1473 -0.1595
  337MOL0     C45382   0.729   9.953   5.557 -0.0701  0.0023 -0.4818
  337MOL0     C45383   0.814  10.059   5.625 -0.1034  0.4019 -0.0147
  337MOL0     O45384   0.778  10.062   5.768 -0.6782 -0.3950  0.0262
  337MOL0     C45385   0.826  10.168   5.840 -1.1177 -0.6282 -0.1844
  337MOL0     C45386   0.773  10.174   5.971 -0.4679 -0.1449  0.2455
  337MOL0     C45387   0.820  10.261   6.069 -0.2465 -0.5543 -0.1912
  337MOL0     C45388   0.919  10.352   6.029  0.6569 -0.2476 -0.2505
  337MOL0     C45389   0.968  10.443   6.137  0.2756 -0.8742 -0.5962
  337MOL0     O45390   0.914  10.433   6.270  0.3548 -0.4501  0.5906
  337MOL0     C45391   0.985  10.492   6.377  0.4824 -0.2585 -0.4172
  337MOL0     C45392   0.917  10.543   6.493  0.9075 -1.0624  0.5983
  337MOL0     C45393   0.984  10.610   6.592  0.1077  0.4693 -0.3329
  337MOL0     C45394   1.123  10.603   6.597 -0.4598 -0.2564 -0.5790
  337MOL0     O45395   1.195  10.651   6.706 -0.3617 -1.3374  0.2542
  337MOL0     C45396   1.136  10.691   6.826 -0.4661  0.1354 -0.2000
  337MOL0     C45397   1.242  10.641   6.932  0.7194 -0.2300  0.6563
  337MOL0     C45398   1.238  10.484   6.951 -0.2421  0.2606 -0.7860
  337MOL0     C45399   1.313  10.441   7.079  0.3354  0.2268 -0.0779
  337MOL0     C45400   1.329  10.289   7.094  0.5462  0.2612  0.1046
  337MOL0     C45401   1.341  10.247   7.239 -0.8457 -0.9174  0.8488
  337MOL0     C45402   1.346  10.096   7.253 -0.2147 -0.8061  0.8260
  337MOL0     C45403   1.353  10.052   7.402 -0.9608 -0.0382 -0.2567
  337MOL0    Cl45404   1.284   9.893   7.419 -0.4861  0.1721  0.6725
  337MOL0     C45405   1.191  10.549   6.491 -0.0109 -0.3829 -0.2103
  337MOL0     C45406   1.124  10.487   6.385 -0.2982  0.2824  0.7557
  337MOL0     O45407   1.057  10.522   6.096 -0.0713 -0.1725 -0.3939
  337MOL0     C45408   0.967  10.353   5.900  0.1565 -0.0176  0.5587
  337MOL0     C45409   0.924  10.260   5.803 -0.4101 -0.3999 -0.9635
  337MOL0     N45410   0.535   9.879   5.211 -0.0956 -0.8463  0.0501
  337MOL0     N45411   0.476   9.933   5.107  0.6273 -0.4814 -1.2418
  337MOL0     C45412  -0.172  10.363   4.995 -0.1714 -0.0696  0.3258
  337MOL0     C45413  -0.100  10.429   5.092  1.1851  0.2537 -0.0467
  337MOL0     C45414   0.185  10.508   5.424  0.1175 -0.5332  0.3831
  337MOL0     C45415   0.137  10.568   5.540 -0.8036  0.8776  0.0301
  337MOL0     C45416   0.211  10.665   5.609 -0.3238 -0.1811 -0.2914
  337MOL0     C45417   0.334  10.706   5.563  0.1986  0.0156 -0.6426
  337MOL0     O45418   0.377  10.828   5.620  0.6066  0.2502  0.0471
  337MOL0     C45419   0.298  10.944   5.607 -0.3770  0.3808  0.1302
  337MOL0     C45420   0.348  11.024   5.494 -0.1040 -0.1148 -0.9156
  337MOL0     C45421   0.341  10.959   5.350 -0.5000  1.2059 -0.1106
  337MOL0     C45422   0.307  11.067   5.247 -0.7886  0.6661 -0.1438
  337MOL0     C45423   0.174  11.125   5.259 -0.0875  0.3875  0.0923
  337MOL0     C45424   0.057  11.161   5.248 -0.3237  0.4395  0.6005
  337MOL0     C45425   0.390  10.645   5.451 -0.7409  1.0546 -0.2612
  337MOL0     C45426   0.313  10.548   5.374  0.2809  0.3320 -0.0033
  337MOL0     C45427   0.364  10.510   5.244 -0.0605  0.3412 -0.2277
  337MOL0     H45428  -0.213  10.262   5.356  0.3883  4.2699  1.6798
  337MOL0     H45429  -0.303  10.125   5.185 -1.1383  1.1451  0.6912
  337MOL0     H45430  -0.393  10.249   4.762 -0.4809  1.4662  2.2006
  337MOL0     H45431  -0.212  10.221   4.762  0.6511  0.3710  1.8768
  337MOL0     H45432  -0.325  10.063   4.627 -1.3600 -1.3806 -0.0389
  337MOL0     H45433  -0.430  10.019   4.759  0.4872  0.0316  1.8198
  337MOL0     H45434  -0.245   9.854   4.751  0.3769 -0.8620  0.6128
  337MOL0     H45435  -0.224   9.951   4.896  1.5704 -3.6768  0.2787
  337MOL0     H45436  -0.033   9.960   4.661  0.6217 -0.4418 -0.0181
  337MOL0     H45437  -0.057  10.106   4.735 -2.1342  0.5063 -2.3502
  337MOL0     H45438   0.030   9.853   4.904  3.0218  0.3328  3.4185
  337MOL0     H45439   0.133   9.975   4.837  1.5041 -0.9008  1.7833
  337MOL0     H45440   0.044  10.158   4.970  1.2195  0.6405  3.7824
  337MOL0     H45441  -0.076  10.051   5.042 -0.7106  0.5207  1.4074
  337MOL0     H45442   0.138   9.902   5.120 -0.1133 -0.0609 -2.5290
  337MOL0     H45443   0.089  10.038   5.204 -1.3603 -0.6963 -0.4134
  337MOL0     H45444   0.310  10.062   4.987  1.0441  0.2798  1.2783
  337MOL0     H45445   0.266  10.183   5.092  1.9226  0.2885 -1.7532
  337MOL0     H45446   0.324  10.066   5.366  2.0286  1.2682  1.5980
  337MOL0     H45447   0.432   9.851   5.522 -0.7277 -1.5812 -1.8949
  337MOL0     H45448   0.572   9.783   5.463  0.3617  0.6384  0.0948
  337MOL0     H45449   0.583  10.090   5.514  2.1538  0.0536 -0.6690
  337MOL0     H45450   0.552   9.999   5.656 -4.1585  0.7939 -1.3316
  337MOL0     H45451   0.775   9.949   5.458 -0.5843  0.9104 -0.7635
  337MOL0     H45452   0.752   9.854   5.599  0.4023 -0.3814 -1.6201
  337MOL0     H45453   0.799  10.161   5.587 -2.6213 -0.0767 -0.4617
  337MOL0     H45454   0.922  10.045   5.612  0.3115  3.6089 -1.0970
  337MOL0     H45455   0.692  10.105   5.992 -1.3837  0.7460 -0.2679
  337MOL0     H45456   0.774  10.269   6.168  0.9732 -1.8545  0.5261
  337MOL0     H45457   0.811  10.532   6.513  0.7262 -0.3654  0.0659
  337MOL0     H45458   0.916  10.636   6.673 -1.0701 -2.3194 -0.2910
  337MOL0     H45459   1.151  10.799   6.823  0.8827 -0.0415 -0.3010
  337MOL0     H45460   1.032  10.658   6.838  0.1881 -2.4801 -0.9200
  337MOL0     H45461   1.348  10.665   6.919  0.2337  0.8087 -2.0464
  337MOL0     H45462   1.209  10.687   7.026 -0.0911  2.5958 -0.8804
  337MOL0     H45463   1.137  10.444   6.949 -0.5077  0.7733  0.8041
  337MOL0     H45464   1.299  10.436   6.874 -0.3919 -2.9123  0.9055
  337MOL0     H45465   1.251  10.475   7.162 -0.0080 -1.9984  0.6628
  337MOL0     H45466   1.409  10.493   7.075 -0.5044  1.7921 -1.2175
  337MOL0     H45467   1.421  10.265   7.039 -0.6152 -0.0851 -1.7606
  337MOL0     H45468   1.241  10.236   7.059 -0.6990 -0.0646  3.3531
  337MOL0     H45469   1.443  10.273   7.267 -0.1239  0.8553 -2.8287
  337MOL0     H45470   1.259  10.296   7.293  0.4341  1.7117  0.5559
  337MOL0     H45471   1.429  10.054   7.195  1.0341  1.3716  0.9346
  337MOL0     H45472   1.254  10.053   7.212 -2.9021  1.5160  3.8794
  337MOL0     H45473   1.460  10.042   7.420 -1.3002 -1.6856  1.1294
  337MOL0     H45474   1.314  10.119   7.480  2.3327 -1.2096  2.6297
  337MOL0     H45475   1.298  10.535   6.495 -0.3562 -3.7274  1.7030
  337MOL0     H45476   1.186  10.447   6.305 -0.5395  0.5390  0.4434
  337MOL0     H45477   1.036  10.433   5.874  1.7008 -1.6411 -0.4939
  337MOL0     H45478   0.946  10.265   5.696 -2.5662  0.0912 -1.4183
  337MOL0     H45479  -0.183  10.395   4.892  0.2262 -1.2886 -0.1204
  337MOL0     H45480  -0.048  10.517   5.056 -0.3724  0.6667 -1.4362
  337MOL0     H45481   0.038  10.539   5.576 -0.0925 -1.3742  0.3136
  337MOL0     H45482   0.159  10.709   5.694 -0.2220  2.2147 -1.3940
  337MOL0     H45483   0.301  11.010   5.694  3.3991 -0.8896  1.1337
  337MOL0     H45484   0.196  10.919   5.577 -1.4050  1.8827  2.1139
  337MOL0     H45485   0.451  11.060   5.503  0.2040 -0.7240 -1.8081
  337MOL0     H45486   0.294  11.118   5.506  0.6014  0.1699  0.2005
  337MOL0     H45487   0.264  10.882   5.342  0.4709  0.0025  1.4980
  337MOL0     H45488   0.431  10.898   5.332  0.3699  1.7886  2.0241
  337MOL0     H45489   0.377  11.151   5.257  0.4493  0.1327 -3.2726
  337MOL0     H45490   0.328  11.039   5.143 -3.5971  1.7297 -1.0791
  337MOL0     H45491  -0.039  11.204   5.232  0.4468  2.7532  1.6665
  337MOL0     H45492   0.486  10.672   5.407 -0.9929 -0.7231 -2.0629
  337MOL0     H45493   0.290  10.534   5.167  0.8718  0.5100 -1.0922
  337MOL0     H45494   0.448  10.570   5.207  0.2197 -1.3449 -2.4985
  337MOL0     H45495   0.378  10.402   5.253 -1.8561  0.0967  0.1585
  338MOL0     O45496   0.487   1.913  11.243 -0.6916 -0.8457  0.4239
  338MOL0     C45497   0.462   1.792  11.241 -1.0167 -1.3001 -0.4372
  338MOL0     O45498   0.417   1.726  11.136 -0.9284 -0.3179 -0.7272
  338MOL0     C45499   0.428   1.791  11.010 -0.2379  0.4019 -0.6327
  338MOL0     C45500   0.375   1.920  10.984 -0.2150  0.9440 -0.4185
  338MOL0     C45501   0.406   1.989  10.865  0.7561 -0.2185  0.5277
  338MOL0     C45502   0.483   1.916  10.761  0.2870 -0.2185  0.2005
  338MOL0     O45503   0.496   1.977  10.640  0.2386  0.7734  0.0451
  338MOL0     C45504   0.551   2.115  10.633 -0.0634  0.2489 -0.0680
  338MOL0     C45505   0.604   2.134  10.487  0.4637  0.6698  0.8360
  338MOL0     C45506   0.615   2.283  10.447  0.6747  0.2092 -0.1711
  338MOL0     C45507   0.714   2.355  10.540 -0.0346  0.0594  0.6583
  338MOL0     C45508   0.675   2.504  10.569 -0.2211  0.0647 -0.5090
  338MOL0     C45509   0.777   2.571  10.667  0.6433  0.2098 -0.3330
  338MOL0     C45510   0.814   2.714  10.635 -0.4732  0.3505  0.4559
  338MOL0     C45511   0.699   2.813  10.649 -0.5002  0.1101  0.0060
  338MOL0     N45512   0.732   2.953  10.618  0.0232 -0.3496  0.0438
  338MOL0     C45513   0.751   3.002  10.494  0.0611 -0.2862 -0.0719
  338MOL0     C45514   0.837   3.113  10.509 -0.0550  0.1422 -0.7960
  338MOL0     C45515   0.910   3.174  10.400 -0.6372 -1.0183  0.5696
  338MOL0     C45516   1.022   3.061  10.344 -0.2448  0.4062 -0.5654
  338MOL0     C45517   1.156   3.098  10.412  0.0666 -0.4235 -0.1920
  338MOL0     C45518   1.269   3.001  10.388 -1.0100  0.0421 -0.3394
  338MOL0     O45519   1.235   2.859  10.395  0.7954  0.6341  0.0886
  338MOL0     C45520   1.234   2.793  10.516 -0.2650 -0.2474  0.1213
  338MOL0     C45521   1.234   2.859  10.639 -0.2022  0.4467  0.0300
  338MOL0     C45522   1.224   2.780  10.758  0.2051  0.4465  0.3220
  338MOL0     C45523   1.182   2.645  10.758 -0.1439  0.7663  0.0715
  338MOL0     C45524   1.152   2.578  10.878 -1.0125  0.6113 -0.4173
  338MOL0     O45525   1.158   2.434  10.880  0.0153  0.1913 -0.2796
  338MOL0     C45526   1.069   2.372  10.964 -1.0171  0.4872 -0.1880
  338MOL0     C45527   1.117   2.284  11.064  0.3711  0.3057  0.7997
  338MOL0     C45528   1.021   2.239  11.163  1.0303  0.2111  0.6768
  338MOL0     C45529   0.878   2.253  11.135  0.2803 -0.0847 -0.6600
  338MOL0     O45530   0.779   2.185  11.208 -0.7518  0.2695 -0.4182
  338MOL0     C45531   0.710   2.257  11.306 -0.1845 -0.3064 -0.1550
  338MOL0     C45532   0.790   2.274  11.431  0.0272  0.8302 -1.4847
  338MOL0     C45533   0.830   2.142  11.504  0.6799 -0.3774 -0.0748
  338MOL0     C45534   0.934   2.171  11.607 -0.3992 -0.2736 -1.4325
  338MOL0     C45535   0.965   2.046  11.695  0.0953 -0.0437 -0.7465
  338MOL0     C45536   0.845   1.978  11.766 -0.7295 -0.5217 -0.5830
  338MOL0     C45537   0.888   1.861  11.862 -0.5214 -0.7249 -0.3711
  338MOL0     C45538   0.782   1.830  11.964  0.4845 -0.0124 -0.1679
  338MOL0    Cl45539   0.864   1.821  12.116 -0.7124 -0.4038  0.0693
  338MOL0     C45540   0.829   2.335  11.024 -0.3340 -1.2451  0.1662
  338MOL0     C45541   0.934   2.389  10.947 -0.4567  1.2565  0.0810
  338MOL0     O45542   1.109   2.642  10.970  0.2900  0.0291  0.4063
  338MOL0     C45543   1.159   2.587  10.633 -0.2486  0.3358 -0.2269
  338MOL0     C45544   1.196   2.658  10.518 -0.4629  0.4757  0.2935
  338MOL0     N45545   0.865   3.126  10.645 -0.2042  0.5277  0.1596
  338MOL0     N45546   0.806   3.035  10.710  0.9817  0.0110  0.4064
  338MOL0     C45547   0.521   1.785  10.787  0.0008  0.2033  0.5045
  338MOL0     C45548   0.493   1.725  10.906  0.0179  0.1178 -0.0863
  338MOL0     C45549   0.454   1.697  11.362 -0.1317 -0.8116  0.7621
  338MOL0     C45550   0.551   1.592  11.353  0.7611 -0.2094  0.3078
  338MOL0     C45551   0.550   1.495  11.454  0.4344  0.1569 -0.4194
  338MOL0     C45552   0.474   1.519  11.575 -0.5865  0.3596  0.8544
  338MOL0     O45553   0.496   1.429  11.673 -0.0637  0.5443 -0.0563
  338MOL0     C45554   0.449   1.450  11.805  0.1558 -0.4293 -0.1565
  338MOL0     C45555   0.534   1.366  11.910 -1.1689  0.2392  0.7846
  338MOL0     C45556   0.679   1.411  11.912 -1.0846 -0.3240 -0.6692
  338MOL0     C45557   0.755   1.393  12.049  0.4420  0.2597 -0.5406
  338MOL0     C45558   0.903   1.418  12.037  0.2739 -0.1518  0.0365
  338MOL0     C45559   1.023   1.425  12.019  0.5796  0.9760  0.1939
  338MOL0     C45560   0.404   1.632  11.584  0.7456  0.7036 -0.2808
  338MOL0     C45561   0.387   1.718  11.482 -0.9011 -0.5883 -0.6970
  338MOL0     C45562   0.309   1.846  11.519  0.2737  0.4143  0.0835
  338MOL0     H45563   0.323   1.966  11.067  2.2833  1.1757  1.1247
  338MOL0     H45564   0.381   2.094  10.851  0.4447 -0.5602 -1.9434
  338MOL0     H45565   0.460   2.175  10.643 -0.4151 -0.4446  1.0461
  338MOL0     H45566   0.634   2.121  10.705  2.0485  1.1097 -2.4124
  338MOL0     H45567   0.546   2.074  10.418  1.3638  1.2401 -0.4664
  338MOL0     H45568   0.708   2.102  10.471 -0.2494 -0.8529 -1.1486
  338MOL0     H45569   0.515   2.328  10.450 -0.1932 -1.4504 -1.8544
  338MOL0     H45570   0.649   2.283  10.343  0.7442 -1.6820 -0.1827
  338MOL0     H45571   0.708   2.308  10.638 -1.9063 -1.9236 -0.3133
  338MOL0     H45572   0.816   2.348  10.500 -0.0630  0.7979  0.4389
  338MOL0     H45573   0.666   2.567  10.479  1.3533  0.6181 -0.3034
  338MOL0     H45574   0.580   2.495  10.622  1.4786 -0.3790  2.7073
  338MOL0     H45575   0.727   2.568  10.764  1.3619 -1.2194  0.0063
  338MOL0     H45576   0.866   2.509  10.668  0.1569 -0.5403 -1.3649
  338MOL0     H45577   0.844   2.715  10.529  1.0842  0.9355  0.8718
  338MOL0     H45578   0.905   2.741  10.690  0.7863 -2.6346  0.0687
  338MOL0     H45579   0.618   2.778  10.584  0.6733  0.9227 -1.9838
  338MOL0     H45580   0.670   2.803  10.754  0.7789 -2.1666  0.1999
  338MOL0     H45581   0.730   2.955  10.399 -6.0107  0.8197  0.3737
  338MOL0     H45582   0.837   3.205  10.324  0.1292 -1.2478 -0.2886
  338MOL0     H45583   0.961   3.269  10.419  0.6801 -1.0017 -2.4590
  338MOL0     H45584   0.990   2.962  10.377  2.2166 -0.6383 -1.0717
  338MOL0     H45585   1.035   3.068  10.236 -2.9622  0.5572 -0.9509
  338MOL0     H45586   1.160   3.105  10.521  2.3173 -3.0623  0.0302
  338MOL0     H45587   1.174   3.196  10.368  2.7020 -0.4616  0.6187
  338MOL0     H45588   1.348   3.027  10.458 -0.1676 -2.1861 -0.3914
  338MOL0     H45589   1.318   3.025  10.293 -2.7469  1.1540 -1.0050
  338MOL0     H45590   1.268   2.959  10.666  1.8067  0.5469 -2.4870
  338MOL0     H45591   1.230   2.837  10.850 -1.5607 -0.4032  1.0201
  338MOL0     H45592   1.225   2.272  11.068  0.9069  3.2944 -1.4432
  338MOL0     H45593   1.052   2.175  11.245  3.8610  0.4608 -0.0851
  338MOL0     H45594   0.676   2.358  11.279 -2.1462 -0.9610 -0.2302
  338MOL0     H45595   0.616   2.206  11.326 -3.4480  3.7922 -3.1448
  338MOL0     H45596   0.886   2.316  11.401  1.3744  0.0870  1.4981
  338MOL0     H45597   0.743   2.351  11.493  0.7449 -0.2825  0.5207
  338MOL0     H45598   0.745   2.097  11.555  2.1083  0.1055  2.9780
  338MOL0     H45599   0.860   2.068  11.430  1.1655  0.6618 -0.9598
  338MOL0     H45600   0.895   2.249  11.673 -0.0993  0.3804 -2.0162
  338MOL0     H45601   1.028   2.206  11.564  1.4225 -1.8996  0.9598
  338MOL0     H45602   1.038   2.074  11.772  2.3197 -2.0048 -1.9958
  338MOL0     H45603   1.018   1.968  11.639  2.3828  0.3771  0.7055
  338MOL0     H45604   0.791   2.058  11.819 -0.3055  0.2361 -1.2678
  338MOL0     H45605   0.769   1.942  11.696 -0.2057 -3.0277  0.0471
  338MOL0     H45606   0.988   1.880  11.903  0.6028  0.1183 -3.2508
  338MOL0     H45607   0.896   1.769  11.802  0.9505  0.3724 -1.9697
  338MOL0     H45608   0.701   1.903  11.956  1.5588  1.4996  1.7083
  338MOL0     H45609   0.739   1.731  11.949 -4.6419  1.6595  1.5284
  338MOL0     H45610   0.725   2.355  11.003 -0.2777  0.5093  1.3643
  338MOL0     H45611   0.903   2.437  10.855  2.8215  1.1041 -1.2346
  338MOL0     H45612   1.133   2.482  10.629 -0.4261  0.0254  4.0564
  338MOL0     H45613   1.202   2.607  10.422  2.4288  1.5722 -0.1972
  338MOL0     H45614   0.570   1.721  10.713  1.5974 -0.0431  1.7187
  338MOL0     H45615   0.545   1.631  10.925  0.2023  0.0785 -0.7523
  338MOL0     H45616   0.607   1.561  11.265  0.5222 -0.8496  0.3777
  338MOL0     H45617   0.611   1.407  11.435  0.0814  0.3435 -2.7275
  338MOL0     H45618   0.344   1.419  11.813  0.4372 -1.2528  0.5719
  338MOL0     H45619   0.453   1.557  11.828 -2.0794 -0.0727 -1.1152
  338MOL0     H45620   0.529   1.258  11.891  0.1361  0.1160  1.0242
  338MOL0     H45621   0.491   1.390  12.008 -2.9986 -3.8182  1.2061
  338MOL0     H45622   0.700   1.518  11.905  0.3490 -0.6697 -2.2887
  338MOL0     H45623   0.734   1.352  11.838 -0.2073 -4.8571  3.1233
  338MOL0     H45624   0.717   1.462  12.125  2.6710  0.2552  0.6635
  338MOL0     H45625   0.741   1.290  12.082  1.3880 -0.0777 -1.1445
  338MOL0     H45626   1.128   1.435  12.001  1.1007 -0.8361  1.9130
  338MOL0     H45627   0.350   1.659  11.674  1.7639 -0.7403  0.7967
  338MOL0     H45628   0.323   1.869  11.625 -1.0658 -0.3455  0.4411
  338MOL0     H45629   0.329   1.927  11.448 -1.3037  1.7882  1.1414
  338MOL0     H45630   0.203   1.824  11.504 -0.4200  0.7584  3.6362
  339MOL0     O45631   0.967   9.879   4.402 -0.0712 -0.2026 -0.0569
  339MOL0     C45632   0.969   9.992   4.447 -0.1791 -0.8323  0.4402
  339MOL0     O45633   0.950  10.104   4.373  0.2394 -0.6873 -0.1269
  339MOL0     C45634   0.924  10.088   4.235  0.4497  0.1458 -0.6355
  339MOL0     C45635   1.028  10.097   4.148 -0.2964 -0.0648  0.0633
  339MOL0     C45636   1.013  10.068   4.015 -0.3561  0.9540 -0.2592
  339MOL0     C45637   0.898  10.001   3.970 -1.0832 -1.5457 -0.0511
  339MOL0     O45638   0.869   9.959   3.844  0.4376 -0.6454 -0.4417
  339MOL0     C45639   0.981   9.965   3.750  0.4825 -1.2495  0.3905
  339MOL0     C45640   0.936   9.943   3.602 -0.7067 -0.5013  0.0152
  339MOL0     C45641   1.044  10.002   3.512 -0.4351  0.3856 -0.4898
  339MOL0     C45642   1.019   9.959   3.364 -0.0786  0.0954  0.4014
  339MOL0     C45643   1.120  10.014   3.266 -0.9878 -0.0924 -0.0128
  339MOL0     C45644   1.106  10.172   3.261 -0.2098  0.2534 -0.0764
  339MOL0     C45645   1.225  10.238   3.208 -0.2760  0.4861 -0.5489
  339MOL0     C45646   1.182  10.356   3.125 -0.6873  0.1168 -0.9690
  339MOL0     N45647   1.289  10.403   3.040 -0.2577  0.8710  0.5387
  339MOL0     C45648   1.294  10.384   2.901 -0.5855  0.2269 -1.0475
  339MOL0     C45649   1.409  10.460   2.866 -0.0637  0.2058 -0.3171
  339MOL0     C45650   1.470  10.484   2.733 -0.0176  0.6459 -0.0604
  339MOL0     C45651   1.397  10.592   2.656 -0.1299 -0.5844 -0.8402
  339MOL0     C45652   1.485  10.646   2.538  0.4103 -0.3399 -0.5837
  339MOL0     C45653   1.433  10.602   2.403 -0.0279 -0.0740  0.8818
  339MOL0     O45654   1.463  10.463   2.384  0.0858  0.0206 -0.2264
  339MOL0     C45655   1.475  10.407   2.253 -0.4092 -0.8279  0.0452
  339MOL0     C45656   1.434  10.275   2.232  0.9910  0.4369 -0.1595
  339MOL0     C45657   1.453  10.204   2.113 -0.1901  0.2595 -0.1855
  339MOL0     C45658   1.503  10.259   2.003  0.3230  0.6945 -0.3593
  339MOL0     C45659   1.505  10.183   1.875 -0.9282 -0.3198 -0.3176
  339MOL0     O45660   1.495  10.046   1.882 -0.1871  0.6718  0.0372
  339MOL0     C45661   1.486   9.981   1.758 -0.4190 -0.2334 -0.6381
  339MOL0     C45662   1.368   9.914   1.716 -0.4365  0.7310 -1.3609
  339MOL0     C45663   1.355   9.862   1.595 -0.2260  1.0538 -0.7498
  339MOL0     C45664   1.470   9.854   1.515  0.2008  0.1161 -0.5445
  339MOL0     O45665   1.427   9.783   1.405  0.8676 -0.7537  0.3488
  339MOL0     C45666   1.515   9.677   1.371  0.5607 -0.3769 -0.2627
  339MOL0     C45667   1.449   9.535   1.335  0.1143 -0.1148 -0.2944
  339MOL0     C45668   1.362   9.488   1.443 -0.4831  0.0384 -0.0235
  339MOL0     C45669   1.267   9.369   1.407 -0.0158 -0.2635 -0.3692
  339MOL0     C45670   1.153   9.355   1.515  0.6856  0.0873 -0.2130
  339MOL0     C45671   1.035   9.263   1.466  0.5018 -0.2299  0.2640
  339MOL0     C45672   0.936   9.343   1.382 -0.6174  0.7708  0.3441
  339MOL0     C45673   0.808   9.267   1.354  0.3961  0.3639 -0.4749
  339MOL0    Cl45674   0.828   9.100   1.291  0.0989 -0.3863  0.6933
  339MOL0     C45675   1.595   9.894   1.552 -0.7367  0.0393 -1.0579
  339MOL0     C45676   1.594   9.972   1.675 -0.4232 -0.2541  0.4209
  339MOL0     O45677   1.522  10.244   1.771 -0.4665 -0.0344 -0.2593
  339MOL0     C45678   1.554  10.395   2.023  0.5000  0.4919 -0.4328
  339MOL0     C45679   1.544  10.464   2.146 -0.2969 -0.6522 -0.2730
  339MOL0     N45680   1.470  10.496   2.987 -0.6780  0.0014  0.1941
  339MOL0     N45681   1.397  10.463   3.083  0.6676 -1.4490  0.2280
  339MOL0     C45682   0.795   9.993   4.062  0.6919  0.0271  0.1101
  339MOL0     C45683   0.795  10.056   4.188  0.3293 -0.3264  0.2824
  339MOL0     C45684   0.988  10.007   4.595  0.9530 -0.2579  0.2033
  339MOL0     C45685   1.083   9.923   4.660  0.0776 -1.7084 -0.2883
  339MOL0     C45686   1.094   9.922   4.803 -0.1837 -0.4433 -0.0130
  339MOL0     C45687   1.012  10.008   4.879  0.0125  0.1231 -0.1440
  339MOL0     O45688   1.033  10.006   5.016  0.0687  0.5105  0.0555
  339MOL0     C45689   0.946  10.087   5.101 -0.1385  0.6871  0.5154
  339MOL0     C45690   0.971  10.071   5.249 -0.0162  0.4064 -0.3700
  339MOL0     C45691   1.124  10.115   5.269  0.7900  0.6792 -0.1788
  339MOL0     C45692   1.166  10.119   5.426  0.3906  0.0856 -0.2011
  339MOL0     C45693   1.283  10.202   5.435  1.0075 -0.1824 -0.3764
  339MOL0     C45694   1.383  10.269   5.427 -0.1912 -0.2785  0.1311
  339MOL0     C45695   0.925  10.093   4.815  0.2642  0.0085 -0.5559
  339MOL0     C45696   0.909  10.090   4.681 -0.1366  0.1825 -0.4269
  339MOL0     C45697   0.786  10.166   4.630 -0.2486 -0.1876 -1.3567
  339MOL0     H45698   1.128  10.110   4.188 -0.6874  0.0677  1.0213
  339MOL0     H45699   1.104  10.065   3.956  2.0381  0.1591  3.1258
  339MOL0     H45700   1.002  10.072   3.758 -1.6795 -0.7975  0.6133
  339MOL0     H45701   1.075   9.917   3.777 -0.0050 -1.8928  0.9831
  339MOL0     H45702   0.840   9.990   3.578 -1.7161 -1.4990  1.8894
  339MOL0     H45703   0.923   9.838   3.576 -1.9991 -0.3493 -0.0008
  339MOL0     H45704   1.145   9.968   3.536  0.2816  0.0878 -3.4769
  339MOL0     H45705   1.029  10.110   3.521 -3.5040 -0.0055  0.5249
  339MOL0     H45706   1.022   9.849   3.366 -1.2326 -0.0191  4.4449
  339MOL0     H45707   0.919   9.982   3.328  0.0323 -1.1488 -0.8022
  339MOL0     H45708   1.220   9.977   3.292 -1.4517 -1.1740  0.2626
  339MOL0     H45709   1.112   9.973   3.165  2.3140 -1.5974  0.1852
  339MOL0     H45710   1.019  10.183   3.196  0.4527 -2.2644 -1.5098
  339MOL0     H45711   1.095  10.204   3.365  0.4025 -0.7794  0.3239
  339MOL0     H45712   1.296  10.182   3.147 -1.9450 -0.2228 -1.9254
  339MOL0     H45713   1.291  10.260   3.293  1.3703 -0.4260 -1.5301
  339MOL0     H45714   1.103  10.325   3.056 -0.9358  1.3265 -1.2559
  339MOL0     H45715   1.150  10.432   3.197  0.7583  2.2562 -2.4548
  339MOL0     H45716   1.215  10.353   2.833 -1.0868  4.2764 -2.6061
  339MOL0     H45717   1.570  10.527   2.742 -0.3655  1.6512 -0.7236
  339MOL0     H45718   1.461  10.393   2.673  1.3978  1.7697 -2.1043
  339MOL0     H45719   1.303  10.553   2.617 -0.4807  0.3287 -0.9340
  339MOL0     H45720   1.371  10.684   2.709  0.2811  0.0405 -1.6986
  339MOL0     H45721   1.589  10.614   2.541  0.4476 -0.4747 -2.5522
  339MOL0     H45722   1.476  10.755   2.533  0.7063 -0.3110 -0.4708
  339MOL0     H45723   1.477  10.658   2.319 -0.1135 -1.2526  0.0195
  339MOL0     H45724   1.325  10.615   2.390 -0.3462  1.1286  3.8803
  339MOL0     H45725   1.383  10.241   2.321  2.8272 -0.2608  0.6841
  339MOL0     H45726   1.398  10.111   2.105  0.5343 -0.2799  0.7237
  339MOL0     H45727   1.276   9.909   1.773  0.8453 -0.6622  0.7624
  339MOL0     H45728   1.258   9.824   1.567  0.6524 -0.7764 -1.4254
  339MOL0     H45729   1.573   9.714   1.286 -1.3401  3.2959 -0.1495
  339MOL0     H45730   1.583   9.657   1.454  0.2615 -0.4393 -0.0314
  339MOL0     H45731   1.395   9.536   1.240 -1.5316 -1.4767  0.5613
  339MOL0     H45732   1.536   9.470   1.321  1.0034  0.8786  0.4483
  339MOL0     H45733   1.429   9.451   1.521 -1.7940 -1.2672  0.5377
  339MOL0     H45734   1.314   9.574   1.490  2.0969  1.7522 -0.3285
  339MOL0     H45735   1.315   9.274   1.379 -1.3977 -1.0558 -0.1504
  339MOL0     H45736   1.210   9.393   1.317 -2.6121  0.3548  1.3148
  339MOL0     H45737   1.122   9.457   1.539  1.6471  1.5034 -4.2628
  339MOL0     H45738   1.184   9.306   1.608 -2.1026 -0.0653  0.7366
  339MOL0     H45739   1.077   9.191   1.395 -0.4485  1.0408 -1.6778
  339MOL0     H45740   0.987   9.220   1.554  1.9795 -0.7715  0.8342
  339MOL0     H45741   0.997   9.364   1.293 -0.4440  1.4343  0.6089
  339MOL0     H45742   0.913   9.445   1.414  2.7950  2.0489 -0.7759
  339MOL0     H45743   0.746   9.274   1.444  3.0634 -1.0993  1.5997
  339MOL0     H45744   0.753   9.325   1.278 -0.8736 -1.5300 -1.0822
  339MOL0     H45745   1.692   9.881   1.504  0.4183  0.6365  0.9967
  339MOL0     H45746   1.680  10.036   1.694 -0.9650  1.6175 -2.6867
  339MOL0     H45747   1.625  10.440   1.954 -1.1121  0.4318 -2.2320
  339MOL0     H45748   1.600  10.556   2.152  0.1506 -0.9046 -0.5259
  339MOL0     H45749   0.705   9.933   4.052  0.4026  0.5367 -0.3996
  339MOL0     H45750   0.708  10.064   4.252  1.0624 -0.0734  1.2617
  339MOL0     H45751   1.139   9.853   4.599 -0.0580 -0.3076 -2.1006
  339MOL0     H45752   1.164   9.865   4.862 -0.3160 -1.7413 -1.0629
  339MOL0     H45753   0.841  10.063   5.083  0.4803 -0.0198 -2.6341
  339MOL0     H45754   0.956  10.192   5.071  0.2225  0.6322  0.4424
  339MOL0     H45755   0.957   9.971   5.292  1.5818  0.7799  1.1350
  339MOL0     H45756   0.897  10.130   5.302 -0.5228 -0.6725  0.1512
  339MOL0     H45757   1.121  10.218   5.231  1.9589  0.7925 -0.0173
  339MOL0     H45758   1.192  10.056   5.208 -0.7712  0.9423 -2.2840
  339MOL0     H45759   1.084  10.172   5.477 -0.9947 -2.3232  0.1948
  339MOL0     H45760   1.185  10.022   5.471  3.0183 -0.2355 -1.7711
  339MOL0     H45761   1.477  10.318   5.416  0.2247  0.1737  4.2798
  339MOL0     H45762   0.851  10.152   4.869  3.5775  2.8959  1.3075
  339MOL0     H45763   0.784  10.189   4.523  2.3122  3.7978 -0.7812
  339MOL0     H45764   0.697  10.107   4.652 -0.4416 -0.2754 -2.3358
  339MOL0     H45765   0.775  10.261   4.683  0.8485 -1.0856  0.5994
  340MOL0     O45766   6.521   5.637   5.388  0.2183 -0.0154 -0.2148
  340MOL0     C45767   6.627   5.666   5.328  0.6570 -1.4889  0.1109
  340MOL0     O45768   6.699   5.594   5.238  0.1756 -0.1460 -0.2720
  340MOL0     C45769   6.640   5.477   5.187  0.8414  0.4208 -0.2424
  340MOL0     C45770   6.543   5.489   5.089 -0.7194  0.2197 -0.2081
  340MOL0     C45771   6.482   5.369   5.051 -0.9103  0.8084 -0.1154
  340MOL0     C45772   6.521   5.241   5.102  0.0015  0.1362  0.1190
  340MOL0     O45773   6.450   5.124   5.068 -0.2011 -0.5987  0.1494
  340MOL0     C45774   6.525   5.007   5.070  0.0223  1.3594  0.2367
  340MOL0     C45775   6.613   5.021   4.948  0.7195  0.4166 -0.9526
  340MOL0     C45776   6.715   4.903   4.944 -0.7347  0.3442  0.2336
  340MOL0     C45777   6.812   4.921   4.825 -0.3858 -0.3474 -0.2100
  340MOL0     C45778   6.741   4.926   4.694  0.1310 -0.2549  0.2781
  340MOL0     C45779   6.844   4.908   4.581  0.2838  0.4911  0.8107
  340MOL0     C45780   6.764   4.910   4.441 -0.2223 -0.3678 -1.1864
  340MOL0     C45781   6.834   4.829   4.340 -0.9986 -0.0894 -0.0885
  340MOL0     N45782   6.879   4.690   4.373 -0.8587  0.1344 -0.6369
  340MOL0     C45783   6.792   4.587   4.397 -0.1960 -0.5246 -0.1650
  340MOL0     C45784   6.874   4.488   4.447 -0.1092 -0.1219  1.0934
  340MOL0     C45785   6.835   4.347   4.464 -0.3924 -0.5287 -0.2218
  340MOL0     C45786   6.876   4.267   4.347 -0.1689 -0.3866  0.5627
  340MOL0     C45787   6.809   4.306   4.217 -0.5475  0.5439  0.3768
  340MOL0     C45788   6.814   4.184   4.122 -0.9252  0.1794  0.5435
  340MOL0     O45789   6.758   4.059   4.170 -0.5516  0.2824 -0.0294
  340MOL0     C45790   6.799   3.951   4.100  0.7745 -0.2205  0.2727
  340MOL0     C45791   6.826   3.830   4.174  1.0968  0.5350  0.2565
  340MOL0     C45792   6.840   3.708   4.113 -0.0604  1.1603 -0.0243
  340MOL0     C45793   6.844   3.708   3.974  0.9828 -0.0586  0.7653
  340MOL0     C45794   6.859   3.581   3.901 -0.3635 -0.1044 -0.9749
  340MOL0     O45795   6.878   3.591   3.762  0.0276  0.2065  0.7210
  340MOL0     C45796   6.894   3.481   3.678 -0.1272 -0.6691 -0.4295
  340MOL0     C45797   6.859   3.341   3.696 -0.4489 -0.0305 -0.5733
  340MOL0     C45798   6.864   3.258   3.588 -0.7259  0.8836  0.6262
  340MOL0     C45799   6.922   3.298   3.468 -1.2266 -0.3656  0.2342
  340MOL0     O45800   6.934   3.217   3.359  0.1281 -0.1958 -0.1295
  340MOL0     C45801   6.853   3.250   3.247 -0.8231  0.0857  0.0567
  340MOL0     C45802   6.837   3.122   3.165  0.7778  0.0159  0.2530
  340MOL0     C45803   6.779   3.005   3.258  1.0632 -0.3351 -0.0108
  340MOL0     C45804   6.743   2.871   3.169  0.6419  0.6936  0.7645
  340MOL0     C45805   6.695   2.764   3.258 -0.2190 -0.1301  0.1387
  340MOL0     C45806   6.638   2.644   3.169  0.1850  1.0741  0.4980
  340MOL0     C45807   6.754   2.574   3.089  0.1978  0.4632  0.3211
  340MOL0     C45808   6.770   2.628   2.946  0.7444  0.3074  0.4471
  340MOL0    Cl45809   6.920   2.553   2.865 -0.1927 -0.2076 -0.5036
  340MOL0     C45810   6.974   3.429   3.454  0.3852  0.0325  0.7458
  340MOL0     C45811   6.955   3.519   3.554 -0.3032 -0.8588  0.0241
  340MOL0     O45812   6.866   3.485   3.975  0.1054  0.8429 -0.9490
  340MOL0     C45813   6.845   3.829   3.896 -0.1147  0.3493  0.6426
  340MOL0     C45814   6.818   3.951   3.954  0.3321 -0.8148 -0.3155
  340MOL0     N45815   7.003   4.527   4.460  0.9279 -0.5747 -0.1574
  340MOL0     N45816   7.007   4.648   4.409  0.1460  0.6673 -0.3722
  340MOL0     C45817   6.627   5.237   5.193 -0.3393  0.4309  0.1670
  340MOL0     C45818   6.680   5.351   5.238  0.4402 -0.2163  0.2001
  340MOL0     C45819   6.691   5.797   5.365  0.5717 -0.2722  0.1994
  340MOL0     C45820   6.832   5.808   5.377 -0.6810  0.3903 -0.4812
  340MOL0     C45821   6.899   5.922   5.401  0.1247 -0.3175  0.0742
  340MOL0     C45822   6.839   6.036   5.437  0.8490 -0.0410 -0.3562
  340MOL0     O45823   6.890   6.153   5.486 -0.4363  0.5417 -0.0363
  340MOL0     C45824   7.036   6.158   5.500 -0.2291  0.9393  0.2458
  340MOL0     C45825   7.076   6.310   5.512 -0.9058  0.1978 -0.6114
  340MOL0     C45826   7.033   6.368   5.656 -1.4382  0.3669  0.3740
  340MOL0     C45827   7.117   6.489   5.700 -0.5072  0.5292  0.3737
  340MOL0     C45828   7.055   6.603   5.634  0.1156  0.0240 -0.3063
  340MOL0     C45829   7.007   6.703   5.580 -0.2428 -0.5664  1.0002
  340MOL0     C45830   6.695   6.030   5.444 -0.0764  0.4765 -0.5188
  340MOL0     C45831   6.628   5.911   5.400  0.1312 -1.3898  0.3567
  340MOL0     C45832   6.479   5.923   5.397  0.1922  0.2247  0.5340
  340MOL0     H45833   6.520   5.584   5.041 -0.2572  1.0390  1.1143
  340MOL0     H45834   6.401   5.381   4.980 -1.2088 -1.7436 -0.3005
  340MOL0     H45835   6.587   4.975   5.154  2.0179 -1.8973 -2.1946
  340MOL0     H45836   6.462   4.918   5.054  0.7845  0.6337  1.1516
  340MOL0     H45837   6.657   5.119   4.931 -1.1074  1.2558 -1.0746
  340MOL0     H45838   6.540   5.013   4.866 -1.0736  0.0800  0.5991
  340MOL0     H45839   6.655   4.813   4.929 -2.0529  1.5206 -2.2040
  340MOL0     H45840   6.781   4.889   5.030 -0.2220 -0.0900 -0.2248
  340MOL0     H45841   6.866   5.015   4.841  0.6583 -0.6518 -1.6973
  340MOL0     H45842   6.882   4.838   4.838  0.3110  0.0900 -1.0129
  340MOL0     H45843   6.674   4.840   4.682  0.3864 -0.3334 -0.6988
  340MOL0     H45844   6.697   5.022   4.665 -0.6306 -0.7113 -0.0975
  340MOL0     H45845   6.922   4.984   4.584 -0.1577  0.9492  0.7088
  340MOL0     H45846   6.890   4.810   4.598  1.7664  0.9320 -0.4369
  340MOL0     H45847   6.740   5.007   4.395 -1.6942 -0.4041 -0.5514
  340MOL0     H45848   6.669   4.862   4.464  1.1055 -2.3066  0.5439
  340MOL0     H45849   6.775   4.825   4.248  2.8220  0.1893 -2.7405
  340MOL0     H45850   6.921   4.886   4.310 -0.2040  0.4078  2.8020
  340MOL0     H45851   6.685   4.585   4.381 -0.0623  2.1879 -2.0955
  340MOL0     H45852   6.876   4.319   4.562 -0.9098  0.2186  0.2152
  340MOL0     H45853   6.725   4.344   4.468 -0.4391 -0.9759 -1.4068
  340MOL0     H45854   6.985   4.267   4.346 -0.1223  1.1914  1.8403
  340MOL0     H45855   6.823   4.173   4.363  1.5385 -1.3257  0.9703
  340MOL0     H45856   6.859   4.395   4.177 -2.3549  0.6856 -1.8513
  340MOL0     H45857   6.702   4.318   4.237 -0.4723 -0.8681  1.8121
  340MOL0     H45858   6.919   4.156   4.112 -1.3588 -1.4121  0.1777
  340MOL0     H45859   6.775   4.208   4.022 -0.3269  0.5425  0.3954
  340MOL0     H45860   6.819   3.838   4.282 -0.5426  1.0385  0.1447
  340MOL0     H45861   6.839   3.622   4.180  1.3473 -1.2857 -2.8929
  340MOL0     H45862   6.824   3.309   3.793 -0.5472  1.2219 -0.1774
  340MOL0     H45863   6.848   3.154   3.614  3.6080  0.7166  3.7152
  340MOL0     H45864   6.759   3.299   3.275  0.4354  3.7715 -1.6554
  340MOL0     H45865   6.905   3.333   3.199 -1.1846  1.3490  1.7341
  340MOL0     H45866   6.765   3.134   3.084  0.6820 -2.8333 -0.1803
  340MOL0     H45867   6.934   3.091   3.126  1.4683  2.0454  0.1934
  340MOL0     H45868   6.838   2.972   3.344 -0.6688 -1.1333  0.9168
  340MOL0     H45869   6.688   3.048   3.300  1.2018  0.3320 -0.3846
  340MOL0     H45870   6.830   2.847   3.107  1.2310 -2.4689  2.5591
  340MOL0     H45871   6.659   2.906   3.109 -0.4352  0.7385  2.2401
  340MOL0     H45872   6.620   2.799   3.329 -1.7469  0.9881 -1.9296
  340MOL0     H45873   6.784   2.741   3.318 -0.1208  1.5062  0.6637
  340MOL0     H45874   6.596   2.575   3.243  2.8073 -2.1595 -0.7556
  340MOL0     H45875   6.560   2.683   3.103 -0.1630 -0.6811 -0.1729
  340MOL0     H45876   6.735   2.466   3.083  0.3169  0.3244  1.9316
  340MOL0     H45877   6.851   2.576   3.140  1.2046 -3.8479 -0.9738
  340MOL0     H45878   6.682   2.598   2.889  0.3086  0.7112  0.9103
  340MOL0     H45879   6.777   2.735   2.927  4.0739 -0.1861 -2.2296
  340MOL0     H45880   7.029   3.470   3.370 -0.0592  0.9383  0.8945
  340MOL0     H45881   6.981   3.623   3.538  1.0784 -1.3603 -1.1903
  340MOL0     H45882   6.861   3.843   3.790 -1.0596 -0.0900  0.4332
  340MOL0     H45883   6.821   4.046   3.902 -0.3481 -0.8290 -0.3892
  340MOL0     H45884   6.650   5.139   5.234 -4.5878 -2.8567 -4.1723
  340MOL0     H45885   6.747   5.358   5.323  0.2833 -1.8560  0.4845
  340MOL0     H45886   6.895   5.730   5.335 -1.7087  0.0199 -1.3829
  340MOL0     H45887   7.008   5.928   5.408 -0.0500  2.9540  2.8337
  340MOL0     H45888   7.091   6.105   5.422 -1.6573  1.1658 -0.9568
  340MOL0     H45889   7.050   6.107   5.596 -0.2395  1.7880  0.7120
  340MOL0     H45890   7.022   6.363   5.434 -0.9219 -0.0298 -0.7559
  340MOL0     H45891   7.183   6.310   5.486 -0.7319 -2.2740 -0.1173
  340MOL0     H45892   7.049   6.294   5.735  1.7381  0.6530  0.1218
  340MOL0     H45893   6.925   6.384   5.653 -1.1605  2.7639 -3.4094
  340MOL0     H45894   7.108   6.504   5.808  0.5303  3.9471  0.1167
  340MOL0     H45895   7.224   6.491   5.680 -0.2337  0.0993  1.7569
  340MOL0     H45896   6.972   6.784   5.519  0.3301 -2.2869 -1.7868
  340MOL0     H45897   6.628   6.112   5.469 -4.3625 -2.5497 -0.9408
  340MOL0     H45898   6.451   5.856   5.480  0.9710  1.7145  2.0519
  340MOL0     H45899   6.447   6.020   5.435  2.8669  1.7869 -0.9698
  340MOL0     H45900   6.419   5.891   5.311 -1.1095  2.8588  0.3593
  341MOL0     O45901   5.076   0.387  10.722 -0.1961 -0.1074  0.8454
  341MOL0     C45902   5.099   0.370  10.840  0.3492  0.2827  0.1676
  341MOL0     O45903   5.090   0.249  10.908  0.7390  0.3537 -0.1945
  341MOL0     C45904   5.061   0.131  10.849  0.2716 -1.0214  0.2679
  341MOL0     C45905   5.120   0.084  10.725  0.5268  0.1049  0.7977
  341MOL0     C45906   5.089  -0.042  10.674  0.4475  0.5639 -0.0461
  341MOL0     C45907   5.006  -0.124  10.747  0.1678 -0.1763  0.6522
  341MOL0     O45908   4.989  -0.254  10.698  0.1789 -0.0827 -0.0124
  341MOL0     C45909   4.905  -0.351  10.758 -0.1622 -0.0574 -0.6038
  341MOL0     C45910   4.917  -0.473  10.662 -1.1634  0.1538  0.1671
  341MOL0     C45911   4.817  -0.565  10.718  0.3726 -0.1052  0.1630
  341MOL0     C45912   4.826  -0.712  10.661 -0.0143 -0.1230  0.1051
  341MOL0     C45913   4.696  -0.788  10.677  0.0659  1.0873  0.9176
  341MOL0     C45914   4.670  -0.815  10.826  0.1728 -0.4131  0.0557
  341MOL0     C45915   4.556  -0.910  10.851  0.1543  0.1809 -0.3565
  341MOL0     C45916   4.412  -0.834  10.844  0.3165 -0.5430  0.9893
  341MOL0     N45917   4.402  -0.722  10.929 -0.7996 -0.6086  0.5989
  341MOL0     C45918   4.397  -0.593  10.898  0.1330 -0.1570 -0.7652
  341MOL0     C45919   4.358  -0.531  11.014  1.1650 -0.3857  0.6100
  341MOL0     C45920   4.342  -0.379  11.020 -0.3209  0.5300  0.2341
  341MOL0     C45921   4.479  -0.324  11.058  0.1450 -0.1668  0.2571
  341MOL0     C45922   4.474  -0.166  11.048 -0.9293  0.1307  0.6439
  341MOL0     C45923   4.602  -0.116  10.983  0.0050 -0.3731  0.6124
  341MOL0     O45924   4.602  -0.146  10.842 -0.4680 -1.1160 -0.8354
  341MOL0     C45925   4.530  -0.062  10.761  1.0685 -0.3830 -0.2055
  341MOL0     C45926   4.560   0.070  10.739 -1.0760  0.0487  0.8708
  341MOL0     C45927   4.487   0.152  10.650 -0.0529  0.5590 -0.1046
  341MOL0     C45928   4.356   0.112  10.600  0.0134  1.1254 -0.0974
  341MOL0     C45929   4.280   0.204  10.514 -0.2375 -0.9170  0.3710
  341MOL0     O45930   4.352   0.293  10.444  0.6187  0.1434 -0.1387
  341MOL0     C45931   4.310   0.410  10.397  0.0546 -0.6984 -0.0103
  341MOL0     C45932   4.376   0.476  10.291  0.0888 -0.4081  0.2662
  341MOL0     C45933   4.346   0.604  10.254  0.3587  0.2503  0.0048
  341MOL0     C45934   4.250   0.689  10.331  0.1683 -0.1192  0.3932
  341MOL0     O45935   4.235   0.820  10.294 -0.3440 -0.9188  0.0784
  341MOL0     C45936   4.150   0.900  10.369 -0.4476  0.3266  0.6377
  341MOL0     C45937   4.133   1.038  10.313 -0.8823  0.1048  0.0556
  341MOL0     C45938   4.075   1.132  10.413  0.5934  0.5518 -0.4549
  341MOL0     C45939   4.049   1.268  10.350 -0.3241  0.3882  0.4783
  341MOL0     C45940   3.976   1.370  10.431  0.3406 -0.2969 -0.3809
  341MOL0     C45941   4.010   1.511  10.381  0.5467  1.0882  0.6568
  341MOL0     C45942   3.954   1.616  10.474  0.1579  0.3786 -0.3174
  341MOL0     C45943   3.986   1.756  10.411  0.6187  0.4645 -0.3243
  341MOL0    Cl45944   3.868   1.873  10.469  0.2591  0.3529 -0.1479
  341MOL0     C45945   4.184   0.614  10.434  0.2056 -0.2393 -0.5249
  341MOL0     C45946   4.204   0.482  10.456 -0.1463  0.4444 -0.5356
  341MOL0     O45947   4.157   0.198  10.522  0.9303 -0.6336 -0.6223
  341MOL0     C45948   4.321  -0.023  10.629 -0.3363 -0.4233 -0.2920
  341MOL0     C45949   4.401  -0.107  10.705 -0.5337  0.8238 -1.1494
  341MOL0     N45950   4.351  -0.632  11.114  0.0067  0.2807 -0.8464
  341MOL0     N45951   4.389  -0.745  11.060  0.3286  1.3095 -1.0036
  341MOL0     C45952   4.937  -0.078  10.855 -0.2867  0.6104  0.2501
  341MOL0     C45953   4.961   0.047  10.915 -0.5061  0.6437 -0.0412
  341MOL0     C45954   5.124   0.488  10.925 -0.3031 -0.9689  0.4611
  341MOL0     C45955   5.105   0.472  11.063  0.0790  0.5896  0.1792
  341MOL0     C45956   5.136   0.583  11.151 -0.1472  0.1793 -0.1266
  341MOL0     C45957   5.202   0.704  11.116  0.7808 -0.4793  0.3714
  341MOL0     O45958   5.234   0.785  11.222 -0.3062  0.8400  0.6502
  341MOL0     C45959   5.291   0.916  11.201 -0.2622  0.1569 -0.1055
  341MOL0     C45960   5.442   0.931  11.170 -0.8185 -0.7525 -0.8557
  341MOL0     C45961   5.549   0.888  11.275  0.5990  0.5961  0.9721
  341MOL0     C45962   5.556   0.969  11.402 -0.0285  1.1221  0.1488
  341MOL0     C45963   5.603   1.107  11.396  0.1844  0.1412 -0.0303
  341MOL0     C45964   5.617   1.228  11.385 -1.3848  0.1584  0.2458
  341MOL0     C45965   5.230   0.710  10.977  0.8169 -0.6374 -0.0442
  341MOL0     C45966   5.189   0.609  10.883  0.4015  0.1920  0.0774
  341MOL0     C45967   5.256   0.634  10.752  0.5436 -0.9005  1.0169
  341MOL0     H45968   5.186   0.152  10.674 -0.8838  0.0319 -1.2729
  341MOL0     H45969   5.131  -0.064  10.577  4.1491  3.3053  0.7304
  341MOL0     H45970   4.949  -0.370  10.857  2.8619  2.6307 -1.2635
  341MOL0     H45971   4.804  -0.310  10.770  0.5964  1.8664 -0.4170
  341MOL0     H45972   5.015  -0.521  10.669 -1.7353 -1.5597 -2.2239
  341MOL0     H45973   4.895  -0.452  10.557  1.8212 -3.2400 -1.3649
  341MOL0     H45974   4.722  -0.527  10.678  1.8937  0.5991 -3.0498
  341MOL0     H45975   4.825  -0.558  10.827  1.7154 -1.1294  0.1533
  341MOL0     H45976   4.844  -0.712  10.553  1.4422  0.9063  0.3147
  341MOL0     H45977   4.905  -0.770  10.709  0.3041 -1.1876 -1.6062
  341MOL0     H45978   4.623  -0.730  10.620  0.9085 -2.2973 -4.2579
  341MOL0     H45979   4.694  -0.887  10.631  0.5377  1.8484 -0.8263
  341MOL0     H45980   4.750  -0.878  10.864  0.7375  0.0863 -0.2803
  341MOL0     H45981   4.656  -0.723  10.884  0.0914  1.4869 -2.7330
  341MOL0     H45982   4.561  -0.954  10.951 -2.0828 -0.2479 -0.3925
  341MOL0     H45983   4.570  -0.996  10.785  0.5977  0.1966 -0.2907
  341MOL0     H45984   4.389  -0.811  10.739  1.4353  2.0871  1.2562
  341MOL0     H45985   4.333  -0.903  10.874  1.7986 -3.2508 -0.8640
  341MOL0     H45986   4.409  -0.566  10.793  1.1617  1.1628 -0.3468
  341MOL0     H45987   4.314  -0.335  10.924 -1.5673  0.1214  0.3812
  341MOL0     H45988   4.267  -0.350  11.094  0.5377  0.9320  0.9654
  341MOL0     H45989   4.506  -0.356  11.159 -5.7957 -2.6309  1.5029
  341MOL0     H45990   4.544  -0.364  10.980 -2.1033 -1.4693 -1.0528
  341MOL0     H45991   4.480  -0.128  11.150  1.6397 -0.5765  0.8308
  341MOL0     H45992   4.383  -0.122  11.006 -0.0425 -0.7436 -2.4713
  341MOL0     H45993   4.682  -0.171  11.034 -0.7347 -3.1180 -0.9664
  341MOL0     H45994   4.614  -0.009  11.005 -1.6093 -0.2466  1.0026
  341MOL0     H45995   4.650   0.102  10.791 -1.8106  0.2760  2.0264
  341MOL0     H45996   4.536   0.245  10.621  2.3786 -0.9981 -1.3686
  341MOL0     H45997   4.449   0.416  10.237  0.0180 -3.9592  3.6524
  341MOL0     H45998   4.406   0.643  10.172 -0.5744  0.1940 -0.7172
  341MOL0     H45999   4.054   0.849  10.382 -0.6115  0.5753  0.4158
  341MOL0     H46000   4.195   0.908  10.469  1.4436 -0.0205 -0.1389
  341MOL0     H46001   4.234   1.071  10.287 -0.3663 -0.3219  1.4288
  341MOL0     H46002   4.069   1.037  10.224 -0.7135 -2.0034 -0.1089
  341MOL0     H46003   3.985   1.094  10.462  1.4124  1.6066  2.0350
  341MOL0     H46004   4.144   1.150  10.496 -1.7587  2.0920  1.3124
  341MOL0     H46005   4.007   1.255  10.250  3.6733  1.0529 -1.4730
  341MOL0     H46006   4.150   1.305  10.331  0.4191 -2.7403 -2.7096
  341MOL0     H46007   4.021   1.350  10.530  1.9526 -2.4735 -1.4525
  341MOL0     H46008   3.868   1.361  10.419  0.2927 -0.6546  0.2694
  341MOL0     H46009   4.119   1.517  10.368  0.9287  0.3942  3.0147
  341MOL0     H46010   3.969   1.520  10.280  2.8040 -0.3433 -0.4787
  341MOL0     H46011   3.993   1.604  10.576 -3.4605  0.2064  1.2095
  341MOL0     H46012   3.847   1.614  10.495  0.0492 -2.8633 -0.6175
  341MOL0     H46013   4.087   1.784  10.444  1.0388  0.0569 -1.2201
  341MOL0     H46014   3.985   1.761  10.302  4.2129  2.2900 -0.4287
  341MOL0     H46015   4.121   0.666  10.505 -0.4377 -0.0451 -1.2200
  341MOL0     H46016   4.141   0.443  10.536  0.5341  0.0317 -0.1908
  341MOL0     H46017   4.221  -0.048  10.596  0.2615 -0.3186 -2.3677
  341MOL0     H46018   4.358  -0.202  10.736  1.1674 -0.9192 -3.6831
  341MOL0     H46019   4.863  -0.134  10.911  3.4145 -1.1728  3.9465
  341MOL0     H46020   4.910   0.077  11.005  1.5969  0.3933  1.3091
  341MOL0     H46021   5.064   0.383  11.109  2.0049  0.9812  2.8784
  341MOL0     H46022   5.112   0.559  11.255 -1.6964 -3.3345 -1.1489
  341MOL0     H46023   5.266   0.972  11.291  1.2187  1.0827 -0.2392
  341MOL0     H46024   5.238   0.952  11.112 -2.5532 -3.6732 -0.5189
  341MOL0     H46025   5.453   1.036  11.143  1.9204 -1.1296 -1.4378
  341MOL0     H46026   5.463   0.890  11.071  1.1336  3.0345 -2.1701
  341MOL0     H46027   5.654   0.881  11.247  1.2316  5.2147  1.3634
  341MOL0     H46028   5.517   0.793  11.319  1.1507  0.9072  2.0949
  341MOL0     H46029   5.451   0.976  11.431  0.7609 -0.3676  4.0152
  341MOL0     H46030   5.615   0.911  11.473  1.3926  0.2767 -1.6562
  341MOL0     H46031   5.631   1.332  11.360 -0.8633 -0.4790 -2.4741
  341MOL0     H46032   5.278   0.804  10.954 -0.9345  0.0549 -1.0868
  341MOL0     H46033   5.290   0.738  10.742 -0.3954 -0.3372  3.1007
  341MOL0     H46034   5.335   0.560  10.740 -0.3428 -1.8602  1.0161
  341MOL0     H46035   5.188   0.622  10.666  0.8672  2.7856  0.0731
  342MOL0     O46036   5.169   5.835   2.885  0.4412  0.2244  0.1444
  342MOL0     C46037   5.178   5.714   2.913  0.1590  0.2070 -0.2161
  342MOL0     O46038   5.246   5.666   3.018 -0.6507  0.2367  0.4922
  342MOL0     C46039   5.237   5.538   3.048  0.8246 -0.5413 -0.6137
  342MOL0     C46040   5.119   5.514   3.114  0.7959 -0.4698  0.5331
  342MOL0     C46041   5.091   5.384   3.154  0.0408  0.9301  0.7694
  342MOL0     C46042   5.184   5.282   3.128 -0.3622  0.8087  0.4780
  342MOL0     O46043   5.163   5.147   3.155 -0.4671  0.3001 -0.4181
  342MOL0     C46044   5.064   5.114   3.259  0.3302  0.3962  0.2008
  342MOL0     C46045   5.043   4.964   3.273 -0.5856  0.0813  0.4537
  342MOL0     C46046   5.035   4.892   3.143 -0.7112 -0.2158  0.5221
  342MOL0     C46047   5.014   4.739   3.168  0.5402 -0.1604  0.0742
  342MOL0     C46048   5.014   4.662   3.039 -0.5015  1.1404  0.2340
  342MOL0     C46049   4.943   4.530   3.051 -0.7394  0.3928  1.0301
  342MOL0     C46050   4.922   4.470   2.909 -0.7796  0.1640 -0.3874
  342MOL0     C46051   4.885   4.321   2.914 -0.7788 -0.3550 -0.4117
  342MOL0     N46052   4.859   4.258   2.786  0.1291 -0.3784 -0.2745
  342MOL0     C46053   4.789   4.135   2.776  0.3814 -0.4234  0.0633
  342MOL0     C46054   4.787   4.116   2.649 -0.9742  0.1020 -0.7606
  342MOL0     C46055   4.713   4.000   2.587  0.4998 -0.1644  0.0776
  342MOL0     C46056   4.556   4.013   2.586  0.2550  0.5213 -0.5821
  342MOL0     C46057   4.503   4.133   2.500  0.0111 -0.4447  0.3436
  342MOL0     C46058   4.355   4.140   2.512 -0.3392  0.5054  0.4426
  342MOL0     O46059   4.293   4.026   2.449 -0.9055 -0.0990 -0.1504
  342MOL0     C46060   4.294   4.002   2.311 -1.2856 -0.1827  0.6595
  342MOL0     C46061   4.262   3.870   2.272 -0.1691 -0.0921  0.2101
  342MOL0     C46062   4.261   3.832   2.142  1.6525 -0.2033  0.0572
  342MOL0     C46063   4.319   3.921   2.049 -0.4180 -0.1657 -0.5374
  342MOL0     C46064   4.319   3.886   1.905 -0.3128  0.0202 -0.1591
  342MOL0     O46065   4.284   3.752   1.877  0.2065  0.1222  0.2827
  342MOL0     C46066   4.296   3.705   1.752  1.0110 -0.0548  0.3194
  342MOL0     C46067   4.180   3.640   1.708 -0.0753 -0.0074  0.9068
  342MOL0     C46068   4.170   3.610   1.572  0.6482  1.0951  0.2471
  342MOL0     C46069   4.279   3.630   1.487  0.3135 -0.7510 -0.3072
  342MOL0     O46070   4.292   3.573   1.362 -0.4907 -0.4496  0.2080
  342MOL0     C46071   4.181   3.529   1.287 -0.7932 -0.2279 -0.4195
  342MOL0     C46072   4.197   3.378   1.253  0.1187 -0.7830 -1.0577
  342MOL0     C46073   4.199   3.289   1.370  0.0394 -0.0682 -0.8242
  342MOL0     C46074   4.339   3.261   1.424  0.4819  0.0978  0.5259
  342MOL0     C46075   4.331   3.184   1.555  1.1439 -0.2357 -0.9656
  342MOL0     C46076   4.340   3.291   1.664  0.5237  0.0601 -0.2796
  342MOL0     C46077   4.361   3.232   1.803 -0.5755  0.2443  0.3039
  342MOL0     C46078   4.256   3.277   1.906 -0.1015 -0.0712 -0.4329
  342MOL0    Cl46079   4.318   3.195   2.045  0.2568 -0.1359 -0.3139
  342MOL0     C46080   4.391   3.694   1.536 -0.5061 -0.2697  0.1400
  342MOL0     C46081   4.399   3.731   1.669 -0.6468 -0.1226 -0.0565
  342MOL0     O46082   4.348   3.975   1.824 -0.1104  0.1025  0.3045
  342MOL0     C46083   4.372   4.044   2.097 -0.0856 -0.2545 -0.3794
  342MOL0     C46084   4.347   4.094   2.225  0.9329 -0.2397  0.4484
  342MOL0     N46085   4.862   4.214   2.578 -0.7717  0.5492 -0.0514
  342MOL0     N46086   4.896   4.303   2.667  0.8536  0.8707 -0.3945
  342MOL0     C46087   5.303   5.305   3.074 -0.4039  0.4647 -1.2334
  342MOL0     C46088   5.330   5.439   3.042  0.1515  0.4618 -0.3210
  342MOL0     C46089   5.107   5.629   2.812 -0.5953  0.5422 -1.1442
  342MOL0     C46090   4.971   5.626   2.797  0.2336 -0.0628  0.3367
  342MOL0     C46091   4.916   5.549   2.695 -0.0215  0.0977 -0.8120
  342MOL0     C46092   4.997   5.473   2.608  0.4515  0.4473 -0.9265
  342MOL0     O46093   4.932   5.404   2.504 -0.2807  0.2946  0.1040
  342MOL0     C46094   5.001   5.308   2.436  0.1717 -0.5657  0.3353
  342MOL0     C46095   4.908   5.198   2.396  0.0115  0.2052 -0.1917
  342MOL0     C46096   4.772   5.249   2.334  0.1342  0.4217  0.9579
  342MOL0     C46097   4.692   5.123   2.284 -0.8284 -0.6880 -0.5484
  342MOL0     C46098   4.750   5.053   2.163  0.0708 -0.0638  0.1689
  342MOL0     C46099   4.802   5.007   2.064  0.2811 -0.2032 -0.2456
  342MOL0     C46100   5.133   5.493   2.618 -0.9361 -0.0750 -0.0670
  342MOL0     C46101   5.191   5.572   2.716  0.3746  0.4100  0.5864
  342MOL0     C46102   5.339   5.615   2.705  0.6123 -0.4463  0.1769
  342MOL0     H46103   5.046   5.592   3.131  1.6109  1.1723 -2.7615
  342MOL0     H46104   4.996   5.360   3.200 -0.1848 -1.4427 -0.7152
  342MOL0     H46105   5.073   5.161   3.357  0.3593 -2.0571  1.4282
  342MOL0     H46106   4.974   5.156   3.214  0.8235  1.7993  0.4711
  342MOL0     H46107   4.954   4.936   3.330  0.5954 -3.0952  0.9313
  342MOL0     H46108   5.129   4.920   3.324 -1.5547 -2.8188 -0.2209
  342MOL0     H46109   5.125   4.903   3.082  1.1609  0.5061  3.2426
  342MOL0     H46110   4.945   4.925   3.090  0.4211  3.1403  0.4585
  342MOL0     H46111   5.081   4.703   3.247 -0.8160 -0.4306  1.1389
  342MOL0     H46112   4.914   4.728   3.211  1.4422  1.3185  2.7960
  342MOL0     H46113   4.960   4.726   2.969  1.4196  2.7018  0.0943
  342MOL0     H46114   5.113   4.645   2.995 -0.8269 -3.0079  0.6791
  342MOL0     H46115   5.022   4.476   3.104  0.0609 -2.6501 -2.8420
  342MOL0     H46116   4.850   4.530   3.108 -2.5112  2.3982 -1.6627
  342MOL0     H46117   5.003   4.493   2.839 -1.1640  5.3391  0.5143
  342MOL0     H46118   4.843   4.522   2.854  1.6731  1.4972 -2.9232
  342MOL0     H46119   4.977   4.271   2.946 -1.7742 -0.7405  2.0107
  342MOL0     H46120   4.805   4.299   2.985 -0.4324 -2.3873 -0.5912
  342MOL0     H46121   4.722   4.087   2.846 -2.5700  1.3194 -1.3827
  342MOL0     H46122   4.729   4.000   2.478  1.0721  0.5304  0.1535
  342MOL0     H46123   4.746   3.911   2.641 -2.2857  0.9140  3.9648
  342MOL0     H46124   4.524   3.917   2.544  1.6606 -0.6103  0.8175
  342MOL0     H46125   4.533   4.025   2.693  1.8802 -1.0469 -0.0005
  342MOL0     H46126   4.536   4.124   2.396  3.3976  1.3596  1.1203
  342MOL0     H46127   4.556   4.222   2.537 -2.7090  0.8480  1.4189
  342MOL0     H46128   4.322   4.228   2.455  3.2200 -0.0894 -2.9916
  342MOL0     H46129   4.327   4.141   2.617 -0.6046  0.7828  0.3726
  342MOL0     H46130   4.230   3.793   2.341 -2.8654  0.6776 -0.0911
  342MOL0     H46131   4.214   3.739   2.112  2.8147 -1.0111  0.6679
  342MOL0     H46132   4.101   3.616   1.778  0.0335 -1.6235  0.5165
  342MOL0     H46133   4.088   3.541   1.551 -3.5940  3.6502  5.6994
  342MOL0     H46134   4.087   3.540   1.342 -0.9597  0.9846 -0.9015
  342MOL0     H46135   4.176   3.595   1.200  2.2573  1.0969  0.2765
  342MOL0     H46136   4.113   3.352   1.189 -2.1058  1.1384  0.8810
  342MOL0     H46137   4.284   3.357   1.189 -0.8975 -1.8494 -2.1338
  342MOL0     H46138   4.139   3.335   1.450 -0.0659  0.0069 -0.9474
  342MOL0     H46139   4.152   3.191   1.358  0.7068 -1.0252  3.0343
  342MOL0     H46140   4.410   3.344   1.414 -2.0107  2.1589 -1.8755
  342MOL0     H46141   4.384   3.186   1.358 -1.9960 -2.5162  1.6071
  342MOL0     H46142   4.414   3.113   1.562 -0.3090 -1.8718  0.7656
  342MOL0     H46143   4.245   3.117   1.564 -0.4000  1.6586 -0.9167
  342MOL0     H46144   4.422   3.363   1.650 -0.2954  1.2052  0.6197
  342MOL0     H46145   4.246   3.347   1.659  0.1874 -0.2069  2.0166
  342MOL0     H46146   4.463   3.260   1.832  0.1293 -0.1250 -1.6691
  342MOL0     H46147   4.362   3.123   1.803  0.9864  0.1847  2.2463
  342MOL0     H46148   4.251   3.386   1.916 -2.5741 -0.2559  1.0730
  342MOL0     H46149   4.163   3.234   1.869 -1.2377 -1.7198  3.7381
  342MOL0     H46150   4.475   3.708   1.468 -1.3952 -2.1752 -1.4244
  342MOL0     H46151   4.491   3.778   1.701  0.2903 -2.7230  1.3944
  342MOL0     H46152   4.421   4.112   2.028  1.0477 -1.0720 -0.3895
  342MOL0     H46153   4.362   4.198   2.250 -2.0350  0.4142 -0.0560
  342MOL0     H46154   5.380   5.234   3.045  2.4080  3.5524 -2.0517
  342MOL0     H46155   5.428   5.467   3.004  1.6934 -2.6705  0.9537
  342MOL0     H46156   4.910   5.688   2.863 -1.8966  0.2954 -1.7926
  342MOL0     H46157   4.810   5.538   2.672  0.5122 -4.3526 -1.8503
  342MOL0     H46158   5.083   5.257   2.490  2.3390 -0.3783 -2.5223
  342MOL0     H46159   5.052   5.353   2.350 -1.8663  0.3521 -0.4530
  342MOL0     H46160   4.886   5.127   2.476  2.6489  1.0254  1.3725
  342MOL0     H46161   4.977   5.151   2.326  2.6166 -0.6479  2.7353
  342MOL0     H46162   4.799   5.311   2.248  1.5774 -2.3297 -0.7155
  342MOL0     H46163   4.708   5.302   2.404  1.8112  0.9543  2.1564
  342MOL0     H46164   4.693   5.040   2.356 -6.1244 -0.7356 -0.1595
  342MOL0     H46165   4.587   5.143   2.264 -1.5286 -3.6387 -0.3750
  342MOL0     H46166   4.866   4.972   1.985  1.5314 -0.3107  0.7877
  342MOL0     H46167   5.195   5.460   2.535  1.0578 -2.5524  2.2396
  342MOL0     H46168   5.391   5.531   2.658 -2.1100 -1.6120 -0.9433
  342MOL0     H46169   5.348   5.693   2.628 -1.0752  0.8076  1.1939
  342MOL0     H46170   5.397   5.641   2.794  1.8480  0.5677 -0.8687
  343MOL0     O46171   7.452   9.541   5.141 -1.3389 -0.2090 -0.0729
  343MOL0     C46172   7.368   9.515   5.062 -0.4874 -0.0916 -0.2196
  343MOL0     O46173   7.280   9.419   5.070  0.3618  0.2878 -0.8726
  343MOL0     C46174   7.283   9.351   5.187  0.4630  0.1921 -0.1381
  343MOL0     C46175   7.391   9.263   5.229  0.5003 -0.6194  0.2628
  343MOL0     C46176   7.373   9.206   5.349  0.6394  0.0975 -0.0436
  343MOL0     C46177   7.272   9.229   5.439 -0.3014  0.1461  0.2259
  343MOL0     O46178   7.265   9.154   5.549  0.1777  0.6324 -0.2699
  343MOL0     C46179   7.370   9.085   5.602  0.2834  0.2367  0.7878
  343MOL0     C46180   7.329   9.063   5.744 -1.3875 -0.1919 -0.0154
  343MOL0     C46181   7.424   9.009   5.849  0.4044  0.1786  0.7772
  343MOL0     C46182   7.552   9.094   5.868 -0.4624  0.7964 -0.4192
  343MOL0     C46183   7.628   9.050   5.996 -0.9632  0.1937  0.1721
  343MOL0     C46184   7.747   9.141   6.001  0.1287  0.1401 -1.5831
  343MOL0     C46185   7.859   9.127   5.895 -0.1966 -0.4228  0.3407
  343MOL0     C46186   7.912   8.990   5.884  0.5004  0.3044  0.5326
  343MOL0     N46187   8.026   8.973   5.795  1.1543  0.0459 -0.1994
  343MOL0     C46188   8.014   8.959   5.659  0.4093  0.4543 -0.6741
  343MOL0     C46189   8.126   8.901   5.623 -0.3443 -1.0315 -0.3506
  343MOL0     C46190   8.159   8.853   5.485  0.1836  0.1730  0.8261
  343MOL0     C46191   8.146   8.965   5.377 -0.5083  0.3694 -0.0270
  343MOL0     C46192   8.195   8.896   5.245  0.4293  0.0631 -0.5227
  343MOL0     C46193   8.219   9.004   5.144 -0.1186 -0.8724  0.2050
  343MOL0     O46194   8.231   8.939   5.016 -0.8427 -0.4809 -0.1495
  343MOL0     C46195   8.232   9.019   4.906 -0.0550  0.3880  0.6127
  343MOL0     C46196   8.191   8.958   4.782  0.6467 -0.2902 -0.1132
  343MOL0     C46197   8.210   9.032   4.665  0.2664 -1.0857  0.4515
  343MOL0     C46198   8.269   9.165   4.668 -0.0421  0.7754 -1.0609
  343MOL0     C46199   8.287   9.238   4.542  0.0242  0.7809  0.6090
  343MOL0     O46200   8.393   9.318   4.537  0.3989 -0.1332  0.2637
  343MOL0     C46201   8.392   9.389   4.417 -0.0876 -1.9901 -0.0155
  343MOL0     C46202   8.347   9.519   4.426  0.3829 -0.0460  0.3297
  343MOL0     C46203   8.339   9.602   4.307  0.5198 -0.1855  0.0134
  343MOL0     C46204   8.396   9.556   4.190 -0.6467  0.0755  0.1775
  343MOL0     O46205   8.419   9.615   4.076 -0.6394  0.3832  0.1337
  343MOL0     C46206   8.339   9.724   4.043 -0.4793 -0.0564  1.0213
  343MOL0     C46207   8.389   9.856   4.092  1.1252 -0.2823 -0.7753
  343MOL0     C46208   8.310   9.978   4.054  0.4878  0.0912 -0.1517
  343MOL0     C46209   8.374  10.113   4.086 -0.0975  0.3909  0.3789
  343MOL0     C46210   8.439  10.120   4.220 -0.3057 -0.3961 -1.1849
  343MOL0     C46211   8.335  10.129   4.333 -0.6153 -0.1253  0.2952
  343MOL0     C46212   8.426  10.141   4.461  0.7266  1.0494 -0.4999
  343MOL0     C46213   8.336  10.177   4.582  0.0079 -0.4059 -0.8012
  343MOL0    Cl46214   8.428  10.208   4.738  0.1776 -0.3407  0.0094
  343MOL0     C46215   8.444   9.425   4.185  0.1516  0.7003 -0.4439
  343MOL0     C46216   8.444   9.338   4.301 -0.0349 -1.0465 -0.3895
  343MOL0     O46217   8.197   9.230   4.456  0.5233  0.5065 -0.1874
  343MOL0     C46218   8.306   9.226   4.785 -0.6814 -0.0248 -0.5304
  343MOL0     C46219   8.288   9.152   4.908 -0.0772  0.0714  1.0250
  343MOL0     N46220   8.201   8.873   5.742 -0.1997  0.5021 -0.5697
  343MOL0     N46221   8.134   8.916   5.841  0.2838  0.1261  0.1962
  343MOL0     C46222   7.178   9.325   5.411 -0.4907  0.4643  0.5850
  343MOL0     C46223   7.183   9.388   5.285  0.1777  0.5590 -0.0555
  343MOL0     C46224   7.348   9.600   4.933 -0.1258  0.2385  0.0108
  343MOL0     C46225   7.306   9.548   4.808  0.3038  0.6918 -0.2245
  343MOL0     C46226   7.259   9.630   4.707  1.3291 -0.4929  0.5259
  343MOL0     C46227   7.271   9.773   4.722 -0.2804  0.1367  0.2724
  343MOL0     O46228   7.224   9.871   4.638 -0.0658 -0.2730 -0.1855
  343MOL0     C46229   7.151   9.827   4.529 -0.5505 -0.1301 -0.1967
  343MOL0     C46230   7.103   9.937   4.436 -0.1225 -0.6602  0.4194
  343MOL0     C46231   7.201   9.978   4.334 -0.4318 -1.2814  0.2326
  343MOL0     C46232   7.132  10.024   4.208  0.3866 -0.6375 -0.0031
  343MOL0     C46233   7.222  10.085   4.102 -0.4375 -0.5512  0.4770
  343MOL0     C46234   7.284  10.145   4.016  0.7606 -0.0326 -0.1918
  343MOL0     C46235   7.321   9.819   4.843 -0.0352 -0.3834 -0.2394
  343MOL0     C46236   7.358   9.737   4.946  0.1700  0.5478 -0.2493
  343MOL0     C46237   7.383   9.815   5.076  0.1965  0.7126  0.8712
  343MOL0     H46238   7.476   9.252   5.161  0.0207  0.0434 -0.4663
  343MOL0     H46239   7.452   9.133   5.368  2.2988  2.1663  1.5445
  343MOL0     H46240   7.395   8.986   5.562  1.5641  1.2161 -1.0043
  343MOL0     H46241   7.461   9.147   5.603  1.4372 -1.3865  0.8919
  343MOL0     H46242   7.251   8.986   5.754 -1.1591 -0.5079 -0.6231
  343MOL0     H46243   7.300   9.161   5.783  1.8247  0.1623  1.7593
  343MOL0     H46244   7.451   8.905   5.826  2.2129  0.6072  0.8161
  343MOL0     H46245   7.375   9.016   5.946  0.5824  0.9702  0.8139
  343MOL0     H46246   7.617   9.079   5.781  2.7642  0.2039  1.8743
  343MOL0     H46247   7.512   9.195   5.875  2.3155  1.8682  2.4740
  343MOL0     H46248   7.567   9.071   6.085  1.2462  0.0644  1.8044
  343MOL0     H46249   7.671   8.950   5.988  0.7925  0.6476  2.8455
  343MOL0     H46250   7.718   9.246   6.015 -3.2021 -0.5536 -2.2376
  343MOL0     H46251   7.786   9.113   6.099 -0.5596  0.1869 -1.2875
  343MOL0     H46252   7.943   9.192   5.920 -0.0854 -0.3066 -0.3160
  343MOL0     H46253   7.831   9.160   5.795 -0.4376 -0.6435  0.3333
  343MOL0     H46254   7.945   8.952   5.981  0.6384 -0.4263  0.2058
  343MOL0     H46255   7.827   8.929   5.851  1.4836 -0.5148 -0.5589
  343MOL0     H46256   7.920   8.975   5.606  0.1793 -1.5981 -0.9720
  343MOL0     H46257   8.257   8.805   5.475  0.0745 -0.2039  1.4984
  343MOL0     H46258   8.076   8.784   5.465 -0.7464  1.1144  1.3298
  343MOL0     H46259   8.041   8.983   5.353 -0.3162  0.9264 -0.4749
  343MOL0     H46260   8.217   9.044   5.404 -0.7003  0.1915  1.0269
  343MOL0     H46261   8.115   8.833   5.207 -2.0970  1.3979  2.1080
  343MOL0     H46262   8.279   8.829   5.264 -2.1007 -3.3618 -0.6136
  343MOL0     H46263   8.307   9.067   5.156  1.2720 -2.0297 -2.8834
  343MOL0     H46264   8.132   9.069   5.156 -0.2956 -1.4221  2.3868
  343MOL0     H46265   8.164   8.853   4.779  0.9709 -0.3490 -2.0060
  343MOL0     H46266   8.203   8.996   4.563  0.9159  0.9808 -0.3886
  343MOL0     H46267   8.331   9.560   4.525  0.8085  0.7493  0.0813
  343MOL0     H46268   8.293   9.700   4.313 -1.7021 -0.8822 -2.8971
  343MOL0     H46269   8.353   9.718   3.935 -0.2393 -0.3634  1.0687
  343MOL0     H46270   8.234   9.714   4.072 -0.2994 -3.5510  0.9162
  343MOL0     H46271   8.392   9.843   4.200  0.1342 -1.4616 -0.8601
  343MOL0     H46272   8.489   9.873   4.051  1.1720 -3.1870 -2.1843
  343MOL0     H46273   8.273   9.979   3.951 -2.1219  1.7713  0.6780
  343MOL0     H46274   8.218   9.974   4.113  0.7480  0.7014  0.3102
  343MOL0     H46275   8.309  10.199   4.066 -1.5783 -0.9656 -0.9709
  343MOL0     H46276   8.453  10.124   4.011 -1.0112  2.5059 -0.3408
  343MOL0     H46277   8.502  10.209   4.211 -3.4189  2.6404  2.9452
  343MOL0     H46278   8.516  10.042   4.230  0.0433 -0.3189 -3.0007
  343MOL0     H46279   8.264  10.210   4.320 -1.2893 -1.0581 -2.4762
  343MOL0     H46280   8.276  10.037   4.341 -0.5063 -0.0474  3.1129
  343MOL0     H46281   8.512  10.209   4.453  0.8063  0.8784 -1.1250
  343MOL0     H46282   8.464  10.041   4.485  0.5527  1.1406  0.1689
  343MOL0     H46283   8.273  10.262   4.553 -0.1307 -0.6141 -1.1181
  343MOL0     H46284   8.267  10.096   4.606 -0.0337  0.4768  2.4900
  343MOL0     H46285   8.498   9.380   4.103 -1.8224 -2.3376 -0.2252
  343MOL0     H46286   8.490   9.240   4.307 -1.7842 -1.8120  2.2226
  343MOL0     H46287   8.349   9.325   4.797  0.7749 -0.9187  2.7406
  343MOL0     H46288   8.314   9.193   5.005 -0.1045 -0.2037  1.1488
  343MOL0     H46289   7.102   9.335   5.488  1.5805  0.1300  2.7931
  343MOL0     H46290   7.096   9.441   5.248  1.1255  0.3689 -2.7802
  343MOL0     H46291   7.312   9.440   4.808  0.7422  0.7124  0.1330
  343MOL0     H46292   7.238   9.584   4.611 -0.4313 -0.8883  1.0661
  343MOL0     H46293   7.067   9.761   4.552  0.2547 -1.2211 -0.3245
  343MOL0     H46294   7.220   9.770   4.467 -1.8962 -2.0477 -0.0155
  343MOL0     H46295   7.085  10.029   4.493  1.8087 -0.0025  0.0441
  343MOL0     H46296   7.009   9.900   4.395 -0.5831  1.0488 -0.1573
  343MOL0     H46297   7.267   9.899   4.299  2.0009  0.9575 -0.5688
  343MOL0     H46298   7.252  10.063   4.380 -5.4306  0.8379  2.6063
  343MOL0     H46299   7.078   9.944   4.157 -2.0214  0.6815  0.2993
  343MOL0     H46300   7.058  10.100   4.236  0.1752 -1.1198  0.7755
  343MOL0     H46301   7.327  10.205   3.938  2.0161  0.5622  0.9122
  343MOL0     H46302   7.322   9.927   4.852 -1.0499 -0.4229  0.6697
  343MOL0     H46303   7.486   9.851   5.068  0.4848 -0.4474 -1.9448
  343MOL0     H46304   7.319   9.904   5.079 -0.8004 -0.0016  1.1459
  343MOL0     H46305   7.363   9.767   5.172  1.3648  0.4072  0.9848
  344MOL0     O46306   0.743   8.842   4.250  0.1085 -0.2106 -0.4322
  344MOL0     C46307   0.722   8.838   4.371  0.1608  0.0754 -0.4742
  344MOL0     O46308   0.760   8.736   4.444 -0.2319 -0.6228  0.0158
  344MOL0     C46309   0.816   8.630   4.379  0.8860 -0.2052 -0.6505
  344MOL0     C46310   0.741   8.563   4.272 -0.4204 -0.0909 -0.5796
  344MOL0     C46311   0.796   8.443   4.221 -0.3178 -0.5289 -0.9011
  344MOL0     C46312   0.904   8.383   4.280  0.0730 -0.8734 -0.0184
  344MOL0     O46313   0.944   8.254   4.245 -0.4167 -0.1052 -0.4988
  344MOL0     C46314   0.859   8.183   4.148 -0.5058  0.0829 -0.5776
  344MOL0     C46315   0.920   8.045   4.134  0.4127  0.4003  0.2895
  344MOL0     C46316   0.814   7.941   4.080  0.0385 -0.1207 -0.6526
  344MOL0     C46317   0.745   7.990   3.953 -0.3211  0.2889  0.6487
  344MOL0     C46318   0.631   7.900   3.908  0.2757  0.8619  0.0977
  344MOL0     C46319   0.677   7.749   3.903 -0.1195  0.2010  0.8079
  344MOL0     C46320   0.568   7.666   3.850 -0.1001  0.1744 -0.9783
  344MOL0     C46321   0.599   7.512   3.842 -0.5082  0.6884 -0.0362
  344MOL0     N46322   0.582   7.448   3.980  0.3382  0.1981  0.8450
  344MOL0     C46323   0.669   7.455   4.076  0.5090  0.3966 -1.1510
  344MOL0     C46324   0.623   7.386   4.178 -0.8152  0.4690  0.3412
  344MOL0     C46325   0.689   7.385   4.319  0.7359 -0.0485  0.5140
  344MOL0     C46326   0.614   7.278   4.394 -0.3765 -0.6215  0.5688
  344MOL0     C46327   0.662   7.269   4.538  0.1018  0.1129  0.5835
  344MOL0     C46328   0.783   7.180   4.559 -0.0811  0.0015  0.1854
  344MOL0     O46329   0.787   7.174   4.707 -0.2615  0.1085  0.3684
  344MOL0     C46330   0.876   7.093   4.771 -0.2766 -0.8152 -0.7705
  344MOL0     C46331   0.941   6.981   4.714  0.4145  0.2367 -0.6137
  344MOL0     C46332   1.029   6.905   4.790  0.0355  0.3757  0.2954
  344MOL0     C46333   1.038   6.933   4.926 -0.0979  0.5996 -0.2322
  344MOL0     C46334   1.132   6.857   5.011  0.0007  0.1551  0.0170
  344MOL0     O46335   1.208   6.765   4.957 -0.2751  0.2414  0.1399
  344MOL0     C46336   1.278   6.661   5.028  0.3310 -0.4977 -0.1830
  344MOL0     C46337   1.364   6.689   5.126 -0.9445  0.4650 -0.2617
  344MOL0     C46338   1.430   6.577   5.186 -0.4226  0.2344 -0.2527
  344MOL0     C46339   1.420   6.441   5.145 -0.7042  0.0389  0.4841
  344MOL0     O46340   1.501   6.342   5.188 -0.6937  0.1940 -0.9923
  344MOL0     C46341   1.637   6.365   5.147  0.7597  0.0141 -0.2070
  344MOL0     C46342   1.722   6.280   5.240 -0.4398 -0.0798 -0.0414
  344MOL0     C46343   1.869   6.260   5.204 -0.3210  0.6187  0.1517
  344MOL0     C46344   1.939   6.392   5.178 -0.2677 -0.1999  0.0401
  344MOL0     C46345   2.100   6.391   5.171  0.2384  0.4094  0.3255
  344MOL0     C46346   2.152   6.534   5.144  0.3714  0.2565 -0.4216
  344MOL0     C46347   2.149   6.636   5.266  0.6901  0.8714 -0.1969
  344MOL0     C46348   2.207   6.771   5.232  0.8795  0.0988 -0.2034
  344MOL0    Cl46349   2.381   6.746   5.227  0.3388 -0.7026  0.0553
  344MOL0     C46350   1.347   6.422   5.033 -0.1790  0.7796 -0.1566
  344MOL0     C46351   1.279   6.531   4.971  0.2626 -0.5159  0.4341
  344MOL0     O46352   1.148   6.901   5.122  0.1397  0.3547 -0.2870
  344MOL0     C46353   0.964   7.034   4.987 -0.1508 -1.0247  0.3064
  344MOL0     C46354   0.894   7.119   4.904 -0.1004  0.3560  0.5341
  344MOL0     N46355   0.504   7.324   4.138 -0.5442 -0.7196 -0.1795
  344MOL0     N46356   0.481   7.362   4.017 -0.1842 -0.2738  0.1217
  344MOL0     C46357   0.972   8.443   4.385  0.2682 -0.9300  0.2709
  344MOL0     C46358   0.924   8.574   4.431 -1.1362  0.8505  0.2920
  344MOL0     C46359   0.647   8.952   4.430  0.2995  0.2146  0.6415
  344MOL0     C46360   0.622   9.066   4.345  0.1777 -0.3571 -0.0216
  344MOL0     C46361   0.563   9.187   4.396 -0.8384 -0.1060 -0.3280
  344MOL0     C46362   0.514   9.181   4.520 -0.2094 -0.1633  0.1292
  344MOL0     O46363   0.434   9.277   4.572 -0.6758 -0.0906 -0.2130
  344MOL0     C46364   0.409   9.399   4.500  0.3509 -0.2406 -0.3063
  344MOL0     C46365   0.302   9.375   4.391  0.1753 -0.6575 -0.4930
  344MOL0     C46366   0.166   9.323   4.440  0.3944 -0.3729 -0.2498
  344MOL0     C46367   0.084   9.267   4.327 -1.1367  0.3726  0.8346
  344MOL0     C46368   0.054   9.376   4.240  0.7025  1.1761  0.5147
  344MOL0     C46369   0.030   9.473   4.167  0.1316 -0.0192  0.1101
  344MOL0     C46370   0.540   9.081   4.609 -0.0794  0.1299 -0.3547
  344MOL0     C46371   0.599   8.964   4.564  0.0542 -0.2129 -0.3468
  344MOL0     C46372   0.625   8.852   4.660  0.0379 -0.5761  0.4192
  344MOL0     H46373   0.653   8.611   4.229 -2.3587 -2.0655  0.9848
  344MOL0     H46374   0.745   8.419   4.128 -4.1561  3.7268 -0.2377
  344MOL0     H46375   0.758   8.163   4.183  0.6520 -2.7030  1.6004
  344MOL0     H46376   0.852   8.229   4.049  2.5033  0.1287 -0.8782
  344MOL0     H46377   0.946   8.008   4.234 -1.4849 -1.6342  0.0922
  344MOL0     H46378   1.005   8.039   4.065 -0.0153 -1.4479 -0.1309
  344MOL0     H46379   0.745   7.914   4.160  0.8715 -2.3155 -0.6099
  344MOL0     H46380   0.864   7.846   4.059  3.5389  1.7078 -1.3632
  344MOL0     H46381   0.702   8.091   3.960  0.4155  0.6441  0.2354
  344MOL0     H46382   0.814   7.982   3.868  0.2845  0.2289  1.1444
  344MOL0     H46383   0.549   7.917   3.978 -1.4709 -0.3014 -1.5667
  344MOL0     H46384   0.586   7.935   3.814 -1.3074 -1.4887 -0.1216
  344MOL0     H46385   0.757   7.742   3.829 -1.3719 -3.2044 -0.4385
  344MOL0     H46386   0.710   7.713   4.001  0.8208  0.8785  0.7527
  344MOL0     H46387   0.526   7.700   3.755 -0.3876  1.1287 -0.5163
  344MOL0     H46388   0.492   7.680   3.927  0.7242 -1.7193  0.2857
  344MOL0     H46389   0.543   7.468   3.758 -1.9771  1.3562  0.5481
  344MOL0     H46390   0.706   7.496   3.833 -0.5733  1.3738 -3.6477
  344MOL0     H46391   0.760   7.513   4.065 -0.2032  1.6484 -0.7240
  344MOL0     H46392   0.796   7.366   4.309  0.1269 -3.2605 -1.5146
  344MOL0     H46393   0.671   7.479   4.373 -0.0257 -0.0440  0.2582
  344MOL0     H46394   0.511   7.316   4.394 -0.6407 -1.1323  3.5745
  344MOL0     H46395   0.611   7.182   4.341  0.1860 -0.9577  1.1292
  344MOL0     H46396   0.582   7.225   4.598 -0.8844  0.2296 -0.5925
  344MOL0     H46397   0.679   7.370   4.577  0.9477  0.0558  0.3861
  344MOL0     H46398   0.879   7.214   4.518  1.8356 -2.7109  2.0513
  344MOL0     H46399   0.754   7.081   4.524 -3.0181  1.4985 -2.0619
  344MOL0     H46400   0.932   6.945   4.611 -0.2720 -1.3148 -0.0487
  344MOL0     H46401   1.080   6.824   4.740 -1.3872  1.4392 -3.2195
  344MOL0     H46402   1.376   6.790   5.163 -1.3199  0.3037  0.3251
  344MOL0     H46403   1.503   6.595   5.264 -0.9269  2.0642 -0.1661
  344MOL0     H46404   1.650   6.347   5.040  2.0733  0.0773 -0.0775
  344MOL0     H46405   1.662   6.471   5.159  3.7007 -0.3724 -2.0471
  344MOL0     H46406   1.713   6.333   5.336 -3.1054 -1.2494  0.4546
  344MOL0     H46407   1.672   6.184   5.256  3.2282 -2.3639 -1.0507
  344MOL0     H46408   1.922   6.213   5.288  2.9003 -0.4462 -2.2539
  344MOL0     H46409   1.878   6.191   5.119  1.0911  0.0760  0.7028
  344MOL0     H46410   1.906   6.467   5.251 -3.4450 -0.2726 -1.1684
  344MOL0     H46411   1.910   6.439   5.084  0.9181  1.3314  0.3900
  344MOL0     H46412   2.137   6.326   5.091 -1.8941  0.9374 -1.1609
  344MOL0     H46413   2.157   6.349   5.255  2.3814  1.7397 -0.3554
  344MOL0     H46414   2.254   6.519   5.108  1.4076 -1.1696  2.7718
  344MOL0     H46415   2.079   6.575   5.074 -2.7593  4.8017  4.6841
  344MOL0     H46416   2.222   6.601   5.339  0.1207  0.1477  0.0453
  344MOL0     H46417   2.052   6.654   5.315  0.2741 -1.2589 -0.1228
  344MOL0     H46418   2.160   6.802   5.138  1.3137 -2.5582 -1.3640
  344MOL0     H46419   2.187   6.853   5.302  4.1887  0.4810  0.4487
  344MOL0     H46420   1.350   6.328   4.979  0.8465 -0.6473  2.2284
  344MOL0     H46421   1.229   6.522   4.875 -0.9970  1.2649  0.8696
  344MOL0     H46422   0.983   7.062   5.090  4.5667  1.2641 -0.9204
  344MOL0     H46423   0.859   7.213   4.946 -1.1811 -1.3754  3.8334
  344MOL0     H46424   1.053   8.396   4.439  2.2553  1.4613 -0.4263
  344MOL0     H46425   0.986   8.630   4.501  0.2522  0.2105 -0.3997
  344MOL0     H46426   0.649   9.070   4.240 -1.2237 -2.0388 -0.5014
  344MOL0     H46427   0.549   9.271   4.329 -2.0523  1.0794  1.3326
  344MOL0     H46428   0.504   9.436   4.462  0.8698 -0.8840  0.3360
  344MOL0     H46429   0.359   9.466   4.571 -1.3746  1.1590 -2.6837
  344MOL0     H46430   0.335   9.310   4.310 -0.6848 -1.1347 -0.4742
  344MOL0     H46431   0.283   9.471   4.341 -2.3520 -0.3890  0.8291
  344MOL0     H46432   0.111   9.407   4.484  0.8655 -1.9061  3.6682
  344MOL0     H46433   0.161   9.254   4.525 -1.0000  2.3786  2.0736
  344MOL0     H46434   0.144   9.189   4.277 -2.5471  1.1814 -2.3611
  344MOL0     H46435  -0.014   9.226   4.353 -0.1721 -1.2354  2.1748
  344MOL0     H46436   0.014   9.564   4.114 -3.7542 -1.6511 -1.9356
  344MOL0     H46437   0.500   9.102   4.708  2.7919  0.6787  0.7816
  344MOL0     H46438   0.732   8.828   4.669 -0.0190 -1.8395 -1.6712
  344MOL0     H46439   0.594   8.881   4.761  1.7112  1.0159  0.5176
  344MOL0     H46440   0.574   8.762   4.623  3.1397 -1.6908 -1.5799
  345MOL0     O46441  10.487   6.826   9.676  0.3164 -0.1938  0.2793
  345MOL0     C46442  10.370   6.866   9.680 -0.5909  0.0481  1.1240
  345MOL0     O46443  10.269   6.797   9.733 -0.7772  0.6903 -0.5653
  345MOL0     C46444  10.307   6.668   9.756  0.6509  0.3360  0.2724
  345MOL0     C46445  10.347   6.612   9.875 -0.2540  0.3929  0.7467
  345MOL0     C46446  10.396   6.475   9.892  0.0159  0.0039  1.1523
  345MOL0     C46447  10.372   6.388   9.786  0.0936 -0.3704  0.3712
  345MOL0     O46448  10.425   6.265   9.805 -0.3113  0.7368 -0.0186
  345MOL0     C46449  10.374   6.154   9.722  0.8395 -0.0460  0.0458
  345MOL0     C46450  10.345   6.033   9.823  0.3350  0.6506  0.4609
  345MOL0     C46451  10.265   5.922   9.769 -0.2615 -0.7258  0.8981
  345MOL0     C46452  10.124   5.906   9.832 -0.3612 -0.6970 -0.3300
  345MOL0     C46453  10.062   5.778   9.769 -0.3721 -0.3908 -0.3381
  345MOL0     C46454   9.948   5.725   9.851 -0.6495 -0.7013  0.0390
  345MOL0     C46455   9.844   5.648   9.767  0.3178 -0.7205 -0.3977
  345MOL0     C46456   9.899   5.517   9.735 -0.6164  1.5498 -0.8988
  345MOL0     N46457   9.913   5.425   9.849 -0.8791 -0.3074  0.2587
  345MOL0     C46458  10.030   5.370   9.891 -0.5089 -0.4139 -0.4295
  345MOL0     C46459   9.999   5.273   9.976  0.7936  0.5887  0.1872
  345MOL0     C46460  10.094   5.188  10.055 -0.6541  0.5512  0.3196
  345MOL0     C46461  10.214   5.268  10.112  0.7453 -0.2326  0.2071
  345MOL0     C46462  10.283   5.178  10.204 -0.0517  0.1852  0.1178
  345MOL0     C46463  10.418   5.223  10.240 -0.6594 -0.5621  0.5386
  345MOL0     O46464  10.405   5.314  10.352  0.1758  0.5965 -0.2288
  345MOL0     C46465  10.517   5.387  10.370 -0.4297 -0.5086  0.4442
  345MOL0     C46466  10.633   5.346  10.448  0.6648 -0.4196  0.5850
  345MOL0     C46467  10.742   5.435  10.481 -0.4222  0.5060 -0.1457
  345MOL0     C46468  10.738   5.563  10.424  0.2624  0.7022 -0.1321
  345MOL0     C46469  10.846   5.658  10.454 -0.5208  0.2458  0.3829
  345MOL0     O46470  10.856   5.760  10.367 -0.1550  0.3391  0.6486
  345MOL0     C46471  10.941   5.850  10.412  0.8824 -0.4341 -0.6193
  345MOL0     C46472  11.079   5.844  10.384  1.0255  0.1940  0.9382
  345MOL0     C46473  11.169   5.941  10.430  0.5015 -0.3857 -1.1548
  345MOL0     C46474  11.121   6.045  10.510 -0.1532 -0.2898  0.6090
  345MOL0     O46475  11.210   6.139  10.560 -0.5506  0.2095 -0.0944
  345MOL0     C46476  11.351   6.106  10.572  1.0038 -0.0013 -0.3106
  345MOL0     C46477  11.413   6.189  10.682 -0.0928  0.7611  0.3663
  345MOL0     C46478  11.561   6.168  10.689 -0.3099 -0.1610 -0.9047
  345MOL0     C46479  11.601   6.027  10.728  0.9754  0.2968  0.0573
  345MOL0     C46480  11.751   6.004  10.725 -1.0181  0.6289 -0.6197
  345MOL0     C46481  11.808   5.999  10.873 -0.2250 -0.1791 -0.0349
  345MOL0     C46482  11.963   5.964  10.853 -0.1980  0.4292 -0.6204
  345MOL0     C46483  12.025   5.966  10.994  0.4497  0.1615 -0.5275
  345MOL0    Cl46484  11.937   5.847  11.104  0.0181  0.1453  0.1134
  345MOL0     C46485  10.983   6.056  10.532 -0.0150 -0.2020 -0.2380
  345MOL0     C46486  10.892   5.956  10.489 -0.6317  0.3842  0.1132
  345MOL0     O46487  10.924   5.631  10.546  0.5408  0.3147 -0.6330
  345MOL0     C46488  10.625   5.598  10.338  0.6266  0.2674  0.2484
  345MOL0     C46489  10.521   5.509  10.300  0.0828  0.0333 -1.0831
  345MOL0     N46490   9.859   5.264   9.971  0.2550  0.1872 -0.5198
  345MOL0     N46491   9.807   5.367   9.901 -0.7357  0.0441  0.0404
  345MOL0     C46492  10.342   6.443   9.660  0.0205  0.1678  0.0853
  345MOL0     C46493  10.302   6.576   9.650 -0.4672  0.2083  0.0585
  345MOL0     C46494  10.334   6.996   9.620  0.0771  0.3633 -0.0381
  345MOL0     C46495  10.221   7.053   9.672  0.1556 -0.7114  1.7532
  345MOL0     C46496  10.168   7.165   9.613 -0.2722 -0.2335  0.7686
  345MOL0     C46497  10.227   7.232   9.509  0.0033 -1.1503 -0.7407
  345MOL0     O46498  10.162   7.348   9.461  0.3574  0.3446 -0.5249
  345MOL0     C46499  10.207   7.418   9.344 -0.2031 -0.5242  0.7229
  345MOL0     C46500  10.125   7.549   9.316  1.5547  0.7619 -0.0135
  345MOL0     C46501   9.980   7.515   9.266  0.6347  0.3830  0.3018
  345MOL0     C46502   9.885   7.633   9.259 -0.2794 -0.0697  0.2918
  345MOL0     C46503   9.757   7.588   9.210  0.2273 -0.0782  1.0404
  345MOL0     C46504   9.658   7.557   9.150 -0.0919 -0.6279  0.1297
  345MOL0     C46505  10.342   7.177   9.453 -0.1866 -0.3665  0.6027
  345MOL0     C46506  10.391   7.057   9.506 -1.2528  1.0943 -0.9372
  345MOL0     C46507  10.501   6.992   9.427 -0.2033 -0.3455 -0.0863
  345MOL0     H46508  10.357   6.674   9.963  0.0771  0.0606  0.9491
  345MOL0     H46509  10.432   6.436   9.987 -2.3141  1.6749  2.8507
  345MOL0     H46510  10.283   6.180   9.667  1.2003 -1.0929 -1.1139
  345MOL0     H46511  10.445   6.117   9.647 -0.1288  0.1292 -0.9872
  345MOL0     H46512  10.301   6.065   9.917  0.7726  0.4036  0.7505
  345MOL0     H46513  10.446   5.999   9.849  0.3575 -3.1853 -3.4558
  345MOL0     H46514  10.329   5.833   9.773 -2.7624 -2.5781  2.2034
  345MOL0     H46515  10.239   5.947   9.665  1.1101  0.5117  0.8258
  345MOL0     H46516  10.130   5.894   9.940  1.3377  2.1186 -0.0356
  345MOL0     H46517  10.069   5.997   9.810  3.4094  1.2849 -2.5751
  345MOL0     H46518  10.039   5.810   9.668  2.2066  3.0079 -0.0334
  345MOL0     H46519  10.139   5.700   9.763  0.2671  0.3392 -2.6892
  345MOL0     H46520   9.987   5.661   9.930  1.4938  0.0068 -0.3674
  345MOL0     H46521   9.891   5.808   9.894 -0.1816  1.8428 -3.7002
  345MOL0     H46522   9.811   5.698   9.676 -1.2815  1.4782  1.2706
  345MOL0     H46523   9.746   5.646   9.815 -0.3447  2.5383 -1.3649
  345MOL0     H46524   9.844   5.461   9.659 -1.3903 -0.7546  1.2660
  345MOL0     H46525   9.998   5.538   9.692  1.6612 -2.5866  1.6469
  345MOL0     H46526  10.129   5.401   9.862 -1.5514  4.2708  0.2669
  345MOL0     H46527  10.046   5.127  10.132 -0.6291  1.3302  0.9640
  345MOL0     H46528  10.140   5.120   9.982 -0.8975  1.5479 -0.8014
  345MOL0     H46529  10.278   5.314  10.036 -1.3775  2.5272 -0.0369
  345MOL0     H46530  10.171   5.345  10.176  0.9681  0.2599 -0.2302
  345MOL0     H46531  10.298   5.081  10.156 -1.5149 -0.5793  1.1235
  345MOL0     H46532  10.232   5.145  10.296 -0.9354  0.7024 -0.1808
  345MOL0     H46533  10.476   5.266  10.158 -3.6979 -0.6945 -1.8629
  345MOL0     H46534  10.477   5.136  10.271  0.3865  0.8688  2.8599
  345MOL0     H46535  10.623   5.242  10.478 -2.2568 -1.2338 -2.5824
  345MOL0     H46536  10.816   5.413  10.558 -0.0826  1.5123 -0.1624
  345MOL0     H46537  11.121   5.754  10.343  0.1781 -0.2142  0.9394
  345MOL0     H46538  11.276   5.925  10.432  1.2995  2.7974  4.6104
  345MOL0     H46539  11.347   6.002  10.607 -0.9344  0.5811  1.4404
  345MOL0     H46540  11.397   6.112  10.473  0.8153 -2.5642 -0.6332
  345MOL0     H46541  11.408   6.297  10.665  4.7315  1.3132  1.1420
  345MOL0     H46542  11.365   6.170  10.779 -2.7073  2.9911 -0.3529
  345MOL0     H46543  11.609   6.193  10.593  1.2842  2.1137  0.3939
  345MOL0     H46544  11.600   6.226  10.773 -2.0733  1.4420 -1.1175
  345MOL0     H46545  11.555   5.958  10.657 -0.4374  0.2368  0.9868
  345MOL0     H46546  11.574   6.004  10.832 -1.8139  0.2619 -0.6051
  345MOL0     H46547  11.812   6.080  10.675  1.8547 -0.0099  1.6362
  345MOL0     H46548  11.767   5.910  10.673 -1.0323  1.1120 -1.5192
  345MOL0     H46549  11.790   6.093  10.926  2.3922  0.1679  0.4152
  345MOL0     H46550  11.764   5.922  10.937  1.6029 -0.3523  1.1018
  345MOL0     H46551  12.011   6.037  10.787  2.7705 -1.5580 -0.8065
  345MOL0     H46552  11.969   5.863  10.812 -3.7089  0.8852 -2.7308
  345MOL0     H46553  12.132   5.944  10.985  0.4430  0.6186 -1.8456
  345MOL0     H46554  12.017   6.065  11.040  0.2155  0.2112 -0.6748
  345MOL0     H46555  10.944   6.130  10.601  2.9177  0.7611  0.5608
  345MOL0     H46556  10.784   5.954  10.503 -0.4718 -0.6764  1.3785
  345MOL0     H46557  10.610   5.695  10.291  1.0821  0.0272 -0.3959
  345MOL0     H46558  10.435   5.546  10.246  0.1080 -0.3853 -1.4056
  345MOL0     H46559  10.337   6.379   9.572 -0.8010  0.3442 -0.0073
  345MOL0     H46560  10.262   6.598   9.552 -0.3070  1.5929  0.2762
  345MOL0     H46561  10.171   7.005   9.756  0.8964  0.5961  2.9778
  345MOL0     H46562  10.074   7.207   9.648 -0.6221  1.0417 -1.4606
  345MOL0     H46563  10.214   7.352   9.257  0.9922  1.3520 -0.6761
  345MOL0     H46564  10.313   7.441   9.356  0.7575 -2.7089 -2.4032
  345MOL0     H46565  10.180   7.601   9.238  2.7994 -0.4359  0.0336
  345MOL0     H46566  10.126   7.613   9.405 -0.8178 -0.6276  1.1127
  345MOL0     H46567   9.926   7.446   9.332  0.5803 -1.4042 -1.5133
  345MOL0     H46568   9.999   7.465   9.171  3.2845 -2.3504  2.0848
  345MOL0     H46569   9.875   7.672   9.361  0.5049 -2.2731  1.2622
  345MOL0     H46570   9.932   7.712   9.199 -0.7212  1.3739  1.7693
  345MOL0     H46571   9.572   7.540   9.088 -1.0249  1.9953  0.5804
  345MOL0     H46572  10.401   7.223   9.375  0.7045 -1.1959  0.7791
  345MOL0     H46573  10.500   6.882   9.423 -2.1237 -0.4847  1.8986
  345MOL0     H46574  10.493   7.021   9.322  0.8981  1.6032  0.3256
  345MOL0     H46575  10.599   7.023   9.463 -0.1699  1.3563 -1.5472
  346MOL0     O46576   6.104   0.326  11.284  0.7211  0.4532  0.4416
  346MOL0     C46577   6.070   0.210  11.321  0.0333  0.5768  0.2197
  346MOL0     O46578   6.068   0.162  11.454  0.1396  0.4973  0.1971
  346MOL0     C46579   6.104   0.244  11.551  0.4107 -0.0003 -0.0091
  346MOL0     C46580   6.188   0.191  11.645 -0.2652  0.3975 -0.4099
  346MOL0     C46581   6.218   0.265  11.767  1.0495  0.5347 -0.2828
  346MOL0     C46582   6.153   0.391  11.782  0.0556 -0.3026 -0.1416
  346MOL0     O46583   6.170   0.486  11.878 -0.7641  0.6321  0.0689
  346MOL0     C46584   6.239   0.446  11.997  0.0235 -0.4950 -0.2326
  346MOL0     C46585   6.277   0.575  12.061 -0.6712  0.2223 -0.0613
  346MOL0     C46586   6.156   0.640  12.126 -0.1304 -0.4595 -1.7873
  346MOL0     C46587   6.211   0.736  12.237  0.3514  0.3849  1.2712
  346MOL0     C46588   6.093   0.751  12.334 -0.3725 -0.6866 -0.1564
  346MOL0     C46589   6.124   0.836  12.465  0.0189 -0.6211  0.1772
  346MOL0     C46590   6.008   0.840  12.561 -0.4650 -1.0710  0.5051
  346MOL0     C46591   6.035   0.917  12.695  0.7452 -0.5541  0.0427
  346MOL0     N46592   6.095   0.839  12.798 -0.2892  0.8331  0.3482
  346MOL0     C46593   6.017   0.778  12.896 -0.5769  0.3736  0.3369
  346MOL0     C46594   6.101   0.728  12.984  0.0869  0.6278 -0.2999
  346MOL0     C46595   6.066   0.645  13.101  0.0446 -0.8312 -0.7243
  346MOL0     C46596   5.976   0.714  13.210  0.4201  0.7917 -0.6957
  346MOL0     C46597   6.014   0.858  13.234 -0.0158 -0.0330 -0.3274
  346MOL0     C46598   5.942   0.927  13.346  0.4589  0.6657 -0.4858
  346MOL0     O46599   5.941   1.074  13.338 -0.3865  0.8331  0.2348
  346MOL0     C46600   6.043   1.138  13.416 -0.6766  0.3098  0.5685
  346MOL0     C46601   6.107   1.248  13.351 -1.1200  0.6541  0.1470
  346MOL0     C46602   6.197   1.324  13.426 -0.2896  0.5024 -0.2289
  346MOL0     C46603   6.240   1.289  13.554  0.3229 -0.7473  0.2529
  346MOL0     C46604   6.357   1.346  13.633  0.1132 -0.3420  0.2232
  346MOL0     O46605   6.400   1.479  13.599  0.0786  0.5473 -0.1889
  346MOL0     C46606   6.480   1.560  13.680 -0.3799 -0.5827  0.6988
  346MOL0     C46607   6.593   1.515  13.759 -0.4379 -0.9789  0.0977
  346MOL0     C46608   6.666   1.604  13.836 -0.1638 -0.5203  0.1015
  346MOL0     C46609   6.626   1.737  13.838  0.7647  0.3024  0.0521
  346MOL0     O46610   6.694   1.829  13.912  0.4847  0.0249  0.9734
  346MOL0     C46611   6.812   1.887  13.848  0.0373 -0.5766  1.2941
  346MOL0     C46612   6.940   1.809  13.863  0.1085  0.3751 -0.4674
  346MOL0     C46613   6.972   1.773  14.006  0.5973  1.0158 -0.2552
  346MOL0     C46614   7.047   1.890  14.076  0.4953  1.1376 -0.3530
  346MOL0     C46615   7.108   1.836  14.210  0.9564  0.3111  0.4632
  346MOL0     C46616   7.217   1.724  14.213 -0.3803 -0.0482 -0.5854
  346MOL0     C46617   7.366   1.767  14.245  0.1693 -0.6646 -0.4611
  346MOL0     C46618   7.463   1.663  14.193 -0.2022 -0.5808 -0.1755
  346MOL0    Cl46619   7.618   1.753  14.153  0.3544  0.2187 -0.5064
  346MOL0     C46620   6.537   1.785  13.740 -0.4238 -0.3330 -0.3810
  346MOL0     C46621   6.465   1.700  13.670  0.2314 -0.5377  0.8338
  346MOL0     O46622   6.388   1.285  13.730  0.5873  0.8486 -0.4717
  346MOL0     C46623   6.169   1.180  13.605  0.1961 -0.1024  0.3632
  346MOL0     C46624   6.074   1.104  13.547 -0.4794 -0.4913 -0.1285
  346MOL0     N46625   6.230   0.762  12.953  0.2536  0.5408  0.3847
  346MOL0     N46626   6.227   0.824  12.837  0.1787 -0.3528  0.5830
  346MOL0     C46627   6.072   0.441  11.678 -0.1340  0.5600  0.5393
  346MOL0     C46628   6.035   0.363  11.566  1.1381 -0.0088 -0.4557
  346MOL0     C46629   6.024   0.117  11.216 -0.8775 -0.9921 -0.7801
  346MOL0     C46630   5.945  -0.000  11.247  0.0266  0.0017  0.2783
  346MOL0     C46631   5.919  -0.102  11.147  1.0381 -0.2615 -0.8021
  346MOL0     C46632   5.974  -0.098  11.020 -0.2766 -0.2370 -0.6298
  346MOL0     O46633   5.946  -0.182  10.921  0.7429  0.3591  0.1109
  346MOL0     C46634   6.044  -0.281  10.879 -0.1554  0.2460  0.5432
  346MOL0     C46635   6.045  -0.403  10.976  0.1339  1.0938  0.0345
  346MOL0     C46636   6.173  -0.431  11.051 -0.6739 -0.5936 -0.1907
  346MOL0     C46637   6.216  -0.294  11.117 -0.0763 -0.8301  0.5276
  346MOL0     C46638   6.353  -0.305  11.179 -0.0833  0.2405 -0.6999
  346MOL0     C46639   6.466  -0.325  11.227 -0.6075 -0.5925  0.8797
  346MOL0     C46640   6.055   0.014  10.993 -1.4931  0.1118 -0.4855
  346MOL0     C46641   6.076   0.125  11.083 -0.5107  0.3291  0.4960
  346MOL0     C46642   6.165   0.236  11.032  0.3509 -0.3378  0.2476
  346MOL0     H46643   6.230   0.092  11.632 -0.4965  0.0075  1.5201
  346MOL0     H46644   6.275   0.223  11.850 -0.2916 -0.1015  0.3514
  346MOL0     H46645   6.177   0.388  12.067 -0.7238  1.7716  1.0944
  346MOL0     H46646   6.342   0.413  11.982  2.0057  4.5904  0.2312
  346MOL0     H46647   6.321   0.639  11.984  0.3363 -2.7142 -2.1148
  346MOL0     H46648   6.351   0.546  12.136  0.4140 -2.0845 -1.8682
  346MOL0     H46649   6.087   0.568  12.170  0.5245  1.2112  2.4800
  346MOL0     H46650   6.109   0.716  12.061 -3.2529 -1.1487 -0.5210
  346MOL0     H46651   6.294   0.689  12.290  0.3399  2.0968  2.9077
  346MOL0     H46652   6.243   0.833  12.199 -4.5502  1.6710 -0.3683
  346MOL0     H46653   6.012   0.812  12.294  0.3417  3.2060  3.5759
  346MOL0     H46654   6.058   0.655  12.371  1.3898 -0.1412  3.3630
  346MOL0     H46655   6.199   0.786  12.527  2.5494  1.3260 -1.1109
  346MOL0     H46656   6.164   0.936  12.443 -1.3694 -0.5730 -2.4938
  346MOL0     H46657   5.976   0.737  12.580 -1.1391 -1.0973 -0.7053
  346MOL0     H46658   5.930   0.888  12.502  0.9578 -0.5622 -1.0386
  346MOL0     H46659   6.111   0.994  12.680  0.4973 -0.3771 -0.3033
  346MOL0     H46660   5.943   0.968  12.724 -0.8015 -3.9835  1.7384
  346MOL0     H46661   5.909   0.775  12.895 -0.6152  1.2895  0.2902
  346MOL0     H46662   6.012   0.562  13.055 -2.3225  0.2187  0.0201
  346MOL0     H46663   6.151   0.603  13.155 -1.1058 -0.6049  1.3773
  346MOL0     H46664   5.872   0.719  13.177 -1.0793 -0.2500  3.2924
  346MOL0     H46665   5.980   0.659  13.305  1.1666  3.7342  1.1169
  346MOL0     H46666   5.977   0.912  13.146 -1.0341  1.1915  0.7968
  346MOL0     H46667   6.120   0.874  13.255 -0.1397 -1.0215  1.1358
  346MOL0     H46668   5.974   0.895  13.446 -0.0917  1.2824 -0.1013
  346MOL0     H46669   5.834   0.911  13.345  0.5650 -0.0846 -1.7860
  346MOL0     H46670   6.082   1.274  13.248 -3.8604 -1.1198  0.2607
  346MOL0     H46671   6.249   1.399  13.367 -1.8888  2.0207  0.1894
  346MOL0     H46672   6.625   1.412  13.764 -2.6825 -1.9503 -2.8037
  346MOL0     H46673   6.750   1.570  13.896 -0.6618 -2.1837 -0.0889
  346MOL0     H46674   6.795   1.904  13.741 -0.9852 -0.6301  1.4419
  346MOL0     H46675   6.827   1.983  13.899 -1.0054  0.2910  0.0472
  346MOL0     H46676   6.922   1.713  13.814 -5.5680  0.5974  0.4134
  346MOL0     H46677   7.024   1.860  13.816 -0.2454  1.5071  0.0825
  346MOL0     H46678   6.879   1.742  14.053  0.8865 -0.4235 -0.5999
  346MOL0     H46679   7.026   1.678  14.014 -1.8104 -0.3533  0.6854
  346MOL0     H46680   6.982   1.977  14.089 -1.4006  0.2505 -2.9853
  346MOL0     H46681   7.122   1.930  14.007 -0.4248  1.7852 -1.0040
  346MOL0     H46682   7.014   1.795  14.248  0.2385  0.5556 -0.9745
  346MOL0     H46683   7.143   1.927  14.258  2.4225 -0.0328  0.1069
  346MOL0     H46684   7.189   1.645  14.283  2.6882 -0.0333  0.8492
  346MOL0     H46685   7.228   1.702  14.107  0.2886  4.2738 -1.6257
  346MOL0     H46686   7.380   1.782  14.352  1.0066 -1.2564 -0.4744
  346MOL0     H46687   7.383   1.866  14.201 -1.7056  0.4946  1.2426
  346MOL0     H46688   7.479   1.583  14.265 -0.6103  0.6480  1.3239
  346MOL0     H46689   7.428   1.609  14.104  0.2823  0.1812 -0.8464
  346MOL0     H46690   6.524   1.891  13.719  2.1600 -0.2018 -1.6862
  346MOL0     H46691   6.397   1.734  13.593  0.4126  0.3718  1.0606
  346MOL0     H46692   6.189   1.148  13.706  1.7562  0.5596  0.2925
  346MOL0     H46693   6.031   1.015  13.591 -1.1991  0.4459  1.1255
  346MOL0     H46694   6.031   0.536  11.710 -1.1153 -0.4121  2.2933
  346MOL0     H46695   5.971   0.399  11.485  0.7679 -0.9958 -0.6190
  346MOL0     H46696   5.892   0.004  11.342  0.5287  0.7459  0.5378
  346MOL0     H46697   5.856  -0.189  11.166 -0.5568  1.0957  0.4620
  346MOL0     H46698   6.143  -0.235  10.876 -0.5966  1.1804 -0.9484
  346MOL0     H46699   6.027  -0.321  10.779 -1.4654  0.6859  0.5723
  346MOL0     H46700   6.023  -0.489  10.912 -1.7508  0.4720  1.4049
  346MOL0     H46701   5.962  -0.388  11.046 -1.0859 -2.3799 -0.4339
  346MOL0     H46702   6.249  -0.458  10.976  0.0516  1.2658 -0.1779
  346MOL0     H46703   6.157  -0.504  11.130 -2.1917  0.5177  0.5797
  346MOL0     H46704   6.224  -0.204  11.055  2.9758  0.0258  2.0067
  346MOL0     H46705   6.146  -0.259  11.193  0.1567 -0.1069  0.4191
  346MOL0     H46706   6.550  -0.328  11.294  0.5679 -2.6433 -0.5695
  346MOL0     H46707   6.103   0.035  10.898 -2.0739  1.2367 -0.5435
  346MOL0     H46708   6.257   0.241  11.092  0.4676  2.1555 -0.0305
  346MOL0     H46709   6.185   0.208  10.928  0.1621  1.5239 -0.3224
  346MOL0     H46710   6.111   0.330  11.024 -0.0574 -0.7291 -5.3293
  347MOL0     O46711  11.335   6.892   5.361 -0.4514 -0.7624  0.3567
  347MOL0     C46712  11.303   6.869   5.242  0.9711  0.6615 -0.1018
  347MOL0     O46713  11.380   6.799   5.153 -1.0613  0.4971  0.2566
  347MOL0     C46714  11.452   6.692   5.185  0.2349  0.5478 -0.2718
  347MOL0     C46715  11.594   6.710   5.199 -0.3960  1.0955  0.0322
  347MOL0     C46716  11.671   6.590   5.224 -0.0418  0.2827  0.9383
  347MOL0     C46717  11.613   6.466   5.247  0.6829 -1.0717 -0.3799
  347MOL0     O46718  11.683   6.350   5.282  0.5745  0.2865 -0.2507
  347MOL0     C46719  11.824   6.343   5.256  0.0487  0.4733 -0.1522
  347MOL0     C46720  11.879   6.200   5.297  0.3971  0.1437  0.1902
  347MOL0     C46721  11.816   6.095   5.206 -0.4141  0.1660 -0.6097
  347MOL0     C46722  11.900   5.963   5.213 -0.2757  0.3587  0.1128
  347MOL0     C46723  11.842   5.841   5.142 -0.6383 -0.8260  0.4029
  347MOL0     C46724  11.918   5.715   5.185  0.2746  0.3274 -0.1960
  347MOL0     C46725  11.859   5.596   5.123 -0.4085  0.4037  0.8340
  347MOL0     C46726  11.919   5.474   5.189  0.2616 -0.0548 -0.1190
  347MOL0     N46727  11.868   5.353   5.124  0.0655  0.1712 -0.0319
  347MOL0     C46728  11.946   5.280   5.040 -0.6960  0.7638  0.5617
  347MOL0     C46729  11.881   5.165   5.029  0.0105  0.9261 -1.1359
  347MOL0     C46730  11.929   5.042   4.953 -0.5059 -0.3581 -0.5829
  347MOL0     C46731  12.074   4.999   4.975  0.8005 -0.1332  0.0809
  347MOL0     C46732  12.114   4.993   5.124 -1.1239 -0.0174  0.1747
  347MOL0     C46733  12.204   4.875   5.152 -0.3376  0.9476 -0.5091
  347MOL0     O46734  12.331   4.913   5.092  0.5556 -0.0044  0.2219
  347MOL0     C46735  12.440   4.847   5.141 -0.4791 -0.5704  0.4461
  347MOL0     C46736  12.566   4.924   5.121 -0.2247  1.1213  0.7149
  347MOL0     C46737  12.688   4.861   5.160  0.7429 -0.5728  0.0034
  347MOL0     C46738  12.686   4.731   5.214  0.4238 -0.1354 -0.3120
  347MOL0     C46739  12.814   4.657   5.237  0.0129 -0.2005 -0.4804
  347MOL0     O46740  12.828   4.583   5.347 -0.2060  0.2188 -0.0115
  347MOL0     C46741  12.949   4.558   5.401 -0.4098  0.1712  0.2828
  347MOL0     C46742  13.040   4.482   5.341  0.3309 -0.1594 -0.1739
  347MOL0     C46743  13.167   4.449   5.381 -0.4264  0.5802 -0.0071
  347MOL0     C46744  13.208   4.494   5.504  0.2519 -0.0034 -0.2209
  347MOL0     O46745  13.337   4.474   5.544 -0.1285 -0.6183  0.1803
  347MOL0     C46746  13.388   4.559   5.655  0.2451  0.3331  0.5426
  347MOL0     C46747  13.545   4.525   5.658 -0.2529  0.7535  0.0387
  347MOL0     C46748  13.636   4.608   5.556  0.3858 -0.1604 -0.2038
  347MOL0     C46749  13.583   4.603   5.413 -0.1094 -0.3134  1.4406
  347MOL0     C46750  13.655   4.684   5.304  0.2057  0.4038 -0.3650
  347MOL0     C46751  13.630   4.832   5.307  0.8932 -1.0096 -0.2555
  347MOL0     C46752  13.480   4.877   5.287 -0.5372  0.3887 -0.0574
  347MOL0     C46753  13.484   5.035   5.282  0.2408 -0.6411 -0.1198
  347MOL0    Cl46754  13.332   5.081   5.188 -0.1893  0.0783 -0.0151
  347MOL0     C46755  13.117   4.571   5.578 -0.2766 -0.7196 -0.5986
  347MOL0     C46756  12.990   4.606   5.535  0.1770 -0.0840  1.7898
  347MOL0     O46757  12.910   4.699   5.175  0.9130  0.4314  0.0591
  347MOL0     C46758  12.568   4.668   5.245  0.0829 -0.1956  0.6529
  347MOL0     C46759  12.449   4.727   5.209  0.7451  0.5858 -0.3306
  347MOL0     N46760  11.769   5.170   5.108 -0.0372 -0.2249 -0.1446
  347MOL0     N46761  11.758   5.287   5.164 -1.1585  0.0630 -0.7328
  347MOL0     C46762  11.474   6.461   5.256 -0.9965  0.6842 -0.4376
  347MOL0     C46763  11.394   6.573   5.214  0.3971  0.0536 -0.1496
  347MOL0     C46764  11.175   6.927   5.181 -0.4894 -0.6755 -0.3108
  347MOL0     C46765  11.153   6.913   5.044 -0.2473 -0.4313  0.8039
  347MOL0     C46766  11.040   6.960   4.987 -0.1931  0.5245  0.4685
  347MOL0     C46767  10.944   7.046   5.051 -0.0749  0.4104  0.3816
  347MOL0     O46768  10.837   7.103   4.981  0.4350 -0.6974  0.1700
  347MOL0     C46769  10.868   7.203   4.881  0.4873  0.5590 -0.4193
  347MOL0     C46770  10.748   7.259   4.804  0.1375  0.0649  0.3027
  347MOL0     C46771  10.679   7.154   4.723 -0.3156 -0.0636 -0.0796
  347MOL0     C46772  10.573   7.221   4.634 -0.1840 -0.6439  0.6201
  347MOL0     C46773  10.472   7.290   4.708 -0.9277  0.3900  0.1798
  347MOL0     C46774  10.389   7.334   4.788  0.2752 -0.5229  0.0814
  347MOL0     C46775  10.976   7.083   5.182 -0.8046 -0.1402 -0.5085
  347MOL0     C46776  11.094   7.030   5.243 -0.8234  0.1714 -0.4201
  347MOL0     C46777  11.103   7.066   5.389 -0.0060  1.1075 -1.1827
  347MOL0     H46778  11.648   6.804   5.188  1.2873  0.1052 -0.6160
  347MOL0     H46779  11.778   6.587   5.237  0.6099  1.6686 -2.7749
  347MOL0     H46780  11.850   6.362   5.152  0.3085 -1.9407 -0.6005
  347MOL0     H46781  11.866   6.418   5.324  1.3640 -0.1407 -0.2616
  347MOL0     H46782  11.870   6.184   5.404  0.4865 -0.6188  0.0894
  347MOL0     H46783  11.985   6.209   5.272  0.6617  2.0683  1.7424
  347MOL0     H46784  11.815   6.121   5.099 -0.3474 -0.5805 -0.8008
  347MOL0     H46785  11.713   6.066   5.228 -0.8686 -1.6074 -4.3141
  347MOL0     H46786  11.995   5.980   5.161 -0.7817  0.7933 -0.6885
  347MOL0     H46787  11.913   5.938   5.319 -0.6363  0.4544  0.1788
  347MOL0     H46788  11.741   5.830   5.185  0.2729 -1.3963  2.5401
  347MOL0     H46789  11.843   5.858   5.034 -0.9678 -0.9915  0.3712
  347MOL0     H46790  12.022   5.713   5.153  0.3448 -0.1514  0.0463
  347MOL0     H46791  11.907   5.697   5.292 -0.4959 -2.5505 -0.6703
  347MOL0     H46792  11.864   5.591   5.013  0.8732 -2.8956  0.9244
  347MOL0     H46793  11.751   5.599   5.143 -0.2868  2.0715  1.4306
  347MOL0     H46794  12.027   5.472   5.172  0.0009  2.4135 -2.8345
  347MOL0     H46795  11.898   5.478   5.297 -3.0062 -0.1607 -0.6545
  347MOL0     H46796  12.041   5.296   4.990  0.9838  0.3424  3.3869
  347MOL0     H46797  11.852   4.969   4.982 -1.8503  2.1723  2.8746
  347MOL0     H46798  11.917   5.077   4.850  3.3858  0.6948 -0.8197
  347MOL0     H46799  12.074   4.900   4.929 -1.0450 -0.0196 -0.2459
  347MOL0     H46800  12.141   5.067   4.922 -1.0761  0.7053 -1.3586
  347MOL0     H46801  12.033   4.981   5.196 -0.0531 -1.6450  1.1543
  347MOL0     H46802  12.175   5.082   5.143  1.3133 -2.0928  2.7537
  347MOL0     H46803  12.165   4.783   5.107  1.8675 -0.1010 -0.4069
  347MOL0     H46804  12.210   4.853   5.259  3.0558  0.3040 -0.7107
  347MOL0     H46805  12.563   5.013   5.058 -0.2937  1.8345  1.7072
  347MOL0     H46806  12.778   4.920   5.143 -0.0897  0.6279 -0.2944
  347MOL0     H46807  13.013   4.434   5.248  0.5456 -1.7778  0.5678
  347MOL0     H46808  13.247   4.394   5.332  1.0314  0.2157  2.5673
  347MOL0     H46809  13.364   4.665   5.639  3.0137  0.7449 -1.7547
  347MOL0     H46810  13.338   4.523   5.745  1.1328  1.2561  1.4370
  347MOL0     H46811  13.568   4.556   5.761 -0.6206 -0.7991  0.6098
  347MOL0     H46812  13.563   4.418   5.649  2.4300  1.0385  0.9077
  347MOL0     H46813  13.628   4.713   5.584 -2.7378 -0.7909  1.8442
  347MOL0     H46814  13.739   4.572   5.552 -0.1233 -1.8398  0.6870
  347MOL0     H46815  13.479   4.634   5.424  0.4654  1.5818  1.9403
  347MOL0     H46816  13.580   4.498   5.385  1.5312 -0.6152  2.2374
  347MOL0     H46817  13.614   4.630   5.218 -1.2274 -2.3269  1.9030
  347MOL0     H46818  13.762   4.661   5.309 -0.2897 -1.8585  1.7813
  347MOL0     H46819  13.672   4.863   5.403 -2.3585 -2.8899  1.9814
  347MOL0     H46820  13.691   4.886   5.234 -0.7033 -1.2049 -1.8194
  347MOL0     H46821  13.424   4.846   5.376  2.3223 -0.3627  1.6191
  347MOL0     H46822  13.437   4.849   5.190  1.3749  1.5549 -1.3062
  347MOL0     H46823  13.490   5.072   5.385  1.4946  0.4849 -0.5691
  347MOL0     H46824  13.563   5.072   5.216  0.1785  0.0103  0.1577
  347MOL0     H46825  13.127   4.623   5.673 -2.9168  1.0912 -1.2219
  347MOL0     H46826  12.914   4.649   5.600 -0.6046 -0.8834  1.4316
  347MOL0     H46827  12.567   4.577   5.305  0.7995  0.1102  1.1404
  347MOL0     H46828  12.360   4.678   5.247 -0.9035  1.7423 -2.4530
  347MOL0     H46829  11.427   6.370   5.291  0.3637 -0.2159 -0.8511
  347MOL0     H46830  11.286   6.563   5.224  0.2756  2.6615  2.2048
  347MOL0     H46831  11.217   6.867   4.969 -0.4528  3.3623 -1.9976
  347MOL0     H46832  11.023   6.930   4.884  0.7662 -1.2872  0.8067
  347MOL0     H46833  10.943   7.167   4.809  0.9111  0.2252  0.1734
  347MOL0     H46834  10.916   7.283   4.938 -1.4397  1.4945 -0.0576
  347MOL0     H46835  10.786   7.340   4.741 -0.1639 -1.8501 -2.4796
  347MOL0     H46836  10.680   7.297   4.881 -3.2416  2.5627 -3.5458
  347MOL0     H46837  10.627   7.084   4.789 -2.0600  0.1597 -1.1288
  347MOL0     H46838  10.752   7.090   4.673  0.2247  0.8934 -0.5473
  347MOL0     H46839  10.629   7.296   4.578 -2.8092  0.1295 -1.1517
  347MOL0     H46840  10.536   7.134   4.578  3.4906 -2.0321  0.0605
  347MOL0     H46841  10.322   7.368   4.864  0.9380 -1.9314  1.3628
  347MOL0     H46842  10.923   7.150   5.249 -0.4070 -1.2932  1.0406
  347MOL0     H46843  11.198   7.105   5.427 -1.3200  2.0767  1.3192
  347MOL0     H46844  11.021   7.130   5.423  0.2573  0.5384  0.6187
  347MOL0     H46845  11.101   6.971   5.444  3.1735  0.4736 -1.9899
  348MOL0     O46846   2.326   6.546  10.352 -0.1131  0.3714 -0.0191
  348MOL0     C46847   2.291   6.443  10.409 -0.2861  0.4902 -0.0510
  348MOL0     O46848   2.259   6.429  10.538 -0.8353 -0.3835 -0.3654
  348MOL0     C46849   2.264   6.530  10.625 -0.0568 -0.1939  0.3810
  348MOL0     C46850   2.219   6.489  10.750  0.3775  0.6949 -1.4370
  348MOL0     C46851   2.207   6.578  10.855  0.1363  0.2780  0.0509
  348MOL0     C46852   2.247   6.710  10.841 -0.3907 -0.0121  0.9374
  348MOL0     O46853   2.234   6.807  10.939 -0.4141  0.2839  0.4205
  348MOL0     C46854   2.116   6.783  11.025  0.6306 -0.1286 -0.4505
  348MOL0     C46855   2.084   6.912  11.111 -0.2363  0.1931 -0.0967
  348MOL0     C46856   2.200   6.961  11.201  0.2195  0.3486  0.0343
  348MOL0     C46857   2.259   6.856  11.302  0.1580  0.1685  0.5496
  348MOL0     C46858   2.372   6.909  11.399  0.0307  0.0111 -0.3625
  348MOL0     C46859   2.474   6.804  11.440 -0.5658 -1.0064 -0.0006
  348MOL0     C46860   2.575   6.855  11.547  1.1597 -0.0842 -1.4555
  348MOL0     C46861   2.523   6.847  11.700 -0.8162 -0.6814 -0.5351
  348MOL0     N46862   2.534   6.706  11.737 -0.8760  1.2717  0.0554
  348MOL0     C46863   2.432   6.609  11.741  0.0781 -0.2712  0.0401
  348MOL0     C46864   2.488   6.488  11.731 -0.6444 -0.8831  1.3070
  348MOL0     C46865   2.402   6.358  11.738 -0.1944  0.1280 -0.0351
  348MOL0     C46866   2.438   6.255  11.853  0.3873 -0.6246 -1.0634
  348MOL0     C46867   2.582   6.233  11.865 -0.3093  0.6019  0.6186
  348MOL0     C46868   2.631   6.131  11.964 -0.5949  0.1743  0.0351
  348MOL0     O46869   2.580   6.001  11.910  0.0059 -0.3223 -0.4545
  348MOL0     C46870   2.578   5.890  11.984 -1.5152  0.3008  0.5486
  348MOL0     C46871   2.584   5.773  11.902  0.6671  0.5591 -0.0051
  348MOL0     C46872   2.595   5.647  11.972 -0.6238 -0.0436  0.5724
  348MOL0     C46873   2.588   5.629  12.107 -0.0634 -0.2150 -0.7397
  348MOL0     C46874   2.598   5.497  12.166  0.0812 -0.0201 -0.1678
  348MOL0     O46875   2.545   5.391  12.095 -0.8355 -0.3646  0.6302
  348MOL0     C46876   2.496   5.290  12.174  0.5548  0.1119 -0.2173
  348MOL0     C46877   2.361   5.247  12.157 -0.5016  0.3120 -0.1646
  348MOL0     C46878   2.299   5.140  12.229  0.7769 -0.5359 -0.9290
  348MOL0     C46879   2.370   5.078  12.328 -0.8007 -0.2848 -0.7970
  348MOL0     O46880   2.318   4.981  12.407  0.5744 -0.5357  0.1135
  348MOL0     C46881   2.171   4.977  12.419  0.1702 -0.0854  0.1355
  348MOL0     C46882   2.125   4.851  12.477 -0.2104  0.2670 -0.8893
  348MOL0     C46883   2.144   4.859  12.626 -0.5991  0.4635 -0.1760
  348MOL0     C46884   2.037   4.763  12.694 -0.6316  0.6853  0.1476
  348MOL0     C46885   2.082   4.756  12.841  0.2372  0.2517  1.6902
  348MOL0     C46886   2.105   4.886  12.910 -1.1260  0.1844  0.4991
  348MOL0     C46887   2.164   4.864  13.049 -0.9070  0.7115 -0.2407
  348MOL0     C46888   2.189   4.991  13.118  0.0295 -0.0742  0.3053
  348MOL0    Cl46889   2.259   4.959  13.285  0.2320 -0.0363 -0.5562
  348MOL0     C46890   2.499   5.120  12.346 -0.9691  0.6038 -0.0152
  348MOL0     C46891   2.565   5.225  12.279 -0.7041  0.3965  0.3450
  348MOL0     O46892   2.622   5.495  12.287  0.0303  0.3709  0.5071
  348MOL0     C46893   2.581   5.740  12.187 -0.2961 -0.3256  1.0534
  348MOL0     C46894   2.593   5.871  12.125  0.6528  0.2366  0.0877
  348MOL0     N46895   2.620   6.502  11.709 -0.3048 -0.5591 -1.1907
  348MOL0     N46896   2.648   6.632  11.720 -0.7088 -0.3220  0.1771
  348MOL0     C46897   2.320   6.744  10.729  0.4570  0.9322 -0.1685
  348MOL0     C46898   2.319   6.656  10.616  0.2203  0.1359 -0.9067
  348MOL0     C46899   2.238   6.335  10.315 -0.7284  0.5258  0.1816
  348MOL0     C46900   2.110   6.297  10.335 -0.1861  0.6520  0.2925
  348MOL0     C46901   2.061   6.186  10.257  0.3896 -0.6233 -0.3874
  348MOL0     C46902   2.127   6.128  10.152  0.4342  0.1120 -0.2309
  348MOL0     O46903   2.064   6.025  10.074 -0.0503  0.0021  0.0091
  348MOL0     C46904   2.051   5.897  10.146 -0.6103  0.9234 -0.5484
  348MOL0     C46905   2.174   5.808  10.126 -0.1555 -1.1711  0.0567
  348MOL0     C46906   2.166   5.672  10.193 -0.1184  0.3130 -0.5235
  348MOL0     C46907   2.287   5.585  10.142  0.5662 -0.8921 -0.6603
  348MOL0     C46908   2.280   5.450  10.203  0.4756 -0.8181  0.7991
  348MOL0     C46909   2.269   5.350  10.273  0.8255 -0.1408  0.6404
  348MOL0     C46910   2.255   6.178  10.138 -1.3489 -0.3182  0.1805
  348MOL0     C46911   2.314   6.275  10.216 -0.3377 -0.5051 -1.3554
  348MOL0     C46912   2.465   6.296  10.200 -0.2127 -0.3442 -0.3705
  348MOL0     H46913   2.197   6.385  10.773  2.9933  0.4783  0.5511
  348MOL0     H46914   2.169   6.545  10.952 -0.8283  0.7720 -0.1517
  348MOL0     H46915   2.029   6.741  10.973  0.1749 -0.8069  0.8181
  348MOL0     H46916   2.131   6.698  11.092  2.5583  1.4062  1.1844
  348MOL0     H46917   2.000   6.883  11.175 -1.8935  0.0763 -2.2019
  348MOL0     H46918   2.049   6.986  11.039 -2.5973 -2.4629 -1.9137
  348MOL0     H46919   2.163   7.043  11.264  0.8655  0.9331 -0.3416
  348MOL0     H46920   2.277   6.997  11.132 -1.3604  2.4488 -0.7342
  348MOL0     H46921   2.166   6.832  11.354  0.0973 -2.3555 -0.5525
  348MOL0     H46922   2.302   6.775  11.242 -1.0209  0.3642 -0.6147
  348MOL0     H46923   2.429   6.982  11.341 -0.2924 -0.7315 -1.6734
  348MOL0     H46924   2.325   6.961  11.483 -2.3339 -2.3126 -0.1063
  348MOL0     H46925   2.434   6.705  11.462 -0.0061 -2.0408 -3.1634
  348MOL0     H46926   2.525   6.782  11.346 -0.4642 -0.0840 -0.1667
  348MOL0     H46927   2.593   6.963  11.537 -0.2261  1.0488  4.6184
  348MOL0     H46928   2.672   6.804  11.540  0.4403 -1.9600  1.1303
  348MOL0     H46929   2.591   6.911  11.756 -1.5095 -2.3626  2.4234
  348MOL0     H46930   2.420   6.877  11.718 -1.3542 -3.4568  1.7470
  348MOL0     H46931   2.328   6.631  11.764 -0.6287 -1.5069 -1.8182
  348MOL0     H46932   2.302   6.388  11.769 -0.3523  1.1075 -1.3862
  348MOL0     H46933   2.394   6.304  11.644 -3.3441 -3.0623  1.8177
  348MOL0     H46934   2.400   6.305  11.943 -1.8983 -1.9971 -1.1889
  348MOL0     H46935   2.386   6.160  11.844  0.3524 -0.7442  0.1843
  348MOL0     H46936   2.640   6.324  11.876  2.1300 -1.0931  2.9164
  348MOL0     H46937   2.622   6.201  11.768  1.1122  1.0222  1.0519
  348MOL0     H46938   2.593   6.160  12.062 -1.5744 -0.9560  0.0138
  348MOL0     H46939   2.739   6.117  11.955 -0.8158 -1.1273 -0.9114
  348MOL0     H46940   2.587   5.783  11.794 -1.3710  3.0568  0.0654
  348MOL0     H46941   2.597   5.554  11.916 -2.4805  0.4688 -0.4210
  348MOL0     H46942   2.318   5.282  12.064 -1.6782 -0.9798 -0.1446
  348MOL0     H46943   2.198   5.108  12.203  1.1336 -2.7078  0.1403
  348MOL0     H46944   2.137   5.071  12.462 -1.8566  1.1677 -3.7357
  348MOL0     H46945   2.127   4.978  12.318 -0.0307 -1.1619  0.1943
  348MOL0     H46946   2.018   4.841  12.459 -0.5920 -2.0903  2.0961
  348MOL0     H46947   2.178   4.767  12.431 -0.6238  0.5970 -2.0105
  348MOL0     H46948   2.248   4.835  12.651  0.9304  3.5103 -2.8469
  348MOL0     H46949   2.115   4.961  12.654 -1.8753 -0.3645  1.6942
  348MOL0     H46950   2.061   4.667  12.648  1.7931  1.7539 -0.9620
  348MOL0     H46951   1.935   4.798  12.677 -0.4505  0.9672 -0.3490
  348MOL0     H46952   2.178   4.703  12.837 -0.2759 -0.8695  3.3395
  348MOL0     H46953   2.023   4.694  12.909  2.3839 -1.6756  1.9397
  348MOL0     H46954   2.179   4.947  12.859 -0.3500 -1.6129 -0.6225
  348MOL0     H46955   2.009   4.938  12.919 -1.7576 -0.7573 -0.4695
  348MOL0     H46956   2.255   4.803  13.051 -0.6335  1.1136  1.1375
  348MOL0     H46957   2.089   4.810  13.108 -0.4383 -0.7344 -0.9153
  348MOL0     H46958   2.250   5.054  13.052 -2.6243 -0.2444 -2.5339
  348MOL0     H46959   2.092   5.041  13.128 -0.2608 -0.6819  0.5834
  348MOL0     H46960   2.553   5.077  12.429  1.1557  2.1122 -0.5339
  348MOL0     H46961   2.668   5.245  12.304 -0.6095 -1.0550  1.2229
  348MOL0     H46962   2.571   5.737  12.295  2.2094  0.9982  1.4045
  348MOL0     H46963   2.599   5.955  12.193  0.6064 -1.5244  2.3803
  348MOL0     H46964   2.367   6.840  10.711 -1.0076  1.5483 -0.8877
  348MOL0     H46965   2.391   6.674  10.536  0.1009 -0.7661 -1.2336
  348MOL0     H46966   2.045   6.348  10.405 -2.5560 -3.2762  1.3209
  348MOL0     H46967   1.959   6.151  10.271 -0.4036  1.9034  0.8180
  348MOL0     H46968   1.956   5.847  10.126 -0.0218 -0.5869  0.3066
  348MOL0     H46969   2.054   5.910  10.254  1.5221  2.0099 -0.6989
  348MOL0     H46970   2.260   5.856  10.174 -1.7886 -0.5750  2.6090
  348MOL0     H46971   2.187   5.804  10.018  0.7463  2.0605 -0.0614
  348MOL0     H46972   2.070   5.621  10.177 -0.1612 -1.0443  3.1494
  348MOL0     H46973   2.181   5.691  10.299  3.1070 -3.1536 -0.1730
  348MOL0     H46974   2.269   5.574  10.034 -1.5836 -4.0143 -0.1129
  348MOL0     H46975   2.383   5.632  10.162  0.5014 -0.1159 -2.0363
  348MOL0     H46976   2.265   5.267  10.341 -0.9906 -0.0914  0.6516
  348MOL0     H46977   2.316   6.145  10.055 -0.9133  1.7288 -0.3561
  348MOL0     H46978   2.518   6.213  10.151 -2.4871 -1.0033 -1.8312
  348MOL0     H46979   2.474   6.393  10.150 -1.1270 -0.4528 -0.7493
  348MOL0     H46980   2.501   6.303  10.303 -0.2235 -0.4886 -0.3565
  349MOL0     O46981   2.647  10.052   9.232  0.8070 -0.1203 -0.4209
  349MOL0     C46982   2.581  10.077   9.334  0.0468  0.0390 -0.3160
  349MOL0     O46983   2.581  10.188   9.411  0.1919 -0.5989  1.1456
  349MOL0     C46984   2.637  10.306   9.368  0.2884  0.2845  0.3150
  349MOL0     C46985   2.685  10.338   9.238  0.1165  1.1785 -0.9961
  349MOL0     C46986   2.738  10.460   9.208  0.1442  0.4448 -0.7913
  349MOL0     C46987   2.749  10.561   9.307 -0.2717 -0.4339  0.4337
  349MOL0     O46988   2.806  10.682   9.282  0.2446 -1.1312  0.3062
  349MOL0     C46989   2.918  10.682   9.190  1.0146  0.4897 -0.1774
  349MOL0     C46990   2.938  10.820   9.127 -0.6828  0.0104 -0.0248
  349MOL0     C46991   3.030  10.903   9.211  0.0106 -0.7047 -0.7043
  349MOL0     C46992   3.178  10.859   9.205 -0.1183 -0.5284 -0.0137
  349MOL0     C46993   3.248  10.938   9.319 -0.4770 -2.1524  0.1142
  349MOL0     C46994   3.232  10.865   9.451 -1.0190 -0.3717  0.1908
  349MOL0     C46995   3.320  10.941   9.553 -0.1065 -0.3149  0.3007
  349MOL0     C46996   3.289  10.868   9.686  0.5310  0.5506 -0.2750
  349MOL0     N46997   3.340  10.958   9.794 -0.4009 -0.2308  0.8666
  349MOL0     C46998   3.460  10.975   9.852 -0.0169  0.2802  0.9148
  349MOL0     C46999   3.456  11.090   9.925 -0.1027 -0.5206  0.4610
  349MOL0     C47000   3.557  11.172  10.003  0.1951  0.6901 -0.4618
  349MOL0     C47001   3.699  11.183   9.943  0.0605  0.2746  0.2222
  349MOL0     C47002   3.721  11.295   9.841 -0.2321  0.5945 -0.0314
  349MOL0     C47003   3.644  11.282   9.716  0.6970  0.4657 -0.0137
  349MOL0     O47004   3.664  11.157   9.642 -0.2304  0.2618  0.1587
  349MOL0     C47005   3.627  11.171   9.509  0.0505  0.0808 -0.9343
  349MOL0     C47006   3.654  11.056   9.441  0.9242  0.3040  0.4007
  349MOL0     C47007   3.617  11.048   9.301 -0.4305  0.7195 -0.7463
  349MOL0     C47008   3.563  11.157   9.238  0.1142 -0.5804 -0.2054
  349MOL0     C47009   3.511  11.151   9.096 -0.2126  0.1651 -0.0375
  349MOL0     O47010   3.393  11.222   9.065 -0.6859  0.6332  0.6450
  349MOL0     C47011   3.330  11.232   8.941 -0.7863  0.2349  0.9179
  349MOL0     C47012   3.374  11.171   8.827 -0.3487 -0.4519 -1.1191
  349MOL0     C47013   3.320  11.209   8.699  0.3684  0.3261  0.1630
  349MOL0     C47014   3.217  11.304   8.689  0.5042 -0.9889 -0.1331
  349MOL0     O47015   3.165  11.366   8.575 -0.0056  0.0668  0.1159
  349MOL0     C47016   3.141  11.287   8.462  0.0744  0.1133 -0.3965
  349MOL0     C47017   3.083  11.366   8.344  1.0730  0.1774 -0.1261
  349MOL0     C47018   3.128  11.518   8.342 -0.3005  0.2649 -0.0534
  349MOL0     C47019   3.094  11.571   8.200 -0.1759  1.0346 -0.2072
  349MOL0     C47020   3.129  11.722   8.187  0.4841  1.2264 -0.0471
  349MOL0     C47021   3.192  11.761   8.055  0.1671  0.1908  0.5326
  349MOL0     C47022   3.212  11.915   8.038 -0.6922 -0.8484 -0.9426
  349MOL0     C47023   3.235  11.959   7.885 -0.7775 -0.0279 -1.7537
  349MOL0    Cl47024   3.138  11.864   7.775 -0.0793  0.0889 -0.2836
  349MOL0     C47025   3.175  11.364   8.808 -0.5792  0.1171 -0.0292
  349MOL0     C47026   3.226  11.318   8.933  0.3433  0.7452  0.6584
  349MOL0     O47027   3.563  11.067   9.023  0.1780 -0.4462 -0.4385
  349MOL0     C47028   3.535  11.276   9.310 -1.2029 -0.1666 -1.0210
  349MOL0     C47029   3.562  11.283   9.449  0.1940  0.0460  0.0097
  349MOL0     N47030   3.325  11.136   9.919 -0.0659  0.2544 -0.6076
  349MOL0     N47031   3.269  11.063   9.838  0.3666  0.1352  0.7314
  349MOL0     C47032   2.696  10.533   9.429  0.3339  0.4366 -1.2797
  349MOL0     C47033   2.634  10.404   9.459  0.3471  0.3617 -0.2548
  349MOL0     C47034   2.484   9.959   9.356 -0.3050 -0.6324 -0.0109
  349MOL0     C47035   2.375   9.930   9.278  0.5028 -0.3234 -0.3207
  349MOL0     C47036   2.287   9.834   9.315 -0.2851 -0.5585 -0.2280
  349MOL0     C47037   2.309   9.749   9.419  0.0849  0.2254 -0.6343
  349MOL0     O47038   2.200   9.669   9.453 -0.0562  0.0583 -0.5081
  349MOL0     C47039   2.212   9.599   9.578  0.2816  0.0081  0.0018
  349MOL0     C47040   2.095   9.517   9.607 -1.0595  0.1522  0.5491
  349MOL0     C47041   1.962   9.603   9.607  0.2905 -0.0102 -0.4091
  349MOL0     C47042   1.838   9.513   9.629 -0.2348  0.2296 -0.6909
  349MOL0     C47043   1.824   9.433   9.754 -0.5703 -0.7796 -0.3751
  349MOL0     C47044   1.824   9.389   9.870 -0.2706  0.8600 -0.4122
  349MOL0     C47045   2.427   9.753   9.487  0.0160 -0.3204 -0.6647
  349MOL0     C47046   2.511   9.859   9.453  0.3309 -0.5162 -0.9413
  349MOL0     C47047   2.649   9.856   9.517 -1.3011  1.6324 -0.6185
  349MOL0     H47048   2.679  10.269   9.155 -0.7465  0.4563 -0.3395
  349MOL0     H47049   2.778  10.467   9.108  1.6347 -1.8076 -0.4347
  349MOL0     H47050   3.002  10.657   9.255  0.6286 -1.8596 -0.4589
  349MOL0     H47051   2.905  10.612   9.106  0.6069 -0.6881  0.8350
  349MOL0     H47052   2.843  10.869   9.105 -1.2971 -0.8976  0.4940
  349MOL0     H47053   2.983  10.811   9.028  0.4892 -1.3150  0.6012
  349MOL0     H47054   3.000  10.893   9.316 -1.3468  4.0480 -0.3722
  349MOL0     H47055   3.012  11.009   9.188 -2.5882 -1.0872 -0.6876
  349MOL0     H47056   3.202  10.752   9.208 -1.6991 -0.8969  0.5852
  349MOL0     H47057   3.220  10.895   9.110 -1.9765  3.2742  0.4181
  349MOL0     H47058   3.350  10.949   9.281 -1.7340  3.7254 -2.7046
  349MOL0     H47059   3.197  11.033   9.336  2.9191 -0.0011 -0.7858
  349MOL0     H47060   3.128  10.867   9.484 -0.6355  0.7958  1.4113
  349MOL0     H47061   3.270  10.765   9.429  2.4002  0.6287  0.8882
  349MOL0     H47062   3.287  11.045   9.556 -0.8352 -0.5387  0.3884
  349MOL0     H47063   3.426  10.955   9.532 -0.4389  2.4841  0.0882
  349MOL0     H47064   3.181  10.858   9.701  1.0281 -1.9137  2.5403
  349MOL0     H47065   3.333  10.769   9.694  1.1144  0.6512 -1.8946
  349MOL0     H47066   3.549  10.915   9.832 -0.6689 -0.2010 -0.7096
  349MOL0     H47067   3.521  11.275  10.015  0.0011  0.6645 -0.8148
  349MOL0     H47068   3.555  11.142  10.108  2.3834  2.6900  0.2303
  349MOL0     H47069   3.766  11.209  10.026 -0.8585  2.0009  0.4745
  349MOL0     H47070   3.719  11.085   9.900 -1.4880 -0.0496  0.1790
  349MOL0     H47071   3.828  11.307   9.822 -0.5890  1.9263 -1.3730
  349MOL0     H47072   3.688  11.391   9.882  1.5990  1.2723 -0.0529
  349MOL0     H47073   3.662  11.372   9.656  0.0264  0.1987 -0.6445
  349MOL0     H47074   3.536  11.279   9.734  0.3458  1.8529 -1.6455
  349MOL0     H47075   3.695  10.975   9.500  1.2176  0.7470  0.8087
  349MOL0     H47076   3.639  10.963   9.237  1.3631  1.9842 -1.9096
  349MOL0     H47077   3.464  11.113   8.807  0.5799  0.9633 -1.2083
  349MOL0     H47078   3.372  11.163   8.615  2.4591  0.7687  1.1485
  349MOL0     H47079   3.232  11.250   8.415 -0.0234  1.9368 -2.2262
  349MOL0     H47080   3.070  11.208   8.489  2.1513 -1.0284  2.0783
  349MOL0     H47081   3.107  11.312   8.252  1.4756 -4.4617  2.3823
  349MOL0     H47082   2.975  11.358   8.357  0.9621  1.9231  0.2608
  349MOL0     H47083   3.065  11.574   8.412 -0.9554  1.7592 -1.7500
  349MOL0     H47084   3.233  11.538   8.367  0.0831 -2.1797  0.4966
  349MOL0     H47085   2.993  11.543   8.168  1.0533 -3.0207 -1.2020
  349MOL0     H47086   3.151  11.516   8.124  2.2286  2.6229  0.3510
  349MOL0     H47087   3.194  11.742   8.273 -1.4604  1.0270  1.5482
  349MOL0     H47088   3.040  11.782   8.208 -0.1653  0.9506 -1.9015
  349MOL0     H47089   3.283  11.707   8.028 -0.1889  1.4269 -4.0750
  349MOL0     H47090   3.119  11.724   7.981 -0.3277  2.3471 -0.1419
  349MOL0     H47091   3.297  11.958   8.092 -0.8994  2.4762 -2.9763
  349MOL0     H47092   3.116  11.963   8.058 -0.5951 -1.0444  0.0126
  349MOL0     H47093   3.205  12.064   7.878  1.2670  0.8978  1.2329
  349MOL0     H47094   3.342  11.952   7.863  0.1476  2.8704  1.0284
  349MOL0     H47095   3.095  11.437   8.813  2.7026  4.2000 -1.2795
  349MOL0     H47096   3.191  11.363   9.025 -2.3583  1.1366 -0.4781
  349MOL0     H47097   3.489  11.366   9.271 -0.1303  0.6600 -0.4038
  349MOL0     H47098   3.552  11.378   9.501 -0.2089  1.8358 -3.0919
  349MOL0     H47099   2.713  10.597   9.515  0.7075 -0.5225 -0.6207
  349MOL0     H47100   2.611  10.373   9.560  0.7372  3.8117  1.0103
  349MOL0     H47101   2.357   9.979   9.182  1.1239 -3.7908 -2.3850
  349MOL0     H47102   2.193   9.836   9.260 -1.0777  0.2364  1.0969
  349MOL0     H47103   2.243   9.670   9.656  6.6305  1.0341 -2.8252
  349MOL0     H47104   2.291   9.524   9.566 -0.3561 -0.9187  1.3030
  349MOL0     H47105   2.119   9.457   9.696 -0.5545  0.3153  0.5253
  349MOL0     H47106   2.090   9.445   9.525 -3.0550 -1.2128  1.7657
  349MOL0     H47107   1.952   9.644   9.506 -0.9853 -3.3281 -1.7657
  349MOL0     H47108   1.967   9.679   9.685 -0.0882 -1.5253  1.1626
  349MOL0     H47109   1.751   9.579   9.618 -1.5375 -0.4050  3.6129
  349MOL0     H47110   1.842   9.439   9.549  0.4009 -0.5855  0.0687
  349MOL0     H47111   1.820   9.330   9.959  1.3036  1.2471 -0.0574
  349MOL0     H47112   2.453   9.690   9.572 -2.0942 -0.4235 -0.0365
  349MOL0     H47113   2.726   9.882   9.443  0.1745  3.2250  1.3421
  349MOL0     H47114   2.664   9.924   9.601  2.1058  0.2609  0.0759
  349MOL0     H47115   2.677   9.755   9.550 -0.3603  2.2887  0.7029
  350MOL0     O47116   1.070   9.572  10.402  0.6413  0.4475 -0.1536
  350MOL0     C47117   1.073   9.637  10.502 -0.9246 -0.2449 -0.5666
  350MOL0     O47118   1.093   9.772  10.504 -0.5318  0.5437 -0.3192
  350MOL0     C47119   1.054   9.840  10.381 -1.2324 -0.3130  0.6421
  350MOL0     C47120   0.968   9.946  10.404  0.2362 -1.6950 -0.3898
  350MOL0     C47121   0.946  10.045  10.304  0.3585  0.0214 -0.0610
  350MOL0     C47122   0.997  10.040  10.176 -0.3988  0.3609  0.0420
  350MOL0     O47123   0.932  10.111  10.083  0.5787 -0.2012  0.1097
  350MOL0     C47124   0.965  10.093   9.941 -0.7104  0.2101  0.6727
  350MOL0     C47125   0.891   9.965   9.889 -0.3291 -0.1348  0.4973
  350MOL0     C47126   0.931   9.955   9.743 -0.2240 -0.6445 -0.0173
  350MOL0     C47127   0.941   9.805   9.695 -0.9670  0.0740 -0.4413
  350MOL0     C47128   0.989   9.790   9.551  0.3204 -0.1294  0.5101
  350MOL0     C47129   1.132   9.834   9.523  0.1276 -0.4157  0.9340
  350MOL0     C47130   1.238   9.731   9.578 -0.6545  0.4960 -0.5495
  350MOL0     C47131   1.317   9.785   9.698  0.3603 -0.0375  0.5793
  350MOL0     N47132   1.392   9.685   9.778  0.2323  0.5568  0.0298
  350MOL0     C47133   1.529   9.688   9.807  0.2599 -0.5934 -0.7074
  350MOL0     C47134   1.545   9.613   9.920 -0.2936 -0.0971 -0.4299
  350MOL0     C47135   1.665   9.624  10.021 -0.1146 -0.4449  0.2685
  350MOL0     C47136   1.656   9.741  10.125 -0.0347 -0.4541  0.5466
  350MOL0     C47137   1.542   9.727  10.238  0.1334 -0.1739  0.1022
  350MOL0     C47138   1.518   9.857  10.314 -0.0973  0.4469  0.1667
  350MOL0     O47139   1.605   9.875  10.432 -0.0591  0.5253  0.8236
  350MOL0     C47140   1.561   9.857  10.562  0.6272 -0.6832  0.4183
  350MOL0     C47141   1.593   9.954  10.658  0.1788  0.5237  0.2178
  350MOL0     C47142   1.565   9.913  10.794 -0.2562 -0.8223  1.1085
  350MOL0     C47143   1.489   9.802  10.825  0.7502 -0.0194  0.5204
  350MOL0     C47144   1.448   9.766  10.959  0.5921 -0.4002  0.0100
  350MOL0     O47145   1.450   9.871  11.050 -0.1548  0.1304 -0.9054
  350MOL0     C47146   1.405   9.836  11.174 -0.0730 -0.1030  0.6980
  350MOL0     C47147   1.272   9.861  11.190 -0.2876  0.1941 -0.3897
  350MOL0     C47148   1.214   9.837  11.327 -0.9254 -0.7049  0.0562
  350MOL0     C47149   1.295   9.778  11.419 -0.4528 -0.6369  0.5886
  350MOL0     O47150   1.224   9.732  11.529 -0.2320 -0.2959  0.0910
  350MOL0     C47151   1.295   9.656  11.638 -0.2192  0.3986 -0.1568
  350MOL0     C47152   1.204   9.604  11.749 -0.0038 -0.6006 -0.2208
  350MOL0     C47153   1.280   9.511  11.838 -0.6766  0.1956 -0.0455
  350MOL0     C47154   1.189   9.451  11.946  1.2515 -0.2856  0.0330
  350MOL0     C47155   1.261   9.356  12.048 -0.5531 -0.1912 -0.1433
  350MOL0     C47156   1.383   9.443  12.120 -0.2305  0.4343 -0.1776
  350MOL0     C47157   1.428   9.376  12.256 -0.2748  0.6567  0.1171
  350MOL0     C47158   1.495   9.475  12.347  0.0955  0.1270  0.1801
  350MOL0    Cl47159   1.621   9.550  12.243 -0.1516  0.3404 -0.0805
  350MOL0     C47160   1.432   9.753  11.387 -0.2190  0.9168 -0.3877
  350MOL0     C47161   1.491   9.793  11.269  0.0304 -0.1920  0.3053
  350MOL0     O47162   1.381   9.659  10.979 -0.3957 -0.0519 -0.3040
  350MOL0     C47163   1.447   9.716  10.724 -1.2010 -0.7275 -0.6676
  350MOL0     C47164   1.503   9.735  10.597 -0.6398  0.0064 -0.2312
  350MOL0     N47165   1.434   9.537   9.943 -0.3991 -0.1292 -0.9002
  350MOL0     N47166   1.345   9.587   9.862  0.6263 -0.4166  0.4621
  350MOL0     C47167   1.092   9.931  10.159  0.7820 -0.3571 -0.2805
  350MOL0     C47168   1.121   9.837  10.257 -0.3550  0.0555  0.3960
  350MOL0     C47169   1.063   9.574  10.632  0.0144  0.7770  0.2037
  350MOL0     C47170   1.112   9.644  10.746  0.1916 -0.6857  0.5373
  350MOL0     C47171   1.106   9.579  10.868  0.5765  0.4594 -0.6677
  350MOL0     C47172   1.047   9.459  10.890  0.4904  0.1647  0.3596
  350MOL0     O47173   1.041   9.395  11.016 -0.1572 -0.5342  0.0711
  350MOL0     C47174   1.142   9.439  11.111  0.2096  0.6027  0.4005
  350MOL0     C47175   1.081   9.546  11.205 -0.1007  0.0997 -0.0778
  350MOL0     C47176   0.971   9.494  11.292  1.0214  0.0063  0.4783
  350MOL0     C47177   0.938   9.618  11.379 -1.2732 -0.2680 -0.6230
  350MOL0     C47178   0.890   9.580  11.514 -0.4991 -0.0955 -0.8922
  350MOL0     C47179   0.862   9.542  11.623 -0.3306  1.2778  0.2727
  350MOL0     C47180   0.994   9.393  10.782 -0.2705  0.7414 -0.1343
  350MOL0     C47181   1.004   9.446  10.653 -0.4908 -0.1500 -0.3886
  350MOL0     C47182   0.949   9.355  10.549 -0.1002 -0.0198  0.3113
  350MOL0     H47183   0.925   9.969  10.501  3.7392  1.0448  0.7262
  350MOL0     H47184   0.860  10.110  10.316 -0.5970 -1.3693  0.9885
  350MOL0     H47185   0.938  10.183   9.886  1.7834  2.2553  2.5627
  350MOL0     H47186   1.073  10.093   9.929 -0.9262 -1.0786 -2.1597
  350MOL0     H47187   0.781   9.964   9.889 -0.5234  0.4628 -4.3580
  350MOL0     H47188   0.922   9.877   9.946  1.2353 -0.6740 -1.1180
  350MOL0     H47189   1.024  10.009   9.723 -0.5183  0.5896  1.7030
  350MOL0     H47190   0.866  10.011   9.675  0.6987 -0.1884 -0.5418
  350MOL0     H47191   1.000   9.744   9.765 -1.0471  3.1956  2.5800
  350MOL0     H47192   0.842   9.758   9.692 -0.7756 -0.4686  0.9787
  350MOL0     H47193   0.976   9.685   9.522  0.0696 -0.3901  1.5257
  350MOL0     H47194   0.916   9.832   9.481  0.8865 -2.2823 -1.4960
  350MOL0     H47195   1.152   9.837   9.415 -1.9180  2.1602  0.5301
  350MOL0     H47196   1.158   9.935   9.555 -1.6532  0.4734 -0.2825
  350MOL0     H47197   1.313   9.723   9.499 -1.0110 -0.6804 -0.7911
  350MOL0     H47198   1.197   9.631   9.590 -1.9788  1.1565  0.7342
  350MOL0     H47199   1.385   9.853   9.646  0.5532  0.7483  1.8334
  350MOL0     H47200   1.254   9.838   9.770 -0.5462 -0.8059  0.3870
  350MOL0     H47201   1.610   9.741   9.758  0.6721 -1.8473 -1.4491
  350MOL0     H47202   1.663   9.531  10.078 -2.9980 -0.1578  0.8280
  350MOL0     H47203   1.759   9.628   9.967  0.4600  0.7140  1.2891
  350MOL0     H47204   1.761   9.742  10.157  0.3218  0.8685 -0.6058
  350MOL0     H47205   1.637   9.831  10.066  1.7650  2.2362  3.6890
  350MOL0     H47206   1.571   9.652  10.312  1.0715  1.0094  0.9717
  350MOL0     H47207   1.450   9.700  10.185 -0.8198 -1.6924  2.3571
  350MOL0     H47208   1.414   9.856  10.348 -0.2107 -1.7237 -0.0930
  350MOL0     H47209   1.542   9.946  10.255 -0.8096 -0.2781 -1.2753
  350MOL0     H47210   1.639  10.051  10.642  0.5067  0.4798  0.8307
  350MOL0     H47211   1.585   9.985  10.873 -0.7124 -3.0109  3.3469
  350MOL0     H47212   1.216   9.897  11.104 -0.6742  1.9792  0.5562
  350MOL0     H47213   1.109   9.863  11.338 -0.7991 -0.7803  1.7954
  350MOL0     H47214   1.344   9.567  11.597  3.1052  1.3841  1.3417
  350MOL0     H47215   1.373   9.717  11.685  0.9676 -0.5767 -0.8154
  350MOL0     H47216   1.160   9.697  11.787  1.8949  1.9614 -3.6247
  350MOL0     H47217   1.122   9.547  11.705 -1.7441  0.0565  1.9969
  350MOL0     H47218   1.309   9.428  11.774 -1.1154 -1.1529  1.4376
  350MOL0     H47219   1.369   9.553  11.887 -2.8457  3.2231  1.5945
  350MOL0     H47220   1.113   9.393  11.893  2.3341 -1.1804 -0.5834
  350MOL0     H47221   1.143   9.535  11.998 -1.7190  1.1152 -4.2889
  350MOL0     H47222   1.289   9.267  11.991 -0.1318  0.3442 -0.7773
  350MOL0     H47223   1.195   9.319  12.127 -1.6999  2.7172  0.3809
  350MOL0     H47224   1.465   9.447  12.048 -1.1778 -0.4552 -1.3560
  350MOL0     H47225   1.342   9.543  12.140  0.9096  1.6629 -3.4183
  350MOL0     H47226   1.497   9.294  12.232 -2.2620 -1.1013  0.0126
  350MOL0     H47227   1.337   9.343  12.307 -0.7089 -0.3459 -1.2187
  350MOL0     H47228   1.427   9.557  12.373 -1.6699 -0.3350 -2.5659
  350MOL0     H47229   1.533   9.423  12.435  0.1914  0.0970  0.1222
  350MOL0     H47230   1.501   9.717  11.463  0.7128  2.5614 -0.4053
  350MOL0     H47231   1.598   9.785  11.251  0.0085  1.7789 -0.9074
  350MOL0     H47232   1.398   9.621  10.744 -2.0302 -0.8324 -2.8181
  350MOL0     H47233   1.476   9.660  10.523  4.1721 -0.8193 -1.4842
  350MOL0     H47234   1.129   9.917  10.058  5.6775 -1.3824  1.3561
  350MOL0     H47235   1.202   9.767  10.233  0.1970  0.4135  1.1884
  350MOL0     H47236   1.147   9.746  10.734 -3.0213  0.6183  1.1622
  350MOL0     H47237   1.140   9.639  10.951  0.9692  0.2233 -0.6505
  350MOL0     H47238   1.234   9.476  11.065  0.9936 -1.7323 -0.0258
  350MOL0     H47239   1.165   9.358  11.181 -1.5296  1.3890  1.9692
  350MOL0     H47240   1.041   9.630  11.147  0.0397 -0.6083 -1.2425
  350MOL0     H47241   1.156   9.578  11.278  1.8033 -5.1155  0.6863
  350MOL0     H47242   0.995   9.404  11.349  1.2836 -0.6922 -0.7087
  350MOL0     H47243   0.885   9.478  11.227  1.0367  0.7417  0.2664
  350MOL0     H47244   1.026   9.679  11.401  0.8804 -3.4649  0.4466
  350MOL0     H47245   0.859   9.677  11.332 -4.0261 -3.1664  0.0335
  350MOL0     H47246   0.850   9.495  11.718 -1.8245  2.0289  0.4720
  350MOL0     H47247   0.957   9.291  10.788 -1.2935  0.9956 -1.5643
  350MOL0     H47248   0.895   9.266  10.584 -0.6205 -0.5950 -1.7701
  350MOL0     H47249   0.873   9.405  10.488 -0.5152  0.7685  1.4349
  350MOL0     H47250   1.025   9.312  10.483 -3.2180 -1.6934 -2.5403
  351MOL0     O47251  11.060  10.064   5.657 -1.2799  0.4322 -0.1937
  351MOL0     C47252  10.954  10.064   5.716 -0.0151  0.4799 -0.2653
  351MOL0     O47253  10.843  10.129   5.680  0.1656 -0.8422  0.0657
  351MOL0     C47254  10.839  10.196   5.555 -0.9064  0.0400  0.6057
  351MOL0     C47255  10.925  10.185   5.437 -0.2317  0.4100 -0.9109
  351MOL0     C47256  10.896  10.247   5.316 -0.7772 -0.2400 -0.4242
  351MOL0     C47257  10.801  10.349   5.323 -0.0705 -0.0855  0.8107
  351MOL0     O47258  10.778  10.440   5.222 -0.4803 -0.5678 -0.2173
  351MOL0     C47259  10.877  10.447   5.116 -0.0933 -0.0893 -0.2775
  351MOL0     C47260  10.831  10.548   5.010 -0.7207 -0.5621  0.7948
  351MOL0     C47261  10.925  10.539   4.882  0.2489  0.7318 -0.5705
  351MOL0     C47262  11.052  10.629   4.892 -0.0629 -0.9707 -0.8581
  351MOL0     C47263  11.133  10.614   4.761 -0.4526 -0.9182 -0.8598
  351MOL0     C47264  11.263  10.699   4.763  0.3689 -0.4076  0.2350
  351MOL0     C47265  11.245  10.840   4.691 -0.7614 -0.9956  0.2798
  351MOL0     C47266  11.219  10.831   4.539 -0.1758  0.0522  0.9710
  351MOL0     N47267  11.325  10.758   4.457  0.2150 -0.2449 -0.6360
  351MOL0     C47268  11.338  10.770   4.322 -0.0203  0.1412  0.0327
  351MOL0     C47269  11.468  10.724   4.291 -0.0558  0.1837  0.1940
  351MOL0     C47270  11.523  10.723   4.149  0.0653  0.5729 -0.9284
  351MOL0     C47271  11.482  10.595   4.065  0.4896 -0.3284  0.0039
  351MOL0     C47272  11.541  10.608   3.921 -0.6213  0.5378  0.1221
  351MOL0     C47273  11.536  10.482   3.838  0.2124  0.2678  0.4816
  351MOL0     O47274  11.576  10.518   3.708 -0.4471  0.8552  0.2428
  351MOL0     C47275  11.555  10.433   3.601 -0.1155  0.9999  0.3338
  351MOL0     C47276  11.620  10.467   3.484 -0.3328  0.0581 -0.5112
  351MOL0     C47277  11.610  10.381   3.370 -0.0457  0.3544  0.7489
  351MOL0     C47278  11.550  10.255   3.376  0.2078  0.0766  0.2534
  351MOL0     C47279  11.550  10.164   3.269  0.2579 -0.9087  0.5131
  351MOL0     O47280  11.516  10.039   3.299 -0.3265 -0.1994  0.6150
  351MOL0     C47281  11.469   9.958   3.206  0.5047  0.0251  0.3564
  351MOL0     C47282  11.327   9.939   3.201  0.7301  0.2641 -0.1023
  351MOL0     C47283  11.288   9.840   3.112  0.7824 -0.1375  0.1836
  351MOL0     C47284  11.374   9.773   3.031 -0.4864  0.7786  0.2771
  351MOL0     O47285  11.322   9.662   2.965  0.0481  0.2776  0.0439
  351MOL0     C47286  11.411   9.577   2.887  0.9074  0.1767 -0.4394
  351MOL0     C47287  11.477   9.458   2.967 -0.7430  0.0741  0.4883
  351MOL0     C47288  11.382   9.335   3.006  0.8721 -0.1354  0.4152
  351MOL0     C47289  11.470   9.223   3.071  0.1907 -0.9045  0.5488
  351MOL0     C47290  11.400   9.096   3.092 -0.7892 -0.6538  0.2667
  351MOL0     C47291  11.331   9.029   2.974  0.4580 -0.2294  0.7421
  351MOL0     C47292  11.271   8.899   3.018  0.0732  0.0539 -0.4233
  351MOL0     C47293  11.266   8.793   2.903  0.5208 -0.0365  0.4206
  351MOL0    Cl47294  11.217   8.857   2.746 -0.1121 -0.0719  0.0777
  351MOL0     C47295  11.516   9.792   3.041 -0.3451  0.6380  0.2598
  351MOL0     C47296  11.564   9.894   3.123  0.2064 -0.7908 -0.0052
  351MOL0     O47297  11.557  10.212   3.156  0.2767 -0.6729 -0.4360
  351MOL0     C47298  11.507  10.216   3.501  0.0420  0.7886  0.3743
  351MOL0     C47299  11.512  10.297   3.615  0.2439 -0.1273 -0.3650
  351MOL0     N47300  11.520  10.681   4.406  0.1450 -0.6094  0.9704
  351MOL0     N47301  11.442  10.705   4.504 -0.4347 -0.0159 -0.1227
  351MOL0     C47302  10.718  10.369   5.434 -0.1843 -0.0747 -0.4909
  351MOL0     C47303  10.728  10.288   5.544 -0.3935 -0.7497  0.4217
  351MOL0     C47304  10.933   9.968   5.831  0.7549  0.3943 -0.1254
  351MOL0     C47305  10.808   9.890   5.828  0.3594 -0.0120  0.2972
  351MOL0     C47306  10.776   9.803   5.931 -0.5117 -0.0305  0.8845
  351MOL0     C47307  10.863   9.803   6.041 -0.6716 -0.2290 -0.7781
  351MOL0     O47308  10.835   9.721   6.152  0.5242  0.2638  0.6451
  351MOL0     C47309  10.883   9.731   6.283  0.4053 -0.3279  0.2740
  351MOL0     C47310  10.831   9.628   6.372 -0.5519 -0.4378 -0.9139
  351MOL0     C47311  10.692   9.650   6.432  1.3876  0.2369  0.0834
  351MOL0     C47312  10.585   9.674   6.330  0.1165 -0.1398  0.6534
  351MOL0     C47313  10.565   9.823   6.303  0.2866 -0.3321 -0.1360
  351MOL0     C47314  10.546   9.937   6.277  0.4061 -0.1930  1.1715
  351MOL0     C47315  10.980   9.865   6.037 -0.2644 -0.9285  0.6868
  351MOL0     C47316  11.022   9.951   5.934 -0.7055  0.3098  0.8130
  351MOL0     C47317  11.158  10.013   5.962 -0.1921 -0.2927  0.4380
  351MOL0     H47318  11.010  10.117   5.431 -0.4178  0.1641 -0.7595
  351MOL0     H47319  10.959  10.217   5.233 -1.4657 -1.5301 -0.5065
  351MOL0     H47320  10.973  10.476   5.159 -0.5117  0.3044  0.4003
  351MOL0     H47321  10.903  10.351   5.070  5.3665  1.3375 -0.8227
  351MOL0     H47322  10.845  10.649   5.050 -4.2072  0.7080 -0.8242
  351MOL0     H47323  10.725  10.540   4.987 -0.8514 -0.6329  1.3833
  351MOL0     H47324  10.869  10.589   4.802  3.0386  2.8992 -1.3294
  351MOL0     H47325  10.944  10.434   4.857 -2.4325  0.2918 -1.0991
  351MOL0     H47326  11.033  10.736   4.890  3.0715 -0.2795  0.3239
  351MOL0     H47327  11.107  10.590   4.979  1.9637 -0.6860 -1.9360
  351MOL0     H47328  11.162  10.510   4.744  4.4853  0.0755 -0.1865
  351MOL0     H47329  11.075  10.639   4.673  2.4945  3.3621 -1.9153
  351MOL0     H47330  11.281  10.724   4.868 -1.1161  1.9931  0.0056
  351MOL0     H47331  11.343  10.641   4.716  2.4276  1.1236  1.6567
  351MOL0     H47332  11.342  10.887   4.713  0.9178 -4.7330  1.8033
  351MOL0     H47333  11.169  10.908   4.732  1.4639  0.9145  1.5334
  351MOL0     H47334  11.120  10.795   4.509 -1.1034  1.7442  1.8595
  351MOL0     H47335  11.236  10.931   4.498 -0.7428  0.0598  0.7474
  351MOL0     H47336  11.257  10.809   4.261 -1.8550  0.7937  2.7069
  351MOL0     H47337  11.484  10.815   4.105 -2.0232  0.5752  0.7435
  351MOL0     H47338  11.631  10.733   4.158 -0.0140  0.7442 -0.0472
  351MOL0     H47339  11.513  10.506   4.121  1.5335  0.5465  0.8615
  351MOL0     H47340  11.374  10.600   4.055  0.6251  1.3977 -1.0403
  351MOL0     H47341  11.641  10.650   3.919  0.5468 -2.0829 -0.4719
  351MOL0     H47342  11.479  10.677   3.864 -1.2612 -0.0392  0.0997
  351MOL0     H47343  11.433  10.446   3.828 -0.1256  1.4165 -0.4191
  351MOL0     H47344  11.598  10.408   3.889 -0.0542  0.7295  1.5167
  351MOL0     H47345  11.660  10.566   3.464 -0.6719  1.2281  3.7515
  351MOL0     H47346  11.658  10.404   3.275  3.1398 -2.8246  1.3563
  351MOL0     H47347  11.265   9.994   3.271 -0.2032  1.0722 -1.5030
  351MOL0     H47348  11.185   9.807   3.104  1.2042 -0.9495 -3.9365
  351MOL0     H47349  11.348   9.539   2.805  2.2977  1.5554 -2.2248
  351MOL0     H47350  11.488   9.633   2.835  1.4048 -0.3859 -0.3196
  351MOL0     H47351  11.555   9.417   2.902  0.8450  0.4347  2.0678
  351MOL0     H47352  11.531   9.511   3.046  0.6175  1.7033 -1.4341
  351MOL0     H47353  11.301   9.361   3.075 -1.2678  0.8520 -2.2882
  351MOL0     H47354  11.325   9.312   2.916 -2.0989  2.6495  1.3964
  351MOL0     H47355  11.514   9.257   3.166  2.5323  2.0900 -1.4119
  351MOL0     H47356  11.552   9.194   3.005 -1.8676 -4.7323 -0.6023
  351MOL0     H47357  11.321   9.116   3.165 -1.1751  1.4597 -0.6514
  351MOL0     H47358  11.473   9.032   3.143 -0.5476  0.6884  1.6911
  351MOL0     H47359  11.261   9.099   2.928 -0.0150  0.0132  1.7973
  351MOL0     H47360  11.403   8.993   2.900  0.1181 -2.0129  1.2349
  351MOL0     H47361  11.174   8.909   3.069  0.0109 -0.6223 -0.4012
  351MOL0     H47362  11.342   8.858   3.090 -0.6097 -0.0712  0.1874
  351MOL0     H47363  11.362   8.745   2.884  1.1443  1.7565 -1.2632
  351MOL0     H47364  11.194   8.718   2.938 -1.4903  2.4459  1.9742
  351MOL0     H47365  11.593   9.738   2.986  0.9048  2.0894  0.4862
  351MOL0     H47366  11.670   9.920   3.120 -0.0286  0.6942  1.9815
  351MOL0     H47367  11.474  10.113   3.514  2.6662  0.0136  1.5046
  351MOL0     H47368  11.480  10.251   3.707 -2.0225  2.1314  0.1011
  351MOL0     H47369  10.645  10.448   5.422 -0.4756 -0.3022 -0.2383
  351MOL0     H47370  10.659  10.293   5.628  0.1152  0.7615  0.7745
  351MOL0     H47371  10.750   9.905   5.738  1.7942  2.4227 -0.3231
  351MOL0     H47372  10.679   9.754   5.923 -0.8217  0.3132  2.2863
  351MOL0     H47373  10.876   9.828   6.333  0.9439 -1.1809  2.1299
  351MOL0     H47374  10.992   9.717   6.278  0.5373  1.0275 -3.0746
  351MOL0     H47375  10.894   9.627   6.462 -2.6716 -0.7841  0.6577
  351MOL0     H47376  10.825   9.528   6.327  1.8640  0.6195 -3.9211
  351MOL0     H47377  10.685   9.738   6.497 -3.6684 -0.5080  1.0004
  351MOL0     H47378  10.664   9.559   6.486  3.0916  0.3512  1.2580
  351MOL0     H47379  10.597   9.619   6.236 -0.6104  0.8580 -0.0501
  351MOL0     H47380  10.495   9.644   6.385 -0.3522  2.0242  1.1542
  351MOL0     H47381  10.528  10.035   6.236  1.2849 -1.1420 -1.7770
  351MOL0     H47382  11.042   9.847   6.125  2.6021 -5.2676 -1.8240
  351MOL0     H47383  11.231   9.932   5.960 -0.2638 -0.3587  0.5230
  351MOL0     H47384  11.182  10.074   5.874 -1.5697 -2.1324 -1.3151
  351MOL0     H47385  11.156  10.080   6.048 -4.0272  2.3090 -1.3956
  352MOL0     O47386  10.930   0.726   2.138  0.2079  0.3643 -0.2066
  352MOL0     C47387  11.035   0.788   2.150  0.7916  1.7216 -0.4693
  352MOL0     O47388  11.038   0.908   2.205  0.0685  0.1476  0.4028
  352MOL0     C47389  10.936   0.937   2.295 -0.0340 -0.5423  0.0627
  352MOL0     C47390  10.939   0.896   2.431  0.3237 -0.0174 -0.0079
  352MOL0     C47391  10.839   0.950   2.518  0.2702 -0.1458  0.0500
  352MOL0     C47392  10.730   1.034   2.476 -0.0500 -0.4123  0.2423
  352MOL0     O47393  10.638   1.073   2.567  0.6275  0.5852  0.1803
  352MOL0     C47394  10.502   1.022   2.544  0.6055 -0.3668 -0.9457
  352MOL0     C47395  10.406   1.133   2.499 -0.9265 -0.0674 -0.0058
  352MOL0     C47396  10.267   1.082   2.473 -1.0489  0.3506 -0.1298
  352MOL0     C47397  10.172   1.199   2.471 -0.5116  0.4243  0.8223
  352MOL0     C47398  10.030   1.168   2.493 -0.3848 -0.5727  0.5001
  352MOL0     C47399   9.939   1.289   2.491  0.9397  0.5704  0.0280
  352MOL0     C47400   9.797   1.228   2.514 -0.2184  0.2646 -0.1793
  352MOL0     C47401   9.693   1.337   2.518  0.7528 -0.0305  0.4061
  352MOL0     N47402   9.570   1.274   2.567  0.0583  0.0479  0.2324
  352MOL0     C47403   9.497   1.310   2.670  0.2492  0.2725 -0.4004
  352MOL0     C47404   9.389   1.229   2.668 -0.4482  0.5593  0.0197
  352MOL0     C47405   9.273   1.235   2.760 -0.8407  0.1969 -0.3265
  352MOL0     C47406   9.282   1.149   2.897  0.1870 -0.0209  0.2955
  352MOL0     C47407   9.209   1.217   3.013 -0.6199  0.1946 -0.7524
  352MOL0     C47408   9.267   1.174   3.150 -0.2268 -0.3756 -0.6246
  352MOL0     O47409   9.330   1.046   3.164 -0.0593 -1.1748 -0.0322
  352MOL0     C47410   9.445   1.042   3.246  0.1948 -0.4181  0.3066
  352MOL0     C47411   9.483   1.128   3.354 -0.3475  0.5474 -0.4082
  352MOL0     C47412   9.600   1.108   3.422 -0.6687 -0.2077  0.3049
  352MOL0     C47413   9.675   0.993   3.397  0.6885 -0.5000  1.3049
  352MOL0     C47414   9.800   0.968   3.466 -0.2117  1.4685 -0.0156
  352MOL0     O47415   9.828   1.054   3.569 -0.8021  0.0573  0.1060
  352MOL0     C47416   9.935   1.023   3.654  0.7088  0.1614  0.2484
  352MOL0     C47417  10.032   1.126   3.672  0.3952 -0.0200  0.4796
  352MOL0     C47418  10.137   1.093   3.755 -1.6164 -0.1940  1.0831
  352MOL0     C47419  10.147   0.975   3.820 -0.2442 -0.0989  0.4497
  352MOL0     O47420  10.257   0.956   3.899  0.2217 -1.0997 -0.5820
  352MOL0     C47421  10.317   0.825   3.899  1.2704 -0.1894 -0.2836
  352MOL0     C47422  10.462   0.850   3.945  0.3974 -0.0127 -0.3049
  352MOL0     C47423  10.555   0.914   3.836  0.0392 -0.5511 -0.0789
  352MOL0     C47424  10.589   0.836   3.712  0.6842  0.6618 -0.2802
  352MOL0     C47425  10.705   0.899   3.636 -0.3310  0.0054 -0.2509
  352MOL0     C47426  10.831   0.837   3.690 -0.8151  0.4698  0.4232
  352MOL0     C47427  10.954   0.937   3.676  0.0306 -0.3217 -0.4452
  352MOL0     C47428  11.003   0.962   3.533 -0.3231  0.0799 -0.0780
  352MOL0    Cl47429  11.147   1.067   3.536  0.1653  0.0133  0.2444
  352MOL0     C47430  10.048   0.875   3.796  0.3562 -1.4429 -0.4894
  352MOL0     C47431   9.938   0.905   3.719  0.0963  0.5814  0.2788
  352MOL0     O47432   9.861   0.862   3.437 -0.4634  0.1133 -0.1490
  352MOL0     C47433   9.636   0.899   3.297 -0.2428  0.0886  0.0462
  352MOL0     C47434   9.526   0.933   3.222 -0.2199  0.1827 -0.2355
  352MOL0     N47435   9.389   1.156   2.558  0.4178 -0.3779 -0.4951
  352MOL0     N47436   9.501   1.174   2.500 -0.0602  0.0095 -0.2034
  352MOL0     C47437  10.727   1.059   2.341 -0.4485 -0.2357 -0.4596
  352MOL0     C47438  10.824   1.013   2.244 -0.9329 -0.6093  1.3993
  352MOL0     C47439  11.162   0.745   2.090  0.1658 -0.5029  0.0329
  352MOL0     C47440  11.260   0.842   2.073  0.8474 -0.0085  0.4826
  352MOL0     C47441  11.381   0.807   2.015 -0.3663  0.8533 -0.8507
  352MOL0     C47442  11.415   0.669   1.985  0.0033  0.3122 -0.3080
  352MOL0     O47443  11.525   0.623   1.927 -0.5958  0.2392 -0.4882
  352MOL0     C47444  11.622   0.724   1.887  0.6224  0.5652 -0.7545
  352MOL0     C47445  11.737   0.663   1.809  0.7275 -0.3309 -0.1981
  352MOL0     C47446  11.693   0.593   1.679 -0.6267  0.0287  1.0119
  352MOL0     C47447  11.629   0.688   1.584 -0.4831  0.3629 -1.1481
  352MOL0     C47448  11.597   0.618   1.464  0.5245 -0.2564  0.2545
  352MOL0     C47449  11.574   0.566   1.354  0.1543 -0.1950  0.5625
  352MOL0     C47450  11.313   0.571   2.008  0.1827  0.7799  0.4531
  352MOL0     C47451  11.186   0.611   2.051  0.3508  0.3112 -0.3888
  352MOL0     C47452  11.074   0.509   2.054 -0.7039 -0.0707 -0.7132
  352MOL0     H47453  11.021   0.834   2.467  2.2017  0.8538 -2.5096
  352MOL0     H47454  10.848   0.923   2.622 -4.0174  1.0057  0.9342
  352MOL0     H47455  10.504   0.943   2.468  2.7918 -1.2424 -0.0781
  352MOL0     H47456  10.471   0.980   2.640  1.1146  0.8854 -0.2184
  352MOL0     H47457  10.456   1.162   2.406  0.6045 -3.9535 -0.5662
  352MOL0     H47458  10.411   1.204   2.582  5.0652 -3.8218  3.5078
  352MOL0     H47459  10.240   1.026   2.563 -0.1479  1.7868  1.0829
  352MOL0     H47460  10.261   1.026   2.379 -1.2078  1.8838 -1.0575
  352MOL0     H47461  10.207   1.269   2.548  4.5063  0.0715 -0.7491
  352MOL0     H47462  10.192   1.238   2.370 -2.9040  0.9344  0.4905
  352MOL0     H47463  10.017   1.113   2.399  2.5176 -0.3050 -0.1405
  352MOL0     H47464  10.016   1.110   2.585  3.1901  0.4920  1.8586
  352MOL0     H47465   9.957   1.356   2.576 -1.9070  0.3751  0.8819
  352MOL0     H47466   9.945   1.345   2.397  1.6972 -0.3086 -0.4667
  352MOL0     H47467   9.787   1.163   2.602 -3.4313 -0.4224 -0.9245
  352MOL0     H47468   9.780   1.154   2.436 -3.3164 -3.2753  3.4076
  352MOL0     H47469   9.715   1.399   2.605 -2.6899  2.4830 -0.2854
  352MOL0     H47470   9.680   1.396   2.427  1.2948  0.1752  0.4555
  352MOL0     H47471   9.541   1.360   2.755  3.3040 -2.4487 -0.1778
  352MOL0     H47472   9.259   1.342   2.778 -1.5031  0.1779 -0.6996
  352MOL0     H47473   9.187   1.195   2.707 -2.4619  1.1116  1.5040
  352MOL0     H47474   9.267   1.043   2.874  0.7264  0.2455 -1.4300
  352MOL0     H47475   9.389   1.154   2.919  0.8690  1.7005 -2.8190
  352MOL0     H47476   9.100   1.202   3.018 -0.8453  0.8152 -2.8230
  352MOL0     H47477   9.218   1.326   3.004 -1.7125  0.5218  1.3799
  352MOL0     H47478   9.192   1.183   3.229  2.1228 -0.6460  1.7785
  352MOL0     H47479   9.346   1.247   3.171 -2.1113  1.0763  2.1368
  352MOL0     H47480   9.424   1.216   3.379 -0.5474  0.7713 -1.6145
  352MOL0     H47481   9.622   1.166   3.511  0.5447  0.8503 -0.6390
  352MOL0     H47482  10.008   1.227   3.641 -1.7284 -0.1172  1.6506
  352MOL0     H47483  10.204   1.177   3.771 -0.8822 -0.3073 -1.1010
  352MOL0     H47484  10.269   0.756   3.969 -0.3845 -1.1091 -2.2125
  352MOL0     H47485  10.308   0.769   3.806 -0.3953  0.8669 -0.7860
  352MOL0     H47486  10.459   0.909   4.037  0.0764 -2.4217  1.2874
  352MOL0     H47487  10.502   0.752   3.971 -2.4034 -1.2622 -0.3336
  352MOL0     H47488  10.489   0.994   3.802  1.6283 -0.0031 -2.0436
  352MOL0     H47489  10.648   0.936   3.888 -0.5158 -1.1623  1.2267
  352MOL0     H47490  10.495   0.843   3.656 -0.5351  0.2680  1.6194
  352MOL0     H47491  10.608   0.731   3.737 -0.2391  0.9835  2.0167
  352MOL0     H47492  10.697   1.007   3.650  2.1105 -0.0295  2.1106
  352MOL0     H47493  10.694   0.855   3.536  0.0631 -2.2864  0.6423
  352MOL0     H47494  10.816   0.811   3.795  0.9251 -1.6583  0.2091
  352MOL0     H47495  10.857   0.745   3.637 -3.8355 -1.4678  2.0179
  352MOL0     H47496  11.024   0.889   3.746  1.9981  4.9653  1.7066
  352MOL0     H47497  10.926   1.033   3.720  0.3317  0.4698 -1.9440
  352MOL0     H47498  11.024   0.871   3.475 -3.9005 -0.2482 -1.1243
  352MOL0     H47499  10.923   1.015   3.480  1.7643  2.2160 -1.2151
  352MOL0     H47500  10.045   0.778   3.845  1.1332 -1.0020  0.4550
  352MOL0     H47501   9.858   0.834   3.701  0.4477  0.6538 -1.8184
  352MOL0     H47502   9.693   0.807   3.283  1.3248  0.8742  1.0362
  352MOL0     H47503   9.493   0.869   3.140  0.9674 -0.3152 -0.3440
  352MOL0     H47504  10.644   1.121   2.308 -3.3548 -2.6749  1.6994
  352MOL0     H47505  10.822   1.058   2.146 -0.3884  1.3213  2.2347
  352MOL0     H47506  11.255   0.947   2.101 -0.7156 -0.0756  0.5203
  352MOL0     H47507  11.467   0.873   2.006  1.1592 -0.7771  0.9135
  352MOL0     H47508  11.660   0.763   1.983 -2.3989 -1.9495  1.6952
  352MOL0     H47509  11.576   0.800   1.825 -1.2449 -1.3661 -1.8372
  352MOL0     H47510  11.791   0.591   1.871  1.3650  0.2350 -0.0847
  352MOL0     H47511  11.811   0.741   1.791 -0.0834  0.0044 -2.3306
  352MOL0     H47512  11.630   0.508   1.708  0.5189 -0.7453  1.3346
  352MOL0     H47513  11.780   0.561   1.621 -1.8498  1.6717 -1.9448
  352MOL0     H47514  11.540   0.742   1.615  0.1503  3.5956 -4.2700
  352MOL0     H47515  11.699   0.768   1.558  0.1020  0.6638  1.1387
  352MOL0     H47516  11.552   0.493   1.279  3.8451 -2.4192  1.3836
  352MOL0     H47517  11.337   0.469   1.980 -2.5787  0.5321 -1.3370
  352MOL0     H47518  11.114   0.421   2.003 -0.9398 -0.7222  0.1993
  352MOL0     H47519  11.058   0.465   2.153 -3.1563 -0.5581 -1.2578
  352MOL0     H47520  10.975   0.535   2.015 -1.1021  0.0452  0.3206
  353MOL0     O47521   5.778   4.750   0.671  0.4502  0.3914 -1.0150
  353MOL0     C47522   5.771   4.631   0.699  0.7719  0.4316 -0.5397
  353MOL0     O47523   5.666   4.572   0.764  0.6413 -0.4350 -0.3473
  353MOL0     C47524   5.559   4.647   0.821 -0.0826  1.5828 -0.6541
  353MOL0     C47525   5.436   4.646   0.753 -1.0700 -0.0307 -0.0272
  353MOL0     C47526   5.338   4.724   0.816 -0.4954 -0.7984 -0.3453
  353MOL0     C47527   5.352   4.783   0.944  0.0178  0.8399  0.0518
  353MOL0     O47528   5.261   4.855   1.016  0.4746  0.5274 -0.0062
  353MOL0     C47529   5.133   4.877   0.965 -0.6127 -0.2052  0.5851
  353MOL0     C47530   5.040   4.940   1.077 -0.4106  0.2617 -0.0845
  353MOL0     C47531   4.894   4.969   1.032  0.0583  0.1226 -0.4555
  353MOL0     C47532   4.806   5.016   1.152 -0.1250 -0.7829  0.4106
  353MOL0     C47533   4.788   4.928   1.269 -0.2747  0.1732 -0.0589
  353MOL0     C47534   4.661   4.847   1.280  0.2073  0.5495  0.2538
  353MOL0     C47535   4.634   4.780   1.415 -0.7386  0.4811  0.0364
  353MOL0     C47536   4.573   4.861   1.525  1.3131 -0.3319  1.0014
  353MOL0     N47537   4.534   4.773   1.636  0.4682 -0.2856 -0.1102
  353MOL0     C47538   4.456   4.662   1.638  0.7643  0.0956 -0.5947
  353MOL0     C47539   4.429   4.635   1.772 -0.1348  1.2027  0.1080
  353MOL0     C47540   4.331   4.537   1.830  0.3611 -0.2509  0.5637
  353MOL0     C47541   4.357   4.392   1.807 -0.6066 -0.0954 -0.0985
  353MOL0     C47542   4.499   4.354   1.848 -0.5257 -0.3212  0.5745
  353MOL0     C47543   4.527   4.366   1.999  0.0850 -0.3093  0.4895
  353MOL0     O47544   4.651   4.306   2.040  0.4039 -1.4452 -0.1372
  353MOL0     C47545   4.753   4.401   2.067  0.1804  0.7795  0.2057
  353MOL0     C47546   4.837   4.391   2.178 -0.8752  0.2497  0.0289
  353MOL0     C47547   4.951   4.465   2.193  0.4097  0.5629  0.3400
  353MOL0     C47548   4.978   4.563   2.103 -0.8952  0.6016 -0.1489
  353MOL0     C47549   5.113   4.626   2.127 -0.2461  0.2358 -0.2767
  353MOL0     O47550   5.186   4.594   2.238 -0.3130  0.1254 -0.8192
  353MOL0     C47551   5.317   4.627   2.240 -0.0435 -0.8413  0.4878
  353MOL0     C47552   5.367   4.761   2.251  0.4449 -0.5280  0.4947
  353MOL0     C47553   5.503   4.795   2.253  0.8139  0.5324  0.0532
  353MOL0     C47554   5.599   4.692   2.254 -0.2112  0.1069 -0.4253
  353MOL0     O47555   5.733   4.737   2.254 -0.5458  0.1409 -0.4184
  353MOL0     C47556   5.833   4.636   2.228  0.6716  0.6891 -0.2094
  353MOL0     C47557   5.965   4.695   2.264 -0.5003 -0.1026 -0.6457
  353MOL0     C47558   6.076   4.598   2.242  0.4880 -0.0984  0.1678
  353MOL0     C47559   6.134   4.519   2.363 -0.0545 -0.1668  0.0732
  353MOL0     C47560   6.222   4.608   2.454  0.2060  0.0063 -0.3724
  353MOL0     C47561   6.308   4.520   2.554  0.4647 -0.6543  1.0202
  353MOL0     C47562   6.423   4.440   2.487 -0.5355  0.2911  1.2426
  353MOL0     C47563   6.541   4.416   2.589  0.2955  0.3990 -0.2459
  353MOL0    Cl47564   6.505   4.256   2.678  0.1782 -0.3884  0.0733
  353MOL0     C47565   5.549   4.562   2.230  0.1545  0.0070  0.7560
  353MOL0     C47566   5.411   4.531   2.226 -0.6907  0.3746 -0.3690
  353MOL0     O47567   5.149   4.711   2.039  0.2389 -0.0184  0.2241
  353MOL0     C47568   4.903   4.580   1.993  0.6283  0.0055 -0.0646
  353MOL0     C47569   4.786   4.509   1.977 -0.5129 -0.2154  0.0610
  353MOL0     N47570   4.510   4.718   1.849  0.5147 -0.6012  0.8970
  353MOL0     N47571   4.565   4.805   1.764  0.7439  0.2388 -0.2972
  353MOL0     C47572   5.478   4.797   0.997 -0.7772 -0.5016  0.9677
  353MOL0     C47573   5.580   4.718   0.944  0.7815  1.1517 -0.1923
  353MOL0     C47574   5.883   4.546   0.672 -0.2655  0.3571 -0.1199
  353MOL0     C47575   6.009   4.600   0.709 -0.1676 -0.2225 -0.3823
  353MOL0     C47576   6.125   4.517   0.691 -0.0044 -0.7596 -0.5638
  353MOL0     C47577   6.129   4.391   0.652 -0.0542  0.7267  0.1901
  353MOL0     O47578   6.242   4.319   0.631 -0.7912  0.5054 -0.4761
  353MOL0     C47579   6.370   4.376   0.644 -0.0077  0.7036  0.3167
  353MOL0     C47580   6.477   4.287   0.574 -0.0561 -0.0440 -0.0268
  353MOL0     C47581   6.616   4.340   0.623  0.3263 -0.0303 -0.3296
  353MOL0     C47582   6.725   4.250   0.567  0.6092  0.9376  0.0935
  353MOL0     C47583   6.717   4.123   0.638 -0.3192  0.0465 -0.0234
  353MOL0     C47584   6.717   4.021   0.704 -0.1806 -0.4674  1.1522
  353MOL0     C47585   6.002   4.339   0.608 -0.4969 -0.5454 -0.0217
  353MOL0     C47586   5.879   4.408   0.631  0.4630  0.0343 -0.8224
  353MOL0     C47587   5.757   4.347   0.580 -0.7609 -0.1916  0.2700
  353MOL0     H47588   5.424   4.606   0.653 -2.8001 -0.2770  0.2441
  353MOL0     H47589   5.243   4.745   0.768  0.0057 -0.9705 -1.4298
  353MOL0     H47590   5.140   4.947   0.882 -0.9083  0.9644  1.5117
  353MOL0     H47591   5.071   4.792   0.935 -2.5382  0.9103  1.2563
  353MOL0     H47592   5.085   5.030   1.121 -0.8566  0.5513 -0.2093
  353MOL0     H47593   5.042   4.857   1.148  1.7577  2.0376  2.1005
  353MOL0     H47594   4.844   4.884   0.985 -0.3148  0.4910 -0.7377
  353MOL0     H47595   4.889   5.054   0.963  0.4457  1.1404  0.7248
  353MOL0     H47596   4.855   5.109   1.182  2.6511 -1.7611 -0.8181
  353MOL0     H47597   4.710   5.041   1.105  0.1582 -1.3915 -0.5145
  353MOL0     H47598   4.876   4.864   1.285 -2.1848 -1.9172  3.2445
  353MOL0     H47599   4.779   5.002   1.349 -1.0314  0.4911 -0.4401
  353MOL0     H47600   4.566   4.901   1.273 -0.5969 -0.9695 -2.3965
  353MOL0     H47601   4.667   4.784   1.190  0.9791  1.3856 -0.3054
  353MOL0     H47602   4.732   4.738   1.441 -1.9185 -1.2984  1.9342
  353MOL0     H47603   4.561   4.703   1.389 -0.1381  0.3626 -1.3510
  353MOL0     H47604   4.633   4.945   1.563 -0.2203  1.0852  0.4384
  353MOL0     H47605   4.482   4.906   1.484  1.9217  0.7793  0.8042
  353MOL0     H47606   4.418   4.613   1.548  0.7505 -2.7273  0.8432
  353MOL0     H47607   4.323   4.559   1.937  0.7882  0.8244  0.3827
  353MOL0     H47608   4.232   4.555   1.786  1.0221  0.8793 -0.5031
  353MOL0     H47609   4.281   4.318   1.833 -3.3724  1.5023 -2.9616
  353MOL0     H47610   4.367   4.390   1.698 -0.0014 -1.3536 -0.0373
  353MOL0     H47611   4.565   4.425   1.798 -0.4465 -0.4261  0.5312
  353MOL0     H47612   4.520   4.252   1.816  1.4947  0.4190 -0.6374
  353MOL0     H47613   4.449   4.320   2.061  0.2703 -3.0652 -1.1248
  353MOL0     H47614   4.520   4.470   2.030  1.1027 -0.3209  0.7965
  353MOL0     H47615   4.827   4.318   2.258  1.6636  0.6322  0.8025
  353MOL0     H47616   5.015   4.429   2.273 -1.9288 -1.9757  1.2259
  353MOL0     H47617   5.288   4.835   2.249  1.1753  0.2486 -0.0716
  353MOL0     H47618   5.535   4.897   2.270  1.9113 -0.1586  2.5929
  353MOL0     H47619   5.817   4.550   2.294 -0.8083  1.4469  0.4852
  353MOL0     H47620   5.839   4.606   2.124  1.2910 -1.0443  0.2916
  353MOL0     H47621   5.982   4.786   2.207 -4.4701 -0.8143 -3.4106
  353MOL0     H47622   5.952   4.719   2.370 -2.0768  0.1008 -0.8503
  353MOL0     H47623   6.064   4.533   2.155  0.0538  0.1707  0.0256
  353MOL0     H47624   6.156   4.663   2.206 -0.7037  1.2448 -0.1635
  353MOL0     H47625   6.198   4.439   2.326 -1.2722 -1.4149  0.5660
  353MOL0     H47626   6.050   4.473   2.416  0.3496 -1.4265 -0.3698
  353MOL0     H47627   6.157   4.680   2.504 -0.4957 -0.1212 -1.0725
  353MOL0     H47628   6.294   4.660   2.389  1.0514 -1.1959 -0.4274
  353MOL0     H47629   6.367   4.591   2.613  1.1970 -0.8863  0.5789
  353MOL0     H47630   6.242   4.462   2.619 -1.8485  0.7267  0.0171
  353MOL0     H47631   6.472   4.504   2.413 -1.1732 -2.5058 -1.8039
  353MOL0     H47632   6.389   4.349   2.437 -1.1637  1.1291  0.0638
  353MOL0     H47633   6.630   4.411   2.526 -1.8315 -1.6689 -3.3735
  353MOL0     H47634   6.545   4.501   2.659 -0.7138 -1.4175  2.1504
  353MOL0     H47635   5.614   4.477   2.215 -2.8824 -2.2496 -0.4679
  353MOL0     H47636   5.376   4.430   2.208 -1.2400  0.0859  2.0024
  353MOL0     H47637   4.932   4.667   1.934 -2.0969  1.7475  0.9655
  353MOL0     H47638   4.727   4.526   1.887 -0.7993 -0.5970  0.1760
  353MOL0     H47639   5.495   4.851   1.089  2.5754 -2.1769  1.4978
  353MOL0     H47640   5.678   4.717   0.989  2.8602  3.5927 -4.1002
  353MOL0     H47641   6.018   4.695   0.761  2.3692 -0.3614 -0.4759
  353MOL0     H47642   6.218   4.553   0.735  0.8091 -2.3105 -0.9400
  353MOL0     H47643   6.398   4.392   0.749  2.3539  1.2232 -0.3347
  353MOL0     H47644   6.371   4.470   0.588 -1.0637  1.9136  2.1973
  353MOL0     H47645   6.472   4.292   0.464  0.8597  3.3529 -0.0423
  353MOL0     H47646   6.462   4.185   0.610  3.8991 -0.5944  0.5147
  353MOL0     H47647   6.616   4.335   0.732  1.9421  0.3221 -0.2858
  353MOL0     H47648   6.637   4.441   0.585 -1.6992  0.6720  0.3026
  353MOL0     H47649   6.690   4.237   0.464 -0.6308  2.4255  0.2878
  353MOL0     H47650   6.816   4.303   0.596 -0.0993  0.3150  3.8565
  353MOL0     H47651   6.706   3.926   0.752 -0.2869 -1.3666 -0.5514
  353MOL0     H47652   6.004   4.241   0.561  0.7823 -0.0781 -0.9950
  353MOL0     H47653   5.779   4.241   0.559  1.6663 -0.3709  3.0732
  353MOL0     H47654   5.668   4.361   0.641 -0.7307  1.3865 -0.0233
  353MOL0     H47655   5.727   4.393   0.485  1.6888  1.2442  0.1271
  354MOL0     O47656   5.186   0.600   6.491 -1.5365 -0.8672 -0.9116
  354MOL0     C47657   5.100   0.686   6.497 -0.0277 -0.4854 -0.4141
  354MOL0     O47658   5.027   0.728   6.393  0.0782 -0.6284  0.2631
  354MOL0     C47659   5.041   0.675   6.270 -0.6973 -0.5488 -0.4229
  354MOL0     C47660   5.101   0.739   6.157 -0.3076 -1.7678  0.6190
  354MOL0     C47661   5.115   0.682   6.028  0.0328 -0.7130 -0.3159
  354MOL0     C47662   5.050   0.563   6.006 -0.4156  0.3687 -0.5651
  354MOL0     O47663   5.024   0.521   5.877  0.6879  0.7029  0.1287
  354MOL0     C47664   5.131   0.533   5.786 -0.0522  0.2452  0.2962
  354MOL0     C47665   5.131   0.429   5.683 -0.3044  0.3442  0.2106
  354MOL0     C47666   5.013   0.438   5.580 -0.3316  0.7178 -0.4244
  354MOL0     C47667   5.019   0.347   5.450  0.1956  1.1188 -0.0687
  354MOL0     C47668   4.892   0.308   5.378 -0.6598 -0.5591 -0.4219
  354MOL0     C47669   4.903   0.224   5.247 -0.1219 -0.1854 -0.4784
  354MOL0     C47670   4.772   0.192   5.194 -0.2254 -0.0782  0.1130
  354MOL0     C47671   4.766   0.081   5.092  1.4892  0.3432  0.2445
  354MOL0     N47672   4.632   0.050   5.029 -0.1322  0.3041  0.2956
  354MOL0     C47673   4.512   0.076   5.082 -0.0836 -0.3828  0.2228
  354MOL0     C47674   4.425   0.020   4.999 -1.1106  0.1982 -0.3587
  354MOL0     C47675   4.281   0.029   5.008  0.5443  0.1053 -1.2574
  354MOL0     C47676   4.222  -0.086   5.089 -0.8359  0.1082  0.4086
  354MOL0     C47677   4.216  -0.225   5.022 -0.0808  0.0732 -0.1296
  354MOL0     C47678   4.150  -0.333   5.107  0.2810 -0.3537 -0.3549
  354MOL0     O47679   4.180  -0.462   5.057  0.2157  0.0502 -0.1733
  354MOL0     C47680   4.302  -0.530   5.080  0.1230 -0.3118  0.0385
  354MOL0     C47681   4.404  -0.491   5.161 -0.5811 -0.4426 -0.1641
  354MOL0     C47682   4.535  -0.553   5.178  0.0158  0.3070  0.7836
  354MOL0     C47683   4.556  -0.670   5.099  0.5022  0.2719 -0.3937
  354MOL0     C47684   4.683  -0.741   5.111  0.2587  0.4643 -0.1161
  354MOL0     O47685   4.793  -0.669   5.146 -0.0141  0.3653  0.0041
  354MOL0     C47686   4.915  -0.732   5.155 -0.8465 -0.9477  0.0850
  354MOL0     C47687   5.023  -0.682   5.086  0.8812 -1.1797 -0.2826
  354MOL0     C47688   5.156  -0.719   5.101  0.0730 -0.5449 -0.3951
  354MOL0     C47689   5.181  -0.816   5.196 -0.6586  0.2222  0.5629
  354MOL0     O47690   5.306  -0.855   5.225 -0.2747 -0.2533  0.2497
  354MOL0     C47691   5.342  -0.846   5.365  1.1566  0.3500 -0.2371
  354MOL0     C47692   5.466  -0.758   5.389 -0.2029  0.2439  0.7808
  354MOL0     C47693   5.439  -0.617   5.351  0.1844 -0.2372 -0.1288
  354MOL0     C47694   5.573  -0.536   5.342  0.2459  0.7398 -0.2771
  354MOL0     C47695   5.545  -0.397   5.294  0.0427 -0.0732 -0.5761
  354MOL0     C47696   5.669  -0.317   5.302  0.5658 -0.9756 -1.1098
  354MOL0     C47697   5.787  -0.368   5.219 -0.0152  0.2813 -0.2074
  354MOL0     C47698   5.750  -0.380   5.071  0.1668 -0.4150  0.6757
  354MOL0    Cl47699   5.896  -0.414   4.976 -0.1192  0.0107 -0.1385
  354MOL0     C47700   5.079  -0.860   5.280  1.1975 -0.4632 -0.3190
  354MOL0     C47701   4.943  -0.820   5.260 -0.3067 -0.4106  0.2492
  354MOL0     O47702   4.678  -0.866   5.083  0.3779  0.5502  0.3058
  354MOL0     C47703   4.454  -0.720   5.013 -0.3391  0.3892  0.0003
  354MOL0     C47704   4.330  -0.644   5.001 -0.7974 -0.1284 -0.2858
  354MOL0     N47705   4.487  -0.048   4.899  0.5697  0.1618 -0.1206
  354MOL0     N47706   4.616  -0.033   4.920 -0.1454 -0.8579 -0.8691
  354MOL0     C47707   4.988   0.489   6.111 -0.4996  0.3082  0.0219
  354MOL0     C47708   4.993   0.551   6.240  0.6907  0.3237  0.0499
  354MOL0     C47709   5.066   0.740   6.627  0.7216  0.3575 -0.1604
  354MOL0     C47710   5.155   0.737   6.736 -0.7049 -0.2976 -0.1059
  354MOL0     C47711   5.107   0.769   6.863  0.0425 -0.6108  1.0273
  354MOL0     C47712   4.982   0.818   6.892  0.1856  0.3021 -0.0610
  354MOL0     O47713   4.966   0.852   7.027  0.7001  0.1657  0.8540
  354MOL0     C47714   4.835   0.915   7.064 -0.0048  0.3816 -0.5676
  354MOL0     C47715   4.814   1.064   7.028  0.6822 -0.4850  0.1273
  354MOL0     C47716   4.668   1.116   7.045 -0.1352 -0.2415 -0.2433
  354MOL0     C47717   4.650   1.202   7.166  0.1553 -0.8816  0.2277
  354MOL0     C47718   4.688   1.127   7.289 -0.5724  0.1833  0.7980
  354MOL0     C47719   4.723   1.061   7.387  0.1307  0.3903  0.0872
  354MOL0     C47720   4.895   0.843   6.781 -0.1458  0.7900 -0.3332
  354MOL0     C47721   4.933   0.789   6.653  0.1336 -0.3738  0.8634
  354MOL0     C47722   4.818   0.812   6.554 -0.1294 -0.6901  0.1334
  354MOL0     H47723   5.137   0.839   6.179 -2.3942 -0.4168 -1.5601
  354MOL0     H47724   5.155   0.746   5.950  0.8292 -0.8504 -0.0226
  354MOL0     H47725   5.129   0.634   5.744 -1.0064  1.1348  2.3427
  354MOL0     H47726   5.220   0.527   5.849 -1.7252 -1.3752  2.6628
  354MOL0     H47727   5.140   0.336   5.740  2.6539  1.7195  2.2502
  354MOL0     H47728   5.222   0.436   5.623  0.2787 -2.5310  0.5849
  354MOL0     H47729   5.010   0.542   5.546  3.1186  0.5761 -1.5655
  354MOL0     H47730   4.925   0.402   5.635 -1.0604  0.2642 -1.8260
  354MOL0     H47731   5.075   0.410   5.380  1.0458  1.3681  0.8136
  354MOL0     H47732   5.075   0.258   5.480 -2.2896 -0.3135  0.5969
  354MOL0     H47733   4.825   0.257   5.447 -1.5996  1.0043 -0.1298
  354MOL0     H47734   4.837   0.398   5.347 -0.0610 -0.7377 -2.0900
  354MOL0     H47735   4.954   0.282   5.169 -0.6996 -0.7199 -1.2698
  354MOL0     H47736   4.954   0.130   5.264  1.0418  0.6632  0.9115
  354MOL0     H47737   4.717   0.281   5.161 -0.5041  0.0728  0.9726
  354MOL0     H47738   4.708   0.165   5.278  1.3794 -1.6486  0.9019
  354MOL0     H47739   4.844   0.108   5.021  1.1518  0.5554 -0.0486
  354MOL0     H47740   4.789  -0.010   5.149  1.9408  0.7713  0.7531
  354MOL0     H47741   4.481   0.137   5.166 -1.8091  0.2847 -0.8575
  354MOL0     H47742   4.264   0.118   5.069 -0.8374 -2.0147  1.7255
  354MOL0     H47743   4.242   0.035   4.907 -1.3372  0.3535 -0.5461
  354MOL0     H47744   4.277  -0.098   5.183  0.7829  0.7453 -0.4088
  354MOL0     H47745   4.120  -0.062   5.120 -1.2520 -0.1261 -0.7116
  354MOL0     H47746   4.322  -0.249   5.004  0.4605  1.3912  1.0665
  354MOL0     H47747   4.155  -0.233   4.931 -1.3333 -3.1832  0.8663
  354MOL0     H47748   4.042  -0.321   5.111  0.2249 -0.8959 -0.1569
  354MOL0     H47749   4.185  -0.317   5.209  0.5303 -0.3359 -0.4424
  354MOL0     H47750   4.387  -0.410   5.231  2.1274 -1.2758  1.6003
  354MOL0     H47751   4.615  -0.513   5.239  0.1480  0.0368  0.7842
  354MOL0     H47752   5.002  -0.619   5.000 -1.7230 -0.9360  0.4431
  354MOL0     H47753   5.231  -0.677   5.035  1.0370 -0.9712  0.4018
  354MOL0     H47754   5.264  -0.798   5.424  0.3277 -5.3946  4.1555
  354MOL0     H47755   5.353  -0.948   5.402  3.2781  0.4935 -0.2986
  354MOL0     H47756   5.487  -0.766   5.496  1.1465 -2.1425  0.4293
  354MOL0     H47757   5.545  -0.800   5.326 -3.3139 -1.4719 -2.3766
  354MOL0     H47758   5.384  -0.612   5.257 -0.2624  0.3685  0.1618
  354MOL0     H47759   5.371  -0.573   5.424 -1.3511 -0.1985 -1.5270
  354MOL0     H47760   5.646  -0.585   5.278  0.7191  0.1081  0.7206
  354MOL0     H47761   5.600  -0.525   5.448 -1.3715 -2.4792  0.5798
  354MOL0     H47762   5.468  -0.364   5.364  0.7727 -3.2272  2.0194
  354MOL0     H47763   5.507  -0.389   5.192 -0.7281  3.8321 -0.1391
  354MOL0     H47764   5.639  -0.217   5.270  3.4304  0.4772  0.3266
  354MOL0     H47765   5.692  -0.305   5.408  1.2949  3.5615 -1.5695
  354MOL0     H47766   5.832  -0.460   5.258 -0.3465  1.0626  2.1473
  354MOL0     H47767   5.870  -0.297   5.231  0.4150 -0.3722  0.7482
  354MOL0     H47768   5.661  -0.439   5.047  0.1897 -0.2898  0.2764
  354MOL0     H47769   5.718  -0.284   5.030 -0.2223 -1.7734 -2.5437
  354MOL0     H47770   5.101  -0.935   5.355  1.6057  0.1966  0.2273
  354MOL0     H47771   4.860  -0.862   5.317 -0.9094  2.0517  1.3170
  354MOL0     H47772   4.475  -0.806   4.951  0.3152  0.1535  0.5318
  354MOL0     H47773   4.259  -0.668   4.922  0.2279  0.8558 -1.5446
  354MOL0     H47774   4.948   0.393   6.083 -0.3647  0.1148  0.4814
  354MOL0     H47775   4.949   0.498   6.324  0.9246  1.8190  1.1594
  354MOL0     H47776   5.256   0.699   6.725 -1.0461 -0.8238 -1.6794
  354MOL0     H47777   5.175   0.760   6.947 -1.0262 -3.0404  1.7402
  354MOL0     H47778   4.820   0.903   7.171  1.5921  0.4094 -0.3252
  354MOL0     H47779   4.751   0.871   7.009 -0.0006  3.0699 -3.0218
  354MOL0     H47780   4.839   1.072   6.922  0.3975 -0.0052  0.0922
  354MOL0     H47781   4.893   1.129   7.068  1.1859 -1.2960  0.4835
  354MOL0     H47782   4.598   1.032   7.054 -0.6743  0.4088  3.5714
  354MOL0     H47783   4.638   1.174   6.957 -0.6655  0.0978  0.1553
  354MOL0     H47784   4.720   1.285   7.153  0.2712 -1.4689 -5.2771
  354MOL0     H47785   4.549   1.241   7.179 -0.1255 -1.3660 -0.4632
  354MOL0     H47786   4.753   0.993   7.464  0.7811  0.2294 -0.2985
  354MOL0     H47787   4.800   0.894   6.793  0.2262  1.1209  1.4059
  354MOL0     H47788   4.722   0.833   6.601 -0.0245 -2.6609  1.3556
  354MOL0     H47789   4.845   0.904   6.502  0.9752 -1.4155 -0.6272
  354MOL0     H47790   4.800   0.729   6.485 -1.5969  0.2528 -0.6696
  355MOL0     O47791  11.415   5.983   1.083  0.2576  0.5323  0.3924
  355MOL0     C47792  11.517   5.942   1.139 -0.0466  0.3580 -0.2587
  355MOL0     O47793  11.581   5.816   1.112  0.1106  0.1084 -0.7217
  355MOL0     C47794  11.550   5.712   1.018  0.1416 -0.0566  1.2718
  355MOL0     C47795  11.610   5.582   1.010  0.8329  0.6697 -0.2799
  355MOL0     C47796  11.573   5.478   0.912  0.2541  0.2187  0.9273
  355MOL0     C47797  11.483   5.510   0.814  0.1050  0.7170 -0.0646
  355MOL0     O47798  11.442   5.434   0.707  0.8024 -0.5827 -0.3624
  355MOL0     C47799  11.489   5.299   0.717  0.5855 -0.9520 -0.1932
  355MOL0     C47800  11.437   5.215   0.838  0.3961  0.3138 -1.0972
  355MOL0     C47801  11.489   5.069   0.845 -0.9768  0.6985  0.2151
  355MOL0     C47802  11.476   4.985   0.719 -0.0130  0.1101 -1.3133
  355MOL0     C47803  11.335   4.993   0.664 -0.0568  0.6267  0.3630
  355MOL0     C47804  11.291   4.882   0.564 -0.2536 -0.1258  0.6556
  355MOL0     C47805  11.151   4.910   0.523 -0.3997 -0.2434  0.6484
  355MOL0     C47806  11.051   4.874   0.621  0.6539  0.7882 -0.1584
  355MOL0     N47807  10.918   4.907   0.577 -0.1912  0.0879  0.3237
  355MOL0     C47808  10.871   4.932   0.447 -0.4540  0.1768 -0.2010
  355MOL0     C47809  10.734   4.924   0.453 -0.0789  0.0221  0.0581
  355MOL0     C47810  10.651   4.948   0.339  1.0896 -0.3690 -0.3133
  355MOL0     C47811  10.624   5.100   0.317 -0.9732  1.1488  0.3534
  355MOL0     C47812  10.561   5.160   0.441 -1.2458 -1.3421  0.5270
  355MOL0     C47813  10.491   5.300   0.402  0.2767 -0.1853  0.2722
  355MOL0     O47814  10.371   5.274   0.328 -0.3877  0.1882 -0.0093
  355MOL0     C47815  10.284   5.380   0.291 -0.1211  0.4302 -0.4666
  355MOL0     C47816  10.188   5.365   0.191  0.2061  0.0370  0.0443
  355MOL0     C47817  10.100   5.472   0.167 -1.0973 -0.4499 -0.2911
  355MOL0     C47818  10.109   5.597   0.230  0.8336 -0.0194  0.3823
  355MOL0     C47819  10.020   5.699   0.196  0.8919 -0.5897  0.6189
  355MOL0     O47820   9.985   5.696   0.059 -0.7891  0.4220  0.4138
  355MOL0     C47821   9.923   5.804   0.008  0.6348  0.3954 -0.3355
  355MOL0     C47822   9.971   5.862  -0.105  1.3041 -0.6061  0.5991
  355MOL0     C47823   9.901   5.967  -0.170 -0.6067 -0.6347 -0.2038
  355MOL0     C47824   9.774   6.000  -0.118 -0.3568 -0.1535  0.7125
  355MOL0     O47825   9.700   6.090  -0.173 -0.4411 -0.2395  0.4019
  355MOL0     C47826   9.681   6.209  -0.103 -0.6947 -0.2381  0.3554
  355MOL0     C47827   9.679   6.327  -0.201  0.0345  0.1066 -0.8270
  355MOL0     C47828   9.562   6.317  -0.293 -0.7521  0.4954  0.3468
  355MOL0     C47829   9.593   6.435  -0.397 -0.2440 -0.3492  1.0781
  355MOL0     C47830   9.494   6.442  -0.510  0.1047  0.0561  0.7514
  355MOL0     C47831   9.502   6.580  -0.585 -0.8730 -0.1153  0.4602
  355MOL0     C47832   9.456   6.706  -0.508 -0.6539 -0.1277  0.0487
  355MOL0     C47833   9.431   6.823  -0.607 -0.1099  0.3791 -0.3163
  355MOL0    Cl47834   9.426   6.975  -0.502  0.1045  0.0993 -0.2181
  355MOL0     C47835   9.727   5.937  -0.005  0.5180  0.0903 -0.6805
  355MOL0     C47836   9.806   5.845   0.069 -0.1624  0.0782  0.0887
  355MOL0     O47837   9.979   5.786   0.276  0.3597 -0.5944  0.2605
  355MOL0     C47838  10.202   5.608   0.330 -0.2899  0.3816  0.5227
  355MOL0     C47839  10.283   5.500   0.366 -0.0598 -0.7103 -0.1024
  355MOL0     N47840  10.704   4.923   0.588  0.1886  0.4071 -0.7284
  355MOL0     N47841  10.806   4.901   0.656  0.1215 -0.4874 -0.1882
  355MOL0     C47842  11.446   5.642   0.809  0.4718  0.0890  0.1846
  355MOL0     C47843  11.468   5.739   0.906  0.2763 -0.5001  0.3658
  355MOL0     C47844  11.570   6.029   1.244 -0.0119  0.8356 -0.2497
  355MOL0     C47845  11.678   5.966   1.316  0.5487 -0.9854  0.4691
  355MOL0     C47846  11.736   6.021   1.431  0.1079 -0.1613 -0.5387
  355MOL0     C47847  11.671   6.125   1.492 -0.2965 -1.2744 -0.1878
  355MOL0     O47848  11.728   6.181   1.597 -0.7975 -0.2796 -0.1401
  355MOL0     C47849  11.651   6.234   1.695  0.7046 -0.6658  0.3847
  355MOL0     C47850  11.717   6.330   1.782 -0.9615 -0.6212 -0.4153
  355MOL0     C47851  11.614   6.407   1.874 -0.4916 -0.2425 -0.0218
  355MOL0     C47852  11.681   6.510   1.987 -0.5123  1.1076  0.0098
  355MOL0     C47853  11.586   6.579   2.068  0.3492 -0.6322  0.2765
  355MOL0     C47854  11.511   6.626   2.139  0.5963  0.3818  0.7581
  355MOL0     C47855  11.575   6.201   1.413 -0.4851  0.3076  0.6040
  355MOL0     C47856  11.521   6.153   1.293  0.2024  0.2248 -0.5811
  355MOL0     C47857  11.442   6.242   1.212  0.2019  0.2527 -1.0364
  355MOL0     H47858  11.683   5.557   1.087 -1.7663 -1.5409  1.6603
  355MOL0     H47859  11.638   5.391   0.927  0.6554  0.4163  0.3555
  355MOL0     H47860  11.460   5.244   0.627 -1.2928  0.1608 -0.3092
  355MOL0     H47861  11.598   5.298   0.714  0.6703 -4.4834 -0.0415
  355MOL0     H47862  11.328   5.205   0.841  0.3931  0.5730  0.4007
  355MOL0     H47863  11.459   5.260   0.935  1.3649  0.1304 -1.2194
  355MOL0     H47864  11.441   5.011   0.924 -0.2198  1.9144  1.6269
  355MOL0     H47865  11.597   5.071   0.864 -0.9415  2.0890 -0.0082
  355MOL0     H47866  11.548   5.039   0.656 -0.5111  0.4835 -1.5679
  355MOL0     H47867  11.512   4.882   0.728  0.8649  0.5101  0.0531
  355MOL0     H47868  11.270   4.985   0.752  1.7279 -2.3763  1.5843
  355MOL0     H47869  11.308   5.089   0.620 -3.5730 -0.0898  0.6905
  355MOL0     H47870  11.358   4.895   0.478 -1.2594 -0.0304 -0.1377
  355MOL0     H47871  11.301   4.784   0.610 -1.3627  0.3503  1.9722
  355MOL0     H47872  11.140   4.848   0.433 -1.5672  1.3691 -0.3925
  355MOL0     H47873  11.136   5.010   0.482 -1.2584 -0.6489 -0.0759
  355MOL0     H47874  11.044   4.765   0.629 -0.5593  0.9455  1.1950
  355MOL0     H47875  11.077   4.912   0.720  0.8847  2.4740 -0.8325
  355MOL0     H47876  10.925   4.944   0.354  0.8741 -0.3666  0.4883
  355MOL0     H47877  10.673   4.900   0.243  2.6376  3.1651 -1.9229
  355MOL0     H47878  10.553   4.911   0.372  0.8035  0.5733 -0.0744
  355MOL0     H47879  10.719   5.148   0.291 -0.3276 -0.9160 -1.2618
  355MOL0     H47880  10.563   5.101   0.227 -1.8004 -0.5072  0.8503
  355MOL0     H47881  10.636   5.172   0.519 -0.0968  0.7393 -0.8213
  355MOL0     H47882  10.482   5.093   0.477 -1.1733 -1.3954  0.5877
  355MOL0     H47883  10.550   5.379   0.356 -2.5315  2.7754  1.4325
  355MOL0     H47884  10.458   5.336   0.500 -0.5671  2.6549 -0.9729
  355MOL0     H47885  10.161   5.273   0.141  0.4886  0.4148 -0.8211
  355MOL0     H47886  10.033   5.451   0.084  0.1796  1.1695 -1.8234
  355MOL0     H47887  10.059   5.815  -0.146 -0.1339 -1.9740 -1.1023
  355MOL0     H47888   9.942   6.031  -0.247  0.3552  0.4111  1.1413
  355MOL0     H47889   9.582   6.218  -0.058 -0.7859 -1.5704  0.4665
  355MOL0     H47890   9.757   6.224  -0.026 -1.4567 -0.7510  1.2302
  355MOL0     H47891   9.687   6.418  -0.142 -1.5556 -0.1314 -0.1938
  355MOL0     H47892   9.773   6.317  -0.257  0.0434  0.0847 -0.8082
  355MOL0     H47893   9.542   6.224  -0.346 -1.6503  1.0626 -0.3378
  355MOL0     H47894   9.473   6.339  -0.234 -2.2562 -0.3871 -1.5122
  355MOL0     H47895   9.698   6.422  -0.427 -0.3817  0.6206  0.1121
  355MOL0     H47896   9.578   6.530  -0.344  0.0848  1.2247 -1.4777
  355MOL0     H47897   9.393   6.426  -0.474  0.7398 -0.3234  2.4504
  355MOL0     H47898   9.501   6.359  -0.581 -1.7566  1.7186 -1.5471
  355MOL0     H47899   9.605   6.588  -0.619 -0.5796 -3.9865 -0.0169
  355MOL0     H47900   9.442   6.555  -0.673 -3.4148 -0.5397  2.1880
  355MOL0     H47901   9.532   6.730  -0.433 -0.4753  0.1168 -0.2088
  355MOL0     H47902   9.363   6.686  -0.454 -0.2263 -0.7449  0.5702
  355MOL0     H47903   9.514   6.808  -0.677 -1.6761  0.0320 -2.1742
  355MOL0     H47904   9.341   6.809  -0.667  1.3425 -2.1656 -2.0801
  355MOL0     H47905   9.635   5.966   0.043 -0.4750 -3.1009 -0.4006
  355MOL0     H47906   9.771   5.819   0.169 -2.4593  1.2570 -0.3506
  355MOL0     H47907  10.194   5.695   0.395 -1.8659 -0.8495  2.0817
  355MOL0     H47908  10.348   5.522   0.451  1.1930  3.5495 -1.8817
  355MOL0     H47909  11.372   5.660   0.731  1.6693 -4.0102 -2.2043
  355MOL0     H47910  11.409   5.829   0.898 -2.3103 -2.1802 -0.5787
  355MOL0     H47911  11.700   5.861   1.300 -0.6710 -1.3889  1.2622
  355MOL0     H47912  11.807   5.974   1.498 -1.9434  2.0496  3.6422
  355MOL0     H47913  11.600   6.162   1.759 -1.4752 -0.1936 -0.7317
  355MOL0     H47914  11.567   6.290   1.654  2.5618  1.7800 -0.3215
  355MOL0     H47915  11.787   6.395   1.729  2.0358 -2.2624  1.2241
  355MOL0     H47916  11.789   6.274   1.843 -0.9399 -0.4650 -0.2956
  355MOL0     H47917  11.554   6.336   1.932 -0.5581 -0.5407 -0.4597
  355MOL0     H47918  11.546   6.467   1.813  1.2479  2.0001  0.1011
  355MOL0     H47919  11.762   6.468   2.048 -2.2807 -0.1256  1.6183
  355MOL0     H47920  11.723   6.589   1.924  1.0394 -0.6660 -1.3269
  355MOL0     H47921  11.433   6.670   2.198  0.5754  3.5523 -1.4116
  355MOL0     H47922  11.545   6.300   1.448  2.8983  2.9756 -3.0683
  355MOL0     H47923  11.340   6.205   1.224  0.7381 -0.6286  1.1758
  355MOL0     H47924  11.456   6.346   1.244  1.6496  0.2500 -1.5791
  355MOL0     H47925  11.488   6.233   1.112 -1.7179 -1.7829 -1.8013
  356MOL0     O47926   6.774   7.434   2.920  0.6133  0.9474 -0.6104
  356MOL0     C47927   6.663   7.484   2.927  0.6485  0.8540  0.4370
  356MOL0     O47928   6.544   7.408   2.929 -0.6143 -0.8943 -0.8941
  356MOL0     C47929   6.538   7.272   2.911 -0.2095  0.4149  0.1484
  356MOL0     C47930   6.576   7.176   3.013 -0.5100  0.4366 -0.2984
  356MOL0     C47931   6.577   7.039   2.984 -0.3767  0.9144  0.2124
  356MOL0     C47932   6.535   6.986   2.864  1.0525 -0.1031  0.6035
  356MOL0     O47933   6.523   6.850   2.833 -0.2786  0.3042 -0.1214
  356MOL0     C47934   6.533   6.750   2.939  0.0619 -0.6327 -0.1120
  356MOL0     C47935   6.679   6.713   2.970 -0.8540 -0.7879 -0.8123
  356MOL0     C47936   6.685   6.633   3.093 -0.0791  1.2866 -0.4964
  356MOL0     C47937   6.601   6.688   3.215 -0.1745 -0.3913 -0.1811
  356MOL0     C47938   6.636   6.634   3.356 -0.0024  0.7398  0.2069
  356MOL0     C47939   6.530   6.678   3.459  0.2222  0.2837 -0.3348
  356MOL0     C47940   6.546   6.825   3.498  0.3354  0.9784 -0.0875
  356MOL0     C47941   6.424   6.875   3.571  0.5933  0.0911  0.3437
  356MOL0     N47942   6.445   7.009   3.613 -0.4241  0.0934  0.2900
  356MOL0     C47943   6.538   7.049   3.710 -0.1339  0.8559 -0.2764
  356MOL0     C47944   6.549   7.185   3.702 -0.7571  0.7266 -0.1310
  356MOL0     C47945   6.637   7.268   3.798 -0.6508  0.8277 -0.0149
  356MOL0     C47946   6.773   7.303   3.722 -0.4939  0.1033  0.9555
  356MOL0     C47947   6.749   7.424   3.628  0.3435 -0.3276 -0.2806
  356MOL0     C47948   6.865   7.510   3.604  0.3478 -0.3409  0.3007
  356MOL0     O47949   6.941   7.543   3.717  0.8063  0.0302 -0.0448
  356MOL0     C47950   6.890   7.661   3.778 -1.3692  0.8495  0.7919
  356MOL0     C47951   6.899   7.784   3.716 -0.2693  0.0741  0.8396
  356MOL0     C47952   6.853   7.899   3.780 -0.1993 -0.3953 -0.6369
  356MOL0     C47953   6.790   7.888   3.904  1.1416 -0.0317 -0.2326
  356MOL0     C47954   6.735   8.004   3.976  0.3266 -0.5574 -0.2115
  356MOL0     O47955   6.783   8.129   3.950  0.8410  0.4634 -0.0534
  356MOL0     C47956   6.800   8.203   4.064 -0.7580 -1.0155  0.0721
  356MOL0     C47957   6.916   8.197   4.141 -0.8330  0.5965  0.1803
  356MOL0     C47958   6.931   8.259   4.268  0.5442 -0.6570 -0.4798
  356MOL0     C47959   6.829   8.331   4.327  0.5909 -0.5872  0.7811
  356MOL0     O47960   6.831   8.389   4.450  0.0359  0.5024  0.3882
  356MOL0     C47961   6.840   8.299   4.563 -0.1403 -0.1172 -0.4379
  356MOL0     C47962   6.837   8.369   4.698 -0.0140 -0.8763  0.2659
  356MOL0     C47963   6.866   8.286   4.826 -0.3219 -0.1440  0.6361
  356MOL0     C47964   6.782   8.166   4.845 -0.4653 -0.4044 -0.2322
  356MOL0     C47965   6.786   8.119   4.987  0.0969  0.3849 -0.1450
  356MOL0     C47966   6.713   7.984   4.986 -0.1716  0.4712  0.8139
  356MOL0     C47967   6.662   7.940   5.123  0.0766  0.1472  0.4957
  356MOL0     C47968   6.773   7.941   5.227 -0.0321  0.6144 -0.0273
  356MOL0    Cl47969   6.728   7.859   5.373 -0.2443 -0.3263 -0.1538
  356MOL0     C47970   6.715   8.352   4.244  0.3913  0.2204 -0.4822
  356MOL0     C47971   6.705   8.289   4.120  0.0316 -0.3738  0.3440
  356MOL0     O47972   6.644   7.976   4.052 -0.2228  0.3622 -0.3878
  356MOL0     C47973   6.770   7.751   3.953 -0.0862  0.4504  0.5806
  356MOL0     C47974   6.821   7.646   3.897  0.0634 -0.2546  0.5703
  356MOL0     N47975   6.481   7.227   3.593  0.5816  0.6744 -0.4572
  356MOL0     N47976   6.421   7.124   3.544 -0.3121  0.4586 -0.3272
  356MOL0     C47977   6.485   7.078   2.765  0.3914 -1.1478 -0.5575
  356MOL0     C47978   6.493   7.220   2.786 -0.6157 -0.1408  0.0595
  356MOL0     C47979   6.651   7.631   2.950 -1.1111 -0.2240  0.8882
  356MOL0     C47980   6.529   7.688   2.935  0.2815  0.5074  0.3304
  356MOL0     C47981   6.521   7.831   2.945 -0.4437 -0.4918  0.0328
  356MOL0     C47982   6.635   7.902   2.958 -0.8501 -0.0640  0.2467
  356MOL0     O47983   6.616   8.037   2.957 -0.5316  0.1527  0.9361
  356MOL0     C47984   6.723   8.125   2.938  0.7932 -0.2242  1.2929
  356MOL0     C47985   6.753   8.127   2.798  0.1020  0.1265  0.4970
  356MOL0     C47986   6.853   8.237   2.750  0.0876  0.5047 -0.5674
  356MOL0     C47987   6.858   8.259   2.601  0.6252  0.2472 -0.3347
  356MOL0     C47988   6.946   8.362   2.545 -0.4830 -0.1493 -0.1454
  356MOL0     C47989   7.014   8.438   2.491 -1.1331  0.1793 -0.0287
  356MOL0     C47990   6.757   7.844   2.969 -0.0829 -0.1070 -0.1645
  356MOL0     C47991   6.775   7.708   2.963  1.1184  0.2712  0.0180
  356MOL0     C47992   6.922   7.662   2.943  0.8549 -1.0664  0.4699
  356MOL0     H47993   6.602   7.216   3.111  4.2431 -0.7278 -0.8327
  356MOL0     H47994   6.590   6.962   3.060  4.1160 -0.9643 -2.0316
  356MOL0     H47995   6.474   6.779   3.027  3.4072 -0.6515  2.3123
  356MOL0     H47996   6.498   6.650   2.909 -1.7110 -0.9041  2.4928
  356MOL0     H47997   6.740   6.804   2.970  1.6253 -2.3530 -2.3379
  356MOL0     H47998   6.714   6.662   2.880 -1.6329  3.3538 -3.7657
  356MOL0     H47999   6.787   6.618   3.127 -1.3528 -1.5708  2.5940
  356MOL0     H48000   6.649   6.530   3.084 -0.9534  1.6115 -0.9102
  356MOL0     H48001   6.604   6.797   3.228  0.0145 -0.5102  0.8375
  356MOL0     H48002   6.500   6.653   3.187  0.2662 -0.4221 -1.8688
  356MOL0     H48003   6.634   6.525   3.341  2.3646  0.9411 -2.3663
  356MOL0     H48004   6.736   6.658   3.391 -0.6084  0.0846  2.5701
  356MOL0     H48005   6.426   6.680   3.425  0.0563  4.3561 -0.0302
  356MOL0     H48006   6.538   6.620   3.551 -0.3946  3.4678  1.8740
  356MOL0     H48007   6.577   6.892   3.417  1.8602  2.5465  1.7203
  356MOL0     H48008   6.629   6.822   3.569  1.2197 -2.7871 -1.0270
  356MOL0     H48009   6.339   6.846   3.509  1.6138 -3.2396  0.2747
  356MOL0     H48010   6.409   6.813   3.661 -0.9715 -0.2801 -0.1373
  356MOL0     H48011   6.601   6.986   3.773 -2.1991 -2.0662 -0.9414
  356MOL0     H48012   6.589   7.355   3.843 -0.5315  1.2754 -0.7335
  356MOL0     H48013   6.682   7.204   3.874  3.3121  0.7953 -2.1012
  356MOL0     H48014   6.849   7.332   3.795 -0.1574  1.6823  0.0302
  356MOL0     H48015   6.805   7.213   3.668 -2.6033 -1.1400  1.6532
  356MOL0     H48016   6.671   7.483   3.677  0.5301  1.5327 -2.1047
  356MOL0     H48017   6.717   7.405   3.525  0.1460  0.2702 -0.3334
  356MOL0     H48018   6.835   7.602   3.552  1.5257  0.3696  0.8328
  356MOL0     H48019   6.931   7.452   3.539 -0.1786 -0.8234  0.1940
  356MOL0     H48020   6.930   7.803   3.613 -2.9700 -0.7348 -0.2304
  356MOL0     H48021   6.863   7.994   3.729  1.5377 -0.5051 -0.5615
  356MOL0     H48022   7.010   8.153   4.108 -1.3058 -1.2125  1.1070
  356MOL0     H48023   7.018   8.250   4.332 -0.3001 -0.1153  0.7739
  356MOL0     H48024   6.748   8.239   4.563  0.9975 -2.0140  1.3945
  356MOL0     H48025   6.932   8.241   4.551 -0.7305 -1.5334  1.4216
  356MOL0     H48026   6.907   8.452   4.685  0.1780 -1.2741 -1.5020
  356MOL0     H48027   6.742   8.420   4.720  1.8249  2.3692  1.3509
  356MOL0     H48028   6.972   8.266   4.846  0.1357  3.6447  2.8750
  356MOL0     H48029   6.849   8.354   4.909  3.5785  0.0525  1.4823
  356MOL0     H48030   6.825   8.093   4.774  0.6842 -1.0189  1.0487
  356MOL0     H48031   6.681   8.196   4.818 -0.2008  2.5651  1.6595
  356MOL0     H48032   6.726   8.188   5.048  1.3609  0.3369  1.2041
  356MOL0     H48033   6.884   8.098   5.030 -0.5701 -0.9253  0.8144
  356MOL0     H48034   6.624   7.981   4.923 -2.0364  3.9747  2.9907
  356MOL0     H48035   6.796   7.922   4.949 -2.4714 -0.9720 -2.3879
  356MOL0     H48036   6.639   7.833   5.112  1.2350 -0.0675  0.0219
  356MOL0     H48037   6.577   8.004   5.147  0.0340  0.8773 -1.4203
  356MOL0     H48038   6.862   7.896   5.182 -0.2180  2.5573 -2.4987
  356MOL0     H48039   6.809   8.040   5.254  3.2623  0.0331 -1.7499
  356MOL0     H48040   6.619   8.389   4.277  0.3082 -0.1482 -0.3074
  356MOL0     H48041   6.610   8.305   4.070  0.6147  2.1760 -0.0487
  356MOL0     H48042   6.736   7.738   4.055  1.4153  2.4679  1.4199
  356MOL0     H48043   6.817   7.546   3.939 -0.8465 -0.2830  0.4264
  356MOL0     H48044   6.446   7.034   2.675 -4.1197  0.8999  0.0976
  356MOL0     H48045   6.465   7.286   2.705 -0.5387 -1.9764 -1.5516
  356MOL0     H48046   6.437   7.632   2.922  1.2129 -1.1386  0.6597
  356MOL0     H48047   6.431   7.878   2.905  0.4220 -0.4688 -2.0021
  356MOL0     H48048   6.812   8.100   2.995 -0.9769 -2.8633  3.1161
  356MOL0     H48049   6.696   8.227   2.968  3.3053  0.5176  1.2077
  356MOL0     H48050   6.659   8.124   2.743 -0.1077  1.4591  0.7504
  356MOL0     H48051   6.801   8.032   2.770 -0.3112 -0.5803  2.0704
  356MOL0     H48052   6.955   8.219   2.786 -1.4509  1.5043  5.5538
  356MOL0     H48053   6.815   8.328   2.798 -2.3890  0.3008 -1.9798
  356MOL0     H48054   6.888   8.170   2.546  0.1169 -0.0068 -0.2120
  356MOL0     H48055   6.761   8.295   2.564  1.9615  3.3679 -1.1549
  356MOL0     H48056   7.086   8.490   2.431 -1.9310  1.0780 -0.2448
  356MOL0     H48057   6.846   7.905   2.982  1.3233 -2.1076  0.0532
  356MOL0     H48058   6.945   7.583   3.015  1.8591 -0.0223  1.3386
  356MOL0     H48059   6.938   7.623   2.841  2.5974 -0.4442  0.4785
  356MOL0     H48060   6.991   7.741   2.972 -2.2679  1.1397  2.4698
  357MOL0     O48061  11.322   8.818   3.420 -0.4736  0.2341  0.1703
  357MOL0     C48062  11.388   8.711   3.439  0.6359 -0.7502  0.1494
  357MOL0     O48063  11.369   8.594   3.368 -0.1470 -0.1574 -1.6366
  357MOL0     C48064  11.265   8.585   3.283  0.6023  0.3720 -0.4578
  357MOL0     C48065  11.127   8.619   3.321 -0.6445  0.2512  0.1434
  357MOL0     C48066  11.020   8.616   3.234 -0.0254 -0.0340  1.2905
  357MOL0     C48067  11.045   8.565   3.109 -0.1713 -0.4855 -0.1237
  357MOL0     O48068  10.940   8.544   3.021  0.2577  1.0966 -0.4329
  357MOL0     C48069  10.876   8.661   2.964  0.1562  0.2905  0.2593
  357MOL0     C48070  10.752   8.627   2.872 -0.7016 -0.1362  0.3043
  357MOL0     C48071  10.743   8.697   2.738  0.1171 -0.0443 -0.2423
  357MOL0     C48072  10.778   8.843   2.735  0.0754 -0.8109 -1.6927
  357MOL0     C48073  10.751   8.908   2.594 -0.5992 -0.1607 -0.4264
  357MOL0     C48074  10.879   8.929   2.514  0.3631  0.8007  0.1336
  357MOL0     C48075  10.828   9.007   2.385  0.0120 -0.3553  0.2985
  357MOL0     C48076  10.939   9.007   2.283 -0.0435 -0.1669  0.4459
  357MOL0     N48077  11.048   9.083   2.339 -0.2060 -0.5256  0.2565
  357MOL0     C48078  11.171   9.033   2.355  0.2649  0.2766 -0.4628
  357MOL0     C48079  11.240   9.114   2.447  0.0796  0.1928  1.2528
  357MOL0     C48080  11.383   9.086   2.496 -0.2455  1.4359  1.0501
  357MOL0     C48081  11.438   9.132   2.630  1.3654 -0.8206 -0.4931
  357MOL0     C48082  11.588   9.118   2.657 -0.4688 -0.5582  1.0730
  357MOL0     C48083  11.620   8.971   2.664  0.1563  0.6986 -0.8600
  357MOL0     O48084  11.748   8.954   2.727  0.8404  0.1445 -0.1238
  357MOL0     C48085  11.872   8.980   2.672 -0.0385 -0.5630  0.0302
  357MOL0     C48086  11.898   9.001   2.537 -0.0340 -0.0005  0.8024
  357MOL0     C48087  12.033   8.999   2.487 -0.2834  0.2471 -0.0957
  357MOL0     C48088  12.141   8.988   2.572 -0.0291 -0.2148 -0.8383
  357MOL0     C48089  12.277   8.999   2.520 -0.0086  0.0577  0.1270
  357MOL0     O48090  12.294   9.031   2.383 -0.7973  0.3277 -0.9177
  357MOL0     C48091  12.419   9.040   2.324  0.3738  0.2844  0.3705
  357MOL0     C48092  12.425   8.999   2.187  0.0151 -0.2977  0.1749
  357MOL0     C48093  12.551   9.016   2.117 -0.4670 -0.2957 -0.6904
  357MOL0     C48094  12.667   9.059   2.189 -0.4105  0.7560 -0.1515
  357MOL0     O48095  12.782   9.055   2.104  0.1659 -0.2782 -0.8493
  357MOL0     C48096  12.907   9.082   2.151  0.1754  0.3870  0.6743
  357MOL0     C48097  13.019   9.056   2.042  0.4909 -0.2321  0.3424
  357MOL0     C48098  13.161   9.093   2.080  1.0283  0.7919  0.4258
  357MOL0     C48099  13.247   9.101   1.949  0.2383 -0.1263  0.0396
  357MOL0     C48100  13.270   8.965   1.881 -0.0501  0.4410  0.0820
  357MOL0     C48101  13.414   8.972   1.809  0.3524  0.5862 -0.1465
  357MOL0     C48102  13.449   9.101   1.729  0.0408 -0.0166 -0.1497
  357MOL0     C48103  13.569   9.078   1.640 -0.1211  0.8820 -0.5081
  357MOL0    Cl48104  13.566   9.187   1.500 -0.2708  0.3561 -0.5074
  357MOL0     C48105  12.655   9.089   2.329  0.4938  1.2460  0.5181
  357MOL0     C48106  12.535   9.079   2.392 -0.0516  0.2845  0.0311
  357MOL0     O48107  12.362   8.983   2.605 -1.0019 -0.6256  0.3151
  357MOL0     C48108  12.109   8.947   2.701  0.6892 -0.1536 -0.5952
  357MOL0     C48109  11.985   8.946   2.751 -0.5585  0.0959  0.6717
  357MOL0     N48110  11.151   9.218   2.473 -0.5447 -0.2113  1.2852
  357MOL0     N48111  11.035   9.201   2.414  0.7028 -0.2237  0.0496
  357MOL0     C48112  11.174   8.507   3.082  0.9206 -0.8565 -0.4890
  357MOL0     C48113  11.285   8.526   3.158  0.2969  0.8128 -0.2404
  357MOL0     C48114  11.496   8.704   3.551 -0.6047 -0.0036  0.3625
  357MOL0     C48115  11.505   8.592   3.644 -0.8816 -0.1610  0.2939
  357MOL0     C48116  11.601   8.594   3.747  0.8073  0.6699 -0.3146
  357MOL0     C48117  11.698   8.688   3.751 -0.7110 -0.6345 -0.1295
  357MOL0     O48118  11.808   8.671   3.828 -0.0162  0.6009  0.1250
  357MOL0     C48119  11.841   8.549   3.902  0.7783 -0.4687  0.3970
  357MOL0     C48120  11.909   8.446   3.817  0.4467  0.3181  1.1489
  357MOL0     C48121  12.048   8.509   3.783 -0.7170 -0.5279  0.0935
  357MOL0     C48122  12.118   8.396   3.701  0.0928 -0.0526  0.5035
  357MOL0     C48123  12.270   8.401   3.704 -0.2147 -0.0434 -0.2430
  357MOL0     C48124  12.393   8.409   3.715 -0.5143 -0.4330 -1.5082
  357MOL0     C48125  11.701   8.799   3.666  0.2984 -0.5724  0.7682
  357MOL0     C48126  11.594   8.807   3.576  0.6762 -0.1985  1.1602
  357MOL0     C48127  11.587   8.935   3.491 -0.3689 -0.1632  0.2949
  357MOL0     H48128  11.103   8.669   3.414  2.5297  2.1161  0.0756
  357MOL0     H48129  10.916   8.634   3.262 -0.5011 -0.1004 -0.2768
  357MOL0     H48130  10.841   8.722   3.048 -1.4517 -0.0323 -0.1527
  357MOL0     H48131  10.931   8.731   2.900 -0.5958  0.4848 -0.1851
  357MOL0     H48132  10.666   8.656   2.933 -1.2871  0.0196 -0.5785
  357MOL0     H48133  10.756   8.519   2.855  2.7356 -0.0129 -0.4560
  357MOL0     H48134  10.648   8.679   2.687  0.0489 -2.1360  0.5275
  357MOL0     H48135  10.810   8.648   2.667 -3.3318  0.0053 -3.9002
  357MOL0     H48136  10.716   8.885   2.815  2.2941 -0.3494 -0.1054
  357MOL0     H48137  10.882   8.866   2.760  0.0164 -1.5884 -0.6753
  357MOL0     H48138  10.696   8.841   2.527 -0.0313 -0.5553 -0.5076
  357MOL0     H48139  10.699   9.002   2.614 -1.4686 -0.8349  0.5796
  357MOL0     H48140  10.961   8.974   2.570  2.4718 -2.4531 -0.0275
  357MOL0     H48141  10.904   8.829   2.476 -0.6932  1.4817 -2.6318
  357MOL0     H48142  10.804   9.107   2.423  0.2006  0.4393 -1.5730
  357MOL0     H48143  10.732   8.977   2.341  1.0899  0.9393 -3.2196
  357MOL0     H48144  10.969   8.908   2.248 -0.7404 -0.8408  1.6499
  357MOL0     H48145  10.920   9.062   2.191  1.1625 -1.3481 -0.5509
  357MOL0     H48146  11.197   8.935   2.315 -0.7014 -0.1323 -0.1291
  357MOL0     H48147  11.400   8.978   2.491  2.6452  1.7304  2.3738
  357MOL0     H48148  11.453   9.125   2.421  1.1348  0.3278  1.7025
  357MOL0     H48149  11.414   9.237   2.645 -0.1693 -1.5630  3.9987
  357MOL0     H48150  11.369   9.081   2.699  0.8321  1.5218  0.8047
  357MOL0     H48151  11.608   9.165   2.754  0.5666 -0.2996  0.7477
  357MOL0     H48152  11.650   9.159   2.576 -0.2592 -2.8301  0.0073
  357MOL0     H48153  11.613   8.913   2.571 -0.2343  1.4657 -1.3173
  357MOL0     H48154  11.546   8.929   2.733  1.9658 -0.2806  0.5773
  357MOL0     H48155  11.813   9.014   2.471 -0.6966 -0.4377  1.5487
  357MOL0     H48156  12.042   9.034   2.385  0.5504  2.0658  0.5555
  357MOL0     H48157  12.339   8.945   2.149  0.5715 -2.3144  1.6448
  357MOL0     H48158  12.572   8.975   2.019  1.9051  3.2591 -1.8387
  357MOL0     H48159  12.905   9.187   2.182 -0.1917  1.0931 -1.5925
  357MOL0     H48160  12.933   9.023   2.239 -0.4376 -1.0565 -0.0800
  357MOL0     H48161  13.014   8.952   2.007 -2.0613 -0.8198  2.0961
  357MOL0     H48162  12.991   9.129   1.966 -4.7308 -2.6167 -0.4881
  357MOL0     H48163  13.163   9.198   2.110 -0.7177  1.4754 -1.6138
  357MOL0     H48164  13.207   9.030   2.157  0.8989 -0.7199 -0.6857
  357MOL0     H48165  13.337   9.156   1.976  0.5074 -0.3025 -0.4932
  357MOL0     H48166  13.196   9.160   1.873 -1.5098 -0.3730  0.9590
  357MOL0     H48167  13.197   8.948   1.802  1.8015 -1.8563 -1.2570
  357MOL0     H48168  13.266   8.877   1.947 -1.4166 -1.1832 -2.0298
  357MOL0     H48169  13.497   8.963   1.880 -2.1090 -2.1243  2.7196
  357MOL0     H48170  13.425   8.882   1.748 -1.8868 -0.2456  0.5582
  357MOL0     H48171  13.480   9.191   1.783 -2.3615  1.0051 -0.3704
  357MOL0     H48172  13.368   9.115   1.658 -1.3155  0.8007  1.4837
  357MOL0     H48173  13.662   9.089   1.697 -1.9982  1.2307  2.7303
  357MOL0     H48174  13.552   8.978   1.598 -0.1743  0.0969  1.2849
  357MOL0     H48175  12.751   9.103   2.378  2.7884 -1.7433 -2.6167
  357MOL0     H48176  12.543   9.094   2.499  1.4642  0.0581 -0.0355
  357MOL0     H48177  12.191   8.909   2.760  1.2181  1.9199  0.0959
  357MOL0     H48178  11.981   8.917   2.855  4.3513  0.9637  1.3808
  357MOL0     H48179  11.197   8.445   2.996  1.9123 -3.0938  1.2744
  357MOL0     H48180  11.371   8.479   3.112 -1.1660 -0.5523 -1.7328
  357MOL0     H48181  11.434   8.511   3.633  3.9142 -4.9668  0.3350
  357MOL0     H48182  11.601   8.513   3.820 -0.6570  2.2524  1.5782
  357MOL0     H48183  11.750   8.505   3.944  1.7570  0.7136  4.0589
  357MOL0     H48184  11.918   8.561   3.978  0.2857 -2.3482  1.2455
  357MOL0     H48185  11.861   8.431   3.720  0.2682 -0.6676  1.3746
  357MOL0     H48186  11.900   8.348   3.866 -1.1241  0.6001  1.4742
  357MOL0     H48187  12.109   8.524   3.872  2.1470 -0.0152 -1.7988
  357MOL0     H48188  12.042   8.600   3.722  1.3161 -0.9595 -0.8414
  357MOL0     H48189  12.086   8.296   3.729 -0.2635 -0.2441 -0.5492
  357MOL0     H48190  12.081   8.414   3.600 -2.0869  1.7371  1.5121
  357MOL0     H48191  12.499   8.417   3.709 -0.2162  1.6692  2.7109
  357MOL0     H48192  11.789   8.860   3.684 -1.2388  1.5293  1.5972
  357MOL0     H48193  11.495   8.986   3.522 -0.0477  0.0051  0.9848
  357MOL0     H48194  11.674   8.998   3.511  1.5957 -2.4865 -0.4245
  357MOL0     H48195  11.581   8.907   3.385  0.1277  2.1777 -0.4134
  358MOL0     O48196   5.123  11.200   6.007 -0.5895 -0.5473 -0.7022
  358MOL0     C48197   5.170  11.282   6.081 -0.1671 -0.9924  0.7595
  358MOL0     O48198   5.300  11.306   6.097  0.2511  0.3429  0.0301
  358MOL0     C48199   5.388  11.251   6.006  0.1416  1.0834 -0.4647
  358MOL0     C48200   5.483  11.158   6.054 -0.2291 -0.8322 -0.5068
  358MOL0     C48201   5.566  11.096   5.966 -0.6477 -0.7583  0.4676
  358MOL0     C48202   5.563  11.121   5.823  0.2225 -0.5233  0.7068
  358MOL0     O48203   5.635  11.044   5.732  0.3215 -0.4948  0.0041
  358MOL0     C48204   5.767  11.079   5.714  0.5876  0.0607 -0.4302
  358MOL0     C48205   5.844  10.958   5.737  0.2964 -1.0967  0.4892
  358MOL0     C48206   5.828  10.854   5.630 -0.5356  0.4395 -0.0050
  358MOL0     C48207   5.937  10.742   5.637 -0.4979  0.6002 -0.0513
  358MOL0     C48208   5.917  10.625   5.538  0.4052  0.8937  0.6317
  358MOL0     C48209   5.807  10.529   5.576 -0.1309 -0.7546 -0.4223
  358MOL0     C48210   5.846  10.431   5.681  0.0473  0.0300 -0.0481
  358MOL0     C48211   5.962  10.333   5.639 -0.3388 -0.3138  0.2267
  358MOL0     N48212   5.922  10.192   5.670 -0.0853 -0.3038 -0.1784
  358MOL0     C48213   5.877  10.096   5.583 -1.0976  1.0939  0.5893
  358MOL0     C48214   5.828   9.989   5.656 -0.7865  0.7726 -0.7903
  358MOL0     C48215   5.760   9.864   5.611 -0.0961  0.1389  0.6522
  358MOL0     C48216   5.658   9.814   5.716  0.2542  0.3521 -0.4109
  358MOL0     C48217   5.722   9.726   5.821 -0.0895  0.4629  0.5516
  358MOL0     C48218   5.624   9.646   5.901 -0.4600 -0.4850  0.6285
  358MOL0     O48219   5.678   9.611   6.026 -0.3481 -0.1203 -0.2894
  358MOL0     C48220   5.760   9.503   6.050 -0.0346  0.6647 -0.3639
  358MOL0     C48221   5.790   9.396   5.977  0.3265  0.9764  0.2904
  358MOL0     C48222   5.899   9.306   6.015 -0.0631 -0.3157 -0.6850
  358MOL0     C48223   5.966   9.330   6.140 -0.0589  0.8782 -0.0550
  358MOL0     C48224   6.047   9.216   6.196  0.4190 -0.2973 -0.3109
  358MOL0     O48225   6.034   9.099   6.134  1.0875  0.8474 -0.1726
  358MOL0     C48226   6.093   8.980   6.161 -0.5297  0.3133  0.0943
  358MOL0     C48227   6.169   8.946   6.281  0.0639  0.7875  0.5775
  358MOL0     C48228   6.236   8.819   6.292  0.7816 -0.6967 -0.7258
  358MOL0     C48229   6.216   8.731   6.190  0.4200  0.2734  0.2754
  358MOL0     O48230   6.284   8.612   6.202  0.1133  0.6058  0.1830
  358MOL0     C48231   6.247   8.503   6.125  0.5760 -0.1631 -0.3841
  358MOL0     C48232   6.298   8.379   6.200  0.7395  0.7526  0.0301
  358MOL0     C48233   6.244   8.362   6.340 -0.4257  0.4089 -0.2947
  358MOL0     C48234   6.356   8.332   6.445 -0.0047  1.3350  0.1714
  358MOL0     C48235   6.442   8.461   6.479  0.4694 -0.3668 -0.1519
  358MOL0     C48236   6.565   8.435   6.562 -0.4793 -0.3970 -0.4312
  358MOL0     C48237   6.653   8.560   6.582 -1.1961  0.2598 -0.1369
  358MOL0     C48238   6.580   8.667   6.667  0.4145  0.5697 -0.3549
  358MOL0    Cl48239   6.521   8.590   6.817  0.0219 -0.2890 -0.4890
  358MOL0     C48240   6.148   8.762   6.075 -0.2376 -0.4367 -0.0121
  358MOL0     C48241   6.081   8.882   6.058 -0.6057  0.6650  0.2924
  358MOL0     O48242   6.114   9.243   6.295 -0.6549 -0.5554  0.2015
  358MOL0     C48243   5.935   9.452   6.209  0.3337  1.7546  0.6695
  358MOL0     C48244   5.830   9.530   6.169  0.4589  0.4572 -0.3591
  358MOL0     N48245   5.855  10.026   5.786 -0.5350  0.2248  0.2728
  358MOL0     N48246   5.904  10.145   5.798 -1.3719  0.3699 -0.9294
  358MOL0     C48247   5.458  11.198   5.772  0.2324  0.3667 -0.3427
  358MOL0     C48248   5.381  11.265   5.859  0.1090 -0.6634 -0.2922
  358MOL0     C48249   5.090  11.386   6.154  0.8647  0.0437 -0.1131
  358MOL0     C48250   5.067  11.369   6.300 -0.6465  1.1805 -0.5702
  358MOL0     C48251   4.999  11.463   6.371  0.9986 -0.0407  0.4304
  358MOL0     C48252   4.968  11.585   6.301  0.7856 -0.4327 -0.6260
  358MOL0     O48253   4.896  11.687   6.366 -0.1907  0.3020 -0.2658
  358MOL0     C48254   4.802  11.652   6.471  0.6320 -0.8085 -0.1716
  358MOL0     C48255   4.662  11.668   6.420  0.1835 -0.2844 -0.0951
  358MOL0     C48256   4.638  11.610   6.282 -0.8533 -0.9588  0.0002
  358MOL0     C48257   4.479  11.593   6.249 -0.5318  0.1427 -0.1673
  358MOL0     C48258   4.469  11.537   6.109 -0.0432  0.3136 -0.5774
  358MOL0     C48259   4.452  11.512   5.992  0.0647 -0.1344 -0.6545
  358MOL0     C48260   4.969  11.592   6.163 -0.0724 -0.7916  0.0524
  358MOL0     C48261   5.033  11.493   6.085  0.1550 -0.4806 -0.3697
  358MOL0     C48262   5.033  11.504   5.937  0.5874 -0.0109 -0.3484
  358MOL0     H48263   5.497  11.137   6.159  0.3715  0.2366 -0.3565
  358MOL0     H48264   5.634  11.029   6.017  0.6904  1.3713  1.6593
  358MOL0     H48265   5.783  11.121   5.614  0.3055  3.2371  0.7372
  358MOL0     H48266   5.806  11.152   5.785  0.7171 -2.0870  1.8364
  358MOL0     H48267   5.826  10.908   5.832 -1.5113 -1.2141  0.1154
  358MOL0     H48268   5.945  11.001   5.737 -0.5264  0.9626  0.6024
  358MOL0     H48269   5.857  10.898   5.534  1.8383 -1.0729 -0.0450
  358MOL0     H48270   5.725  10.815   5.621  1.1388 -5.1367  0.9616
  358MOL0     H48271   6.032  10.791   5.617 -1.2523  1.7463 -0.9642
  358MOL0     H48272   5.963  10.714   5.739  1.2237  1.7618 -0.1340
  358MOL0     H48273   5.892  10.659   5.437  1.1991  4.4416  1.5105
  358MOL0     H48274   6.014  10.574   5.526  1.5159  2.5501  2.0730
  358MOL0     H48275   5.715  10.580   5.605  0.2926 -1.0816  1.6167
  358MOL0     H48276   5.775  10.481   5.483  3.0417 -0.7111 -1.6524
  358MOL0     H48277   5.756  10.379   5.714 -2.0154  2.5493 -1.2962
  358MOL0     H48278   5.882  10.487   5.768 -0.6069  1.2028 -0.5085
  358MOL0     H48279   5.986  10.338   5.532 -0.7237  0.2010  0.1654
  358MOL0     H48280   6.059  10.360   5.681  0.1681 -1.0769 -0.4272
  358MOL0     H48281   5.876  10.091   5.475  1.0660  0.9210  0.5358
  358MOL0     H48282   5.710   9.895   5.519 -0.4975  0.0976  0.8521
  358MOL0     H48283   5.829   9.783   5.587  3.1509  2.9313 -0.2031
  358MOL0     H48284   5.614   9.897   5.772 -0.6627 -1.1582  1.2482
  358MOL0     H48285   5.579   9.751   5.674 -0.7214  0.0522  1.7346
  358MOL0     H48286   5.773   9.792   5.891  0.3385 -0.5629  1.2222
  358MOL0     H48287   5.790   9.655   5.774 -3.2693 -0.8440 -2.5490
  358MOL0     H48288   5.596   9.572   5.825 -0.0558  1.8160 -1.9206
  358MOL0     H48289   5.544   9.716   5.926  0.9033  1.4194 -0.1617
  358MOL0     H48290   5.722   9.372   5.897  0.5489  0.8899  0.1272
  358MOL0     H48291   5.923   9.219   5.953 -0.4407  0.8536 -2.5568
  358MOL0     H48292   6.183   9.015   6.364  2.2793  2.6114 -1.1723
  358MOL0     H48293   6.304   8.801   6.374  0.4367  0.1890 -0.2371
  358MOL0     H48294   6.140   8.500   6.103  0.2710 -1.4194  1.1369
  358MOL0     H48295   6.290   8.503   6.024  2.7342 -3.3916  0.4047
  358MOL0     H48296   6.278   8.288   6.142 -1.1928  3.1007 -3.3317
  358MOL0     H48297   6.406   8.391   6.199  0.6693  1.4079 -1.3596
  358MOL0     H48298   6.194   8.454   6.373 -2.9272 -0.9862  0.0414
  358MOL0     H48299   6.165   8.287   6.335 -1.4357  1.1437  2.5043
  358MOL0     H48300   6.415   8.252   6.399 -1.5323  0.3072 -0.1095
  358MOL0     H48301   6.312   8.306   6.542  0.7609  3.3586  1.1014
  358MOL0     H48302   6.383   8.536   6.533  1.1097  0.9611 -1.2345
  358MOL0     H48303   6.469   8.502   6.381  2.1902  1.5300  1.0555
  358MOL0     H48304   6.536   8.393   6.659  0.3275  2.4265  1.1691
  358MOL0     H48305   6.624   8.359   6.510 -0.9193  0.3805 -2.1310
  358MOL0     H48306   6.680   8.612   6.489  1.2418 -2.0765 -0.8472
  358MOL0     H48307   6.748   8.536   6.631 -1.8126  2.1979  2.2120
  358MOL0     H48308   6.642   8.747   6.708  1.3474 -0.3449  0.0593
  358MOL0     H48309   6.505   8.722   6.609  0.6845  4.0359  2.2374
  358MOL0     H48310   6.148   8.707   5.982  1.0154 -0.3876 -0.0555
  358MOL0     H48311   6.046   8.911   5.959 -1.4617 -1.0577  0.0645
  358MOL0     H48312   5.993   9.465   6.299  4.9292  0.5048 -1.8071
  358MOL0     H48313   5.794   9.612   6.229 -0.5525  0.9221 -1.5579
  358MOL0     H48314   5.450  11.208   5.664 -3.7737 -1.7864 -0.4379
  358MOL0     H48315   5.319  11.339   5.809  2.5763  0.4000 -1.9403
  358MOL0     H48316   5.112  11.287   6.353  1.0926  4.9205  4.4455
  358MOL0     H48317   4.987  11.434   6.474  2.5225  0.6099  0.8244
  358MOL0     H48318   4.813  11.727   6.550 -0.7257  0.8796 -1.5085
  358MOL0     H48319   4.823  11.555   6.517 -0.5066 -0.5284  1.0024
  358MOL0     H48320   4.627  11.772   6.420 -5.0403 -1.6852 -2.4008
  358MOL0     H48321   4.598  11.623   6.496  0.7833  3.4968  2.9627
  358MOL0     H48322   4.688  11.513   6.275 -0.3179 -0.8048  1.3859
  358MOL0     H48323   4.687  11.669   6.204  0.7994  2.1263  3.1155
  358MOL0     H48324   4.435  11.522   6.320  2.6980 -2.5875 -0.6337
  358MOL0     H48325   4.433  11.692   6.245  3.4229  2.3669  2.1300
  358MOL0     H48326   4.442  11.475   5.892 -0.5040  3.3241 -2.0100
  358MOL0     H48327   4.923  11.679   6.117 -1.9931 -1.7850  0.0333
  358MOL0     H48328   5.006  11.407   5.893  2.5795 -2.0511  2.5213
  358MOL0     H48329   4.962  11.579   5.901  3.6448  2.9184 -0.7772
  358MOL0     H48330   5.133  11.526   5.900  1.4610 -4.2908 -1.0632
  359MOL0     O48331   9.087   0.674   4.738  0.9591 -0.1769 -0.8083
  359MOL0     C48332   9.158   0.751   4.803 -0.7748 -0.6400  0.1900
  359MOL0     O48333   9.146   0.889   4.806 -0.6339 -1.0250  0.6938
  359MOL0     C48334   9.028   0.940   4.749 -0.0627 -0.6200  0.0375
  359MOL0     C48335   8.929   1.000   4.833 -0.7699  0.3800  0.3087
  359MOL0     C48336   8.810   1.047   4.768 -0.3193  0.0298  0.1780
  359MOL0     C48337   8.781   1.036   4.631  0.1538 -0.0180  0.3800
  359MOL0     O48338   8.667   1.073   4.563 -0.0291  1.3970  0.6043
  359MOL0     C48339   8.548   1.108   4.645 -0.7287  0.1516  0.0002
  359MOL0     C48340   8.430   1.123   4.544 -0.3652  0.7762 -0.3661
  359MOL0     C48341   8.303   1.088   4.619 -0.2302  0.5026 -0.7728
  359MOL0     C48342   8.266   1.219   4.687 -0.6532  0.9281 -0.2240
  359MOL0     C48343   8.157   1.194   4.800  0.7248 -0.5308 -0.4177
  359MOL0     C48344   8.019   1.252   4.780  0.2234 -0.1491  0.0061
  359MOL0     C48345   7.924   1.214   4.896 -0.1126 -1.5140 -0.2780
  359MOL0     C48346   7.885   1.330   4.994 -0.6059  0.3980  0.4517
  359MOL0     N48347   7.880   1.267   5.122 -0.1581 -1.1896  0.4802
  359MOL0     C48348   7.781   1.200   5.182  1.0409 -0.3451 -0.3006
  359MOL0     C48349   7.833   1.140   5.293 -0.2497  0.0361 -0.2238
  359MOL0     C48350   7.764   1.054   5.389  0.3548  0.1438 -0.2022
  359MOL0     C48351   7.739   0.906   5.338  0.5224 -1.4204  0.6231
  359MOL0     C48352   7.848   0.812   5.380  0.1283 -0.2268 -0.3901
  359MOL0     C48353   7.819   0.668   5.340 -0.8131  0.4315 -0.7017
  359MOL0     O48354   7.948   0.598   5.320 -0.2848  0.7962  0.4659
  359MOL0     C48355   8.014   0.630   5.203  0.0248 -0.9344  1.1409
  359MOL0     C48356   8.123   0.554   5.171  0.0587  0.6939  0.8770
  359MOL0     C48357   8.187   0.573   5.042 -0.8084  0.4276  1.0147
  359MOL0     C48358   8.132   0.660   4.944  0.0340  0.6322 -0.7456
  359MOL0     C48359   8.180   0.666   4.807 -0.8341  0.0941 -0.2397
  359MOL0     O48360   8.312   0.619   4.782 -0.6216  0.0775  1.0456
  359MOL0     C48361   8.353   0.634   4.647  0.2703  0.8159 -0.0583
  359MOL0     C48362   8.440   0.725   4.597  0.1121  0.5034  0.1371
  359MOL0     C48363   8.437   0.742   4.447  0.8758  0.2160 -0.1029
  359MOL0     C48364   8.380   0.647   4.369 -0.1350 -0.0523  0.0267
  359MOL0     O48365   8.390   0.673   4.235  0.1856 -0.1258  0.0816
  359MOL0     C48366   8.392   0.575   4.130  0.2231  0.3339 -1.0874
  359MOL0     C48367   8.376   0.649   3.993  0.4245  0.3770 -0.7512
  359MOL0     C48368   8.406   0.577   3.862 -0.6250 -0.6335  0.3253
  359MOL0     C48369   8.363   0.427   3.850 -0.7064 -0.6289  0.5495
  359MOL0     C48370   8.220   0.413   3.795 -0.1767  0.7332  0.8433
  359MOL0     C48371   8.175   0.266   3.785  0.0789  0.6071 -0.2489
  359MOL0     C48372   8.134   0.221   3.934 -0.6850  0.9178 -0.9491
  359MOL0     C48373   8.074   0.077   3.933  0.7534 -0.4226  0.0983
  359MOL0    Cl48374   8.197  -0.032   3.865  0.3964  0.5260 -0.3952
  359MOL0     C48375   8.298   0.549   4.430  0.9601 -0.2119  0.8816
  359MOL0     C48376   8.289   0.543   4.569  0.5009  0.1136 -0.3521
  359MOL0     O48377   8.114   0.732   4.722 -0.6862  0.5991  0.1445
  359MOL0     C48378   8.018   0.738   4.982 -0.7837 -0.3691  0.0441
  359MOL0     C48379   7.967   0.722   5.107  0.3877  0.3613 -0.0754
  359MOL0     N48380   7.966   1.175   5.308  0.3955  0.1904  0.3039
  359MOL0     N48381   7.994   1.245   5.202  0.7282  0.7606  1.0251
  359MOL0     C48382   8.877   0.966   4.563 -0.7181 -0.1150 -0.3612
  359MOL0     C48383   8.995   0.913   4.619  0.3261  0.4878  0.3306
  359MOL0     C48384   9.275   0.699   4.888  1.0450 -0.4782 -0.8494
  359MOL0     C48385   9.322   0.783   5.000  0.0467 -0.0223  0.4678
  359MOL0     C48386   9.432   0.756   5.079  0.5780  1.1837 -0.0759
  359MOL0     C48387   9.502   0.641   5.048  0.8995  0.9128 -0.0993
  359MOL0     O48388   9.612   0.590   5.112  1.2074  0.9613  0.3335
  359MOL0     C48389   9.642   0.640   5.248 -0.2765 -0.4078 -0.9884
  359MOL0     C48390   9.752   0.569   5.328  0.1589 -0.3075  0.1682
  359MOL0     C48391   9.716   0.426   5.358  0.2972  0.0806  0.1683
  359MOL0     C48392   9.822   0.357   5.452 -0.3413  0.0800 -0.1709
  359MOL0     C48393   9.948   0.321   5.375 -1.2310 -0.7262  0.0214
  359MOL0     C48394  10.049   0.296   5.302  0.9147  0.0514  0.0831
  359MOL0     C48395   9.465   0.557   4.944 -0.6318  0.2518  0.3639
  359MOL0     C48396   9.349   0.584   4.869  0.5089 -0.0685  0.4337
  359MOL0     C48397   9.343   0.496   4.747  0.6361 -1.0244  0.4939
  359MOL0     H48398   8.946   1.005   4.940  1.1845 -0.8699  0.1174
  359MOL0     H48399   8.727   1.078   4.832 -0.5361  0.0966 -0.1316
  359MOL0     H48400   8.528   1.031   4.719  1.0732 -1.0956 -0.7248
  359MOL0     H48401   8.569   1.204   4.693 -2.3193 -0.4406  2.0054
  359MOL0     H48402   8.434   1.044   4.469  0.6352 -1.0343  1.5029
  359MOL0     H48403   8.444   1.216   4.487  3.3088 -0.8274 -2.4312
  359MOL0     H48404   8.330   1.015   4.695  3.7148  0.8791 -1.5736
  359MOL0     H48405   8.228   1.041   4.554  0.2043 -1.2033 -0.0887
  359MOL0     H48406   8.352   1.270   4.732  1.3528 -1.1046 -1.5431
  359MOL0     H48407   8.226   1.285   4.609 -2.0203 -0.0557 -0.3726
  359MOL0     H48408   8.148   1.090   4.831 -2.7092 -0.4365 -0.6632
  359MOL0     H48409   8.193   1.246   4.889 -0.5534  3.3239 -1.9178
  359MOL0     H48410   8.032   1.361   4.780 -1.2901  0.0447  0.2366
  359MOL0     H48411   7.978   1.226   4.682  3.0841  0.2812 -1.4314
  359MOL0     H48412   7.964   1.122   4.941  0.1825 -1.3424 -0.1829
  359MOL0     H48413   7.832   1.191   4.842 -0.4637 -0.2664 -0.2290
  359MOL0     H48414   7.950   1.418   4.988  2.5867 -1.8511 -0.6724
  359MOL0     H48415   7.786   1.371   4.970  1.6154  3.7169 -4.9262
  359MOL0     H48416   7.686   1.183   5.132  1.1529  0.5573 -0.8578
  359MOL0     H48417   7.819   1.048   5.484  0.9713  0.3077 -0.5434
  359MOL0     H48418   7.664   1.098   5.400  0.8240  0.8711  1.4161
  359MOL0     H48419   7.649   0.874   5.390  2.2651 -5.7530  1.3928
  359MOL0     H48420   7.720   0.911   5.231 -1.1327 -0.3176  0.9381
  359MOL0     H48421   7.862   0.814   5.489 -2.8424  1.2602  0.0692
  359MOL0     H48422   7.949   0.831   5.341  0.7846 -1.1105  0.8107
  359MOL0     H48423   7.750   0.657   5.256 -2.1807 -0.8484  0.5046
  359MOL0     H48424   7.771   0.632   5.432  1.3681  2.0033  1.1824
  359MOL0     H48425   8.154   0.482   5.246  1.2611  0.9885  0.6898
  359MOL0     H48426   8.262   0.505   5.005 -1.1394  0.8474 -0.5141
  359MOL0     H48427   8.491   0.808   4.646 -0.6485  2.2302 -1.8243
  359MOL0     H48428   8.482   0.829   4.400  0.9365  0.6310  0.7012
  359MOL0     H48429   8.490   0.527   4.120  1.1722  2.3244 -1.9615
  359MOL0     H48430   8.318   0.495   4.136 -0.3653  0.9350  0.1160
  359MOL0     H48431   8.270   0.677   3.989 -0.0366 -1.0611  0.5039
  359MOL0     H48432   8.439   0.738   4.010 -1.0966  1.5129 -0.8577
  359MOL0     H48433   8.367   0.643   3.785 -0.1390 -0.9613 -0.2105
  359MOL0     H48434   8.514   0.574   3.847 -0.6429 -0.0299  0.0638
  359MOL0     H48435   8.375   0.378   3.947 -3.2439 -1.4128  0.5561
  359MOL0     H48436   8.431   0.373   3.784 -0.6470 -0.5206  0.5207
  359MOL0     H48437   8.215   0.436   3.688  1.5198  0.4834  0.6822
  359MOL0     H48438   8.149   0.471   3.855  0.8632  0.9591  1.9056
  359MOL0     H48439   8.079   0.261   3.734  0.2662  0.1085 -0.5558
  359MOL0     H48440   8.261   0.213   3.742 -0.0060  2.1643 -2.5107
  359MOL0     H48441   8.062   0.290   3.977 -0.4052  0.7048 -0.1163
  359MOL0     H48442   8.223   0.231   3.997 -0.5794  3.9730 -1.4208
  359MOL0     H48443   8.042   0.052   4.035  1.3906  0.0742  0.4305
  359MOL0     H48444   7.980   0.079   3.878  2.0701  0.4118 -2.2495
  359MOL0     H48445   8.227   0.500   4.364  0.8713 -1.3756  1.8132
  359MOL0     H48446   8.221   0.479   4.624  3.1093 -4.0529 -1.4698
  359MOL0     H48447   7.968   0.794   4.904  2.9404  0.8360 -1.7169
  359MOL0     H48448   7.881   0.787   5.115 -0.1227 -0.1765 -1.1291
  359MOL0     H48449   8.853   0.946   4.459 -1.4187  1.1977 -0.4701
  359MOL0     H48450   9.059   0.847   4.562  0.7396  0.8427  0.3735
  359MOL0     H48451   9.270   0.876   5.015  2.7846  1.6719  0.1904
  359MOL0     H48452   9.454   0.820   5.164 -0.9530 -1.2720  2.3154
  359MOL0     H48453   9.548   0.633   5.305  0.5475 -1.6770  0.3081
  359MOL0     H48454   9.657   0.748   5.248 -1.2877 -0.2527 -1.9102
  359MOL0     H48455   9.766   0.623   5.422 -1.8095  0.1141  0.2721
  359MOL0     H48456   9.847   0.583   5.276 -0.0181 -0.4604 -0.1975
  359MOL0     H48457   9.693   0.362   5.272  0.9753  0.5793 -0.3969
  359MOL0     H48458   9.621   0.440   5.410 -0.4553  3.5342 -1.8344
  359MOL0     H48459   9.848   0.420   5.538  0.1402 -0.0594 -0.2117
  359MOL0     H48460   9.778   0.263   5.486 -0.1912  0.3819  0.8930
  359MOL0     H48461  10.132   0.265   5.243  0.5561 -0.7391 -0.0270
  359MOL0     H48462   9.535   0.480   4.915 -0.1874  0.4040  0.9960
  359MOL0     H48463   9.305   0.558   4.665  2.0006  1.9577  1.9700
  359MOL0     H48464   9.435   0.448   4.711  0.6608  0.3116 -1.3537
  359MOL0     H48465   9.270   0.418   4.771 -1.1464  0.0034 -1.3298
  360MOL0     O48466   5.983   1.871  11.110  0.2347  0.4800  0.4799
  360MOL0     C48467   6.081   1.818  11.160 -0.3633 -0.4003  0.3152
  360MOL0     O48468   6.204   1.876  11.150 -0.1092 -0.2012 -0.0081
  360MOL0     C48469   6.223   1.985  11.065 -0.0472  0.3201 -1.5105
  360MOL0     C48470   6.170   2.111  11.098  0.0570  0.3296 -0.4007
  360MOL0     C48471   6.169   2.214  11.010  0.4248  0.3126  0.7213
  360MOL0     C48472   6.233   2.201  10.880 -0.3522 -0.7401 -0.1313
  360MOL0     O48473   6.246   2.321  10.806  0.0344  1.3767  0.0681
  360MOL0     C48474   6.134   2.348  10.727 -0.2621  0.2629 -0.2666
  360MOL0     C48475   6.133   2.498  10.706  0.2570 -0.7404  1.3672
  360MOL0     C48476   6.164   2.589  10.826  0.2134 -0.7432 -0.0910
  360MOL0     C48477   6.184   2.738  10.780 -0.1856  0.1821 -0.4794
  360MOL0     C48478   6.231   2.814  10.904  0.4341 -0.8653  0.5713
  360MOL0     C48479   6.248   2.968  10.862 -0.2420  1.0697 -1.4193
  360MOL0     C48480   6.390   2.997  10.796  0.5191 -0.1217  0.6615
  360MOL0     C48481   6.390   3.145  10.755 -0.2684  0.1278 -0.6787
  360MOL0     N48482   6.525   3.189  10.723 -0.2810  0.0632 -0.3274
  360MOL0     C48483   6.619   3.218  10.816  0.0030 -0.2283  0.1750
  360MOL0     C48484   6.710   3.286  10.752  1.4007  0.0047 -0.4885
  360MOL0     C48485   6.815   3.366  10.815  0.9786 -0.2231  0.2445
  360MOL0     C48486   6.940   3.377  10.733 -0.2260 -0.1712  0.3039
  360MOL0     C48487   7.046   3.464  10.805 -0.6798  0.0466  0.0473
  360MOL0     C48488   7.172   3.478  10.714 -0.1720 -0.2512  0.2960
  360MOL0     O48489   7.124   3.512  10.575  0.3570 -0.0500 -0.1342
  360MOL0     C48490   7.216   3.514  10.472  0.2741 -0.4541  0.0394
  360MOL0     C48491   7.163   3.518  10.346 -0.1662 -0.1397  0.6065
  360MOL0     C48492   7.256   3.520  10.240  0.3127 -0.3343 -0.4526
  360MOL0     C48493   7.389   3.506  10.254 -0.0669 -0.6609 -0.7024
  360MOL0     C48494   7.486   3.519  10.137 -0.1145  0.0614 -0.1275
  360MOL0     O48495   7.435   3.577  10.027 -0.5652 -0.6260  0.0998
  360MOL0     C48496   7.513   3.586   9.916 -0.0493  0.0672  0.7290
  360MOL0     C48497   7.552   3.705   9.859 -0.1059 -0.5027  0.0804
  360MOL0     C48498   7.629   3.712   9.742  0.4686 -0.0834 -0.4768
  360MOL0     C48499   7.658   3.591   9.667 -0.6759  0.1849 -0.1788
  360MOL0     O48500   7.744   3.574   9.564  0.1573 -0.0839 -0.0938
  360MOL0     C48501   7.829   3.683   9.513  0.2758  0.0733  0.7171
  360MOL0     C48502   7.944   3.627   9.419 -0.2392 -0.2458  0.0517
  360MOL0     C48503   7.909   3.577   9.289 -0.0722  0.2046  0.2190
  360MOL0     C48504   7.883   3.677   9.176 -0.6346 -0.2732  0.2392
  360MOL0     C48505   7.894   3.605   9.043  0.6525  0.0068 -0.1348
  360MOL0     C48506   7.950   3.700   8.938  0.4125  0.8765  0.0352
  360MOL0     C48507   8.098   3.724   8.957 -0.1178 -1.0165  1.0825
  360MOL0     C48508   8.182   3.758   8.824  0.4714 -0.0723 -0.4609
  360MOL0    Cl48509   8.112   3.897   8.747  0.3451  0.4262  0.0798
  360MOL0     C48510   7.604   3.469   9.716  0.1533  0.1819  0.0738
  360MOL0     C48511   7.537   3.466   9.846 -0.1710  0.2205  0.7033
  360MOL0     O48512   7.592   3.467  10.145 -0.7286  0.3397 -1.0216
  360MOL0     C48513   7.441   3.490  10.388 -0.8891  0.1935  0.5553
  360MOL0     C48514   7.350   3.503  10.492  1.0908  1.2931 -0.0264
  360MOL0     N48515   6.674   3.290  10.618 -0.2650  0.4766  0.4182
  360MOL0     N48516   6.555   3.246  10.593 -0.4827 -0.1525 -0.8502
  360MOL0     C48517   6.289   2.079  10.848 -0.2087  0.2813  1.0311
  360MOL0     C48518   6.278   1.972  10.943 -0.7891 -0.1348  0.0634
  360MOL0     C48519   6.076   1.688  11.230 -0.1951  0.6836 -0.6628
  360MOL0     C48520   6.192   1.647  11.293  0.3773  0.4197  0.2499
  360MOL0     C48521   6.191   1.518  11.346 -0.0337 -0.2124  0.0556
  360MOL0     C48522   6.086   1.434  11.332 -0.2025  1.8125  0.7059
  360MOL0     O48523   6.116   1.315  11.388 -1.4905  0.2611 -0.3225
  360MOL0     C48524   6.021   1.207  11.367  0.4648 -0.0826  0.0746
  360MOL0     C48525   6.064   1.098  11.464  0.0067  1.2285  0.6486
  360MOL0     C48526   5.978   0.965  11.448  0.4549 -0.0986 -0.1589
  360MOL0     C48527   6.025   0.851  11.536  0.0237 -0.3430 -0.3643
  360MOL0     C48528   5.941   0.732  11.512 -0.3290  0.7456  0.3417
  360MOL0     C48529   5.868   0.640  11.483  0.2667 -0.4277 -0.1929
  360MOL0     C48530   5.975   1.470  11.266  0.0976  0.5589  0.5292
  360MOL0     C48531   5.969   1.590  11.205 -0.5465 -0.0760 -1.0639
  360MOL0     C48532   5.840   1.619  11.132 -0.5256  0.7693  0.4327
  360MOL0     H48533   6.142   2.119  11.202 -1.4762 -3.3570 -0.3456
  360MOL0     H48534   6.116   2.305  11.034 -0.7669 -0.7613  2.4361
  360MOL0     H48535   6.134   2.303  10.627  0.1400 -1.0176  0.2927
  360MOL0     H48536   6.047   2.318  10.786  2.1834  2.0970  4.8196
  360MOL0     H48537   6.036   2.535  10.672  0.0094 -1.3132  1.4377
  360MOL0     H48538   6.199   2.506  10.619 -3.2880 -2.3988 -1.7755
  360MOL0     H48539   6.257   2.558  10.874  0.6113 -0.7002 -0.8194
  360MOL0     H48540   6.093   2.582  10.909  0.8024  0.8157  0.5793
  360MOL0     H48541   6.263   2.736  10.704 -0.2181 -2.0888 -0.5178
  360MOL0     H48542   6.093   2.780  10.737  0.7096  4.1427  1.1053
  360MOL0     H48543   6.147   2.809  10.974 -1.5156 -0.1736 -1.5515
  360MOL0     H48544   6.314   2.768  10.957  1.5103 -1.5380 -1.5976
  360MOL0     H48545   6.162   2.981  10.795 -2.5292  1.0151  1.3113
  360MOL0     H48546   6.231   3.039  10.944  1.9588 -0.1814  0.2097
  360MOL0     H48547   6.411   2.936  10.707  2.2121  0.6711  0.4681
  360MOL0     H48548   6.472   2.984  10.867  0.2996 -0.8601  0.7928
  360MOL0     H48549   6.321   3.164  10.672 -1.2756 -1.9545 -0.3893
  360MOL0     H48550   6.357   3.221  10.827  0.7507  1.2834 -1.4034
  360MOL0     H48551   6.612   3.192  10.921  1.7533  0.3883  0.4676
  360MOL0     H48552   6.775   3.464  10.841  1.9527  0.4714 -0.7814
  360MOL0     H48553   6.848   3.314  10.905  0.7830 -1.2118 -0.2380
  360MOL0     H48554   6.985   3.278  10.718 -1.3853 -0.4402 -1.7072
  360MOL0     H48555   6.909   3.414  10.635 -1.2681 -2.0595 -0.1324
  360MOL0     H48556   7.078   3.433  10.905  2.9465  0.8014 -0.7169
  360MOL0     H48557   7.002   3.562  10.824 -1.0373 -0.3215  1.2015
  360MOL0     H48558   7.211   3.376  10.710 -0.7140 -0.4281 -1.3675
  360MOL0     H48559   7.249   3.542  10.758  2.4829 -0.7428 -3.2259
  360MOL0     H48560   7.054   3.524  10.354 -0.0538  0.0073  2.9438
  360MOL0     H48561   7.220   3.524  10.138 -1.2020 -0.6950  0.0403
  360MOL0     H48562   7.522   3.798   9.908 -0.8873 -1.2724  1.1068
  360MOL0     H48563   7.694   3.796   9.719 -0.0038  0.4010 -0.0575
  360MOL0     H48564   7.775   3.759   9.456 -3.1347 -1.0177  2.2129
  360MOL0     H48565   7.886   3.730   9.593  1.6660  1.0285 -0.7796
  360MOL0     H48566   8.002   3.716   9.393 -0.2658  0.0292  0.9176
  360MOL0     H48567   8.001   3.553   9.475 -1.6836 -1.2392  0.2518
  360MOL0     H48568   8.004   3.529   9.263  0.4511  2.3727 -2.3903
  360MOL0     H48569   7.824   3.509   9.302  0.8343 -0.4502  4.0629
  360MOL0     H48570   7.966   3.748   9.183  0.8885 -1.5997 -2.5290
  360MOL0     H48571   7.786   3.722   9.198  0.3966 -0.0750  5.4888
  360MOL0     H48572   7.793   3.572   9.018  0.5902  0.9313 -1.1743
  360MOL0     H48573   7.949   3.511   9.048  0.1667 -0.2391  0.7626
  360MOL0     H48574   7.925   3.664   8.838 -0.1722  0.0697  0.4565
  360MOL0     H48575   7.889   3.790   8.939 -1.8731 -0.4246  3.8278
  360MOL0     H48576   8.151   3.640   9.002 -0.1379 -0.8959  1.3304
  360MOL0     H48577   8.107   3.806   9.029 -0.9376  1.0283 -1.0093
  360MOL0     H48578   8.289   3.768   8.844  0.6316 -0.6334 -1.0014
  360MOL0     H48579   8.185   3.664   8.767  0.5625 -0.6080  0.4104
  360MOL0     H48580   7.622   3.375   9.665 -0.8349 -0.0146  0.0635
  360MOL0     H48581   7.507   3.368   9.881  0.6176 -1.3604 -2.6724
  360MOL0     H48582   7.547   3.475  10.402 -0.8610  0.4081  0.5697
  360MOL0     H48583   7.393   3.491  10.591  0.2432 -3.4127 -0.0408
  360MOL0     H48584   6.342   2.079  10.753  0.5551  0.3791  1.4456
  360MOL0     H48585   6.336   1.882  10.926  1.6435  0.5209  3.6845
  360MOL0     H48586   6.278   1.708  11.317  0.8755 -1.3910  3.8070
  360MOL0     H48587   6.280   1.487  11.400 -0.9915 -0.1836  1.6838
  360MOL0     H48588   6.022   1.168  11.265  4.0419 -0.6860  0.2269
  360MOL0     H48589   5.917   1.239  11.386 -0.3096 -1.9714 -0.8068
  360MOL0     H48590   6.068   1.137  11.566  0.6483 -1.1004  1.5887
  360MOL0     H48591   6.169   1.076  11.441 -0.3151  2.4405 -2.4433
  360MOL0     H48592   5.985   0.937  11.342  2.9176 -0.0238 -0.0650
  360MOL0     H48593   5.875   0.994  11.469 -0.2625  1.1779 -4.4664
  360MOL0     H48594   6.127   0.824  11.509 -0.6196 -1.5647 -1.7371
  360MOL0     H48595   6.018   0.877  11.642  0.8881  0.7391 -0.5529
  360MOL0     H48596   5.802   0.561  11.454  1.4215 -0.6853 -2.3633
  360MOL0     H48597   5.896   1.403  11.234  2.3389 -2.0209  0.0383
  360MOL0     H48598   5.789   1.526  11.107 -2.6518  2.0568 -0.2268
  360MOL0     H48599   5.773   1.678  11.196 -0.0767 -0.1752  1.8200
  360MOL0     H48600   5.871   1.679  11.046  0.9101  1.8849  1.6659
  361MOL0     O48601   0.330   9.818   1.282 -0.0137  0.2239 -0.0798
  361MOL0     C48602   0.275   9.717   1.251  0.0366 -0.5222  0.2380
  361MOL0     O48603   0.143   9.695   1.254 -0.3847  0.5638 -0.4353
  361MOL0     C48604   0.046   9.785   1.261  0.2851 -0.2064  0.4223
  361MOL0     C48605  -0.067   9.761   1.191  0.5652  0.9275  0.6424
  361MOL0     C48606  -0.167   9.848   1.185 -0.2423 -1.5321 -1.4381
  361MOL0     C48607  -0.162   9.975   1.267  0.4982 -0.6187  1.2970
  361MOL0     O48608  -0.256  10.070   1.272 -0.0453  0.1327  0.3651
  361MOL0     C48609  -0.370  10.047   1.194 -0.3910 -0.8812  1.2342
  361MOL0     C48610  -0.471  10.157   1.220  0.1490 -1.1325  0.8747
  361MOL0     C48611  -0.588  10.144   1.115  1.1305 -0.6075  0.0884
  361MOL0     C48612  -0.684  10.023   1.140  0.0984 -0.1647  0.5174
  361MOL0     C48613  -0.794  10.040   1.244 -0.0398 -0.4531 -0.5456
  361MOL0     C48614  -0.904  10.142   1.185 -0.0591 -0.2026 -0.0927
  361MOL0     C48615  -1.039  10.153   1.273 -0.3941  0.5193 -0.6140
  361MOL0     C48616  -1.124  10.033   1.240  0.3857  0.0283  0.0464
  361MOL0     N48617  -1.257  10.047   1.317 -0.4474  0.0128 -0.4670
  361MOL0     C48618  -1.275  10.019   1.450 -0.2659  0.4706  0.2256
  361MOL0     C48619  -1.407  10.044   1.471 -0.0838  0.1118 -1.2568
  361MOL0     C48620  -1.469  10.045   1.607 -0.2847 -0.4742 -0.4269
  361MOL0     C48621  -1.447  10.185   1.658  0.4333  0.3073 -0.6530
  361MOL0     C48622  -1.520  10.212   1.801  0.4483  0.1980  0.4811
  361MOL0     C48623  -1.469  10.119   1.908 -1.0010 -0.0505 -0.6800
  361MOL0     O48624  -1.550  10.124   2.034 -0.4031  0.5938 -0.1586
  361MOL0     C48625  -1.672  10.055   2.029  0.7706  0.0274 -0.4773
  361MOL0     C48626  -1.695   9.939   1.953  0.6350  0.4580  0.5226
  361MOL0     C48627  -1.822   9.879   1.955  0.2869 -1.3816 -0.2124
  361MOL0     C48628  -1.922   9.927   2.040  0.5318  0.4988 -0.6250
  361MOL0     C48629  -2.055   9.873   2.044 -0.1892 -0.0609  0.5943
  361MOL0     O48630  -2.077   9.750   1.978  0.1954  0.2996  0.2554
  361MOL0     C48631  -2.201   9.698   1.996  0.2882 -1.0024 -0.5136
  361MOL0     C48632  -2.311   9.741   1.924 -0.8205 -0.8288  0.6932
  361MOL0     C48633  -2.434   9.687   1.935 -1.1625  0.0665  0.3544
  361MOL0     C48634  -2.450   9.578   2.020  0.0775  0.5363 -1.0450
  361MOL0     O48635  -2.565   9.504   2.040 -0.6434  0.2756 -0.7952
  361MOL0     C48636  -2.674   9.511   1.952 -0.3604 -0.6373 -0.4628
  361MOL0     C48637  -2.786   9.421   1.998 -0.5189 -1.0956 -0.2212
  361MOL0     C48638  -2.758   9.270   2.025  0.1697 -0.0187  0.8996
  361MOL0     C48639  -2.684   9.195   1.909  0.5859  0.7219 -0.5814
  361MOL0     C48640  -2.662   9.048   1.957 -0.1975  0.7315  0.0009
  361MOL0     C48641  -2.671   8.935   1.846 -1.0341 -0.2033  0.5019
  361MOL0     C48642  -2.806   8.944   1.784 -0.0450 -0.2135  0.9982
  361MOL0     C48643  -2.913   8.875   1.863  0.2254 -0.1411 -0.1479
  361MOL0    Cl48644  -3.046   8.853   1.753 -0.3860 -0.1720  0.4896
  361MOL0     C48645  -2.341   9.517   2.080  0.2999 -0.2971  0.5853
  361MOL0     C48646  -2.219   9.591   2.082 -0.1650  0.0371  0.0445
  361MOL0     O48647  -2.140   9.946   2.090 -0.2098 -0.9904  0.2665
  361MOL0     C48648  -1.895  10.028   2.138  0.0717  0.0835  0.9011
  361MOL0     C48649  -1.771  10.093   2.123 -0.8568  0.5437 -0.6178
  361MOL0     N48650  -1.462  10.093   1.346  0.3287 -0.7877 -0.8005
  361MOL0     N48651  -1.368  10.096   1.259  0.0200  0.0691 -0.6506
  361MOL0     C48652  -0.050   9.999   1.335  0.0639 -0.4532  0.0657
  361MOL0     C48653   0.056   9.906   1.332 -0.0054 -0.4283 -0.8913
  361MOL0     C48654   0.365   9.602   1.221 -0.0228 -0.6350  0.4042
  361MOL0     C48655   0.306   9.477   1.210 -0.3996  0.0043 -0.2652
  361MOL0     C48656   0.376   9.364   1.165  0.3795 -0.2406 -0.5322
  361MOL0     C48657   0.506   9.371   1.129 -0.0788  0.2695  0.5666
  361MOL0     O48658   0.550   9.260   1.064  0.0409  0.3816  0.1101
  361MOL0     C48659   0.682   9.250   1.002  0.4881  0.8270  0.0459
  361MOL0     C48660   0.691   9.136   0.898 -0.9269  0.8948 -0.0979
  361MOL0     C48661   0.631   9.006   0.953  1.0910 -0.0557  0.5432
  361MOL0     C48662   0.632   8.884   0.859 -0.7069 -0.2071 -0.1691
  361MOL0     C48663   0.566   8.785   0.947  0.4188  0.7129  0.0947
  361MOL0     C48664   0.511   8.699   1.006  0.8579 -0.8153  0.0613
  361MOL0     C48665   0.567   9.488   1.139  0.3629 -0.3913  0.4349
  361MOL0     C48666   0.501   9.610   1.183 -0.8249  0.6761  0.2757
  361MOL0     C48667   0.573   9.736   1.195 -0.1789 -0.4714  0.2891
  361MOL0     H48668  -0.096   9.666   1.148 -0.4114  1.3358  0.3570
  361MOL0     H48669  -0.268   9.830   1.148 -0.1759 -0.2345 -2.3484
  361MOL0     H48670  -0.338  10.048   1.089  0.2176 -2.3240  1.3777
  361MOL0     H48671  -0.415   9.948   1.208  1.0815 -2.0363 -1.3897
  361MOL0     H48672  -0.429  10.258   1.221  1.1106 -1.4555 -1.3967
  361MOL0     H48673  -0.510  10.135   1.320 -0.4809 -2.5227  0.3456
  361MOL0     H48674  -0.540  10.129   1.017  0.4645 -3.4485  0.1082
  361MOL0     H48675  -0.636  10.241   1.104 -0.9266 -1.1032  3.4056
  361MOL0     H48676  -0.729   9.992   1.046 -0.0385  1.7631 -0.1046
  361MOL0     H48677  -0.629   9.935   1.173 -4.8605 -2.6985  3.2373
  361MOL0     H48678  -0.840   9.942   1.260  1.0610 -1.0874 -1.1161
  361MOL0     H48679  -0.752  10.079   1.337  2.4355 -0.7451 -1.4514
  361MOL0     H48680  -0.860  10.242   1.179  1.1124 -0.7000 -0.0605
  361MOL0     H48681  -0.931  10.100   1.088  1.8762  0.1339 -0.8109
  361MOL0     H48682  -1.099  10.242   1.251 -3.6906 -1.3747 -0.0515
  361MOL0     H48683  -1.016  10.139   1.378 -0.0258  2.6901 -0.3666
  361MOL0     H48684  -1.137  10.030   1.131  1.3586  2.2534 -0.1940
  361MOL0     H48685  -1.086   9.931   1.249  1.9557  0.2413 -2.7443
  361MOL0     H48686  -1.195   9.980   1.511 -1.1779 -0.9838  0.5513
  361MOL0     H48687  -1.573  10.012   1.604 -0.1588 -0.8839 -0.2945
  361MOL0     H48688  -1.412   9.969   1.660  2.2998  1.2729 -0.5037
  361MOL0     H48689  -1.340  10.209   1.661  0.7721 -1.2037  0.6326
  361MOL0     H48690  -1.495  10.248   1.582  0.6426  2.2876  0.7706
  361MOL0     H48691  -1.629  10.212   1.792  0.3665  2.5202  0.9430
  361MOL0     H48692  -1.504  10.316   1.830 -0.7372  0.5673 -0.1322
  361MOL0     H48693  -1.363  10.139   1.925 -0.6785 -1.4320 -0.9253
  361MOL0     H48694  -1.475  10.019   1.864  0.8343  1.4973 -4.9317
  361MOL0     H48695  -1.630   9.903   1.874  0.8290 -1.3443  1.4364
  361MOL0     H48696  -1.838   9.793   1.891 -0.6823 -1.8655  0.6431
  361MOL0     H48697  -2.299   9.830   1.862  0.1122 -1.2967  0.1811
  361MOL0     H48698  -2.524   9.723   1.886  0.6758  1.2846 -2.3452
  361MOL0     H48699  -2.705   9.616   1.952  1.7491  0.0992  2.2585
  361MOL0     H48700  -2.635   9.499   1.851 -0.9543  2.1193 -1.1103
  361MOL0     H48701  -2.818   9.470   2.091  0.1484 -1.0103 -0.0363
  361MOL0     H48702  -2.861   9.434   1.920  1.0902 -0.4153 -1.7136
  361MOL0     H48703  -2.709   9.267   2.123  1.1923 -0.7292  0.3889
  361MOL0     H48704  -2.855   9.219   2.036 -2.6700  3.9139 -2.7746
  361MOL0     H48705  -2.587   9.245   1.902 -0.4273  2.7563 -0.9191
  361MOL0     H48706  -2.729   9.206   1.810  2.8839  1.0832 -1.6581
  361MOL0     H48707  -2.732   9.008   2.031  0.7795  0.5502  0.8600
  361MOL0     H48708  -2.566   9.043   2.009 -0.5294  1.0133  0.6540
  361MOL0     H48709  -2.589   8.958   1.777  0.7113 -2.5229  1.6447
  361MOL0     H48710  -2.647   8.837   1.888 -1.2749 -2.4818 -3.9785
  361MOL0     H48711  -2.804   8.893   1.687 -1.0669  0.8082  0.4127
  361MOL0     H48712  -2.845   9.045   1.768 -1.1772 -0.6878  0.6992
  361MOL0     H48713  -2.874   8.777   1.891 -1.2192 -0.9246 -0.7728
  361MOL0     H48714  -2.964   8.914   1.951 -1.6749  0.9704 -1.6599
  361MOL0     H48715  -2.353   9.433   2.148  0.4464 -0.2043  0.7279
  361MOL0     H48716  -2.132   9.554   2.135  0.1678  1.6666  0.7237
  361MOL0     H48717  -1.955  10.077   2.213 -1.3534 -3.3335  2.1963
  361MOL0     H48718  -1.752  10.175   2.191 -2.6239  0.4442  0.0396
  361MOL0     H48719  -0.026  10.089   1.389  3.1158 -1.0253 -0.1742
  361MOL0     H48720   0.142   9.942   1.388 -0.6815  1.1174 -0.8012
  361MOL0     H48721   0.204   9.445   1.231 -0.1330 -2.3304 -2.0323
  361MOL0     H48722   0.326   9.268   1.167 -1.9679  0.8288  2.9513
  361MOL0     H48723   0.762   9.243   1.076  1.9945  3.5283 -1.1510
  361MOL0     H48724   0.707   9.338   0.941  3.0189 -0.8213 -1.4774
  361MOL0     H48725   0.791   9.116   0.860 -1.9109 -0.3858 -2.2056
  361MOL0     H48726   0.644   9.167   0.804  0.6079  1.7813 -0.5979
  361MOL0     H48727   0.526   9.030   0.970  0.6223 -0.7036 -1.2896
  361MOL0     H48728   0.680   8.976   1.046 -1.1969 -3.7719  0.7686
  361MOL0     H48729   0.579   8.913   0.768  2.8580  1.2739 -1.9615
  361MOL0     H48730   0.735   8.852   0.838 -1.4712 -4.2571  1.2387
  361MOL0     H48731   0.475   8.612   1.059 -1.9838 -0.3002 -0.8254
  361MOL0     H48732   0.671   9.504   1.112 -0.0085 -1.5445 -1.9094
  361MOL0     H48733   0.530   9.811   1.129  0.5038 -1.7059 -1.6333
  361MOL0     H48734   0.582   9.769   1.299  1.6488  1.5872 -0.4498
  361MOL0     H48735   0.677   9.713   1.169 -0.3508  1.1943 -2.0758
  362MOL0     O48736   7.772   3.280  10.532  0.7312  0.0289 -0.1613
  362MOL0     C48737   7.844   3.248  10.624 -0.1255  0.3638 -1.1889
  362MOL0     O48738   7.990   3.247  10.629 -0.1076 -0.0540 -0.1169
  362MOL0     C48739   8.046   3.257  10.497  0.0400  0.2092 -0.2148
  362MOL0     C48740   8.156   3.343  10.479 -0.4996 -0.0387 -0.4914
  362MOL0     C48741   8.237   3.333  10.361 -0.0380 -0.5086 -0.8463
  362MOL0     C48742   8.202   3.241  10.261  0.7377 -0.5816 -0.1422
  362MOL0     O48743   8.290   3.234  10.161 -0.0150  0.3031 -0.1364
  362MOL0     C48744   8.283   3.133  10.066 -0.0370 -0.4311 -0.2712
  362MOL0     C48745   8.365   3.001  10.092  0.4264 -0.0101  0.7848
  362MOL0     C48746   8.308   2.882  10.018  1.3573  0.2082 -0.6365
  362MOL0     C48747   8.386   2.764  10.063 -1.0903  1.1361  0.8771
  362MOL0     C48748   8.310   2.636  10.022 -0.0741  0.2974  0.3143
  362MOL0     C48749   8.308   2.594   9.868 -0.8032  0.0879 -0.1040
  362MOL0     C48750   8.451   2.617   9.800 -0.2718 -0.0428 -0.2805
  362MOL0     C48751   8.492   2.522   9.689 -1.1667 -0.6399 -0.4955
  362MOL0     N48752   8.430   2.556   9.561 -0.1488  0.4311  0.3616
  362MOL0     C48753   8.482   2.638   9.465 -1.0966 -0.6271  0.5264
  362MOL0     C48754   8.390   2.631   9.366 -0.6766  1.2165 -0.0525
  362MOL0     C48755   8.389   2.700   9.234 -0.6092  0.9673  0.4550
  362MOL0     C48756   8.451   2.832   9.245  0.3068 -0.5050 -0.6415
  362MOL0     C48757   8.396   2.944   9.170  0.5371 -0.5599 -0.3151
  362MOL0     C48758   8.366   2.915   9.024 -0.3179 -0.4658  0.4309
  362MOL0     O48759   8.477   2.840   8.964 -0.3816 -0.0134  0.3675
  362MOL0     C48760   8.468   2.812   8.825  0.1731 -0.3189 -0.4042
  362MOL0     C48761   8.385   2.703   8.772 -1.5958  1.1926 -0.3421
  362MOL0     C48762   8.384   2.672   8.642 -0.4403 -0.8313  0.6719
  362MOL0     C48763   8.462   2.745   8.548 -0.3832 -0.8450 -0.0742
  362MOL0     C48764   8.460   2.712   8.403 -0.9420 -0.1315 -0.6791
  362MOL0     O48765   8.395   2.589   8.388 -0.0981  0.6013 -0.1111
  362MOL0     C48766   8.388   2.523   8.273 -0.5568  0.5435  0.4350
  362MOL0     C48767   8.449   2.565   8.149  0.5059 -0.1448 -1.3102
  362MOL0     C48768   8.410   2.506   8.036  0.5798  0.3681  0.2525
  362MOL0     C48769   8.316   2.403   8.038 -0.0709  0.3142 -0.7044
  362MOL0     O48770   8.283   2.363   7.910  0.1932 -0.1449 -0.4091
  362MOL0     C48771   8.165   2.284   7.898  1.1194  0.2246  0.0006
  362MOL0     C48772   8.113   2.290   7.744 -0.3226 -0.4807 -0.9545
  362MOL0     C48773   8.006   2.177   7.722  0.1237 -0.2939 -0.1704
  362MOL0     C48774   7.916   2.211   7.599 -0.4506  0.2010  0.2069
  362MOL0     C48775   7.984   2.272   7.479 -0.5366  0.0891  0.3563
  362MOL0     C48776   7.901   2.277   7.348  0.3005 -0.3426  0.5798
  362MOL0     C48777   7.995   2.314   7.233  0.2508 -0.2901  0.1501
  362MOL0     C48778   7.917   2.320   7.095 -0.0440  0.0024  0.3761
  362MOL0    Cl48779   7.801   2.450   7.102 -0.3738  0.2015 -0.0439
  362MOL0     C48780   8.260   2.352   8.157  0.4691 -0.3135 -0.9885
  362MOL0     C48781   8.302   2.411   8.275  0.0306  0.0029  0.6062
  362MOL0     O48782   8.500   2.792   8.315 -0.0162 -0.6753 -0.2673
  362MOL0     C48783   8.544   2.848   8.600 -0.4368 -0.6124 -0.2791
  362MOL0     C48784   8.546   2.885   8.741  0.0372  0.3289 -0.5377
  362MOL0     N48785   8.293   2.544   9.401  0.1156  0.1934  1.2286
  362MOL0     N48786   8.320   2.493   9.522  0.1723  0.1328  0.3070
  362MOL0     C48787   8.078   3.174  10.269 -0.1433 -0.7900 -0.5332
  362MOL0     C48788   8.009   3.173  10.395  0.5033  0.2217  0.6053
  362MOL0     C48789   7.782   3.213  10.759  0.0123 -0.1710  0.0377
  362MOL0     C48790   7.873   3.175  10.859  1.0241 -0.1036  0.4317
  362MOL0     C48791   7.845   3.143  10.992  1.0509  0.8360 -0.2004
  362MOL0     C48792   7.711   3.151  11.030  0.5479 -0.5278 -1.0250
  362MOL0     O48793   7.655   3.136  11.155 -0.1700  0.5948  0.2066
  362MOL0     C48794   7.715   3.039  11.239 -0.6415 -0.0989  0.6187
  362MOL0     C48795   7.620   2.984  11.353 -0.0153  0.3464 -0.2323
  362MOL0     C48796   7.544   2.873  11.285  0.3819  0.2129 -0.2699
  362MOL0     C48797   7.413   2.831  11.355 -0.3882 -0.3093  0.8616
  362MOL0     C48798   7.316   2.774  11.266  0.8708  0.8360  0.6747
  362MOL0     C48799   7.239   2.733  11.173  0.0974  0.3600 -0.5959
  362MOL0     C48800   7.612   3.186  10.933  0.2605  0.1304 -0.5043
  362MOL0     C48801   7.650   3.219  10.798 -0.0951 -0.0167  0.6435
  362MOL0     C48802   7.535   3.268  10.708 -0.7171 -0.0692  0.4574
  362MOL0     H48803   8.180   3.411  10.559 -2.8755 -1.1114  1.2552
  362MOL0     H48804   8.334   3.381  10.355  1.7764 -2.6209  5.0575
  362MOL0     H48805   8.180   3.096  10.056 -0.0381  0.0596 -2.5421
  362MOL0     H48806   8.314   3.182   9.973 -1.5418  0.2863 -0.4269
  362MOL0     H48807   8.349   2.980  10.198  0.3219  0.2917  0.8305
  362MOL0     H48808   8.471   3.023  10.084  0.6329 -1.1148  0.3949
  362MOL0     H48809   8.315   2.894   9.909 -0.9695  0.5100 -0.7996
  362MOL0     H48810   8.207   2.860  10.053  0.7298 -0.2607 -2.5865
  362MOL0     H48811   8.485   2.771  10.017 -0.5756  0.8828  1.9206
  362MOL0     H48812   8.388   2.772  10.172  0.0251  3.9141  0.7439
  362MOL0     H48813   8.351   2.553  10.081 -4.8025 -2.4273  0.2857
  362MOL0     H48814   8.206   2.638  10.056  0.6670  0.9891  2.7607
  362MOL0     H48815   8.278   2.492   9.846  0.4722 -0.0496 -1.3655
  362MOL0     H48816   8.230   2.656   9.823 -1.7447 -1.4982 -0.7211
  362MOL0     H48817   8.526   2.596   9.878 -0.8714  1.2775  0.6986
  362MOL0     H48818   8.455   2.719   9.763 -2.0978 -0.3288 -1.3947
  362MOL0     H48819   8.600   2.531   9.677 -1.0414 -1.1606  0.1793
  362MOL0     H48820   8.474   2.415   9.705  4.0183 -1.8144 -0.9186
  362MOL0     H48821   8.569   2.703   9.459 -0.6437 -1.3166 -0.7999
  362MOL0     H48822   8.438   2.634   9.162 -0.1420 -1.2687  2.7160
  362MOL0     H48823   8.284   2.693   9.201  0.0155 -1.9757 -1.2716
  362MOL0     H48824   8.463   2.871   9.346 -0.3234  0.1079 -0.7976
  362MOL0     H48825   8.556   2.822   9.215  1.6047  1.7001  2.6311
  362MOL0     H48826   8.469   3.025   9.178  2.2064 -2.1103  1.0899
  362MOL0     H48827   8.305   2.982   9.218  0.9131  0.6620 -0.5196
  362MOL0     H48828   8.348   3.008   8.970  3.0636  0.2625  0.3569
  362MOL0     H48829   8.279   2.849   9.013  0.1237 -0.8105 -1.1969
  362MOL0     H48830   8.332   2.639   8.842  1.8825 -1.1484  0.4408
  362MOL0     H48831   8.340   2.579   8.608  3.3522 -2.8509  0.6773
  362MOL0     H48832   8.515   2.650   8.133  1.6163 -1.5856 -6.3575
  362MOL0     H48833   8.449   2.544   7.942  1.7208 -0.7565  0.2296
  362MOL0     H48834   8.172   2.178   7.924 -1.7395  0.5484  2.8158
  362MOL0     H48835   8.090   2.321   7.969 -0.2358 -0.4258 -1.0464
  362MOL0     H48836   8.065   2.387   7.727 -1.4497 -0.1142  3.3146
  362MOL0     H48837   8.199   2.287   7.676  0.5902 -1.6625  0.2200
  362MOL0     H48838   8.062   2.084   7.718  1.6743  0.6332 -0.9941
  362MOL0     H48839   7.938   2.158   7.806  0.6886  0.6851  0.5279
  362MOL0     H48840   7.828   2.268   7.631  0.0549  2.4081 -2.0494
  362MOL0     H48841   7.869   2.116   7.572 -1.4638  0.6469  0.3778
  362MOL0     H48842   8.079   2.222   7.455 -0.1163  1.1609 -0.2643
  362MOL0     H48843   8.022   2.369   7.510 -0.7044 -0.2684  1.7620
  362MOL0     H48844   7.860   2.176   7.331  0.2071 -0.4383  1.3362
  362MOL0     H48845   7.816   2.345   7.350 -0.1254 -0.8348  2.9253
  362MOL0     H48846   8.077   2.242   7.230 -1.6352 -2.5969  0.6913
  362MOL0     H48847   8.035   2.415   7.251 -3.5828  1.2807  0.8465
  362MOL0     H48848   7.971   2.347   7.004 -0.4959  0.1913  0.1633
  362MOL0     H48849   7.861   2.228   7.082 -0.9685  0.2942  1.9489
  362MOL0     H48850   8.192   2.268   8.166 -0.3450  0.3066 -1.1955
  362MOL0     H48851   8.255   2.388   8.370 -1.7358  1.1708  0.0668
  362MOL0     H48852   8.605   2.905   8.531  0.2306 -1.2974 -0.2680
  362MOL0     H48853   8.611   2.962   8.782 -0.1693 -0.0465  0.5005
  362MOL0     H48854   8.047   3.117  10.183  2.2912 -2.7521 -0.2118
  362MOL0     H48855   7.921   3.113  10.413 -0.1223 -0.2062 -3.0929
  362MOL0     H48856   7.981   3.165  10.848  1.2128  0.9627  1.2206
  362MOL0     H48857   7.928   3.131  11.061 -1.3057  1.9136  3.0845
  362MOL0     H48858   7.798   3.095  11.284  0.5688 -1.1584 -0.2539
  362MOL0     H48859   7.761   2.960  11.180  1.9090  1.0450  0.9534
  362MOL0     H48860   7.556   3.063  11.393  1.6874  1.8995 -0.4061
  362MOL0     H48861   7.683   2.944  11.433 -1.0436 -0.3688  0.2453
  362MOL0     H48862   7.624   2.799  11.272  2.5077  2.3297  0.1495
  362MOL0     H48863   7.512   2.920  11.192 -0.3600 -0.4693 -0.3765
  362MOL0     H48864   7.443   2.764  11.437  4.4457  0.4311 -0.0195
  362MOL0     H48865   7.355   2.920  11.382  1.5889  1.1700  0.4109
  362MOL0     H48866   7.188   2.690  11.090  0.2337  4.0134 -2.7784
  362MOL0     H48867   7.507   3.192  10.958 -0.3746 -1.1618 -2.6411
  362MOL0     H48868   7.440   3.249  10.759 -0.1541  3.6603  3.2747
  362MOL0     H48869   7.543   3.372  10.677  1.6048  0.0900  1.4249
  362MOL0     H48870   7.529   3.210  10.615 -0.0812  1.4534 -0.5641
  363MOL0     O48871   9.462   2.122   2.956  0.0300  0.0275 -0.2788
  363MOL0     C48872   9.549   2.180   2.887  0.7983  0.0629 -0.0512
  363MOL0     O48873   9.537   2.207   2.753 -0.0690  0.6340 -0.5037
  363MOL0     C48874   9.432   2.157   2.677  0.1952  0.3135 -1.0756
  363MOL0     C48875   9.426   2.024   2.649 -0.9118 -0.9420  0.2859
  363MOL0     C48876   9.315   1.970   2.580 -0.1525 -0.3677  0.4263
  363MOL0     C48877   9.198   2.049   2.560  1.0099  0.0066 -0.0948
  363MOL0     O48878   9.092   1.985   2.520  0.1121 -0.1579  0.3236
  363MOL0     C48879   8.985   2.065   2.474  0.3888  0.1112  1.1971
  363MOL0     C48880   8.862   1.979   2.429  0.1803  0.3365  0.7157
  363MOL0     C48881   8.779   1.942   2.551 -0.3217  0.3491 -0.1447
  363MOL0     C48882   8.679   2.054   2.572  0.7327 -0.0610  0.3704
  363MOL0     C48883   8.608   2.007   2.711  0.6968 -0.4535  0.6424
  363MOL0     C48884   8.512   2.116   2.772 -1.2744 -0.5734 -0.4588
  363MOL0     C48885   8.383   2.137   2.682 -0.8323  1.0360 -0.1287
  363MOL0     C48886   8.305   1.998   2.691  0.1308  0.0522  1.1921
  363MOL0     N48887   8.162   2.012   2.642  0.4678 -0.2641 -0.0124
  363MOL0     C48888   8.115   2.114   2.556  0.8574 -0.5049  0.0036
  363MOL0     C48889   7.975   2.100   2.569 -1.1408 -0.3130  0.4649
  363MOL0     C48890   7.890   2.199   2.489  0.8998  0.3698 -0.4534
  363MOL0     C48891   7.752   2.222   2.555  0.1821  0.3680  0.0901
  363MOL0     C48892   7.654   2.117   2.538 -0.0343  0.6338  0.1885
  363MOL0     C48893   7.582   2.097   2.400  0.5205 -0.5260 -0.0888
  363MOL0     O48894   7.472   2.020   2.429 -0.0800 -0.0210 -1.3798
  363MOL0     C48895   7.350   2.070   2.383  0.0331  0.2291 -0.3860
  363MOL0     C48896   7.268   2.151   2.459 -0.4850 -0.1566 -0.8163
  363MOL0     C48897   7.147   2.196   2.410  0.2225 -1.0912 -0.3163
  363MOL0     C48898   7.096   2.160   2.291 -0.0513  0.9347  0.0859
  363MOL0     C48899   6.958   2.203   2.253  0.7369 -0.7429  0.2581
  363MOL0     O48900   6.931   2.195   2.116  0.2115 -0.8262 -0.6386
  363MOL0     C48901   6.806   2.184   2.059 -0.0521  0.3374  0.1024
  363MOL0     C48902   6.680   2.140   2.130 -0.7908  0.9304 -0.0489
  363MOL0     C48903   6.562   2.107   2.060  0.2872  0.5566  0.7926
  363MOL0     C48904   6.562   2.126   1.921  0.5014 -0.4177  0.2803
  363MOL0     O48905   6.437   2.110   1.865 -0.2857 -0.8482  0.1261
  363MOL0     C48906   6.435   2.072   1.728  0.3741  0.4637 -0.3976
  363MOL0     C48907   6.294   2.013   1.698 -0.1091  0.6045 -0.3528
  363MOL0     C48908   6.309   1.920   1.572 -0.1135  0.0786 -0.0354
  363MOL0     C48909   6.162   1.883   1.522  1.0628 -0.7327  0.4414
  363MOL0     C48910   6.154   1.754   1.445  0.0091 -0.5911  0.9756
  363MOL0     C48911   6.035   1.759   1.343 -0.4587 -0.0045 -0.2677
  363MOL0     C48912   6.023   1.638   1.268 -0.2850  1.1487  0.6261
  363MOL0     C48913   5.880   1.604   1.217  0.4629 -0.5544 -0.2415
  363MOL0    Cl48914   5.784   1.574   1.372 -0.4281 -0.0130  0.1987
  363MOL0     C48915   6.679   2.164   1.852 -0.2725  1.4119 -1.1355
  363MOL0     C48916   6.807   2.189   1.919  0.3509 -0.3901 -0.1170
  363MOL0     O48917   6.876   2.218   2.342 -0.6843 -0.3744 -0.4978
  363MOL0     C48918   7.172   2.075   2.210 -0.1493 -0.0161 -0.1496
  363MOL0     C48919   7.303   2.033   2.256  0.3234 -0.2556  0.2955
  363MOL0     N48920   7.954   2.009   2.668  0.9753  0.6255  0.2344
  363MOL0     N48921   8.063   1.954   2.711  0.5983  1.0330 -0.3420
  363MOL0     C48922   9.202   2.190   2.599  0.1692 -0.0014  0.8023
  363MOL0     C48923   9.325   2.232   2.650  0.1546  0.9831 -0.1400
  363MOL0     C48924   9.677   2.222   2.945 -0.2340 -0.8063 -0.3923
  363MOL0     C48925   9.758   2.322   2.886 -0.2249 -0.1560  0.4661
  363MOL0     C48926   9.887   2.348   2.925 -0.8386 -0.0307 -1.0783
  363MOL0     C48927   9.940   2.280   3.031  1.0048  0.7183  0.8503
  363MOL0     O48928  10.069   2.297   3.072  0.1484 -0.5238 -0.0828
  363MOL0     C48929  10.158   2.195   3.029 -0.8953 -0.5520  0.5039
  363MOL0     C48930  10.290   2.251   2.968  0.4147  0.8871  0.3680
  363MOL0     C48931  10.403   2.262   3.060  0.2991  0.4942 -0.2218
  363MOL0     C48932  10.499   2.375   3.035 -0.0428 -0.1187  0.5857
  363MOL0     C48933  10.560   2.371   2.903  0.9294  0.0010 -0.1619
  363MOL0     C48934  10.603   2.356   2.786  0.0432  0.4156  0.3361
  363MOL0     C48935   9.860   2.203   3.107 -0.7046 -0.7485  0.5780
  363MOL0     C48936   9.728   2.177   3.073 -0.3664  0.3744 -0.6378
  363MOL0     C48937   9.648   2.081   3.159 -0.4172 -0.6760  0.2018
  363MOL0     H48938   9.518   1.970   2.667 -0.8361 -0.8093  0.3023
  363MOL0     H48939   9.326   1.866   2.552  0.7743 -0.0443 -0.4421
  363MOL0     H48940   8.947   2.128   2.555  1.5819 -1.4206  3.0451
  363MOL0     H48941   9.014   2.126   2.388 -2.6919 -0.0501 -0.0934
  363MOL0     H48942   8.899   1.898   2.366 -0.7494 -1.1233  1.9617
  363MOL0     H48943   8.794   2.035   2.363  0.1090 -0.5885 -0.0132
  363MOL0     H48944   8.845   1.935   2.637 -1.5049  0.9947  0.8393
  363MOL0     H48945   8.727   1.847   2.536 -1.4512  0.9995 -0.4836
  363MOL0     H48946   8.717   2.156   2.585 -1.5715  0.9865 -0.4945
  363MOL0     H48947   8.606   2.062   2.491  0.5407  1.2622  0.6519
  363MOL0     H48948   8.563   1.909   2.693 -1.3393  0.1352  2.1273
  363MOL0     H48949   8.688   1.994   2.784  1.9408 -0.5866 -0.7033
  363MOL0     H48950   8.470   2.078   2.866 -0.7096 -1.1279 -0.4280
  363MOL0     H48951   8.571   2.205   2.795 -2.3289 -0.2832  1.3214
  363MOL0     H48952   8.412   2.151   2.578 -0.8836 -2.7169 -0.7772
  363MOL0     H48953   8.323   2.213   2.733  0.2377  1.0162  1.2230
  363MOL0     H48954   8.359   1.918   2.638  3.6169  2.2781  1.0294
  363MOL0     H48955   8.309   1.977   2.798  0.4502 -2.4088  0.7701
  363MOL0     H48956   8.163   2.194   2.502  0.4881 -0.5308 -0.3688
  363MOL0     H48957   7.944   2.294   2.496 -1.9250  2.0223  1.0312
  363MOL0     H48958   7.887   2.160   2.387  2.3379 -3.0935  0.6937
  363MOL0     H48959   7.773   2.233   2.662 -1.1883 -1.4091  0.5730
  363MOL0     H48960   7.709   2.317   2.521 -1.4113 -0.1838  0.4833
  363MOL0     H48961   7.571   2.129   2.608  1.7842 -2.3437  3.1232
  363MOL0     H48962   7.706   2.026   2.568  0.7758  2.0442  3.5353
  363MOL0     H48963   7.639   2.044   2.324 -0.8238 -0.6552 -1.0431
  363MOL0     H48964   7.552   2.199   2.374 -0.6131 -1.1305 -1.2532
  363MOL0     H48965   7.306   2.189   2.553  2.9956 -1.5862 -1.5067
  363MOL0     H48966   7.088   2.264   2.471 -3.1449 -0.9042 -3.4190
  363MOL0     H48967   6.682   2.136   2.238 -3.3166 -2.7091  0.0299
  363MOL0     H48968   6.467   2.070   2.096  1.5774 -2.9777  0.9351
  363MOL0     H48969   6.442   2.160   1.662 -0.3992 -0.1715 -1.3710
  363MOL0     H48970   6.517   2.002   1.708 -0.9075 -0.6017 -2.2477
  363MOL0     H48971   6.258   1.953   1.783 -0.4735 -3.8784 -3.3297
  363MOL0     H48972   6.227   2.094   1.667 -1.4745  0.8041  2.6804
  363MOL0     H48973   6.371   1.970   1.496  2.6465 -0.0792  1.9850
  363MOL0     H48974   6.360   1.830   1.608 -2.5997 -1.8624 -1.0734
  363MOL0     H48975   6.122   1.971   1.470  2.8279  0.0197  0.2793
  363MOL0     H48976   6.094   1.857   1.603 -1.1937 -3.5753 -2.1372
  363MOL0     H48977   6.140   1.662   1.503 -1.2501 -4.8809 -5.1222
  363MOL0     H48978   6.243   1.732   1.386  0.6125 -0.5007  1.8396
  363MOL0     H48979   5.945   1.762   1.406  0.1651 -0.5214  0.6749
  363MOL0     H48980   6.050   1.845   1.277  0.7644 -0.9253 -1.2342
  363MOL0     H48981   6.076   1.555   1.317  0.0387 -1.1240 -3.1689
  363MOL0     H48982   6.080   1.652   1.176  0.9999  0.3672  1.2667
  363MOL0     H48983   5.833   1.677   1.150  2.0604 -0.1891 -1.0001
  363MOL0     H48984   5.890   1.511   1.160  1.0267  0.9137 -2.7048
  363MOL0     H48985   6.686   2.171   1.744  2.1892  1.5306 -1.0210
  363MOL0     H48986   6.892   2.196   1.853 -0.9743 -1.6914 -2.0896
  363MOL0     H48987   7.142   2.044   2.110  1.1667 -1.1346 -0.2432
  363MOL0     H48988   7.360   1.967   2.191 -1.2352 -0.0731 -1.3488
  363MOL0     H48989   9.124   2.263   2.582 -0.1007 -0.4779 -0.0719
  363MOL0     H48990   9.325   2.334   2.687 -1.3658  0.7848  0.4603
  363MOL0     H48991   9.731   2.384   2.801  2.3005  2.7090  1.5783
  363MOL0     H48992   9.940   2.427   2.871 -0.4086 -0.4279 -1.2491
  363MOL0     H48993  10.114   2.133   2.951  3.8862 -1.6919 -1.6401
  363MOL0     H48994  10.194   2.123   3.104  0.7066 -0.7020 -0.3585
  363MOL0     H48995  10.269   2.352   2.932 -3.1965  0.0080 -0.3792
  363MOL0     H48996  10.325   2.202   2.876  1.8884  1.9205  0.3373
  363MOL0     H48997  10.465   2.172   3.062 -1.7238 -0.9502  0.4068
  363MOL0     H48998  10.368   2.272   3.163 -2.9416 -1.7597 -0.9783
  363MOL0     H48999  10.447   2.467   3.065  0.0533  0.1784 -0.1340
  363MOL0     H49000  10.577   2.361   3.110  1.3704 -3.1988 -1.3068
  363MOL0     H49001  10.636   2.320   2.691  2.5137  2.8125  0.1493
  363MOL0     H49002   9.895   2.158   3.200 -0.6240 -1.2661  0.2977
  363MOL0     H49003   9.619   1.988   3.110 -2.3628 -1.7207  3.0416
  363MOL0     H49004   9.705   2.057   3.250 -0.8084  1.8068  1.2033
  363MOL0     H49005   9.553   2.127   3.189  0.0020  0.5568 -0.2925
  364MOL0     O49006  10.020   8.062   9.797 -0.2600  0.1827 -0.0015
  364MOL0     C49007  10.013   7.945   9.814  0.4143  0.6181 -0.6296
  364MOL0     O49008  10.002   7.856   9.715  0.3931  0.0765  0.8331
  364MOL0     C49009   9.983   7.899   9.584 -0.0893 -1.4853 -0.4286
  364MOL0     C49010  10.077   7.858   9.486  0.1295 -0.0386 -0.9787
  364MOL0     C49011  10.071   7.905   9.352  0.3930  0.9794 -0.1061
  364MOL0     C49012   9.957   7.975   9.306 -0.4848  0.3719  0.4129
  364MOL0     O49013   9.957   8.000   9.171 -0.1259  0.0783 -0.6981
  364MOL0     C49014   9.923   8.138   9.154  0.4225  0.0594 -0.0473
  364MOL0     C49015   9.966   8.184   9.011  0.3736  0.1164  0.9378
  364MOL0     C49016  10.118   8.163   8.973 -0.0163 -0.4262  0.1748
  364MOL0     C49017  10.140   8.138   8.826  1.2151 -1.4737 -0.4125
  364MOL0     C49018  10.284   8.093   8.793  0.0960  0.2341 -0.4057
  364MOL0     C49019  10.384   8.195   8.849 -0.6358  0.0998 -0.5909
  364MOL0     C49020  10.531   8.148   8.826  0.3747  0.2887  0.6408
  364MOL0     C49021  10.576   8.134   8.677 -0.0100  0.8254 -0.1092
  364MOL0     N49022  10.549   8.251   8.608  0.3249  0.1801  0.2497
  364MOL0     C49023  10.460   8.253   8.497  0.0435  0.0209 -0.4006
  364MOL0     C49024  10.479   8.375   8.446 -0.2562  0.0160  0.1810
  364MOL0     C49025  10.410   8.440   8.333  0.3890 -0.4664  0.2605
  364MOL0     C49026  10.358   8.576   8.384  0.5646 -0.2749 -0.6888
  364MOL0     C49027  10.262   8.560   8.506  0.5214 -0.2835  0.3355
  364MOL0     C49028  10.123   8.484   8.487 -0.6473 -0.1185  0.5717
  364MOL0     O49029  10.019   8.527   8.574  0.1034 -0.5679  0.1718
  364MOL0     C49030   9.926   8.442   8.626 -0.1743 -1.3198  0.0343
  364MOL0     C49031   9.909   8.309   8.591  0.3953 -0.9688 -0.6819
  364MOL0     C49032   9.805   8.234   8.658 -0.1260  0.5186  0.2052
  364MOL0     C49033   9.731   8.288   8.762  0.0320 -0.4865  0.5877
  364MOL0     C49034   9.649   8.212   8.861 -0.1703  0.8891  0.6040
  364MOL0     O49035   9.678   8.075   8.884  0.0083 -0.4598 -0.2239
  364MOL0     C49036   9.577   8.016   8.942  0.8568  0.0970 -0.3598
  364MOL0     C49037   9.440   8.016   8.908  0.4816 -0.4633 -0.1682
  364MOL0     C49038   9.349   7.933   8.974  0.1873 -0.2348 -1.1266
  364MOL0     C49039   9.380   7.875   9.099 -0.5123  0.1445  0.1065
  364MOL0     O49040   9.302   7.797   9.179 -0.2607  0.5718 -0.3109
  364MOL0     C49041   9.170   7.837   9.199  0.4518 -0.4421  0.0792
  364MOL0     C49042   9.091   7.754   9.296 -0.1566  0.2704 -0.6478
  364MOL0     C49043   9.098   7.597   9.285  0.2853 -0.5002 -0.0301
  364MOL0     C49044   9.224   7.531   9.346  0.0012 -1.0257  1.4958
  364MOL0     C49045   9.235   7.380   9.316  0.1912  0.3605  0.0648
  364MOL0     C49046   9.300   7.344   9.183  0.4921  0.3412 -0.7084
  364MOL0     C49047   9.316   7.194   9.162 -0.7048 -0.2883 -0.0311
  364MOL0     C49048   9.381   7.178   9.026 -0.6385  0.9003 -0.1403
  364MOL0    Cl49049   9.423   7.012   8.971 -0.1358 -0.3028 -0.2926
  364MOL0     C49050   9.520   7.871   9.129 -0.2713 -0.1555 -0.0121
  364MOL0     C49051   9.613   7.933   9.045 -0.4278 -0.2679 -0.0877
  364MOL0     O49052   9.569   8.280   8.919  0.1067  0.1409  0.3896
  364MOL0     C49053   9.763   8.421   8.798  0.8194  0.0750  0.3683
  364MOL0     C49054   9.847   8.492   8.731 -0.2973 -1.2272 -0.6405
  364MOL0     N49055  10.572   8.438   8.515  0.5835 -0.1581 -0.6767
  364MOL0     N49056  10.608   8.371   8.620  0.0919  0.5172 -0.2760
  364MOL0     C49057   9.862   8.015   9.405 -0.2937 -0.6305 -0.1760
  364MOL0     C49058   9.873   7.976   9.543  1.0243 -0.6433  0.6094
  364MOL0     C49059  10.031   7.898   9.960  0.1903 -0.0629  0.5557
  364MOL0     C49060  10.017   7.760   9.977 -1.0956 -0.4106 -0.9494
  364MOL0     C49061  10.034   7.704  10.101  0.1781 -0.6045  0.4586
  364MOL0     C49062  10.068   7.780  10.214 -0.1446 -0.0149 -0.1246
  364MOL0     O49063  10.079   7.713  10.334  0.4168 -0.1283 -0.5062
  364MOL0     C49064  10.142   7.781  10.447 -0.0976 -0.6036  0.3887
  364MOL0     C49065  10.188   7.675  10.546  0.1006 -0.1590  0.5869
  364MOL0     C49066  10.080   7.613  10.619 -0.3766 -0.5830  0.3973
  364MOL0     C49067  10.125   7.560  10.756  0.6755 -0.0822  0.4776
  364MOL0     C49068  10.031   7.466  10.825 -0.0294 -0.6786  0.8847
  364MOL0     C49069   9.979   7.388  10.896  0.3735 -0.1836  0.4754
  364MOL0     C49070  10.084   7.921  10.200 -0.2691 -0.1128  0.0960
  364MOL0     C49071  10.073   7.977  10.070 -0.0837 -0.2630 -0.5353
  364MOL0     C49072  10.093   8.134  10.058 -1.1182 -1.5945 -0.3090
  364MOL0     H49073  10.151   7.795   9.534 -0.0809  1.4576  1.5000
  364MOL0     H49074  10.154   7.897   9.282  1.0382  2.1897  0.4704
  364MOL0     H49075   9.816   8.142   9.177  0.3006 -2.0250 -0.0103
  364MOL0     H49076   9.971   8.207   9.224  0.7499  3.3386 -3.1999
  364MOL0     H49077   9.942   8.289   8.995 -0.4215 -0.0263  1.1534
  364MOL0     H49078   9.905   8.125   8.942 -0.7706  0.5558  1.5459
  364MOL0     H49079  10.160   8.071   9.015  3.3635  0.5454 -0.8256
  364MOL0     H49080  10.175   8.249   9.009 -2.7182  1.1097  1.0990
  364MOL0     H49081  10.084   8.046   8.802 -1.5784  0.6058 -2.5441
  364MOL0     H49082  10.118   8.225   8.764  0.8480 -0.3569  1.2415
  364MOL0     H49083  10.307   7.991   8.825  0.3982  0.8969  1.6140
  364MOL0     H49084  10.288   8.083   8.684 -2.6088 -2.1486 -0.3968
  364MOL0     H49085  10.373   8.297   8.811  2.1396  0.3159 -1.0031
  364MOL0     H49086  10.388   8.186   8.958  0.6401 -1.8007 -0.7313
  364MOL0     H49087  10.551   8.048   8.866 -0.1577 -0.5071 -0.9713
  364MOL0     H49088  10.602   8.207   8.884  2.0117 -0.2414 -0.7288
  364MOL0     H49089  10.683   8.113   8.665 -0.3748 -1.6251  0.3499
  364MOL0     H49090  10.518   8.051   8.634  1.3342  0.5036 -1.3863
  364MOL0     H49091  10.382   8.183   8.472 -0.4733  0.2944  0.3971
  364MOL0     H49092  10.487   8.468   8.260  0.2426 -2.0469 -0.5278
  364MOL0     H49093  10.332   8.383   8.280 -1.2963  0.0062  2.1105
  364MOL0     H49094  10.445   8.634   8.416 -0.2103 -0.0753  1.2067
  364MOL0     H49095  10.303   8.635   8.310  0.9211  0.9021 -0.0422
  364MOL0     H49096  10.232   8.656   8.547  0.8126 -0.0455  0.0032
  364MOL0     H49097  10.305   8.508   8.592 -1.7183 -0.5949  1.3469
  364MOL0     H49098  10.148   8.384   8.523  1.0657  0.8254  2.1691
  364MOL0     H49099  10.099   8.500   8.381  3.0985  0.7315 -0.3244
  364MOL0     H49100   9.956   8.261   8.505 -1.0991 -0.9986 -1.5214
  364MOL0     H49101   9.791   8.133   8.622  2.5992  0.1027  0.1065
  364MOL0     H49102   9.395   8.072   8.827 -2.5138  3.9684  3.9732
  364MOL0     H49103   9.247   7.924   8.937  0.1514 -0.4295 -0.9807
  364MOL0     H49104   9.166   7.941   9.233  2.2795  0.2994 -1.7665
  364MOL0     H49105   9.114   7.817   9.107 -1.0043 -1.5969  1.1746
  364MOL0     H49106   9.097   7.778   9.402 -2.8036  3.5965 -1.0874
  364MOL0     H49107   8.986   7.782   9.286 -0.1059  1.6852  1.9752
  364MOL0     H49108   9.020   7.549   9.345 -0.7814  1.2541  0.0422
  364MOL0     H49109   9.076   7.567   9.182 -1.2386  0.6781 -0.0961
  364MOL0     H49110   9.200   7.544   9.452 -1.9248  2.0321  0.8101
  364MOL0     H49111   9.324   7.571   9.324 -0.2930  0.4512  2.7321
  364MOL0     H49112   9.137   7.334   9.328 -0.0043  0.7752  0.1067
  364MOL0     H49113   9.299   7.327   9.387 -1.4182  0.8883  1.9916
  364MOL0     H49114   9.252   7.389   9.096  2.1856 -0.4143 -2.0758
  364MOL0     H49115   9.396   7.395   9.197 -0.1639  1.4928 -0.2764
  364MOL0     H49116   9.227   7.134   9.179 -0.8038  0.4587  2.5322
  364MOL0     H49117   9.388   7.161   9.237  0.2636  0.4199 -0.6169
  364MOL0     H49118   9.323   7.229   8.948 -2.1506 -0.0582  0.3191
  364MOL0     H49119   9.473   7.234   9.042 -0.2353  0.1266  0.2958
  364MOL0     H49120   9.557   7.816   9.214  2.6817  2.1725  0.3335
  364MOL0     H49121   9.720   7.935   9.063 -0.6461  0.4800  1.2729
  364MOL0     H49122   9.718   8.467   8.885 -2.0145  0.1132 -0.9801
  364MOL0     H49123   9.875   8.590   8.768  2.7569 -1.7353 -1.3694
  364MOL0     H49124   9.769   8.050   9.362  0.4666  1.2140 -0.3981
  364MOL0     H49125   9.795   8.005   9.614  3.5981  4.6619  1.7644
  364MOL0     H49126  10.005   7.695   9.890  0.8960  0.3476 -1.8486
  364MOL0     H49127  10.032   7.596  10.112 -1.8122 -0.7062 -0.5169
  364MOL0     H49128  10.066   7.845  10.492 -0.5143 -0.2065 -0.8444
  364MOL0     H49129  10.223   7.847  10.414 -0.4143 -0.9632 -1.1790
  364MOL0     H49130  10.261   7.721  10.614  1.2978  1.2728 -1.5704
  364MOL0     H49131  10.236   7.593  10.493 -0.1729 -0.2471  0.4756
  364MOL0     H49132  10.048   7.530  10.557 -0.0506  0.4417 -1.1874
  364MOL0     H49133  10.002   7.689  10.632  0.0684  0.0251 -0.3925
  364MOL0     H49134  10.212   7.500  10.727  0.0768 -0.4847 -0.5100
  364MOL0     H49135  10.160   7.641  10.821  0.0235  1.4866 -1.0269
  364MOL0     H49136   9.921   7.346  10.976  1.7433 -3.3818 -0.0390
  364MOL0     H49137  10.121   7.978  10.285 -0.2920 -4.0528  3.0051
  364MOL0     H49138  10.011   8.163   9.992 -2.6242 -1.7051  1.4226
  364MOL0     H49139  10.078   8.175  10.159 -1.4313 -3.5281  0.4830
  364MOL0     H49140  10.189   8.162  10.014 -0.8955 -1.1507  0.4347
  365MOL0     O49141   9.041   1.438   7.804 -0.6186 -0.4461  0.4795
  365MOL0     C49142   9.049   1.434   7.933 -0.1007  1.0567  0.6880
  365MOL0     O49143   9.033   1.320   8.013  0.7989 -0.3232  0.2552
  365MOL0     C49144   9.002   1.200   7.956 -0.3426  0.4987  1.0604
  365MOL0     C49145   9.105   1.101   7.945 -0.4127  0.1046 -0.1664
  365MOL0     C49146   9.074   0.972   7.897  0.5872  0.5244  0.0945
  365MOL0     C49147   8.942   0.951   7.844 -0.6227  0.3544 -1.2440
  365MOL0     O49148   8.898   0.830   7.820  0.4522 -0.0229  0.1242
  365MOL0     C49149   8.909   0.811   7.678 -0.2270  0.8265 -0.6448
  365MOL0     C49150   8.862   0.668   7.660  0.2680  0.5479  0.3140
  365MOL0     C49151   8.888   0.650   7.514 -0.7581  0.2884 -0.6630
  365MOL0     C49152   8.821   0.521   7.464  0.2900 -1.0490  0.7896
  365MOL0     C49153   8.791   0.523   7.310 -0.3727  1.1626  0.2970
  365MOL0     C49154   8.917   0.499   7.229  0.2608 -0.7004 -0.1232
  365MOL0     C49155   8.895   0.518   7.080  0.8189 -0.0527  0.3995
  365MOL0     C49156   9.013   0.594   7.001  0.3388 -0.0632 -0.8316
  365MOL0     N49157   9.065   0.497   6.913 -0.0099 -0.2406  0.0836
  365MOL0     C49158   9.058   0.511   6.769  0.5393  0.3311 -1.0377
  365MOL0     C49159   9.133   0.408   6.724  1.0850 -0.0706 -0.8796
  365MOL0     C49160   9.143   0.384   6.576  0.4471 -0.1273 -0.1046
  365MOL0     C49161   9.276   0.420   6.507 -0.2569  0.0803 -0.1954
  365MOL0     C49162   9.397   0.356   6.587  0.3232 -0.2197  0.6179
  365MOL0     C49163   9.393   0.207   6.614  0.5676  0.2389 -0.4119
  365MOL0     O49164   9.528   0.169   6.648 -0.0806 -0.1775 -0.4791
  365MOL0     C49165   9.585   0.190   6.772  0.0994  0.6578 -0.0596
  365MOL0     C49166   9.508   0.213   6.890  0.2943 -0.2877 -0.0676
  365MOL0     C49167   9.569   0.240   7.012 -0.9444  0.2929  0.2835
  365MOL0     C49168   9.712   0.227   7.024  0.5626 -0.8074  0.0621
  365MOL0     C49169   9.780   0.278   7.151  0.9105  0.2500  0.6317
  365MOL0     O49170   9.923   0.280   7.147  0.0388 -0.1370 -0.5151
  365MOL0     C49171   9.995   0.343   7.245 -0.0893 -0.9620 -0.2938
  365MOL0     C49172  10.080   0.454   7.217  0.1258  1.2420 -0.3877
  365MOL0     C49173  10.166   0.511   7.307 -0.1110  0.7923 -0.6130
  365MOL0     C49174  10.175   0.456   7.438  0.3477  0.1674 -0.4678
  365MOL0     O49175  10.276   0.511   7.517 -0.4542  0.0532  0.0009
  365MOL0     C49176  10.306   0.423   7.627 -0.0075  0.4105 -0.6623
  365MOL0     C49177  10.422   0.483   7.706  0.0534  0.0893  0.0243
  365MOL0     C49178  10.555   0.470   7.621  0.4007  1.5396  0.4349
  365MOL0     C49179  10.656   0.563   7.685 -0.0303 -0.0430  0.1718
  365MOL0     C49180  10.789   0.565   7.602 -0.2919  0.0369  1.3416
  365MOL0     C49181  10.901   0.632   7.681 -0.0226  0.7602 -0.1545
  365MOL0     C49182  11.011   0.668   7.587  0.2593 -0.9782  0.0193
  365MOL0     C49183  11.095   0.767   7.651 -0.6877 -0.1256 -1.1106
  365MOL0    Cl49184  11.007   0.920   7.651  0.6492 -0.0872 -0.1808
  365MOL0     C49185  10.084   0.349   7.475  0.3270  0.1218  0.3438
  365MOL0     C49186   9.989   0.300   7.381 -0.5007  0.1602 -0.2373
  365MOL0     O49187   9.711   0.315   7.249  0.4501 -0.3507 -0.4021
  365MOL0     C49188   9.785   0.196   6.907  0.5907 -0.1019 -0.4194
  365MOL0     C49189   9.724   0.185   6.783  0.6638 -0.4211 -0.2890
  365MOL0     N49190   9.192   0.347   6.835  0.0349  0.3506  0.2461
  365MOL0     N49191   9.157   0.400   6.948 -0.0665 -0.3880  0.5853
  365MOL0     C49192   8.845   1.048   7.864  0.4500  0.4681  0.3803
  365MOL0     C49193   8.875   1.179   7.911  0.3473 -0.0833  0.4381
  365MOL0     C49194   9.043   1.565   7.997 -0.6517 -0.4261  0.2779
  365MOL0     C49195   8.935   1.651   7.972 -0.7161  0.5540  0.3987
  365MOL0     C49196   8.933   1.770   8.040 -0.2801 -0.4008 -0.7622
  365MOL0     C49197   9.025   1.815   8.134  0.2034 -0.5510 -0.0759
  365MOL0     O49198   9.011   1.945   8.186 -0.1018  0.0412 -0.3049
  365MOL0     C49199   9.074   1.973   8.313  0.6655  1.7306  0.1515
  365MOL0     C49200   9.003   1.900   8.433  0.7127  1.0230  1.2671
  365MOL0     C49201   9.079   1.945   8.565  0.4198 -1.3372 -1.2437
  365MOL0     C49202   9.003   1.924   8.703  0.0422  0.2252 -0.0779
  365MOL0     C49203   8.992   1.781   8.731 -0.5960  0.2528 -0.0252
  365MOL0     C49204   8.985   1.661   8.753  0.4423  0.0559  0.0569
  365MOL0     C49205   9.128   1.728   8.164  0.0215 -0.3514 -0.2937
  365MOL0     C49206   9.139   1.615   8.089  1.1324 -0.3970 -0.4890
  365MOL0     C49207   9.256   1.528   8.112 -0.3661 -0.2525  1.1620
  365MOL0     H49208   9.201   1.126   7.990 -0.2257 -1.2330  0.2092
  365MOL0     H49209   9.150   0.895   7.901 -0.1001 -0.1868 -0.4089
  365MOL0     H49210   8.844   0.877   7.621 -0.8824  0.7620  0.0279
  365MOL0     H49211   9.014   0.817   7.646 -0.0056 -0.0870 -0.1547
  365MOL0     H49212   8.756   0.660   7.687  0.7837 -1.2137  2.0787
  365MOL0     H49213   8.907   0.591   7.724 -0.9870  2.5049  3.8858
  365MOL0     H49214   8.996   0.636   7.498 -0.8029 -4.2662  1.5358
  365MOL0     H49215   8.851   0.736   7.457 -1.9516  0.8501  0.8810
  365MOL0     H49216   8.896   0.444   7.484  0.8461 -0.6202  0.3796
  365MOL0     H49217   8.726   0.512   7.517 -0.5258  1.3729 -0.1392
  365MOL0     H49218   8.732   0.436   7.280  0.0411  2.1132 -4.0372
  365MOL0     H49219   8.746   0.615   7.274 -0.5951  0.7016 -0.6487
  365MOL0     H49220   9.006   0.556   7.258 -0.0687  0.6601 -1.5938
  365MOL0     H49221   8.947   0.395   7.244 -1.8025 -1.7946 -2.6500
  365MOL0     H49222   8.812   0.587   7.060  0.3679 -0.7268 -0.0670
  365MOL0     H49223   8.862   0.428   7.028 -1.5723  0.6840  0.5116
  365MOL0     H49224   8.982   0.687   6.953 -0.9971 -0.9951 -1.8728
  365MOL0     H49225   9.103   0.622   7.056  0.7670 -0.2678 -1.4256
  365MOL0     H49226   8.999   0.583   6.713 -1.6988 -1.0782 -0.5956
  365MOL0     H49227   9.117   0.279   6.561 -2.2080  0.8993 -4.5528
  365MOL0     H49228   9.067   0.447   6.530 -2.9946 -2.1998  2.3459
  365MOL0     H49229   9.268   0.363   6.414 -0.4879 -1.8640  0.9727
  365MOL0     H49230   9.285   0.527   6.483  1.4996  0.0914  0.3620
  365MOL0     H49231   9.407   0.407   6.683  0.6983  2.6695 -0.8402
  365MOL0     H49232   9.491   0.381   6.538  1.5915  1.1146  3.5218
  365MOL0     H49233   9.382   0.158   6.517  3.1709  4.2630 -3.0540
  365MOL0     H49234   9.320   0.169   6.686  2.0608 -1.3916  0.3104
  365MOL0     H49235   9.400   0.218   6.878  0.3085  3.8986  0.0129
  365MOL0     H49236   9.502   0.270   7.092 -0.6092 -1.6111  1.3492
  365MOL0     H49237  10.093   0.484   7.114  1.7868  1.3185 -0.1786
  365MOL0     H49238  10.224   0.592   7.264  1.6373 -0.5409 -0.8783
  365MOL0     H49239  10.214   0.422   7.686 -1.3969 -2.5673 -2.5986
  365MOL0     H49240  10.335   0.322   7.595  1.4171  1.6077 -3.4687
  365MOL0     H49241  10.385   0.585   7.712 -0.2338  0.0693 -1.0990
  365MOL0     H49242  10.433   0.444   7.808  2.6864  0.9518  0.1429
  365MOL0     H49243  10.594   0.368   7.633 -0.8579  0.6009 -2.5169
  365MOL0     H49244  10.539   0.494   7.516 -1.9658 -0.0182  0.3627
  365MOL0     H49245  10.668   0.553   7.793  0.3532  0.0393  0.1390
  365MOL0     H49246  10.614   0.664   7.675  2.4545  0.9440 -1.3475
  365MOL0     H49247  10.759   0.619   7.512  0.6037  0.4895  1.3071
  365MOL0     H49248  10.811   0.460   7.585 -6.3646 -1.0400 -2.9111
  365MOL0     H49249  10.857   0.721   7.728 -0.1805  0.5100  0.1763
  365MOL0     H49250  10.945   0.561   7.751 -1.2799 -1.3180 -1.3699
  365MOL0     H49251  10.960   0.700   7.495 -0.0598 -0.8049  0.2560
  365MOL0     H49252  11.062   0.579   7.549 -0.4793 -0.7898 -1.4870
  365MOL0     H49253  11.125   0.726   7.748 -0.9328  2.7580  0.2653
  365MOL0     H49254  11.188   0.789   7.598 -0.9162 -1.0203 -1.9120
  365MOL0     H49255  10.083   0.308   7.575 -1.8182 -1.1817 -0.1543
  365MOL0     H49256   9.925   0.216   7.403  1.6288 -0.8087  2.9778
  365MOL0     H49257   9.893   0.201   6.917  0.5202 -0.2660  0.5352
  365MOL0     H49258   9.782   0.153   6.697  0.5049 -2.4907  0.3052
  365MOL0     H49259   8.750   1.011   7.828  0.0348  0.2885  1.6101
  365MOL0     H49260   8.796   1.250   7.935  3.3928  3.2031  1.6679
  365MOL0     H49261   8.867   1.627   7.891 -2.5218  2.0036  1.3850
  365MOL0     H49262   8.857   1.845   8.022  1.5102  1.5369 -0.6543
  365MOL0     H49263   9.061   2.079   8.336  1.5137  1.5448  1.6725
  365MOL0     H49264   9.181   1.951   8.317  0.3361 -0.5048 -1.3498
  365MOL0     H49265   9.014   1.791   8.432  0.6809  0.9819  2.9274
  365MOL0     H49266   8.897   1.928   8.431  0.6328  0.7298  1.3173
  365MOL0     H49267   9.097   2.052   8.553 -1.9918 -1.1636 -4.8551
  365MOL0     H49268   9.174   1.891   8.569  0.7453 -0.7192 -0.3713
  365MOL0     H49269   9.068   1.978   8.773  0.4452  1.5507 -1.4215
  365MOL0     H49270   8.908   1.978   8.693  0.7020  1.3449 -0.4893
  365MOL0     H49271   8.974   1.555   8.766 -0.6672 -0.2018 -2.4913
  365MOL0     H49272   9.196   1.740   8.248  0.0801 -1.3909 -0.1742
  365MOL0     H49273   9.302   1.520   8.013  1.0195 -0.3660  1.7991
  365MOL0     H49274   9.324   1.567   8.188 -1.2410 -0.8263  2.2680
  365MOL0     H49275   9.226   1.426   8.141 -1.6040 -0.1904  0.1839
  366MOL0     O49276   8.446   7.137   4.342 -0.0885  0.7541 -0.2485
  366MOL0     C49277   8.407   7.077   4.441 -0.3845 -0.4060 -0.5648
  366MOL0     O49278   8.424   7.123   4.568  0.1102 -0.0256 -0.4419
  366MOL0     C49279   8.512   7.227   4.600  0.3564  0.4085 -0.6374
  366MOL0     C49280   8.467   7.357   4.617 -0.8262 -0.3324 -0.3225
  366MOL0     C49281   8.570   7.472   4.614 -0.6312  0.3979 -0.6395
  366MOL0     C49282   8.705   7.434   4.599 -0.5165 -0.6450 -0.4221
  366MOL0     O49283   8.809   7.522   4.601 -0.2930 -0.3243 -0.5300
  366MOL0     C49284   8.785   7.662   4.587  0.5194  0.3330  0.3584
  366MOL0     C49285   8.918   7.725   4.601 -0.5488 -0.1341  0.4004
  366MOL0     C49286   8.911   7.870   4.629  0.3126 -0.7705  0.5227
  366MOL0     C49287   9.044   7.938   4.663 -0.6166 -0.0931  0.6028
  366MOL0     C49288   9.030   8.094   4.675 -0.4310  0.2593  0.2022
  366MOL0     C49289   9.157   8.167   4.706  0.2699 -0.7695  0.6345
  366MOL0     C49290   9.132   8.328   4.705  0.0293 -0.2482  0.6366
  366MOL0     C49291   9.083   8.389   4.571 -0.1299 -0.9767  0.8877
  366MOL0     N49292   9.021   8.524   4.588 -0.3950  0.1072 -0.4386
  366MOL0     C49293   8.890   8.540   4.631  0.4246  0.1664 -0.4197
  366MOL0     C49294   8.868   8.668   4.596  0.2290  0.9261 -0.1923
  366MOL0     C49295   8.728   8.727   4.608  0.0002 -0.1657  0.3566
  366MOL0     C49296   8.699   8.801   4.735 -0.0784  0.7913  0.4273
  366MOL0     C49297   8.562   8.765   4.793  0.8891 -0.1059 -0.3342
  366MOL0     C49298   8.563   8.627   4.852  0.6390  0.1983  0.0755
  366MOL0     O49299   8.680   8.602   4.928 -0.5738  0.7383 -0.1850
  366MOL0     C49300   8.731   8.479   4.960  0.2773 -0.7428  1.2005
  366MOL0     C49301   8.823   8.461   5.065 -0.2233  0.2077 -0.5049
  366MOL0     C49302   8.897   8.340   5.074 -0.4484 -0.2128 -0.2253
  366MOL0     C49303   8.870   8.231   4.989  0.7184 -0.6427 -0.3960
  366MOL0     C49304   8.943   8.103   5.006 -0.1700 -0.0595 -0.1207
  366MOL0     O49305   9.063   8.111   5.074 -0.0511 -0.2637  0.2770
  366MOL0     C49306   9.124   7.988   5.103 -0.7573 -0.8280  0.5693
  366MOL0     C49307   9.055   7.878   5.163  0.0966 -0.2656  0.0326
  366MOL0     C49308   9.136   7.774   5.196  0.2210 -0.3026 -0.0968
  366MOL0     C49309   9.277   7.777   5.191  0.9062 -0.3162 -0.6639
  366MOL0     O49310   9.338   7.652   5.207  0.0508 -0.4782  0.2387
  366MOL0     C49311   9.324   7.570   5.090 -0.5438  0.2251  0.5128
  366MOL0     C49312   9.456   7.502   5.083  0.2500 -0.0618  0.8742
  366MOL0     C49313   9.473   7.388   4.972  0.1217  0.3915 -0.2681
  366MOL0     C49314   9.390   7.265   5.016  0.0930  0.8583  0.1363
  366MOL0     C49315   9.376   7.169   4.898  0.0775 -0.7816  0.5866
  366MOL0     C49316   9.293   7.051   4.942 -0.7993 -0.1402  0.5179
  366MOL0     C49317   9.254   6.945   4.828  0.1330  0.0636 -0.2298
  366MOL0     C49318   9.184   6.997   4.704  0.1510 -0.5373 -0.1653
  366MOL0    Cl49319   9.055   7.109   4.743 -0.3838 -0.2821  0.0137
  366MOL0     C49320   9.350   7.890   5.154  0.8556 -0.0643 -0.4208
  366MOL0     C49321   9.265   7.997   5.110  0.6739  0.2174 -0.2974
  366MOL0     O49322   8.885   8.000   4.976 -0.0157  0.5326 -1.0447
  366MOL0     C49323   8.757   8.240   4.898 -0.7823  1.0167 -0.6146
  366MOL0     C49324   8.705   8.367   4.877  0.6922  0.2210  0.4236
  366MOL0     N49325   8.986   8.732   4.557 -0.3482 -0.0446 -0.8039
  366MOL0     N49326   9.082   8.639   4.551 -0.0795 -0.6716  0.9699
  366MOL0     C49327   8.744   7.299   4.602  0.4129  1.3771 -0.1751
  366MOL0     C49328   8.649   7.199   4.603  0.6470 -0.7328  0.0132
  366MOL0     C49329   8.340   6.939   4.436  0.0269 -0.4735 -0.1383
  366MOL0     C49330   8.251   6.907   4.544 -0.2203  0.3368  0.9093
  366MOL0     C49331   8.175   6.784   4.546 -1.7162  0.8400 -0.1257
  366MOL0     C49332   8.166   6.701   4.432 -0.7296 -1.6688 -0.2963
  366MOL0     O49333   8.086   6.595   4.453  0.1390  0.6517  0.8482
  366MOL0     C49334   8.054   6.514   4.341  0.5524  0.6779  0.7390
  366MOL0     C49335   8.005   6.377   4.388  0.2779 -0.5377 -0.2556
  366MOL0     C49336   7.914   6.318   4.284 -0.0181  1.0121 -0.4950
  366MOL0     C49337   7.994   6.249   4.170  0.5842 -1.1765 -0.3106
  366MOL0     C49338   8.078   6.131   4.212 -0.1315 -0.5962  0.1464
  366MOL0     C49339   8.119   6.021   4.227 -0.2425  0.0710 -0.4068
  366MOL0     C49340   8.242   6.745   4.322 -0.2006 -0.2780  0.3951
  366MOL0     C49341   8.330   6.855   4.318 -0.3086  0.1067  0.0648
  366MOL0     C49342   8.390   6.876   4.187 -0.0223 -0.1981 -0.3613
  366MOL0     H49343   8.360   7.372   4.623 -0.7557 -0.2244  0.7840
  366MOL0     H49344   8.521   7.568   4.627 -0.5201  0.2260  1.3658
  366MOL0     H49345   8.735   7.693   4.494 -0.6046 -0.8667  0.5417
  366MOL0     H49346   8.719   7.697   4.667  0.6494  4.4946 -1.1254
  366MOL0     H49347   8.972   7.706   4.508 -0.3488 -6.1268  1.3461
  366MOL0     H49348   8.976   7.674   4.679 -0.4746  0.2974  0.6327
  366MOL0     H49349   8.844   7.892   4.713  1.0276  2.1517  0.4363
  366MOL0     H49350   8.876   7.923   4.540  0.7182  1.8269  1.8083
  366MOL0     H49351   9.107   7.893   4.740  3.6406 -0.1218 -2.4960
  366MOL0     H49352   9.114   7.910   4.583 -2.1585 -0.9180 -0.5139
  366MOL0     H49353   9.004   8.129   4.574  0.9616  2.0092  0.3919
  366MOL0     H49354   8.960   8.141   4.745 -0.6150 -0.1420  0.2915
  366MOL0     H49355   9.211   8.138   4.797 -0.3398 -4.3255 -0.0003
  366MOL0     H49356   9.230   8.140   4.629  1.4271  1.5960  0.7935
  366MOL0     H49357   9.231   8.365   4.733  0.7899 -1.8697  0.2086
  366MOL0     H49358   9.057   8.352   4.780 -0.5658 -2.8309  0.9788
  366MOL0     H49359   9.140   8.374   4.479 -4.0757 -1.2834 -1.7772
  366MOL0     H49360   8.991   8.337   4.542  0.3044 -1.5971  0.6061
  366MOL0     H49361   8.824   8.460   4.663  0.3643  1.5534  3.5045
  366MOL0     H49362   8.711   8.804   4.532  2.0667 -0.8999 -0.9280
  366MOL0     H49363   8.652   8.652   4.588 -0.6237  0.3439  0.7701
  366MOL0     H49364   8.776   8.772   4.807  0.8993  2.3192  0.0581
  366MOL0     H49365   8.712   8.906   4.707 -0.3678  0.8799  0.6270
  366MOL0     H49366   8.481   8.768   4.719 -0.2217 -0.9497  0.8097
  366MOL0     H49367   8.535   8.826   4.879 -1.0816  2.1269 -2.3918
  366MOL0     H49368   8.554   8.561   4.765  1.9201  0.8862 -0.5999
  366MOL0     H49369   8.475   8.613   4.915  0.3065  0.0404 -0.4131
  366MOL0     H49370   8.846   8.538   5.138  0.7600  0.2376 -0.8329
  366MOL0     H49371   8.974   8.342   5.150  0.0391  0.0952 -0.7202
  366MOL0     H49372   8.947   7.864   5.169  0.3275 -2.3326  0.0712
  366MOL0     H49373   9.096   7.678   5.226 -0.4049 -0.5480 -1.5989
  366MOL0     H49374   9.252   7.489   5.101 -0.1662 -0.1539  0.2282
  366MOL0     H49375   9.292   7.624   5.000 -1.0740 -1.8032 -0.5790
  366MOL0     H49376   9.539   7.571   5.064 -0.2286  0.4171  0.4900
  366MOL0     H49377   9.474   7.446   5.175  0.9596  1.1004  1.4603
  366MOL0     H49378   9.453   7.424   4.871  2.3073  1.8662 -0.2414
  366MOL0     H49379   9.575   7.349   4.973 -0.6783 -1.9881  1.8274
  366MOL0     H49380   9.296   7.296   5.062  1.0899 -0.0952  3.0299
  366MOL0     H49381   9.450   7.207   5.087 -0.3954 -2.8651 -2.2097
  366MOL0     H49382   9.474   7.133   4.868 -0.3696 -1.0247 -0.6748
  366MOL0     H49383   9.330   7.225   4.815  1.5761  1.1727  0.9798
  366MOL0     H49384   9.339   7.000   5.028  0.0228 -1.9818 -0.9477
  366MOL0     H49385   9.196   7.082   4.983 -1.2787 -2.1660  1.0422
  366MOL0     H49386   9.196   6.868   4.879 -1.4409 -1.2446 -3.6972
  366MOL0     H49387   9.353   6.915   4.794 -0.0529  0.0456 -0.7510
  366MOL0     H49388   9.245   7.067   4.647 -0.2316  0.1049  0.1982
  366MOL0     H49389   9.142   6.913   4.647 -1.3380  1.2353 -1.8160
  366MOL0     H49390   9.458   7.883   5.149  1.1984  1.5474  2.4546
  366MOL0     H49391   9.307   8.093   5.084 -1.2200  0.9872 -0.6062
  366MOL0     H49392   8.733   8.155   4.835 -0.5807  1.1131 -0.8181
  366MOL0     H49393   8.646   8.376   4.786 -0.0148  1.1533  0.9464
  366MOL0     H49394   8.849   7.271   4.601 -0.4623 -2.4574  1.2982
  366MOL0     H49395   8.690   7.099   4.588  0.8404 -0.8069  0.9649
  366MOL0     H49396   8.250   6.978   4.627  2.1983  1.3858  0.1288
  366MOL0     H49397   8.127   6.764   4.642  2.8553 -2.1086  1.9211
  366MOL0     H49398   8.138   6.491   4.276 -1.0180 -1.7373 -0.5918
  366MOL0     H49399   7.970   6.564   4.292  1.0792  0.7851 -0.0654
  366MOL0     H49400   7.955   6.403   4.482  4.4595  0.9444  1.8429
  366MOL0     H49401   8.091   6.312   4.409  1.0173 -0.2204 -2.0935
  366MOL0     H49402   7.837   6.382   4.240  1.1523  0.6207 -3.3490
  366MOL0     H49403   7.859   6.237   4.334 -1.9599  3.5729  1.7797
  366MOL0     H49404   7.921   6.220   4.094 -2.1635 -2.9817  2.7494
  366MOL0     H49405   8.069   6.322   4.137  0.5767 -0.9364  0.1991
  366MOL0     H49406   8.143   5.917   4.236 -0.6309  0.1151  1.5231
  366MOL0     H49407   8.241   6.689   4.229 -0.7034  0.1231  0.1544
  366MOL0     H49408   8.319   6.909   4.111 -0.3182 -1.0618 -0.4671
  366MOL0     H49409   8.488   6.925   4.195 -0.6852  0.9941  0.6873
  366MOL0     H49410   8.416   6.777   4.147 -3.1465 -0.9312 -0.7910
  367MOL0     O49411   7.975   8.452   6.659  1.0320 -0.3230  0.0515
  367MOL0     C49412   7.939   8.552   6.720  0.1782  0.7803 -0.2127
  367MOL0     O49413   8.001   8.589   6.830  1.0228 -0.4378 -0.8374
  367MOL0     C49414   8.108   8.525   6.881  0.2335  0.6628  0.6604
  367MOL0     C49415   8.235   8.542   6.821  0.3805  0.0001  0.3033
  367MOL0     C49416   8.335   8.479   6.868  0.6291 -0.2085 -0.0039
  367MOL0     C49417   8.326   8.394   6.981 -0.7894 -1.3144 -1.1404
  367MOL0     O49418   8.433   8.323   7.018  0.3109  0.5761 -0.5264
  367MOL0     C49419   8.458   8.303   7.157  0.4109 -0.1745 -0.0239
  367MOL0     C49420   8.607   8.293   7.168  0.2844  0.8529  0.1010
  367MOL0     C49421   8.614   8.249   7.318 -0.1744 -0.7026  0.5373
  367MOL0     C49422   8.587   8.105   7.347  0.2541 -0.3558 -0.5122
  367MOL0     C49423   8.459   8.073   7.428 -0.4706 -0.2746  0.2339
  367MOL0     C49424   8.475   8.127   7.567  0.3308  0.0782  0.7312
  367MOL0     C49425   8.344   8.135   7.639  0.0683  0.5226  0.1006
  367MOL0     C49426   8.363   8.202   7.771 -0.0186 -0.0075 -0.2485
  367MOL0     N49427   8.401   8.106   7.872  0.1925  0.9303 -0.4933
  367MOL0     C49428   8.309   8.041   7.958 -0.4240  0.5613  0.8981
  367MOL0     C49429   8.381   7.957   8.037 -0.6396  0.6599 -0.3582
  367MOL0     C49430   8.319   7.870   8.144 -0.3709  0.6435 -0.6238
  367MOL0     C49431   8.423   7.819   8.245  0.7353  0.4756  0.9576
  367MOL0     C49432   8.362   7.704   8.336  0.5189  0.3186 -0.4460
  367MOL0     C49433   8.263   7.754   8.443 -0.4493 -0.0665  0.2046
  367MOL0     O49434   8.295   7.878   8.505  0.8327 -0.4093 -0.6054
  367MOL0     C49435   8.396   7.887   8.591  1.1818  0.4214 -0.6354
  367MOL0     C49436   8.482   7.788   8.642  0.0534  0.4276  0.3963
  367MOL0     C49437   8.592   7.808   8.730 -0.6121 -0.4918  0.1224
  367MOL0     C49438   8.619   7.946   8.767  0.1522  0.0928 -0.2783
  367MOL0     C49439   8.720   7.973   8.868 -0.7565 -0.1261 -0.3567
  367MOL0     O49440   8.726   8.107   8.908  0.0960 -0.1811  0.2946
  367MOL0     C49441   8.833   8.146   8.992  0.8280 -0.3979  0.9551
  367MOL0     C49442   8.806   8.204   9.114 -0.7879  0.5058  0.1857
  367MOL0     C49443   8.912   8.248   9.198  0.8340 -0.2097  0.3718
  367MOL0     C49444   9.042   8.222   9.169  0.3760 -0.2708 -0.9520
  367MOL0     O49445   9.138   8.279   9.253 -0.3010 -0.1821 -0.5688
  367MOL0     C49446   9.275   8.236   9.253  0.1708  0.0554  0.5861
  367MOL0     C49447   9.327   8.318   9.366  0.4588  1.0739 -1.1861
  367MOL0     C49448   9.479   8.304   9.398  0.5000 -0.4001  0.5787
  367MOL0     C49449   9.542   8.414   9.492 -0.5414  0.0813 -0.7011
  367MOL0     C49450   9.697   8.406   9.516  0.0234  1.1389 -0.2286
  367MOL0     C49451   9.776   8.417   9.379  0.1412  0.1186 -0.0856
  367MOL0     C49452   9.767   8.560   9.313  0.5792  0.7403 -0.1616
  367MOL0     C49453   9.760   8.561   9.161 -0.9077 -0.0666 -0.2796
  367MOL0    Cl49454   9.919   8.508   9.100 -0.0100  0.0552  0.1094
  367MOL0     C49455   9.067   8.158   9.040  0.2356  0.1684  0.4842
  367MOL0     C49456   8.965   8.129   8.954  0.8507 -0.4852  0.7910
  367MOL0     O49457   8.802   7.884   8.901  0.2140 -0.1374 -0.2888
  367MOL0     C49458   8.538   8.045   8.715 -0.3871  0.4440  0.1114
  367MOL0     C49459   8.423   8.019   8.633 -0.6517 -0.3438  0.0292
  367MOL0     N49460   8.516   7.972   8.001  0.2838 -0.4488  0.3104
  367MOL0     N49461   8.523   8.055   7.898 -0.9677 -0.6322  0.3500
  367MOL0     C49462   8.205   8.375   7.053 -0.5346  0.1645  0.6928
  367MOL0     C49463   8.097   8.445   7.000  0.0034 -0.8071  0.0980
  367MOL0     C49464   7.844   8.654   6.657  0.3148  1.2134  0.7772
  367MOL0     C49465   7.779   8.748   6.744 -0.8843  0.0783 -1.0780
  367MOL0     C49466   7.676   8.821   6.696  0.1268  0.0492 -0.2525
  367MOL0     C49467   7.630   8.806   6.566 -0.2155 -0.7591 -0.7039
  367MOL0     O49468   7.524   8.888   6.532  0.6747 -0.1119 -0.4748
  367MOL0     C49469   7.527   8.954   6.405  0.2311 -0.0673 -0.6898
  367MOL0     C49470   7.411   8.895   6.319  0.2573 -0.0176 -0.0888
  367MOL0     C49471   7.274   8.905   6.386  0.4815 -0.4470 -0.4974
  367MOL0     C49472   7.166   8.827   6.316 -0.3044 -0.3888  0.7041
  367MOL0     C49473   7.133   8.892   6.185  0.6652 -0.2690  1.3523
  367MOL0     C49474   7.112   8.941   6.077 -0.2983 -0.5038  1.0450
  367MOL0     C49475   7.692   8.730   6.471  0.0728  0.5137 -0.8804
  367MOL0     C49476   7.802   8.653   6.516 -0.3961  0.6517  0.5027
  367MOL0     C49477   7.881   8.576   6.408  0.2345 -0.7075  0.1506
  367MOL0     H49478   8.251   8.603   6.732  2.9296 -0.6742  0.2215
  367MOL0     H49479   8.423   8.481   6.804  1.7322  2.1944  1.4621
  367MOL0     H49480   8.423   8.389   7.215 -1.5706 -0.2007 -1.0823
  367MOL0     H49481   8.397   8.216   7.186 -2.0817  0.5461 -2.6067
  367MOL0     H49482   8.646   8.394   7.153 -1.9705  1.6614 -0.8049
  367MOL0     H49483   8.654   8.216   7.107  1.2705 -0.5919  2.5110
  367MOL0     H49484   8.555   8.319   7.379  0.8130  0.3355  0.3240
  367MOL0     H49485   8.715   8.276   7.351  0.0878  0.5376 -1.1704
  367MOL0     H49486   8.585   8.050   7.252  0.0829 -2.6435  0.7519
  367MOL0     H49487   8.672   8.066   7.405  2.1638  1.0933 -2.1813
  367MOL0     H49488   8.367   8.109   7.381 -0.9638 -0.9380  0.6688
  367MOL0     H49489   8.444   7.965   7.428 -0.5881 -0.3910  4.5283
  367MOL0     H49490   8.548   8.067   7.622  0.1351 -0.9817 -0.1455
  367MOL0     H49491   8.508   8.232   7.565 -2.5359  1.0777  1.7116
  367MOL0     H49492   8.303   8.034   7.642  1.5438 -0.2983 -3.0361
  367MOL0     H49493   8.272   8.190   7.578 -2.1764 -2.8984 -0.6004
  367MOL0     H49494   8.426   8.291   7.775 -1.1843  0.8339 -0.1368
  367MOL0     H49495   8.266   8.235   7.809  1.7201  2.3037  2.6233
  367MOL0     H49496   8.201   8.050   7.959 -0.5699 -0.7720 -0.4547
  367MOL0     H49497   8.240   7.929   8.190  1.1136  1.5181  0.8992
  367MOL0     H49498   8.284   7.783   8.088  3.6153 -3.0798  1.9906
  367MOL0     H49499   8.498   7.769   8.183 -0.8501 -0.9062  0.0652
  367MOL0     H49500   8.463   7.899   8.308  0.4729  0.1396  1.5545
  367MOL0     H49501   8.450   7.662   8.386  1.7870  1.5245 -1.5607
  367MOL0     H49502   8.309   7.626   8.280 -2.4598  1.5003  0.5290
  367MOL0     H49503   8.247   7.676   8.517  2.4567 -0.3570  0.6627
  367MOL0     H49504   8.166   7.773   8.396 -0.8725 -0.4642  0.9088
  367MOL0     H49505   8.446   7.689   8.619  2.1104 -0.7787  1.9870
  367MOL0     H49506   8.640   7.716   8.760  0.3616 -0.2301 -0.5948
  367MOL0     H49507   8.702   8.209   9.145 -1.9654 -3.7326 -2.3314
  367MOL0     H49508   8.882   8.297   9.290 -0.6280 -2.3073  1.1038
  367MOL0     H49509   9.282   8.129   9.276  1.0077 -0.7519 -2.9163
  367MOL0     H49510   9.335   8.253   9.163 -0.9823  4.2828  0.4218
  367MOL0     H49511   9.294   8.421   9.352 -0.4623  0.7777 -1.2511
  367MOL0     H49512   9.277   8.290   9.460  0.0799  2.3393 -0.9810
  367MOL0     H49513   9.490   8.211   9.454 -1.7096  0.0449  1.8711
  367MOL0     H49514   9.532   8.304   9.302  0.1232 -1.9702  0.3472
  367MOL0     H49515   9.491   8.398   9.587  0.2669  0.1901 -0.2431
  367MOL0     H49516   9.509   8.514   9.462 -0.6554  0.3482  0.2950
  367MOL0     H49517   9.716   8.306   9.558  1.6193  0.2550 -2.8124
  367MOL0     H49518   9.741   8.480   9.583 -1.8451  0.7100  1.5608
  367MOL0     H49519   9.879   8.387   9.399  2.1200  4.4817 -2.2118
  367MOL0     H49520   9.745   8.346   9.302  1.1051  0.5010 -0.8425
  367MOL0     H49521   9.855   8.614   9.348 -1.3419  2.4196  2.3958
  367MOL0     H49522   9.680   8.612   9.352  1.2854  1.1230  0.9737
  367MOL0     H49523   9.680   8.499   9.119 -1.6170  0.7129 -0.1025
  367MOL0     H49524   9.743   8.660   9.117 -5.1073 -1.2187 -1.6963
  367MOL0     H49525   9.169   8.135   9.011 -0.3742 -0.0706 -1.6626
  367MOL0     H49526   8.994   8.068   8.869 -0.0104 -1.9261  1.4875
  367MOL0     H49527   8.550   8.151   8.738 -0.0201  0.0196  2.0344
  367MOL0     H49528   8.367   8.108   8.605 -2.2632 -1.9410 -2.1928
  367MOL0     H49529   8.190   8.313   7.140  0.3945 -2.1920 -0.7479
  367MOL0     H49530   8.005   8.435   7.057 -1.4940  1.5659 -1.7117
  367MOL0     H49531   7.823   8.763   6.842  2.0574 -2.6258 -1.8424
  367MOL0     H49532   7.626   8.902   6.748  1.1490  4.1725 -4.9797
  367MOL0     H49533   7.624   8.960   6.354  0.3452  0.2018 -0.4454
  367MOL0     H49534   7.500   9.057   6.431  0.9330 -0.2471  0.8623
  367MOL0     H49535   7.437   8.790   6.306 -0.8835 -0.4232  0.7025
  367MOL0     H49536   7.414   8.937   6.218  1.7993  1.3488  0.4759
  367MOL0     H49537   7.253   9.012   6.396 -1.8265 -1.0462  1.9779
  367MOL0     H49538   7.265   8.871   6.489  1.6414 -1.1862 -0.6189
  367MOL0     H49539   7.207   8.725   6.310 -1.0826 -0.6403 -1.2042
  367MOL0     H49540   7.080   8.833   6.383  1.5291 -0.0232  3.1699
  367MOL0     H49541   7.087   8.976   5.979 -1.9396 -0.8649  1.3143
  367MOL0     H49542   7.666   8.750   6.368  0.8957  3.4785 -0.5954
  367MOL0     H49543   7.847   8.472   6.405 -1.6730 -0.3682 -6.1432
  367MOL0     H49544   7.852   8.612   6.309 -0.0788  3.8182  1.6896
  367MOL0     H49545   7.988   8.571   6.429  0.4576 -2.0468 -1.1171
  368MOL0     O49546   3.224   9.851   7.887  0.2436  0.5850 -0.6466
  368MOL0     C49547   3.208   9.964   7.921 -0.2499 -0.8902  0.4577
  368MOL0     O49548   3.110  10.051   7.883  1.1513 -0.3177  0.3679
  368MOL0     C49549   3.018  10.015   7.787 -0.1094 -0.3509 -0.6562
  368MOL0     C49550   2.982  10.095   7.675 -0.3179 -1.2677  1.2831
  368MOL0     C49551   2.890  10.057   7.583  0.3441  0.4563 -0.7016
  368MOL0     C49552   2.824   9.936   7.597  0.6409 -0.5142 -0.7136
  368MOL0     O49553   2.728   9.902   7.506 -0.5584  0.6640 -0.3338
  368MOL0     C49554   2.777   9.810   7.409  0.1005  0.1943 -0.2147
  368MOL0     C49555   2.664   9.785   7.302 -0.1467 -0.7326  0.0274
  368MOL0     C49556   2.533   9.726   7.363  1.3593  0.0748 -0.8283
  368MOL0     C49557   2.442   9.682   7.250  0.0138  0.2326 -0.0369
  368MOL0     C49558   2.329   9.591   7.309 -0.2878  0.0571  0.5328
  368MOL0     C49559   2.204   9.567   7.213  0.4336  0.0917 -0.1430
  368MOL0     C49560   2.085   9.648   7.263  0.6043 -0.1680  0.1124
  368MOL0     C49561   1.946   9.616   7.204 -0.2036  0.0837 -0.3930
  368MOL0     N49562   1.904   9.478   7.236  0.2656  0.0634  0.3889
  368MOL0     C49563   1.872   9.383   7.144  0.8110  0.5728 -0.5569
  368MOL0     C49564   1.795   9.291   7.214 -0.3643 -0.3009 -0.1953
  368MOL0     C49565   1.744   9.162   7.153 -0.4781  0.6822  0.9598
  368MOL0     C49566   1.641   9.075   7.235 -0.0751 -0.1999  0.9478
  368MOL0     C49567   1.505   9.150   7.260 -0.2219  0.0762  0.9553
  368MOL0     C49568   1.437   9.223   7.143 -0.3786 -0.6682  0.0546
  368MOL0     O49569   1.451   9.167   7.014 -0.3908  0.6709 -0.0600
  368MOL0     C49570   1.454   9.233   6.897  0.0775  0.6712 -0.2646
  368MOL0     C49571   1.421   9.373   6.886 -0.3847  0.6601  0.5468
  368MOL0     C49572   1.421   9.439   6.754  0.3390  0.5843 -0.3771
  368MOL0     C49573   1.429   9.351   6.640 -0.0145 -0.0673 -0.3051
  368MOL0     C49574   1.416   9.417   6.506  0.2976  0.2129 -0.0800
  368MOL0     O49575   1.400   9.552   6.502 -0.5347 -0.1188  0.0837
  368MOL0     C49576   1.409   9.628   6.389  0.3739  0.5150  0.4796
  368MOL0     C49577   1.352   9.747   6.393  0.6427 -0.2306  0.4758
  368MOL0     C49578   1.366   9.836   6.288 -0.3930 -0.0263  0.7622
  368MOL0     C49579   1.427   9.802   6.164 -0.6241 -0.4184  0.1198
  368MOL0     O49580   1.446   9.880   6.059 -0.2656 -0.8328 -0.0221
  368MOL0     C49581   1.409  10.016   6.068  0.0631 -1.0860 -0.0064
  368MOL0     C49582   1.431  10.103   5.949 -0.0759 -0.3651  0.4546
  368MOL0     C49583   1.466  10.250   5.987  0.4777 -0.0548  0.3543
  368MOL0     C49584   1.354  10.340   5.938 -0.1654 -0.3325 -0.2815
  368MOL0     C49585   1.414  10.484   5.923  0.4540 -0.6922  0.0503
  368MOL0     C49586   1.305  10.589   5.902 -0.3358 -0.5277  0.0267
  368MOL0     C49587   1.357  10.723   5.852 -0.0073 -0.7193 -0.2994
  368MOL0     C49588   1.484  10.772   5.927  0.7802  0.4751 -0.4886
  368MOL0    Cl49589   1.539  10.929   5.876 -0.4890 -0.1174  0.0934
  368MOL0     C49590   1.497   9.674   6.169 -0.0679 -0.0759 -0.1645
  368MOL0     C49591   1.485   9.586   6.281  0.4285 -0.0783  0.4465
  368MOL0     O49592   1.418   9.336   6.415 -0.1833 -0.1680 -0.5284
  368MOL0     C49593   1.433   9.209   6.660 -0.7938  0.8535 -0.8228
  368MOL0     C49594   1.453   9.146   6.782  0.3574  0.2190 -0.6211
  368MOL0     N49595   1.781   9.331   7.344 -0.3550  0.7494  0.4500
  368MOL0     N49596   1.838   9.443   7.356  0.2820  0.0227 -0.3025
  368MOL0     C49597   2.857   9.858   7.707  1.2335  0.5827 -0.0411
  368MOL0     C49598   2.939   9.903   7.816 -1.0679 -0.1387  0.4142
  368MOL0     C49599   3.318  10.021   8.011 -0.4046 -0.3056  0.3022
  368MOL0     C49600   3.373   9.936   8.103 -0.5068 -0.8576 -0.8059
  368MOL0     C49601   3.475   9.990   8.195  0.1995  0.7371  0.8358
  368MOL0     C49602   3.505  10.122   8.192  0.3120 -0.2356  0.2791
  368MOL0     O49603   3.614  10.178   8.259 -0.5861 -0.8853  0.8013
  368MOL0     C49604   3.677  10.110   8.364  1.0587 -0.4504  0.1137
  368MOL0     C49605   3.786  10.011   8.325  0.3131 -0.2153  0.0660
  368MOL0     C49606   3.903  10.081   8.262 -0.7677 -0.0938  0.2901
  368MOL0     C49607   4.048  10.031   8.305  0.0654  0.4910  0.0656
  368MOL0     C49608   4.143  10.140   8.271  0.7246 -0.2925 -0.5265
  368MOL0     C49609   4.211  10.236   8.251  0.3483  0.3570  0.3405
  368MOL0     C49610   3.442  10.214   8.104 -0.4459 -0.7456 -0.1532
  368MOL0     C49611   3.360  10.159   8.006 -1.3177 -0.1790  0.6444
  368MOL0     C49612   3.330  10.255   7.888 -0.7442 -0.1806 -0.4009
  368MOL0     H49613   3.032  10.190   7.654 -1.9181 -1.3257 -4.4765
  368MOL0     H49614   2.869  10.111   7.492  0.5519 -0.3900 -1.2611
  368MOL0     H49615   2.872   9.844   7.368  1.9203  1.3593  4.3265
  368MOL0     H49616   2.808   9.720   7.464  1.5450  1.3624  0.9811
  368MOL0     H49617   2.702   9.719   7.224  1.3546  1.1794 -0.9636
  368MOL0     H49618   2.637   9.879   7.252  1.9624  1.2825  2.3744
  368MOL0     H49619   2.481   9.799   7.426  0.4815 -2.7796  1.9843
  368MOL0     H49620   2.554   9.642   7.429  0.7255  2.4503  2.7111
  368MOL0     H49621   2.404   9.768   7.193 -2.0023 -2.1225 -2.5070
  368MOL0     H49622   2.493   9.626   7.171 -1.6293 -0.8319 -0.3738
  368MOL0     H49623   2.384   9.497   7.321  2.5032  1.7032  1.4869
  368MOL0     H49624   2.291   9.610   7.410 -1.3631 -3.4101  0.9100
  368MOL0     H49625   2.235   9.586   7.110 -1.3001  0.9597 -0.5238
  368MOL0     H49626   2.190   9.459   7.223  1.2789  0.1795  3.1211
  368MOL0     H49627   2.095   9.756   7.249 -0.5209 -0.3032 -2.3336
  368MOL0     H49628   2.075   9.611   7.365 -1.3793 -5.2623 -1.5976
  368MOL0     H49629   1.873   9.680   7.256  0.5507 -1.2997  2.5683
  368MOL0     H49630   1.936   9.626   7.096 -1.9620 -1.0541 -0.3837
  368MOL0     H49631   1.902   9.375   7.040 -0.9120  1.5909 -1.1813
  368MOL0     H49632   1.701   9.200   7.059  3.8404  1.0149 -1.1220
  368MOL0     H49633   1.829   9.095   7.138 -2.8801 -2.3703  0.0999
  368MOL0     H49634   1.624   8.982   7.180 -1.0829  0.9324 -0.7442
  368MOL0     H49635   1.684   9.056   7.334  2.6717 -1.0988 -0.3132
  368MOL0     H49636   1.524   9.224   7.339  0.6333 -1.9968  2.8118
  368MOL0     H49637   1.437   9.068   7.287 -0.8863  0.6033  0.9366
  368MOL0     H49638   1.485   9.321   7.139 -2.9774  0.6723 -0.7586
  368MOL0     H49639   1.329   9.229   7.162  0.0224 -0.5931  2.5699
  368MOL0     H49640   1.382   9.426   6.972 -2.3920  0.6720 -0.3163
  368MOL0     H49641   1.421   9.546   6.735 -1.7398  0.4459 -1.3910
  368MOL0     H49642   1.293   9.763   6.483 -0.7524 -2.4417  0.0446
  368MOL0     H49643   1.312   9.928   6.308 -1.2945  0.2794 -2.4072
  368MOL0     H49644   1.302  10.017   6.088  0.5144  0.9531  2.9768
  368MOL0     H49645   1.460  10.062   6.153  2.6473  1.0541 -2.4977
  368MOL0     H49646   1.513  10.067   5.886 -0.9522  0.7473 -1.4060
  368MOL0     H49647   1.344  10.114   5.883  1.1605  3.2308 -0.8336
  368MOL0     H49648   1.465  10.256   6.096  3.2683 -0.1835  0.4584
  368MOL0     H49649   1.567  10.268   5.949  0.5605  2.3771  1.5898
  368MOL0     H49650   1.268  10.336   6.005 -1.1867 -0.5400 -1.5690
  368MOL0     H49651   1.314  10.308   5.841 -2.3651 -2.0434  1.1297
  368MOL0     H49652   1.489  10.486   5.843  0.3811 -0.3854 -0.0121
  368MOL0     H49653   1.453  10.508   6.022 -2.1740 -1.3715  1.3359
  368MOL0     H49654   1.234  10.547   5.830  1.3309 -0.1101 -1.9241
  368MOL0     H49655   1.240  10.599   5.990 -0.8860  3.9805 -0.6463
  368MOL0     H49656   1.278  10.797   5.863  1.5610  0.7710  1.5676
  368MOL0     H49657   1.396  10.720   5.750  1.6848 -2.6128  0.3133
  368MOL0     H49658   1.458  10.769   6.033 -3.7651 -2.7741 -1.3745
  368MOL0     H49659   1.561  10.696   5.912  1.0519  1.0294 -2.0732
  368MOL0     H49660   1.557   9.640   6.085 -0.7929  2.3885 -1.7793
  368MOL0     H49661   1.539   9.492   6.276 -0.9631 -0.9996  1.8965
  368MOL0     H49662   1.426   9.136   6.580  0.5238 -2.4928  1.8562
  368MOL0     H49663   1.449   9.037   6.788  2.2152 -0.0134 -2.5575
  368MOL0     H49664   2.797   9.768   7.713  0.6228  0.7489 -2.4017
  368MOL0     H49665   2.950   9.833   7.899  1.0394 -0.7177 -0.2901
  368MOL0     H49666   3.348   9.830   8.110  2.0043 -1.4147  0.7070
  368MOL0     H49667   3.531   9.915   8.250 -2.0903 -1.3381  0.5042
  368MOL0     H49668   3.592  10.066   8.418 -0.6952  1.1519 -1.2028
  368MOL0     H49669   3.722  10.188   8.425  3.0971  0.2576 -2.1603
  368MOL0     H49670   3.758   9.938   8.249 -2.2743  3.0891 -2.4713
  368MOL0     H49671   3.825   9.965   8.416  1.8890 -1.9766 -1.4025
  368MOL0     H49672   3.884  10.186   8.285  0.7666 -0.0751  1.6777
  368MOL0     H49673   3.902  10.088   8.152  1.8264 -0.5217  0.1887
  368MOL0     H49674   4.042  10.018   8.413 -2.4929 -0.0681 -0.0973
  368MOL0     H49675   4.071   9.935   8.259 -3.1690  0.0768 -0.9315
  368MOL0     H49676   4.259  10.330   8.229  3.0911 -1.2210 -0.9351
  368MOL0     H49677   3.470  10.319   8.108 -3.4413  0.1316  2.5216
  368MOL0     H49678   3.224  10.265   7.864 -0.2732 -1.4855 -3.5419
  368MOL0     H49679   3.389  10.343   7.913 -0.1625  0.0165 -2.3259
  368MOL0     H49680   3.386  10.218   7.802 -1.1900  0.0066 -0.7773
  369MOL0     O49681   0.760   7.084  11.018  0.3962  0.1812  0.1099
  369MOL0     C49682   0.784   7.200  11.045 -0.0038 -0.6640 -0.1556
  369MOL0     O49683   0.903   7.276  11.027 -0.1753 -0.5569  0.4614
  369MOL0     C49684   1.011   7.218  10.961 -0.8074 -0.1175  0.3621
  369MOL0     C49685   1.137   7.271  10.984 -1.0738 -0.1786 -0.0064
  369MOL0     C49686   1.243   7.207  10.928  0.2192  0.0744  0.2895
  369MOL0     C49687   1.232   7.090  10.842 -0.4522 -0.3083 -0.3477
  369MOL0     O49688   1.341   7.017  10.809  0.2205  0.9684 -0.3907
  369MOL0     C49689   1.473   7.040  10.853  0.5009  0.2043 -0.1418
  369MOL0     C49690   1.571   6.922  10.803 -0.4023  0.2876  0.4620
  369MOL0     C49691   1.512   6.782  10.806  0.4418 -0.6184  0.1807
  369MOL0     C49692   1.434   6.751  10.941  0.4228 -0.6729  0.5854
  369MOL0     C49693   1.407   6.600  10.942  0.2628 -0.9233  1.2548
  369MOL0     C49694   1.326   6.553  10.817 -0.1072  0.8812  0.1024
  369MOL0     C49695   1.238   6.427  10.849  0.0978 -0.3503 -0.1507
  369MOL0     C49696   1.158   6.374  10.727 -0.6257  1.1069 -0.8065
  369MOL0     N49697   1.258   6.313  10.637 -0.0023 -0.6184 -0.5232
  369MOL0     C49698   1.363   6.226  10.660 -0.1431  1.4772  0.1410
  369MOL0     C49699   1.411   6.203  10.535 -0.1831  0.3126 -0.5879
  369MOL0     C49700   1.524   6.113  10.493 -0.2949  0.1283 -0.3173
  369MOL0     C49701   1.481   5.976  10.451 -0.7829 -0.0782  0.6063
  369MOL0     C49702   1.617   5.896  10.458  0.8062 -0.4605 -0.6210
  369MOL0     C49703   1.600   5.754  10.433  0.4117 -0.8544 -0.1226
  369MOL0     O49704   1.726   5.679  10.422  1.1596 -0.1543  0.1758
  369MOL0     C49705   1.723   5.549  10.472 -0.0326 -0.2206  1.6148
  369MOL0     C49706   1.842   5.499  10.517 -0.0932 -0.3779 -0.4354
  369MOL0     C49707   1.857   5.366  10.540 -0.1794 -0.0938  0.0038
  369MOL0     C49708   1.744   5.284  10.548 -0.2526  0.0098 -0.4621
  369MOL0     C49709   1.759   5.134  10.576 -0.2742  0.6520 -1.0466
  369MOL0     O49710   1.891   5.095  10.573  0.5203 -0.1402  1.3064
  369MOL0     C49711   1.942   4.963  10.560 -0.3960 -0.2514 -0.0871
  369MOL0     C49712   1.868   4.854  10.555  0.2439  0.0216 -0.7535
  369MOL0     C49713   1.915   4.725  10.540  0.0300 -0.3343 -0.4474
  369MOL0     C49714   2.053   4.704  10.529  0.6563 -0.1801  0.5692
  369MOL0     O49715   2.105   4.580  10.493  0.0629  0.8239 -0.2511
  369MOL0     C49716   2.246   4.564  10.476 -0.0221  0.2090 -0.5844
  369MOL0     C49717   2.273   4.418  10.438 -0.6282  0.9256 -0.0564
  369MOL0     C49718   2.431   4.395  10.424  0.6695 -0.4178  0.1548
  369MOL0     C49719   2.477   4.256  10.397 -0.6450 -0.5280 -0.4169
  369MOL0     C49720   2.477   4.179  10.540  0.2752  0.3651  0.4004
  369MOL0     C49721   2.500   4.028  10.517 -0.2013 -0.3385  0.7969
  369MOL0     C49722   2.573   3.985  10.647  0.0966 -0.3666  0.2147
  369MOL0     C49723   2.620   3.836  10.640 -0.3327 -0.1269 -0.0811
  369MOL0    Cl49724   2.481   3.733  10.609  0.3268  0.0900  0.1985
  369MOL0     C49725   2.143   4.815  10.535  0.6434 -0.1002  0.1193
  369MOL0     C49726   2.080   4.942  10.549  0.4343  0.3887 -0.2635
  369MOL0     O49727   1.658   5.062  10.585 -0.2431  0.3680 -0.0122
  369MOL0     C49728   1.623   5.335  10.506 -0.9782  0.1564  0.0909
  369MOL0     C49729   1.610   5.468  10.465  0.4127  0.3247 -0.7186
  369MOL0     N49730   1.348   6.285  10.439  0.1827 -0.0706 -0.0545
  369MOL0     N49731   1.251   6.348  10.503 -0.3421  0.3311  0.5775
  369MOL0     C49732   1.109   7.058  10.793 -0.4119  1.3407 -0.5526
  369MOL0     C49733   1.000   7.121  10.856  0.6423 -0.2146 -0.2353
  369MOL0     C49734   0.675   7.273  11.114  0.2043  0.4183  0.2931
  369MOL0     C49735   0.539   7.230  11.088 -0.3438  0.2742  0.3907
  369MOL0     C49736   0.436   7.307  11.123  0.2809  0.0800  0.3616
  369MOL0     C49737   0.463   7.436  11.177 -0.5862 -0.0783  1.2114
  369MOL0     O49738   0.367   7.522  11.225  0.4786  0.7793 -0.6070
  369MOL0     C49739   0.257   7.549  11.135 -0.7495 -0.1793 -0.2873
  369MOL0     C49740   0.136   7.565  11.224  0.2535 -0.5876 -0.0609
  369MOL0     C49741   0.104   7.443  11.319 -0.0859  0.7103  0.4860
  369MOL0     C49742  -0.047   7.419  11.333 -0.2915  0.2553 -0.1325
  369MOL0     C49743  -0.101   7.387  11.209 -0.5483 -0.4416  0.1884
  369MOL0     C49744  -0.143   7.358  11.100 -0.6277 -0.3958  0.8155
  369MOL0     C49745   0.598   7.465  11.219  0.3504  0.1867 -0.5002
  369MOL0     C49746   0.707   7.391  11.185 -0.2242  0.8431  0.6424
  369MOL0     C49747   0.842   7.444  11.232  0.5198 -0.4471 -0.7151
  369MOL0     H49748   1.148   7.353  11.054  0.1223  0.4208 -0.8569
  369MOL0     H49749   1.340   7.238  10.964  0.7351 -0.4088 -0.6386
  369MOL0     H49750   1.509   7.142  10.834  0.0724  1.0716  3.0458
  369MOL0     H49751   1.474   7.028  10.962  0.7258 -3.4792 -0.4343
  369MOL0     H49752   1.658   6.906  10.867 -0.1572  1.7005  0.4987
  369MOL0     H49753   1.592   6.931  10.696 -3.5055  0.6749 -0.2145
  369MOL0     H49754   1.598   6.714  10.799  1.0669  0.3437 -3.8403
  369MOL0     H49755   1.451   6.756  10.719  0.4060 -1.8086  0.5431
  369MOL0     H49756   1.485   6.778  11.034 -0.5538  1.9389  0.4648
  369MOL0     H49757   1.339   6.805  10.939  1.2060  0.7736  0.4535
  369MOL0     H49758   1.506   6.555  10.941 -0.2780 -2.1595  0.5587
  369MOL0     H49759   1.365   6.564  11.037  0.0962  0.4182  1.7039
  369MOL0     H49760   1.269   6.637  10.777 -1.1184  0.4144  0.5395
  369MOL0     H49761   1.395   6.526  10.737 -1.4063  2.2534 -1.5379
  369MOL0     H49762   1.167   6.459  10.926  0.2037  0.6577 -0.4614
  369MOL0     H49763   1.300   6.356  10.906  0.9366  2.2240  2.3994
  369MOL0     H49764   1.091   6.302  10.775 -0.5846  0.7012 -1.3543
  369MOL0     H49765   1.095   6.449  10.678  0.5483  4.0266  1.7967
  369MOL0     H49766   1.373   6.177  10.756 -0.6472  1.8489  0.3890
  369MOL0     H49767   1.569   6.159  10.405  0.8573  0.7600  0.5687
  369MOL0     H49768   1.598   6.110  10.573  1.4590  0.3175 -1.8686
  369MOL0     H49769   1.412   5.931  10.523  1.6678 -0.6998  2.7074
  369MOL0     H49770   1.444   5.984  10.348 -1.7367 -0.7233  0.8897
  369MOL0     H49771   1.658   5.900  10.560  1.0985 -2.7187 -0.5871
  369MOL0     H49772   1.700   5.944  10.405 -1.2801  2.5451 -1.4377
  369MOL0     H49773   1.545   5.757  10.339  1.9674  3.3882 -1.1684
  369MOL0     H49774   1.544   5.712  10.517 -1.4235  0.3169 -0.6953
  369MOL0     H49775   1.922   5.572  10.519 -0.2394 -0.2082 -0.7075
  369MOL0     H49776   1.957   5.329  10.560 -0.1588  1.4169  3.3485
  369MOL0     H49777   1.761   4.854  10.536  0.3869 -0.4662 -1.6026
  369MOL0     H49778   1.836   4.651  10.548 -0.5782 -0.0214 -2.8291
  369MOL0     H49779   2.298   4.621  10.399  0.0184 -1.1367 -1.6011
  369MOL0     H49780   2.303   4.589  10.566 -0.8728  0.6043 -0.1458
  369MOL0     H49781   2.234   4.345  10.509 -2.8591  1.3954 -0.7205
  369MOL0     H49782   2.215   4.409  10.345  0.6299  2.7534 -1.0762
  369MOL0     H49783   2.476   4.450  10.341  1.5651 -0.1033  0.8305
  369MOL0     H49784   2.495   4.426  10.508 -0.1493 -0.4709  0.8065
  369MOL0     H49785   2.581   4.245  10.367 -0.2186 -3.5080  1.6978
  369MOL0     H49786   2.410   4.215  10.320 -2.6127  0.6025  0.6207
  369MOL0     H49787   2.381   4.187  10.593 -0.1333  1.2646 -0.4641
  369MOL0     H49788   2.564   4.218  10.594  2.8159 -1.7181 -1.8730
  369MOL0     H49789   2.400   3.984  10.509 -1.2893  2.2888 -2.1817
  369MOL0     H49790   2.560   4.011  10.428 -1.2637 -0.6829  0.1192
  369MOL0     H49791   2.506   3.996  10.733  3.0744 -1.1792  2.8402
  369MOL0     H49792   2.656   4.054  10.664  0.9768 -1.8059  2.1838
  369MOL0     H49793   2.696   3.829  10.561 -2.6797  3.2304 -2.9260
  369MOL0     H49794   2.672   3.814  10.734  1.1658 -1.2612 -1.1165
  369MOL0     H49795   2.251   4.821  10.534  0.6619 -0.4522 -0.3933
  369MOL0     H49796   2.141   5.032  10.557  0.0492  0.7330 -1.1579
  369MOL0     H49797   1.530   5.279  10.516 -0.6693 -0.2732  0.5917
  369MOL0     H49798   1.517   5.509  10.429 -1.0883 -0.2836  2.1207
  369MOL0     H49799   1.105   6.972  10.726  3.9732  0.0605  0.5206
  369MOL0     H49800   0.905   7.086  10.816 -0.9749  2.8839  0.6378
  369MOL0     H49801   0.511   7.136  11.040  0.2484 -0.0483  0.6586
  369MOL0     H49802   0.331   7.296  11.098  0.9926  0.2952 -3.2832
  369MOL0     H49803   0.254   7.467  11.063 -3.4210 -0.2659 -0.1597
  369MOL0     H49804   0.285   7.638  11.077  0.8176 -0.3284  0.1732
  369MOL0     H49805   0.057   7.563  11.149  1.6209  2.0919 -1.7136
  369MOL0     H49806   0.129   7.658  11.280  0.1051 -2.4389  3.2415
  369MOL0     H49807   0.139   7.474  11.418 -2.5763  2.2260  0.9624
  369MOL0     H49808   0.147   7.348  11.286 -0.9495  0.5005 -0.0576
  369MOL0     H49809  -0.060   7.340  11.408  3.1841  0.4288  0.8241
  369MOL0     H49810  -0.094   7.506  11.380 -0.6882  0.6048 -1.1535
  369MOL0     H49811  -0.167   7.338  10.997  0.1483 -3.3833  1.0981
  369MOL0     H49812   0.599   7.559  11.272 -2.9342 -0.7740  1.5844
  369MOL0     H49813   0.834   7.498  11.326  1.4305  1.3804 -1.6176
  369MOL0     H49814   0.909   7.363  11.262  0.9403  0.3295  0.4760
  369MOL0     H49815   0.880   7.522  11.165 -0.6366  0.6692 -0.0935
  370MOL0     O49816   4.914   7.040   6.953  0.3721  0.9973  0.4218
  370MOL0     C49817   5.000   7.075   6.878 -0.2159 -1.1762  0.2730
  370MOL0     O49818   5.084   7.183   6.894  0.0729 -0.6660 -0.3876
  370MOL0     C49819   5.095   7.240   7.019  0.6714 -0.6262  0.3777
  370MOL0     C49820   5.099   7.165   7.142 -1.1358  0.9831  0.4960
  370MOL0     C49821   5.120   7.233   7.257 -0.8235  0.5454 -0.9106
  370MOL0     C49822   5.136   7.370   7.257  0.3255 -0.4626  0.1748
  370MOL0     O49823   5.166   7.430   7.366  0.2844 -0.0772 -1.3604
  370MOL0     C49824   5.067   7.459   7.462 -0.7070  0.1810 -1.4462
  370MOL0     C49825   5.124   7.556   7.565  0.0329  0.3859  1.0751
  370MOL0     C49826   5.157   7.693   7.492  0.0699  0.4932  0.3546
  370MOL0     C49827   5.181   7.803   7.589 -0.1592 -0.0127 -0.3654
  370MOL0     C49828   5.249   7.934   7.542 -0.1468 -0.6204 -0.1726
  370MOL0     C49829   5.203   7.983   7.414  0.2089 -0.1341  1.0826
  370MOL0     C49830   5.053   8.032   7.419 -0.1586  0.6705 -0.0296
  370MOL0     C49831   5.012   8.074   7.285  0.2189 -0.5711 -0.2736
  370MOL0     N49832   5.021   7.980   7.174  0.3645 -0.2476  0.5152
  370MOL0     C49833   4.955   7.860   7.158  0.4329  0.4298 -0.7089
  370MOL0     C49834   4.992   7.811   7.041 -0.6039 -0.0068  0.5234
  370MOL0     C49835   4.928   7.697   6.976 -1.0749  0.4298 -0.1719
  370MOL0     C49836   4.803   7.737   6.898 -0.6894 -0.4609  0.0280
  370MOL0     C49837   4.834   7.815   6.763 -1.4248  0.9369  0.5290
  370MOL0     C49838   4.702   7.866   6.705  0.1981  0.0650 -0.8216
  370MOL0     O49839   4.625   7.760   6.647  0.2110  0.3961 -0.3877
  370MOL0     C49840   4.643   7.719   6.513  1.3211  0.0940 -0.3729
  370MOL0     C49841   4.544   7.644   6.453 -0.2367 -0.3180  0.0421
  370MOL0     C49842   4.554   7.600   6.318  0.3122 -0.8146 -0.1904
  370MOL0     C49843   4.673   7.635   6.239  0.3727  0.7553 -0.3312
  370MOL0     C49844   4.687   7.604   6.096  0.2897  0.4245 -0.0224
  370MOL0     O49845   4.759   7.704   6.038  1.0066  0.2040 -0.2837
  370MOL0     C49846   4.789   7.687   5.902  0.1781 -0.2783 -0.3417
  370MOL0     C49847   4.682   7.696   5.809 -0.0058  0.4179  0.2811
  370MOL0     C49848   4.714   7.698   5.671 -0.4176  0.4896 -0.2416
  370MOL0     C49849   4.846   7.697   5.630 -0.3545 -0.4717  0.0874
  370MOL0     O49850   4.860   7.706   5.493  0.1487  0.0831 -1.0294
  370MOL0     C49851   4.980   7.666   5.430  0.7989  0.2527  0.8369
  370MOL0     C49852   4.944   7.616   5.287 -1.3503  0.4433 -0.0245
  370MOL0     C49853   5.039   7.670   5.180 -1.2775 -0.2964  1.5320
  370MOL0     C49854   5.069   7.583   5.054 -1.1052  0.7277 -0.0561
  370MOL0     C49855   5.188   7.633   4.981  0.2858 -0.0898 -0.0948
  370MOL0     C49856   5.323   7.611   5.053  0.5083 -0.4068  0.2006
  370MOL0     C49857   5.368   7.466   5.022 -0.2955  0.9313 -0.2985
  370MOL0     C49858   5.523   7.449   5.042 -0.0545  0.0526 -0.1534
  370MOL0    Cl49859   5.576   7.284   5.024  0.5365 -0.2480 -0.0336
  370MOL0     C49860   4.948   7.705   5.723 -0.2226 -0.2608 -0.8543
  370MOL0     C49861   4.917   7.694   5.855 -0.1090 -0.4695  0.0667
  370MOL0     O49862   4.631   7.508   6.042 -0.3966 -0.9330  0.5356
  370MOL0     C49863   4.759   7.732   6.300  0.0171  0.1337  0.4896
  370MOL0     C49864   4.748   7.765   6.438 -1.0689  0.1532  1.1036
  370MOL0     N49865   5.078   7.908   6.985 -0.0786  0.1775 -0.2153
  370MOL0     N49866   5.084   8.009   7.061 -0.7065  0.2479 -0.6065
  370MOL0     C49867   5.122   7.447   7.136  0.2505  0.6896  0.5136
  370MOL0     C49868   5.095   7.380   7.017 -0.0459 -0.2734  0.9192
  370MOL0     C49869   5.011   7.001   6.747  0.9331  0.1044  0.5534
  370MOL0     C49870   5.137   6.987   6.688  0.1920 -0.9293  0.1307
  370MOL0     C49871   5.171   6.911   6.573  0.9852  0.0993  0.4622
  370MOL0     C49872   5.069   6.831   6.509 -1.0770  0.5290 -0.8625
  370MOL0     O49873   5.089   6.745   6.403 -0.1414  0.2574 -1.0288
  370MOL0     C49874   5.215   6.746   6.340 -0.3559 -0.1497 -0.6208
  370MOL0     C49875   5.251   6.864   6.254  0.9600 -0.3271 -0.1172
  370MOL0     C49876   5.372   6.841   6.170  0.7674 -0.2707  1.2008
  370MOL0     C49877   5.396   6.968   6.079  0.1181 -0.5324  1.1746
  370MOL0     C49878   5.332   6.972   5.942  1.3040 -0.0644 -0.1511
  370MOL0     C49879   5.291   6.957   5.828 -0.6634  0.0335 -0.8015
  370MOL0     C49880   4.943   6.846   6.564  0.2921 -0.0461  0.0756
  370MOL0     C49881   4.911   6.931   6.677  1.4515  1.2413  0.2538
  370MOL0     C49882   4.769   6.944   6.718 -0.2861  0.6278  0.1602
  370MOL0     H49883   5.089   7.057   7.146 -0.6026  0.8591 -0.9194
  370MOL0     H49884   5.140   7.175   7.346 -2.2883  0.0134 -0.8925
  370MOL0     H49885   4.972   7.502   7.428 -0.1688  2.5504 -0.1687
  370MOL0     H49886   5.034   7.378   7.528  2.8119  0.5056  0.9738
  370MOL0     H49887   5.221   7.523   7.603  0.6046  0.4833 -0.2743
  370MOL0     H49888   5.048   7.553   7.644 -2.3922 -2.6020 -1.1126
  370MOL0     H49889   5.085   7.722   7.415 -0.0550  0.9838  0.6543
  370MOL0     H49890   5.254   7.686   7.443 -0.2068  2.4573 -0.5317
  370MOL0     H49891   5.084   7.833   7.631 -0.5296 -2.0893  0.4124
  370MOL0     H49892   5.237   7.762   7.674 -1.1562  1.4231  1.0418
  370MOL0     H49893   5.228   7.999   7.627 -2.1471 -1.4160 -0.0009
  370MOL0     H49894   5.358   7.928   7.532  0.1656 -0.7495  2.5316
  370MOL0     H49895   5.263   8.069   7.384  2.5699 -0.8335  3.3982
  370MOL0     H49896   5.204   7.905   7.338  4.3085  0.4999  0.2683
  370MOL0     H49897   5.040   8.107   7.498 -0.4280 -1.4211  2.0268
  370MOL0     H49898   4.996   7.945   7.453  1.8281 -1.0286 -0.8661
  370MOL0     H49899   4.909   8.104   7.305  0.5708  1.5572 -1.3400
  370MOL0     H49900   5.080   8.155   7.259  0.1560  0.6322  2.8677
  370MOL0     H49901   4.878   7.812   7.218  1.9394 -0.2596  0.7445
  370MOL0     H49902   4.996   7.650   6.904  1.6688  2.0745  1.1653
  370MOL0     H49903   4.905   7.622   7.052  0.9087  0.2521  0.3027
  370MOL0     H49904   4.747   7.644   6.882  0.9637 -1.4624 -0.2037
  370MOL0     H49905   4.745   7.809   6.955  0.7850  0.8402 -0.0404
  370MOL0     H49906   4.881   7.763   6.679 -1.7564  1.1888  0.1815
  370MOL0     H49907   4.894   7.904   6.784  1.1687 -0.7209  0.6445
  370MOL0     H49908   4.724   7.948   6.636 -1.0784  0.7215 -0.4984
  370MOL0     H49909   4.637   7.902   6.786 -1.7764 -1.6920 -1.5321
  370MOL0     H49910   4.452   7.616   6.503  0.5817 -0.2577  1.6400
  370MOL0     H49911   4.473   7.537   6.283 -0.0099  0.0885 -1.1224
  370MOL0     H49912   4.580   7.677   5.840 -0.8744  3.3093 -0.4976
  370MOL0     H49913   4.637   7.699   5.594 -0.4216 -0.7028 -0.2780
  370MOL0     H49914   5.042   7.757   5.432  0.3736  0.5516  0.5773
  370MOL0     H49915   5.040   7.588   5.478  1.1145 -1.2331 -1.7745
  370MOL0     H49916   4.943   7.507   5.297  0.9156  0.4936  1.4998
  370MOL0     H49917   4.842   7.638   5.255 -1.2766 -1.1603 -1.5200
  370MOL0     H49918   4.996   7.766   5.150 -1.5918 -0.6402  0.8562
  370MOL0     H49919   5.130   7.695   5.234 -1.1364  0.2752  1.0376
  370MOL0     H49920   4.980   7.586   4.990  0.1040 -0.0240 -1.8532
  370MOL0     H49921   5.093   7.483   5.091  3.3997  0.3020 -3.4256
  370MOL0     H49922   5.171   7.740   4.962 -2.0796 -0.4157  0.0073
  370MOL0     H49923   5.182   7.594   4.879  0.5574  0.6190 -0.3948
  370MOL0     H49924   5.400   7.667   4.999 -0.6293 -0.2487 -1.3245
  370MOL0     H49925   5.332   7.638   5.159  1.6258 -0.1919  0.0626
  370MOL0     H49926   5.341   7.445   4.918  0.3908 -1.9528 -0.0031
  370MOL0     H49927   5.320   7.388   5.081  2.9774 -2.8925 -2.1113
  370MOL0     H49928   5.584   7.506   4.971 -1.1622  0.2112 -1.0127
  370MOL0     H49929   5.559   7.479   5.140 -0.2881 -1.1102  0.2968
  370MOL0     H49930   5.052   7.706   5.692 -0.5574 -1.3250 -2.1393
  370MOL0     H49931   4.998   7.699   5.926  3.1682  0.2546 -3.4079
  370MOL0     H49932   4.854   7.768   6.263  0.8563 -3.3291 -1.1240
  370MOL0     H49933   4.820   7.834   6.480 -2.3130  0.7959  2.2542
  370MOL0     H49934   5.120   7.556   7.138 -0.7667  0.7629 -1.8716
  370MOL0     H49935   5.076   7.440   6.928  1.1131  1.2070  1.6154
  370MOL0     H49936   5.215   7.043   6.738  0.6498  0.5121 -2.0653
  370MOL0     H49937   5.276   6.910   6.544  0.6142  1.8062 -1.2003
  370MOL0     H49938   5.205   6.663   6.270 -2.6454  3.6072 -5.3342
  370MOL0     H49939   5.295   6.719   6.411 -0.0877  1.6455 -0.1898
  370MOL0     H49940   5.251   6.952   6.318 -0.7142  2.5002 -3.6731
  370MOL0     H49941   5.166   6.885   6.189  1.1750 -2.3636 -1.1657
  370MOL0     H49942   5.378   6.745   6.117  1.0196 -0.8332  2.2134
  370MOL0     H49943   5.450   6.826   6.246  1.0265 -1.4223  0.7387
  370MOL0     H49944   5.368   7.059   6.132  1.7803  0.3757  0.5764
  370MOL0     H49945   5.503   6.980   6.060 -0.2575  3.4749  0.7186
  370MOL0     H49946   5.260   6.919   5.732  1.0049 -2.2980 -0.5309
  370MOL0     H49947   4.865   6.787   6.516  0.4740  2.5555 -3.8602
  370MOL0     H49948   4.698   6.930   6.636  3.5354 -1.8320 -3.0828
  370MOL0     H49949   4.755   6.867   6.794 -1.4616 -0.7837 -1.4280
  370MOL0     H49950   4.743   7.045   6.752 -0.2803  0.2805  1.2442
  371MOL0     O49951   8.539   9.053   1.448  0.3564  0.7271 -0.1667
  371MOL0     C49952   8.501   9.165   1.473  0.7155  0.4775  0.4211
  371MOL0     O49953   8.565   9.275   1.427  0.0463  0.0550 -0.7655
  371MOL0     C49954   8.702   9.292   1.395  0.0553  0.1356  0.5295
  371MOL0     C49955   8.811   9.201   1.429  0.7013 -0.2973  0.7469
  371MOL0     C49956   8.937   9.228   1.394 -0.2669 -0.0383  0.1857
  371MOL0     C49957   8.969   9.338   1.321 -0.4079 -0.5314 -0.4295
  371MOL0     O49958   9.102   9.341   1.280  0.2519 -0.4776 -0.2402
  371MOL0     C49959   9.165   9.231   1.219 -0.3896 -0.6649 -0.5561
  371MOL0     C49960   9.275   9.267   1.131  0.0860  0.4104  0.8830
  371MOL0     C49961   9.222   9.300   0.995 -0.4599 -0.2078  0.0294
  371MOL0     C49962   9.126   9.413   0.974  0.1505 -0.0406  0.4180
  371MOL0     C49963   9.077   9.428   0.824  0.1638  0.8411 -0.5302
  371MOL0     C49964   9.001   9.552   0.796 -0.6311  0.0976 -1.2021
  371MOL0     C49965   8.973   9.572   0.652 -0.2290 -0.1212  0.4716
  371MOL0     C49966   9.076   9.655   0.568  0.0019  0.5823 -1.2348
  371MOL0     N49967   9.061   9.802   0.564 -0.6800 -0.1571 -0.1321
  371MOL0     C49968   9.029   9.882   0.669 -0.1677 -0.8432  0.2256
  371MOL0     C49969   8.959   9.991   0.613 -0.1111 -0.5294 -0.3708
  371MOL0     C49970   8.887  10.105   0.683 -0.0113 -0.4219  0.0192
  371MOL0     C49971   8.836  10.200   0.570 -0.0467 -0.2884  0.1562
  371MOL0     C49972   8.762  10.326   0.615 -1.1802  0.1850  0.3573
  371MOL0     C49973   8.748  10.433   0.501  0.4769  0.0091  0.0976
  371MOL0     O49974   8.872  10.502   0.488  0.4699 -0.4882  0.2791
  371MOL0     C49975   8.872  10.603   0.393  0.6238  0.3242 -0.1652
  371MOL0     C49976   8.857  10.584   0.259 -0.1111 -0.0822 -0.0802
  371MOL0     C49977   8.873  10.696   0.175  0.9159  0.6851  0.5103
  371MOL0     C49978   8.892  10.824   0.229 -0.2138 -0.1404 -0.2130
  371MOL0     C49979   8.895  10.946   0.138 -0.0661 -0.5742  0.6750
  371MOL0     O49980   8.922  10.928   0.006  0.0892  0.2039  0.5991
  371MOL0     C49981   8.957  11.033  -0.083  0.2412 -0.1747 -0.0943
  371MOL0     C49982   8.926  11.176  -0.068  0.4493 -0.0577  0.5535
  371MOL0     C49983   8.975  11.260  -0.163  0.1073 -0.2044 -1.0818
  371MOL0     C49984   9.051  11.224  -0.278  0.7883  0.7160  0.6213
  371MOL0     O49985   9.090  11.323  -0.368 -0.1371  0.1209 -0.3850
  371MOL0     C49986   9.111  11.452  -0.308  0.4594 -0.3437  0.4206
  371MOL0     C49987   9.208  11.537  -0.380 -1.1410  0.4369  0.3266
  371MOL0     C49988   9.198  11.522  -0.531  0.2678 -1.2122  0.3615
  371MOL0     C49989   9.102  11.615  -0.593  0.5203 -0.4951  1.2575
  371MOL0     C49990   9.148  11.659  -0.731  0.6146 -1.0314  0.2960
  371MOL0     C49991   9.079  11.768  -0.811  0.1103  0.2857  0.1749
  371MOL0     C49992   9.084  11.903  -0.749  0.1488  1.4131  0.2855
  371MOL0     C49993   9.222  11.963  -0.738  0.1630 -0.3719 -0.6496
  371MOL0    Cl49994   9.311  11.934  -0.580 -0.0332  0.1442 -0.2379
  371MOL0     C49995   9.073  11.090  -0.287 -0.7687  0.0540  0.6364
  371MOL0     C49996   9.036  10.995  -0.191 -0.4891  0.4150 -0.8779
  371MOL0     O49997   8.890  11.052   0.194  0.2908  0.2324 -0.5455
  371MOL0     C49998   8.908  10.837   0.359  0.2668  0.1120 -1.2263
  371MOL0     C49999   8.895  10.729   0.451 -0.5674  0.8730  0.4430
  371MOL0     N50000   8.969   9.974   0.480 -0.3585 -0.5588  0.0739
  371MOL0     N50001   9.019   9.857   0.450  0.0600 -0.9351  0.0350
  371MOL0     C50002   8.870   9.436   1.300  0.3319  0.2805  0.3639
  371MOL0     C50003   8.735   9.411   1.340  0.7628  0.2003 -0.3914
  371MOL0     C50004   8.381   9.182   1.559 -0.4363 -0.6123  1.2291
  371MOL0     C50005   8.279   9.082   1.554  0.8895  0.2246 -0.3602
  371MOL0     C50006   8.164   9.084   1.633  0.6370 -0.4800  0.1388
  371MOL0     C50007   8.148   9.176   1.731  0.1694  0.1017  0.4202
  371MOL0     O50008   8.039   9.156   1.821  0.4184 -0.4570 -0.6132
  371MOL0     C50009   8.001   9.243   1.925  0.1974  0.6012  0.3768
  371MOL0     C50010   7.857   9.209   1.980 -0.2450  0.4221 -0.8637
  371MOL0     C50011   7.864   9.062   2.013 -0.9971 -0.9676 -0.1421
  371MOL0     C50012   7.761   9.028   2.117  0.4858  0.3075  0.1630
  371MOL0     C50013   7.753   8.887   2.123  0.6634  0.6390  0.6815
  371MOL0     C50014   7.742   8.770   2.149  0.3739  0.6607 -0.0853
  371MOL0     C50015   8.243   9.277   1.743 -0.8871 -0.2414  0.4115
  371MOL0     C50016   8.358   9.285   1.663  0.2850  0.0156  0.5485
  371MOL0     C50017   8.468   9.389   1.669 -0.4941 -0.4967 -0.8519
  371MOL0     H50018   8.793   9.110   1.486 -3.0402 -0.3197 -0.2456
  371MOL0     H50019   9.019   9.161   1.418  1.1672  2.5974  3.3844
  371MOL0     H50020   9.205   9.159   1.291 -2.6874  1.4859  3.1927
  371MOL0     H50021   9.091   9.178   1.159 -0.4408  0.2948 -1.3625
  371MOL0     H50022   9.345   9.186   1.110 -1.3348 -0.7848  0.6087
  371MOL0     H50023   9.333   9.347   1.178 -0.3803  1.2436  0.0670
  371MOL0     H50024   9.182   9.206   0.955 -0.5840  0.1905 -0.8021
  371MOL0     H50025   9.313   9.330   0.942 -0.1083  0.4463  0.9766
  371MOL0     H50026   9.026   9.410   1.020 -0.6670  3.6556 -0.7822
  371MOL0     H50027   9.187   9.495   1.014 -0.4547 -1.0378  3.7012
  371MOL0     H50028   9.155   9.419   0.748  0.2362  3.7594 -0.9288
  371MOL0     H50029   9.008   9.344   0.809 -0.9279  1.4534  0.7699
  371MOL0     H50030   8.907   9.539   0.850  0.7091 -1.1603  0.9877
  371MOL0     H50031   9.054   9.635   0.844  2.6188 -2.2341 -0.3575
  371MOL0     H50032   8.875   9.620   0.647 -0.2612 -0.3145 -2.0035
  371MOL0     H50033   8.954   9.479   0.598  0.4002  0.1445 -0.2287
  371MOL0     H50034   9.177   9.621   0.593  0.1985 -1.8002 -4.5906
  371MOL0     H50035   9.074   9.622   0.464  0.4487 -0.6985 -0.8565
  371MOL0     H50036   9.027   9.863   0.776 -0.9903 -0.0421  0.3735
  371MOL0     H50037   8.807  10.058   0.742  1.2018 -1.9481  0.5509
  371MOL0     H50038   8.960  10.148   0.753  0.8510  0.8308 -1.5753
  371MOL0     H50039   8.929  10.228   0.520 -0.0370 -2.2411 -1.0090
  371MOL0     H50040   8.773  10.151   0.496  0.2672  1.4913 -1.3793
  371MOL0     H50041   8.815  10.376   0.697  0.8361  0.4104 -1.0031
  371MOL0     H50042   8.661  10.308   0.652 -1.4230  2.4387  0.9086
  371MOL0     H50043   8.666  10.501   0.524 -0.2615 -0.7002 -0.4002
  371MOL0     H50044   8.715  10.383   0.409 -1.2648  0.7443  0.2884
  371MOL0     H50045   8.832  10.485   0.224 -1.3392 -0.0984  0.7721
  371MOL0     H50046   8.859  10.680   0.068 -0.4046  0.0819  0.7634
  371MOL0     H50047   8.853  11.209   0.004  1.9204 -1.6869  2.9433
  371MOL0     H50048   8.958  11.365  -0.139 -0.5078 -0.2652 -1.2127
  371MOL0     H50049   9.021  11.514  -0.310 -0.3245 -1.4758 -0.4501
  371MOL0     H50050   9.134  11.438  -0.202  1.1892 -2.7954  0.0016
  371MOL0     H50051   9.202  11.635  -0.332  0.5281 -1.1559  4.2795
  371MOL0     H50052   9.304  11.497  -0.347 -0.8074 -1.6331 -2.7349
  371MOL0     H50053   9.295  11.544  -0.578 -0.8640 -2.1218 -2.6380
  371MOL0     H50054   9.175  11.418  -0.557 -1.4762 -1.9102  4.0562
  371MOL0     H50055   9.092  11.709  -0.538 -0.6314  0.8518 -1.1358
  371MOL0     H50056   9.004  11.567  -0.592  0.0438  0.2345 -1.6487
  371MOL0     H50057   9.170  11.578  -0.801  0.6978 -0.3375 -0.4921
  371MOL0     H50058   9.245  11.702  -0.705  1.4869 -2.3202 -0.7298
  371MOL0     H50059   9.137  11.779  -0.903 -0.8553 -0.0293 -0.4750
  371MOL0     H50060   8.977  11.736  -0.833  0.5376 -0.2213 -1.1255
  371MOL0     H50061   9.031  11.910  -0.654  0.5938 -0.0460  0.6618
  371MOL0     H50062   9.015  11.959  -0.813  0.3957  0.2782 -1.0125
  371MOL0     H50063   9.288  11.927  -0.818 -0.3217  0.3666 -1.4073
  371MOL0     H50064   9.208  12.069  -0.760  2.9712  0.4082  0.8105
  371MOL0     H50065   9.132  11.067  -0.376  0.0659 -0.9761  1.4345
  371MOL0     H50066   9.075  10.894  -0.188 -1.7135 -0.0577  1.3259
  371MOL0     H50067   8.937  10.936   0.393 -0.4350  0.6657 -2.2018
  371MOL0     H50068   8.914  10.733   0.557 -0.1956 -1.1635  0.5033
  371MOL0     H50069   8.879   9.521   1.234 -0.2933  0.0714  0.0052
  371MOL0     H50070   8.665   9.489   1.311  2.4833  1.1366 -2.2988
  371MOL0     H50071   8.291   8.996   1.490 -0.2697 -0.4584  0.3146
  371MOL0     H50072   8.087   9.010   1.616  0.8398 -0.6064 -0.2471
  371MOL0     H50073   8.010   9.351   1.910  2.1322  0.9683  3.3497
  371MOL0     H50074   8.075   9.228   2.004  0.5711 -4.7190 -0.6256
  371MOL0     H50075   7.776   9.232   1.910 -1.1669 -3.2808 -1.1943
  371MOL0     H50076   7.849   9.270   2.070 -1.8944 -1.9455  0.7060
  371MOL0     H50077   7.967   9.037   2.039 -0.5325 -0.5131 -1.4507
  371MOL0     H50078   7.846   9.012   1.917 -1.8024  1.6947 -1.4828
  371MOL0     H50079   7.798   9.061   2.215  0.5890  0.4524  0.0760
  371MOL0     H50080   7.660   9.065   2.099  1.1895  2.0769 -0.3365
  371MOL0     H50081   7.724   8.669   2.177  1.5979  0.7598  1.1374
  371MOL0     H50082   8.239   9.357   1.816  1.3690 -2.7371  3.6085
  371MOL0     H50083   8.567   9.345   1.682 -0.7870 -0.5657  1.6742
  371MOL0     H50084   8.472   9.450   1.579  1.1272  2.2719  0.9481
  371MOL0     H50085   8.454   9.446   1.761  1.9121 -0.5002 -0.4120
  372MOL0     O50086   2.282  10.141   1.181 -0.3559  0.2918  0.3861
  372MOL0     C50087   2.378  10.088   1.230 -0.2226 -0.3634 -0.5981
  372MOL0     O50088   2.469  10.149   1.311  0.1813 -0.0839  0.2928
  372MOL0     C50089   2.445  10.277   1.349  0.4448 -0.1407  0.4179
  372MOL0     C50090   2.402  10.300   1.479 -0.7121 -0.4059  0.3115
  372MOL0     C50091   2.382  10.427   1.527 -0.0504 -0.2885  0.3555
  372MOL0     C50092   2.408  10.544   1.450 -0.7556 -0.3415 -0.5430
  372MOL0     O50093   2.418  10.667   1.500  0.5175 -0.6618 -0.4746
  372MOL0     C50094   2.433  10.696   1.641 -0.9616  1.0542 -0.3452
  372MOL0     C50095   2.568  10.671   1.716  0.0915 -0.1447  0.3750
  372MOL0     C50096   2.682  10.768   1.674 -0.3284  0.1148  0.2389
  372MOL0     C50097   2.647  10.920   1.707  0.1269 -0.4166  0.4802
  372MOL0     C50098   2.774  11.008   1.694  0.4505  0.9224  0.5709
  372MOL0     C50099   2.731  11.156   1.679  0.1875 -0.9106  0.2527
  372MOL0     C50100   2.857  11.234   1.667  0.3470 -0.4464  0.6251
  372MOL0     C50101   2.836  11.384   1.652  0.1623 -0.4360 -0.3466
  372MOL0     N50102   2.812  11.444   1.767  0.2473 -0.3573 -0.0822
  372MOL0     C50103   2.686  11.481   1.803  0.3579 -0.2601 -0.0575
  372MOL0     C50104   2.698  11.510   1.935  0.4167 -0.4815  0.2349
  372MOL0     C50105   2.585  11.542   2.034 -0.0389  0.5342  0.0419
  372MOL0     C50106   2.562  11.426   2.139 -0.3193  0.6192 -0.2779
  372MOL0     C50107   2.509  11.298   2.071  0.0743  0.8652 -0.3022
  372MOL0     C50108   2.422  11.199   2.158 -0.6801  0.1245  0.4089
  372MOL0     O50109   2.376  11.104   2.062  0.3682  1.0366 -0.0794
  372MOL0     C50110   2.302  11.002   2.114  0.3724  0.3093  0.3085
  372MOL0     C50111   2.222  10.998   2.229  0.4855 -0.4636  0.2377
  372MOL0     C50112   2.151  10.887   2.272 -0.0987 -0.9069  0.4253
  372MOL0     C50113   2.154  10.768   2.203 -0.1882  0.5958  1.0738
  372MOL0     C50114   2.079  10.640   2.224 -0.0039 -0.4010 -0.3406
  372MOL0     O50115   2.082  10.542   2.126  0.0101  0.7813 -0.3349
  372MOL0     C50116   2.016  10.421   2.136  0.1892 -0.4160 -0.7697
  372MOL0     C50117   1.904  10.404   2.220 -0.1820 -1.0875 -0.3369
  372MOL0     C50118   1.838  10.281   2.239 -0.1577  0.2527 -1.0114
  372MOL0     C50119   1.879  10.163   2.173 -0.1845  0.0025 -0.6724
  372MOL0     O50120   1.818  10.040   2.179  0.1839  0.5791 -0.3809
  372MOL0     C50121   1.747  10.011   2.300  0.7376 -0.1629  0.5790
  372MOL0     C50122   1.714   9.866   2.295  0.2907  0.4743 -0.5599
  372MOL0     C50123   1.671   9.800   2.434  0.0869  0.3666  0.7654
  372MOL0     C50124   1.792   9.777   2.529  0.7666 -0.6885  0.3432
  372MOL0     C50125   1.776   9.664   2.636 -0.8030 -0.8677 -0.6180
  372MOL0     C50126   1.668   9.698   2.748 -0.2599  0.4058 -0.8729
  372MOL0     C50127   1.673   9.574   2.848  0.1850  0.7057  0.1067
  372MOL0     C50128   1.584   9.599   2.967 -0.1206  0.5414 -0.0168
  372MOL0    Cl50129   1.618   9.737   3.075  0.1933  0.2572  0.0482
  372MOL0     C50130   1.991  10.178   2.089 -0.1808 -0.6472 -0.5497
  372MOL0     C50131   2.064  10.303   2.071  0.2496  0.3268  0.5275
  372MOL0     O50132   2.035  10.626   2.336  0.2039 -0.6357  0.9556
  372MOL0     C50133   2.221  10.776   2.076 -0.8301 -0.7979  0.9984
  372MOL0     C50134   2.292  10.888   2.035  0.0792 -0.8529  0.6586
  372MOL0     N50135   2.832  11.519   1.965  0.2455  0.0789  0.6364
  372MOL0     N50136   2.902  11.479   1.862 -0.6896  0.4367  0.1661
  372MOL0     C50137   2.452  10.517   1.319  0.3004 -0.5222 -0.1308
  372MOL0     C50138   2.472  10.390   1.264  0.9979 -0.1050  0.0271
  372MOL0     C50139   2.417   9.955   1.185  0.9578  1.7766  0.5164
  372MOL0     C50140   2.390   9.935   1.049 -1.4118 -0.5765 -0.0200
  372MOL0     C50141   2.419   9.815   0.987  0.4042 -0.1203  0.8851
  372MOL0     C50142   2.443   9.706   1.066 -0.2543 -0.2543  0.4282
  372MOL0     O50143   2.431   9.588   0.997  0.3471 -0.3348 -0.8506
  372MOL0     C50144   2.506   9.474   1.045  0.4857  0.0249 -1.1315
  372MOL0     C50145   2.496   9.379   0.925 -0.0295  0.4875  0.6249
  372MOL0     C50146   2.568   9.250   0.945  0.9374 -0.0804 -0.2830
  372MOL0     C50147   2.495   9.140   1.015  0.1143 -0.3927 -0.8050
  372MOL0     C50148   2.437   9.177   1.146 -0.5820  1.3315  0.4113
  372MOL0     C50149   2.393   9.202   1.250 -0.2533 -0.1223  0.3375
  372MOL0     C50150   2.449   9.718   1.200 -0.1323 -0.7420  0.6778
  372MOL0     C50151   2.444   9.845   1.265 -0.2975  0.4292 -0.4252
  372MOL0     C50152   2.440   9.854   1.415 -0.1072  0.7195 -0.4363
  372MOL0     H50153   2.402  10.225   1.558 -3.4202  0.9700  1.7831
  372MOL0     H50154   2.352  10.431   1.631  1.3145  1.4836  0.7351
  372MOL0     H50155   2.393  10.797   1.659  2.1452  2.5584 -1.2009
  372MOL0     H50156   2.354  10.629   1.678 -0.7945  0.2822 -1.3396
  372MOL0     H50157   2.598  10.569   1.691  1.7868 -0.0214  1.7452
  372MOL0     H50158   2.550  10.682   1.823 -0.3705  0.5413  0.2395
  372MOL0     H50159   2.720  10.751   1.573  5.8559  0.8446  2.0302
  372MOL0     H50160   2.773  10.751   1.732  1.2636  1.4696 -1.7490
  372MOL0     H50161   2.568  10.960   1.644 -0.1371  2.2976  2.3621
  372MOL0     H50162   2.600  10.942   1.803  0.1741  2.5792 -0.0832
  372MOL0     H50163   2.842  10.998   1.780 -1.2730  7.1532  3.2341
  372MOL0     H50164   2.815  10.995   1.594 -4.4734  4.0455 -2.2614
  372MOL0     H50165   2.672  11.162   1.587 -0.6807 -0.4107  0.8300
  372MOL0     H50166   2.675  11.201   1.761 -0.1325 -3.5762  1.6228
  372MOL0     H50167   2.917  11.203   1.581 -0.0869  0.4823 -0.0268
  372MOL0     H50168   2.924  11.216   1.751  1.6254 -3.0197 -0.8242
  372MOL0     H50169   2.933  11.419   1.615  0.2659  0.4179  0.6969
  372MOL0     H50170   2.763  11.402   1.572 -0.8744 -0.7695  0.4973
  372MOL0     H50171   2.594  11.468   1.747 -0.4821 -1.1289  1.4521
  372MOL0     H50172   2.620  11.629   2.090  1.5513  0.5322 -0.9006
  372MOL0     H50173   2.489  11.561   1.985  0.8509 -0.1435 -2.0668
  372MOL0     H50174   2.646  11.409   2.207  0.3823  1.0272 -1.0198
  372MOL0     H50175   2.487  11.467   2.207 -1.5261 -0.5861 -0.8418
  372MOL0     H50176   2.590  11.242   2.022 -1.3036 -0.2312 -1.3882
  372MOL0     H50177   2.449  11.337   1.988  0.8645  1.5675 -0.5646
  372MOL0     H50178   2.338  11.248   2.206 -1.0663  1.5278 -1.5771
  372MOL0     H50179   2.483  11.149   2.234 -2.7547 -1.5543  1.0713
  372MOL0     H50180   2.204  11.087   2.288 -4.5266 -0.7854 -0.3791
  372MOL0     H50181   2.091  10.890   2.363 -2.0861 -1.8633 -0.7825
  372MOL0     H50182   1.860  10.488   2.274  4.1785 -0.0056  2.0428
  372MOL0     H50183   1.744  10.276   2.294  0.7168  2.3901  0.8322
  372MOL0     H50184   1.819  10.024   2.381 -1.7504  1.6832  2.6514
  372MOL0     H50185   1.660  10.073   2.320  1.0471  1.2626 -2.0003
  372MOL0     H50186   1.629   9.848   2.229 -3.4867  1.5319  3.5120
  372MOL0     H50187   1.799   9.807   2.259 -1.8927 -3.5179  0.1759
  372MOL0     H50188   1.593   9.860   2.480 -2.3186 -0.7228 -1.5851
  372MOL0     H50189   1.631   9.702   2.405  0.7869  0.3401 -0.1675
  372MOL0     H50190   1.814   9.874   2.575  2.6526 -0.0430 -1.7202
  372MOL0     H50191   1.882   9.758   2.469  2.8597  3.7113  1.6467
  372MOL0     H50192   1.874   9.656   2.685 -0.8067  1.5390 -0.0937
  372MOL0     H50193   1.765   9.572   2.577  2.4798 -0.7252 -1.6997
  372MOL0     H50194   1.699   9.790   2.799 -0.5972 -0.9746  2.0818
  372MOL0     H50195   1.570   9.708   2.701 -0.1015  1.7807 -0.9472
  372MOL0     H50196   1.777   9.569   2.883 -0.0226  0.1315  0.6653
  372MOL0     H50197   1.642   9.482   2.798 -3.0154  1.0393  1.2488
  372MOL0     H50198   1.480   9.605   2.932  0.3013  1.5905 -1.1413
  372MOL0     H50199   1.578   9.512   3.033  0.9033  0.4457 -0.0370
  372MOL0     H50200   2.024  10.093   2.030  1.8474 -0.7352  0.6510
  372MOL0     H50201   2.153  10.311   2.008  1.5468 -2.0211  1.9002
  372MOL0     H50202   2.210  10.688   2.014 -0.5344 -2.3740  3.0932
  372MOL0     H50203   2.339  10.888   1.937  0.4123 -1.3325  0.8148
  372MOL0     H50204   2.482  10.605   1.263 -0.5347 -0.5825 -0.6966
  372MOL0     H50205   2.513  10.375   1.165  3.6262 -1.1923  1.1840
  372MOL0     H50206   2.349  10.016   0.990 -2.6016 -1.0106  0.1878
  372MOL0     H50207   2.402   9.799   0.881  3.3157 -2.8169  0.6469
  372MOL0     H50208   2.450   9.442   1.134  2.1590 -0.4025 -0.1788
  372MOL0     H50209   2.611   9.498   1.065  0.2009  0.7922 -0.5028
  372MOL0     H50210   2.540   9.413   0.831 -0.3371 -2.0586 -0.5147
  372MOL0     H50211   2.392   9.358   0.899  0.2470 -1.4530  0.9075
  372MOL0     H50212   2.654   9.290   1.000 -2.0612  1.8457  3.4992
  372MOL0     H50213   2.602   9.217   0.846  1.1940 -0.0969 -0.1896
  372MOL0     H50214   2.407   9.119   0.954 -0.2535 -0.9305 -0.1153
  372MOL0     H50215   2.551   9.047   1.030  0.6916 -0.4244 -2.8464
  372MOL0     H50216   2.342   9.215   1.344 -2.3097 -0.4229 -0.6850
  372MOL0     H50217   2.462   9.629   1.262  0.8584 -0.0841  1.4490
  372MOL0     H50218   2.338   9.857   1.454  0.3089  0.0582  0.7706
  372MOL0     H50219   2.506   9.783   1.466 -4.1307 -2.1101  1.2672
  372MOL0     H50220   2.486   9.951   1.441 -2.6451  2.1810 -1.1042
  373MOL0     O50221   3.002   5.600   4.050 -0.5297 -0.6644  0.0149
  373MOL0     C50222   3.081   5.611   4.148  0.4102 -0.3143  0.6378
  373MOL0     O50223   3.049   5.589   4.279  0.5174  0.0018 -0.3510
  373MOL0     C50224   2.913   5.576   4.325  0.2015  0.6187  0.2885
  373MOL0     C50225   2.792   5.546   4.263 -0.4637  1.5761  0.2746
  373MOL0     C50226   2.674   5.534   4.330 -0.2699 -0.4800  0.8490
  373MOL0     C50227   2.669   5.561   4.465  0.0617 -0.0001 -0.4053
  373MOL0     O50228   2.545   5.547   4.517  0.6837 -0.3460 -0.5537
  373MOL0     C50229   2.528   5.584   4.660  0.1679  0.7842  0.6240
  373MOL0     C50230   2.573   5.466   4.755 -0.0931 -0.3615 -0.7826
  373MOL0     C50231   2.563   5.492   4.909  0.4045 -0.1813  1.0697
  373MOL0     C50232   2.417   5.482   4.953  0.2488 -0.3990 -0.2645
  373MOL0     C50233   2.404   5.464   5.110  0.3165 -0.1715  0.2138
  373MOL0     C50234   2.248   5.472   5.152 -1.0222 -0.1238 -0.6466
  373MOL0     C50235   2.234   5.462   5.312  0.2610  0.5412 -0.1259
  373MOL0     C50236   2.123   5.351   5.340  0.0422 -0.0101  0.7273
  373MOL0     N50237   2.123   5.328   5.486  0.0693  0.5719  0.5034
  373MOL0     C50238   2.079   5.395   5.597  0.6939  0.5513  0.8592
  373MOL0     C50239   2.107   5.326   5.708 -0.6617 -0.0592 -0.9970
  373MOL0     C50240   2.070   5.371   5.847 -0.0688  0.8202 -0.8175
  373MOL0     C50241   1.922   5.382   5.873 -0.2860  0.3680  0.2592
  373MOL0     C50242   1.868   5.526   5.849  0.0138 -0.5815  0.1078
  373MOL0     C50243   1.725   5.562   5.902 -0.4335  0.1700  0.2404
  373MOL0     O50244   1.625   5.495   5.820  0.1419 -0.3198  0.5242
  373MOL0     C50245   1.572   5.378   5.869  0.5866  0.7122 -0.1730
  373MOL0     C50246   1.605   5.317   5.992 -0.0202  0.9718  0.0502
  373MOL0     C50247   1.529   5.203   6.028 -0.2047 -0.6332 -1.0209
  373MOL0     C50248   1.415   5.150   5.961  0.4545 -0.0101  0.3882
  373MOL0     C50249   1.356   5.016   5.995 -0.5072  0.2375  0.6875
  373MOL0     O50250   1.434   4.934   6.063 -0.4320 -0.0422 -0.0345
  373MOL0     C50251   1.385   4.810   6.087  0.6271  0.0369  0.5734
  373MOL0     C50252   1.267   4.783   6.162  0.0170 -0.6033  0.3402
  373MOL0     C50253   1.228   4.650   6.194  0.6072  0.0827 -0.1663
  373MOL0     C50254   1.303   4.537   6.149 -0.6653 -0.2929  0.6119
  373MOL0     O50255   1.262   4.412   6.181  0.1209 -0.4345  0.2770
  373MOL0     C50256   1.350   4.300   6.188  0.5255 -0.1605  0.2315
  373MOL0     C50257   1.273   4.181   6.239  0.3402 -0.0724  0.5242
  373MOL0     C50258   1.364   4.067   6.266  0.5374  0.4106  0.7413
  373MOL0     C50259   1.449   4.022   6.145 -0.2216  0.0215 -0.7165
  373MOL0     C50260   1.497   3.875   6.160  0.2259 -0.1800 -0.3962
  373MOL0     C50261   1.554   3.830   6.024  0.2529 -0.6715 -0.9703
  373MOL0     C50262   1.564   3.682   6.024 -0.3150  0.4364  0.7494
  373MOL0     C50263   1.645   3.637   5.893 -0.5320  0.4608  0.0431
  373MOL0    Cl50264   1.820   3.639   5.906 -0.1204  0.7431  0.3820
  373MOL0     C50265   1.421   4.566   6.067 -0.2756  1.6620 -0.3282
  373MOL0     C50266   1.462   4.700   6.040  1.2460  0.4412  0.0416
  373MOL0     O50267   1.252   4.983   5.937  0.6431 -0.1674 -0.2849
  373MOL0     C50268   1.379   5.220   5.845  0.4968 -1.1298  0.5832
  373MOL0     C50269   1.459   5.327   5.801 -0.0863 -0.7907  0.9613
  373MOL0     N50270   2.166   5.206   5.663 -0.5000 -0.7276 -0.3065
  373MOL0     N50271   2.176   5.206   5.531 -0.0065  0.0784  0.3224
  373MOL0     C50272   2.793   5.593   4.529  0.0983 -0.2521 -0.4889
  373MOL0     C50273   2.917   5.603   4.463  0.6774 -0.2537 -0.6889
  373MOL0     C50274   3.216   5.663   4.122  0.6142  0.5100 -0.7064
  373MOL0     C50275   3.299   5.678   4.241 -0.0226 -0.5567  0.1553
  373MOL0     C50276   3.428   5.736   4.234 -0.1720  0.2192  0.6218
  373MOL0     C50277   3.483   5.765   4.112 -0.1244  0.4396 -0.0134
  373MOL0     O50278   3.614   5.814   4.105  0.5911  0.8525  0.1722
  373MOL0     C50279   3.705   5.753   4.019 -0.4131 -0.0890  0.0754
  373MOL0     C50280   3.749   5.840   3.895  0.1174 -0.3604  0.7412
  373MOL0     C50281   3.748   5.987   3.928  0.2968  0.3991 -0.8027
  373MOL0     C50282   3.835   6.073   3.852 -0.4118  0.9507  0.4913
  373MOL0     C50283   3.795   6.213   3.860  0.0121  0.5533  0.6169
  373MOL0     C50284   3.747   6.326   3.868 -0.3881  0.2613  0.0531
  373MOL0     C50285   3.409   5.741   4.002 -0.0947 -0.3634  0.1768
  373MOL0     C50286   3.279   5.690   3.997 -0.6573 -1.1407 -0.0585
  373MOL0     C50287   3.198   5.680   3.867 -0.2653  0.0650 -0.2309
  373MOL0     H50288   2.804   5.506   4.163  1.6565 -3.1613  2.1129
  373MOL0     H50289   2.583   5.501   4.282 -0.1103  1.0979 -0.6334
  373MOL0     H50290   2.584   5.674   4.686 -0.7872  0.7841  2.8997
  373MOL0     H50291   2.425   5.611   4.682 -0.2112  0.6216 -0.8526
  373MOL0     H50292   2.676   5.435   4.739  0.4909  0.7154  0.6781
  373MOL0     H50293   2.505   5.387   4.720 -1.2923  0.6633 -0.8609
  373MOL0     H50294   2.614   5.586   4.929  0.8759  0.3831 -2.1751
  373MOL0     H50295   2.605   5.414   4.973 -2.6434 -2.6235  0.3526
  373MOL0     H50296   2.360   5.570   4.922 -0.2145 -1.6859 -3.4530
  373MOL0     H50297   2.362   5.404   4.900 -0.1611  0.2825 -0.8606
  373MOL0     H50298   2.446   5.370   5.149 -0.0583  0.2161  1.6092
  373MOL0     H50299   2.457   5.543   5.165 -1.3145 -2.6158  6.0478
  373MOL0     H50300   2.215   5.572   5.119 -1.2515 -0.5363 -1.7215
  373MOL0     H50301   2.204   5.381   5.110  1.4462 -2.1624  0.9152
  373MOL0     H50302   2.204   5.559   5.353  0.6120  1.2756 -1.5681
  373MOL0     H50303   2.331   5.448   5.362 -0.2412 -0.4809  0.6097
  373MOL0     H50304   2.024   5.383   5.307  0.5471  1.6886  0.7616
  373MOL0     H50305   2.142   5.256   5.289 -0.8693  1.0166 -1.6450
  373MOL0     H50306   2.017   5.483   5.584  0.2780 -0.1167 -2.7847
  373MOL0     H50307   2.095   5.287   5.912 -2.0915  2.0353  1.6765
  373MOL0     H50308   2.134   5.453   5.881  1.9618 -0.4131 -1.4614
  373MOL0     H50309   1.874   5.311   5.805 -0.1508  2.4090 -2.1115
  373MOL0     H50310   1.913   5.365   5.980  1.1287  1.8279  0.6488
  373MOL0     H50311   1.866   5.536   5.741  2.3105 -1.2228 -0.0630
  373MOL0     H50312   1.940   5.590   5.903  0.8534 -1.8511  0.5478
  373MOL0     H50313   1.719   5.671   5.895  0.5962  0.2268  0.0445
  373MOL0     H50314   1.710   5.548   6.009  1.3178 -0.2582  0.4552
  373MOL0     H50315   1.689   5.337   6.058  1.6289  1.0138 -1.9732
  373MOL0     H50316   1.559   5.156   6.122 -1.1881 -0.1630 -0.4571
  373MOL0     H50317   1.218   4.867   6.209  3.3720  0.8685  1.4866
  373MOL0     H50318   1.155   4.627   6.270  0.7003  0.1498 -0.0566
  373MOL0     H50319   1.406   4.275   6.098  0.5307  2.5948 -0.6398
  373MOL0     H50320   1.428   4.331   6.257 -0.5409  2.3811  0.4086
  373MOL0     H50321   1.216   4.206   6.329 -1.4207  2.9607 -1.2532
  373MOL0     H50322   1.194   4.159   6.167 -1.2622  0.1005  2.1663
  373MOL0     H50323   1.428   4.089   6.352 -1.0829 -3.7824  3.3277
  373MOL0     H50324   1.308   3.976   6.290 -0.3816  0.9241  0.5751
  373MOL0     H50325   1.547   4.069   6.137 -0.9301  1.2113 -3.3866
  373MOL0     H50326   1.390   4.029   6.053  0.2444 -2.1145 -1.2450
  373MOL0     H50327   1.409   3.812   6.178  1.0973 -1.1689  0.5585
  373MOL0     H50328   1.577   3.862   6.233 -0.6720 -0.8663  0.4801
  373MOL0     H50329   1.480   3.857   5.948 -0.7844 -0.8522 -0.0522
  373MOL0     H50330   1.647   3.880   5.995  0.2386 -0.5553 -0.8192
  373MOL0     H50331   1.465   3.635   6.020  0.1630 -0.4987 -1.1129
  373MOL0     H50332   1.611   3.645   6.115  1.9688 -2.3581 -1.3763
  373MOL0     H50333   1.611   3.542   5.851  0.6949 -1.3892  2.8747
  373MOL0     H50334   1.633   3.712   5.815  0.2097 -1.7537 -2.3178
  373MOL0     H50335   1.482   4.482   6.036 -2.8800  0.1153 -1.6621
  373MOL0     H50336   1.536   4.716   5.963  0.1433  2.0690 -0.7197
  373MOL0     H50337   1.302   5.185   5.778 -2.0966  1.8948  1.7044
  373MOL0     H50338   1.428   5.375   5.709 -3.3850  1.2496  2.9614
  373MOL0     H50339   2.787   5.633   4.630  1.2623  1.5432 -1.0714
  373MOL0     H50340   3.006   5.635   4.517 -0.0836  0.4547  0.1715
  373MOL0     H50341   3.275   5.642   4.341 -3.6775  0.1765 -0.3051
  373MOL0     H50342   3.482   5.754   4.326 -0.0771 -0.0759  0.6263
  373MOL0     H50343   3.676   5.654   3.985 -2.0723 -0.2120  1.6944
  373MOL0     H50344   3.795   5.731   4.077 -0.2684 -0.2328 -0.2013
  373MOL0     H50345   3.672   5.822   3.820  0.4522 -2.7165  0.8725
  373MOL0     H50346   3.849   5.809   3.865  0.0745 -1.7750  1.9255
  373MOL0     H50347   3.775   5.991   4.034  2.0989 -2.0304 -1.0849
  373MOL0     H50348   3.640   6.006   3.919 -0.3896 -2.7152 -0.3008
  373MOL0     H50349   3.940   6.065   3.882 -0.4374  1.6853  0.7958
  373MOL0     H50350   3.826   6.039   3.748  2.5157  1.9956 -0.2039
  373MOL0     H50351   3.695   6.418   3.883  1.4755  1.1865  1.2927
  373MOL0     H50352   3.453   5.754   3.903 -1.0165  0.4100 -0.1421
  373MOL0     H50353   3.271   5.675   3.785  2.5269  1.0686  2.0262
  373MOL0     H50354   3.142   5.587   3.856 -2.9408  1.5916 -0.2988
  373MOL0     H50355   3.124   5.761   3.863  1.1178  1.4843  1.3545
  374MOL0     O50356   2.524   4.709   6.001 -0.7079  0.2100 -0.2336
  374MOL0     C50357   2.414   4.694   6.060  0.3540 -0.2797 -0.1125
  374MOL0     O50358   2.401   4.661   6.193  0.4674  0.0420  0.9566
  374MOL0     C50359   2.512   4.599   6.246 -0.4357 -0.6624 -0.0952
  374MOL0     C50360   2.561   4.476   6.195  0.6667  0.8864  0.2538
  374MOL0     C50361   2.658   4.408   6.273 -0.5057 -0.4413 -1.0469
  374MOL0     C50362   2.711   4.461   6.400  0.1082  0.0467  0.9518
  374MOL0     O50363   2.822   4.400   6.465 -0.3554 -0.3428  0.0399
  374MOL0     C50364   2.930   4.352   6.387  1.1841 -0.3594 -0.7755
  374MOL0     C50365   3.018   4.453   6.330  1.0481 -0.3319  0.1188
  374MOL0     C50366   3.081   4.533   6.440 -1.2735  0.0220 -0.4770
  374MOL0     C50367   3.178   4.646   6.396  0.5976  0.6376  0.7622
  374MOL0     C50368   3.315   4.597   6.338  0.1641 -0.0170  0.5163
  374MOL0     C50369   3.420   4.581   6.445  0.6506  0.4586 -0.4213
  374MOL0     C50370   3.558   4.554   6.408  0.3335 -0.2679  0.3393
  374MOL0     C50371   3.659   4.601   6.507  0.7103 -0.4551  0.0585
  374MOL0     N50372   3.798   4.577   6.456  0.3739 -0.0606  0.0947
  374MOL0     C50373   3.838   4.559   6.327 -0.1957 -0.4978  0.6304
  374MOL0     C50374   3.981   4.567   6.337  0.4304  0.6436 -0.9068
  374MOL0     C50375   4.091   4.545   6.239 -0.0469  0.1916 -0.9095
  374MOL0     C50376   4.100   4.392   6.226 -0.0804 -0.7640  0.4240
  374MOL0     C50377   4.238   4.358   6.167  0.0556  0.3971  0.1289
  374MOL0     C50378   4.276   4.208   6.179  0.0282  0.0860 -0.5188
  374MOL0     O50379   4.375   4.174   6.081  0.5411 -0.1541 -0.2475
  374MOL0     C50380   4.486   4.109   6.117  0.1430  0.1254 -0.2029
  374MOL0     C50381   4.508   4.030   6.227  0.0885  0.1854 -0.5941
  374MOL0     C50382   4.618   3.947   6.255 -1.3246  0.0867 -0.3672
  374MOL0     C50383   4.724   3.952   6.166  0.6210  0.1415 -0.9069
  374MOL0     C50384   4.846   3.867   6.186 -0.3004 -1.2744 -0.4193
  374MOL0     O50385   4.840   3.790   6.291 -0.3677 -0.6686  0.5294
  374MOL0     C50386   4.939   3.691   6.305 -0.2101  0.2278  0.1587
  374MOL0     C50387   4.887   3.561   6.355  0.3076  1.1038  0.0816
  374MOL0     C50388   4.983   3.459   6.388  0.3096 -0.1497 -0.9326
  374MOL0     C50389   5.123   3.492   6.379  0.5453  0.9035 -0.2349
  374MOL0     O50390   5.218   3.401   6.401 -0.2248 -0.9348  0.8240
  374MOL0     C50391   5.188   3.261   6.408  0.0445  0.8768  0.2589
  374MOL0     C50392   5.324   3.196   6.432  0.4375  0.5782  0.3405
  374MOL0     C50393   5.398   3.182   6.299  0.0336 -0.8921 -0.2842
  374MOL0     C50394   5.532   3.115   6.334 -0.2215 -0.0860 -0.4529
  374MOL0     C50395   5.616   3.093   6.205 -0.4953 -0.1224  0.2942
  374MOL0     C50396   5.727   2.990   6.221  0.9695  0.8425  0.2170
  374MOL0     C50397   5.675   2.835   6.235  0.0217  0.1721 -0.0576
  374MOL0     C50398   5.622   2.790   6.093 -0.0992 -0.6621  0.9554
  374MOL0    Cl50399   5.525   2.644   6.109 -0.0959 -0.7072  0.5319
  374MOL0     C50400   5.166   3.616   6.345  0.7018  0.1250 -0.5678
  374MOL0     C50401   5.076   3.714   6.310 -0.5149 -0.3376  0.5373
  374MOL0     O50402   4.941   3.882   6.111 -0.0891 -0.8312 -0.8919
  374MOL0     C50403   4.714   4.041   6.054 -0.1377 -0.1539 -0.5230
  374MOL0     C50404   4.595   4.108   6.026  0.0792  0.1610  0.0284
  374MOL0     N50405   4.005   4.584   6.466  0.6757 -0.9133 -0.3724
  374MOL0     N50406   3.904   4.588   6.540  0.6710 -0.2450  0.6407
  374MOL0     C50407   2.672   4.587   6.432 -0.3032 -0.4428  0.1435
  374MOL0     C50408   2.569   4.646   6.356 -0.0369 -1.4924 -0.1376
  374MOL0     C50409   2.291   4.750   5.994 -1.1057  0.7169 -0.9352
  374MOL0     C50410   2.168   4.713   6.061  0.2463  0.2987 -0.2775
  374MOL0     C50411   2.044   4.753   6.007 -0.0039  0.7599  0.7855
  374MOL0     C50412   2.031   4.830   5.896  0.4194 -0.1531 -0.5572
  374MOL0     O50413   1.909   4.851   5.840  0.0463  0.5609 -0.0392
  374MOL0     C50414   1.894   4.980   5.797  0.4474 -0.7191  0.5234
  374MOL0     C50415   1.757   5.002   5.760  0.8726  0.4187  0.4781
  374MOL0     C50416   1.723   4.971   5.608  0.5880 -0.7324 -0.6198
  374MOL0     C50417   1.573   4.994   5.593  0.6102  0.6245 -0.3158
  374MOL0     C50418   1.531   4.976   5.446 -1.1886 -0.7175 -1.0758
  374MOL0     C50419   1.516   4.965   5.327 -0.8151 -0.4302  0.3524
  374MOL0     C50420   2.155   4.865   5.834  0.5974  0.0170 -0.1468
  374MOL0     C50421   2.279   4.829   5.878  0.0433 -0.1805  0.5032
  374MOL0     C50422   2.397   4.878   5.792 -0.4216 -0.3876 -0.1329
  374MOL0     H50423   2.513   4.434   6.107  0.7229 -0.6490  0.9072
  374MOL0     H50424   2.688   4.312   6.232  1.6003 -0.0462 -0.5590
  374MOL0     H50425   3.001   4.294   6.445  2.0107  1.1519 -0.2241
  374MOL0     H50426   2.876   4.293   6.312 -1.7716  0.4739  0.5223
  374MOL0     H50427   2.965   4.523   6.265  2.1037  1.4599  1.1115
  374MOL0     H50428   3.095   4.405   6.270 -0.1632 -1.2056 -0.7817
  374MOL0     H50429   3.146   4.465   6.497  0.2205 -0.6943 -2.8731
  374MOL0     H50430   3.003   4.570   6.508 -0.3908 -1.0848  1.2240
  374MOL0     H50431   3.114   4.699   6.325 -0.3106 -3.7121 -1.9930
  374MOL0     H50432   3.195   4.721   6.475 -0.3035  2.0007 -0.2848
  374MOL0     H50433   3.296   4.503   6.285  0.2482 -0.0224  0.4966
  374MOL0     H50434   3.355   4.674   6.272 -1.3052  3.1078  2.9758
  374MOL0     H50435   3.428   4.676   6.498  1.3778 -1.0933  2.5086
  374MOL0     H50436   3.380   4.508   6.517 -1.0418  0.9102 -0.8438
  374MOL0     H50437   3.580   4.605   6.313 -0.2825  0.2950  0.4877
  374MOL0     H50438   3.560   4.447   6.387 -0.6481 -0.6740  2.1628
  374MOL0     H50439   3.660   4.710   6.524  0.0856 -0.2834 -0.9837
  374MOL0     H50440   3.639   4.553   6.603 -0.7212  0.3733  0.2058
  374MOL0     H50441   3.782   4.546   6.236 -0.8741 -2.7370  1.3079
  374MOL0     H50442   4.069   4.610   6.154 -3.4887 -0.4292 -0.6530
  374MOL0     H50443   4.182   4.575   6.291  0.9630 -2.6160 -0.8937
  374MOL0     H50444   4.077   4.339   6.319 -0.4836  0.2955  0.9439
  374MOL0     H50445   4.031   4.345   6.155  0.2886  0.5972 -0.8839
  374MOL0     H50446   4.313   4.417   6.221  0.4734 -0.8344  0.9301
  374MOL0     H50447   4.235   4.400   6.066 -1.6382 -0.6110 -0.2717
  374MOL0     H50448   4.184   4.148   6.171 -1.5922  2.4939 -0.9213
  374MOL0     H50449   4.310   4.198   6.282 -2.2142 -0.1789  0.2635
  374MOL0     H50450   4.427   4.015   6.298 -0.0377 -1.7250 -1.0962
  374MOL0     H50451   4.614   3.885   6.344  0.6809  0.3758 -0.0311
  374MOL0     H50452   4.781   3.547   6.374 -0.2030 -0.2400 -3.1528
  374MOL0     H50453   4.938   3.361   6.402 -0.2224  0.1225 -0.7042
  374MOL0     H50454   5.131   3.241   6.500  0.5796  2.3134  0.9401
  374MOL0     H50455   5.135   3.215   6.324 -2.4892 -0.3705  2.3878
  374MOL0     H50456   5.385   3.242   6.511  1.0126 -1.5672  1.2156
  374MOL0     H50457   5.309   3.093   6.467  2.4540 -0.1722 -0.8239
  374MOL0     H50458   5.346   3.119   6.226 -0.0531 -1.2006  0.0418
  374MOL0     H50459   5.423   3.279   6.254  1.0227  0.0342  2.1159
  374MOL0     H50460   5.515   3.017   6.379  0.4630 -0.5337 -1.1377
  374MOL0     H50461   5.584   3.177   6.408 -0.1904 -0.3018 -0.2930
  374MOL0     H50462   5.656   3.191   6.178 -2.1581  0.3632 -0.5500
  374MOL0     H50463   5.554   3.062   6.120 -0.2709  0.4387 -0.0787
  374MOL0     H50464   5.797   2.994   6.137 -1.3936 -1.4777 -2.0497
  374MOL0     H50465   5.783   3.020   6.310  3.4394  3.4519 -2.0045
  374MOL0     H50466   5.607   2.819   6.320  3.7217 -1.8706  2.8547
  374MOL0     H50467   5.758   2.770   6.264  2.1795  2.5739 -0.5082
  374MOL0     H50468   5.557   2.870   6.056  2.6868  0.6115 -1.6253
  374MOL0     H50469   5.706   2.775   6.025 -0.4542  0.4739  0.2282
  374MOL0     H50470   5.269   3.650   6.351  0.9633 -0.4251 -1.6284
  374MOL0     H50471   5.106   3.813   6.277 -1.1063 -0.1066  0.6636
  374MOL0     H50472   4.803   4.056   5.994  0.6063 -1.4149  0.2194
  374MOL0     H50473   4.570   4.162   5.936  1.6935 -2.3505 -2.0433
  374MOL0     H50474   2.721   4.634   6.516  1.3946 -1.4058 -0.2578
  374MOL0     H50475   2.524   4.742   6.381  1.3572 -0.4618 -1.4046
  374MOL0     H50476   2.178   4.653   6.150 -1.1573 -2.3039 -1.7397
  374MOL0     H50477   1.956   4.723   6.064 -0.5936  3.3373  1.3744
  374MOL0     H50478   1.945   5.012   5.706 -1.3888  1.4119  0.1607
  374MOL0     H50479   1.925   5.050   5.874 -2.0474  1.5033 -0.3318
  374MOL0     H50480   1.727   5.106   5.765  0.6588  0.3530  0.5604
  374MOL0     H50481   1.689   4.953   5.830 -0.6124  1.1213 -0.4412
  374MOL0     H50482   1.749   4.866   5.594  1.2431 -1.3387  3.6889
  374MOL0     H50483   1.778   5.039   5.541  0.7456 -0.8526 -0.6121
  374MOL0     H50484   1.507   4.935   5.657  1.4306 -1.0289 -0.9153
  374MOL0     H50485   1.535   5.095   5.612 -3.2243 -1.2057  3.1732
  374MOL0     H50486   1.538   4.951   5.223  1.3116 -2.0184  0.9391
  374MOL0     H50487   2.146   4.906   5.733 -2.1904 -0.4881 -0.1994
  374MOL0     H50488   2.371   4.921   5.695  0.0259  1.7074  0.6305
  374MOL0     H50489   2.453   4.949   5.854 -4.4521 -0.7807  4.5007
  374MOL0     H50490   2.471   4.800   5.770 -0.7364 -0.5430 -0.6525
  375MOL0     O50491   9.426   2.126   3.848  0.8841  0.1936 -0.2526
  375MOL0     C50492   9.483   2.027   3.800 -0.0983 -0.5544 -0.2232
  375MOL0     O50493   9.465   1.897   3.830 -0.1746 -0.8547 -0.8186
  375MOL0     C50494   9.387   1.857   3.933  0.1512 -0.1273  0.5987
  375MOL0     C50495   9.291   1.749   3.910 -0.8699  0.2134 -0.1607
  375MOL0     C50496   9.232   1.696   4.023  0.8868 -0.8817 -0.0121
  375MOL0     C50497   9.264   1.737   4.148 -0.3985 -0.1174  0.1655
  375MOL0     O50498   9.220   1.658   4.246  0.1427  0.2044 -0.5983
  375MOL0     C50499   9.255   1.673   4.383  0.7971 -0.6669 -0.0366
  375MOL0     C50500   9.153   1.765   4.458  0.1693 -0.2222  0.3099
  375MOL0     C50501   9.202   1.782   4.595 -0.9240 -0.1761 -0.9380
  375MOL0     C50502   9.081   1.829   4.672 -0.2921 -0.4259  0.3071
  375MOL0     C50503   9.113   1.907   4.794 -0.0021  0.5478 -0.2986
  375MOL0     C50504   8.986   1.956   4.865  0.0713  0.3675 -0.4160
  375MOL0     C50505   9.001   1.920   5.018 -0.0515  0.1586 -1.2388
  375MOL0     C50506   8.868   1.955   5.089 -0.6115  0.3316 -0.4454
  375MOL0     N50507   8.762   1.869   5.057  1.0501 -0.4772  0.2550
  375MOL0     C50508   8.673   1.906   4.956  0.4739 -0.5794  0.4124
  375MOL0     C50509   8.607   1.794   4.917 -0.2383  0.1080  1.4480
  375MOL0     C50510   8.490   1.798   4.820  0.5316 -0.6461 -1.1190
  375MOL0     C50511   8.381   1.695   4.856 -0.7213 -0.0432 -0.5722
  375MOL0     C50512   8.253   1.696   4.764 -0.9293 -1.2187 -0.1739
  375MOL0     C50513   8.168   1.821   4.776  0.9987 -0.6167 -0.2259
  375MOL0     O50514   8.237   1.934   4.720 -0.5738  0.6310 -0.8922
  375MOL0     C50515   8.238   1.953   4.587  0.1598  0.7405  0.6740
  375MOL0     C50516   8.151   1.891   4.491 -0.3264 -1.0258  0.3370
  375MOL0     C50517   8.163   1.922   4.358 -0.3611  0.1803  1.3340
  375MOL0     C50518   8.266   1.987   4.299 -0.0217 -0.3423  0.5944
  375MOL0     C50519   8.270   2.025   4.150 -0.0856  0.6111  0.1879
  375MOL0     O50520   8.151   2.025   4.077  0.1287  0.1248  0.1968
  375MOL0     C50521   8.154   2.029   3.943 -0.7216  0.0814  0.1217
  375MOL0     C50522   8.143   1.913   3.879 -0.2015  0.2135 -0.3798
  375MOL0     C50523   8.133   1.894   3.741  0.0101 -0.1921 -0.3726
  375MOL0     C50524   8.137   2.009   3.666  0.2769  0.1425 -0.3374
  375MOL0     O50525   8.114   1.983   3.536 -0.2700  0.2130 -0.4006
  375MOL0     C50526   8.097   2.091   3.441 -0.1415 -0.2928 -0.7487
  375MOL0     C50527   8.117   2.037   3.298 -0.9098 -0.2854 -0.4746
  375MOL0     C50528   8.074   2.120   3.183 -0.1678  0.5703 -0.1159
  375MOL0     C50529   8.151   2.257   3.161 -0.3818  0.8587 -1.1624
  375MOL0     C50530   8.177   2.280   3.017  0.3658  0.3863  0.7973
  375MOL0     C50531   8.051   2.360   2.962  0.8448  0.6027 -0.6452
  375MOL0     C50532   8.088   2.407   2.815 -0.4954  0.3964 -0.5249
  375MOL0     C50533   7.967   2.458   2.738 -0.9806  0.0579 -0.2241
  375MOL0    Cl50534   7.902   2.603   2.809  0.0687 -0.2024  0.3195
  375MOL0     C50535   8.154   2.137   3.724  0.7894  0.3597  0.5428
  375MOL0     C50536   8.162   2.148   3.860 -0.1439  0.3676  0.1375
  375MOL0     O50537   8.377   2.036   4.091 -0.6142 -0.0392 -0.5434
  375MOL0     C50538   8.354   2.052   4.390 -0.3886  0.7788 -0.1230
  375MOL0     C50539   8.336   2.037   4.528  0.0408  0.8735  0.3561
  375MOL0     N50540   8.653   1.694   5.000  0.0272 -0.3283  0.4773
  375MOL0     N50541   8.752   1.734   5.069  0.0083  0.4961  0.4210
  375MOL0     C50542   9.346   1.844   4.158 -1.0343  0.3924 -0.2067
  375MOL0     C50543   9.409   1.911   4.059  0.3456 -0.2015  0.0304
  375MOL0     C50544   9.593   2.064   3.715  0.6586 -0.4685 -0.1591
  375MOL0     C50545   9.577   2.174   3.624 -0.3220  0.3238  0.2531
  375MOL0     C50546   9.683   2.215   3.534 -0.4304  0.6058 -0.1699
  375MOL0     C50547   9.800   2.145   3.534  0.8019 -0.3947 -0.2188
  375MOL0     O50548   9.917   2.183   3.474  0.6849  0.0209  0.4281
  375MOL0     C50549   9.926   2.322   3.435 -0.2058 -0.4670 -1.2280
  375MOL0     C50550  10.062   2.388   3.417  1.0739  0.2484  0.1294
  375MOL0     C50551  10.067   2.525   3.341 -0.5295 -0.5546 -0.0272
  375MOL0     C50552  10.210   2.552   3.293 -0.4193  0.3607 -0.1749
  375MOL0     C50553  10.312   2.557   3.403  0.2650  1.0207  0.5750
  375MOL0     C50554  10.409   2.563   3.486  1.3325 -0.2780  1.0190
  375MOL0     C50555   9.819   2.034   3.620 -0.1599  0.2506  0.5707
  375MOL0     C50556   9.719   2.007   3.718 -0.2242  0.5133  0.5231
  375MOL0     C50557   9.755   1.909   3.821 -0.7737  0.8480 -0.0889
  375MOL0     H50558   9.259   1.696   3.821  0.5460 -1.0324  0.0473
  375MOL0     H50559   9.157   1.619   4.009 -2.7695  2.2973  0.6317
  375MOL0     H50560   9.237   1.570   4.415 -2.4777 -0.3353 -0.4784
  375MOL0     H50561   9.360   1.699   4.399  0.6994 -1.4373  2.0804
  375MOL0     H50562   9.056   1.715   4.447  0.7760 -1.3606 -0.0363
  375MOL0     H50563   9.139   1.866   4.417 -1.4691  0.7032  2.8675
  375MOL0     H50564   9.273   1.865   4.603 -3.9000  2.5487 -0.8799
  375MOL0     H50565   9.242   1.696   4.649  0.7262  0.0300 -1.7727
  375MOL0     H50566   9.020   1.898   4.613 -1.3096  0.8032  2.6371
  375MOL0     H50567   9.021   1.748   4.715 -1.0790  0.3066  0.6229
  375MOL0     H50568   9.184   1.860   4.862 -0.9583 -0.4888  0.0203
  375MOL0     H50569   9.162   1.999   4.759  0.3446 -0.0602 -1.4634
  375MOL0     H50570   8.961   2.062   4.851 -0.5075  0.6766  2.4295
  375MOL0     H50571   8.911   1.888   4.823  2.6534 -0.9900 -3.2240
  375MOL0     H50572   9.082   1.983   5.056 -1.4250  1.8818 -1.0302
  375MOL0     H50573   9.033   1.818   5.039  3.6372  1.1810 -1.1116
  375MOL0     H50574   8.884   1.933   5.194  0.9171  0.0482 -0.7240
  375MOL0     H50575   8.845   2.062   5.076 -0.5809  0.2556 -1.2195
  375MOL0     H50576   8.664   2.006   4.914 -3.4073 -1.2273 -0.7392
  375MOL0     H50577   8.445   1.898   4.831  0.8751 -0.5201 -0.8304
  375MOL0     H50578   8.525   1.786   4.718  2.5943 -2.0911 -0.2909
  375MOL0     H50579   8.421   1.594   4.847 -0.9084 -0.0579 -1.2596
  375MOL0     H50580   8.338   1.715   4.955 -1.2271 -1.1148 -0.5687
  375MOL0     H50581   8.181   1.621   4.797 -1.1929 -0.3276  1.3759
  375MOL0     H50582   8.287   1.671   4.663  0.5859 -2.7648  0.6528
  375MOL0     H50583   8.157   1.843   4.882  1.3059  1.9335 -0.6436
  375MOL0     H50584   8.074   1.803   4.723  1.2750 -0.9356 -0.6257
  375MOL0     H50585   8.072   1.827   4.528  0.6429 -0.9531  2.6977
  375MOL0     H50586   8.085   1.887   4.291 -0.6758 -1.5570  2.5319
  375MOL0     H50587   8.144   1.826   3.944  1.4391  0.7249  0.3380
  375MOL0     H50588   8.107   1.797   3.702 -3.2517 -0.1067  1.3093
  375MOL0     H50589   7.995   2.130   3.450  0.1058  0.5020 -1.2417
  375MOL0     H50590   8.167   2.175   3.449 -3.8022  3.4939 -3.8647
  375MOL0     H50591   8.219   2.000   3.286 -1.2640 -1.2955 -0.4565
  375MOL0     H50592   8.049   1.951   3.300 -3.2263  1.3011  3.9018
  375MOL0     H50593   8.093   2.068   3.088  2.2933  2.7775 -0.9892
  375MOL0     H50594   7.966   2.130   3.177 -0.2798  0.7887  1.6727
  375MOL0     H50595   8.243   2.260   3.221 -0.7143 -1.8779 -0.3468
  375MOL0     H50596   8.084   2.330   3.207  0.0650  0.0430  0.9278
  375MOL0     H50597   8.199   2.195   2.952 -0.1554  1.7701 -1.3231
  375MOL0     H50598   8.257   2.354   3.005 -0.5237  1.4788  1.3800
  375MOL0     H50599   7.969   2.288   2.967  1.3974  0.0200  0.2960
  375MOL0     H50600   8.020   2.446   3.023  0.1406 -0.4938  0.5843
  375MOL0     H50601   8.137   2.324   2.763 -1.0633 -2.0176  2.5137
  375MOL0     H50602   8.163   2.485   2.825 -0.0601 -0.2402  1.5297
  375MOL0     H50603   8.006   2.495   2.643  1.6968  2.8018  1.7244
  375MOL0     H50604   7.887   2.384   2.737  0.1467 -1.2970 -3.7567
  375MOL0     H50605   8.150   2.234   3.676  0.6663  0.0903  0.0007
  375MOL0     H50606   8.168   2.246   3.907  0.1471  0.3534  0.1336
  375MOL0     H50607   8.432   2.112   4.344  3.3782 -2.5326  1.2757
  375MOL0     H50608   8.404   2.095   4.589  0.2337 -0.0503  1.0423
  375MOL0     H50609   9.375   1.859   4.261 -0.8194 -2.7977  0.2840
  375MOL0     H50610   9.475   1.996   4.073 -0.9579  1.0150 -0.9785
  375MOL0     H50611   9.489   2.236   3.619  0.3105  1.3429  1.2798
  375MOL0     H50612   9.678   2.306   3.474  4.1736  0.5730 -1.0003
  375MOL0     H50613   9.878   2.387   3.508  4.1994  2.7803 -0.8049
  375MOL0     H50614   9.881   2.326   3.335 -0.1672 -0.8281 -1.2607
  375MOL0     H50615  10.124   2.316   3.362  1.6345  0.1776  0.8361
  375MOL0     H50616  10.118   2.398   3.510  0.9839 -0.7118  0.2999
  375MOL0     H50617  10.044   2.601   3.417  1.2091 -0.7958  0.7858
  375MOL0     H50618   9.999   2.530   3.255  0.2731  1.6728 -0.6145
  375MOL0     H50619  10.247   2.474   3.225  2.2497  0.8128  0.6495
  375MOL0     H50620  10.200   2.647   3.239 -1.4464  0.5765  0.3653
  375MOL0     H50621  10.463   2.549   3.578 -1.0330  0.0222  2.5579
  375MOL0     H50622   9.911   1.979   3.607 -0.9616 -0.4182 -3.4525
  375MOL0     H50623   9.860   1.879   3.814 -0.0159  3.4461 -0.8805
  375MOL0     H50624   9.741   1.957   3.918 -2.1015 -1.0101  0.6893
  375MOL0     H50625   9.697   1.817   3.812 -0.2062  0.6833 -3.0045
  376MOL0     O50626  10.137   8.207   5.562  0.3202  0.4138  0.0439
  376MOL0     C50627  10.134   8.328   5.584 -0.0936 -0.7816 -0.2375
  376MOL0     O50628  10.043   8.419   5.535 -0.7827  0.3760 -0.5865
  376MOL0     C50629   9.955   8.386   5.432 -0.0517  0.1162  1.0259
  376MOL0     C50630   9.966   8.475   5.319  0.4300 -0.3781 -0.7569
  376MOL0     C50631   9.884   8.453   5.211  0.6162  0.0736 -0.4846
  376MOL0     C50632   9.778   8.356   5.203  0.0578  0.5399 -0.2699
  376MOL0     O50633   9.692   8.360   5.093 -0.1491 -0.3942 -0.3290
  376MOL0     C50634   9.664   8.233   5.027  0.8158  0.5671  0.2170
  376MOL0     C50635   9.646   8.260   4.884 -0.4668 -0.3881 -0.0485
  376MOL0     C50636   9.788   8.256   4.829 -0.5457 -0.6978 -0.5941
  376MOL0     C50637   9.789   8.326   4.696 -0.1632  0.7684  0.5031
  376MOL0     C50638   9.918   8.319   4.616 -0.4084 -0.4070  0.5599
  376MOL0     C50639  10.051   8.357   4.690  0.0540 -0.5532  0.1915
  376MOL0     C50640  10.160   8.352   4.584 -0.1416 -0.3532  0.2754
  376MOL0     C50641  10.304   8.362   4.653  0.7694  0.0669 -0.3510
  376MOL0     N50642  10.409   8.294   4.574  0.1119  0.0024  0.8630
  376MOL0     C50643  10.480   8.369   4.481 -0.0515  0.0882  0.4600
  376MOL0     C50644  10.578   8.287   4.442 -1.2630  0.3512  0.3987
  376MOL0     C50645  10.669   8.300   4.320 -0.2021  0.0994 -0.2082
  376MOL0     C50646  10.661   8.191   4.215 -0.7128  0.6757  0.0456
  376MOL0     C50647  10.525   8.172   4.151 -0.7088  0.7423 -0.4245
  376MOL0     C50648  10.527   8.065   4.038 -0.0327 -0.0204 -0.5505
  376MOL0     O50649  10.559   8.129   3.914 -0.5912  0.6587 -0.3781
  376MOL0     C50650  10.471   8.214   3.857  0.4385 -0.1608 -0.1411
  376MOL0     C50651  10.511   8.288   3.747 -0.3904  0.5584  0.2161
  376MOL0     C50652  10.433   8.386   3.681 -0.2103 -0.0005  0.1542
  376MOL0     C50653  10.309   8.417   3.743  1.0909 -0.4458 -0.0734
  376MOL0     C50654  10.213   8.524   3.694  0.3994  0.1890  0.6841
  376MOL0     O50655  10.104   8.538   3.770  0.0557 -1.0137 -0.4995
  376MOL0     C50656  10.026   8.648   3.747 -0.9309 -0.8125  0.2055
  376MOL0     C50657  10.068   8.776   3.791  0.3410  0.1145 -0.3686
  376MOL0     C50658   9.982   8.888   3.772  0.1234 -0.4068 -0.5351
  376MOL0     C50659   9.874   8.875   3.684  1.0672 -0.3864  0.6792
  376MOL0     O50660   9.798   8.970   3.626 -0.4949  0.1578 -0.0353
  376MOL0     C50661   9.851   9.107   3.612 -0.6841 -0.2313 -0.2223
  376MOL0     C50662   9.739   9.198   3.570 -0.2321 -0.2558 -0.8161
  376MOL0     C50663   9.799   9.337   3.558  0.0621  0.2054 -0.8766
  376MOL0     C50664   9.855   9.363   3.418 -0.5507 -0.8749  0.6995
  376MOL0     C50665   9.920   9.508   3.421  0.1632 -0.0273 -0.3032
  376MOL0     C50666   9.977   9.546   3.284 -0.1879 -0.7358  0.4738
  376MOL0     C50667  10.026   9.687   3.305 -0.6710  0.1017  0.1598
  376MOL0     C50668  10.067   9.757   3.177 -0.0144 -0.4324  0.1429
  376MOL0    Cl50669  10.105   9.935   3.209  0.2251  0.1009 -0.3383
  376MOL0     C50670   9.847   8.751   3.625  0.2538 -0.0770 -0.2108
  376MOL0     C50671   9.911   8.636   3.673 -0.1927  1.5431  0.2461
  376MOL0     O50672  10.247   8.598   3.604  0.4080 -0.2035  0.0997
  376MOL0     C50673  10.264   8.326   3.839  0.6927  0.6540 -0.6359
  376MOL0     C50674  10.341   8.232   3.895  1.4168  0.0290 -0.2360
  376MOL0     N50675  10.566   8.169   4.517 -1.1129  0.2414  0.2508
  376MOL0     N50676  10.467   8.180   4.592  0.4572 -0.4251  0.7694
  376MOL0     C50677   9.764   8.274   5.318  0.2865 -0.0056  1.5411
  376MOL0     C50678   9.852   8.288   5.428  0.0561  0.7253  0.3172
  376MOL0     C50679  10.183   8.362   5.714  0.0184  0.9518 -0.3930
  376MOL0     C50680  10.071   8.371   5.809  0.7453 -0.0445  1.2950
  376MOL0     C50681  10.095   8.410   5.942  0.0319  0.2017  0.6358
  376MOL0     C50682  10.223   8.442   5.991  1.6193  0.7484 -0.0041
  376MOL0     O50683  10.221   8.472   6.124 -0.3113  0.2825  0.8453
  376MOL0     C50684  10.349   8.486   6.181 -0.3092  0.1579 -0.0183
  376MOL0     C50685  10.313   8.529   6.321  0.5397  0.7157 -0.1524
  376MOL0     C50686  10.398   8.473   6.436 -0.1242  0.3450 -0.7271
  376MOL0     C50687  10.345   8.524   6.573  0.9518  0.1780 -0.0361
  376MOL0     C50688  10.428   8.466   6.685  0.0233 -0.8875  0.0570
  376MOL0     C50689  10.501   8.428   6.778 -0.3431  0.3388  1.0317
  376MOL0     C50690  10.328   8.416   5.897 -0.9442  0.2571 -0.2737
  376MOL0     C50691  10.312   8.382   5.763  0.3441 -0.9983 -0.3608
  376MOL0     C50692  10.427   8.358   5.672 -0.2301 -0.6943  0.4467
  376MOL0     H50693  10.033   8.559   5.330  1.9589 -1.6420  0.0738
  376MOL0     H50694   9.884   8.532   5.137  1.0927  0.2367 -0.3107
  376MOL0     H50695   9.734   8.151   5.044 -1.0679 -0.8110  1.7038
  376MOL0     H50696   9.571   8.200   5.074 -0.0214  0.8862 -1.1436
  376MOL0     H50697   9.591   8.354   4.884  1.0432  0.5758  2.5119
  376MOL0     H50698   9.582   8.180   4.845  2.2872 -2.2982 -0.9672
  376MOL0     H50699   9.827   8.155   4.813  2.1068  0.6130 -4.0049
  376MOL0     H50700   9.855   8.297   4.905  1.1360 -2.3541 -1.0905
  376MOL0     H50701   9.708   8.282   4.637  0.0749  0.4009  0.4429
  376MOL0     H50702   9.761   8.430   4.710  1.0613  1.0229  1.2001
  376MOL0     H50703   9.915   8.212   4.596 -4.2956 -0.2535 -0.6599
  376MOL0     H50704   9.901   8.371   4.521 -1.6299 -0.8158  0.5298
  376MOL0     H50705  10.050   8.452   4.743  1.2681 -1.0174  1.0842
  376MOL0     H50706  10.061   8.277   4.764 -2.2377 -1.1378 -0.0222
  376MOL0     H50707  10.146   8.429   4.508 -1.2762 -0.1266  0.6922
  376MOL0     H50708  10.155   8.256   4.533 -0.3033  0.1649 -0.6991
  376MOL0     H50709  10.322   8.466   4.679 -0.3718 -0.1873  1.6555
  376MOL0     H50710  10.284   8.307   4.745 -0.0945  1.7977  0.5375
  376MOL0     H50711  10.451   8.463   4.435  0.5246  0.4846  0.9001
  376MOL0     H50712  10.653   8.397   4.272 -0.3994  0.6726  0.9705
  376MOL0     H50713  10.767   8.312   4.367  0.3659 -0.2707 -1.2587
  376MOL0     H50714  10.736   8.219   4.141  0.9322 -5.0931 -1.0017
  376MOL0     H50715  10.694   8.096   4.260  0.6496  0.9350 -0.3475
  376MOL0     H50716  10.484   8.261   4.103 -0.5290  0.6956 -0.6688
  376MOL0     H50717  10.452   8.158   4.231  1.7318  1.9176  2.1602
  376MOL0     H50718  10.425   8.026   4.031  0.0456 -0.2890 -0.2669
  376MOL0     H50719  10.592   7.982   4.070  1.4660  1.7391  1.2821
  376MOL0     H50720  10.609   8.266   3.706 -1.8878 -0.2700 -3.3064
  376MOL0     H50721  10.474   8.443   3.598  0.7410 -0.8910 -0.0239
  376MOL0     H50722  10.167   8.794   3.832  0.2217 -1.6313  0.8130
  376MOL0     H50723  10.017   8.981   3.815  0.0842 -0.5467 -0.1984
  376MOL0     H50724   9.874   9.140   3.714 -1.7909  2.7093 -0.8467
  376MOL0     H50725   9.943   9.108   3.553 -0.1720 -3.1184  0.3639
  376MOL0     H50726   9.693   9.167   3.476 -3.5603 -0.1360  0.6164
  376MOL0     H50727   9.666   9.186   3.651  0.3944 -2.6854 -0.5510
  376MOL0     H50728   9.712   9.396   3.588 -2.9069 -4.2368  0.2877
  376MOL0     H50729   9.870   9.350   3.640  0.1629 -0.2232 -0.8934
  376MOL0     H50730   9.776   9.353   3.344  1.3528 -0.5435 -1.4818
  376MOL0     H50731   9.932   9.292   3.388  0.1029 -0.6728  1.8373
  376MOL0     H50732   9.990   9.504   3.506 -0.1983  3.1309  0.2494
  376MOL0     H50733   9.841   9.579   3.449  0.0264 -0.3441  0.1480
  376MOL0     H50734  10.063   9.486   3.252 -0.2778 -0.1874 -0.8587
  376MOL0     H50735   9.897   9.549   3.209 -0.2142  4.1758  0.3407
  376MOL0     H50736  10.105   9.696   3.379  0.3057 -2.6933 -0.4466
  376MOL0     H50737   9.942   9.749   3.339 -0.2409  1.5952 -1.3512
  376MOL0     H50738  10.152   9.710   3.128  1.5397  3.4633 -1.2693
  376MOL0     H50739   9.980   9.750   3.111  0.7864 -1.6649 -0.8100
  376MOL0     H50740   9.764   8.739   3.556 -1.8806 -2.7830  2.5545
  376MOL0     H50741   9.869   8.539   3.646  1.6790  1.3496 -2.4011
  376MOL0     H50742  10.156   8.331   3.852  0.3477 -1.7713 -1.9091
  376MOL0     H50743  10.290   8.175   3.972 -0.1475  0.0425 -1.2119
  376MOL0     H50744   9.697   8.190   5.308  2.4165 -1.4740 -2.2434
  376MOL0     H50745   9.832   8.217   5.508  2.8438  0.1551  0.5967
  376MOL0     H50746   9.972   8.356   5.768  1.2495 -2.7192  0.8359
  376MOL0     H50747  10.003   8.405   5.999 -1.9031 -0.3567 -2.2649
  376MOL0     H50748  10.409   8.569   6.142  1.8447  0.2858  3.2048
  376MOL0     H50749  10.410   8.397   6.198  0.7604  0.4895 -1.8025
  376MOL0     H50750  10.211   8.494   6.341  1.2562  0.0454  2.8865
  376MOL0     H50751  10.308   8.638   6.331  0.8872  0.6770  0.4929
  376MOL0     H50752  10.501   8.511   6.434 -0.0714  0.6569  2.3599
  376MOL0     H50753  10.389   8.365   6.430  1.2358  0.0438  1.5025
  376MOL0     H50754  10.332   8.632   6.582 -1.6632 -0.1221  0.7544
  376MOL0     H50755  10.245   8.481   6.587 -0.5057  2.8999 -1.3309
  376MOL0     H50756  10.573   8.400   6.853  2.1733  0.7341 -1.1117
  376MOL0     H50757  10.430   8.421   5.932 -0.9824  2.3376 -0.3625
  376MOL0     H50758  10.496   8.283   5.712 -0.4982 -0.5193  1.2506
  376MOL0     H50759  10.387   8.321   5.577  2.0652 -1.1217 -0.4206
  376MOL0     H50760  10.493   8.443   5.655  0.1474 -1.5393 -3.1999
  377MOL0     O50761   4.047   2.939   6.485  0.4752 -0.2178  0.5432
  377MOL0     C50762   3.999   2.836   6.532 -0.4785  0.3515 -0.2991
  377MOL0     O50763   4.069   2.722   6.540  0.0542  0.4968 -0.7778
  377MOL0     C50764   4.163   2.705   6.454 -0.5534 -0.5567  0.2843
  377MOL0     C50765   4.293   2.723   6.498  0.5232  0.0824 -0.8951
  377MOL0     C50766   4.400   2.702   6.411 -0.1755  0.0124 -0.1730
  377MOL0     C50767   4.391   2.681   6.273  0.1338  1.0668  0.2628
  377MOL0     O50768   4.491   2.670   6.182  0.3492  0.0994  0.1134
  377MOL0     C50769   4.559   2.550   6.179 -0.6167 -1.3945  0.4658
  377MOL0     C50770   4.628   2.534   6.046  1.2570  0.5511 -0.2246
  377MOL0     C50771   4.515   2.501   5.934  0.4866  0.8946 -1.0913
  377MOL0     C50772   4.584   2.527   5.801 -0.0654 -0.4633  0.5044
  377MOL0     C50773   4.513   2.500   5.671  1.5474 -0.1836 -1.0629
  377MOL0     C50774   4.458   2.360   5.658  0.5666 -0.8253  0.1656
  377MOL0     C50775   4.348   2.366   5.541 -1.3114  0.4277 -0.6580
  377MOL0     C50776   4.318   2.225   5.484  0.0646  0.2583  0.4264
  377MOL0     N50777   4.250   2.138   5.584 -0.0278 -0.4830  0.1671
  377MOL0     C50778   4.146   2.173   5.659 -0.4748  0.5262 -0.4602
  377MOL0     C50779   4.091   2.058   5.702  0.0335 -0.4758  0.6019
  377MOL0     C50780   3.971   2.049   5.802 -0.2516 -0.1133 -0.0719
  377MOL0     C50781   4.005   2.101   5.946 -0.7618  0.0403  0.0555
  377MOL0     C50782   4.061   2.245   5.964 -0.2386  0.1443  1.2101
  377MOL0     C50783   4.017   2.310   6.091 -0.2604 -0.2611 -0.3474
  377MOL0     O50784   3.872   2.317   6.121  0.7215 -0.2598 -0.1562
  377MOL0     C50785   3.813   2.408   6.038 -1.1005  1.4310 -0.5618
  377MOL0     C50786   3.793   2.539   6.079  0.8464  0.6632  0.1151
  377MOL0     C50787   3.744   2.642   5.996  0.2059 -0.2906 -0.0932
  377MOL0     C50788   3.699   2.597   5.870  0.4153  0.1701  0.8057
  377MOL0     C50789   3.650   2.693   5.766 -0.8187  0.5749 -0.5351
  377MOL0     O50790   3.669   2.831   5.798  0.0484 -0.4193 -0.5500
  377MOL0     C50791   3.653   2.917   5.694  1.4231 -0.0982 -0.0961
  377MOL0     C50792   3.703   2.890   5.567 -0.1842  0.1022 -0.1904
  377MOL0     C50793   3.686   2.973   5.453 -1.0810 -0.0179  0.3694
  377MOL0     C50794   3.602   3.085   5.472  0.2040 -0.4324  1.1712
  377MOL0     O50795   3.568   3.176   5.369 -0.1976 -0.3480  0.1860
  377MOL0     C50796   3.598   3.119   5.232 -0.3994  0.0375 -0.9315
  377MOL0     C50797   3.541   3.223   5.139  0.3196 -0.4803 -0.5201
  377MOL0     C50798   3.549   3.163   4.999  0.7006 -0.0437 -0.0558
  377MOL0     C50799   3.481   3.253   4.895  0.0566  0.5536  0.1382
  377MOL0     C50800   3.503   3.220   4.752  1.0270  1.1168 -0.1816
  377MOL0     C50801   3.377   3.142   4.693 -0.0102 -0.4795  0.2700
  377MOL0     C50802   3.378   3.133   4.548 -0.3658  0.7543 -0.4024
  377MOL0     C50803   3.298   3.018   4.490  0.0622  0.4736  0.3702
  377MOL0    Cl50804   3.369   2.861   4.550  0.1832 -0.7502  0.2423
  377MOL0     C50805   3.553   3.122   5.599 -0.3284  1.4275  0.4588
  377MOL0     C50806   3.585   3.036   5.712 -0.2560 -0.7631  0.3983
  377MOL0     O50807   3.587   2.653   5.667  0.1298 -0.9907  0.3413
  377MOL0     C50808   3.698   2.460   5.833 -0.3596 -0.2361 -1.0730
  377MOL0     C50809   3.766   2.374   5.915 -0.1121 -0.3761 -0.3333
  377MOL0     N50810   4.169   1.957   5.662 -0.6457  0.8231  0.1421
  377MOL0     N50811   4.265   2.006   5.588 -0.1498  0.9945 -0.0445
  377MOL0     C50812   4.258   2.669   6.228  0.8515  0.4507  0.2517
  377MOL0     C50813   4.140   2.673   6.318  0.5716  0.8077 -0.0193
  377MOL0     C50814   3.873   2.844   6.600  0.5743 -0.9872  0.1196
  377MOL0     C50815   3.874   2.849   6.738  0.3609  0.6294 -0.3011
  377MOL0     C50816   3.751   2.841   6.819  0.3255 -0.5516 -0.0812
  377MOL0     C50817   3.628   2.812   6.754 -0.0012 -0.1607 -0.0311
  377MOL0     O50818   3.501   2.796   6.815 -0.2545  0.6484 -0.7171
  377MOL0     C50819   3.488   2.700   6.924  0.2321  0.2535  0.1859
  377MOL0     C50820   3.386   2.605   6.887  0.8021  0.4617  0.1403
  377MOL0     C50821   3.402   2.526   6.756  0.6013 -0.8499  0.1186
  377MOL0     C50822   3.273   2.476   6.700  0.2532  0.7769  1.0963
  377MOL0     C50823   3.201   2.399   6.809  0.3218  0.2569  0.4747
  377MOL0     C50824   3.158   2.347   6.910  0.8857  0.4420  0.3149
  377MOL0     C50825   3.631   2.816   6.622  1.4807 -0.4395 -0.4364
  377MOL0     C50826   3.750   2.831   6.541  1.2870  0.0415 -0.0993
  377MOL0     C50827   3.734   2.816   6.399  0.0694  1.3135  0.0042
  377MOL0     H50828   4.310   2.739   6.604 -0.6352 -2.6414 -0.1878
  377MOL0     H50829   4.505   2.705   6.441 -0.5883  1.8152  1.2880
  377MOL0     H50830   4.640   2.562   6.251  2.5321 -1.4260 -2.8180
  377MOL0     H50831   4.504   2.459   6.208 -2.0341 -0.3134  1.3106
  377MOL0     H50832   4.694   2.447   6.045 -2.0491 -2.2024 -2.7526
  377MOL0     H50833   4.693   2.619   6.023  2.6073  0.4874  2.8328
  377MOL0     H50834   4.423   2.555   5.955  0.6646  0.6561  0.4215
  377MOL0     H50835   4.498   2.393   5.948  1.0387  1.1763  3.1838
  377MOL0     H50836   4.616   2.631   5.803 -0.7683 -0.1681 -1.5811
  377MOL0     H50837   4.680   2.475   5.796  1.8719  2.9038 -2.9225
  377MOL0     H50838   4.423   2.562   5.676  1.6835 -0.0282 -0.5615
  377MOL0     H50839   4.573   2.534   5.586 -0.0308  0.9074 -1.8055
  377MOL0     H50840   4.536   2.292   5.624  2.2495  1.1515 -0.1029
  377MOL0     H50841   4.415   2.333   5.755  0.7135  0.4650  0.6152
  377MOL0     H50842   4.392   2.426   5.461  2.5561  0.1370  1.0681
  377MOL0     H50843   4.258   2.422   5.570 -1.9294 -0.9976  0.2919
  377MOL0     H50844   4.264   2.236   5.390  0.6183 -3.7748 -0.5238
  377MOL0     H50845   4.413   2.179   5.457 -0.4314 -0.2564 -0.4936
  377MOL0     H50846   4.112   2.275   5.672 -3.1680 -0.5125  1.5263
  377MOL0     H50847   3.895   2.115   5.760 -2.0422  0.4105  3.6545
  377MOL0     H50848   3.925   1.949   5.799  1.3914 -0.9437  0.9383
  377MOL0     H50849   3.915   2.092   6.007 -0.3018 -3.0573  0.3974
  377MOL0     H50850   4.073   2.028   5.990  0.4542  0.2763 -1.3465
  377MOL0     H50851   4.025   2.322   5.895  2.1504  1.4179  1.2634
  377MOL0     H50852   4.169   2.247   5.942 -0.5308 -3.1000 -1.3298
  377MOL0     H50853   4.064   2.408   6.096 -0.9224  0.0574 -0.2885
  377MOL0     H50854   4.068   2.248   6.166  0.3567  1.7031  0.9131
  377MOL0     H50855   3.823   2.567   6.179 -1.7360  1.1690  0.8330
  377MOL0     H50856   3.756   2.744   6.031  2.4444 -0.1462 -1.1073
  377MOL0     H50857   3.754   2.794   5.559 -2.0081 -0.8071 -1.6172
  377MOL0     H50858   3.717   2.930   5.359  0.2236 -0.1417  0.8336
  377MOL0     H50859   3.704   3.111   5.208 -0.4114 -3.7496 -0.2648
  377MOL0     H50860   3.556   3.019   5.217  1.7474 -0.5333 -4.3954
  377MOL0     H50861   3.443   3.255   5.176  0.2540 -3.3092  2.2241
  377MOL0     H50862   3.610   3.308   5.143  2.7053 -2.2551 -1.3664
  377MOL0     H50863   3.654   3.155   4.970  0.9637 -1.1142  1.1161
  377MOL0     H50864   3.494   3.069   4.997  1.0514 -0.2528 -2.6764
  377MOL0     H50865   3.522   3.354   4.904  0.4629  0.8859 -3.6566
  377MOL0     H50866   3.375   3.255   4.922 -0.3030 -0.1559 -1.1189
  377MOL0     H50867   3.598   3.166   4.744 -0.2339 -1.3943  0.5311
  377MOL0     H50868   3.517   3.305   4.685  0.2397 -0.4881 -2.4973
  377MOL0     H50869   3.379   3.050   4.753  2.0941  0.7242  2.2673
  377MOL0     H50870   3.297   3.215   4.708  2.9708  4.1827 -3.6534
  377MOL0     H50871   3.478   3.125   4.506 -0.3056 -0.7976 -0.0279
  377MOL0     H50872   3.339   3.224   4.502  0.5930  0.9276 -0.8895
  377MOL0     H50873   3.195   3.023   4.527  1.1166 -1.2188  3.9802
  377MOL0     H50874   3.309   3.025   4.381 -2.4006  1.5577  0.1318
  377MOL0     H50875   3.490   3.210   5.593 -3.1008 -0.2848  2.0933
  377MOL0     H50876   3.571   3.065   5.816  1.5991 -1.2323  0.8286
  377MOL0     H50877   3.662   2.416   5.740 -2.0479  0.0394 -0.5815
  377MOL0     H50878   3.785   2.271   5.888  1.4159 -0.5879  1.2871
  377MOL0     H50879   4.241   2.638   6.125 -0.4003  1.0714  0.2485
  377MOL0     H50880   4.041   2.649   6.281  0.6125  1.3906 -0.5216
  377MOL0     H50881   3.968   2.840   6.792 -0.4807 -2.1554  0.8698
  377MOL0     H50882   3.764   2.835   6.926 -0.1595 -2.4448 -0.0993
  377MOL0     H50883   3.442   2.745   7.012 -0.2325 -1.6128  0.9520
  377MOL0     H50884   3.581   2.650   6.955 -1.1182 -1.8392  1.0932
  377MOL0     H50885   3.292   2.660   6.893  0.3613 -0.2578  0.0579
  377MOL0     H50886   3.378   2.535   6.971  1.2638 -1.1335 -1.0824
  377MOL0     H50887   3.474   2.447   6.774  2.8142  0.2655 -2.9199
  377MOL0     H50888   3.456   2.575   6.674 -1.2050 -0.1511 -0.7150
  377MOL0     H50889   3.217   2.564   6.666 -1.7489 -0.0907  1.9879
  377MOL0     H50890   3.283   2.416   6.609 -1.1104  3.1766 -0.7525
  377MOL0     H50891   3.121   2.303   7.000 -1.6549  0.5541 -0.5994
  377MOL0     H50892   3.539   2.801   6.567 -0.4742  1.2528  2.1123
  377MOL0     H50893   3.722   2.709   6.381 -1.9437  0.5910  4.3921
  377MOL0     H50894   3.645   2.866   6.361  0.0049  1.3576  0.2131
  377MOL0     H50895   3.824   2.860   6.356  2.5190 -0.5491  2.7899
  378MOL0     O50896   4.633   3.628   0.135  0.5199 -0.1813  0.0230
  378MOL0     C50897   4.537   3.698   0.165  0.3094 -0.3003 -0.6565
  378MOL0     O50898   4.410   3.658   0.202 -0.4230 -0.3769  0.1436
  378MOL0     C50899   4.384   3.523   0.227  1.3209  0.2439 -0.6049
  378MOL0     C50900   4.251   3.481   0.208 -0.5179  0.5700 -0.3645
  378MOL0     C50901   4.215   3.353   0.239 -0.5149 -0.1938  0.5740
  378MOL0     C50902   4.302   3.263   0.300  0.3102  1.0039  0.6261
  378MOL0     O50903   4.260   3.133   0.302 -1.3364 -0.0175  0.5618
  378MOL0     C50904   4.318   3.052   0.408 -0.3701  0.6494  0.8054
  378MOL0     C50905   4.236   2.926   0.424  0.9832  0.7168  0.4964
  378MOL0     C50906   4.093   2.948   0.486  0.5495 -0.6929 -0.3313
  378MOL0     C50907   4.026   2.821   0.496  0.5831 -0.0697  0.2568
  378MOL0     C50908   3.892   2.825   0.562 -0.0423  0.9089  0.2940
  378MOL0     C50909   3.815   2.691   0.544 -0.1293  0.1136 -0.7600
  378MOL0     C50910   3.688   2.696   0.629 -0.3644  0.2694  0.0221
  378MOL0     C50911   3.564   2.643   0.545  0.4327 -0.4725 -0.2622
  378MOL0     N50912   3.515   2.731   0.444 -0.2742  0.7332  0.6104
  378MOL0     C50913   3.508   2.706   0.308  1.0665  0.8518 -1.4347
  378MOL0     C50914   3.426   2.804   0.259  0.1348  0.4577  0.1105
  378MOL0     C50915   3.409   2.831   0.107  0.4620  0.2953  0.0786
  378MOL0     C50916   3.528   2.893   0.041 -0.4069  0.2959  0.9393
  378MOL0     C50917   3.576   3.021   0.126  0.1098  0.0037 -0.6181
  378MOL0     C50918   3.503   3.149   0.101 -0.1876  0.8765 -0.3912
  378MOL0     O50919   3.577   3.238   0.183  0.6741 -0.4284  0.7417
  378MOL0     C50920   3.667   3.326   0.116 -0.2227  0.0565 -0.6392
  378MOL0     C50921   3.764   3.390   0.194  0.0815 -0.4691 -0.3971
  378MOL0     C50922   3.855   3.474   0.138  0.1589 -0.3078  0.8832
  378MOL0     C50923   3.855   3.514   0.003  0.2441  0.1355  0.2576
  378MOL0     C50924   3.941   3.609  -0.066 -0.2552 -0.0973 -0.1860
  378MOL0     O50925   4.009   3.573  -0.173 -0.3674 -0.1785 -0.3320
  378MOL0     C50926   4.135   3.627  -0.210  0.0552  0.0348 -0.2625
  378MOL0     C50927   4.222   3.695  -0.126  0.5967 -0.0833  0.2892
  378MOL0     C50928   4.337   3.753  -0.174 -1.3253 -0.1503  0.1558
  378MOL0     C50929   4.378   3.741  -0.310 -0.2277 -0.7924  0.4704
  378MOL0     O50930   4.505   3.778  -0.363  0.2230  0.4429 -0.1520
  378MOL0     C50931   4.577   3.881  -0.310  0.3178 -0.5150 -0.0620
  378MOL0     C50932   4.703   3.823  -0.248 -0.4021  0.1494  0.4231
  378MOL0     C50933   4.822   3.773  -0.346  0.6305 -0.0692  1.1584
  378MOL0     C50934   4.933   3.705  -0.270 -0.3003  0.2747  0.6823
  378MOL0     C50935   5.029   3.641  -0.372 -0.2331  0.1981 -0.9184
  378MOL0     C50936   5.111   3.538  -0.287  0.1875  0.1061 -0.3969
  378MOL0     C50937   5.215   3.471  -0.374  0.4927  0.5354 -0.1936
  378MOL0     C50938   5.315   3.391  -0.286  0.4334  0.3838  0.5522
  378MOL0    Cl50939   5.444   3.303  -0.363  0.2114  0.5033 -0.0411
  378MOL0     C50940   4.283   3.688  -0.394  0.4277 -0.0385 -0.1698
  378MOL0     C50941   4.163   3.633  -0.347  0.2720  0.9665 -0.2338
  378MOL0     O50942   3.945   3.720  -0.018  0.1140 -0.9775 -0.2121
  378MOL0     C50943   3.774   3.438  -0.074 -0.3216  0.4394 -0.0923
  378MOL0     C50944   3.666   3.359  -0.015 -0.0798 -0.1682 -0.0672
  378MOL0     N50945   3.379   2.869   0.364 -0.5382  0.2788 -0.7139
  378MOL0     N50946   3.431   2.827   0.478  0.1819  0.1420 -0.0474
  378MOL0     C50947   4.441   3.306   0.330 -0.2806 -0.5826  0.7007
  378MOL0     C50948   4.473   3.438   0.296 -0.2376  0.0461  0.0583
  378MOL0     C50949   4.570   3.842   0.148  0.1024 -0.0046  0.0406
  378MOL0     C50950   4.456   3.924   0.133 -0.7295  0.6442 -0.0233
  378MOL0     C50951   4.467   4.057   0.118  0.0568 -0.4423  0.2863
  378MOL0     C50952   4.596   4.119   0.089 -0.3465 -0.7724 -1.1363
  378MOL0     O50953   4.611   4.253   0.070  0.9623  0.5474  0.0321
  378MOL0     C50954   4.491   4.321   0.025  0.0765  0.7685 -0.0258
  378MOL0     C50955   4.545   4.444  -0.057  0.1278  0.4611 -0.2990
  378MOL0     C50956   4.441   4.544  -0.086 -0.3910 -0.4943 -0.4140
  378MOL0     C50957   4.388   4.619   0.030  0.8260 -0.5655  0.4370
  378MOL0     C50958   4.268   4.696  -0.010 -0.3172 -0.1633  0.4795
  378MOL0     C50959   4.174   4.766  -0.053  0.1195  0.0746  0.1232
  378MOL0     C50960   4.713   4.043   0.112 -1.0291  0.2307 -0.3500
  378MOL0     C50961   4.699   3.900   0.126 -0.2451 -0.8577  0.1634
  378MOL0     C50962   4.833   3.821   0.124 -0.2477  0.2955  0.3640
  378MOL0     H50963   4.175   3.531   0.149 -1.7855  0.8829  1.4534
  378MOL0     H50964   4.115   3.317   0.219 -1.0854  0.3989  2.1706
  378MOL0     H50965   4.415   3.016   0.374 -1.2629 -2.5588  1.2867
  378MOL0     H50966   4.327   3.099   0.507 -0.9135 -0.5915  1.4647
  378MOL0     H50967   4.287   2.851   0.485 -1.4805 -2.5288 -1.1328
  378MOL0     H50968   4.217   2.897   0.320  3.5605  0.9257 -0.1085
  378MOL0     H50969   4.040   3.015   0.417 -1.9577 -1.6830  0.5115
  378MOL0     H50970   4.112   2.990   0.585  0.6262 -0.9391 -0.2418
  378MOL0     H50971   4.008   2.784   0.395 -0.7459  3.8111 -1.0612
  378MOL0     H50972   4.090   2.746   0.545 -1.3654 -1.6034  0.5663
  378MOL0     H50973   3.906   2.847   0.669  2.2000  0.9584  0.0323
  378MOL0     H50974   3.831   2.903   0.516  2.5508  4.7506  2.8322
  378MOL0     H50975   3.781   2.689   0.440 -0.3211  3.8868 -0.9189
  378MOL0     H50976   3.878   2.608   0.575 -1.2866 -0.8939 -0.9992
  378MOL0     H50977   3.654   2.796   0.658  1.0141  0.5342  0.7796
  378MOL0     H50978   3.701   2.631   0.716  0.2125 -0.9720 -0.9547
  378MOL0     H50979   3.595   2.549   0.498  0.2996 -0.4971 -0.2996
  378MOL0     H50980   3.479   2.624   0.611 -2.5509  0.1095 -3.6837
  378MOL0     H50981   3.573   2.637   0.256  1.6277 -1.6769  2.1996
  378MOL0     H50982   3.373   2.741   0.056  0.6065 -0.7411  1.7262
  378MOL0     H50983   3.324   2.898   0.091 -2.0215 -1.7425  3.3246
  378MOL0     H50984   3.604   2.814   0.041 -0.2777  0.4124  1.9222
  378MOL0     H50985   3.511   2.919  -0.064 -2.1743 -3.0266  0.3014
  378MOL0     H50986   3.685   3.030   0.127 -0.0407  3.4270 -1.6473
  378MOL0     H50987   3.558   3.005   0.233 -1.3577  1.7690 -0.5538
  378MOL0     H50988   3.397   3.143   0.128 -0.0353  1.1399  0.2769
  378MOL0     H50989   3.510   3.162  -0.007  0.8623 -0.1983 -0.4741
  378MOL0     H50990   3.770   3.371   0.300  1.1457 -2.5578 -0.7723
  378MOL0     H50991   3.940   3.524   0.182  0.4720  2.1659 -2.1634
  378MOL0     H50992   4.192   3.711  -0.023 -1.9682  0.1402 -0.4167
  378MOL0     H50993   4.410   3.791  -0.104  3.6048 -1.7219 -3.5947
  378MOL0     H50994   4.611   3.946  -0.392  1.3108 -1.5729 -0.5164
  378MOL0     H50995   4.510   3.950  -0.257 -1.3999  0.5782 -3.3515
  378MOL0     H50996   4.739   3.889  -0.169  2.5492 -1.2291  0.3687
  378MOL0     H50997   4.675   3.730  -0.199  2.9918 -1.0717  0.3412
  378MOL0     H50998   4.771   3.714  -0.422  0.8026  2.3248 -0.9357
  378MOL0     H50999   4.870   3.858  -0.396  0.3793 -1.1773 -1.0932
  378MOL0     H51000   4.887   3.635  -0.200  0.0431 -0.9246 -0.2650
  378MOL0     H51001   4.984   3.769  -0.198 -4.0334  4.2029  0.2708
  378MOL0     H51002   5.091   3.718  -0.419  1.1461 -0.5069 -0.2891
  378MOL0     H51003   4.971   3.588  -0.448 -1.8142  1.0719 -0.3696
  378MOL0     H51004   5.162   3.582  -0.202  2.4181 -2.2693 -0.3629
  378MOL0     H51005   5.046   3.464  -0.239  0.9523 -1.4851 -1.6951
  378MOL0     H51006   5.250   3.551  -0.440 -1.0110  0.9129 -0.5805
  378MOL0     H51007   5.167   3.398  -0.441 -0.4962  0.8879  0.1214
  378MOL0     H51008   5.360   3.460  -0.213 -2.2141  1.4051  1.3544
  378MOL0     H51009   5.254   3.328  -0.220  1.5463 -0.4497  0.8116
  378MOL0     H51010   4.306   3.676  -0.500 -1.8221 -1.5524 -0.5756
  378MOL0     H51011   4.099   3.590  -0.423  0.2258 -0.5202  0.6218
  378MOL0     H51012   3.789   3.450  -0.181  3.1497  0.3414  0.2759
  378MOL0     H51013   3.610   3.314  -0.097 -1.1239  2.4994 -0.8991
  378MOL0     H51014   4.519   3.246   0.375  2.5907  2.7463  0.5960
  378MOL0     H51015   4.577   3.456   0.321  0.5249 -0.4072 -2.5581
  378MOL0     H51016   4.357   3.893   0.163 -0.7525  2.0386  1.4995
  378MOL0     H51017   4.370   4.105   0.113  0.3320  0.3657  1.8997
  378MOL0     H51018   4.438   4.354   0.115 -1.0352  1.4471 -0.9000
  378MOL0     H51019   4.424   4.257  -0.033 -3.7907  1.6679  3.0364
  378MOL0     H51020   4.589   4.404  -0.149  2.4912 -3.7129  2.3211
  378MOL0     H51021   4.626   4.503  -0.013 -0.3572  0.5430  0.4993
  378MOL0     H51022   4.364   4.488  -0.140  1.8294 -1.9583 -2.2369
  378MOL0     H51023   4.497   4.610  -0.152  0.3817 -0.7415 -0.0315
  378MOL0     H51024   4.347   4.547   0.101 -1.0591  1.0462  1.1145
  378MOL0     H51025   4.464   4.681   0.080  2.1069 -1.9657  0.2864
  378MOL0     H51026   4.094   4.836  -0.069  0.8908  1.5421  2.2255
  378MOL0     H51027   4.805   4.099   0.104 -1.2465  0.4536 -1.5042
  378MOL0     H51028   4.839   3.774   0.223 -0.5347 -0.5646 -0.0194
  378MOL0     H51029   4.835   3.752   0.039 -1.5289 -1.8682  1.9754
  378MOL0     H51030   4.927   3.876   0.116  2.1706 -3.4622  0.3849
  379MOL0     O51031  10.320   7.234   3.955 -0.0330 -0.5266 -0.7401
  379MOL0     C51032  10.333   7.246   4.079  0.2058 -0.7164  0.0339
  379MOL0     O51033  10.319   7.141   4.171 -0.2971 -0.0543 -0.3935
  379MOL0     C51034  10.257   7.034   4.118 -1.0942  0.9327 -0.5053
  379MOL0     C51035  10.323   6.932   4.039 -0.2114 -0.2918  0.3537
  379MOL0     C51036  10.237   6.829   3.984  0.2666  0.1036  0.5130
  379MOL0     C51037  10.098   6.821   4.003 -0.0128  0.5082 -0.3312
  379MOL0     O51038  10.023   6.714   3.967  0.1090 -0.6634 -0.4019
  379MOL0     C51039   9.881   6.705   3.996  0.3532 -0.2021 -0.4084
  379MOL0     C51040   9.814   6.805   3.895 -0.1920  0.2682 -0.0944
  379MOL0     C51041   9.700   6.892   3.938  0.2845  0.2588 -0.4925
  379MOL0     C51042   9.569   6.806   3.931  1.0063 -0.0404 -1.3549
  379MOL0     C51043   9.438   6.865   3.985  0.0285  0.2518  0.7429
  379MOL0     C51044   9.317   6.843   3.896 -0.5096  0.4992  0.7478
  379MOL0     C51045   9.187   6.897   3.950  0.2975  0.2451 -0.3821
  379MOL0     C51046   9.077   6.821   3.884  0.6355  0.2154  0.7218
  379MOL0     N51047   8.950   6.887   3.896  0.1924  0.9146 -0.9128
  379MOL0     C51048   8.900   7.008   3.857  0.3975 -0.2317  0.2772
  379MOL0     C51049   8.779   7.035   3.901  0.2383 -0.7331 -0.4095
  379MOL0     C51050   8.691   7.157   3.889  0.0892 -0.1035 -0.6350
  379MOL0     C51051   8.586   7.131   3.772 -0.1483 -0.1182 -0.0905
  379MOL0     C51052   8.471   7.028   3.805  0.8361 -0.2555 -0.0721
  379MOL0     C51053   8.388   6.995   3.682  0.0386  0.1404 -0.4770
  379MOL0     O51054   8.327   7.118   3.629  0.3945 -0.3673 -0.1839
  379MOL0     C51055   8.323   7.112   3.496 -0.0782  0.0062 -0.2608
  379MOL0     C51056   8.400   7.205   3.421  0.5171  0.3624  0.3622
  379MOL0     C51057   8.390   7.193   3.284  1.5244 -0.2022 -0.4053
  379MOL0     C51058   8.308   7.106   3.215 -1.0007 -0.5984  0.4540
  379MOL0     C51059   8.284   7.109   3.075 -0.0560  0.1121  0.1201
  379MOL0     O51060   8.223   7.009   3.018 -0.2692  0.5105  0.0788
  379MOL0     C51061   8.193   6.990   2.882  0.5458 -0.7196 -0.5630
  379MOL0     C51062   8.068   6.933   2.849  0.1078  0.0147  0.5499
  379MOL0     C51063   8.031   6.909   2.722 -0.7929  0.9234  0.6876
  379MOL0     C51064   8.115   6.936   2.616  0.0352  0.3411  1.1173
  379MOL0     O51065   8.065   6.921   2.493  0.9140 -0.4693  0.1582
  379MOL0     C51066   8.158   6.913   2.381 -0.5573 -0.5373  0.8899
  379MOL0     C51067   8.111   6.850   2.255 -0.0813 -0.7283  0.6182
  379MOL0     C51068   8.092   6.694   2.271  0.4644  0.2247 -0.9329
  379MOL0     C51069   8.056   6.624   2.145 -0.1445  0.1504 -0.1084
  379MOL0     C51070   8.002   6.484   2.159 -0.7863  0.7380  0.1158
  379MOL0     C51071   8.110   6.387   2.213 -0.2259  0.6246  0.5717
  379MOL0     C51072   8.245   6.364   2.123  0.3188  0.7416 -0.6041
  379MOL0     C51073   8.320   6.240   2.168 -0.3807  0.5546 -0.6293
  379MOL0    Cl51074   8.237   6.091   2.108 -0.3666  0.6484 -0.5292
  379MOL0     C51075   8.241   7.000   2.641 -0.0886  0.2694 -0.2028
  379MOL0     C51076   8.281   7.024   2.777 -0.0736  0.0552  0.0947
  379MOL0     O51077   8.325   7.208   3.016 -0.0245  0.7741 -0.1397
  379MOL0     C51078   8.232   7.010   3.289  0.0381 -0.3648 -0.1585
  379MOL0     C51079   8.240   7.013   3.425 -0.4436 -0.2156 -0.7557
  379MOL0     N51080   8.756   6.920   3.977 -0.6077 -0.4065  0.4857
  379MOL0     N51081   8.849   6.833   3.971  0.8184 -0.3930 -0.6989
  379MOL0     C51082  10.045   6.924   4.078 -0.0848  0.0918 -0.1917
  379MOL0     C51083  10.122   7.018   4.141  0.3495 -0.2964  0.4630
  379MOL0     C51084  10.352   7.385   4.128  0.4890 -1.4097 -0.2430
  379MOL0     C51085  10.321   7.489   4.029  0.5340 -0.1011 -0.2090
  379MOL0     C51086  10.364   7.624   4.062 -0.3358 -0.2758 -0.1016
  379MOL0     C51087  10.405   7.666   4.189  0.1994 -0.2501 -0.8225
  379MOL0     O51088  10.439   7.802   4.211 -0.2733 -0.1889 -0.3616
  379MOL0     C51089  10.428   7.857   4.344  0.8872  0.5458  0.3559
  379MOL0     C51090  10.280   7.878   4.380 -0.5842 -0.6194 -0.7899
  379MOL0     C51091  10.211   7.984   4.294  0.0176 -0.9381 -0.0865
  379MOL0     C51092  10.069   7.961   4.251  0.2774  0.3301  0.6000
  379MOL0     C51093   9.972   7.973   4.359  0.5254  0.6960  0.1159
  379MOL0     C51094   9.904   7.987   4.456  0.2567  0.1747  0.1673
  379MOL0     C51095  10.401   7.565   4.288  1.0994  0.9208 -0.4843
  379MOL0     C51096  10.380   7.428   4.260 -1.5793  0.9950 -0.0608
  379MOL0     C51097  10.390   7.331   4.380 -0.8391  0.3202  0.1143
  379MOL0     H51098  10.431   6.924   4.032 -0.2190 -1.5384  1.2389
  379MOL0     H51099  10.293   6.754   3.929 -1.2797 -0.9116  0.2543
  379MOL0     H51100   9.848   6.602   3.980 -0.3308 -0.4785  2.2858
  379MOL0     H51101   9.871   6.731   4.102  1.7227  0.3532 -0.3911
  379MOL0     H51102   9.776   6.747   3.811  0.5827 -1.2883  0.5771
  379MOL0     H51103   9.895   6.868   3.859  1.2967 -1.6039 -0.1890
  379MOL0     H51104   9.683   6.985   3.883  0.2256 -0.5229 -1.8425
  379MOL0     H51105   9.716   6.933   4.038  2.3599  0.6319 -0.9396
  379MOL0     H51106   9.551   6.786   3.825  0.1677  1.1675 -1.4529
  379MOL0     H51107   9.583   6.712   3.987 -0.3560  0.6198  0.1750
  379MOL0     H51108   9.413   6.835   4.087 -1.1769  2.6504  1.2207
  379MOL0     H51109   9.451   6.973   3.985 -1.3434  0.4374  0.5691
  379MOL0     H51110   9.331   6.892   3.799  1.6370 -0.0515  0.7167
  379MOL0     H51111   9.321   6.735   3.875  0.9540  0.6615  0.0037
  379MOL0     H51112   9.190   7.006   3.935  1.2818  0.1862 -0.6930
  379MOL0     H51113   9.185   6.876   4.057 -0.6325  0.5154 -0.3417
  379MOL0     H51114   9.092   6.817   3.776 -0.0258  0.3576  0.6223
  379MOL0     H51115   9.079   6.720   3.926 -3.6051  0.1354  1.1582
  379MOL0     H51116   8.953   7.080   3.794  1.5454  0.0084  1.4710
  379MOL0     H51117   8.638   7.148   3.985 -2.3019 -0.4727 -1.9031
  379MOL0     H51118   8.737   7.255   3.875 -0.1018 -0.0990 -1.2415
  379MOL0     H51119   8.538   7.227   3.749 -0.4688 -0.6082 -1.5461
  379MOL0     H51120   8.641   7.088   3.688  1.2407  3.2014 -1.0712
  379MOL0     H51121   8.398   7.075   3.871 -0.2440 -1.3939 -0.4409
  379MOL0     H51122   8.507   6.933   3.847 -3.2726 -1.2049  1.7446
  379MOL0     H51123   8.305   6.926   3.699 -2.0429  1.6661 -3.4328
  379MOL0     H51124   8.454   6.951   3.607 -0.5976  0.2319 -1.0959
  379MOL0     H51125   8.460   7.279   3.473  1.7306 -0.3504  0.0099
  379MOL0     H51126   8.452   7.261   3.228  1.0018 -0.7005 -1.6179
  379MOL0     H51127   8.005   6.912   2.935  1.0948  0.6220  1.4546
  379MOL0     H51128   7.927   6.880   2.705 -0.3081  0.7035 -2.5569
  379MOL0     H51129   8.200   7.012   2.360  2.2999 -1.3864  2.1685
  379MOL0     H51130   8.247   6.858   2.411 -1.6006 -2.1531  1.1462
  379MOL0     H51131   8.015   6.902   2.248  2.2752  4.2570  1.1896
  379MOL0     H51132   8.184   6.865   2.175  2.8978  1.2170  3.4285
  379MOL0     H51133   8.180   6.639   2.307  0.3158 -0.6146 -1.8327
  379MOL0     H51134   8.003   6.667   2.328 -0.0353 -2.6517 -2.8678
  379MOL0     H51135   8.153   6.608   2.096  0.3816 -1.4196  1.3114
  379MOL0     H51136   7.983   6.681   2.087  0.2577  2.2726  1.3592
  379MOL0     H51137   7.958   6.445   2.067 -0.1944 -0.5964  0.3679
  379MOL0     H51138   7.922   6.478   2.234  2.0217 -2.5918  3.2727
  379MOL0     H51139   8.130   6.422   2.314 -0.4124  0.3783  0.6951
  379MOL0     H51140   8.062   6.289   2.206 -2.4206  1.6916 -4.9178
  379MOL0     H51141   8.312   6.450   2.133  1.0875  0.1265 -0.3819
  379MOL0     H51142   8.227   6.342   2.017  1.0946 -2.6095 -0.1599
  379MOL0     H51143   8.413   6.251   2.113 -0.8311  2.9271 -1.0179
  379MOL0     H51144   8.334   6.238   2.277  1.4404  1.3377 -0.8241
  379MOL0     H51145   8.303   7.040   2.561  0.0398 -0.9730 -0.7495
  379MOL0     H51146   8.370   7.084   2.792  0.5584 -0.8770  0.1767
  379MOL0     H51147   8.169   6.941   3.234  5.0085 -2.0659 -4.5047
  379MOL0     H51148   8.173   6.943   3.474 -0.2467 -0.4794 -0.8654
  379MOL0     H51149   9.941   6.936   4.107  0.3879  1.3557  1.0884
  379MOL0     H51150  10.064   7.084   4.206  0.4033 -0.5650  0.7857
  379MOL0     H51151  10.280   7.461   3.932 -0.3528 -1.2849  0.4933
  379MOL0     H51152  10.363   7.703   3.987  2.0836 -0.8297 -0.7791
  379MOL0     H51153  10.484   7.950   4.351 -1.2490  1.7929  2.1441
  379MOL0     H51154  10.467   7.788   4.420 -0.7109  0.5635  1.2383
  379MOL0     H51155  10.262   7.912   4.483 -3.4962 -0.8795 -1.1304
  379MOL0     H51156  10.230   7.782   4.368 -0.6337 -1.0746  2.2277
  379MOL0     H51157  10.274   8.002   4.207  0.2772 -4.4142 -0.7895
  379MOL0     H51158  10.205   8.081   4.343  0.1268 -1.6350  1.3546
  379MOL0     H51159  10.026   8.022   4.171 -0.7794 -1.7788 -0.5051
  379MOL0     H51160  10.067   7.861   4.208  2.3019  1.5298 -2.6738
  379MOL0     H51161   9.843   8.000   4.544 -2.5736  1.7992 -1.8539
  379MOL0     H51162  10.421   7.583   4.394  1.7688  0.3478 -0.5100
  379MOL0     H51163  10.290   7.293   4.404  0.9764 -3.0432  3.3437
  379MOL0     H51164  10.458   7.250   4.353 -1.1530 -0.4497  1.5549
  379MOL0     H51165  10.431   7.377   4.470  3.7465 -0.5823 -1.2596
  380MOL0     O51166   2.187   3.366   4.887  0.7181 -0.0580 -0.1073
  380MOL0     C51167   2.233   3.317   4.988  0.7654  0.1449 -0.1845
  380MOL0     O51168   2.363   3.275   5.004  0.2398 -0.0544  0.3151
  380MOL0     C51169   2.458   3.270   4.901 -0.5770 -0.8849  0.3401
  380MOL0     C51170   2.593   3.291   4.943  0.1636 -0.3380 -1.1007
  380MOL0     C51171   2.680   3.342   4.845 -0.7217 -0.0274  0.3488
  380MOL0     C51172   2.659   3.329   4.708 -0.2251  0.0819 -0.0338
  380MOL0     O51173   2.749   3.382   4.617 -0.6576  0.0360  0.2777
  380MOL0     C51174   2.807   3.275   4.545  0.6088  0.2440  0.4684
  380MOL0     C51175   2.922   3.331   4.459 -0.3619  0.1343  0.7230
  380MOL0     C51176   3.018   3.230   4.399 -0.0435  0.5878  0.2052
  380MOL0     C51177   3.090   3.276   4.268  0.0330  0.2572  0.1142
  380MOL0     C51178   3.038   3.228   4.132  0.1867 -0.6837 -0.4491
  380MOL0     C51179   3.014   3.076   4.115 -0.1705  0.3724  0.2653
  380MOL0     C51180   2.968   3.039   3.969  0.3274 -0.1114 -0.3801
  380MOL0     C51181   2.882   2.911   3.986 -0.6760  0.2064  0.6313
  380MOL0     N51182   2.802   2.900   3.862  0.9436 -0.4645 -0.1707
  380MOL0     C51183   2.679   2.957   3.847  0.2591 -0.0913  0.2477
  380MOL0     C51184   2.647   2.932   3.721  0.6091 -0.1397  0.5248
  380MOL0     C51185   2.524   2.994   3.639 -0.4016  0.5211  0.8054
  380MOL0     C51186   2.435   3.069   3.734  0.4039 -0.6018 -0.7241
  380MOL0     C51187   2.364   2.973   3.826  0.5327  0.4163  0.7985
  380MOL0     C51188   2.264   3.035   3.919 -0.1059  0.0105  0.3026
  380MOL0     O51189   2.200   2.933   3.987  0.5546 -0.2841 -0.4231
  380MOL0     C51190   2.070   2.959   4.033  0.2053  1.4211  0.2331
  380MOL0     C51191   2.019   3.085   4.045  0.9111 -0.4669  0.1968
  380MOL0     C51192   1.886   3.102   4.083  1.1025  0.9838  0.2402
  380MOL0     C51193   1.814   2.981   4.116  0.4228  0.0893 -0.5399
  380MOL0     C51194   1.677   2.995   4.176 -0.0118 -0.8785 -0.0542
  380MOL0     O51195   1.632   3.121   4.171  0.7412 -0.1155 -0.5029
  380MOL0     C51196   1.501   3.155   4.153 -0.8995 -0.7284 -0.3906
  380MOL0     C51197   1.475   3.291   4.118 -0.6044 -0.4373 -0.2253
  380MOL0     C51198   1.343   3.342   4.112 -0.1489 -0.1185 -0.3102
  380MOL0     C51199   1.233   3.259   4.142 -0.1927  1.3994 -0.4412
  380MOL0     O51200   1.101   3.288   4.157 -0.0886 -0.1590 -0.3075
  380MOL0     C51201   1.073   3.426   4.191 -0.5969  0.0225 -0.7474
  380MOL0     C51202   0.935   3.428   4.257 -0.6339  0.3262 -0.2096
  380MOL0     C51203   0.825   3.386   4.152 -0.0009 -0.9206  0.0301
  380MOL0     C51204   0.690   3.438   4.194  0.9080 -0.0707  0.1678
  380MOL0     C51205   0.586   3.417   4.083 -0.1808 -0.6123 -0.6562
  380MOL0     C51206   0.444   3.465   4.121 -0.2408  0.2375  0.2932
  380MOL0     C51207   0.334   3.464   4.003  0.3891  0.0257 -1.0442
  380MOL0     C51208   0.197   3.485   4.060  0.1492  0.5860 -0.0659
  380MOL0    Cl51209   0.078   3.478   3.917 -0.0176  0.4396  0.0925
  380MOL0     C51210   1.256   3.117   4.165  0.2403  0.1757 -0.4412
  380MOL0     C51211   1.386   3.077   4.164 -0.5484  0.9028 -0.2333
  380MOL0     O51212   1.646   2.908   4.248  0.2837 -0.6554 -1.3032
  380MOL0     C51213   1.869   2.858   4.090  0.6411  0.0759  0.1639
  380MOL0     C51214   1.998   2.846   4.050  0.1965  0.0943  0.2129
  380MOL0     N51215   2.728   2.836   3.663 -0.1448  0.1390  0.1248
  380MOL0     N51216   2.834   2.832   3.747 -0.1164  0.2838  0.0048
  380MOL0     C51217   2.536   3.284   4.673 -0.4564  0.2737 -0.1029
  380MOL0     C51218   2.434   3.256   4.764  0.0353  0.2026 -0.2203
  380MOL0     C51219   2.143   3.313   5.106  0.0881 -0.1883  0.9143
  380MOL0     C51220   2.205   3.336   5.229 -0.0995  0.0187  0.7543
  380MOL0     C51221   2.130   3.349   5.343  0.3546  0.2023 -0.2259
  380MOL0     C51222   1.994   3.318   5.346  0.5441  0.7189 -0.5726
  380MOL0     O51223   1.933   3.313   5.475  0.1049  0.1676 -0.4028
  380MOL0     C51224   1.802   3.257   5.485  0.0833 -0.0195 -0.2118
  380MOL0     C51225   1.711   3.382   5.454  0.5463 -0.1988 -0.6594
  380MOL0     C51226   1.587   3.381   5.539 -0.0340  0.0402 -0.1071
  380MOL0     C51227   1.522   3.513   5.525 -0.2323 -0.8111 -0.2443
  380MOL0     C51228   1.424   3.541   5.633 -0.3474 -0.0618 -0.0274
  380MOL0     C51229   1.343   3.556   5.715  0.7908  0.6058  0.5222
  380MOL0     C51230   1.937   3.279   5.220 -0.7644 -0.0951  0.1414
  380MOL0     C51231   2.009   3.281   5.104  0.5778  0.0661 -0.0735
  380MOL0     C51232   1.931   3.239   4.980 -0.1811 -1.0544 -0.5935
  380MOL0     H51233   2.612   3.295   5.050 -0.0210 -2.9132 -0.8954
  380MOL0     H51234   2.777   3.386   4.867  0.7453 -3.6346  1.8627
  380MOL0     H51235   2.846   3.194   4.607 -0.7448  0.3492  1.4874
  380MOL0     H51236   2.740   3.228   4.473 -0.4688  0.5397  1.2540
  380MOL0     H51237   2.985   3.393   4.523  0.7701  0.0744 -0.2885
  380MOL0     H51238   2.882   3.392   4.378  2.2172 -0.9347 -1.5297
  380MOL0     H51239   2.948   3.147   4.383  0.7310  0.1174 -0.8738
  380MOL0     H51240   3.081   3.198   4.482  0.7350 -0.9258 -0.9228
  380MOL0     H51241   3.097   3.385   4.267 -1.9505  0.4364  0.9451
  380MOL0     H51242   3.184   3.220   4.265 -2.3018 -4.1966  1.2869
  380MOL0     H51243   2.935   3.266   4.130 -0.4985 -2.2367  1.3053
  380MOL0     H51244   3.101   3.274   4.055  0.4100  0.7280  0.5289
  380MOL0     H51245   3.107   3.020   4.128  0.2019 -0.5533 -4.5571
  380MOL0     H51246   2.943   3.036   4.187  0.6620 -1.9785 -0.1417
  380MOL0     H51247   3.045   3.043   3.893  0.4030  3.1575 -0.2870
  380MOL0     H51248   2.904   3.122   3.936 -0.1005  0.4537  1.6978
  380MOL0     H51249   2.948   2.826   4.005  1.4200  1.5412 -0.2954
  380MOL0     H51250   2.807   2.917   4.065 -1.8666  0.4957 -0.4870
  380MOL0     H51251   2.618   3.023   3.908  0.9603 -0.4598  1.3764
  380MOL0     H51252   2.566   3.048   3.554  1.4314 -0.8764  0.7593
  380MOL0     H51253   2.468   2.907   3.604  2.2258 -1.4058  1.0225
  380MOL0     H51254   2.488   3.153   3.781  1.1100 -0.4437 -1.7771
  380MOL0     H51255   2.354   3.104   3.669 -1.9842 -6.7748 -1.7780
  380MOL0     H51256   2.429   2.934   3.905 -0.7210  1.0438  2.1784
  380MOL0     H51257   2.326   2.889   3.767 -1.4455  1.3448  0.6897
  380MOL0     H51258   2.195   3.076   3.845  2.7343  1.3839 -1.7807
  380MOL0     H51259   2.324   3.103   3.979  1.2257 -1.5235  0.7843
  380MOL0     H51260   2.083   3.171   4.031  4.0428 -2.3271  1.8551
  380MOL0     H51261   1.843   3.201   4.096  3.5870  1.8799  2.2477
  380MOL0     H51262   1.565   3.350   4.100 -0.8275 -0.4434 -1.4506
  380MOL0     H51263   1.324   3.445   4.083 -4.7278 -0.8713 -0.6622
  380MOL0     H51264   1.153   3.454   4.259  0.1207  1.1055 -1.9869
  380MOL0     H51265   1.068   3.501   4.111 -0.2693  0.7504 -0.0963
  380MOL0     H51266   0.941   3.353   4.336  1.8043 -0.9144 -1.4619
  380MOL0     H51267   0.912   3.527   4.298 -1.6610  0.3858 -0.8993
  380MOL0     H51268   0.859   3.437   4.062  2.5683  2.1196  2.4617
  380MOL0     H51269   0.824   3.280   4.126 -1.2022 -0.9473  0.1183
  380MOL0     H51270   0.687   3.546   4.211 -1.4099  0.2184 -1.6281
  380MOL0     H51271   0.665   3.389   4.288 -0.1863  0.0108 -0.0628
  380MOL0     H51272   0.585   3.317   4.040  2.6431 -0.4930 -1.1758
  380MOL0     H51273   0.617   3.484   4.003 -0.0463  1.6390  1.1737
  380MOL0     H51274   0.408   3.396   4.198  1.5778 -1.9799 -0.7244
  380MOL0     H51275   0.452   3.572   4.141 -2.7246  0.8339 -1.4721
  380MOL0     H51276   0.345   3.371   3.947  0.8439  0.2279 -1.2927
  380MOL0     H51277   0.341   3.553   3.940  0.7191 -0.8220 -2.2338
  380MOL0     H51278   0.180   3.392   4.115  1.2614  0.5379  0.2057
  380MOL0     H51279   0.186   3.570   4.128  3.9426  0.5606  0.7894
  380MOL0     H51280   1.170   3.057   4.190  0.7489  0.4652  2.3183
  380MOL0     H51281   1.406   2.970   4.161  1.7563  1.1405  2.1880
  380MOL0     H51282   1.807   2.773   4.116  1.3780 -0.1652  1.1951
  380MOL0     H51283   2.031   2.745   4.028 -2.7393 -1.0781  0.6603
  380MOL0     H51284   2.524   3.278   4.566  0.3706 -2.0521 -0.1292
  380MOL0     H51285   2.336   3.221   4.732 -0.6823  2.7577 -1.0390
  380MOL0     H51286   2.309   3.367   5.229 -0.7974  2.6054  1.6789
  380MOL0     H51287   2.183   3.369   5.436 -3.8408 -0.8416  2.6829
  380MOL0     H51288   1.790   3.207   5.582  1.3883 -0.8834 -0.4757
  380MOL0     H51289   1.784   3.179   5.411 -0.8820  0.1178 -0.1348
  380MOL0     H51290   1.681   3.371   5.349 -1.0405 -4.0274  0.0194
  380MOL0     H51291   1.758   3.475   5.485 -1.2086 -1.2379  7.1442
  380MOL0     H51292   1.609   3.362   5.645  1.0183  0.7166 -0.1845
  380MOL0     H51293   1.511   3.304   5.519  0.0588 -0.1163  0.1433
  380MOL0     H51294   1.578   3.607   5.523 -4.3355  2.0404 -4.4479
  380MOL0     H51295   1.477   3.499   5.426  1.3626 -1.1194 -0.9485
  380MOL0     H51296   1.271   3.559   5.794 -1.2082  1.1620 -1.2051
  380MOL0     H51297   1.831   3.255   5.220 -1.6041  3.0698 -0.4892
  380MOL0     H51298   1.997   3.218   4.895  0.9949 -2.0670  0.5155
  380MOL0     H51299   1.874   3.150   5.008 -2.1892  0.4377  0.2713
  380MOL0     H51300   1.863   3.314   4.939 -1.4333 -2.8625 -1.9722
  381MOL0     O51301   3.937   9.873   9.596  0.1327  0.3048  0.3279
  381MOL0     C51302   3.897   9.779   9.672 -0.1621 -0.7977  0.2200
  381MOL0     O51303   3.985   9.702   9.737 -0.1241 -0.4150  0.5621
  381MOL0     C51304   4.118   9.716   9.713  0.0104 -0.5753  0.5726
  381MOL0     C51305   4.177   9.681   9.591 -0.2047 -0.4899  0.5603
  381MOL0     C51306   4.317   9.692   9.570 -0.3758  0.3246 -0.0936
  381MOL0     C51307   4.396   9.743   9.669 -0.0296 -0.1733 -0.4810
  381MOL0     O51308   4.530   9.769   9.658 -0.6293  0.2790  0.0715
  381MOL0     C51309   4.583   9.817   9.539 -1.0385  0.4499  0.0506
  381MOL0     C51310   4.667   9.941   9.566  0.7376 -0.7123 -0.1915
  381MOL0     C51311   4.581  10.060   9.615  0.8375  0.7244  1.2317
  381MOL0     C51312   4.515  10.142   9.506 -0.8591 -0.3648 -0.0497
  381MOL0     C51313   4.423  10.243   9.573  0.1445 -0.5060 -0.3534
  381MOL0     C51314   4.296  10.179   9.600  0.1464  0.4202 -0.1326
  381MOL0     C51315   4.229  10.220   9.733 -0.3415 -0.5686  0.7962
  381MOL0     C51316   4.095  10.137   9.751  0.6102  0.1155 -0.0799
  381MOL0     N51317   4.031  10.137   9.879  0.1188 -0.0235  0.4612
  381MOL0     C51318   3.968  10.243   9.937  0.3886 -0.4834 -1.2139
  381MOL0     C51319   3.947  10.208  10.070  0.8606  0.1790  0.1875
  381MOL0     C51320   3.865  10.278  10.172 -0.0347 -0.2580  0.1922
  381MOL0     C51321   3.947  10.387  10.228 -0.7732 -0.6226  0.0203
  381MOL0     C51322   3.887  10.438  10.358  0.1493  0.3940 -0.2633
  381MOL0     C51323   3.757  10.519  10.349 -0.5328 -0.0395 -0.7717
  381MOL0     O51324   3.680  10.465  10.455  0.1858 -0.2135  0.1277
  381MOL0     C51325   3.583  10.370  10.426  0.0249  0.5858  0.2133
  381MOL0     C51326   3.611  10.238  10.461  0.6782 -0.8535 -0.8948
  381MOL0     C51327   3.512  10.138  10.454  0.4612 -0.2485  0.0784
  381MOL0     C51328   3.380  10.162  10.401 -0.7163  0.3106 -0.3730
  381MOL0     C51329   3.282  10.055  10.407  0.1017 -0.3083  0.4454
  381MOL0     O51330   3.168  10.084  10.337 -0.2489 -0.2858 -0.4568
  381MOL0     C51331   3.090   9.980  10.281  0.0266 -0.8073 -0.6503
  381MOL0     C51332   2.954  10.010  10.272  0.6412  0.1391  0.0589
  381MOL0     C51333   2.853   9.915  10.251  1.0010  0.9506 -0.4715
  381MOL0     C51334   2.889   9.778  10.232  0.2510 -0.2767  0.8465
  381MOL0     O51335   2.808   9.675  10.216  0.2130  0.1549  0.7483
  381MOL0     C51336   2.664   9.682  10.216 -0.7614  0.6754  0.4314
  381MOL0     C51337   2.590   9.569  10.132  1.6331  1.1109 -0.1480
  381MOL0     C51338   2.628   9.433  10.190  0.5407 -0.5201 -0.7687
  381MOL0     C51339   2.577   9.315  10.097 -1.1749  0.3183  0.2464
  381MOL0     C51340   2.631   9.182  10.154  0.0943  0.4724 -0.3279
  381MOL0     C51341   2.779   9.179  10.177  0.1524 -0.9033 -0.0856
  381MOL0     C51342   2.831   9.027  10.151  0.1527 -0.6002 -0.1017
  381MOL0     C51343   2.979   9.019  10.190  0.5321 -0.1507 -0.7471
  381MOL0    Cl51344   3.003   9.042  10.372  0.0282  0.1179 -0.1766
  381MOL0     C51345   3.028   9.756  10.226 -0.0792  0.4890 -0.4589
  381MOL0     C51346   3.126   9.848  10.250 -0.6894  0.2453 -0.0893
  381MOL0     O51347   3.309   9.947  10.460  0.2757 -0.5761 -0.5753
  381MOL0     C51348   3.346  10.291  10.363 -0.0751 -0.1512 -0.4171
  381MOL0     C51349   3.454  10.393  10.368  0.7922 -0.5157 -0.4016
  381MOL0     N51350   4.009  10.086  10.079  0.5893  0.8089  0.1792
  381MOL0     N51351   4.064  10.047   9.970 -0.9375 -0.4816  0.6035
  381MOL0     C51352   4.338   9.774   9.791 -1.2200  0.4592 -0.5950
  381MOL0     C51353   4.199   9.757   9.818  0.2405 -0.3598 -0.0772
  381MOL0     C51354   3.762   9.757   9.695 -1.0441  0.0068  0.2008
  381MOL0     C51355   3.723   9.637   9.766  0.0154  0.3138 -1.3167
  381MOL0     C51356   3.589   9.607   9.799  0.2562  0.3617 -0.2548
  381MOL0     C51357   3.488   9.687   9.749  0.4471  0.6211 -0.5769
  381MOL0     O51358   3.350   9.668   9.779  0.2152 -0.3807  0.0209
  381MOL0     C51359   3.318   9.607   9.899 -0.8994  0.0824  0.0849
  381MOL0     C51360   3.171   9.628   9.928  0.0829 -0.2337 -0.8827
  381MOL0     C51361   3.072   9.578   9.820  0.3388 -0.0273  0.3988
  381MOL0     C51362   2.919   9.594   9.863  0.6009  0.9090  0.7279
  381MOL0     C51363   2.881   9.737   9.851  0.0304 -0.0861  0.1980
  381MOL0     C51364   2.831   9.846   9.853  0.4621 -0.3733  0.9812
  381MOL0     C51365   3.525   9.803   9.678  1.0053 -0.6366 -1.3375
  381MOL0     C51366   3.652   9.839   9.646  0.0544 -0.0787  1.0660
  381MOL0     C51367   3.682   9.963   9.560  0.9035  0.2289  0.0859
  381MOL0     H51368   4.122   9.660   9.500  1.2968 -1.1744 -0.2228
  381MOL0     H51369   4.352   9.660   9.472 -1.7908  1.1986 -0.9262
  381MOL0     H51370   4.649   9.742   9.495 -0.2914  1.3925 -0.4801
  381MOL0     H51371   4.514   9.855   9.463 -1.1695  1.1047  0.4812
  381MOL0     H51372   4.727   9.970   9.480  1.6563  0.9526  0.9709
  381MOL0     H51373   4.742   9.901   9.634 -1.3673  0.0346  2.7887
  381MOL0     H51374   4.640  10.135   9.669  1.1507  0.5007  1.2040
  381MOL0     H51375   4.517  10.030   9.698  0.5370  1.4761  1.2867
  381MOL0     H51376   4.590  10.202   9.453 -1.1379 -1.7965 -2.1834
  381MOL0     H51377   4.473  10.089   9.420  0.6361  2.2021 -2.5323
  381MOL0     H51378   4.470  10.284   9.663  0.8528  0.7870 -1.2690
  381MOL0     H51379   4.423  10.331   9.508  0.6268 -0.2208  0.0224
  381MOL0     H51380   4.218  10.199   9.525 -1.6884 -0.5394  1.4179
  381MOL0     H51381   4.310  10.071   9.604 -0.4950  0.1287 -3.1042
  381MOL0     H51382   4.198  10.325   9.732  0.3895 -0.3167 -1.7176
  381MOL0     H51383   4.290  10.210   9.824 -1.5965 -2.0803  1.5165
  381MOL0     H51384   4.028  10.144   9.666  0.2093 -1.2338  0.0972
  381MOL0     H51385   4.134  10.035   9.744  0.6038  0.1882 -1.4597
  381MOL0     H51386   3.937  10.337   9.893 -0.4514 -1.1870 -2.1924
  381MOL0     H51387   3.771  10.318  10.134  0.6444  3.0208  1.6672
  381MOL0     H51388   3.841  10.201  10.246 -3.5732  1.8648  1.4639
  381MOL0     H51389   4.043  10.342  10.254 -1.7408 -2.6246  0.2679
  381MOL0     H51390   3.966  10.476  10.166 -1.6175  0.5392  1.3592
  381MOL0     H51391   3.956  10.513  10.398 -0.8348 -0.9027  4.4282
  381MOL0     H51392   3.885  10.363  10.438 -1.5054 -2.3620 -2.6742
  381MOL0     H51393   3.708  10.507  10.252 -0.2134  4.8020 -1.8156
  381MOL0     H51394   3.779  10.626  10.361  2.1813 -0.0562 -4.0896
  381MOL0     H51395   3.708  10.217  10.505  0.1718 -0.9625  0.1856
  381MOL0     H51396   3.545  10.039  10.483  5.7479  0.8399 -1.2818
  381MOL0     H51397   2.928  10.114  10.290 -0.1775 -0.3104  1.7031
  381MOL0     H51398   2.749   9.947  10.248  0.1628 -1.4310  0.6706
  381MOL0     H51399   2.610   9.700  10.309 -2.0739  1.2178 -0.4038
  381MOL0     H51400   2.642   9.779  10.172 -1.9375  0.8490  1.3427
  381MOL0     H51401   2.482   9.578  10.147  1.2394  1.4648 -2.7594
  381MOL0     H51402   2.626   9.577  10.029  2.2405  0.5488  0.0139
  381MOL0     H51403   2.737   9.434  10.195  0.5380 -2.0940  0.3754
  381MOL0     H51404   2.573   9.431  10.285 -0.4383 -2.6715 -1.3302
  381MOL0     H51405   2.622   9.326   9.998  1.7699  0.7453  1.5247
  381MOL0     H51406   2.468   9.315  10.088 -1.0615  0.1516 -1.4197
  381MOL0     H51407   2.600   9.096  10.095 -0.7413  0.6428 -0.1481
  381MOL0     H51408   2.587   9.169  10.254 -1.5127  0.0426 -1.0619
  381MOL0     H51409   2.822   9.247  10.103 -3.7470 -0.5562 -2.2969
  381MOL0     H51410   2.797   9.215  10.279 -1.9425 -2.5520  0.9495
  381MOL0     H51411   2.825   8.997  10.046 -0.8304 -1.7049  0.2559
  381MOL0     H51412   2.773   8.962  10.217  2.2442 -0.2352  2.2246
  381MOL0     H51413   3.005   8.915  10.168 -0.1901 -0.5031  0.0121
  381MOL0     H51414   3.047   9.078  10.128 -2.0554  1.2215 -2.5058
  381MOL0     H51415   3.047   9.649  10.219  2.5559  0.5994  2.4515
  381MOL0     H51416   3.224   9.809  10.277 -1.2273 -0.0074  1.6629
  381MOL0     H51417   3.244  10.314  10.334  0.8539  4.0300 -0.9946
  381MOL0     H51418   3.434  10.487  10.318 -0.7002 -0.0485  1.0178
  381MOL0     H51419   4.399   9.808   9.873  0.8830 -1.3490 -1.3064
  381MOL0     H51420   4.146   9.791   9.907  0.5652  2.2477 -0.7841
  381MOL0     H51421   3.794   9.570   9.812 -1.6918 -0.3971  0.4385
  381MOL0     H51422   3.563   9.512   9.845 -2.2412 -0.1201 -2.4577
  381MOL0     H51423   3.387   9.642   9.975  2.5753 -3.0815 -1.2996
  381MOL0     H51424   3.339   9.500   9.894  0.0448  0.2196  0.9114
  381MOL0     H51425   3.157   9.736   9.937 -3.3849 -0.6757  0.0596
  381MOL0     H51426   3.149   9.576  10.021  0.6460  0.3476 -0.4195
  381MOL0     H51427   3.081   9.474   9.789 -2.4168 -0.6193  1.3218
  381MOL0     H51428   3.093   9.651   9.741  3.4877 -1.1890  0.0073
  381MOL0     H51429   2.858   9.536   9.793  3.1187 -1.6530  0.4959
  381MOL0     H51430   2.893   9.552   9.961 -1.2934 -3.4603 -1.3879
  381MOL0     H51431   2.760   9.925   9.865  1.5440  0.9301 -0.7696
  381MOL0     H51432   3.435   9.857   9.649 -0.1912 -2.4927 -1.2608
  381MOL0     H51433   3.587  10.017   9.555  0.7505 -0.1288 -1.0483
  381MOL0     H51434   3.757  10.025   9.610 -0.5473  2.5984 -0.5228
  381MOL0     H51435   3.703   9.928   9.459  1.1692 -0.5694  0.4121
  382MOL0     O51436   7.428   5.447   0.887  0.3960 -0.1076 -0.2308
  382MOL0     C51437   7.471   5.552   0.934  0.0968 -0.8805 -0.3971
  382MOL0     O51438   7.473   5.672   0.867 -0.2738  0.4104  0.6369
  382MOL0     C51439   7.392   5.696   0.751  0.2582 -0.0148 -0.9502
  382MOL0     C51440   7.276   5.775   0.741  0.0167 -0.6728 -0.5621
  382MOL0     C51441   7.213   5.777   0.613 -0.2097 -0.2635  0.0303
  382MOL0     C51442   7.257   5.699   0.500  0.3194  0.1323 -0.4852
  382MOL0     O51443   7.181   5.707   0.381  0.7938 -0.4811  0.2832
  382MOL0     C51444   7.251   5.724   0.253 -0.1835 -0.4465  0.3129
  382MOL0     C51445   7.158   5.701   0.140 -0.1572 -0.1998 -1.1960
  382MOL0     C51446   7.217   5.647   0.010 -0.3828  0.1094 -0.4318
  382MOL0     C51447   7.287   5.763  -0.070  0.2066  0.7407 -0.3659
  382MOL0     C51448   7.185   5.877  -0.122 -0.1209  0.3845  0.5122
  382MOL0     C51449   7.086   5.826  -0.235 -0.8486  0.1743  0.0104
  382MOL0     C51450   6.961   5.903  -0.216  0.5031  0.3029 -0.9112
  382MOL0     C51451   6.864   5.848  -0.105 -0.1738 -0.2387 -0.2347
  382MOL0     N51452   6.812   5.711  -0.128 -0.5817  0.6259 -0.7128
  382MOL0     C51453   6.723   5.669  -0.227 -0.4260  0.0573  0.3955
  382MOL0     C51454   6.707   5.541  -0.205  1.0647  0.1188 -0.2757
  382MOL0     C51455   6.632   5.454  -0.317  1.7685  0.0126  0.4408
  382MOL0     C51456   6.583   5.321  -0.256 -0.5432 -0.5256  0.2434
  382MOL0     C51457   6.519   5.347  -0.115 -0.3366 -0.0169 -0.3000
  382MOL0     C51458   6.381   5.271  -0.113 -0.9900  0.3101  0.3901
  382MOL0     O51459   6.295   5.348  -0.189  0.2785  0.2407 -0.1130
  382MOL0     C51460   6.159   5.316  -0.182  0.3190  0.4044 -0.2845
  382MOL0     C51461   6.061   5.407  -0.224 -0.8230  0.4914 -0.0238
  382MOL0     C51462   5.924   5.380  -0.221  1.2987 -0.7632  0.1339
  382MOL0     C51463   5.875   5.261  -0.181  0.1853 -0.5005 -0.4676
  382MOL0     C51464   5.725   5.239  -0.179 -1.0178  0.1837 -0.0636
  382MOL0     O51465   5.654   5.345  -0.221 -0.2246 -1.0062 -0.7016
  382MOL0     C51466   5.519   5.329  -0.254 -0.4761 -0.5308  0.2026
  382MOL0     C51467   5.478   5.223  -0.343 -0.7170 -0.2781 -0.5144
  382MOL0     C51468   5.342   5.215  -0.387  0.4595 -0.9445  0.3395
  382MOL0     C51469   5.251   5.311  -0.333  0.4240 -0.6509 -0.2169
  382MOL0     O51470   5.129   5.302  -0.395  0.4460  0.0637  0.4004
  382MOL0     C51471   5.035   5.407  -0.359  0.4272  0.8095  0.1299
  382MOL0     C51472   4.898   5.367  -0.403 -0.3251 -0.4209  0.7377
  382MOL0     C51473   4.895   5.375  -0.551  0.3342  0.3107 -0.0983
  382MOL0     C51474   4.774   5.322  -0.622 -0.9735 -0.0488 -0.1896
  382MOL0     C51475   4.779   5.365  -0.778  0.2974 -0.5234  1.0406
  382MOL0     C51476   4.649   5.356  -0.844  1.1017  0.3656 -0.4745
  382MOL0     C51477   4.603   5.214  -0.846 -0.5153  1.2403  0.7000
  382MOL0     C51478   4.450   5.189  -0.869  1.4373  0.2792  1.5603
  382MOL0    Cl51479   4.384   5.277  -1.018 -0.0404 -0.4085  0.2406
  382MOL0     C51480   5.300   5.418  -0.257  0.6616 -0.2581  0.6562
  382MOL0     C51481   5.430   5.417  -0.209 -0.5320  0.0140  0.1963
  382MOL0     O51482   5.674   5.133  -0.140  0.3411 -0.2388 -0.0436
  382MOL0     C51483   5.966   5.165  -0.126 -0.0079 -0.1112  0.2433
  382MOL0     C51484   6.102   5.191  -0.136  0.2433  0.0979  0.3522
  382MOL0     N51485   6.785   5.497  -0.100 -0.0305  0.4023 -0.5729
  382MOL0     N51486   6.839   5.599  -0.051 -0.5455 -0.3559  0.0897
  382MOL0     C51487   7.373   5.625   0.519  0.2091  0.0823 -0.1257
  382MOL0     C51488   7.439   5.627   0.641  0.8197 -0.0993  1.3530
  382MOL0     C51489   7.535   5.552   1.062 -1.3876 -0.0642  0.8022
  382MOL0     C51490   7.477   5.498   1.169  0.4526 -0.8071  0.9168
  382MOL0     C51491   7.543   5.490   1.290  0.9193  0.6865 -0.1453
  382MOL0     C51492   7.674   5.535   1.296  0.4382  0.1896  0.6725
  382MOL0     O51493   7.751   5.537   1.406 -0.2632 -0.3875  0.3894
  382MOL0     C51494   7.689   5.522   1.536 -0.1716  0.3142  0.7854
  382MOL0     C51495   7.816   5.512   1.634 -0.2465  0.8932 -0.2402
  382MOL0     C51496   7.840   5.642   1.723  0.0486 -0.2679 -0.1048
  382MOL0     C51497   7.721   5.677   1.824 -0.1814 -0.7917 -0.1304
  382MOL0     C51498   7.712   5.577   1.927 -0.8817 -0.2040  0.5164
  382MOL0     C51499   7.688   5.495   2.008 -0.1759  0.4999 -0.0150
  382MOL0     C51500   7.743   5.577   1.179 -0.5058  0.3310  0.6836
  382MOL0     C51501   7.675   5.590   1.064  0.6311 -0.4536 -0.0929
  382MOL0     C51502   7.732   5.667   0.948 -0.1038  0.7141  0.2008
  382MOL0     H51503   7.256   5.841   0.826  5.1336  1.9304 -0.9949
  382MOL0     H51504   7.126   5.840   0.603 -0.2973 -0.4506 -0.4347
  382MOL0     H51505   7.295   5.824   0.254 -0.4203 -0.2684  3.2674
  382MOL0     H51506   7.329   5.647   0.248 -0.4229 -0.8243  1.7179
  382MOL0     H51507   7.099   5.790   0.119 -0.8082 -0.5933 -1.0365
  382MOL0     H51508   7.080   5.633   0.175 -4.6341  3.2899 -3.3359
  382MOL0     H51509   7.124   5.615  -0.037 -2.4182  2.2197  1.8610
  382MOL0     H51510   7.291   5.567   0.015 -2.1192 -1.4923  0.9210
  382MOL0     H51511   7.363   5.821  -0.017 -1.0421  1.9546  0.1370
  382MOL0     H51512   7.331   5.721  -0.162 -0.1275 -0.2829 -0.0770
  382MOL0     H51513   7.138   5.914  -0.031  2.6377 -0.0934  2.2586
  382MOL0     H51514   7.244   5.955  -0.171 -1.4808  0.5569 -0.9272
  382MOL0     H51515   7.125   5.823  -0.338 -1.6929 -0.4614 -0.3046
  382MOL0     H51516   7.067   5.719  -0.219 -1.9833  0.7040  2.5688
  382MOL0     H51517   6.913   5.909  -0.314 -0.8112 -0.4935 -0.3451
  382MOL0     H51518   6.988   6.007  -0.200  1.8773 -0.2234  0.5098
  382MOL0     H51519   6.909   5.848  -0.005 -1.4580 -6.0121  0.7166
  382MOL0     H51520   6.775   5.912  -0.098 -0.7061 -1.1355  2.9520
  382MOL0     H51521   6.685   5.729  -0.309  0.1413 -0.6330 -0.3974
  382MOL0     H51522   6.549   5.513  -0.356  2.0119 -0.7275 -1.2683
  382MOL0     H51523   6.697   5.440  -0.404  1.6828 -3.4337  0.8120
  382MOL0     H51524   6.504   5.281  -0.319  1.1155 -3.2315 -0.2712
  382MOL0     H51525   6.672   5.257  -0.260  0.2887  0.5550 -4.3904
  382MOL0     H51526   6.494   5.452  -0.095 -0.3678 -0.2338  0.8550
  382MOL0     H51527   6.588   5.312  -0.037 -3.4365 -2.0436  1.7462
  382MOL0     H51528   6.343   5.254  -0.011 -0.5811 -0.9835  0.3429
  382MOL0     H51529   6.387   5.173  -0.161  0.2748 -1.0133  3.0195
  382MOL0     H51530   6.084   5.512  -0.239  3.0646 -0.0206  1.3916
  382MOL0     H51531   5.853   5.461  -0.238  0.3702 -0.9995  2.5306
  382MOL0     H51532   5.558   5.154  -0.369 -1.9798 -2.3503  0.8031
  382MOL0     H51533   5.297   5.153  -0.464  0.1061  1.3300 -1.4030
  382MOL0     H51534   5.036   5.426  -0.251 -0.2538 -4.3050  1.2681
  382MOL0     H51535   5.070   5.502  -0.401 -0.1155  0.2706 -1.5958
  382MOL0     H51536   4.863   5.268  -0.372  0.2301 -1.8390 -2.7230
  382MOL0     H51537   4.840   5.448  -0.359 -0.7071 -0.3968  0.2033
  382MOL0     H51538   4.891   5.483  -0.569 -1.3221 -0.0840 -2.7500
  382MOL0     H51539   4.981   5.323  -0.594 -0.7854 -1.8570  0.1625
  382MOL0     H51540   4.690   5.374  -0.576  0.1179 -0.4382  2.4074
  382MOL0     H51541   4.763   5.214  -0.605  0.7254 -0.0450  1.2680
  382MOL0     H51542   4.850   5.311  -0.841  1.0352  2.0203 -0.4477
  382MOL0     H51543   4.799   5.472  -0.779 -1.2865 -0.1935  0.6064
  382MOL0     H51544   4.579   5.416  -0.785  0.1757 -0.8187 -0.3441
  382MOL0     H51545   4.651   5.385  -0.949 -0.0134 -0.0077 -0.6120
  382MOL0     H51546   4.630   5.170  -0.750  1.4205  1.1877  0.1849
  382MOL0     H51547   4.661   5.173  -0.929 -0.9917  3.8840 -1.0846
  382MOL0     H51548   4.434   5.084  -0.895 -0.0248  0.6815  0.6768
  382MOL0     H51549   4.388   5.236  -0.792  0.2050  3.8829 -1.2781
  382MOL0     H51550   5.240   5.498  -0.213  0.1597 -0.8485  1.0546
  382MOL0     H51551   5.465   5.501  -0.149 -1.5108  0.9142 -0.4597
  382MOL0     H51552   5.929   5.075  -0.079  1.2675  0.7020  3.0101
  382MOL0     H51553   6.173   5.121  -0.094  0.2155  2.1746  4.2643
  382MOL0     H51554   7.398   5.562   0.434 -1.7019 -1.3032  0.2760
  382MOL0     H51555   7.526   5.562   0.650 -0.5416 -2.9563 -2.8013
  382MOL0     H51556   7.380   5.449   1.164  0.4207 -0.5759 -1.9570
  382MOL0     H51557   7.488   5.447   1.373 -1.9034 -0.6471 -2.5210
  382MOL0     H51558   7.635   5.426   1.543  0.5418 -0.2968 -1.2923
  382MOL0     H51559   7.618   5.603   1.551  0.5563  1.5054 -1.6596
  382MOL0     H51560   7.908   5.483   1.584 -1.0650  0.2632 -1.4191
  382MOL0     H51561   7.792   5.428   1.700  0.7376 -0.2232 -1.2671
  382MOL0     H51562   7.866   5.720   1.650  0.8364  0.2335  0.6921
  382MOL0     H51563   7.938   5.619   1.767  0.2751  1.2018  0.2023
  382MOL0     H51564   7.739   5.777   1.864  1.4467 -0.2801 -1.9581
  382MOL0     H51565   7.636   5.676   1.756  0.4914 -1.8816 -0.9934
  382MOL0     H51566   7.667   5.413   2.075  1.1982  0.1243 -0.0153
  382MOL0     H51567   7.850   5.597   1.188 -0.2211 -0.7608 -0.0338
  382MOL0     H51568   7.831   5.702   0.975  0.3328 -1.1551  1.2507
  382MOL0     H51569   7.735   5.601   0.860 -2.3303 -0.8168  1.1763
  382MOL0     H51570   7.681   5.756   0.910 -2.5486 -1.9049 -3.3781
  383MOL0     O51571  10.583   0.519   4.084 -0.7685  0.0716  0.2402
  383MOL0     C51572  10.619   0.402   4.074 -0.7100 -0.3001 -0.0450
  383MOL0     O51573  10.750   0.357   4.078  0.6029 -0.1393 -0.0198
  383MOL0     C51574  10.848   0.457   4.067  0.5890  0.4157 -0.1372
  383MOL0     C51575  10.889   0.519   3.945 -1.1183 -0.2910 -0.0952
  383MOL0     C51576  11.005   0.603   3.940 -0.2816 -0.5832 -0.6412
  383MOL0     C51577  11.073   0.634   4.061 -0.2365 -0.3491  0.3021
  383MOL0     O51578  11.181   0.707   4.063  0.0709 -0.2162 -0.0891
  383MOL0     C51579  11.281   0.686   3.963  0.3353  0.3477 -0.3528
  383MOL0     C51580  11.412   0.730   4.021 -0.3194 -0.7301  0.2122
  383MOL0     C51581  11.530   0.695   3.926 -0.7563 -1.0972  0.0865
  383MOL0     C51582  11.654   0.762   3.988  0.0503 -1.0860 -0.3133
  383MOL0     C51583  11.792   0.730   3.915  0.4207 -1.1921 -0.7457
  383MOL0     C51584  11.826   0.583   3.894  0.5513  0.4066 -0.0262
  383MOL0     C51585  11.978   0.585   3.894 -0.1796  0.7916 -0.4324
  383MOL0     C51586  12.013   0.579   4.044  0.2443 -0.5502  0.9468
  383MOL0     N51587  12.151   0.627   4.059  0.6407  0.5164 -0.4525
  383MOL0     C51588  12.186   0.757   4.099 -0.2257  0.4401  0.1845
  383MOL0     C51589  12.321   0.749   4.110  0.8764  0.2661  0.0165
  383MOL0     C51590  12.408   0.858   4.166 -0.0376  0.7348 -0.2618
  383MOL0     C51591  12.409   0.823   4.323  0.3680 -0.4106 -0.3254
  383MOL0     C51592  12.491   0.930   4.396 -0.1417  0.1618  0.7305
  383MOL0     C51593  12.639   0.895   4.403 -0.1889  0.0872  0.0545
  383MOL0     O51594  12.708   0.999   4.467 -0.0980 -0.0404  0.8809
  383MOL0     C51595  12.843   0.993   4.490 -0.7308 -0.5838 -0.5884
  383MOL0     C51596  12.928   0.892   4.454 -0.3610  0.7557 -0.0607
  383MOL0     C51597  13.069   0.884   4.473  1.0872 -0.5482  0.5514
  383MOL0     C51598  13.128   0.988   4.551  0.5027  0.2202 -0.0667
  383MOL0     C51599  13.267   0.996   4.577 -0.9721  0.3969 -0.0370
  383MOL0     O51600  13.320   1.108   4.639 -0.2742  0.3177  0.3229
  383MOL0     C51601  13.444   1.097   4.685 -0.6033  0.0886  0.1747
  383MOL0     C51602  13.471   1.137   4.815  0.5591 -0.1967  0.2827
  383MOL0     C51603  13.610   1.130   4.864 -0.3310 -0.4454  0.7768
  383MOL0     C51604  13.723   1.097   4.782 -0.0372 -0.2782 -0.7101
  383MOL0     O51605  13.844   1.089   4.840 -0.8733 -0.5841 -0.4679
  383MOL0     C51606  13.957   1.082   4.748  0.2378  0.1452  0.5921
  383MOL0     C51607  14.100   1.068   4.801  0.9413 -0.4151  0.1474
  383MOL0     C51608  14.117   0.961   4.897  0.2039 -0.1347 -0.0702
  383MOL0     C51609  14.103   1.028   5.040  0.4397  0.3883 -0.4002
  383MOL0     C51610  14.112   0.929   5.150 -0.8903  0.2440 -0.6540
  383MOL0     C51611  14.111   0.994   5.285 -0.1414 -0.2744 -0.5634
  383MOL0     C51612  14.060   0.924   5.407 -0.6830 -0.4779  0.2526
  383MOL0     C51613  13.909   0.924   5.417 -0.6353 -0.4584 -0.0756
  383MOL0    Cl51614  13.862   0.906   5.584  0.2748 -0.1280  0.4138
  383MOL0     C51615  13.691   1.074   4.651  1.0439  0.7351 -0.2943
  383MOL0     C51616  13.556   1.069   4.604 -0.6690  1.0802 -0.6798
  383MOL0     O51617  13.329   0.913   4.517 -0.5821  0.4510 -0.3142
  383MOL0     C51618  13.043   1.091   4.599 -0.2487  0.0821  0.5939
  383MOL0     C51619  12.905   1.091   4.566  0.1195  0.7107 -0.0643
  383MOL0     N51620  12.363   0.618   4.080  0.4772  0.4506  0.9538
  383MOL0     N51621  12.260   0.547   4.055  0.1988 -0.0571  0.6034
  383MOL0     C51622  11.020   0.583   4.180  0.8232 -0.8382 -0.2733
  383MOL0     C51623  10.910   0.496   4.183  0.2303 -0.0818 -0.5418
  383MOL0     C51624  10.510   0.306   4.057  0.3482 -0.4826 -0.8230
  383MOL0     C51625  10.503   0.201   4.146  0.2510  0.2953  0.8980
  383MOL0     C51626  10.393   0.112   4.144  0.5313  0.7091 -0.2284
  383MOL0     C51627  10.286   0.136   4.064  0.8601  0.1861 -0.0801
  383MOL0     O51628  10.181   0.051   4.061 -0.3495 -0.2772  0.7057
  383MOL0     C51629  10.088   0.064   4.167 -0.2047  0.2052 -0.1008
  383MOL0     C51630  10.058  -0.071   4.225  0.0032  0.2440 -0.7928
  383MOL0     C51631   9.992  -0.062   4.367  0.7118  0.8035 -0.1437
  383MOL0     C51632   9.838  -0.078   4.362 -0.0211  0.0752  0.3103
  383MOL0     C51633   9.780   0.044   4.299  0.6000  0.5298  0.2692
  383MOL0     C51634   9.713   0.119   4.242 -0.0892  0.0126  0.0016
  383MOL0     C51635  10.298   0.233   3.965 -0.8198 -0.1675 -0.2512
  383MOL0     C51636  10.404   0.324   3.973 -0.3307  0.6441  0.2976
  383MOL0     C51637  10.395   0.431   3.880 -0.4392  0.6251  0.6126
  383MOL0     H51638  10.837   0.483   3.857 -1.4989  1.4378 -0.6225
  383MOL0     H51639  11.042   0.656   3.853 -2.7828  2.1840 -0.1891
  383MOL0     H51640  11.280   0.580   3.935  0.2397 -1.1589  4.4176
  383MOL0     H51641  11.257   0.759   3.885  0.6026  0.1611 -0.6097
  383MOL0     H51642  11.426   0.679   4.117  0.5663  2.8357  2.1576
  383MOL0     H51643  11.407   0.837   4.045 -2.0012 -0.9772  1.1365
  383MOL0     H51644  11.519   0.723   3.821  2.4755  2.2127  0.4333
  383MOL0     H51645  11.531   0.586   3.939  1.7462 -1.2224 -0.5422
  383MOL0     H51646  11.645   0.868   4.013 -4.3812 -0.6896 -2.5341
  383MOL0     H51647  11.655   0.718   4.088 -0.3908  0.0011  0.1897
  383MOL0     H51648  11.789   0.789   3.822 -2.7756  0.1336  0.0418
  383MOL0     H51649  11.856   0.792   3.978 -2.1269  0.6236  0.2382
  383MOL0     H51650  11.785   0.527   3.979 -3.0538 -1.1519 -2.5658
  383MOL0     H51651  11.775   0.546   3.805 -1.1056 -1.2597  1.5317
  383MOL0     H51652  12.028   0.668   3.843 -0.8300  2.6695  1.7703
  383MOL0     H51653  12.013   0.487   3.859 -3.4255 -0.7201  0.1787
  383MOL0     H51654  11.949   0.640   4.108 -0.1156  1.8262 -1.4919
  383MOL0     H51655  12.003   0.476   4.081 -1.1791 -1.5566 -1.9554
  383MOL0     H51656  12.111   0.835   4.111 -4.5413 -2.6145 -3.5558
  383MOL0     H51657  12.507   0.836   4.124 -1.3959 -0.1109 -3.3406
  383MOL0     H51658  12.378   0.959   4.136 -2.5271  0.3009  0.5907
  383MOL0     H51659  12.308   0.826   4.365  0.7444 -0.3685  0.5854
  383MOL0     H51660  12.456   0.726   4.339 -0.9163 -1.4542 -2.3889
  383MOL0     H51661  12.453   0.952   4.497 -0.5920  1.2052  0.3452
  383MOL0     H51662  12.468   1.021   4.339 -0.7931 -1.4274 -1.6703
  383MOL0     H51663  12.672   0.877   4.300 -5.7954 -1.6662 -1.7511
  383MOL0     H51664  12.647   0.801   4.457 -2.3431 -0.3319 -0.2803
  383MOL0     H51665  12.897   0.815   4.384  0.1008  2.3840 -2.1328
  383MOL0     H51666  13.117   0.797   4.428  1.2240  0.3623 -1.1642
  383MOL0     H51667  13.388   1.172   4.876 -2.0110 -4.3204 -0.4237
  383MOL0     H51668  13.626   1.158   4.968 -0.9232  3.0463  0.0562
  383MOL0     H51669  13.939   0.991   4.690  0.5919  1.5144 -1.8122
  383MOL0     H51670  13.946   1.156   4.668  0.5612 -1.8070 -1.3364
  383MOL0     H51671  14.172   1.061   4.718  2.2343  1.8412  0.9620
  383MOL0     H51672  14.129   1.164   4.846 -1.0355 -0.2925  1.2642
  383MOL0     H51673  14.048   0.880   4.873  1.8727 -1.2562 -1.3373
  383MOL0     H51674  14.217   0.917   4.899  0.4334  0.3918  0.8611
  383MOL0     H51675  14.005   1.076   5.047  1.0647  1.7081 -0.5104
  383MOL0     H51676  14.174   1.110   5.045 -0.1594  1.0351 -2.0356
  383MOL0     H51677  14.204   0.873   5.131 -1.9149 -1.9180  0.4192
  383MOL0     H51678  14.028   0.862   5.130 -1.4275  1.9981 -5.4415
  383MOL0     H51679  14.215   1.013   5.313  0.0824 -2.8765  0.6781
  383MOL0     H51680  14.060   1.090   5.293  0.9739  0.2130  1.6812
  383MOL0     H51681  14.102   0.973   5.495 -0.3433 -1.4690  0.6564
  383MOL0     H51682  14.095   0.821   5.421 -0.1789 -0.3567 -0.0952
  383MOL0     H51683  13.861   1.014   5.377 -3.1658 -1.8172 -0.3400
  383MOL0     H51684  13.886   0.830   5.366  1.6511 -0.6688 -0.8477
  383MOL0     H51685  13.768   1.052   4.578 -1.6858 -0.7831 -2.9699
  383MOL0     H51686  13.542   1.050   4.499  0.1763  0.2554 -0.6519
  383MOL0     H51687  13.102   1.169   4.647  2.3732 -1.2062 -0.2912
  383MOL0     H51688  12.842   1.175   4.594 -0.8943  0.5928 -1.8387
  383MOL0     H51689  11.052   0.616   4.279 -1.4494 -1.9548  0.9161
  383MOL0     H51690  10.873   0.457   4.277 -1.4153  1.4755 -0.4794
  383MOL0     H51691  10.583   0.182   4.217 -0.0425 -2.4677  0.6209
  383MOL0     H51692  10.391   0.028   4.213  1.4192  0.5337 -0.4039
  383MOL0     H51693   9.995   0.113   4.138 -0.6915 -0.6524 -0.0393
  383MOL0     H51694  10.134   0.123   4.247  0.1013 -0.6525  0.3704
  383MOL0     H51695  10.148  -0.133   4.225 -0.4802 -1.0131  5.2508
  383MOL0     H51696   9.987  -0.124   4.161 -1.5554  0.8924  0.3212
  383MOL0     H51697  10.008   0.040   4.403 -1.7583  1.9961 -2.1205
  383MOL0     H51698  10.025  -0.139   4.437 -0.1822  1.1430  0.6752
  383MOL0     H51699   9.810  -0.161   4.297 -0.6856 -1.0829  2.0068
  383MOL0     H51700   9.792  -0.103   4.458 -0.6041  0.9430  0.2685
  383MOL0     H51701   9.657   0.203   4.205  1.9830  1.7735  0.6357
  383MOL0     H51702  10.225   0.240   3.884 -1.5897  1.4267  0.5566
  383MOL0     H51703  10.384   0.512   3.952  0.3451 -1.5426  3.3377
  383MOL0     H51704  10.486   0.442   3.820 -0.1874 -3.2614  0.0352
  383MOL0     H51705  10.309   0.420   3.812  0.9737  0.8174 -1.2887
  384MOL0     O51706   0.620   6.302   9.061  0.5200 -0.9843 -0.2680
  384MOL0     C51707   0.666   6.229   9.144 -1.0193  0.1039  0.3116
  384MOL0     O51708   0.633   6.232   9.279  0.0255 -0.2961 -0.1820
  384MOL0     C51709   0.526   6.312   9.315  0.2557  0.6539  0.2688
  384MOL0     C51710   0.421   6.256   9.399 -0.0703 -0.2359  0.1023
  384MOL0     C51711   0.314   6.339   9.432  0.2992  0.4425 -0.4533
  384MOL0     C51712   0.324   6.474   9.413  0.7783  1.3181  0.2907
  384MOL0     O51713   0.230   6.551   9.469  0.0417  0.5753 -0.5216
  384MOL0     C51714   0.271   6.666   9.541  0.2926 -0.9201 -0.2777
  384MOL0     C51715   0.147   6.712   9.632 -0.9123 -0.2020 -0.3464
  384MOL0     C51716   0.036   6.782   9.555  1.1046 -0.4991  0.5317
  384MOL0     C51717  -0.087   6.813   9.647 -0.8572  0.2161 -0.9895
  384MOL0     C51718  -0.208   6.851   9.559 -0.6761 -0.3396 -0.8562
  384MOL0     C51719  -0.313   6.915   9.660  0.5301  0.3443 -0.3922
  384MOL0     C51720  -0.291   7.060   9.692 -0.1093  0.1331 -0.1331
  384MOL0     C51721  -0.400   7.092   9.802  0.1469 -0.5027 -0.2003
  384MOL0     N51722  -0.415   7.235   9.832  0.0338  1.1069  0.3590
  384MOL0     C51723  -0.447   7.343   9.750 -0.5379  0.8606 -0.7941
  384MOL0     C51724  -0.424   7.447   9.838 -0.6864  0.2677  0.1628
  384MOL0     C51725  -0.465   7.594   9.816 -0.0091 -0.6276  0.1925
  384MOL0     C51726  -0.492   7.676   9.948  0.4191 -0.1956  1.4513
  384MOL0     C51727  -0.637   7.636  10.000 -0.2459  0.5561  0.1509
  384MOL0     C51728  -0.664   7.692  10.140 -0.5284 -0.3844 -0.4325
  384MOL0     O51729  -0.800   7.724  10.175 -0.0597  0.0091 -0.1126
  384MOL0     C51730  -0.882   7.617  10.204  0.7736 -0.0806 -1.3328
  384MOL0     C51731  -0.843   7.486  10.213  0.4817  0.4091 -0.1575
  384MOL0     C51732  -0.930   7.391  10.259 -0.4791 -0.1321 -0.7926
  384MOL0     C51733  -1.065   7.415  10.270  0.4600 -0.0123 -0.0056
  384MOL0     C51734  -1.145   7.300  10.319  0.0410  0.4632 -0.1143
  384MOL0     O51735  -1.096   7.171  10.308  0.4555 -0.2034  0.0364
  384MOL0     C51736  -1.182   7.062  10.307  0.4295 -0.2858  0.6244
  384MOL0     C51737  -1.197   6.981  10.418 -0.1789  0.3417  0.0534
  384MOL0     C51738  -1.283   6.875  10.423  0.5023 -0.2266 -0.0201
  384MOL0     C51739  -1.347   6.831  10.307 -0.1143  0.9115 -0.1694
  384MOL0     O51740  -1.438   6.728  10.321 -0.8471  0.2730  0.2629
  384MOL0     C51741  -1.423   6.624  10.224 -0.9000 -0.3992  0.1097
  384MOL0     C51742  -1.307   6.526  10.253  0.7517  0.2707 -0.1440
  384MOL0     C51743  -1.304   6.478  10.403  0.3369 -0.1551 -0.8912
  384MOL0     C51744  -1.178   6.390  10.417  0.0759  0.2025 -0.2327
  384MOL0     C51745  -1.177   6.323  10.565  0.3661 -0.0662  0.7011
  384MOL0     C51746  -1.053   6.233  10.579  1.6302  0.4993 -0.1811
  384MOL0     C51747  -1.048   6.176  10.730 -0.1908  0.3695 -0.7944
  384MOL0     C51748  -0.928   6.084  10.743  0.2566  0.5054  0.7611
  384MOL0    Cl51749  -0.776   6.183  10.704 -0.5183  0.5394 -0.1430
  384MOL0     C51750  -1.328   6.906  10.184  0.7973  1.1870 -1.1782
  384MOL0     C51751  -1.252   7.024  10.186 -0.9357 -0.2114 -0.3159
  384MOL0     O51752  -1.257   7.333  10.363 -0.5589  0.2499  0.4688
  384MOL0     C51753  -1.119   7.544  10.244 -0.3292 -0.7756 -0.5737
  384MOL0     C51754  -1.025   7.645  10.221  0.5840 -0.5960  0.0728
  384MOL0     N51755  -0.373   7.406   9.956 -0.0714 -0.0155 -0.4036
  384MOL0     N51756  -0.356   7.281   9.950  0.7450 -0.1237  1.1564
  384MOL0     C51757   0.429   6.533   9.345 -0.3102  0.0294  0.6385
  384MOL0     C51758   0.527   6.449   9.300 -0.4402 -0.1067  0.2770
  384MOL0     C51759   0.776   6.145   9.103  0.9079 -0.2530 -0.0957
  384MOL0     C51760   0.893   6.138   9.190  0.3512 -1.0007 -0.1383
  384MOL0     C51761   0.997   6.065   9.143  0.1959  0.9073 -0.9165
  384MOL0     C51762   0.995   5.998   9.017  0.4902  0.4782  0.3325
  384MOL0     O51763   1.112   5.938   8.992  0.0536  0.1989  0.9420
  384MOL0     C51764   1.139   5.871   8.872  0.0003  1.4224 -0.4041
  384MOL0     C51765   1.102   5.714   8.894 -0.3824 -0.4975  0.0098
  384MOL0     C51766   1.199   5.641   8.995 -0.1955  0.0681  0.1431
  384MOL0     C51767   1.188   5.488   8.994  0.1992 -0.5254  0.8056
  384MOL0     C51768   1.058   5.432   9.013  0.5601  0.1649 -0.3905
  384MOL0     C51769   0.947   5.392   9.028 -0.6206 -1.1764  0.3319
  384MOL0     C51770   0.877   5.997   8.939  0.5901  0.7219 -0.4988
  384MOL0     C51771   0.766   6.071   8.983  0.3473  0.4514 -0.5828
  384MOL0     C51772   0.636   6.062   8.901 -0.1545 -0.0409 -1.0140
  384MOL0     H51773   0.417   6.151   9.426 -0.9243  0.2418  2.0551
  384MOL0     H51774   0.234   6.297   9.492  0.7387 -2.1072 -1.5167
  384MOL0     H51775   0.347   6.631   9.613 -2.0129  2.1656  4.1416
  384MOL0     H51776   0.304   6.744   9.471  2.4356 -0.3039  1.2940
  384MOL0     H51777   0.184   6.778   9.711  1.4427 -1.2464 -0.5034
  384MOL0     H51778   0.111   6.624   9.685 -1.9373  1.1769  1.3837
  384MOL0     H51779  -0.010   6.713   9.483 -0.0448  0.3243  0.4498
  384MOL0     H51780   0.062   6.872   9.499 -1.2227  0.7378  1.2827
  384MOL0     H51781  -0.104   6.734   9.721  3.7622  1.2088  1.5445
  384MOL0     H51782  -0.068   6.899   9.712 -0.8533 -0.1262 -0.5278
  384MOL0     H51783  -0.178   6.922   9.481 -0.4000 -2.1931 -2.5184
  384MOL0     H51784  -0.227   6.763   9.497  2.8120 -1.6827 -0.2425
  384MOL0     H51785  -0.412   6.909   9.614  0.5397  1.9727 -0.6833
  384MOL0     H51786  -0.311   6.858   9.753 -0.3507  0.4637 -0.2946
  384MOL0     H51787  -0.314   7.119   9.602 -0.0868 -1.2553 -1.0737
  384MOL0     H51788  -0.191   7.092   9.722 -1.0150  2.9813  0.1839
  384MOL0     H51789  -0.497   7.065   9.760 -0.2468  2.1597 -1.1435
  384MOL0     H51790  -0.392   7.026   9.890 -6.2831 -0.1867  1.0647
  384MOL0     H51791  -0.500   7.335   9.655 -0.6693 -3.8530 -0.5582
  384MOL0     H51792  -0.389   7.654   9.764  0.2541  1.5346  2.8058
  384MOL0     H51793  -0.549   7.596   9.746  1.2150 -1.4409 -1.3569
  384MOL0     H51794  -0.423   7.663  10.031  0.8494 -3.5904  0.6879
  384MOL0     H51795  -0.495   7.784   9.927  1.5305 -0.2670  0.8554
  384MOL0     H51796  -0.649   7.528   9.995 -0.5762  0.6342 -2.4902
  384MOL0     H51797  -0.702   7.674   9.920 -0.1739 -0.8604 -0.6050
  384MOL0     H51798  -0.608   7.785  10.130  0.7916 -1.3850 -3.5300
  384MOL0     H51799  -0.608   7.637  10.216  2.8037  1.1925 -1.5350
  384MOL0     H51800  -0.742   7.452  10.193  0.5987  0.8999 -0.4185
  384MOL0     H51801  -0.892   7.291  10.278  0.0666  0.6644  3.4034
  384MOL0     H51802  -1.143   7.016  10.505  0.1752  1.1881 -0.4868
  384MOL0     H51803  -1.304   6.831  10.520 -0.7143  1.9325  0.7591
  384MOL0     H51804  -1.511   6.559  10.218  0.3517 -2.2219  0.6383
  384MOL0     H51805  -1.400   6.675  10.130 -1.4685  4.1418  2.1789
  384MOL0     H51806  -1.306   6.442  10.184 -1.4118  0.1288 -0.0616
  384MOL0     H51807  -1.209   6.574  10.245  1.1350 -0.6559 -1.2303
  384MOL0     H51808  -1.304   6.563  10.472 -0.6223  0.3684 -1.5181
  384MOL0     H51809  -1.392   6.416  10.425  1.3987 -1.5649 -0.4315
  384MOL0     H51810  -1.099   6.464  10.407 -1.2443  1.4568 -2.1808
  384MOL0     H51811  -1.167   6.314  10.340 -0.6717 -1.7750  1.5040
  384MOL0     H51812  -1.271   6.268  10.570 -0.8628  1.8308 -0.3521
  384MOL0     H51813  -1.171   6.394  10.648  3.1516  2.0141 -1.0608
  384MOL0     H51814  -1.049   6.156  10.502 -0.9783  1.7479 -1.6742
  384MOL0     H51815  -0.961   6.282  10.545  4.2842 -4.2185 -0.7387
  384MOL0     H51816  -1.138   6.119  10.753  0.5895 -1.1902 -1.4431
  384MOL0     H51817  -1.039   6.253  10.808  2.5187  2.3509 -2.8691
  384MOL0     H51818  -0.905   6.040  10.840 -0.7639  0.8519  1.1705
  384MOL0     H51819  -0.936   6.002  10.671  1.3238 -0.5195  1.7841
  384MOL0     H51820  -1.383   6.889  10.092  0.1911  2.3183 -1.0325
  384MOL0     H51821  -1.236   7.077  10.092  1.6321  1.5100  0.9861
  384MOL0     H51822  -1.228   7.549  10.238 -0.5273 -3.6116 -0.8693
  384MOL0     H51823  -1.052   7.748  10.197 -0.6383 -1.3206 -1.9576
  384MOL0     H51824   0.418   6.639   9.321  1.0760 -0.5686 -3.4052
  384MOL0     H51825   0.610   6.487   9.242  2.0040 -3.5891  1.1623
  384MOL0     H51826   0.896   6.201   9.278  2.4693 -0.8792 -0.2621
  384MOL0     H51827   1.091   6.065   9.197  0.7374 -0.8250 -1.8067
  384MOL0     H51828   1.239   5.911   8.851  0.3904  1.6121  1.6220
  384MOL0     H51829   1.078   5.919   8.795 -0.2645  1.3524 -0.2426
  384MOL0     H51830   1.111   5.667   8.796  3.8936  1.0681 -0.5403
  384MOL0     H51831   1.006   5.710   8.947 -0.0650 -0.5711  0.5811
  384MOL0     H51832   1.158   5.660   9.094 -0.7981 -1.3578  0.1846
  384MOL0     H51833   1.302   5.672   8.973 -0.5657  1.2615  0.0159
  384MOL0     H51834   1.223   5.446   8.899 -2.1333 -0.7929 -0.0064
  384MOL0     H51835   1.254   5.450   9.072 -0.7874 -0.1022  1.8666
  384MOL0     H51836   0.849   5.358   9.054 -2.1168  1.6633 -1.1161
  384MOL0     H51837   0.865   5.942   8.846  0.5993  2.3310 -1.4816
  384MOL0     H51838   0.555   6.065   8.975  2.4017  2.2875  1.9384
  384MOL0     H51839   0.618   6.140   8.827 -2.1005  1.2383  0.6768
  384MOL0     H51840   0.630   5.958   8.869  1.0538 -0.5911  0.4147
  385MOL0     O51841   6.761   4.964   7.789 -0.0459 -0.7891 -0.1098
  385MOL0     C51842   6.687   4.862   7.771 -0.6078 -0.0404 -1.0058
  385MOL0     O51843   6.569   4.840   7.818 -0.0245 -0.4119 -0.4937
  385MOL0     C51844   6.507   4.931   7.903 -0.2768 -0.9423 -0.8100
  385MOL0     C51845   6.440   5.038   7.841 -0.0325 -0.0438  0.2997
  385MOL0     C51846   6.372   5.127   7.918 -0.7303  0.0273  0.3567
  385MOL0     C51847   6.382   5.132   8.055 -0.0192 -0.3315  0.4875
  385MOL0     O51848   6.311   5.236   8.114  0.1486 -0.4613 -0.0293
  385MOL0     C51849   6.299   5.241   8.256  0.4617 -0.0042 -1.1181
  385MOL0     C51850   6.185   5.345   8.288 -0.8609 -0.1138  0.1640
  385MOL0     C51851   6.178   5.370   8.440  0.1734 -0.0363  0.5615
  385MOL0     C51852   6.131   5.251   8.525 -0.6656 -0.9378  0.2976
  385MOL0     C51853   6.117   5.296   8.673  0.1345 -0.4519 -0.5110
  385MOL0     C51854   6.074   5.182   8.775 -0.6016 -0.4654  0.2154
  385MOL0     C51855   6.176   5.071   8.772  0.0102  0.7445 -0.6315
  385MOL0     C51856   6.163   4.984   8.895  0.2997 -0.2433  0.0470
  385MOL0     N51857   6.042   4.896   8.901 -0.5026 -0.4293  0.1402
  385MOL0     C51858   5.947   4.901   8.997 -0.2315 -0.1261 -0.5564
  385MOL0     C51859   5.876   4.787   8.993 -0.5564  0.0612  0.6987
  385MOL0     C51860   5.763   4.735   9.074 -0.4006  0.3113  0.4633
  385MOL0     C51861   5.781   4.772   9.223  0.5770 -0.3156 -0.2369
  385MOL0     C51862   5.671   4.710   9.300  0.2734  0.1417  0.0948
  385MOL0     C51863   5.529   4.771   9.277  0.2491  0.2750 -0.4277
  385MOL0     O51864   5.534   4.919   9.291 -0.8683  0.8615  0.1770
  385MOL0     C51865   5.494   4.984   9.406  0.7614  0.2114 -1.0209
  385MOL0     C51866   5.438   5.104   9.386  0.0645  0.0391  0.8424
  385MOL0     C51867   5.366   5.167   9.489 -0.0437  0.2087 -0.1280
  385MOL0     C51868   5.363   5.113   9.624 -1.0704 -0.7328  0.3081
  385MOL0     C51869   5.308   5.194   9.734 -0.8695  0.1231  0.8222
  385MOL0     O51870   5.267   5.133   9.843  0.4669  0.3760  0.1916
  385MOL0     C51871   5.233   5.206   9.956 -1.0521  1.1826 -0.4381
  385MOL0     C51872   5.125   5.301   9.955 -0.5333  0.4907 -0.1583
  385MOL0     C51873   5.097   5.378  10.071  0.1084 -0.7758 -0.4612
  385MOL0     C51874   5.158   5.355  10.192  0.1702  0.7512 -0.0148
  385MOL0     O51875   5.098   5.424  10.293  0.1758  0.9662  0.3479
  385MOL0     C51876   5.151   5.392  10.423  0.5880 -0.1201  1.1072
  385MOL0     C51877   5.106   5.493  10.518  0.1721 -0.4092  0.8944
  385MOL0     C51878   5.191   5.506  10.646  0.2295 -0.5302  0.1115
  385MOL0     C51879   5.195   5.651  10.697  0.2678 -0.4753 -0.2205
  385MOL0     C51880   5.056   5.690  10.755  0.0136  1.0310  0.6687
  385MOL0     C51881   5.078   5.836  10.798 -0.3200 -0.8826 -0.3725
  385MOL0     C51882   4.951   5.894  10.866 -0.1686  0.9397 -0.7944
  385MOL0     C51883   4.978   6.040  10.895 -0.4288 -0.0752 -0.9127
  385MOL0    Cl51884   4.876   6.126  11.006  0.3083 -0.1076 -0.0901
  385MOL0     C51885   5.267   5.264  10.194 -0.5082  0.0207 -0.8038
  385MOL0     C51886   5.311   5.194  10.075 -0.1508 -0.2102  0.6525
  385MOL0     O51887   5.298   5.315   9.714  0.1402 -0.6771 -0.0828
  385MOL0     C51888   5.435   4.995   9.645 -0.1802  0.4390 -0.7994
  385MOL0     C51889   5.497   4.931   9.535  0.6348 -0.2940 -0.8527
  385MOL0     N51890   5.934   4.708   8.891 -0.4593  0.0087 -0.8322
  385MOL0     N51891   6.033   4.779   8.829 -0.4082 -0.6994  0.1236
  385MOL0     C51892   6.458   5.035   8.120 -0.2191  0.5431 -0.8300
  385MOL0     C51893   6.523   4.930   8.047  0.4486  0.1897 -0.1446
  385MOL0     C51894   6.751   4.760   7.695  0.2494 -0.1543 -0.7012
  385MOL0     C51895   6.843   4.793   7.590 -0.2316  0.0311  0.4754
  385MOL0     C51896   6.895   4.693   7.516  0.2041 -0.6751  0.1949
  385MOL0     C51897   6.871   4.559   7.533  0.1098 -0.1929  0.5138
  385MOL0     O51898   6.953   4.477   7.451  0.7423 -1.0183  1.0777
  385MOL0     C51899   6.921   4.340   7.462 -0.9080 -0.4642 -0.1479
  385MOL0     C51900   6.972   4.266   7.339 -0.0650 -0.4058  0.2984
  385MOL0     C51901   6.925   4.321   7.204 -0.1240  0.2411 -0.1095
  385MOL0     C51902   7.007   4.256   7.081 -0.3638 -0.1919 -0.5263
  385MOL0     C51903   6.954   4.121   7.072  0.5840  1.1174  0.2844
  385MOL0     C51904   6.915   4.006   7.057 -1.0372 -0.0607 -0.4049
  385MOL0     C51905   6.780   4.525   7.638 -0.4702  0.4644  0.6163
  385MOL0     C51906   6.719   4.628   7.715  0.5744  0.0468 -0.3499
  385MOL0     C51907   6.621   4.566   7.813  0.8642 -0.1295  0.2126
  385MOL0     H51908   6.412   5.055   7.738 -4.3403 -2.4093  0.8366
  385MOL0     H51909   6.317   5.208   7.871 -0.2653  1.4389  2.1303
  385MOL0     H51910   6.283   5.145   8.305  3.4821 -0.6048 -1.0879
  385MOL0     H51911   6.390   5.279   8.304 -1.2716 -0.2504  2.7339
  385MOL0     H51912   6.087   5.318   8.246 -0.7167  0.4699 -0.5676
  385MOL0     H51913   6.214   5.434   8.232  2.4527 -1.4945 -0.5118
  385MOL0     H51914   6.100   5.447   8.443  0.6582  0.4420  1.9498
  385MOL0     H51915   6.273   5.399   8.486  0.1060 -1.1865  1.4925
  385MOL0     H51916   6.037   5.232   8.474  0.1160  0.6294 -1.8658
  385MOL0     H51917   6.208   5.172   8.522  1.6587  1.1220  1.5088
  385MOL0     H51918   6.207   5.344   8.712  1.7383 -1.1436 -3.1291
  385MOL0     H51919   6.031   5.363   8.678  0.8704  0.4279  0.8949
  385MOL0     H51920   6.075   5.228   8.874  4.5536  1.1485 -0.2751
  385MOL0     H51921   5.971   5.152   8.752 -0.9397  0.1348  0.8855
  385MOL0     H51922   6.279   5.107   8.773  0.3459 -0.1794 -0.7187
  385MOL0     H51923   6.172   5.019   8.675 -0.9186 -0.4977  0.0497
  385MOL0     H51924   6.251   4.918   8.897 -1.0404 -2.0848  1.4695
  385MOL0     H51925   6.158   5.059   8.974  0.4473 -0.2107  0.0270
  385MOL0     H51926   5.936   4.980   9.071 -1.1497 -0.9914  0.2535
  385MOL0     H51927   5.673   4.788   9.044 -0.9727 -0.4676  0.7721
  385MOL0     H51928   5.743   4.629   9.059  0.5820  0.0619  0.7884
  385MOL0     H51929   5.873   4.730   9.265 -1.2606 -3.2879  1.1394
  385MOL0     H51930   5.779   4.878   9.252 -2.1667 -0.0559 -1.0880
  385MOL0     H51931   5.691   4.702   9.407 -1.7690 -0.9556  0.4616
  385MOL0     H51932   5.654   4.608   9.263 -1.5699  0.4499  0.0004
  385MOL0     H51933   5.452   4.733   9.345  1.0647  1.0233  0.9502
  385MOL0     H51934   5.490   4.745   9.178  1.3278  1.5951 -1.2235
  385MOL0     H51935   5.433   5.138   9.284  1.2988  4.4549  2.0350
  385MOL0     H51936   5.314   5.260   9.468  0.6239  1.2232  2.3664
  385MOL0     H51937   5.076   5.325   9.862  1.3818  2.1625 -0.8187
  385MOL0     H51938   5.012   5.446  10.075 -0.4435 -1.4921  1.4898
  385MOL0     H51939   5.124   5.293  10.462 -2.8339  0.5328  0.6918
  385MOL0     H51940   5.258   5.398  10.402  0.6013  0.6444  1.3983
  385MOL0     H51941   5.117   5.592  10.473 -0.9451  0.1882  1.8563
  385MOL0     H51942   4.999   5.472  10.534 -1.0143  0.1731 -4.4013
  385MOL0     H51943   5.144   5.440  10.719 -0.0823 -0.2130  0.2003
  385MOL0     H51944   5.295   5.479  10.627  0.8511  1.7922 -0.0765
  385MOL0     H51945   5.215   5.723  10.617  0.0770 -0.2142 -0.0327
  385MOL0     H51946   5.277   5.667  10.767  0.0797  2.5452 -0.5522
  385MOL0     H51947   5.043   5.611  10.830 -1.4291 -0.6795 -1.2837
  385MOL0     H51948   4.974   5.685  10.683 -0.6012  1.1107  1.3479
  385MOL0     H51949   5.157   5.816  10.871  0.1114 -2.8438 -1.3175
  385MOL0     H51950   5.125   5.898  10.721  1.5214 -1.5147  0.1901
  385MOL0     H51951   4.925   5.843  10.959 -2.5043  3.0400 -0.1705
  385MOL0     H51952   4.860   5.879  10.808 -0.5276 -0.4782  0.0912
  385MOL0     H51953   5.075   6.043  10.946 -2.0007 -1.9697  2.5099
  385MOL0     H51954   4.982   6.095  10.800 -1.7375  0.4387 -0.6921
  385MOL0     H51955   5.333   5.253  10.279  0.0881 -0.6165 -1.3444
  385MOL0     H51956   5.398   5.129  10.073  0.9735  1.2337 -2.2228
  385MOL0     H51957   5.462   4.965   9.745  2.9233 -0.1901 -1.7176
  385MOL0     H51958   5.552   4.844   9.567 -1.2694 -1.0022  0.7133
  385MOL0     H51959   6.472   5.030   8.227 -2.1299 -0.2142 -0.5647
  385MOL0     H51960   6.583   4.848   8.085 -0.1004  0.1517  0.6520
  385MOL0     H51961   6.890   4.890   7.582 -3.3821  1.6699  0.3987
  385MOL0     H51962   6.964   4.720   7.437  1.9033 -0.1298  1.7935
  385MOL0     H51963   6.813   4.330   7.468 -0.8596 -0.9304 -0.0063
  385MOL0     H51964   6.970   4.302   7.553 -0.8465 -3.4620 -1.3240
  385MOL0     H51965   6.933   4.164   7.342  1.0728 -0.8323  2.9347
  385MOL0     H51966   7.081   4.261   7.344  0.0757  2.0631  1.2549
  385MOL0     H51967   6.941   4.430   7.202 -0.3647  0.2731 -0.4149
  385MOL0     H51968   6.819   4.297   7.199 -0.9739  3.3350  0.7267
  385MOL0     H51969   6.996   4.314   6.989 -0.1838 -0.4059 -0.6819
  385MOL0     H51970   7.114   4.249   7.103 -0.4094 -4.5420 -0.8158
  385MOL0     H51971   6.893   3.902   7.049  0.0147 -0.2325 -1.2804
  385MOL0     H51972   6.757   4.422   7.666 -1.6670  0.2595 -0.9680
  385MOL0     H51973   6.522   4.563   7.768  1.8781  3.3068 -2.7296
  385MOL0     H51974   6.643   4.461   7.836  0.5772 -0.2206  0.0773
  385MOL0     H51975   6.624   4.623   7.906  0.1656 -1.7275  1.2609
  386MOL0     O51976   6.095   1.318   5.522  0.1865  0.4979 -0.2018
  386MOL0     C51977   6.006   1.343   5.607 -0.6308  0.4830  0.7811
  386MOL0     O51978   5.910   1.430   5.582  0.1731 -0.1858  0.9996
  386MOL0     C51979   5.931   1.536   5.490  0.5834  0.5791 -0.0182
  386MOL0     C51980   5.810   1.575   5.429  0.1487  0.2380  0.5239
  386MOL0     C51981   5.810   1.683   5.344 -1.0396 -0.4607  0.1587
  386MOL0     C51982   5.928   1.746   5.311  0.1677 -0.3160 -0.0700
  386MOL0     O51983   5.921   1.848   5.217  0.5461  0.1123  0.8729
  386MOL0     C51984   6.041   1.905   5.166 -0.8525 -0.7730  0.9215
  386MOL0     C51985   5.974   1.987   5.046  0.2743 -0.4466 -0.0232
  386MOL0     C51986   6.074   2.016   4.940 -0.1978 -0.5844 -0.4776
  386MOL0     C51987   6.155   2.144   4.976 -0.3752  0.9345  0.0047
  386MOL0     C51988   6.238   2.200   4.861  0.8354 -0.7722  0.3388
  386MOL0     C51989   6.326   2.322   4.902 -0.5190  0.3215  0.4262
  386MOL0     C51990   6.416   2.304   5.021  0.5123 -0.2221  1.0642
  386MOL0     C51991   6.536   2.397   5.016 -0.8489 -0.0830 -0.3755
  386MOL0     N51992   6.612   2.396   5.144 -0.0553 -0.9557  0.1296
  386MOL0     C51993   6.579   2.366   5.272  0.2830  0.5157  0.6400
  386MOL0     C51994   6.685   2.401   5.346 -0.0154  1.7774 -0.2217
  386MOL0     C51995   6.699   2.393   5.500 -0.3780 -0.4484 -0.1676
  386MOL0     C51996   6.672   2.528   5.552  0.5771 -0.3968 -0.2532
  386MOL0     C51997   6.670   2.523   5.708  0.0176  1.2041 -0.7201
  386MOL0     C51998   6.544   2.464   5.773 -1.0452  0.1301 -0.1768
  386MOL0     O51999   6.506   2.509   5.902  0.5574  0.6871  1.0144
  386MOL0     C52000   6.413   2.612   5.899 -0.6053  0.7444 -0.7080
  386MOL0     C52001   6.327   2.613   6.007 -0.4112  0.2662 -0.5214
  386MOL0     C52002   6.222   2.706   6.022 -0.2777  0.1895  0.2138
  386MOL0     C52003   6.184   2.788   5.915  0.1068 -1.1311 -0.5696
  386MOL0     C52004   6.061   2.865   5.933  0.7285 -0.0915  0.1471
  386MOL0     O52005   6.022   2.934   5.821  0.1187  0.2375  0.2488
  386MOL0     C52006   5.908   3.011   5.834  0.5159 -0.0224 -0.1004
  386MOL0     C52007   5.780   2.956   5.801  0.1147  0.6797  0.8905
  386MOL0     C52008   5.661   3.033   5.818 -0.0875  0.9662  0.1475
  386MOL0     C52009   5.671   3.169   5.857 -0.1601  0.7788 -0.4418
  386MOL0     O52010   5.561   3.252   5.858  0.0095  0.1587 -0.2426
  386MOL0     C52011   5.431   3.197   5.864 -0.0655  0.3097  0.0026
  386MOL0     C52012   5.336   3.320   5.887 -1.0257 -0.0404  0.3757
  386MOL0     C52013   5.193   3.269   5.909  0.2371 -0.1719 -0.2670
  386MOL0     C52014   5.106   3.269   5.778 -0.0931  0.2281  0.0379
  386MOL0     C52015   4.990   3.177   5.813 -0.5886  0.2091 -0.5135
  386MOL0     C52016   4.850   3.222   5.854  0.4202 -1.6862 -0.0271
  386MOL0     C52017   4.843   3.269   6.000 -0.8418  0.6351 -0.4414
  386MOL0     C52018   4.698   3.297   6.043  0.0900  0.3501 -0.2913
  386MOL0    Cl52019   4.616   3.136   6.047  0.0324 -0.5621  0.0261
  386MOL0     C52020   5.799   3.221   5.884 -0.8690 -0.5101  0.0481
  386MOL0     C52021   5.920   3.144   5.860  0.0559 -0.4006  0.8479
  386MOL0     O52022   6.017   2.874   6.040  0.5430  0.1114  0.6571
  386MOL0     C52023   6.267   2.801   5.807 -0.2295 -0.0975 -0.7234
  386MOL0     C52024   6.388   2.712   5.802 -0.0178 -0.1183 -0.3581
  386MOL0     N52025   6.783   2.445   5.266 -0.2640 -0.0173 -0.1278
  386MOL0     N52026   6.738   2.444   5.142  0.5068  0.8051 -0.1289
  386MOL0     C52027   6.047   1.705   5.361 -0.4838  0.5454 -1.1484
  386MOL0     C52028   6.049   1.603   5.458 -0.1062 -0.2952  0.5364
  386MOL0     C52029   5.983   1.255   5.727  0.5738  0.0847 -0.2960
  386MOL0     C52030   5.970   1.119   5.708 -0.6087 -0.0841  0.8290
  386MOL0     C52031   5.929   1.026   5.806  0.1584  0.6256 -0.3778
  386MOL0     C52032   5.899   1.080   5.934  0.0285 -0.4500  0.1927
  386MOL0     O52033   5.861   1.013   6.043 -0.2478  0.2905  0.0382
  386MOL0     C52034   5.911   0.876   6.059 -0.9543  0.6863  0.3938
  386MOL0     C52035   6.058   0.853   6.078 -0.3270 -0.2871  0.1354
  386MOL0     C52036   6.105   0.953   6.181  0.7682 -1.2451 -0.3588
  386MOL0     C52037   6.039   0.949   6.319 -0.3275  0.6075 -1.3939
  386MOL0     C52038   6.113   1.029   6.414  0.0107 -0.2115  1.0272
  386MOL0     C52039   6.158   1.107   6.493 -0.8675 -0.1251 -0.7043
  386MOL0     C52040   5.902   1.223   5.944 -0.6113  0.1594 -0.4870
  386MOL0     C52041   5.940   1.311   5.848  1.1164  0.7234  0.1125
  386MOL0     C52042   5.957   1.452   5.884 -1.0617  0.5532 -0.3342
  386MOL0     H52043   5.716   1.520   5.425  0.6145 -0.6294 -3.5270
  386MOL0     H52044   5.718   1.725   5.303 -0.2195  0.3910 -0.8481
  386MOL0     H52045   6.076   1.978   5.239  2.2673 -1.8636  0.6600
  386MOL0     H52046   6.119   1.838   5.129  2.1125  2.0831  1.5023
  386MOL0     H52047   5.922   2.074   5.086 -2.9336 -1.0849 -2.3980
  386MOL0     H52048   5.887   1.940   5.000 -0.7957  0.3520  1.1108
  386MOL0     H52049   6.014   2.033   4.850 -0.9810  4.1281  0.6818
  386MOL0     H52050   6.135   1.925   4.937 -1.4961 -1.4618 -0.9215
  386MOL0     H52051   6.093   2.220   5.025 -2.5581 -1.4713  1.2582
  386MOL0     H52052   6.233   2.116   5.047 -2.5896  0.3437  2.4004
  386MOL0     H52053   6.303   2.120   4.824  0.2666  0.0975 -2.8238
  386MOL0     H52054   6.172   2.245   4.786 -0.8259  0.4359  2.4131
  386MOL0     H52055   6.390   2.334   4.814 -0.2988  1.6673  0.7558
  386MOL0     H52056   6.260   2.406   4.923  1.1490  2.0819 -0.9880
  386MOL0     H52057   6.463   2.205   5.023 -1.7365 -1.3709  0.5982
  386MOL0     H52058   6.352   2.319   5.108 -4.1159 -0.9653 -1.8609
  386MOL0     H52059   6.599   2.361   4.934 -1.1442 -1.5221 -0.0082
  386MOL0     H52060   6.496   2.498   5.015  1.6258  1.1435  3.4392
  386MOL0     H52061   6.480   2.331   5.300 -1.1093  1.2118 -2.8580
  386MOL0     H52062   6.619   2.323   5.527  2.0719 -3.3776 -0.0791
  386MOL0     H52063   6.798   2.364   5.535  0.3425 -0.7835 -2.3289
  386MOL0     H52064   6.753   2.595   5.521 -0.5421  1.0563 -0.1435
  386MOL0     H52065   6.580   2.574   5.514  1.4571  2.2362  0.5397
  386MOL0     H52066   6.665   2.625   5.747 -3.1218  0.3975  1.3655
  386MOL0     H52067   6.764   2.487   5.752 -0.8169  0.7933  0.7797
  386MOL0     H52068   6.550   2.355   5.773 -0.2451  0.0771 -3.1764
  386MOL0     H52069   6.457   2.483   5.709 -2.0675 -0.2315  1.0630
  386MOL0     H52070   6.350   2.540   6.085  0.4012  0.6770 -0.3663
  386MOL0     H52071   6.160   2.701   6.111  0.4963  0.7832  0.8015
  386MOL0     H52072   5.786   2.854   5.764  0.1071 -1.5539  6.1178
  386MOL0     H52073   5.569   2.991   5.780  1.1540 -0.2592 -1.6944
  386MOL0     H52074   5.418   3.158   5.762  0.5602 -2.8299  0.9986
  386MOL0     H52075   5.428   3.117   5.939 -1.5602  0.0270 -0.3262
  386MOL0     H52076   5.370   3.375   5.975  1.9863 -2.7805  1.1357
  386MOL0     H52077   5.344   3.396   5.810 -3.1974  0.6706  0.7672
  386MOL0     H52078   5.184   3.166   5.945 -0.0310 -0.5773 -1.4505
  386MOL0     H52079   5.136   3.330   5.979  2.1556  1.4268 -0.0094
  386MOL0     H52080   5.168   3.225   5.699  1.8362  1.6429  0.6886
  386MOL0     H52081   5.075   3.371   5.755  0.4820  0.7413  1.4255
  386MOL0     H52082   5.006   3.089   5.877 -3.8031 -0.2578 -0.1516
  386MOL0     H52083   4.970   3.128   5.717  0.7437  1.4783 -1.4777
  386MOL0     H52084   4.826   3.307   5.790  2.1204  1.3233  3.0244
  386MOL0     H52085   4.774   3.145   5.835  0.4791 -2.0280  1.0980
  386MOL0     H52086   4.912   3.354   6.004  1.0709 -0.8841  0.8269
  386MOL0     H52087   4.891   3.197   6.066  2.3103  1.1926 -1.8955
  386MOL0     H52088   4.705   3.332   6.146 -1.1228 -0.7598  0.1998
  386MOL0     H52089   4.645   3.363   5.974 -0.7025  0.6904  0.6324
  386MOL0     H52090   5.809   3.326   5.907  2.1849 -0.2733 -1.8320
  386MOL0     H52091   6.017   3.179   5.893 -0.5522 -1.4430  4.0958
  386MOL0     H52092   6.264   2.865   5.719 -0.4490  0.3825 -0.3630
  386MOL0     H52093   6.441   2.729   5.709 -1.4796 -0.0243 -1.2143
  386MOL0     H52094   6.146   1.744   5.338  0.9875 -1.1356  1.7609
  386MOL0     H52095   6.141   1.569   5.503  0.0176 -0.2952  0.2858
  386MOL0     H52096   5.986   1.091   5.605 -2.2198 -1.8002  0.9909
  386MOL0     H52097   5.918   0.918   5.799 -0.8496  0.5105  2.0250
  386MOL0     H52098   5.888   0.814   5.972  1.1217 -0.9403  0.9225
  386MOL0     H52099   5.862   0.823   6.142  1.2433 -1.6213  0.3402
  386MOL0     H52100   6.117   0.847   5.985  2.2477 -2.8420  1.7542
  386MOL0     H52101   6.054   0.753   6.122 -2.8604 -0.5807 -0.5806
  386MOL0     H52102   6.079   1.051   6.141  1.3315 -0.9109  0.0814
  386MOL0     H52103   6.212   0.935   6.193  1.3557 -1.4036 -4.4704
  386MOL0     H52104   5.935   0.982   6.317 -0.7845 -0.7726 -1.3080
  386MOL0     H52105   6.053   0.857   6.376  0.0794  1.4727 -0.0519
  386MOL0     H52106   6.210   1.171   6.561 -2.1349 -0.8947  1.0649
  386MOL0     H52107   5.891   1.274   6.039  0.4277  0.0398 -0.2851
  386MOL0     H52108   5.878   1.521   5.854 -2.1914 -1.2795 -1.7439
  386MOL0     H52109   5.968   1.464   5.993  2.1735  0.7804 -0.5654
  386MOL0     H52110   6.055   1.488   5.849 -0.6923 -0.1694 -0.0627
  387MOL0     O52111   2.116   3.390  10.079  0.8844  0.6976 -0.4024
  387MOL0     C52112   2.097   3.362  10.200  0.4947  0.0578 -0.1925
  387MOL0     O52113   2.035   3.445  10.293  1.1550  0.6140 -0.1267
  387MOL0     C52114   1.931   3.538  10.261 -0.7515  0.8760 -0.5486
  387MOL0     C52115   1.938   3.631  10.155  0.2324  0.8303  1.1922
  387MOL0     C52116   1.827   3.710  10.123  0.6100  0.7221 -1.0279
  387MOL0     C52117   1.702   3.688  10.189  0.0424 -0.1022  0.7550
  387MOL0     O52118   1.597   3.745  10.114 -0.0136  1.0968  0.5423
  387MOL0     C52119   1.473   3.693  10.154 -0.3334 -0.1964  0.5713
  387MOL0     C52120   1.354   3.774  10.102 -0.3113 -0.6325  0.7881
  387MOL0     C52121   1.298   3.729   9.963 -0.1010  0.7597 -0.1434
  387MOL0     C52122   1.192   3.822   9.913 -0.4298  0.3344  0.2572
  387MOL0     C52123   1.152   3.827   9.770 -0.2313  0.1865 -0.4875
  387MOL0     C52124   1.268   3.864   9.670  0.2610 -0.2628 -0.0570
  387MOL0     C52125   1.310   4.017   9.688  0.5470 -0.6350 -0.1127
  387MOL0     C52126   1.417   4.055   9.782 -0.2910 -0.7436 -0.6812
  387MOL0     N52127   1.549   4.005   9.739 -0.4403  0.1577 -0.5012
  387MOL0     C52128   1.592   3.874   9.749 -0.2014 -0.5982  0.2828
  387MOL0     C52129   1.715   3.880   9.689 -1.1386 -0.3821 -0.0006
  387MOL0     C52130   1.818   3.766   9.690  1.4029  0.5662  0.6401
  387MOL0     C52131   1.770   3.660   9.591  0.8003  0.2381 -0.2826
  387MOL0     C52132   1.853   3.532   9.606 -0.5073  0.0079  1.7337
  387MOL0     C52133   1.842   3.464   9.740  0.2930 -0.3937 -0.4914
  387MOL0     O52134   1.715   3.405   9.755 -0.5383 -0.5543  0.3737
  387MOL0     C52135   1.680   3.352   9.874 -0.1093  0.2328  0.1350
  387MOL0     C52136   1.775   3.325   9.970  1.0621 -0.1765 -1.0863
  387MOL0     C52137   1.744   3.283  10.098  0.2308 -1.9623  0.2680
  387MOL0     C52138   1.611   3.277  10.132 -0.2990  0.3912  0.0764
  387MOL0     C52139   1.573   3.235  10.268 -1.2083  0.7153  0.6377
  387MOL0     O52140   1.675   3.219  10.362 -0.6413  0.0912  0.6080
  387MOL0     C52141   1.646   3.171  10.490  0.1944 -0.6442  0.2872
  387MOL0     C52142   1.539   3.219  10.568  0.5775  1.8416  0.0018
  387MOL0     C52143   1.512   3.176  10.705 -0.8399 -0.2138 -0.3922
  387MOL0     C52144   1.607   3.089  10.772 -0.5395 -0.0185 -0.1490
  387MOL0     O52145   1.590   3.051  10.900  0.1021 -0.1681  1.1115
  387MOL0     C52146   1.694   3.002  10.980  0.1772 -0.8608  0.3215
  387MOL0     C52147   1.807   3.099  11.020 -0.0386  0.1036  0.9361
  387MOL0     C52148   1.744   3.230  11.078 -0.3801 -0.7029 -0.0923
  387MOL0     C52149   1.769   3.261  11.227  0.2866 -0.3592 -0.3821
  387MOL0     C52150   1.706   3.164  11.320 -0.0437 -0.7033  0.8836
  387MOL0     C52151   1.750   3.185  11.468 -0.6241  0.2443  0.1022
  387MOL0     C52152   1.699   3.306  11.547  0.2219 -1.3663  0.6884
  387MOL0     C52153   1.551   3.287  11.573 -1.6808 -0.2440  0.8646
  387MOL0    Cl52154   1.479   3.431  11.656  0.0289  0.0384  0.0470
  387MOL0     C52155   1.713   3.042  10.687  0.4677 -0.1906 -0.5511
  387MOL0     C52156   1.744   3.084  10.548  1.3571 -0.8528 -0.1453
  387MOL0     O52157   1.454   3.215  10.285 -0.6360  0.3963 -0.4717
  387MOL0     C52158   1.512   3.297  10.034  0.4521 -0.1600  0.1742
  387MOL0     C52159   1.539   3.345   9.907 -0.1964  0.5251  0.2355
  387MOL0     N52160   1.729   4.004   9.639 -0.2462  0.0122 -0.7134
  387MOL0     N52161   1.634   4.078   9.673 -0.7418  0.7415  0.4109
  387MOL0     C52162   1.698   3.590  10.289 -0.3895  0.4658  0.5360
  387MOL0     C52163   1.817   3.523  10.335 -0.3875 -0.1510  0.3767
  387MOL0     C52164   2.118   3.228  10.265 -0.4674  0.5118  0.0974
  387MOL0     C52165   2.109   3.212  10.397 -0.0625 -0.8672 -0.3363
  387MOL0     C52166   2.105   3.083  10.453  1.1690 -0.1173  0.1455
  387MOL0     C52167   2.131   2.968  10.375 -0.3450  0.6107  0.6267
  387MOL0     O52168   2.142   2.834  10.409  0.6128  0.4882  0.0176
  387MOL0     C52169   2.128   2.795  10.547  0.1308 -0.3313 -0.2401
  387MOL0     C52170   2.121   2.644  10.554 -0.2750 -0.4397 -0.3677
  387MOL0     C52171   1.975   2.597  10.532  0.6573  0.4502  0.7623
  387MOL0     C52172   1.906   2.619  10.395  0.7991 -0.7639  0.4817
  387MOL0     C52173   1.988   2.571  10.283  0.2339  0.1897 -0.3793
  387MOL0     C52174   2.058   2.535  10.192 -0.0056  0.2447  0.1053
  387MOL0     C52175   2.121   2.977  10.242 -0.3664  0.0203  0.1293
  387MOL0     C52176   2.123   3.109  10.189  0.0583 -0.2894  1.1199
  387MOL0     C52177   2.125   3.094  10.028 -0.0940 -0.1994 -0.2592
  387MOL0     H52178   2.036   3.652  10.113  0.7544  0.7517  2.3461
  387MOL0     H52179   1.838   3.782  10.043  2.3134  1.1568 -0.4557
  387MOL0     H52180   1.462   3.589  10.120  0.2359 -0.5419  1.3913
  387MOL0     H52181   1.451   3.703  10.261 -0.7853  0.0205  0.4595
  387MOL0     H52182   1.395   3.875  10.092 -1.5831 -0.0569  1.1874
  387MOL0     H52183   1.276   3.764  10.177  0.9670  1.3118  2.4860
  387MOL0     H52184   1.273   3.622   9.969 -0.2850  0.6171 -2.6495
  387MOL0     H52185   1.390   3.734   9.903  0.3896  4.9773  0.6513
  387MOL0     H52186   1.110   3.798   9.981  0.9133 -3.6538  0.6817
  387MOL0     H52187   1.227   3.923   9.937  2.9843 -0.6281 -0.1397
  387MOL0     H52188   1.117   3.727   9.744  0.4059 -0.6183  1.6025
  387MOL0     H52189   1.067   3.894   9.753 -0.2257  0.1883 -0.5093
  387MOL0     H52190   1.360   3.804   9.676 -0.4257 -1.3235  0.1329
  387MOL0     H52191   1.220   3.859   9.573 -0.0722 -1.2034  0.1490
  387MOL0     H52192   1.220   4.075   9.710 -0.2179 -0.8148 -2.4895
  387MOL0     H52193   1.354   4.054   9.595  2.2512 -1.7598  0.2070
  387MOL0     H52194   1.431   4.164   9.786  0.1464 -0.7907 -0.8038
  387MOL0     H52195   1.389   4.021   9.882 -1.9017  0.7182 -0.5824
  387MOL0     H52196   1.564   3.795   9.818  1.0124 -0.2946  1.1524
  387MOL0     H52197   1.917   3.793   9.651  1.6978 -2.8724 -1.3759
  387MOL0     H52198   1.830   3.735   9.794 -0.5042  1.3333  1.1217
  387MOL0     H52199   1.674   3.616   9.621  1.1473 -0.9928 -0.8958
  387MOL0     H52200   1.770   3.695   9.488 -1.7233 -0.3048 -0.5264
  387MOL0     H52201   1.953   3.571   9.588 -1.2539  1.3342  0.3400
  387MOL0     H52202   1.843   3.459   9.526 -1.8788  2.8969 -0.9164
  387MOL0     H52203   1.861   3.531   9.823 -0.0736 -1.7140  0.6974
  387MOL0     H52204   1.916   3.383   9.743  2.4023  1.1494 -4.0081
  387MOL0     H52205   1.883   3.328   9.962  1.0444  0.5453 -1.0974
  387MOL0     H52206   1.833   3.258  10.154  0.3405  1.4751  1.8869
  387MOL0     H52207   1.470   3.290  10.525 -2.5505 -1.5479 -1.1575
  387MOL0     H52208   1.426   3.220  10.755 -0.6949 -2.0295  1.6139
  387MOL0     H52209   1.650   2.964  11.073  0.1127 -1.3089  0.1104
  387MOL0     H52210   1.742   2.912  10.940 -0.9881 -1.9116  1.2148
  387MOL0     H52211   1.883   3.048  11.080  1.9860  0.0071 -1.5436
  387MOL0     H52212   1.866   3.121  10.931  1.9768 -1.2059  1.8759
  387MOL0     H52213   1.787   3.320  11.032  1.0069  0.5030  3.1906
  387MOL0     H52214   1.636   3.226  11.059 -0.4407 -3.0229  0.5059
  387MOL0     H52215   1.705   3.349  11.233 -0.4652 -0.9484  0.5946
  387MOL0     H52216   1.874   3.269  11.255 -0.6293 -1.2632  4.1330
  387MOL0     H52217   1.737   3.070  11.273 -0.6510 -0.0974 -0.8157
  387MOL0     H52218   1.600   3.190  11.307  0.7884  3.9528  1.6443
  387MOL0     H52219   1.724   3.093  11.520 -2.0331  1.6171  1.9527
  387MOL0     H52220   1.858   3.180  11.449 -1.0611 -0.0214 -2.8381
  387MOL0     H52221   1.721   3.397  11.489 -2.3727 -0.5996  0.7898
  387MOL0     H52222   1.766   3.323  11.632  2.8058  0.7636 -1.5575
  387MOL0     H52223   1.499   3.262  11.480  2.1928 -2.3772 -0.9735
  387MOL0     H52224   1.553   3.207  11.647 -0.5497 -1.0183  0.0405
  387MOL0     H52225   1.783   2.984  10.747  0.3003 -0.7023 -0.8470
  387MOL0     H52226   1.838   3.074  10.495  0.1330  1.0263 -2.9129
  387MOL0     H52227   1.416   3.250  10.052  1.4911 -1.5911  2.4965
  387MOL0     H52228   1.458   3.359   9.837 -0.5256 -1.2570  0.2223
  387MOL0     H52229   1.602   3.557  10.328 -2.1458  0.9099 -2.9802
  387MOL0     H52230   1.806   3.467  10.427  3.1125  0.4277  1.2939
  387MOL0     H52231   2.088   3.295  10.464  1.8180 -0.0770 -0.6703
  387MOL0     H52232   2.110   3.080  10.562  2.1589  1.5926  0.1956
  387MOL0     H52233   2.036   2.835  10.590 -0.4241 -0.0603 -1.6079
  387MOL0     H52234   2.218   2.827  10.602  0.7685 -0.1847 -1.3257
  387MOL0     H52235   2.168   2.623  10.651 -0.7767  1.7741  0.4232
  387MOL0     H52236   2.202   2.609  10.489  0.0641  1.5191 -1.0878
  387MOL0     H52237   1.906   2.649  10.600 -4.2779  0.4855 -3.6467
  387MOL0     H52238   1.977   2.491  10.558 -1.5173  0.1206 -0.1073
  387MOL0     H52239   1.803   2.583  10.391 -1.7290  5.3284 -0.7487
  387MOL0     H52240   1.894   2.728  10.384  2.1326 -0.7709 -1.6191
  387MOL0     H52241   2.117   2.491  10.115  0.4831 -2.0193  1.6677
  387MOL0     H52242   2.136   2.888  10.181  2.8126  1.6123 -1.6171
  387MOL0     H52243   2.100   2.992   9.998 -1.5530 -0.2673  1.0378
  387MOL0     H52244   2.065   3.168   9.974 -0.3422 -0.6670 -0.6308
  387MOL0     H52245   2.230   3.102  10.000  0.3044 -0.5396  1.0658
  388MOL0     O52246   2.119  10.695   0.749  0.0203  0.4858 -0.1015
  388MOL0     C52247   2.006  10.683   0.703 -0.2949 -0.1895 -0.8439
  388MOL0     O52248   1.971  10.598   0.593 -0.3768  0.4826  0.4849
  388MOL0     C52249   2.061  10.533   0.509  0.2307 -0.4511 -0.8206
  388MOL0     C52250   2.046  10.531   0.371 -0.8546  0.2071  0.1417
  388MOL0     C52251   2.142  10.469   0.293  0.4113 -0.8349  0.7389
  388MOL0     C52252   2.254  10.397   0.343  0.5161  0.5520  0.0577
  388MOL0     O52253   2.354  10.329   0.277  0.0852 -0.1140  0.1408
  388MOL0     C52254   2.430  10.413   0.194  0.2753  0.4653 -0.0195
  388MOL0     C52255   2.421  10.355   0.049  0.2478  0.3685 -0.5167
  388MOL0     C52256   2.491  10.228   0.029 -0.2023  0.2626 -0.4879
  388MOL0     C52257   2.461  10.165  -0.104  0.2261 -0.1721  0.2780
  388MOL0     C52258   2.495  10.019  -0.127  0.7043 -0.3263 -1.3087
  388MOL0     C52259   2.636  10.007  -0.148  0.7533  1.2499  0.7315
  388MOL0     C52260   2.671   9.855  -0.193  0.2789 -0.9348  0.2383
  388MOL0     C52261   2.793   9.869  -0.278  0.7896  0.3332 -0.2955
  388MOL0     N52262   2.788   9.954  -0.396  0.4388 -0.2860 -0.5789
  388MOL0     C52263   2.896   9.989  -0.471 -0.3913  0.0040  0.1269
  388MOL0     C52264   2.845  10.027  -0.589 -0.4198 -0.1646  0.7333
  388MOL0     C52265   2.922  10.064  -0.713  0.8199 -1.2045 -0.2397
  388MOL0     C52266   2.903   9.944  -0.820  0.1703 -0.0143 -0.2200
  388MOL0     C52267   2.918   9.801  -0.767  0.9057 -0.1506 -0.0901
  388MOL0     C52268   2.874   9.708  -0.870 -0.0515 -1.1293  0.2711
  388MOL0     O52269   2.899   9.576  -0.830  0.1597 -0.3270 -0.4901
  388MOL0     C52270   2.995   9.517  -0.912 -0.3063 -0.3192 -1.2836
  388MOL0     C52271   2.945   9.443  -1.021 -2.1324 -0.0885 -0.0229
  388MOL0     C52272   3.024   9.387  -1.118 -0.7143  0.1127  0.1052
  388MOL0     C52273   3.162   9.418  -1.113  0.1683 -0.2128  0.2036
  388MOL0     C52274   3.252   9.371  -1.211  0.1848 -0.3615  1.0131
  388MOL0     O52275   3.212   9.266  -1.287 -0.6760 -0.4885  0.2779
  388MOL0     C52276   3.286   9.212  -1.388 -0.6219 -0.8855 -0.5658
  388MOL0     C52277   3.234   9.235  -1.520  0.0143  0.2055  0.5993
  388MOL0     C52278   3.318   9.194  -1.619  0.1657  0.8530 -0.0977
  388MOL0     C52279   3.449   9.146  -1.596  0.1691 -0.5081  0.4670
  388MOL0     O52280   3.546   9.132  -1.686 -0.0302 -0.4415 -0.2633
  388MOL0     C52281   3.562   9.223  -1.799  0.0731  0.1357 -1.0080
  388MOL0     C52282   3.708   9.234  -1.837  0.0083  0.3185  0.3507
  388MOL0     C52283   3.734   9.325  -1.957 -0.1513 -0.1385 -0.3033
  388MOL0     C52284   3.876   9.326  -2.001 -0.0658 -0.1535 -0.8352
  388MOL0     C52285   3.891   9.425  -2.127 -0.3432 -0.8474 -0.6747
  388MOL0     C52286   4.039   9.425  -2.161 -0.0304  0.0383 -0.5453
  388MOL0     C52287   4.063   9.482  -2.308  0.0170  0.1360 -0.4000
  388MOL0     C52288   4.209   9.506  -2.330  0.2986  1.2159  0.3048
  388MOL0    Cl52289   4.270   9.647  -2.237  0.1914  0.0931  0.1773
  388MOL0     C52290   3.487   9.116  -1.464 -0.0989 -0.8477  0.9046
  388MOL0     C52291   3.399   9.149  -1.362 -0.2140  0.5114  0.7367
  388MOL0     O52292   3.359   9.429  -1.218 -1.2921  0.5569  0.3661
  388MOL0     C52293   3.210   9.501  -1.011 -0.0681  0.9268  0.2909
  388MOL0     C52294   3.128   9.556  -0.913 -0.7870 -0.2224  0.7532
  388MOL0     N52295   2.709  10.011  -0.592 -0.4290 -1.0057 -0.9522
  388MOL0     N52296   2.673   9.970  -0.480 -0.1345  0.4991 -0.5825
  388MOL0     C52297   2.268  10.401   0.482 -0.4794 -0.5547  0.7123
  388MOL0     C52298   2.166  10.461   0.564 -0.3594 -0.3844 -0.2962
  388MOL0     C52299   1.887  10.755   0.777 -0.3001  0.8115 -0.5833
  388MOL0     C52300   1.757  10.723   0.736 -0.1883 -0.2238  0.1582
  388MOL0     C52301   1.648  10.773   0.809  0.4192 -0.3239  0.2158
  388MOL0     C52302   1.665  10.870   0.912  0.3185  1.0874  0.1166
  388MOL0     O52303   1.560  10.933   0.967 -0.3733 -0.0111 -0.3362
  388MOL0     C52304   1.425  10.890   0.960  0.3650 -0.1486 -0.6469
  388MOL0     C52305   1.326  10.983   1.034 -0.1557  0.5810  0.5440
  388MOL0     C52306   1.363  11.002   1.180 -0.3382 -0.0684 -0.7592
  388MOL0     C52307   1.473  11.109   1.206  0.1971  0.6397 -0.0465
  388MOL0     C52308   1.475  11.164   1.344  0.4019  0.0173 -0.3682
  388MOL0     C52309   1.488  11.202   1.458  0.2387 -0.5447 -0.1104
  388MOL0     C52310   1.797  10.908   0.942 -0.3055  0.6797 -0.0531
  388MOL0     C52311   1.912  10.855   0.884  0.9254 -0.3802 -0.1634
  388MOL0     C52312   2.039  10.916   0.924 -0.2170  1.1163 -0.2086
  388MOL0     H52313   1.970  10.603   0.345  0.6027  1.8697  0.3160
  388MOL0     H52314   2.130  10.475   0.185  3.8110  4.1687  0.2801
  388MOL0     H52315   2.394  10.516   0.188 -0.4631  0.3181  1.3414
  388MOL0     H52316   2.534  10.413   0.229  0.3109 -2.9055  0.2119
  388MOL0     H52317   2.469  10.429  -0.016  0.1868 -0.3754 -1.4199
  388MOL0     H52318   2.318  10.354   0.014  0.2970 -1.5459 -0.7282
  388MOL0     H52319   2.448  10.165   0.107 -0.7536  0.7641 -0.3819
  388MOL0     H52320   2.598  10.251   0.037  0.1969 -1.5456 -0.3461
  388MOL0     H52321   2.354  10.165  -0.127 -0.0570 -2.4913  1.2691
  388MOL0     H52322   2.514  10.229  -0.175  1.4763 -1.5986 -0.1428
  388MOL0     H52323   2.464   9.972  -0.033  3.6412  1.8354  0.9265
  388MOL0     H52324   2.442   9.977  -0.213  0.9428 -1.1651 -1.0562
  388MOL0     H52325   2.663  10.081  -0.223  1.8360 -1.4686 -1.7399
  388MOL0     H52326   2.687  10.030  -0.054  0.2295  0.3430  1.2545
  388MOL0     H52327   2.588   9.815  -0.253  1.5097 -0.7288 -1.6598
  388MOL0     H52328   2.693   9.793  -0.105 -0.6389  0.7947  1.7556
  388MOL0     H52329   2.879   9.902  -0.218  1.9710 -1.1737 -1.0817
  388MOL0     H52330   2.816   9.764  -0.297  0.5396 -0.9361  5.0188
  388MOL0     H52331   2.998   9.980  -0.436  0.4129  0.2334 -1.9953
  388MOL0     H52332   2.869  10.152  -0.750  1.6032 -0.7153 -0.2231
  388MOL0     H52333   3.027  10.092  -0.700  0.6261 -1.0695  1.1363
  388MOL0     H52334   2.798   9.945  -0.851 -0.1506  0.5091  0.8515
  388MOL0     H52335   2.967   9.960  -0.908  0.8660 -1.1674  0.0592
  388MOL0     H52336   2.850   9.782  -0.683  2.4605  1.4431  1.6232
  388MOL0     H52337   3.023   9.778  -0.746  0.8911 -0.5308 -0.4308
  388MOL0     H52338   2.922   9.736  -0.964 -1.1595 -0.9678 -0.2596
  388MOL0     H52339   2.767   9.718  -0.890  0.3469  0.8335 -1.1781
  388MOL0     H52340   2.836   9.444  -1.022 -2.2036 -1.8141  1.3286
  388MOL0     H52341   2.986   9.329  -1.201 -0.6775 -1.3890  1.0805
  388MOL0     H52342   3.144   9.292  -1.534  0.0011  0.0216 -0.1031
  388MOL0     H52343   3.278   9.217  -1.717 -1.9555  1.0278  0.7511
  388MOL0     H52344   3.492   9.190  -1.876 -3.1916  3.5669  0.2098
  388MOL0     H52345   3.521   9.320  -1.770  0.8171  0.5205 -1.2056
  388MOL0     H52346   3.748   9.278  -1.745 -3.0512  2.6064  0.7648
  388MOL0     H52347   3.751   9.135  -1.853 -2.5584 -0.9127  0.5507
  388MOL0     H52348   3.682   9.288  -2.045  1.7618 -0.6237 -1.2867
  388MOL0     H52349   3.702   9.427  -1.931  3.1130  0.8029  0.5427
  388MOL0     H52350   3.907   9.223  -2.020  2.9026 -0.1530  2.7621
  388MOL0     H52351   3.943   9.356  -1.919  0.4326 -1.8752 -0.5649
  388MOL0     H52352   3.867   9.525  -2.088  0.3289 -0.3315 -1.5484
  388MOL0     H52353   3.818   9.412  -2.207 -1.8072  0.7599  0.3206
  388MOL0     H52354   4.082   9.492  -2.086  0.5078 -0.2978 -0.5524
  388MOL0     H52355   4.084   9.328  -2.139 -4.2499 -1.6055  1.9819
  388MOL0     H52356   4.011   9.578  -2.315 -1.4198 -0.3800  2.0856
  388MOL0     H52357   4.016   9.416  -2.382  0.4387  1.2061 -1.6546
  388MOL0     H52358   4.264   9.418  -2.294  1.6133  1.7405 -0.3686
  388MOL0     H52359   4.226   9.521  -2.436  1.6557  5.0175  0.9149
  388MOL0     H52360   3.585   9.071  -1.445  0.1891 -0.7121 -0.2018
  388MOL0     H52361   3.423   9.116  -1.262 -0.1731  0.6241  0.7646
  388MOL0     H52362   3.314   9.532  -1.017 -0.5687  2.6146 -0.1134
  388MOL0     H52363   3.172   9.617  -0.835  1.0578 -1.7551  1.0079
  388MOL0     H52364   2.351  10.351   0.530  0.8458  2.2646  1.5468
  388MOL0     H52365   2.198  10.453   0.667  2.9516 -1.0539 -1.2579
  388MOL0     H52366   1.737  10.652   0.656  0.2777 -0.8884  0.6196
  388MOL0     H52367   1.551  10.739   0.776 -0.0944  2.1523 -1.0481
  388MOL0     H52368   1.424  10.786   0.996  0.7994 -0.3630 -1.2410
  388MOL0     H52369   1.387  10.892   0.858 -2.3937  0.8593  0.3031
  388MOL0     H52370   1.227  10.936   1.026  0.9229 -1.9269  1.0280
  388MOL0     H52371   1.315  11.076   0.978  0.6531  0.0288 -0.5680
  388MOL0     H52372   1.393  10.911   1.232  3.4542  1.1369 -0.5387
  388MOL0     H52373   1.272  11.028   1.236  0.8477 -0.4743  1.4832
  388MOL0     H52374   1.573  11.081   1.172  0.7886  0.2784  1.8744
  388MOL0     H52375   1.434  11.193   1.148 -2.2028 -0.5442 -0.2756
  388MOL0     H52376   1.486  11.242   1.558  1.6945  2.0878 -1.0477
  388MOL0     H52377   1.802  10.997   1.005  0.1130  0.0892  0.7808
  388MOL0     H52378   2.072  10.981   0.844  0.3349  0.2456 -0.7076
  388MOL0     H52379   2.031  10.980   1.012  3.4406 -2.3964  3.1334
  388MOL0     H52380   2.116  10.841   0.947  4.1694  5.2531  0.0579
  389MOL0     O52381   0.384   2.558   8.618  0.7358 -0.4766  0.0165
  389MOL0     C52382   0.328   2.672   8.616  0.2850 -0.5901 -0.1923
  389MOL0     O52383   0.332   2.761   8.510  0.6200  0.1095 -0.2686
  389MOL0     C52384   0.443   2.774   8.438  0.5030 -0.1234  0.6787
  389MOL0     C52385   0.466   2.699   8.318 -0.7474  0.1529 -0.4882
  389MOL0     C52386   0.587   2.718   8.256 -0.2755 -0.0769 -0.5315
  389MOL0     C52387   0.688   2.791   8.313 -0.9291 -0.1083  0.1924
  389MOL0     O52388   0.817   2.806   8.263  0.3438 -0.6959 -0.8554
  389MOL0     C52389   0.860   2.705   8.174 -0.3047  0.0885  0.5307
  389MOL0     C52390   1.013   2.718   8.153  0.4350 -0.1993 -0.4642
  389MOL0     C52391   1.070   2.584   8.125  0.4302  0.7946 -0.5219
  389MOL0     C52392   1.225   2.580   8.116  0.5292 -0.7496  0.1476
  389MOL0     C52393   1.270   2.445   8.113 -0.4826  0.8506  0.2104
  389MOL0     C52394   1.411   2.417   8.118 -0.4964  0.6233  0.0947
  389MOL0     C52395   1.436   2.265   8.080 -0.6765 -0.3100  0.2687
  389MOL0     C52396   1.442   2.181   8.206 -0.8160  0.2102 -0.6414
  389MOL0     N52397   1.494   2.052   8.167 -0.2479  0.0550  0.3630
  389MOL0     C52398   1.621   2.020   8.117 -1.1499  0.1328 -0.3553
  389MOL0     C52399   1.613   1.904   8.058 -0.0886  0.7843  0.1776
  389MOL0     C52400   1.717   1.826   7.986  1.1353 -0.7334  0.2500
  389MOL0     C52401   1.682   1.815   7.832  0.0393  0.4713  0.2739
  389MOL0     C52402   1.589   1.710   7.785 -0.1789  0.4896 -0.4727
  389MOL0     C52403   1.678   1.580   7.736  0.1761 -1.0787 -0.6076
  389MOL0     O52404   1.714   1.588   7.599 -0.5071 -0.7579  0.3430
  389MOL0     C52405   1.849   1.557   7.584  0.3752  0.5770 -0.1946
  389MOL0     C52406   1.890   1.422   7.554  0.7555 -0.1421 -0.0795
  389MOL0     C52407   2.024   1.392   7.539  1.0136 -0.2956  0.5576
  389MOL0     C52408   2.121   1.483   7.552 -1.0432 -0.4806 -0.3070
  389MOL0     C52409   2.261   1.445   7.515 -0.9180  0.1106  0.5215
  389MOL0     O52410   2.303   1.309   7.512  0.5685  0.1053 -0.3055
  389MOL0     C52411   2.438   1.266   7.494  0.0777  0.2666  0.0200
  389MOL0     C52412   2.522   1.337   7.415  0.0108 -0.5030  0.2088
  389MOL0     C52413   2.660   1.295   7.406  0.7977  0.4199 -0.1952
  389MOL0     C52414   2.709   1.185   7.469 -0.0466  0.2659 -0.1623
  389MOL0     O52415   2.836   1.126   7.455 -0.5808 -0.0239 -0.0232
  389MOL0     C52416   2.928   1.191   7.360  0.0878 -0.1605  1.2958
  389MOL0     C52417   3.066   1.141   7.390  1.0399 -0.1616  0.5597
  389MOL0     C52418   3.069   1.007   7.306  0.1581 -0.2019  0.3697
  389MOL0     C52419   3.111   1.016   7.160  0.1607 -0.8037  0.1530
  389MOL0     C52420   3.125   0.868   7.117 -0.4151  0.0366  1.1068
  389MOL0     C52421   2.980   0.800   7.099 -0.7189 -1.3365  0.4321
  389MOL0     C52422   3.002   0.675   7.012 -0.4757 -0.3260 -0.6846
  389MOL0     C52423   3.086   0.567   7.083 -0.4568 -0.2130  0.3518
  389MOL0    Cl52424   3.170   0.469   6.949 -0.1471 -0.0189 -0.5809
  389MOL0     C52425   2.619   1.113   7.545  0.2192  0.3371  0.0112
  389MOL0     C52426   2.481   1.146   7.556 -0.0052 -1.2652 -0.0595
  389MOL0     O52427   2.337   1.539   7.501  0.2386 -0.0204 -0.6468
  389MOL0     C52428   2.077   1.615   7.574  0.4538  0.3618  0.2208
  389MOL0     C52429   1.949   1.649   7.592 -0.2396  0.4975  0.0983
  389MOL0     N52430   1.479   1.866   8.077 -0.4458 -0.3535  0.8165
  389MOL0     N52431   1.411   1.946   8.143  0.5768  0.3785 -0.1971
  389MOL0     C52432   0.664   2.862   8.430 -0.1848  0.0480 -0.2156
  389MOL0     C52433   0.543   2.859   8.487  0.0075 -0.1298  0.2197
  389MOL0     C52434   0.251   2.701   8.750 -0.4133  0.1650 -0.1179
  389MOL0     C52435   0.158   2.814   8.750 -0.9770 -0.6834 -0.1971
  389MOL0     C52436   0.079   2.837   8.865 -0.1575 -0.1589  0.7028
  389MOL0     C52437   0.088   2.758   8.972  0.1994  0.4028  0.7113
  389MOL0     O52438   0.020   2.789   9.091  0.9607 -0.7555  0.3210
  389MOL0     C52439   0.053   2.715   9.214 -0.5369  0.1139  0.1015
  389MOL0     C52440  -0.033   2.586   9.220  0.2007 -0.1007  0.8431
  389MOL0     C52441  -0.089   2.562   9.360  0.1166 -0.4451  0.8284
  389MOL0     C52442  -0.157   2.423   9.369  0.2267  0.4945  0.0283
  389MOL0     C52443  -0.284   2.399   9.303 -0.3145 -0.0376  0.8725
  389MOL0     C52444  -0.378   2.373   9.241  0.6208  0.6070  0.5140
  389MOL0     C52445   0.176   2.647   8.965  0.4875 -0.3397  0.4539
  389MOL0     C52446   0.261   2.613   8.858 -0.2169 -0.3415 -0.3791
  389MOL0     C52447   0.354   2.498   8.880 -0.6451  0.4845 -0.3913
  389MOL0     H52448   0.393   2.643   8.261  1.0612 -2.0736 -0.7705
  389MOL0     H52449   0.607   2.668   8.162 -0.6226  1.8387 -1.6674
  389MOL0     H52450   0.825   2.604   8.200 -0.0129 -0.3251 -0.6646
  389MOL0     H52451   0.808   2.713   8.078  1.5444 -1.0165 -0.6150
  389MOL0     H52452   1.048   2.768   8.244 -0.4292 -2.1963  1.0329
  389MOL0     H52453   1.047   2.787   8.075 -0.0913  1.7038  0.9276
  389MOL0     H52454   1.040   2.563   8.022 -3.3446  4.0967 -0.3437
  389MOL0     H52455   1.038   2.506   8.196  1.0281 -3.5940 -4.5591
  389MOL0     H52456   1.260   2.639   8.031 -0.1171 -0.5313  0.0225
  389MOL0     H52457   1.274   2.630   8.200 -0.7401  2.9164 -1.0862
  389MOL0     H52458   1.231   2.400   8.205 -0.6461  0.2140 -0.1634
  389MOL0     H52459   1.232   2.391   8.025 -1.0031  1.8241 -0.1846
  389MOL0     H52460   1.458   2.483   8.046 -0.0353 -0.2342 -0.4063
  389MOL0     H52461   1.455   2.446   8.213 -0.2666 -0.3903  0.3162
  389MOL0     H52462   1.533   2.259   8.029 -1.0732  0.4209 -0.5975
  389MOL0     H52463   1.373   2.222   8.001  0.9937 -3.0294  0.2730
  389MOL0     H52464   1.513   2.219   8.278 -0.8751  1.2047 -1.0985
  389MOL0     H52465   1.352   2.158   8.265 -0.5738 -0.3731 -0.4886
  389MOL0     H52466   1.704   2.090   8.124 -0.9941 -0.0367 -0.5043
  389MOL0     H52467   1.809   1.885   7.982  1.3820 -1.1274 -2.8531
  389MOL0     H52468   1.730   1.724   8.024  1.4112 -0.7660  0.0704
  389MOL0     H52469   1.638   1.904   7.784 -3.3064 -0.5577  1.1471
  389MOL0     H52470   1.779   1.800   7.783 -1.0300  1.5016 -2.4011
  389MOL0     H52471   1.532   1.749   7.700  2.0385 -1.3237 -2.9453
  389MOL0     H52472   1.517   1.683   7.863 -1.7196 -0.4419 -2.1461
  389MOL0     H52473   1.603   1.501   7.743 -1.4494  0.5318  1.6226
  389MOL0     H52474   1.761   1.555   7.803 -1.2685 -3.5266  0.3728
  389MOL0     H52475   1.808   1.351   7.558  2.1815 -1.8919  3.8177
  389MOL0     H52476   2.037   1.295   7.493 -0.3792 -0.3839  0.2930
  389MOL0     H52477   2.495   1.425   7.357  2.3142 -1.7272 -3.0338
  389MOL0     H52478   2.728   1.356   7.347  4.6904 -2.7859  0.4878
  389MOL0     H52479   2.896   1.170   7.258 -0.0139  3.8461  0.3489
  389MOL0     H52480   2.930   1.298   7.379 -1.8573  0.1930 -0.2113
  389MOL0     H52481   3.129   1.220   7.349 -0.0121  0.2668 -0.2707
  389MOL0     H52482   3.080   1.124   7.497  1.6096  1.9710  0.8660
  389MOL0     H52483   3.142   0.944   7.357 -0.8035 -0.8519  0.9846
  389MOL0     H52484   2.969   0.962   7.315  0.0270  0.0780  0.3375
  389MOL0     H52485   3.204   1.073   7.147 -0.8893  1.5901  2.1431
  389MOL0     H52486   3.038   1.068   7.098 -1.9965 -0.9043  2.4422
  389MOL0     H52487   3.198   0.823   7.184  0.9220 -0.7960 -0.8249
  389MOL0     H52488   3.171   0.862   7.017  0.3807 -0.6987  1.5029
  389MOL0     H52489   2.932   0.777   7.195 -0.1449 -0.0533  1.0416
  389MOL0     H52490   2.909   0.869   7.052 -2.1540 -0.1999  3.9142
  389MOL0     H52491   3.051   0.701   6.918 -0.1760 -2.9754 -1.3326
  389MOL0     H52492   2.898   0.650   6.990 -0.6519  0.1062 -0.3576
  389MOL0     H52493   3.162   0.610   7.147 -1.3062  0.2713  1.0510
  389MOL0     H52494   3.014   0.507   7.140 -0.0126  0.3860  1.5702
  389MOL0     H52495   2.641   1.014   7.584  0.4253  0.0678 -0.7714
  389MOL0     H52496   2.410   1.078   7.603 -1.9524 -1.2405 -2.7164
  389MOL0     H52497   2.151   1.694   7.583 -0.1995  1.3746 -2.5644
  389MOL0     H52498   1.927   1.750   7.626  1.8522  0.1903  2.7184
  389MOL0     H52499   0.740   2.920   8.482  0.7086 -1.8284  0.6674
  389MOL0     H52500   0.519   2.918   8.576  2.0509 -0.3730  0.9913
  389MOL0     H52501   0.149   2.895   8.679  0.1180  1.3283  1.8352
  389MOL0     H52502   0.031   2.933   8.852 -0.7361 -0.4082  0.9664
  389MOL0     H52503   0.041   2.776   9.304  2.6877 -1.9792  2.1348
  389MOL0     H52504   0.160   2.692   9.221 -0.5318 -0.3943 -1.3998
  389MOL0     H52505   0.017   2.499   9.175 -0.1164  0.8894 -1.5593
  389MOL0     H52506  -0.127   2.600   9.166 -0.4720 -1.2846  1.6452
  389MOL0     H52507  -0.160   2.639   9.392 -0.4449 -0.0861 -1.1509
  389MOL0     H52508  -0.014   2.563   9.440 -0.5340  1.1458  1.4702
  389MOL0     H52509  -0.075   2.362   9.329  0.8125  0.4175  1.2942
  389MOL0     H52510  -0.177   2.395   9.473  1.3439 -2.1718 -0.3967
  389MOL0     H52511  -0.472   2.342   9.201  1.1016 -1.8537  1.1186
  389MOL0     H52512   0.180   2.568   9.039 -1.9038 -3.0458 -2.0030
  389MOL0     H52513   0.333   2.421   8.806  3.3046 -0.8878 -0.3150
  389MOL0     H52514   0.460   2.524   8.865 -0.4559 -1.2318 -2.6899
  389MOL0     H52515   0.353   2.451   8.978  3.2584  0.9216  0.0528
  390MOL0     O52516   1.818   3.934   0.167 -0.3816 -0.9021 -0.5357
  390MOL0     C52517   1.698   3.912   0.179  0.8338  0.4916 -0.1647
  390MOL0     O52518   1.612   3.878   0.075 -0.0042  0.3588 -0.1348
  390MOL0     C52519   1.678   3.849  -0.037  0.0006 -0.1173 -0.6194
  390MOL0     C52520   1.703   3.931  -0.147  0.5901 -0.0603 -0.4151
  390MOL0     C52521   1.789   3.891  -0.251 -0.2534 -0.7228 -0.1443
  390MOL0     C52522   1.843   3.764  -0.246  0.2892  0.6690  0.5813
  390MOL0     O52523   1.926   3.709  -0.347 -0.3596 -0.4391  0.3134
  390MOL0     C52524   2.020   3.795  -0.420  0.1475 -0.9729 -0.1949
  390MOL0     C52525   2.133   3.707  -0.463  0.1423 -0.2079  0.6566
  390MOL0     C52526   2.218   3.659  -0.341 -0.0356 -0.4117 -0.1620
  390MOL0     C52527   2.368   3.653  -0.378  0.9398  0.4021  1.4614
  390MOL0     C52528   2.461   3.655  -0.265 -0.8023 -0.9180  0.0286
  390MOL0     C52529   2.606   3.619  -0.313 -0.2346 -0.5642 -0.4324
  390MOL0     C52530   2.663   3.695  -0.432  0.1279 -0.5270  0.8356
  390MOL0     C52531   2.810   3.706  -0.406 -0.1270  0.2828  0.0625
  390MOL0     N52532   2.891   3.755  -0.517 -0.1509  0.2135  0.1319
  390MOL0     C52533   2.890   3.878  -0.589 -0.6955  0.0723 -0.4554
  390MOL0     C52534   2.991   3.861  -0.677  0.0843 -0.2162  0.6617
  390MOL0     C52535   3.067   3.968  -0.753 -0.4764 -0.6469  0.2379
  390MOL0     C52536   3.131   4.066  -0.653  0.3100  0.1435 -0.2022
  390MOL0     C52537   3.233   4.009  -0.569 -0.0519 -0.2553 -0.4518
  390MOL0     C52538   3.364   4.001  -0.636  0.1439  0.2591  0.1307
  390MOL0     O52539   3.459   3.933  -0.552 -0.7915  0.3183  0.8129
  390MOL0     C52540   3.453   3.795  -0.538 -0.3129  0.8699  0.2597
  390MOL0     C52541   3.378   3.704  -0.612  0.0077  0.0520 -0.3822
  390MOL0     C52542   3.376   3.566  -0.585  0.4042 -0.6369  0.6282
  390MOL0     C52543   3.440   3.511  -0.473 -0.5440  0.3066 -0.3660
  390MOL0     C52544   3.421   3.373  -0.428  0.7094 -0.1136 -0.3833
  390MOL0     O52545   3.342   3.284  -0.505 -0.4186 -0.0496 -0.0538
  390MOL0     C52546   3.316   3.156  -0.476 -0.0825 -0.0144 -0.2554
  390MOL0     C52547   3.207   3.101  -0.539 -0.1978  0.3148 -0.2823
  390MOL0     C52548   3.191   2.958  -0.541  0.0894  0.0112 -0.2196
  390MOL0     C52549   3.293   2.884  -0.478  0.8008  0.1725 -0.9326
  390MOL0     O52550   3.317   2.752  -0.505 -0.2791 -0.0287 -0.9903
  390MOL0     C52551   3.222   2.655  -0.469  1.2677 -0.2851  1.0386
  390MOL0     C52552   3.258   2.519  -0.545 -0.2640 -0.2444 -0.4441
  390MOL0     C52553   3.246   2.523  -0.699 -0.4255  0.1129 -1.0800
  390MOL0     C52554   3.296   2.385  -0.754  0.1024 -0.5574 -0.3067
  390MOL0     C52555   3.292   2.383  -0.913  0.1378 -0.3198 -0.3759
  390MOL0     C52556   3.338   2.245  -0.973 -0.2445  1.2221 -0.6740
  390MOL0     C52557   3.244   2.129  -0.932  0.4993  0.4256 -0.8694
  390MOL0     C52558   3.238   2.015  -1.039 -0.3315 -0.0682 -0.4518
  390MOL0    Cl52559   3.109   1.893  -1.023  0.2010  0.0825  0.0282
  390MOL0     C52560   3.390   2.940  -0.402 -0.9128  0.1058  1.4133
  390MOL0     C52561   3.404   3.077  -0.403 -0.0065 -0.3329  0.0144
  390MOL0     O52562   3.438   3.357  -0.308 -0.6185 -0.4538  0.3577
  390MOL0     C52563   3.503   3.608  -0.390 -0.7045  0.0473  0.5469
  390MOL0     C52564   3.520   3.746  -0.422  0.0965  0.8567 -0.4309
  390MOL0     N52565   3.043   3.730  -0.661 -0.0628  0.2682  0.0049
  390MOL0     N52566   2.982   3.663  -0.568  0.3392 -0.4779  0.1830
  390MOL0     C52567   1.792   3.669  -0.158  0.0583 -0.4075 -0.4195
  390MOL0     C52568   1.717   3.711  -0.047  0.5413 -0.1829  0.7803
  390MOL0     C52569   1.639   3.932   0.315 -0.3597  0.7790 -0.1176
  390MOL0     C52570   1.512   3.865   0.330  0.6214  0.2852  0.2778
  390MOL0     C52571   1.427   3.887   0.440  0.1605  0.1694 -0.3984
  390MOL0     C52572   1.470   3.965   0.546 -0.0450 -0.3098 -0.5732
  390MOL0     O52573   1.384   3.985   0.652 -0.3446 -0.0843  0.1865
  390MOL0     C52574   1.257   3.924   0.655 -0.8342 -0.4545 -0.6387
  390MOL0     C52575   1.154   4.001   0.574 -0.2605 -0.1006 -0.2271
  390MOL0     C52576   1.013   4.016   0.642 -1.0324  0.3180 -0.0870
  390MOL0     C52577   0.938   4.147   0.606 -0.3161 -0.4635 -0.5089
  390MOL0     C52578   0.912   4.131   0.464 -0.1775  0.7706 -0.4277
  390MOL0     C52579   0.877   4.125   0.351  0.4040  0.2164 -0.1325
  390MOL0     C52580   1.597   4.018   0.540  0.1886  0.6188 -0.2802
  390MOL0     C52581   1.677   4.011   0.426  0.6029 -0.1573  0.4472
  390MOL0     C52582   1.793   4.097   0.416 -0.8780 -0.5210  0.0447
  390MOL0     H52583   1.672   4.035  -0.139 -1.1676 -0.6575  1.8818
  390MOL0     H52584   1.817   3.964  -0.326  1.4159 -1.3343 -0.1617
  390MOL0     H52585   1.963   3.831  -0.507 -2.1755  0.4971  1.8091
  390MOL0     H52586   2.064   3.877  -0.363 -2.2004  0.7076 -0.6292
  390MOL0     H52587   2.184   3.771  -0.536 -2.3392  0.9833 -0.1478
  390MOL0     H52588   2.096   3.613  -0.505 -0.1439 -1.5743  3.7059
  390MOL0     H52589   2.192   3.555  -0.320  2.0849 -0.5911  1.9471
  390MOL0     H52590   2.199   3.724  -0.255  1.2644  0.5039 -0.5352
  390MOL0     H52591   2.390   3.561  -0.432  2.4684  0.2118  2.3656
  390MOL0     H52592   2.390   3.742  -0.436  3.6477 -1.2944 -0.3175
  390MOL0     H52593   2.466   3.757  -0.226  1.0898 -0.5405 -1.0471
  390MOL0     H52594   2.418   3.586  -0.192 -2.6168  0.6597  0.5337
  390MOL0     H52595   2.678   3.619  -0.231  1.5585  0.0437 -1.9545
  390MOL0     H52596   2.611   3.514  -0.341  0.2513 -0.6305 -0.1010
  390MOL0     H52597   2.625   3.797  -0.436  1.1804 -0.0304  2.5535
  390MOL0     H52598   2.638   3.643  -0.525  0.2164  0.9788 -0.0664
  390MOL0     H52599   2.822   3.775  -0.322  4.1590 -2.8905  2.4750
  390MOL0     H52600   2.849   3.611  -0.370 -0.6205  0.4992  1.2155
  390MOL0     H52601   2.840   3.972  -0.566 -1.6552 -0.3920 -0.6198
  390MOL0     H52602   3.138   3.925  -0.825  2.2142  0.1396  2.2513
  390MOL0     H52603   2.987   4.014  -0.812 -0.7371 -1.7806 -0.3249
  390MOL0     H52604   3.174   4.150  -0.708  1.7632 -1.7715 -2.1723
  390MOL0     H52605   3.059   4.118  -0.590 -2.3894 -1.5380 -1.7295
  390MOL0     H52606   3.193   3.919  -0.523 -1.1362 -0.2751 -1.4120
  390MOL0     H52607   3.249   4.077  -0.484  1.8681  1.3154 -1.9743
  390MOL0     H52608   3.403   4.099  -0.665  0.9776 -0.6825 -2.1201
  390MOL0     H52609   3.360   3.936  -0.724 -2.2352 -2.8998  2.3471
  390MOL0     H52610   3.321   3.739  -0.697 -1.0040  3.1717  1.4114
  390MOL0     H52611   3.326   3.495  -0.651  0.9571  1.1242 -1.8457
  390MOL0     H52612   3.151   3.171  -0.601 -0.4028  2.5491  2.2623
  390MOL0     H52613   3.103   2.921  -0.592 -0.0076  0.4098 -0.3481
  390MOL0     H52614   3.218   2.633  -0.362  0.2073 -1.8404  0.7063
  390MOL0     H52615   3.123   2.691  -0.497  1.0457 -1.1994  0.6130
  390MOL0     H52616   3.366   2.513  -0.526 -0.2390 -0.3293 -0.6038
  390MOL0     H52617   3.195   2.436  -0.512 -1.4394 -0.5540 -3.1943
  390MOL0     H52618   3.142   2.536  -0.732  0.5276 -0.2786 -4.6258
  390MOL0     H52619   3.303   2.607  -0.737  0.1364  0.6927  0.9320
  390MOL0     H52620   3.241   2.302  -0.709  0.0732 -0.8441 -0.8594
  390MOL0     H52621   3.402   2.378  -0.728 -0.6966  0.4323  4.0017
  390MOL0     H52622   3.359   2.457  -0.958 -0.2427  0.5224  0.4114
  390MOL0     H52623   3.188   2.412  -0.935  0.1355  0.1767  0.2659
  390MOL0     H52624   3.351   2.246  -1.082  1.0730 -0.4794 -0.5681
  390MOL0     H52625   3.436   2.217  -0.933 -1.0263  0.3887  0.7482
  390MOL0     H52626   3.143   2.168  -0.916  0.9601  1.2864  0.0570
  390MOL0     H52627   3.266   2.071  -0.842  1.8779 -0.9817 -2.0467
  390MOL0     H52628   3.245   2.062  -1.137  0.7871  1.6647  0.3951
  390MOL0     H52629   3.329   1.955  -1.027 -0.0028  0.8446  2.7795
  390MOL0     H52630   3.452   2.880  -0.336  0.7927  0.4901  0.2094
  390MOL0     H52631   3.488   3.123  -0.352  1.8041 -2.6398 -0.6938
  390MOL0     H52632   3.546   3.589  -0.292  0.9480  3.2848  0.6116
  390MOL0     H52633   3.571   3.812  -0.353 -2.0143 -0.7251  2.9118
  390MOL0     H52634   1.819   3.566  -0.180  1.0179 -0.5226  1.1933
  390MOL0     H52635   1.673   3.643   0.026 -3.5069  0.6065 -0.6392
  390MOL0     H52636   1.468   3.810   0.248  1.7720  0.1760 -0.2736
  390MOL0     H52637   1.327   3.847   0.428 -0.4996  2.1291 -1.9433
  390MOL0     H52638   1.221   3.923   0.758 -0.2427 -6.7657 -0.0939
  390MOL0     H52639   1.265   3.818   0.632 -2.1867 -0.7881  0.3078
  390MOL0     H52640   1.150   3.958   0.473  2.1692  1.3075 -1.0055
  390MOL0     H52641   1.192   4.102   0.559  1.8730 -1.2388 -3.6749
  390MOL0     H52642   1.023   4.009   0.751 -4.7342 -3.0585  0.2573
  390MOL0     H52643   0.947   3.930   0.627  0.2987 -0.5382 -1.2994
  390MOL0     H52644   0.848   4.155   0.667  1.1760  1.6254  1.5810
  390MOL0     H52645   0.983   4.242   0.635 -2.6835 -0.0904  2.3303
  390MOL0     H52646   0.839   4.135   0.252 -3.2636  2.0621  1.2940
  390MOL0     H52647   1.612   4.097   0.613 -0.7004 -0.8226  1.5210
  390MOL0     H52648   1.882   4.035   0.402 -0.6013 -0.0261 -0.3942
  390MOL0     H52649   1.790   4.169   0.334  2.6229 -1.0014 -0.6747
  390MOL0     H52650   1.806   4.144   0.514  0.2367  0.1488 -0.4003
  391MOL0     O52651   3.090   8.226   1.428  0.9434 -0.5212  0.7686
  391MOL0     C52652   3.085   8.107   1.453 -0.1077 -1.0601 -0.2495
  391MOL0     O52653   3.187   8.041   1.516  0.0377 -0.2661  0.1846
  391MOL0     C52654   3.292   8.115   1.566  0.1416 -0.9549 -0.2882
  391MOL0     C52655   3.278   8.230   1.649  0.3972 -0.6407  0.3742
  391MOL0     C52656   3.383   8.305   1.675 -0.8143 -0.2900 -0.2041
  391MOL0     C52657   3.506   8.275   1.636  0.0415 -0.7189  0.1619
  391MOL0     O52658   3.602   8.371   1.664 -0.4600 -0.7435 -0.4375
  391MOL0     C52659   3.747   8.343   1.673  0.1725  0.0923  0.9557
  391MOL0     C52660   3.829   8.477   1.646  0.0080  0.0877  0.1109
  391MOL0     C52661   3.783   8.537   1.515  0.4537  0.2248 -1.3348
  391MOL0     C52662   3.833   8.676   1.490  0.1226 -0.2503 -0.4219
  391MOL0     C52663   3.816   8.720   1.351 -0.1064 -0.1836  0.4716
  391MOL0     C52664   3.946   8.721   1.260  0.3668  0.1594  0.3412
  391MOL0     C52665   3.987   8.582   1.213 -0.5672  0.1088 -1.0138
  391MOL0     C52666   3.893   8.536   1.106  0.4498  1.1190  0.0503
  391MOL0     N52667   3.929   8.412   1.049  0.2821  0.0601  1.2745
  391MOL0     C52668   3.994   8.311   1.113  0.5191  0.7776 -1.0581
  391MOL0     C52669   4.037   8.225   1.011 -0.1196  0.0402  0.1774
  391MOL0     C52670   4.127   8.099   1.004  0.2536  0.0378 -0.1124
  391MOL0     C52671   4.252   8.123   0.919  0.4147  0.4134 -0.0252
  391MOL0     C52672   4.238   8.044   0.788 -0.4994  0.0909  0.0288
  391MOL0     C52673   4.296   7.903   0.792  0.2443  0.4095  0.0483
  391MOL0     O52674   4.430   7.924   0.817  0.2673 -0.2207 -0.0242
  391MOL0     C52675   4.513   7.825   0.839  1.3288 -0.2562  1.4309
  391MOL0     C52676   4.488   7.691   0.811 -0.6833  0.1229  0.3190
  391MOL0     C52677   4.586   7.601   0.849  0.6005 -0.2285 -0.2038
  391MOL0     C52678   4.712   7.643   0.888 -0.3679 -0.2536 -0.5118
  391MOL0     C52679   4.807   7.533   0.918 -0.3444 -1.0177 -0.3778
  391MOL0     O52680   4.754   7.404   0.922 -0.3930  0.2776 -0.4125
  391MOL0     C52681   4.820   7.287   0.941  0.2293 -1.2853 -1.1462
  391MOL0     C52682   4.739   7.189   0.985 -0.4992  0.6064  0.5025
  391MOL0     C52683   4.782   7.056   0.999 -0.5495 -0.2190  0.1693
  391MOL0     C52684   4.920   7.032   0.979  0.4004 -0.8920  0.0269
  391MOL0     O52685   4.991   6.914   1.016  0.6180 -0.0184 -0.5041
  391MOL0     C52686   4.917   6.793   0.996  0.0548  0.0840 -0.4732
  391MOL0     C52687   4.992   6.658   1.030 -0.8721 -0.5314 -0.3935
  391MOL0     C52688   5.024   6.642   1.182  0.7959 -0.8549 -0.0998
  391MOL0     C52689   5.116   6.524   1.203 -0.5129  0.6927  0.7468
  391MOL0     C52690   5.149   6.497   1.353 -0.1731 -0.7555 -0.5578
  391MOL0     C52691   5.253   6.390   1.372 -0.0108  0.0725 -0.0766
  391MOL0     C52692   5.311   6.364   1.509  0.4618  0.4707 -0.0371
  391MOL0     C52693   5.249   6.230   1.576 -0.3494 -0.8412 -0.0857
  391MOL0    Cl52694   5.318   6.235   1.740  0.3593 -0.0286 -0.2391
  391MOL0     C52695   5.009   7.135   0.947  0.3917  0.2209  1.6471
  391MOL0     C52696   4.958   7.263   0.932 -0.8315  0.4500  0.6417
  391MOL0     O52697   4.923   7.560   0.955  0.9235  0.8166  0.0051
  391MOL0     C52698   4.734   7.780   0.912 -0.3861 -0.4441 -0.4557
  391MOL0     C52699   4.640   7.872   0.872 -0.1854  0.2595  0.4949
  391MOL0     N52700   3.982   8.274   0.896  0.0472 -0.3367  0.4889
  391MOL0     N52701   3.922   8.382   0.911 -0.0306  0.1212  1.2039
  391MOL0     C52702   3.531   8.154   1.575  0.3898 -0.1432 -0.1660
  391MOL0     C52703   3.422   8.073   1.535 -0.9938  0.2759 -1.3662
  391MOL0     C52704   2.966   8.031   1.461  0.7645  0.3307 -0.3512
  391MOL0     C52705   2.956   7.918   1.541  0.2936  0.4961  0.1067
  391MOL0     C52706   2.859   7.821   1.538  0.2301  0.7592 -0.6822
  391MOL0     C52707   2.759   7.832   1.447 -0.8694  1.0481  0.5672
  391MOL0     O52708   2.637   7.756   1.466 -0.1748  0.1376  0.6115
  391MOL0     C52709   2.518   7.789   1.392  0.9682  0.1432 -1.5365
  391MOL0     C52710   2.405   7.688   1.426  1.1429  0.0829 -0.1297
  391MOL0     C52711   2.262   7.746   1.429 -0.4624 -0.3099  0.7192
  391MOL0     C52712   2.169   7.652   1.520 -1.1269 -0.4048  0.1262
  391MOL0     C52713   2.196   7.639   1.667 -0.1020  0.5783  0.4668
  391MOL0     C52714   2.236   7.630   1.780 -0.4739  0.4655 -0.0598
  391MOL0     C52715   2.772   7.934   1.345  1.0303  0.8130 -0.0054
  391MOL0     C52716   2.876   8.032   1.354 -0.4583 -0.0826 -0.1321
  391MOL0     C52717   2.877   8.139   1.245 -0.3932  0.0315 -0.3689
  391MOL0     H52718   3.181   8.263   1.686  0.0708 -3.3112  2.1984
  391MOL0     H52719   3.378   8.402   1.724 -0.3823 -0.8675  1.0170
  391MOL0     H52720   3.780   8.297   1.766  2.6315  2.3353  1.3054
  391MOL0     H52721   3.773   8.266   1.600 -0.8944 -0.0392  0.6913
  391MOL0     H52722   3.937   8.467   1.658 -0.0637  0.0027  0.7176
  391MOL0     H52723   3.799   8.545   1.726  2.8662  0.3588  1.0543
  391MOL0     H52724   3.675   8.548   1.502  0.3848 -0.3238 -1.2532
  391MOL0     H52725   3.809   8.483   1.423 -0.3232  2.0744 -2.7172
  391MOL0     H52726   3.764   8.730   1.556  0.9832 -0.4644  0.6730
  391MOL0     H52727   3.927   8.700   1.540 -0.9809  2.0374  0.7636
  391MOL0     H52728   3.737   8.676   1.291  0.2011 -2.3860  1.5843
  391MOL0     H52729   3.796   8.828   1.351  1.2764  0.1433 -1.6712
  391MOL0     H52730   3.932   8.776   1.167 -4.3026  0.5262  1.0106
  391MOL0     H52731   4.029   8.770   1.310  1.3215  0.4603 -1.4599
  391MOL0     H52732   3.981   8.522   1.304 -1.9548  2.5186  0.5916
  391MOL0     H52733   4.091   8.591   1.179  0.4676 -0.4808  1.7381
  391MOL0     H52734   3.799   8.504   1.153  0.1113 -1.4852 -2.1335
  391MOL0     H52735   3.887   8.604   1.021 -0.8164 -1.6713 -2.2517
  391MOL0     H52736   4.014   8.300   1.219 -0.2088 -1.1827 -1.0926
  391MOL0     H52737   4.152   8.066   1.105 -0.9698  1.0454  0.5582
  391MOL0     H52738   4.054   8.029   0.963 -0.2009  2.1558 -3.3350
  391MOL0     H52739   4.262   8.231   0.905  0.0396  0.8482  2.5800
  391MOL0     H52740   4.330   8.075   0.978 -0.9052 -2.8253 -0.6668
  391MOL0     H52741   4.266   8.106   0.702  0.5255  0.4945  0.6423
  391MOL0     H52742   4.131   8.027   0.770  0.2066 -2.9885 -2.0689
  391MOL0     H52743   4.270   7.847   0.702 -1.3780  2.3631 -0.7855
  391MOL0     H52744   4.262   7.856   0.884  0.1301  2.2061  0.9708
  391MOL0     H52745   4.404   7.648   0.756  0.2607 -0.5513 -0.6462
  391MOL0     H52746   4.562   7.498   0.825  2.7743 -0.6210 -0.9320
  391MOL0     H52747   4.635   7.216   1.001  0.0671  2.6152  0.9705
  391MOL0     H52748   4.719   6.978   1.040  1.4661  0.0076  4.1842
  391MOL0     H52749   4.828   6.800   1.059 -0.2306 -0.0702 -0.8537
  391MOL0     H52750   4.892   6.786   0.889  0.0003  0.1349 -0.4633
  391MOL0     H52751   4.932   6.576   0.991 -0.6339 -0.0397 -1.8357
  391MOL0     H52752   5.091   6.649   0.983  0.6814  0.2028  2.4939
  391MOL0     H52753   5.068   6.737   1.214  4.8584 -2.6588  0.2948
  391MOL0     H52754   4.927   6.626   1.230 -0.6398  2.0279 -1.8027
  391MOL0     H52755   5.206   6.538   1.142  0.2076  1.4283  1.9425
  391MOL0     H52756   5.074   6.435   1.154  3.9158 -0.6374 -1.1695
  391MOL0     H52757   5.057   6.458   1.395 -2.7510  2.8026 -2.3161
  391MOL0     H52758   5.176   6.592   1.402  1.2292 -2.1786  1.6011
  391MOL0     H52759   5.196   6.308   1.328  0.2884 -1.0637  1.5865
  391MOL0     H52760   5.340   6.415   1.311  0.5353 -1.5880 -0.0387
  391MOL0     H52761   5.298   6.449   1.576  0.2431  0.6774 -0.3393
  391MOL0     H52762   5.418   6.346   1.494  0.6783  3.1788 -2.8248
  391MOL0     H52763   5.140   6.237   1.577 -0.3111 -0.2518  0.7990
  391MOL0     H52764   5.286   6.147   1.514  2.1140  3.2098 -4.8711
  391MOL0     H52765   5.116   7.117   0.949  0.1563 -1.8663 -0.3654
  391MOL0     H52766   5.034   7.340   0.924  1.4101 -1.6268  0.9379
  391MOL0     H52767   4.823   7.817   0.961 -0.5545 -3.3352  2.2910
  391MOL0     H52768   4.661   7.976   0.890 -0.7104  0.5831 -0.6364
  391MOL0     H52769   3.632   8.117   1.570 -0.0332 -1.2880 -0.6180
  391MOL0     H52770   3.435   7.977   1.486 -3.2029 -0.6446 -0.2885
  391MOL0     H52771   3.033   7.914   1.617  1.2948 -0.3323 -0.9083
  391MOL0     H52772   2.856   7.742   1.612 -0.0228  1.1184 -0.3015
  391MOL0     H52773   2.533   7.796   1.283  0.0792  3.2306 -1.5667
  391MOL0     H52774   2.489   7.886   1.433 -0.4674 -0.5384 -0.8558
  391MOL0     H52775   2.424   7.637   1.521  2.0721  4.3191  2.2769
  391MOL0     H52776   2.406   7.617   1.343  0.6009  0.2662 -0.3006
  391MOL0     H52777   2.217   7.744   1.330 -1.8981 -2.1478  1.3523
  391MOL0     H52778   2.261   7.847   1.471  2.7220  1.2536 -2.4106
  391MOL0     H52779   2.068   7.695   1.513 -0.3548  1.8956  1.9480
  391MOL0     H52780   2.157   7.554   1.472 -5.3120  1.0263 -2.3710
  391MOL0     H52781   2.271   7.618   1.880 -2.0712  1.2721  0.6438
  391MOL0     H52782   2.697   7.940   1.266  0.5569  1.0424  0.4573
  391MOL0     H52783   2.971   8.126   1.190  1.6767  0.8857  2.7458
  391MOL0     H52784   2.791   8.142   1.178  0.0317  0.7479 -0.8990
  391MOL0     H52785   2.874   8.239   1.289  1.5612 -0.3429  0.7524
  392MOL0     O52786  10.045  11.133   8.088  0.5957  0.7074 -0.1328
  392MOL0     C52787  10.015  11.031   8.032 -0.7147 -1.1484  0.2210
  392MOL0     O52788   9.914  11.029   7.934 -0.0260 -0.2936 -0.6188
  392MOL0     C52789   9.826  11.135   7.950  0.8882  0.3382  0.4065
  392MOL0     C52790   9.732  11.150   8.055  0.2801 -0.4993  1.0119
  392MOL0     C52791   9.649  11.266   8.051  0.0025 -0.4603 -0.7340
  392MOL0     C52792   9.663  11.364   7.951  1.3965 -0.0462 -0.1296
  392MOL0     O52793   9.588  11.482   7.947 -0.5310 -0.7149  0.2627
  392MOL0     C52794   9.505  11.506   8.060  0.5353  0.4663  0.0903
  392MOL0     C52795   9.368  11.432   8.063  0.7145  0.7221  0.1458
  392MOL0     C52796   9.290  11.445   8.191  0.9811 -0.3133 -0.9280
  392MOL0     C52797   9.375  11.375   8.304 -0.6322  0.4921 -0.9962
  392MOL0     C52798   9.307  11.403   8.445  0.1217  0.1585  0.4702
  392MOL0     C52799   9.396  11.339   8.561  0.5809  0.7603  0.6916
  392MOL0     C52800   9.319  11.367   8.691 -0.1168  0.9184  0.0569
  392MOL0     C52801   9.409  11.341   8.809  0.4588 -0.4977 -0.4547
  392MOL0     N52802   9.447  11.199   8.826  0.2110  0.7598 -0.1952
  392MOL0     C52803   9.357  11.098   8.847 -0.0998  0.7466 -0.4546
  392MOL0     C52804   9.445  10.998   8.887  0.3712 -0.1815 -0.1048
  392MOL0     C52805   9.411  10.856   8.909 -0.4887 -1.3589  1.0375
  392MOL0     C52806   9.424  10.809   9.055  0.7292  1.0328 -0.1942
  392MOL0     C52807   9.361  10.674   9.061 -0.5132 -0.6590  0.0830
  392MOL0     C52808   9.370  10.603   9.199 -0.0172 -0.2765  0.8219
  392MOL0     O52809   9.294  10.666   9.293  0.5877  0.2710 -0.5656
  392MOL0     C52810   9.276  10.595   9.410  0.5990 -0.1931  0.4749
  392MOL0     C52811   9.350  10.482   9.459  0.1517 -0.0138  0.1681
  392MOL0     C52812   9.318  10.418   9.579 -0.0928 -0.3469  0.3646
  392MOL0     C52813   9.203  10.455   9.652 -0.5617 -0.3158  0.1818
  392MOL0     C52814   9.178  10.404   9.789  0.9660 -0.4242  0.5124
  392MOL0     O52815   9.283  10.377   9.866  0.2003 -0.3900 -0.2109
  392MOL0     C52816   9.251  10.287   9.961  0.1951  0.7269  0.8458
  392MOL0     C52817   9.224  10.155   9.933 -0.4970 -0.2923 -0.1433
  392MOL0     C52818   9.218  10.058  10.037  0.2005 -0.1347 -0.0704
  392MOL0     C52819   9.236  10.096  10.169 -0.4094 -0.3670  1.0494
  392MOL0     O52820   9.242   9.998  10.254  0.4292  0.6335 -0.6287
  392MOL0     C52821   9.186  10.034  10.382  1.0917  0.2525 -0.4394
  392MOL0     C52822   9.142   9.911  10.462 -0.1373 -0.4677  0.0724
  392MOL0     C52823   9.109   9.942  10.609 -0.2500  0.2714 -0.0491
  392MOL0     C52824   9.109   9.817  10.694  0.0353 -0.1436  0.5203
  392MOL0     C52825   9.065   9.853  10.842 -0.2724  0.4028  0.4560
  392MOL0     C52826   9.171   9.921  10.923  0.4935 -0.5782  0.2311
  392MOL0     C52827   9.117   9.988  11.050  0.0400 -0.0595 -0.2686
  392MOL0     C52828   9.196  10.097  11.092 -0.1118  0.1807  0.7503
  392MOL0    Cl52829   9.132  10.148  11.254  0.4217 -0.1108  0.0938
  392MOL0     C52830   9.266  10.226  10.195  0.5656  0.6088 -0.8778
  392MOL0     C52831   9.278  10.318  10.093 -0.6909  0.0613  0.1218
  392MOL0     O52832   9.060  10.400   9.832 -0.8022  0.3989  0.9950
  392MOL0     C52833   9.132  10.564   9.608 -0.4962 -0.0787 -0.4936
  392MOL0     C52834   9.169  10.631   9.492 -0.3856  0.5293 -0.4648
  392MOL0     N52835   9.576  11.043   8.888  1.0054  1.0845  0.5842
  392MOL0     N52836   9.579  11.159   8.833 -0.4718 -0.0602  0.5082
  392MOL0     C52837   9.764  11.350   7.858 -0.4303 -0.8767  0.0597
  392MOL0     C52838   9.843  11.234   7.856  0.0479 -0.7012 -0.1338
  392MOL0     C52839  10.079  10.899   8.052 -0.6260  0.1370 -0.3444
  392MOL0     C52840  10.024  10.784   7.984 -0.5100  0.4157 -0.4691
  392MOL0     C52841  10.092  10.659   8.005  0.3660 -0.0369  1.0596
  392MOL0     C52842  10.206  10.644   8.081  0.0161 -0.2217  0.4393
  392MOL0     O52843  10.237  10.521   8.123 -0.6009  0.3521  0.1886
  392MOL0     C52844  10.338  10.483   8.222  0.2564  0.3418 -0.2319
  392MOL0     C52845  10.390  10.337   8.234 -0.2963  0.3783  0.3757
  392MOL0     C52846  10.414  10.285   8.098 -0.2044  0.2414  1.1763
  392MOL0     C52847  10.491  10.147   8.093  0.8663 -0.7112 -0.2637
  392MOL0     C52848  10.400  10.038   8.106  0.7077  0.0105  0.4432
  392MOL0     C52849  10.315   9.948   8.116  0.0119 -0.1765 -0.0506
  392MOL0     C52850  10.267  10.757   8.132 -0.0789  0.5626 -0.3322
  392MOL0     C52851  10.206  10.883   8.120  0.3084 -0.1361 -0.4212
  392MOL0     C52852  10.291  10.997   8.174 -0.7845 -0.3825  0.4209
  392MOL0     H52853   9.713  11.072   8.127  0.2662 -1.3784  0.0802
  392MOL0     H52854   9.575  11.276   8.131  1.9335 -3.0215  1.5821
  392MOL0     H52855   9.568  11.499   8.149  2.0886  1.3411 -0.8938
  392MOL0     H52856   9.481  11.612   8.050 -0.6674  0.0570 -2.3353
  392MOL0     H52857   9.392  11.325   8.056  2.5684  1.0722  0.6524
  392MOL0     H52858   9.295  11.448   7.983 -0.3787 -2.4045  0.3735
  392MOL0     H52859   9.199  11.383   8.188  0.9666 -0.3590  0.0746
  392MOL0     H52860   9.264  11.548   8.213  3.2491  0.1042  0.0333
  392MOL0     H52861   9.383  11.266   8.299  2.4289  0.6324 -0.7396
  392MOL0     H52862   9.480  11.402   8.313  0.1913 -2.6855  0.5775
  392MOL0     H52863   9.318  11.511   8.455  1.9748  0.2358 -1.7036
  392MOL0     H52864   9.201  11.375   8.440  0.3883 -1.2540  1.8304
  392MOL0     H52865   9.413  11.232   8.548 -0.7117  0.5692  0.4050
  392MOL0     H52866   9.493  11.389   8.559  1.8436 -1.5773 -0.6319
  392MOL0     H52867   9.234  11.299   8.696 -1.5302  2.6738  0.8681
  392MOL0     H52868   9.284  11.470   8.695  1.0301  1.2896  1.6800
  392MOL0     H52869   9.500  11.401   8.802  0.4364 -0.4993 -0.7558
  392MOL0     H52870   9.339  11.369   8.889  0.6328  0.9722 -0.7821
  392MOL0     H52871   9.248  11.101   8.845 -0.1181 -0.0927 -1.6496
  392MOL0     H52872   9.311  10.829   8.875 -0.9550 -0.2302  1.4691
  392MOL0     H52873   9.474  10.794   8.845 -1.4081 -0.3955 -0.8734
  392MOL0     H52874   9.529  10.802   9.085  0.5120  1.1519  0.6310
  392MOL0     H52875   9.356  10.865   9.120  1.1852  2.4604 -0.9081
  392MOL0     H52876   9.408  10.613   8.983 -1.2195  0.9536 -1.7098
  392MOL0     H52877   9.255  10.676   9.035  0.1762  0.7274 -3.1255
  392MOL0     H52878   9.470  10.601   9.245  1.0889  1.6440 -1.3040
  392MOL0     H52879   9.346  10.497   9.190  2.1129 -0.7697  0.3679
  392MOL0     H52880   9.432  10.447   9.397 -1.2206 -0.4662 -1.4606
  392MOL0     H52881   9.380  10.348   9.635  2.0713  1.7315  0.7342
  392MOL0     H52882   9.212  10.120   9.831 -1.2013  3.0507 -1.3213
  392MOL0     H52883   9.203   9.952  10.019  3.0107 -0.9307  1.6644
  392MOL0     H52884   9.262  10.091  10.436  0.9282  0.6713 -0.6493
  392MOL0     H52885   9.093  10.090  10.367  0.0347 -1.7008 -1.5766
  392MOL0     H52886   9.056   9.866  10.412  0.5104  0.9056 -2.4463
  392MOL0     H52887   9.219   9.834  10.456  1.4779  1.1772 -2.6246
  392MOL0     H52888   9.186  10.006  10.652  1.7133  0.0216 -2.8887
  392MOL0     H52889   9.018  10.002  10.612  0.5751  1.4847  1.4113
  392MOL0     H52890   9.207   9.772  10.681 -1.2512 -2.2467 -3.2544
  392MOL0     H52891   9.052   9.734  10.651 -1.8963  0.7167  1.2910
  392MOL0     H52892   9.051   9.759  10.896 -0.8658 -0.1502 -0.6305
  392MOL0     H52893   8.972   9.911  10.832  0.4010  1.5239  0.5895
  392MOL0     H52894   9.246   9.848  10.954  0.2746 -0.6619  0.5773
  392MOL0     H52895   9.231  10.002  10.880 -1.8432  1.8128  1.1981
  392MOL0     H52896   9.106   9.921  11.137 -0.8768 -2.2677 -1.9942
  392MOL0     H52897   9.012  10.014  11.038  0.0625  0.1010 -0.1242
  392MOL0     H52898   9.302  10.070  11.096 -0.2129 -0.2334  0.7107
  392MOL0     H52899   9.187  10.181  11.023 -1.5252 -0.3133  0.2851
  392MOL0     H52900   9.294  10.251  10.296 -0.0809  1.5719 -0.9167
  392MOL0     H52901   9.315  10.416  10.121 -0.2629 -0.2174  0.5478
  392MOL0     H52902   9.043  10.593   9.664 -1.8156 -3.0688 -0.8664
  392MOL0     H52903   9.098  10.709   9.467 -2.5528 -0.2218  2.7047
  392MOL0     H52904   9.768  11.434   7.789  1.6919 -0.2762  0.8385
  392MOL0     H52905   9.918  11.228   7.778 -2.0053  0.7698 -2.3562
  392MOL0     H52906   9.931  10.784   7.927 -0.5458 -0.3925 -0.4131
  392MOL0     H52907  10.043  10.566   7.979  1.7601  0.2218 -3.1199
  392MOL0     H52908  10.300  10.510   8.321 -0.0778  1.8506 -0.7497
  392MOL0     H52909  10.424  10.548   8.200  0.2121  0.2923 -0.5513
  392MOL0     H52910  10.319  10.263   8.272  0.7887 -0.4387  0.8832
  392MOL0     H52911  10.482  10.347   8.293 -0.7702  2.0572  0.8744
  392MOL0     H52912  10.469  10.355   8.034  0.8312 -0.3325  1.4262
  392MOL0     H52913  10.312  10.280   8.058  0.1189 -0.7489  0.4248
  392MOL0     H52914  10.545  10.133   7.999 -1.1818 -2.6955 -1.2590
  392MOL0     H52915  10.571  10.148   8.166  1.3121  2.3112 -0.6948
  392MOL0     H52916  10.244   9.869   8.123  0.3021 -0.6801 -2.0380
  392MOL0     H52917  10.364  10.751   8.181  0.3518  1.8154 -0.9763
  392MOL0     H52918  10.395  10.976   8.199 -0.4933  1.9455  1.4834
  392MOL0     H52919  10.298  11.070   8.092 -1.6927 -1.8066 -0.9727
  392MOL0     H52920  10.240  11.049   8.256  0.3920  2.3070 -0.4285
  393MOL0     O52921   4.150   4.985   2.754 -0.1956  0.4820  0.3572
  393MOL0     C52922   4.173   5.001   2.635 -0.4921 -0.5527  0.5875
  393MOL0     O52923   4.142   4.905   2.539 -0.1804 -0.5063 -0.1133
  393MOL0     C52924   4.130   4.774   2.579  0.7845  0.2098 -1.0378
  393MOL0     C52925   4.014   4.701   2.577  1.0331  0.1743 -0.3532
  393MOL0     C52926   4.012   4.567   2.612 -0.7194 -0.2913  0.6589
  393MOL0     C52927   4.135   4.496   2.636  0.1102 -0.0995 -0.7947
  393MOL0     O52928   4.137   4.355   2.637  0.5677 -0.5904 -1.0035
  393MOL0     C52929   4.034   4.282   2.709  1.0126  0.2248 -0.0549
  393MOL0     C52930   4.069   4.277   2.854  0.7113  0.6528 -1.5225
  393MOL0     C52931   3.940   4.244   2.929 -0.0382  0.0127  0.4279
  393MOL0     C52932   3.967   4.222   3.077 -0.0766 -0.2265 -0.8232
  393MOL0     C52933   3.840   4.244   3.161 -0.3165 -0.8042 -1.1569
  393MOL0     C52934   3.881   4.233   3.307  0.8365  0.5546  0.9738
  393MOL0     C52935   3.791   4.294   3.419  0.1960 -0.3372  0.1605
  393MOL0     C52936   3.670   4.200   3.454 -0.1131 -0.4142  0.7748
  393MOL0     N52937   3.589   4.263   3.560 -0.2076  0.2905  0.3446
  393MOL0     C52938   3.615   4.251   3.693  0.0259 -0.7580 -0.3415
  393MOL0     C52939   3.493   4.284   3.751 -1.3260 -0.6897 -0.4241
  393MOL0     C52940   3.468   4.283   3.899  0.3445  0.0176 -0.2244
  393MOL0     C52941   3.507   4.148   3.966 -1.3942  0.0559  0.2219
  393MOL0     C52942   3.425   4.035   3.915  0.0680  0.4144 -0.7831
  393MOL0     C52943   3.275   4.044   3.943 -0.0716 -0.5793  0.4110
  393MOL0     O52944   3.243   4.118   4.067 -0.3197  0.3374 -0.2592
  393MOL0     C52945   3.117   4.158   4.100  0.2064 -0.0987 -0.6284
  393MOL0     C52946   3.096   4.220   4.224  0.3359 -1.4029 -0.5991
  393MOL0     C52947   2.971   4.263   4.264  0.0431  0.3041  0.7921
  393MOL0     C52948   2.856   4.236   4.184 -0.1143  0.2513  0.3937
  393MOL0     C52949   2.715   4.257   4.234 -0.8769  0.3421 -1.0030
  393MOL0     O52950   2.628   4.151   4.215  0.1934 -0.4738 -0.8658
  393MOL0     C52951   2.500   4.163   4.263 -0.2701  0.4469  0.1118
  393MOL0     C52952   2.408   4.238   4.187 -0.2363 -0.3359 -0.7324
  393MOL0     C52953   2.274   4.232   4.232 -0.3636 -0.4751  0.1140
  393MOL0     C52954   2.228   4.157   4.342  0.0879  0.6852 -0.4174
  393MOL0     O52955   2.092   4.148   4.358 -0.7988 -0.5761  0.1491
  393MOL0     C52956   2.050   4.093   4.477 -0.3998 -0.3373  0.4176
  393MOL0     C52957   1.900   4.127   4.482 -0.0705  0.7940 -0.2679
  393MOL0     C52958   1.834   4.020   4.564 -0.7995 -0.5401  0.4545
  393MOL0     C52959   1.681   4.037   4.591  0.7861  0.0250  0.4539
  393MOL0     C52960   1.619   3.949   4.692 -0.8037 -0.6100 -1.0598
  393MOL0     C52961   1.480   3.994   4.724  1.3235  0.6301  0.3271
  393MOL0     C52962   1.374   3.879   4.756 -0.1548 -0.8773  0.7618
  393MOL0     C52963   1.249   3.951   4.801  0.8265 -0.2971 -0.0232
  393MOL0    Cl52964   1.097   3.880   4.748  0.1970 -0.5730  0.1098
  393MOL0     C52965   2.329   4.079   4.413 -0.8831 -0.3552  0.0267
  393MOL0     C52966   2.466   4.079   4.370 -0.4424 -0.3448 -0.9486
  393MOL0     O52967   2.695   4.358   4.299  0.6092 -0.5511 -0.7659
  393MOL0     C52968   2.878   4.192   4.054  0.6519 -0.0812  1.0893
  393MOL0     C52969   3.007   4.153   4.015  0.6062  0.2752 -0.3904
  393MOL0     N52970   3.407   4.337   3.655 -0.5876 -0.0498  0.1737
  393MOL0     N52971   3.464   4.325   3.543 -0.5614  0.3217  0.1943
  393MOL0     C52972   4.253   4.570   2.630  0.3659  0.7946 -0.8346
  393MOL0     C52973   4.248   4.703   2.609  0.1862 -0.2197 -0.3904
  393MOL0     C52974   4.197   5.147   2.594  0.3849  0.5537  0.6067
  393MOL0     C52975   4.145   5.248   2.677  0.0420  0.9206 -0.3222
  393MOL0     C52976   4.159   5.384   2.642  0.0438 -1.2819  0.4427
  393MOL0     C52977   4.196   5.435   2.522  0.0989  0.0376  0.1067
  393MOL0     O52978   4.183   5.569   2.499  0.0175  0.1384  0.0453
  393MOL0     C52979   4.255   5.630   2.386  0.9589 -0.6903 -0.0857
  393MOL0     C52980   4.408   5.626   2.412  0.2513 -0.0751  0.7369
  393MOL0     C52981   4.471   5.718   2.303 -0.0167  0.3855 -0.6529
  393MOL0     C52982   4.459   5.657   2.164  0.5894 -1.5015  0.1133
  393MOL0     C52983   4.510   5.525   2.143  0.5782  0.1098 -0.1292
  393MOL0     C52984   4.536   5.409   2.112 -0.2182 -0.2109 -0.5400
  393MOL0     C52985   4.245   5.339   2.433  0.0887 -0.2507  0.2979
  393MOL0     C52986   4.245   5.197   2.464  0.2944  0.0355  0.3399
  393MOL0     C52987   4.297   5.095   2.370 -0.6408 -0.1412 -0.2151
  393MOL0     H52988   3.923   4.753   2.548 -1.1863 -3.8003 -1.2688
  393MOL0     H52989   3.914   4.522   2.613 -1.3890  1.0745 -0.2671
  393MOL0     H52990   3.937   4.330   2.691  1.0093 -0.2121 -1.3679
  393MOL0     H52991   4.030   4.177   2.678  2.4857 -1.3856  4.4362
  393MOL0     H52992   4.104   4.377   2.883 -2.0934  0.5089  3.5596
  393MOL0     H52993   4.147   4.202   2.868 -0.6086 -0.6742 -0.9975
  393MOL0     H52994   3.897   4.151   2.890  2.5160 -0.5065 -1.3866
  393MOL0     H52995   3.871   4.329   2.934  1.8385  1.5362  1.7262
  393MOL0     H52996   3.995   4.117   3.088 -1.1679 -0.3965  0.4947
  393MOL0     H52997   4.053   4.276   3.119 -2.1637  0.1215  3.5160
  393MOL0     H52998   3.800   4.342   3.136  5.0515  2.3720  1.1093
  393MOL0     H52999   3.760   4.171   3.143 -2.1310  0.5171  1.0362
  393MOL0     H53000   3.881   4.128   3.338  0.2079  0.1974 -0.1631
  393MOL0     H53001   3.985   4.264   3.313  0.3703  2.3106  0.4811
  393MOL0     H53002   3.752   4.384   3.370 -1.0147 -2.0864 -2.2795
  393MOL0     H53003   3.854   4.318   3.506 -2.0583 -0.2371  1.8598
  393MOL0     H53004   3.600   4.185   3.371 -0.8732 -1.1695  1.5335
  393MOL0     H53005   3.705   4.103   3.490  0.9536  0.1452  1.3051
  393MOL0     H53006   3.700   4.208   3.745 -1.7426 -3.8405  0.2229
  393MOL0     H53007   3.533   4.361   3.939  0.9703  0.5050 -2.0761
  393MOL0     H53008   3.365   4.313   3.922 -0.5443 -1.7246 -1.6306
  393MOL0     H53009   3.614   4.135   3.946 -1.0828  2.1326  0.2486
  393MOL0     H53010   3.481   4.164   4.071 -3.7940  0.6016 -0.4033
  393MOL0     H53011   3.471   3.948   3.963  3.2564  1.9616 -0.7961
  393MOL0     H53012   3.418   4.023   3.806 -4.3677  2.7380 -1.0168
  393MOL0     H53013   3.226   3.947   3.953 -2.2690  0.6968  3.9699
  393MOL0     H53014   3.230   4.099   3.860 -1.9493  0.6975  2.1417
  393MOL0     H53015   3.172   4.233   4.301 -4.1907  0.8278  4.0703
  393MOL0     H53016   2.954   4.305   4.362 -3.0231  2.0568 -0.3477
  393MOL0     H53017   2.435   4.304   4.106 -0.7722  4.2814  2.5004
  393MOL0     H53018   2.197   4.278   4.170 -0.8214 -0.5639  0.6070
  393MOL0     H53019   2.058   3.984   4.467  0.5097 -0.1354 -1.5228
  393MOL0     H53020   2.101   4.137   4.563  0.1062  3.8204 -1.7627
  393MOL0     H53021   1.887   4.230   4.517 -2.3343  0.5351 -0.1690
  393MOL0     H53022   1.850   4.114   4.385 -1.5196  0.4008  0.4920
  393MOL0     H53023   1.843   3.925   4.510 -1.1429  0.0859 -0.7322
  393MOL0     H53024   1.884   4.009   4.661  0.3982  1.3241  0.1081
  393MOL0     H53025   1.619   4.011   4.505 -1.0599 -3.7327  2.6801
  393MOL0     H53026   1.662   4.135   4.635 -1.4004 -0.6719  1.1597
  393MOL0     H53027   1.671   3.938   4.788 -0.5894  0.3905 -1.0559
  393MOL0     H53028   1.616   3.847   4.654 -1.4894 -0.1544 -2.2688
  393MOL0     H53029   1.482   4.059   4.812  0.3612  2.5419 -0.9947
  393MOL0     H53030   1.441   4.048   4.637  1.0667 -0.2073 -0.0959
  393MOL0     H53031   1.417   3.817   4.836  0.4272  0.1215  1.2374
  393MOL0     H53032   1.359   3.825   4.662 -1.8836  2.4576 -1.0361
  393MOL0     H53033   1.247   3.946   4.910  0.5863  0.6601  0.0270
  393MOL0     H53034   1.249   4.055   4.767 -1.6667  0.5420  2.2012
  393MOL0     H53035   2.307   4.027   4.506  4.0320 -0.8200  1.1755
  393MOL0     H53036   2.534   4.008   4.416  0.6031 -0.5378 -2.7239
  393MOL0     H53037   2.799   4.197   3.980  1.4647  0.1875  0.2211
  393MOL0     H53038   3.015   4.112   3.915 -0.6578 -0.1879 -0.3184
  393MOL0     H53039   4.338   4.504   2.647 -0.6481  0.2430  3.1186
  393MOL0     H53040   4.338   4.763   2.600 -0.9366  1.7152  0.6727
  393MOL0     H53041   4.107   5.235   2.778 -0.9436 -2.8555 -1.0554
  393MOL0     H53042   4.130   5.466   2.707  3.3527  0.3666  0.0476
  393MOL0     H53043   4.219   5.733   2.388  0.0305 -0.9957 -0.3535
  393MOL0     H53044   4.237   5.587   2.287 -1.0415 -2.5799  0.9864
  393MOL0     H53045   4.468   5.534   2.419 -0.7747 -0.6509  2.6553
  393MOL0     H53046   4.412   5.685   2.503 -3.0948  0.0006  0.9312
  393MOL0     H53047   4.577   5.736   2.323 -0.4024  1.9770  0.1407
  393MOL0     H53048   4.423   5.817   2.298 -3.0944 -0.9253  0.2456
  393MOL0     H53049   4.356   5.666   2.129  1.5990 -2.6584 -3.6754
  393MOL0     H53050   4.511   5.726   2.097  2.6727 -2.1166  0.9903
  393MOL0     H53051   4.556   5.313   2.069  1.7065  1.1540 -3.0187
  393MOL0     H53052   4.284   5.367   2.335  0.6402  0.6658  0.7694
  393MOL0     H53053   4.361   5.025   2.426 -0.5040  0.2698  0.1441
  393MOL0     H53054   4.221   5.048   2.306 -1.5355 -0.3309  0.9639
  393MOL0     H53055   4.357   5.151   2.297 -2.2990 -1.1762 -2.5115
  394MOL0     O53056   9.075   9.974   4.109  0.4548  0.5180 -0.9159
  394MOL0     C53057   9.109  10.043   4.019  0.8625 -0.4613 -0.4433
  394MOL0     O53058   9.173  10.169   4.030  0.8092  0.4407 -0.8981
  394MOL0     C53059   9.260  10.197   4.139 -0.2824  0.8501  0.1603
  394MOL0     C53060   9.283  10.328   4.188 -1.1878 -0.3511 -0.1770
  394MOL0     C53061   9.365  10.342   4.300 -0.1373  0.5721  0.2503
  394MOL0     C53062   9.434  10.245   4.362 -0.0994  0.4705  1.1088
  394MOL0     O53063   9.516  10.287   4.460 -0.0923  0.2983  0.1636
  394MOL0     C53064   9.594  10.184   4.526 -0.2444 -0.2941 -0.3947
  394MOL0     C53065   9.669  10.249   4.644 -0.7485 -0.4163 -0.0094
  394MOL0     C53066   9.748  10.144   4.722  0.6380 -0.0817  0.0295
  394MOL0     C53067   9.889  10.108   4.651  0.0910 -0.0144  0.0211
  394MOL0     C53068   9.993  10.082   4.756  0.4815  0.0816  0.4614
  394MOL0     C53069   9.962   9.947   4.833  0.0223  0.5126 -0.2864
  394MOL0     C53070  10.058   9.910   4.946 -0.2997  0.4459  0.9243
  394MOL0     C53071  10.178   9.818   4.916  0.0219  0.3297 -0.9397
  394MOL0     N53072  10.290   9.889   4.855 -0.0317 -0.7995 -0.8590
  394MOL0     C53073  10.380   9.981   4.911  0.9410 -0.4783 -0.6298
  394MOL0     C53074  10.449  10.019   4.804  0.2863  0.5418 -0.1757
  394MOL0     C53075  10.570  10.110   4.819 -0.5580  0.2011  0.2921
  394MOL0     C53076  10.646  10.093   4.953  0.8483  0.4080 -0.5862
  394MOL0     C53077  10.683   9.947   4.992 -0.1618 -0.5167  1.3655
  394MOL0     C53078  10.781   9.914   5.110  0.0168 -0.3336  0.3963
  394MOL0     O53079  10.787   9.771   5.140  0.1889 -0.4013 -0.1085
  394MOL0     C53080  10.833   9.750   5.263  0.6916  0.5851  0.6516
  394MOL0     C53081  10.845   9.836   5.371 -0.1740  0.6528  0.3417
  394MOL0     C53082  10.904   9.794   5.494 -0.0489  0.3724  0.4089
  394MOL0     C53083  10.942   9.653   5.511 -0.1442 -1.2256 -1.1084
  394MOL0     C53084  11.012   9.598   5.629  0.2769 -0.3560 -0.3586
  394MOL0     O53085  10.980   9.474   5.675 -0.0673 -0.1560 -0.2804
  394MOL0     C53086  11.031   9.401   5.781 -0.2713 -0.2442  0.4900
  394MOL0     C53087  11.046   9.267   5.761 -0.3721  0.6239 -0.4154
  394MOL0     C53088  11.109   9.179   5.858  0.1050 -0.0544 -0.1856
  394MOL0     C53089  11.164   9.240   5.970  0.6163 -1.1970  0.1473
  394MOL0     O53090  11.211   9.173   6.079 -0.1495 -0.0024  0.9618
  394MOL0     C53091  11.196   9.036   6.072  0.0036 -0.4186 -0.6493
  394MOL0     C53092  11.245   8.989   6.212 -0.3785  0.6401 -0.6820
  394MOL0     C53093  11.401   8.996   6.225 -0.7105 -0.2055  0.3546
  394MOL0     C53094  11.442   8.938   6.362  0.5342  0.1507  0.1972
  394MOL0     C53095  11.587   8.968   6.388 -0.6279 -0.1747  0.5548
  394MOL0     C53096  11.648   8.897   6.512  0.1449 -0.6017  0.0946
  394MOL0     C53097  11.585   8.935   6.646  0.6882  0.6519  0.2017
  394MOL0     C53098  11.640   8.858   6.769  0.4371  0.1018 -0.3627
  394MOL0    Cl53099  11.655   8.677   6.750 -0.5580  0.2738 -0.0319
  394MOL0     C53100  11.147   9.376   5.993  0.3504  0.5065  0.4100
  394MOL0     C53101  11.082   9.451   5.898 -0.6134 -0.0332  0.3482
  394MOL0     O53102  11.099   9.669   5.680 -0.5483  0.2102  1.3017
  394MOL0     C53103  10.917   9.573   5.396  1.2181 -0.7956  0.4337
  394MOL0     C53104  10.865   9.613   5.276 -0.2132  0.0874  0.3119
  394MOL0     N53105  10.412   9.953   4.689 -0.7858 -0.3036 -0.1828
  394MOL0     N53106  10.312   9.882   4.716  0.0108 -0.0441 -0.3948
  394MOL0     C53107   9.416  10.119   4.304  0.0162  0.7228 -0.1180
  394MOL0     C53108   9.323  10.091   4.199 -0.3769  0.2779 -0.6822
  394MOL0     C53109   9.072   9.996   3.878  0.9915 -0.5029 -0.4405
  394MOL0     C53110   9.061  10.095   3.778  0.3495  0.0167  0.6833
  394MOL0     C53111   9.016  10.059   3.642  0.1321 -0.4344 -0.7994
  394MOL0     C53112   9.005   9.925   3.614 -0.7621  0.6867 -0.7235
  394MOL0     O53113   8.990   9.867   3.495  0.1540  0.6848 -0.1286
  394MOL0     C53114   9.086   9.905   3.393  0.2607 -0.3332  0.1413
  394MOL0     C53115   9.202   9.815   3.418 -0.3064 -0.6003 -0.1173
  394MOL0     C53116   9.174   9.668   3.406  0.1438 -0.1522 -0.7722
  394MOL0     C53117   9.259   9.562   3.481  0.3791 -0.2203  0.0140
  394MOL0     C53118   9.403   9.596   3.472  0.4963 -0.2879  0.6367
  394MOL0     C53119   9.521   9.634   3.476  0.2033  0.0732  0.3734
  394MOL0     C53120   9.040   9.826   3.713  1.2607 -0.3607 -0.1723
  394MOL0     C53121   9.071   9.862   3.842 -0.8994 -0.0485 -0.0867
  394MOL0     C53122   9.135   9.753   3.929 -1.1544  0.2971 -0.5786
  394MOL0     H53123   9.234  10.411   4.138 -2.0388 -2.0197 -2.2932
  394MOL0     H53124   9.385  10.438   4.346  0.0277  1.2187 -1.1058
  394MOL0     H53125   9.522  10.108   4.561  0.6386 -1.8974 -1.9260
  394MOL0     H53126   9.670  10.143   4.460  1.2185 -0.1131  1.1065
  394MOL0     H53127   9.604  10.307   4.710 -0.0372  0.3816  0.0046
  394MOL0     H53128   9.736  10.327   4.605 -0.3575  1.8409  4.5225
  394MOL0     H53129   9.686  10.054   4.734 -0.2966  0.3855 -1.0454
  394MOL0     H53130   9.767  10.181   4.823 -2.0191 -3.8167  2.1508
  394MOL0     H53131   9.881  10.026   4.578 -1.7927 -1.4810  1.7483
  394MOL0     H53132   9.927  10.199   4.605 -0.6119  1.2701  1.8919
  394MOL0     H53133  10.079  10.065   4.691  0.0298  1.7492 -0.6321
  394MOL0     H53134  10.014  10.165   4.823 -1.0454  0.4907  0.4563
  394MOL0     H53135   9.863   9.965   4.876 -0.5418 -1.4768 -0.6068
  394MOL0     H53136   9.968   9.863   4.762 -1.1628  0.3875 -0.2551
  394MOL0     H53137   9.998   9.864   5.026  1.4517  0.2558  2.1821
  394MOL0     H53138  10.101  10.002   4.987  0.1208  0.3307  0.7493
  394MOL0     H53139  10.225   9.787   5.010  1.0322  0.2262 -1.4670
  394MOL0     H53140  10.148   9.726   4.866 -1.0197  0.3487 -0.3669
  394MOL0     H53141  10.394  10.022   5.010 -0.8294  2.1289 -1.3343
  394MOL0     H53142  10.642  10.068   4.749  0.9214  0.3337  1.6549
  394MOL0     H53143  10.539  10.213   4.797  1.6694  1.0838  0.9475
  394MOL0     H53144  10.736  10.156   4.948 -0.8318  2.8592 -3.1628
  394MOL0     H53145  10.597  10.144   5.037  1.0724 -0.4503  0.0795
  394MOL0     H53146  10.729   9.902   4.903  1.6850 -1.3445  2.6766
  394MOL0     H53147  10.585   9.904   5.014 -0.4807  0.8064  2.6741
  394MOL0     H53148  10.727   9.972   5.185 -1.7631 -0.4810 -0.7058
  394MOL0     H53149  10.877   9.954   5.077 -0.7240  0.5716 -0.7499
  394MOL0     H53150  10.812   9.939   5.358 -0.9488  0.2455 -1.1335
  394MOL0     H53151  10.914   9.868   5.573  1.1074  0.9981 -0.2972
  394MOL0     H53152  11.008   9.235   5.664  1.9801 -1.7645 -0.6647
  394MOL0     H53153  11.128   9.075   5.837 -1.0762 -0.3394  0.1164
  394MOL0     H53154  11.095   8.994   6.066  0.8531 -2.4304 -2.2741
  394MOL0     H53155  11.255   8.981   5.998  0.8561 -0.0928 -0.2226
  394MOL0     H53156  11.198   9.054   6.285  2.8473  1.9025  0.4708
  394MOL0     H53157  11.208   8.887   6.227  1.2201 -0.2743 -2.3855
  394MOL0     H53158  11.447   8.934   6.149 -2.9359  1.8937 -2.9628
  394MOL0     H53159  11.433   9.100   6.228  2.1551 -0.9084 -1.8821
  394MOL0     H53160  11.425   8.831   6.346 -0.1435 -0.0853  2.2558
  394MOL0     H53161  11.380   8.974   6.444 -1.9029  3.4848 -2.8206
  394MOL0     H53162  11.610   9.073   6.407  2.7855 -1.2705  3.4649
  394MOL0     H53163  11.643   8.936   6.300 -0.7358 -1.5762  0.9789
  394MOL0     H53164  11.633   8.790   6.497  0.9992 -0.7875  0.4990
  394MOL0     H53165  11.755   8.922   6.517  0.0509 -0.1303 -0.1534
  394MOL0     H53166  11.478   8.911   6.657  1.4168 -1.9375  2.8830
  394MOL0     H53167  11.585   9.042   6.668 -1.5950  0.7174  0.1908
  394MOL0     H53168  11.736   8.899   6.802  0.2774  4.6120 -4.4235
  394MOL0     H53169  11.572   8.869   6.854 -1.7292 -3.1167 -1.4929
  394MOL0     H53170  11.158   9.410   6.096  0.3788  3.9084 -0.5651
  394MOL0     H53171  11.076   9.558   5.917 -1.4495 -0.2922  1.6624
  394MOL0     H53172  10.948   9.469   5.400  3.3705 -0.1855  0.8014
  394MOL0     H53173  10.845   9.544   5.195  2.1518 -2.3076  1.6185
  394MOL0     H53174   9.465  10.029   4.339 -2.3641 -1.6713 -2.4474
  394MOL0     H53175   9.333   9.989   4.163  1.1548 -0.1544  0.7952
  394MOL0     H53176   9.069  10.202   3.791  0.4964 -0.2891  3.6764
  394MOL0     H53177   8.983  10.141   3.579 -0.2988  0.1867  0.1897
  394MOL0     H53178   9.112  10.011   3.403  0.2200 -0.0263 -2.4763
  394MOL0     H53179   9.060   9.883   3.289  2.3428 -1.0102 -0.2743
  394MOL0     H53180   9.236   9.848   3.517 -0.6606 -1.2936  0.2378
  394MOL0     H53181   9.281   9.842   3.347  0.2317  3.0004  1.6233
  394MOL0     H53182   9.191   9.653   3.299 -1.3068  0.5700 -1.1271
  394MOL0     H53183   9.068   9.648   3.423  0.3835 -1.6592 -0.9396
  394MOL0     H53184   9.251   9.576   3.589  1.1708 -1.0305  0.1931
  394MOL0     H53185   9.230   9.465   3.440  2.7265 -0.5963 -0.9353
  394MOL0     H53186   9.623   9.668   3.476  0.1004  0.3825 -0.0369
  394MOL0     H53187   9.065   9.724   3.686  2.1677 -0.7354  1.8945
  394MOL0     H53188   9.066   9.723   4.009 -0.8763  0.1562 -0.3870
  394MOL0     H53189   9.145   9.656   3.879 -3.1262  0.9124 -2.3182
  394MOL0     H53190   9.224   9.791   3.979 -1.4589  1.5605 -0.9647
  395MOL0     O53191   6.734   0.513   9.053  0.3379  0.0426  0.0096
  395MOL0     C53192   6.662   0.598   9.105 -0.4671  0.3676 -0.5214
  395MOL0     O53193   6.571   0.672   9.037 -0.7962 -0.2932 -0.1103
  395MOL0     C53194   6.565   0.680   8.900  0.4304 -0.2665 -0.0853
  395MOL0     C53195   6.442   0.738   8.870 -0.0604 -0.3782  0.3213
  395MOL0     C53196   6.409   0.752   8.741  0.1877 -0.0360  0.7110
  395MOL0     C53197   6.501   0.740   8.630 -0.2369  0.4777 -0.6506
  395MOL0     O53198   6.474   0.781   8.506 -0.4106  0.3394  0.8990
  395MOL0     C53199   6.336   0.792   8.453 -0.5815  0.9342 -0.6561
  395MOL0     C53200   6.336   0.795   8.306  0.6823 -0.0311 -0.7179
  395MOL0     C53201   6.194   0.768   8.245 -0.0652  0.9866  0.4638
  395MOL0     C53202   6.148   0.618   8.247 -0.0565 -0.2202 -0.1711
  395MOL0     C53203   6.022   0.584   8.172 -0.3021 -0.3196 -0.1131
  395MOL0     C53204   5.899   0.635   8.247  0.2945 -0.6541  0.7434
  395MOL0     C53205   5.779   0.576   8.174 -1.0346 -0.4853  0.0248
  395MOL0     C53206   5.761   0.636   8.029 -0.0385 -0.0599 -0.0158
  395MOL0     N53207   5.623   0.649   7.992  0.5225 -0.4412 -0.3929
  395MOL0     C53208   5.536   0.555   7.935 -0.7323  1.2321  0.0459
  395MOL0     C53209   5.422   0.622   7.913 -0.4125  0.0370 -1.3180
  395MOL0     C53210   5.295   0.563   7.868 -0.2767  0.0422 -0.2420
  395MOL0     C53211   5.238   0.640   7.740  0.5024 -0.4979  0.4658
  395MOL0     C53212   5.115   0.559   7.693  0.2356 -0.8469  0.0326
  395MOL0     C53213   5.023   0.654   7.611  0.8907 -0.1118 -0.0909
  395MOL0     O53214   5.096   0.681   7.487  0.3881  0.0503  0.1213
  395MOL0     C53215   5.107   0.807   7.424 -0.3249  0.0503 -0.3222
  395MOL0     C53216   5.030   0.918   7.467  0.8909 -0.2726  0.7503
  395MOL0     C53217   5.039   1.043   7.406  0.8496 -0.2576 -0.1383
  395MOL0     C53218   5.128   1.070   7.297 -0.5607 -0.8810  0.1829
  395MOL0     C53219   5.130   1.208   7.238  1.3301 -0.1334 -0.3950
  395MOL0     O53220   5.076   1.306   7.322  0.7385  0.0331 -0.8079
  395MOL0     C53221   5.081   1.433   7.265  0.4444  0.0652  1.0675
  395MOL0     C53222   4.973   1.471   7.183 -0.8082  0.8343 -0.2595
  395MOL0     C53223   4.977   1.592   7.119 -0.6779 -0.1124  0.6715
  395MOL0     C53224   5.085   1.680   7.141  0.3290  0.8285 -0.1919
  395MOL0     O53225   5.092   1.806   7.075  1.3775  1.0564  0.3652
  395MOL0     C53226   5.207   1.890   7.098 -0.6985 -0.0427 -0.4541
  395MOL0     C53227   5.221   2.002   6.995 -0.8024 -0.6636 -0.7286
  395MOL0     C53228   5.328   2.099   7.042  0.7110 -0.9385  0.3662
  395MOL0     C53229   5.360   2.192   6.916 -0.3103  0.0821 -0.5189
  395MOL0     C53230   5.418   2.324   6.957  0.2038 -0.5266 -0.5041
  395MOL0     C53231   5.470   2.408   6.841  0.9405  0.0141  0.2614
  395MOL0     C53232   5.355   2.449   6.738 -0.9288 -0.6428  0.0795
  395MOL0     C53233   5.412   2.507   6.614 -0.5267 -0.1491  0.4414
  395MOL0    Cl53234   5.285   2.541   6.489 -0.1476  0.2157  0.4539
  395MOL0     C53235   5.187   1.646   7.233 -0.2333 -0.1862  0.1652
  395MOL0     C53236   5.186   1.515   7.296  0.3999  0.1083 -0.5015
  395MOL0     O53237   5.168   1.235   7.123  0.2516  0.1432 -0.1800
  395MOL0     C53238   5.198   0.961   7.244 -0.4981 -0.0126 -0.7200
  395MOL0     C53239   5.192   0.834   7.302  1.6894  0.8519 -0.7228
  395MOL0     N53240   5.436   0.762   7.953  0.0461  2.0501 -0.0881
  395MOL0     N53241   5.556   0.766   8.006 -0.5913 -0.6519  0.9437
  395MOL0     C53242   6.619   0.674   8.665 -0.7935  0.3681 -0.5546
  395MOL0     C53243   6.653   0.652   8.799  0.1101 -0.2149  0.5155
  395MOL0     C53244   6.685   0.625   9.247  0.5558 -0.9018  0.6304
  395MOL0     C53245   6.573   0.641   9.322  0.1294 -0.0151 -0.2978
  395MOL0     C53246   6.581   0.675   9.458 -0.2240  0.1565  0.0460
  395MOL0     C53247   6.708   0.693   9.511 -0.0379 -0.0425  0.2638
  395MOL0     O53248   6.719   0.735   9.640  0.4482 -0.5965 -0.2310
  395MOL0     C53249   6.800   0.850   9.659 -0.9731  0.3523 -0.1216
  395MOL0     C53250   6.709   0.953   9.721 -0.3590 -0.3261 -0.2778
  395MOL0     C53251   6.610   0.999   9.624  0.2772 -1.2839 -0.0564
  395MOL0     C53252   6.545   1.135   9.664  1.0059 -0.1680 -0.9388
  395MOL0     C53253   6.425   1.105   9.739 -0.3714  0.6462 -0.1749
  395MOL0     C53254   6.337   1.051   9.803  0.1601  0.1389  0.3927
  395MOL0     C53255   6.815   0.678   9.441 -0.1419  0.2794 -0.4371
  395MOL0     C53256   6.814   0.646   9.308  0.5182 -0.6886  0.3519
  395MOL0     C53257   6.952   0.613   9.242 -0.2833 -0.1832 -0.1618
  395MOL0     H53258   6.374   0.760   8.951 -2.6119  1.5187 -2.1227
  395MOL0     H53259   6.320   0.807   8.710  3.3144  5.4488  0.2676
  395MOL0     H53260   6.285   0.701   8.486  1.0877  0.5154  0.9215
  395MOL0     H53261   6.294   0.883   8.497  0.1897  0.5223  0.9931
  395MOL0     H53262   6.413   0.726   8.271  1.9599  2.1887 -2.5734
  395MOL0     H53263   6.364   0.898   8.281 -1.1229  0.1089 -2.5192
  395MOL0     H53264   6.203   0.792   8.138  0.8202 -0.3223  0.2118
  395MOL0     H53265   6.127   0.838   8.294  1.5951  4.4283 -1.7668
  395MOL0     H53266   6.231   0.559   8.207  3.5086  3.4080  1.1220
  395MOL0     H53267   6.124   0.590   8.350 -0.2881 -1.7574 -0.6237
  395MOL0     H53268   6.030   0.614   8.067  2.6019 -0.9842 -0.1668
  395MOL0     H53269   6.012   0.476   8.164 -0.7685 -0.2423 -0.6738
  395MOL0     H53270   5.898   0.608   8.353  0.5076  2.9748  1.7986
  395MOL0     H53271   5.887   0.744   8.247 -3.8655 -0.9348  2.8591
  395MOL0     H53272   5.687   0.596   8.230 -0.2984  1.0849  0.7056
  395MOL0     H53273   5.795   0.468   8.160  0.7543 -0.0615 -1.6217
  395MOL0     H53274   5.810   0.733   8.016 -1.3815  0.5066 -1.1025
  395MOL0     H53275   5.803   0.569   7.953  1.7499 -0.0513  0.9084
  395MOL0     H53276   5.547   0.452   7.903 -1.0506  1.6288 -1.4066
  395MOL0     H53277   5.303   0.454   7.868 -0.2408  0.0375  0.6534
  395MOL0     H53278   5.216   0.583   7.940 -2.0642 -1.9128 -1.5195
  395MOL0     H53279   5.207   0.737   7.780  1.3779  0.6960 -1.5761
  395MOL0     H53280   5.324   0.659   7.675  0.4390  0.5117  0.6652
  395MOL0     H53281   5.054   0.524   7.777 -3.1518  3.2308 -0.4220
  395MOL0     H53282   5.141   0.471   7.633 -0.1526 -1.8584  1.3049
  395MOL0     H53283   5.002   0.749   7.661 -0.9894  0.6253 -2.0875
  395MOL0     H53284   4.931   0.601   7.585  0.1757  0.5658  0.9822
  395MOL0     H53285   4.953   0.903   7.542  0.4924 -1.8934  0.0604
  395MOL0     H53286   4.984   1.121   7.457  1.6910 -0.8344  1.7241
  395MOL0     H53287   4.891   1.401   7.166 -0.5313 -0.5029  3.1659
  395MOL0     H53288   4.897   1.622   7.052 -0.2951 -0.5240  0.0236
  395MOL0     H53289   5.191   1.941   7.193 -0.8660 -0.4363 -0.2695
  395MOL0     H53290   5.301   1.835   7.096 -0.3194  0.6237 -1.5184
  395MOL0     H53291   5.255   1.953   6.904  3.2384  0.8691 -0.2741
  395MOL0     H53292   5.132   2.065   6.981 -0.2256  0.2852 -0.2657
  395MOL0     H53293   5.294   2.155   7.130  3.0395 -0.3533  0.9704
  395MOL0     H53294   5.416   2.059   7.093  2.2950  1.9073  0.1043
  395MOL0     H53295   5.267   2.210   6.860 -0.7854 -0.9474 -0.0891
  395MOL0     H53296   5.423   2.147   6.839 -1.1868  1.9345 -2.4567
  395MOL0     H53297   5.501   2.306   7.027  0.2676 -0.2466 -0.5062
  395MOL0     H53298   5.332   2.368   7.009  0.6905  1.9584 -1.6940
  395MOL0     H53299   5.532   2.489   6.881  0.1885  1.4585 -1.3428
  395MOL0     H53300   5.535   2.340   6.786  0.6682  0.8145 -1.1226
  395MOL0     H53301   5.286   2.523   6.779  0.2128  0.0862  0.7525
  395MOL0     H53302   5.305   2.356   6.710  1.8114 -1.3790 -2.9378
  395MOL0     H53303   5.457   2.604   6.635 -0.4777  0.1686 -0.9810
  395MOL0     H53304   5.490   2.452   6.560 -0.8100 -0.7987  0.6798
  395MOL0     H53305   5.269   1.716   7.246 -0.6498  0.6123 -1.3798
  395MOL0     H53306   5.257   1.486   7.373  2.2661  2.0950 -1.3734
  395MOL0     H53307   5.267   0.972   7.161  2.7127  1.3573  1.9180
  395MOL0     H53308   5.253   0.751   7.267  0.4107 -0.4491  0.0311
  395MOL0     H53309   6.682   0.623   8.593  2.1670 -0.1046  2.1705
  395MOL0     H53310   6.745   0.606   8.834  1.9486  0.3863 -3.0403
  395MOL0     H53311   6.468   0.633   9.296 -0.8756 -2.2064  3.5897
  395MOL0     H53312   6.485   0.686   9.507 -0.3819  1.2412 -0.4670
  395MOL0     H53313   6.831   0.891   9.562 -1.4177  0.3462 -0.2717
  395MOL0     H53314   6.883   0.824   9.724 -1.0659 -2.6918 -1.0773
  395MOL0     H53315   6.774   1.038   9.743 -1.5118  1.6232 -3.6932
  395MOL0     H53316   6.655   0.923   9.811  0.0279  1.5269  0.6097
  395MOL0     H53317   6.528   0.932   9.597 -2.0347  0.6660  1.6082
  395MOL0     H53318   6.660   1.012   9.527  1.0761 -0.4069  0.4595
  395MOL0     H53319   6.609   1.214   9.703 -1.3037  0.4214  2.0063
  395MOL0     H53320   6.503   1.166   9.568 -1.5605  0.9432  0.4461
  395MOL0     H53321   6.262   0.994   9.856 -0.2698  0.8122  0.5179
  395MOL0     H53322   6.909   0.697   9.493 -0.6210 -2.6652  1.7724
  395MOL0     H53323   7.029   0.576   9.311  1.2700  1.1777 -1.0934
  395MOL0     H53324   6.958   0.539   9.161  2.7747  1.2340 -1.4094
  395MOL0     H53325   6.997   0.702   9.199 -1.3326 -0.2329 -1.4267
  396MOL0     O53326   7.303  10.817   9.831 -0.1462  0.4861  0.1901
  396MOL0     C53327   7.354  10.714   9.882  0.8670  0.2899 -0.0309
  396MOL0     O53328   7.316  10.585   9.868  0.4925  0.7661 -0.2129
  396MOL0     C53329   7.191  10.537   9.830 -0.8223 -0.4203 -0.2399
  396MOL0     C53330   7.094  10.616   9.771  0.1915  0.1179  0.4289
  396MOL0     C53331   6.984  10.558   9.710  0.6139  0.4318  0.6984
  396MOL0     C53332   6.978  10.424   9.692 -0.0161 -0.8356 -0.2684
  396MOL0     O53333   6.885  10.365   9.609 -0.5151 -0.3327  0.3473
  396MOL0     C53334   6.747  10.392   9.618  0.1236  1.1474 -1.1090
  396MOL0     C53335   6.682  10.388   9.761 -0.3900 -0.4103  0.4828
  396MOL0     C53336   6.660  10.246   9.806  0.1775 -0.2626  0.3371
  396MOL0     C53337   6.567  10.251   9.936 -0.2535 -0.4557 -0.4972
  396MOL0     C53338   6.519  10.117   9.988 -0.3568 -0.7543 -0.3088
  396MOL0     C53339   6.430  10.038   9.885 -1.4877 -0.6548 -0.5372
  396MOL0     C53340   6.373   9.906   9.951 -0.4145 -0.2028 -0.2586
  396MOL0     C53341   6.315   9.821   9.842  1.3011  0.9623 -0.1874
  396MOL0     N53342   6.211   9.896   9.759 -0.3307  0.5858 -0.4777
  396MOL0     C53343   6.227   9.948   9.631  0.0570 -0.8132  0.4059
  396MOL0     C53344   6.115  10.015   9.608  0.2187 -0.0470 -0.1683
  396MOL0     C53345   6.088  10.107   9.490 -0.5309 -0.4434 -0.6661
  396MOL0     C53346   6.156  10.050   9.361  0.2188 -0.4889 -0.5648
  396MOL0     C53347   6.083  10.108   9.240  0.2742  0.3514  0.5933
  396MOL0     C53348   6.107  10.025   9.110 -0.7004 -0.3810  0.2121
  396MOL0     O53349   6.242   9.985   9.096  0.2641  0.5096 -0.7240
  396MOL0     C53350   6.275   9.913   8.981  0.1715  0.1514  0.3585
  396MOL0     C53351   6.407   9.890   8.966  0.8861  0.5146  1.0017
  396MOL0     C53352   6.463   9.844   8.853  0.0042 -0.1554 -0.7307
  396MOL0     C53353   6.388   9.820   8.731  0.3535 -0.5950 -0.5883
  396MOL0     C53354   6.445   9.751   8.609 -0.1096  0.0474  0.2107
  396MOL0     O53355   6.576   9.773   8.583 -0.2520 -0.2477 -0.2671
  396MOL0     C53356   6.648   9.697   8.494  0.0483 -0.0506  0.3166
  396MOL0     C53357   6.776   9.660   8.522 -0.6444 -0.4132  0.8006
  396MOL0     C53358   6.849   9.584   8.425 -0.9517 -0.1445 -0.6962
  396MOL0     C53359   6.805   9.558   8.300 -0.4672  0.3213  0.8139
  396MOL0     O53360   6.895   9.483   8.220  0.7080 -0.0781  0.0989
  396MOL0     C53361   6.915   9.533   8.091 -0.3053  1.2845 -0.0137
  396MOL0     C53362   7.011   9.655   8.076  0.4776  0.8185  0.0011
  396MOL0     C53363   7.035   9.695   7.935  0.5673  0.3884  0.3439
  396MOL0     C53364   7.168   9.785   7.929  0.2109  0.2824  0.2241
  396MOL0     C53365   7.208   9.812   7.788  1.0078  0.1346  0.8333
  396MOL0     C53366   7.109   9.897   7.708  0.8122 -0.7161 -0.1432
  396MOL0     C53367   7.182   9.941   7.576  0.7355  0.0441 -1.6220
  396MOL0     C53368   7.082   9.983   7.468  0.2657  1.0669  0.4007
  396MOL0    Cl53369   6.949   9.867   7.438 -0.1137 -0.4024 -0.1101
  396MOL0     C53370   6.678   9.603   8.262 -0.3818  0.7681 -0.0829
  396MOL0     C53371   6.603   9.675   8.358 -0.3652 -0.4556 -0.8913
  396MOL0     O53372   6.376   9.661   8.560 -0.4259 -0.2873  0.1384
  396MOL0     C53373   6.250   9.846   8.746  0.3683  0.0197 -0.4076
  396MOL0     C53374   6.192   9.886   8.869 -0.4208  0.6917  0.9099
  396MOL0     N53375   6.033   9.989   9.711  0.7831 -0.0006  0.4635
  396MOL0     N53376   6.083   9.918   9.798 -0.3469  0.6876 -0.0650
  396MOL0     C53377   7.072  10.339   9.752 -0.1711 -0.8042  0.6732
  396MOL0     C53378   7.180  10.399   9.829 -0.2532  0.6052 -0.3211
  396MOL0     C53379   7.485  10.740   9.957  0.1813 -0.2828  0.1835
  396MOL0     C53380   7.483  10.831  10.064  0.3357 -0.0979 -0.7155
  396MOL0     C53381   7.601  10.868  10.125 -0.4008 -1.0664  0.1815
  396MOL0     C53382   7.722  10.824  10.077  0.7018  0.1567 -0.3196
  396MOL0     O53383   7.839  10.852  10.151 -0.0641 -0.5901  0.3818
  396MOL0     C53384   7.961  10.806  10.096  0.4344 -0.2049  0.5725
  396MOL0     C53385   8.081  10.871  10.168  0.2260  0.4743  0.4329
  396MOL0     C53386   8.093  11.027  10.160  0.4997  0.3508  1.1912
  396MOL0     C53387   8.232  11.064  10.221 -0.1464  0.5923  0.1223
  396MOL0     C53388   8.350  11.054  10.129 -0.3547 -0.6402  0.1977
  396MOL0     C53389   8.447  11.035  10.056 -0.1736  0.6675  0.0860
  396MOL0     C53390   7.722  10.727   9.969 -0.3205 -1.1757 -0.1887
  396MOL0     C53391   7.606  10.677   9.913  0.0289 -1.1015 -0.4928
  396MOL0     C53392   7.618  10.575   9.804  0.1956 -0.1849  0.6836
  396MOL0     H53393   7.089  10.724   9.778 -2.0494 -0.0104  1.9693
  396MOL0     H53394   6.901  10.620   9.679  1.7790  1.1094 -1.2789
  396MOL0     H53395   6.726  10.495   9.588  1.5552  0.9311 -3.0281
  396MOL0     H53396   6.692  10.328   9.549  0.3327  1.7456 -1.8448
  396MOL0     H53397   6.586  10.439   9.751  0.4512  1.4463  1.4781
  396MOL0     H53398   6.740  10.457   9.823  0.9664  2.4375 -3.5862
  396MOL0     H53399   6.759  10.201   9.814 -0.3453 -1.3263  1.0055
  396MOL0     H53400   6.615  10.191   9.723 -0.1847  2.4860 -1.4237
  396MOL0     H53401   6.629  10.304  10.008 -1.3738  0.0699  0.1174
  396MOL0     H53402   6.486  10.325   9.926  1.2652  1.3520  0.0004
  396MOL0     H53403   6.606  10.053  10.002  0.3349  0.2673  0.2123
  396MOL0     H53404   6.474  10.130  10.087 -1.2608  3.2886 -1.0468
  396MOL0     H53405   6.347  10.103   9.855 -2.0665  0.1023  2.3591
  396MOL0     H53406   6.489  10.012   9.797  0.3573  1.1249  0.1054
  396MOL0     H53407   6.296   9.927  10.026  0.8128 -0.2848  1.0749
  396MOL0     H53408   6.452   9.849  10.001 -2.1613 -0.1819  2.8113
  396MOL0     H53409   6.385   9.795   9.761 -0.1201 -1.0027 -0.8752
  396MOL0     H53410   6.268   9.731   9.881  0.4271  0.2254 -2.7006
  396MOL0     H53411   6.314   9.946   9.567  0.0765 -2.4896  0.4220
  396MOL0     H53412   5.981  10.119   9.469 -1.0749 -3.5278 -0.1284
  396MOL0     H53413   6.139  10.202   9.510  1.2871 -1.2325 -1.3553
  396MOL0     H53414   6.262  10.074   9.374 -0.3251  1.5876  0.5074
  396MOL0     H53415   6.145   9.942   9.347  1.4346 -0.6332 -0.4694
  396MOL0     H53416   6.121  10.209   9.226 -1.0071  0.9868  1.5359
  396MOL0     H53417   5.975  10.115   9.257  0.1024 -1.3637  0.4061
  396MOL0     H53418   6.086  10.084   9.021 -2.5833  2.3207  2.2812
  396MOL0     H53419   6.048   9.933   9.110 -3.4185  1.2374 -2.0949
  396MOL0     H53420   6.482   9.903   9.043  1.4645  0.7152  0.4110
  396MOL0     H53421   6.570   9.826   8.849 -0.2362 -1.8226 -0.3251
  396MOL0     H53422   6.818   9.668   8.622 -0.6873 -2.5497  1.0266
  396MOL0     H53423   6.949   9.551   8.450 -0.9528  0.7460  0.5297
  396MOL0     H53424   6.972   9.461   8.030  1.1119  3.2030 -1.0803
  396MOL0     H53425   6.819   9.541   8.038 -2.4870 -0.3700  3.3856
  396MOL0     H53426   6.954   9.732   8.130 -0.7588 -0.0656  0.0131
  396MOL0     H53427   7.111   9.624   8.107 -0.5805 -0.6661  2.1987
  396MOL0     H53428   7.052   9.601   7.881  1.3221  1.4315 -1.3158
  396MOL0     H53429   6.946   9.746   7.898 -0.7129 -2.0223 -0.1069
  396MOL0     H53430   7.261   9.747   7.971  2.0688  0.9525 -2.9261
  396MOL0     H53431   7.140   9.876   7.982 -1.8174 -0.4462  0.5267
  396MOL0     H53432   7.229   9.712   7.747  0.9843  0.6924 -0.5920
  396MOL0     H53433   7.304   9.865   7.790  0.4121  1.4769 -1.8122
  396MOL0     H53434   7.020   9.844   7.672  0.2661  0.4966 -0.6276
  396MOL0     H53435   7.065   9.980   7.763  0.3323 -2.7810  2.7958
  396MOL0     H53436   7.249   9.861   7.544  1.6140 -1.8890  4.0378
  396MOL0     H53437   7.242  10.028   7.604  1.9730 -0.2631 -3.1322
  396MOL0     H53438   7.032  10.071   7.510 -1.4493  0.7247 -0.8302
  396MOL0     H53439   7.128  10.009   7.372 -4.5081 -0.3228 -2.5797
  396MOL0     H53440   6.613   9.583   8.178  0.5760 -1.7664 -0.2936
  396MOL0     H53441   6.499   9.697   8.338 -0.5262  2.4468  2.2431
  396MOL0     H53442   6.180   9.833   8.665 -0.1172  0.3880 -0.0556
  396MOL0     H53443   6.084   9.896   8.875 -0.7509 -1.0248 -1.2219
  396MOL0     H53444   7.073  10.233   9.729 -0.7515 -0.9944  1.5050
  396MOL0     H53445   7.266  10.342   9.864 -0.5478  1.7598  2.5969
  396MOL0     H53446   7.383  10.857  10.096  1.0229  2.5159 -0.4935
  396MOL0     H53447   7.591  10.946  10.199 -3.0332 -0.7905 -0.3781
  396MOL0     H53448   7.955  10.848   9.995 -2.0128  0.9232  1.1024
  396MOL0     H53449   7.955  10.697  10.098  1.0540 -0.2417  0.4893
  396MOL0     H53450   8.167  10.835  10.111 -0.1680  2.7256 -1.7346
  396MOL0     H53451   8.075  10.836  10.272 -1.0805  0.8739  0.4987
  396MOL0     H53452   8.008  11.069  10.213 -0.2610 -2.5785  2.5071
  396MOL0     H53453   8.097  11.058  10.055 -1.6767 -0.1324  0.9238
  396MOL0     H53454   8.215  11.161  10.269 -2.2185  0.3330  0.0234
  396MOL0     H53455   8.254  10.993  10.302 -1.0469 -0.5722 -0.6085
  396MOL0     H53456   8.533  11.020   9.995  0.5554 -0.9971  1.4442
  396MOL0     H53457   7.817  10.681   9.945 -0.5067 -2.0092  0.6154
  396MOL0     H53458   7.545  10.495   9.817 -2.5016  0.7088 -5.5608
  396MOL0     H53459   7.593  10.626   9.710  0.9654  0.2983  0.7289
  396MOL0     H53460   7.719  10.534   9.796 -0.6878 -2.2055 -0.7094
  397MOL0     O53461   7.340   6.197   3.112 -0.7654  0.6260 -0.1428
  397MOL0     C53462   7.349   6.130   3.216  0.5352 -0.3845 -0.2040
  397MOL0     O53463   7.446   6.154   3.318  0.7518  0.5114 -0.3078
  397MOL0     C53464   7.528   6.268   3.310  0.3810  0.7881 -0.3217
  397MOL0     C53465   7.521   6.360   3.412 -0.1022  1.1428 -0.4273
  397MOL0     C53466   7.602   6.471   3.403 -0.3864  0.6656  0.1114
  397MOL0     C53467   7.681   6.494   3.290 -0.4884 -0.9457  0.0620
  397MOL0     O53468   7.753   6.611   3.272  0.6759 -0.6730  0.1118
  397MOL0     C53469   7.815   6.678   3.381 -0.1038  0.2049  0.6260
  397MOL0     C53470   7.914   6.789   3.345 -0.5488 -0.5424  1.0702
  397MOL0     C53471   7.877   6.890   3.231  0.3349  0.3012  0.5067
  397MOL0     C53472   7.726   6.936   3.224 -0.4917  0.4334 -0.1586
  397MOL0     C53473   7.708   7.067   3.151 -0.6477  0.1868  0.4412
  397MOL0     C53474   7.703   7.042   3.001 -0.1151  1.3495 -0.4195
  397MOL0     C53475   7.641   7.150   2.910  0.0335  0.2449  0.9313
  397MOL0     C53476   7.714   7.155   2.768 -0.1891  0.5371  0.0480
  397MOL0     N53477   7.680   7.038   2.678  0.2392  0.0775 -0.2129
  397MOL0     C53478   7.725   7.018   2.552 -0.2260  0.1384 -0.0233
  397MOL0     C53479   7.692   6.889   2.515 -0.1865  0.3213  0.1389
  397MOL0     C53480   7.714   6.828   2.380 -0.1036 -0.9987 -0.1567
  397MOL0     C53481   7.706   6.946   2.281 -0.0633 -0.2162 -0.0554
  397MOL0     C53482   7.740   6.932   2.134  0.7562  0.2869  0.0544
  397MOL0     C53483   7.677   6.808   2.087  0.6081  0.1881  0.7128
  397MOL0     O53484   7.694   6.797   1.945 -0.1476  0.4217 -0.6338
  397MOL0     C53485   7.631   6.896   1.868 -0.4678  1.0314  0.5870
  397MOL0     C53486   7.495   6.936   1.878  0.7599 -0.2278 -0.2488
  397MOL0     C53487   7.445   7.034   1.797  0.3658 -0.9067  0.3418
  397MOL0     C53488   7.525   7.099   1.706  0.3009 -0.3303  0.7062
  397MOL0     C53489   7.481   7.211   1.628  1.0792 -0.0776  0.2365
  397MOL0     O53490   7.563   7.241   1.522 -0.5329 -0.2736 -0.0015
  397MOL0     C53491   7.551   7.354   1.444 -0.3906  0.0827  0.7904
  397MOL0     C53492   7.433   7.411   1.404  0.0791 -0.1226  0.8433
  397MOL0     C53493   7.441   7.519   1.315  0.3924  0.2683  0.8381
  397MOL0     C53494   7.564   7.565   1.260  0.5271  0.9737 -0.4115
  397MOL0     O53495   7.555   7.666   1.170 -0.3294  0.3156 -0.2554
  397MOL0     C53496   7.492   7.786   1.232 -0.5711 -0.3007 -0.0081
  397MOL0     C53497   7.576   7.901   1.183 -0.7128 -0.0019 -0.1732
  397MOL0     C53498   7.523   8.035   1.196  0.6136  0.1889  0.1653
  397MOL0     C53499   7.392   8.058   1.118  0.9569  0.2555  0.1102
  397MOL0     C53500   7.390   8.209   1.062  0.4213  0.9553 -0.1136
  397MOL0     C53501   7.260   8.264   1.007 -0.2005  0.4634  1.0301
  397MOL0     C53502   7.161   8.273   1.121  1.0475  0.2481  1.0020
  397MOL0     C53503   7.027   8.330   1.083 -0.6511 -0.6998 -0.2447
  397MOL0    Cl53504   6.916   8.331   1.210 -0.0867 -0.7913 -0.3351
  397MOL0     C53505   7.680   7.507   1.302  0.8745  0.9293  0.1134
  397MOL0     C53506   7.680   7.403   1.399 -0.4389 -0.9451 -0.5072
  397MOL0     O53507   7.376   7.272   1.663 -0.6657  0.1440  0.8425
  397MOL0     C53508   7.662   7.057   1.708  0.0363 -0.5282  0.2992
  397MOL0     C53509   7.713   6.952   1.774  0.8333  0.7976  0.1753
  397MOL0     N53510   7.621   6.836   2.624  0.0730 -0.0839  0.2267
  397MOL0     N53511   7.604   6.934   2.708  0.1724 -0.1411 -0.3973
  397MOL0     C53512   7.686   6.400   3.190 -0.5794  0.3703  0.4399
  397MOL0     C53513   7.610   6.287   3.198  0.0257  0.4139  0.1923
  397MOL0     C53514   7.280   5.996   3.220  0.5712 -1.3709  0.3303
  397MOL0     C53515   7.287   5.916   3.330  0.5034  0.0038  0.2638
  397MOL0     C53516   7.219   5.797   3.350 -0.7951  0.0304 -0.7819
  397MOL0     C53517   7.127   5.762   3.253  0.3038  0.1714 -0.0231
  397MOL0     O53518   7.076   5.633   3.264  0.0181  0.7106  0.7050
  397MOL0     C53519   6.975   5.586   3.167 -0.6454  0.3368  0.3618
  397MOL0     C53520   6.944   5.433   3.181 -0.0088 -0.0017 -0.8810
  397MOL0     C53521   7.041   5.331   3.139 -0.4186  0.1619  0.1148
  397MOL0     C53522   7.167   5.327   3.217 -0.5443  0.2810  1.3108
  397MOL0     C53523   7.156   5.282   3.360 -0.4594  0.1755  0.2125
  397MOL0     C53524   7.136   5.255   3.475  0.0163 -0.1109 -1.1353
  397MOL0     C53525   7.109   5.840   3.140  0.3365 -0.2708 -0.8036
  397MOL0     C53526   7.183   5.958   3.116 -0.0878  0.0541  0.0981
  397MOL0     C53527   7.155   6.036   2.984 -0.5356  0.0357 -0.8742
  397MOL0     H53528   7.457   6.343   3.498 -0.0132 -1.6442 -0.8089
  397MOL0     H53529   7.597   6.536   3.489 -1.7126  0.7401  0.0027
  397MOL0     H53530   7.736   6.719   3.444 -1.6362  0.3481 -1.2869
  397MOL0     H53531   7.881   6.603   3.426  3.5131 -0.3042 -4.5572
  397MOL0     H53532   8.008   6.739   3.320  0.2516  0.7149  1.4665
  397MOL0     H53533   7.928   6.847   3.437 -2.0849 -1.3523  1.8675
  397MOL0     H53534   7.911   6.840   3.140 -1.1303 -0.4657  0.3486
  397MOL0     H53535   7.940   6.977   3.248  1.4239 -0.4426  0.3912
  397MOL0     H53536   7.665   6.854   3.186 -1.1948  2.7820 -4.7810
  397MOL0     H53537   7.689   6.955   3.326  0.5742  0.9236  0.1548
  397MOL0     H53538   7.609   7.102   3.182 -0.4598  0.3870  0.8163
  397MOL0     H53539   7.793   7.130   3.178  3.0245 -3.9287 -0.2643
  397MOL0     H53540   7.802   7.011   2.966 -0.7322  0.5537 -1.5166
  397MOL0     H53541   7.640   6.956   2.979 -0.3161  1.2549  0.4653
  397MOL0     H53542   7.653   7.246   2.961  0.4106  0.7096 -0.0032
  397MOL0     H53543   7.534   7.127   2.905  0.3686 -1.0999 -2.1626
  397MOL0     H53544   7.678   7.242   2.712  1.7750  1.8894  0.7980
  397MOL0     H53545   7.818   7.183   2.783 -0.6553  1.1189  2.5881
  397MOL0     H53546   7.782   7.089   2.493  0.8010 -0.3608  0.3510
  397MOL0     H53547   7.813   6.780   2.386  0.5179  0.3704  1.0849
  397MOL0     H53548   7.642   6.750   2.352 -1.7962  0.8500 -1.1671
  397MOL0     H53549   7.607   6.989   2.291  1.5112  3.1056  3.7373
  397MOL0     H53550   7.770   7.031   2.305  1.0288 -1.4372  1.5857
  397MOL0     H53551   7.847   6.913   2.121  0.9465  1.5584 -0.3940
  397MOL0     H53552   7.703   7.021   2.082  0.1363 -0.3172 -0.5691
  397MOL0     H53553   7.571   6.815   2.111 -0.0721  0.3667 -2.0260
  397MOL0     H53554   7.712   6.716   2.133 -0.9894  0.0842  1.7518
  397MOL0     H53555   7.440   6.901   1.965 -2.1713  1.7536 -1.1695
  397MOL0     H53556   7.341   7.059   1.816 -0.1373 -1.9137 -0.9291
  397MOL0     H53557   7.342   7.373   1.450  1.3629  0.2186  3.8804
  397MOL0     H53558   7.348   7.544   1.265  0.7499 -2.1830 -1.2603
  397MOL0     H53559   7.388   7.798   1.198 -0.7084  0.6102  0.6981
  397MOL0     H53560   7.490   7.773   1.340  0.3206 -0.9021 -0.0522
  397MOL0     H53561   7.674   7.901   1.233 -0.5168  0.8289 -0.5308
  397MOL0     H53562   7.597   7.890   1.076  0.3879 -0.4344  0.0749
  397MOL0     H53563   7.497   8.064   1.298 -1.7576  0.2666 -0.4096
  397MOL0     H53564   7.596   8.106   1.155  1.0255 -0.4568 -0.2493
  397MOL0     H53565   7.307   8.037   1.183 -1.6461  1.8934 -2.5282
  397MOL0     H53566   7.385   7.997   1.028 -0.7315  2.3779 -1.2584
  397MOL0     H53567   7.474   8.219   0.992 -0.7506  0.6742 -1.5970
  397MOL0     H53568   7.419   8.266   1.151  0.6535  0.6271  0.0255
  397MOL0     H53569   7.281   8.357   0.953  0.0113 -1.3281 -2.1981
  397MOL0     H53570   7.231   8.193   0.929  1.5938  1.6063 -0.7768
  397MOL0     H53571   7.204   8.317   1.211 -0.2047 -1.8513  2.7185
  397MOL0     H53572   7.142   8.169   1.151 -0.2124  0.5754  1.3737
  397MOL0     H53573   7.054   8.434   1.063 -0.7052 -1.0064 -2.0575
  397MOL0     H53574   6.999   8.290   0.985  0.5296 -1.2172 -0.3987
  397MOL0     H53575   7.765   7.532   1.239  1.5524 -2.1357 -0.3412
  397MOL0     H53576   7.771   7.349   1.426 -1.0086 -0.6182  2.4664
  397MOL0     H53577   7.734   7.107   1.644  0.0739  0.6979  1.2590
  397MOL0     H53578   7.814   6.913   1.771  0.9376  0.8577  1.8954
  397MOL0     H53579   7.754   6.414   3.107 -1.9208  0.9470 -0.6041
  397MOL0     H53580   7.599   6.221   3.112  1.2365 -1.0091  1.0741
  397MOL0     H53581   7.349   5.957   3.409 -1.6366  1.4875  1.2744
  397MOL0     H53582   7.234   5.738   3.440 -0.5715 -1.4798 -1.7849
  397MOL0     H53583   7.007   5.609   3.065  0.8698 -2.1236  0.2126
  397MOL0     H53584   6.880   5.638   3.184 -0.4879  0.9255 -0.4992
  397MOL0     H53585   6.851   5.420   3.126  0.6426 -1.7335 -1.6418
  397MOL0     H53586   6.918   5.411   3.285  2.9695 -2.5097 -0.4961
  397MOL0     H53587   7.074   5.341   3.035  0.9088  2.1970  0.6553
  397MOL0     H53588   6.993   5.234   3.153  0.3873 -0.6155 -2.0454
  397MOL0     H53589   7.221   5.241   3.177 -1.7343 -1.0894  2.5324
  397MOL0     H53590   7.235   5.409   3.195 -1.2857  0.8883  1.2418
  397MOL0     H53591   7.110   5.244   3.578 -1.7044  0.4921 -1.4662
  397MOL0     H53592   7.029   5.818   3.070  0.7909  2.0470 -2.1601
  397MOL0     H53593   7.115   6.131   3.021 -0.2277  0.0876 -0.6687
  397MOL0     H53594   7.236   6.046   2.911 -1.4639  1.6420 -1.7244
  397MOL0     H53595   7.075   5.994   2.923  0.1899  0.0044 -1.8261
  398MOL0     O53596   3.179   6.970   3.764 -0.0943  0.4967 -0.4545
  398MOL0     C53597   3.177   7.043   3.864  0.7005  0.2005  0.6505
  398MOL0     O53598   3.282   7.108   3.915  0.8696 -0.1294  1.0008
  398MOL0     C53599   3.406   7.104   3.863 -0.1697 -0.8158  0.2847
  398MOL0     C53600   3.432   7.116   3.725 -0.6336  0.1231  0.3631
  398MOL0     C53601   3.558   7.126   3.680 -0.2393 -0.5536 -0.4558
  398MOL0     C53602   3.667   7.116   3.766  1.4307 -0.6766 -0.8039
  398MOL0     O53603   3.801   7.124   3.725 -0.0388 -0.1180 -0.4545
  398MOL0     C53604   3.846   7.177   3.599 -0.1257 -0.0062  0.4515
  398MOL0     C53605   3.857   7.326   3.592  0.6987  0.1340 -0.3120
  398MOL0     C53606   3.993   7.381   3.644 -0.1985 -0.4536 -0.6090
  398MOL0     C53607   4.005   7.539   3.623  0.1144  0.3593 -0.3271
  398MOL0     C53608   3.972   7.584   3.481  0.7592 -0.0525 -0.9798
  398MOL0     C53609   4.035   7.720   3.447 -0.6401  0.3358 -0.2748
  398MOL0     C53610   3.972   7.785   3.326 -0.4403  0.0673  0.3896
  398MOL0     C53611   4.020   7.721   3.200  1.0076 -0.4795  0.9996
  398MOL0     N53612   3.902   7.736   3.108 -0.5307  0.6543 -0.7092
  398MOL0     C53613   3.812   7.643   3.069  0.3882 -0.6902  0.0641
  398MOL0     C53614   3.729   7.715   2.997 -0.2071 -0.4837 -0.2441
  398MOL0     C53615   3.609   7.656   2.922 -0.8534  0.4533 -0.5987
  398MOL0     C53616   3.598   7.733   2.781  0.9984  0.3041  0.1197
  398MOL0     C53617   3.486   7.657   2.710 -0.7422  0.0432  0.3931
  398MOL0     C53618   3.345   7.654   2.761  0.3475  0.1365  0.0754
  398MOL0     O53619   3.311   7.523   2.807  0.0034  0.2203  0.0224
  398MOL0     C53620   3.282   7.421   2.712 -0.7110 -0.6255 -0.0625
  398MOL0     C53621   3.282   7.438   2.572 -0.6806 -0.0571  0.2056
  398MOL0     C53622   3.262   7.329   2.483 -1.0864 -0.0042  0.4230
  398MOL0     C53623   3.223   7.202   2.535  0.1311 -0.4736  0.5408
  398MOL0     C53624   3.190   7.084   2.442 -0.5286  0.0055 -0.6264
  398MOL0     O53625   3.164   6.959   2.495  0.0249  0.2529 -0.4481
  398MOL0     C53626   3.142   6.853   2.408  0.0041 -0.0156 -0.2472
  398MOL0     C53627   3.035   6.777   2.387  0.7068  0.1654  0.0298
  398MOL0     C53628   3.021   6.670   2.304 -0.0973 -0.6554 -0.7258
  398MOL0     C53629   3.130   6.634   2.227  0.1611 -0.3154 -0.7871
  398MOL0     O53630   3.118   6.540   2.124 -0.4429  0.9761  0.8438
  398MOL0     C53631   3.038   6.428   2.141  0.0109  0.5514  0.0653
  398MOL0     C53632   3.105   6.291   2.177  0.3491 -0.5282  0.4103
  398MOL0     C53633   3.199   6.255   2.065 -0.4598  0.7735  0.5426
  398MOL0     C53634   3.268   6.107   2.091  0.9330 -0.5071  1.5495
  398MOL0     C53635   3.371   6.070   1.986  0.1401  0.6084 -0.3136
  398MOL0     C53636   3.298   6.035   1.849  0.3842 -0.7471  0.2104
  398MOL0     C53637   3.390   5.973   1.747 -0.0835 -0.2336 -0.1741
  398MOL0     C53638   3.322   5.960   1.605 -0.4183  0.5313  0.4841
  398MOL0    Cl53639   3.439   5.913   1.483  0.1178  0.6091  0.3283
  398MOL0     C53640   3.250   6.712   2.238  0.6427 -0.0728  0.2447
  398MOL0     C53641   3.253   6.824   2.327 -0.8413  0.1231 -0.1655
  398MOL0     O53642   3.173   7.113   2.324 -0.8658  0.7907  0.5542
  398MOL0     C53643   3.218   7.189   2.670  0.2137  0.0658  0.0656
  398MOL0     C53644   3.242   7.302   2.759  0.1005  0.4218 -0.7806
  398MOL0     N53645   3.763   7.851   2.989  0.8228  0.3543 -0.0172
  398MOL0     N53646   3.878   7.856   3.044  0.3185  0.8960 -0.2016
  398MOL0     C53647   3.647   7.096   3.904  0.4633  0.1874 -0.0051
  398MOL0     C53648   3.513   7.087   3.951 -0.0056  0.4889 -0.8261
  398MOL0     C53649   3.054   7.028   3.957 -0.3615  0.5557  1.1161
  398MOL0     C53650   3.085   7.002   4.088  0.4556  0.5580 -0.8107
  398MOL0     C53651   2.987   6.981   4.188 -0.0585  0.2416  0.4418
  398MOL0     C53652   2.853   6.994   4.143 -0.7399 -0.5167  1.0354
  398MOL0     O53653   2.759   6.959   4.240  1.2757  0.1440 -0.1130
  398MOL0     C53654   2.624   6.973   4.205  0.7291 -1.0330 -0.4446
  398MOL0     C53655   2.550   6.918   4.323  0.3513 -0.4119 -0.1708
  398MOL0     C53656   2.406   6.888   4.280  0.4990 -0.2111 -0.3696
  398MOL0     C53657   2.365   6.737   4.262 -0.5670  0.0113 -0.5085
  398MOL0     C53658   2.453   6.677   4.165 -0.4379 -0.4181 -0.1239
  398MOL0     C53659   2.521   6.645   4.069  0.2522 -0.1797 -0.1067
  398MOL0     C53660   2.818   7.037   4.009 -0.5233  0.3880  0.4032
  398MOL0     C53661   2.926   7.054   3.917  1.0912 -0.0464 -0.3742
  398MOL0     C53662   2.886   7.099   3.782  0.3312  0.1208  0.0005
  398MOL0     H53663   3.353   7.126   3.651  1.1633  0.7830 -1.5610
  398MOL0     H53664   3.568   7.128   3.572 -1.3314  3.0019 -0.6247
  398MOL0     H53665   3.942   7.131   3.569 -0.9186 -0.1345 -2.2020
  398MOL0     H53666   3.774   7.136   3.527  0.4461 -1.4756  0.6724
  398MOL0     H53667   3.779   7.375   3.651 -1.7488  2.9062 -5.1839
  398MOL0     H53668   3.850   7.354   3.486 -1.3976  0.2112 -0.1910
  398MOL0     H53669   4.078   7.335   3.592  1.1230  0.7215  0.4353
  398MOL0     H53670   4.008   7.363   3.751 -1.9531 -1.2953 -0.4791
  398MOL0     H53671   3.938   7.595   3.689  1.8379  0.6187  1.2937
  398MOL0     H53672   4.108   7.567   3.648  1.5582 -0.4266 -4.5717
  398MOL0     H53673   4.019   7.513   3.413  0.3078 -1.1004 -0.2390
  398MOL0     H53674   3.863   7.580   3.466  0.9742 -1.9688 -2.3517
  398MOL0     H53675   4.033   7.783   3.536 -4.9058 -0.3292  0.3195
  398MOL0     H53676   4.143   7.706   3.436 -0.1439  0.4030  3.4111
  398MOL0     H53677   3.999   7.891   3.319 -0.7664  0.0408 -4.1082
  398MOL0     H53678   3.864   7.792   3.338 -0.4357  1.3031 -0.0746
  398MOL0     H53679   4.108   7.770   3.156 -0.9927  2.7656  0.3297
  398MOL0     H53680   4.017   7.611   3.207  0.7396 -0.4989  0.5911
  398MOL0     H53681   3.813   7.537   3.088  0.7666 -0.5225  1.0523
  398MOL0     H53682   3.613   7.548   2.909  1.5088  0.1881  1.5546
  398MOL0     H53683   3.528   7.670   2.994 -2.0190 -3.1842 -1.0436
  398MOL0     H53684   3.569   7.838   2.790  0.1169  0.0240  0.8175
  398MOL0     H53685   3.698   7.719   2.739  1.6388 -1.9278  2.1379
  398MOL0     H53686   3.505   7.552   2.688 -0.2499  0.6342 -2.4425
  398MOL0     H53687   3.484   7.705   2.612  0.8949  1.1515  0.8467
  398MOL0     H53688   3.270   7.686   2.688  3.6321  1.7095 -2.8865
  398MOL0     H53689   3.342   7.722   2.847  1.4710 -0.2764  0.4592
  398MOL0     H53690   3.322   7.530   2.530  3.3748 -0.2319  3.1289
  398MOL0     H53691   3.266   7.346   2.376  1.0030  1.4774  0.6528
  398MOL0     H53692   2.957   6.812   2.454 -0.8479  3.1876 -3.0598
  398MOL0     H53693   2.921   6.627   2.298  0.7837 -2.6750 -1.7924
  398MOL0     H53694   2.966   6.451   2.221  2.1860 -0.7135  2.5311
  398MOL0     H53695   2.980   6.410   2.050  0.7675 -0.1388 -0.2951
  398MOL0     H53696   3.162   6.308   2.269  0.8746  1.6745 -0.2776
  398MOL0     H53697   3.024   6.218   2.188 -0.5990  0.4516  0.0665
  398MOL0     H53698   3.156   6.270   1.966  0.5438  1.3257  0.1693
  398MOL0     H53699   3.282   6.326   2.073 -0.9367  1.5427 -1.0647
  398MOL0     H53700   3.192   6.030   2.110 -1.1031  0.8948 -0.3678
  398MOL0     H53701   3.322   6.117   2.186 -4.0769 -0.4796  4.7921
  398MOL0     H53702   3.415   5.980   2.028 -0.2041  0.4525 -0.2792
  398MOL0     H53703   3.446   6.149   1.978  0.8198  0.0629  0.5933
  398MOL0     H53704   3.209   5.976   1.870  1.3574 -1.9106  1.1978
  398MOL0     H53705   3.258   6.133   1.821  0.4295  0.2015  3.1425
  398MOL0     H53706   3.416   5.874   1.788  2.7926  0.3109 -0.4835
  398MOL0     H53707   3.481   6.033   1.741  0.1145 -0.0765  2.8941
  398MOL0     H53708   3.250   5.878   1.603  0.6688 -0.5316  2.3363
  398MOL0     H53709   3.267   6.050   1.575 -2.2690 -0.3389  1.1652
  398MOL0     H53710   3.313   6.714   2.149  1.1819 -0.1431  0.6225
  398MOL0     H53711   3.332   6.894   2.303 -0.3451  0.0539  1.2048
  398MOL0     H53712   3.195   7.093   2.714 -3.0310  1.7354  2.4393
  398MOL0     H53713   3.242   7.280   2.865  1.6339  1.2567 -0.5816
  398MOL0     H53714   3.718   7.089   3.986 -0.4544  3.6007  1.2295
  398MOL0     H53715   3.500   7.077   4.058  2.9282 -1.0835 -0.4967
  398MOL0     H53716   3.189   6.986   4.114 -1.0756 -4.2610  4.1154
  398MOL0     H53717   2.994   6.959   4.294  1.5512  0.7789  0.4675
  398MOL0     H53718   2.606   6.914   4.115  0.3702 -4.3916  1.6725
  398MOL0     H53719   2.600   7.079   4.192 -0.2194 -1.4373 -2.2768
  398MOL0     H53720   2.554   6.998   4.398 -2.4516 -0.8893  0.5990
  398MOL0     H53721   2.600   6.828   4.360 -1.4105 -0.3320  2.6674
  398MOL0     H53722   2.373   6.954   4.199  0.5492 -0.0714 -0.2774
  398MOL0     H53723   2.347   6.916   4.368  0.5936  1.7960 -0.8850
  398MOL0     H53724   2.369   6.678   4.354 -0.6152  0.7334 -0.0346
  398MOL0     H53725   2.262   6.729   4.226 -0.6311  1.8909 -0.8419
  398MOL0     H53726   2.577   6.607   3.986  0.8853  0.8173 -0.1557
  398MOL0     H53727   2.717   7.055   3.973 -0.8864 -3.0063 -0.6707
  398MOL0     H53728   2.942   7.192   3.766  0.3625 -0.2293 -2.3351
  398MOL0     H53729   2.910   7.022   3.707 -0.0832 -0.5587  0.5495
  398MOL0     H53730   2.783   7.134   3.768 -0.1337 -1.0645  0.2934
  399MOL0     O53731   1.485   5.703   7.895 -0.3399  0.2445 -0.2981
  399MOL0     C53732   1.575   5.642   7.830  0.0498  0.4051 -1.4035
  399MOL0     O53733   1.653   5.689   7.723  0.3281 -0.4192  0.4218
  399MOL0     C53734   1.629   5.811   7.663  1.1168 -0.3087  0.4273
  399MOL0     C53735   1.734   5.869   7.612  0.5548  0.0701 -0.0052
  399MOL0     C53736   1.718   5.999   7.564 -0.8354  0.4601 -0.5269
  399MOL0     C53737   1.599   6.059   7.543  0.1346  0.2525  0.3090
  399MOL0     O53738   1.607   6.179   7.475 -0.4661  0.1403 -1.0408
  399MOL0     C53739   1.486   6.251   7.459  0.5683  0.8655 -0.1751
  399MOL0     C53740   1.529   6.365   7.367 -0.1683 -0.4345 -0.9276
  399MOL0     C53741   1.567   6.314   7.222 -0.0179  0.6287  0.2217
  399MOL0     C53742   1.568   6.422   7.124 -0.8865 -0.2475 -0.8509
  399MOL0     C53743   1.581   6.361   6.988  0.3771  0.5995  0.4281
  399MOL0     C53744   1.705   6.282   6.974 -0.2299  0.8828  0.0617
  399MOL0     C53745   1.743   6.262   6.826  0.6642 -0.3053  1.0016
  399MOL0     C53746   1.889   6.220   6.816  0.8147  0.1697  1.0610
  399MOL0     N53747   1.991   6.327   6.802 -0.9589 -0.1804 -0.1048
  399MOL0     C53748   2.122   6.333   6.840  0.4781  1.2456  1.1553
  399MOL0     C53749   2.172   6.436   6.783  0.2367 -0.7253  0.1514
  399MOL0     C53750   2.314   6.484   6.794  0.0947 -0.2325  0.7955
  399MOL0     C53751   2.378   6.502   6.657 -0.1929  0.2375  0.2194
  399MOL0     C53752   2.521   6.526   6.646  0.7241  0.2728 -0.6394
  399MOL0     C53753   2.562   6.587   6.511  0.3302  0.7012 -0.0903
  399MOL0     O53754   2.707   6.582   6.502  0.0969  0.1390 -0.1050
  399MOL0     C53755   2.763   6.474   6.444  0.4398  0.2646 -0.4373
  399MOL0     C53756   2.891   6.471   6.489 -0.3350  0.1861  0.2747
  399MOL0     C53757   2.968   6.353   6.462 -0.0129  0.0117  0.0850
  399MOL0     C53758   2.918   6.241   6.400  0.4994  0.7976  0.4556
  399MOL0     C53759   3.003   6.123   6.372 -0.0185  0.0192  0.4574
  399MOL0     O53760   3.125   6.118   6.424  0.4795 -0.0439  0.5426
  399MOL0     C53761   3.200   6.012   6.372  0.6548 -0.8681 -0.5858
  399MOL0     C53762   3.204   5.895   6.438  0.8639  0.0559  0.9726
  399MOL0     C53763   3.279   5.786   6.385  0.8171 -0.8829 -0.8346
  399MOL0     C53764   3.349   5.802   6.262  0.7668  0.1856  0.0778
  399MOL0     O53765   3.428   5.708   6.205  0.2098  0.0837  0.3666
  399MOL0     C53766   3.387   5.570   6.234 -0.4661 -0.7203 -0.4367
  399MOL0     C53767   3.249   5.517   6.174  0.0254 -0.0313 -0.0957
  399MOL0     C53768   3.233   5.365   6.225  0.4638 -0.1563  0.1139
  399MOL0     C53769   3.310   5.266   6.141 -0.2446  0.0460  0.5746
  399MOL0     C53770   3.268   5.119   6.189 -0.4403  1.0782 -0.4020
  399MOL0     C53771   3.162   5.053   6.095  0.3164  0.3751  0.5383
  399MOL0     C53772   3.217   4.987   5.972 -0.3933  0.5810 -0.2686
  399MOL0     C53773   3.277   4.848   6.006  0.3402  0.4334 -0.2523
  399MOL0    Cl53774   3.264   4.741   5.866 -0.1264 -0.2294  0.7250
  399MOL0     C53775   3.341   5.923   6.186  0.1130  0.8263  0.3730
  399MOL0     C53776   3.255   6.024   6.243 -0.2540 -0.1754 -0.0149
  399MOL0     O53777   2.959   6.034   6.308  0.3870  0.3802  1.2098
  399MOL0     C53778   2.787   6.253   6.346 -0.4377 -0.4057 -0.1015
  399MOL0     C53779   2.715   6.369   6.368  0.6750  0.4292 -0.3785
  399MOL0     N53780   2.081   6.499   6.699 -0.4667 -0.2067  0.1196
  399MOL0     N53781   1.978   6.419   6.715  0.2369 -0.1976  0.1105
  399MOL0     C53782   1.487   6.000   7.596 -0.5105  0.1764 -0.0661
  399MOL0     C53783   1.498   5.873   7.651  0.0678  0.4767 -0.1832
  399MOL0     C53784   1.614   5.496   7.879 -0.1613 -0.9366  0.4838
  399MOL0     C53785   1.725   5.440   7.812  0.4025 -1.2851 -0.2823
  399MOL0     C53786   1.768   5.321   7.862  0.4081  0.8698 -0.2613
  399MOL0     C53787   1.698   5.242   7.956  0.3850 -0.2389  1.0052
  399MOL0     O53788   1.743   5.117   7.986 -0.9179 -1.1490  0.1501
  399MOL0     C53789   1.672   5.018   7.918 -0.4342 -0.2351  1.1448
  399MOL0     C53790   1.604   4.937   8.029  0.2550  0.6548 -0.0100
  399MOL0     C53791   1.495   4.837   7.993  0.3499  0.4989  0.0259
  399MOL0     C53792   1.531   4.745   7.886  0.0688  0.1285  1.0555
  399MOL0     C53793   1.648   4.665   7.921 -0.1739  0.0833 -0.0027
  399MOL0     C53794   1.734   4.590   7.979  0.0358  0.7259  0.1350
  399MOL0     C53795   1.581   5.295   8.018  0.3924 -0.6395  0.6834
  399MOL0     C53796   1.529   5.422   7.973 -0.3796 -0.2236  0.2752
  399MOL0     C53797   1.399   5.485   8.037 -0.4586 -0.0677 -0.8672
  399MOL0     H53798   1.829   5.817   7.596  1.0375  1.1950 -0.9708
  399MOL0     H53799   1.809   6.037   7.518  0.0589 -3.9016 -2.9059
  399MOL0     H53800   1.409   6.182   7.423  2.4292 -0.6842 -1.4255
  399MOL0     H53801   1.443   6.283   7.554 -2.4000  0.0685 -1.1361
  399MOL0     H53802   1.613   6.425   7.405 -1.4908  0.3627  0.8785
  399MOL0     H53803   1.438   6.426   7.369 -1.0522 -1.2828  5.3317
  399MOL0     H53804   1.503   6.227   7.204  1.4869 -0.7143  1.0805
  399MOL0     H53805   1.671   6.283   7.235 -0.2474 -0.5035 -0.5200
  399MOL0     H53806   1.475   6.479   7.136 -0.0680  1.0462 -0.3937
  399MOL0     H53807   1.653   6.489   7.143 -0.2343 -1.8168  2.5984
  399MOL0     H53808   1.490   6.301   6.978  1.5083 -0.9755 -0.8575
  399MOL0     H53809   1.572   6.445   6.919  0.4484  2.6129  2.7542
  399MOL0     H53810   1.786   6.334   7.026  2.1309 -1.2056 -1.2690
  399MOL0     H53811   1.690   6.181   7.012 -1.0459  0.4573 -1.3029
  399MOL0     H53812   1.738   6.362   6.783 -2.5400  0.3767  2.6715
  399MOL0     H53813   1.700   6.183   6.763  1.8852  1.6819 -2.6323
  399MOL0     H53814   1.909   6.162   6.907 -2.4752 -0.3964  1.5483
  399MOL0     H53815   1.912   6.157   6.730  0.1746  0.6071  0.5625
  399MOL0     H53816   2.187   6.267   6.897  1.5357  0.1076 -1.2185
  399MOL0     H53817   2.327   6.581   6.844  1.8037  0.9695 -1.7491
  399MOL0     H53818   2.364   6.409   6.856  0.1061  2.9675  5.1882
  399MOL0     H53819   2.347   6.409   6.610  0.4890 -0.5069  1.2108
  399MOL0     H53820   2.331   6.591   6.614  2.4309  1.6130 -0.0306
  399MOL0     H53821   2.579   6.438   6.677  2.7037  0.8811 -2.4256
  399MOL0     H53822   2.550   6.600   6.721  1.5091 -0.9097  0.2843
  399MOL0     H53823   2.524   6.689   6.513  0.1580  0.6213  1.9582
  399MOL0     H53824   2.516   6.538   6.424  0.9763  0.8859 -0.5462
  399MOL0     H53825   2.934   6.556   6.540  0.3429  1.4031 -2.1402
  399MOL0     H53826   3.070   6.347   6.498  0.6215 -1.2880 -1.7817
  399MOL0     H53827   3.141   5.880   6.525  0.6018 -3.2817  0.3675
  399MOL0     H53828   3.266   5.696   6.445 -1.9402  1.3005  2.2361
  399MOL0     H53829   3.466   5.508   6.190  0.6945  0.9539 -0.8021
  399MOL0     H53830   3.399   5.558   6.342  0.1072  2.1183 -0.1132
  399MOL0     H53831   3.163   5.578   6.205  1.9613  1.9429  1.7699
  399MOL0     H53832   3.253   5.511   6.065 -0.9758 -1.1875 -0.0875
  399MOL0     H53833   3.243   5.347   6.333 -3.3038 -2.6062  0.2431
  399MOL0     H53834   3.127   5.344   6.210  0.5972  0.9044 -2.9808
  399MOL0     H53835   3.417   5.277   6.165 -0.4603 -0.7762  2.0412
  399MOL0     H53836   3.300   5.274   6.032 -0.1022  4.0345  0.7063
  399MOL0     H53837   3.224   5.128   6.289 -1.8333 -0.8205 -0.7965
  399MOL0     H53838   3.356   5.056   6.188 -0.3420  1.2196 -0.9739
  399MOL0     H53839   3.106   4.973   6.144  0.2527 -1.6712 -2.5276
  399MOL0     H53840   3.089   5.128   6.064  1.5495  0.0137 -3.9649
  399MOL0     H53841   3.289   5.048   5.917 -0.4151 -0.6374 -1.7141
  399MOL0     H53842   3.135   4.982   5.900  2.1445  0.2579 -3.3168
  399MOL0     H53843   3.382   4.870   6.029  0.3334 -1.6404  2.3709
  399MOL0     H53844   3.232   4.795   6.091  1.1391 -2.6755 -1.6325
  399MOL0     H53845   3.388   5.940   6.090  1.6803  0.5556  1.0604
  399MOL0     H53846   3.246   6.117   6.188 -0.8122 -1.1475 -1.6455
  399MOL0     H53847   2.744   6.172   6.287  0.0174 -0.8649  0.1822
  399MOL0     H53848   2.615   6.373   6.326  1.6914  0.6309 -2.9835
  399MOL0     H53849   1.385   6.037   7.592 -0.2283  0.9363 -0.3259
  399MOL0     H53850   1.402   5.834   7.683  0.0686  0.1050 -0.6206
  399MOL0     H53851   1.782   5.483   7.731 -1.3475 -2.8079 -2.4394
  399MOL0     H53852   1.855   5.269   7.823 -0.7009 -0.6491 -0.7741
  399MOL0     H53853   1.742   4.962   7.857  0.9432  0.7207  1.7985
  399MOL0     H53854   1.590   5.065   7.863  1.1319 -0.3273 -1.4186
  399MOL0     H53855   1.550   5.000   8.100 -1.3446 -0.3111 -0.3189
  399MOL0     H53856   1.679   4.891   8.095 -0.8736  2.5503  2.8021
  399MOL0     H53857   1.408   4.899   7.969  0.3524  1.2527  1.8301
  399MOL0     H53858   1.487   4.787   8.090  0.8572  0.1057 -0.1332
  399MOL0     H53859   1.453   4.674   7.858  2.3591 -1.6964 -1.2104
  399MOL0     H53860   1.553   4.806   7.798 -1.6852 -0.2241  0.3420
  399MOL0     H53861   1.797   4.523   8.033  0.1686 -0.3246 -1.2779
  399MOL0     H53862   1.520   5.248   8.095 -1.1734 -3.3720 -1.9683
  399MOL0     H53863   1.331   5.496   7.952  1.3538 -1.1964 -2.5503
  399MOL0     H53864   1.354   5.439   8.125 -2.3238  0.8684 -1.2801
  399MOL0     H53865   1.422   5.584   8.078 -4.0808  0.5549 -0.0012
  400MOL0     O53866  11.025   2.648   7.660 -0.3810 -0.6610 -0.0417
  400MOL0     C53867  11.068   2.758   7.624  0.1836 -0.0053  0.7267
  400MOL0     O53868  11.062   2.807   7.496  0.2594 -0.8680  0.2877
  400MOL0     C53869  10.967   2.766   7.403 -0.6837  0.0167 -0.0828
  400MOL0     C53870  10.862   2.850   7.374  0.6974 -0.5863  0.3698
  400MOL0     C53871  10.787   2.827   7.254 -0.0242  0.3567 -0.3460
  400MOL0     C53872  10.803   2.709   7.183 -0.2153 -0.7918  1.4105
  400MOL0     O53873  10.736   2.662   7.075  0.1447 -0.3345  0.2192
  400MOL0     C53874  10.597   2.696   7.062 -1.0494 -0.9145  0.0753
  400MOL0     C53875  10.528   2.645   7.193 -0.1946 -0.2912  1.3656
  400MOL0     C53876  10.374   2.615   7.162 -0.7123 -0.3002  0.2396
  400MOL0     C53877  10.285   2.570   7.276 -0.5074  0.8904  0.9001
  400MOL0     C53878  10.140   2.541   7.217 -0.8151  0.3577 -0.0303
  400MOL0     C53879  10.032   2.494   7.315 -0.1237 -0.4735 -0.1706
  400MOL0     C53880  10.019   2.592   7.439  0.8190  0.2871  0.2230
  400MOL0     C53881   9.897   2.542   7.522  0.1351  0.0761 -0.8491
  400MOL0     N53882   9.773   2.525   7.448 -0.0602  0.5243 -0.5306
  400MOL0     C53883   9.712   2.400   7.412 -0.3894  0.1478  0.6590
  400MOL0     C53884   9.602   2.438   7.338  0.2973 -0.4786  0.7202
  400MOL0     C53885   9.505   2.346   7.258 -0.1161  0.5935  0.2725
  400MOL0     C53886   9.369   2.328   7.332  0.1070 -0.2439  0.3683
  400MOL0     C53887   9.390   2.255   7.466  0.1292 -0.5409  0.0588
  400MOL0     C53888   9.259   2.262   7.554 -1.3425 -0.6476  0.6952
  400MOL0     O53889   9.154   2.199   7.490  0.2919 -0.6188 -0.0669
  400MOL0     C53890   9.051   2.147   7.569 -0.8356 -0.2753  0.4504
  400MOL0     C53891   9.003   2.226   7.673  1.0489  0.5397 -0.1920
  400MOL0     C53892   8.895   2.171   7.748  0.2259  0.3889  0.0374
  400MOL0     C53893   8.839   2.051   7.708  0.7056  0.2699 -0.3536
  400MOL0     C53894   8.720   1.995   7.773  0.3446 -0.2533 -0.1672
  400MOL0     O53895   8.663   1.896   7.706 -0.1250 -0.0477 -0.1354
  400MOL0     C53896   8.528   1.876   7.717  0.0574  0.3013  0.5721
  400MOL0     C53897   8.436   1.938   7.630  0.6097 -0.3060 -0.6205
  400MOL0     C53898   8.297   1.928   7.656  0.1613  0.2863  0.2851
  400MOL0     C53899   8.245   1.856   7.768 -1.4678  0.0025  0.5592
  400MOL0     O53900   8.110   1.842   7.774  0.3388  0.0814  0.2514
  400MOL0     C53901   8.051   1.788   7.891  0.4593 -0.0925  0.1087
  400MOL0     C53902   8.047   1.632   7.882  0.4421  0.2466 -0.4796
  400MOL0     C53903   7.905   1.582   7.845  0.0748 -0.1141 -0.1324
  400MOL0     C53904   7.913   1.440   7.811 -0.5954 -0.4094 -0.2813
  400MOL0     C53905   7.926   1.358   7.939  0.0559  0.4456  0.8386
  400MOL0     C53906   7.925   1.211   7.901  0.9411 -0.9840 -0.0066
  400MOL0     C53907   7.798   1.149   7.866 -0.9144  0.3632 -0.0425
  400MOL0     C53908   7.697   1.147   7.984  0.5694 -0.0861  0.6088
  400MOL0    Cl53909   7.727   1.036   8.105 -0.0317  0.3304 -0.0816
  400MOL0     C53910   8.334   1.775   7.843 -0.8145  0.3454 -0.1469
  400MOL0     C53911   8.475   1.785   7.818 -0.3061  0.1800  0.3939
  400MOL0     O53912   8.679   2.041   7.876 -0.7125  1.1716 -0.5431
  400MOL0     C53913   8.883   1.983   7.588 -0.0443  0.4093  0.2169
  400MOL0     C53914   8.998   2.026   7.525  0.9482  0.0180  0.3863
  400MOL0     N53915   9.604   2.575   7.329  0.4919  0.0588  0.8257
  400MOL0     N53916   9.690   2.623   7.406 -1.5934  0.4654 -0.2801
  400MOL0     C53917  10.903   2.619   7.228 -0.6853  0.9257  0.0438
  400MOL0     C53918  10.986   2.650   7.334 -0.6372  0.3908 -0.6462
  400MOL0     C53919  11.170   2.835   7.712 -0.0565 -0.1769  0.3175
  400MOL0     C53920  11.131   2.857   7.843  0.6591 -0.1365 -0.7738
  400MOL0     C53921  11.205   2.936   7.922  0.4431 -0.2595  0.2516
  400MOL0     C53922  11.315   3.005   7.872 -0.4475  0.3352 -0.2695
  400MOL0     O53923  11.377   3.108   7.938  0.6212 -0.7080 -0.2085
  400MOL0     C53924  11.301   3.205   8.013  0.2770 -0.0501  0.2122
  400MOL0     C53925  11.342   3.196   8.159  0.2833  0.0320  0.6459
  400MOL0     C53926  11.421   3.313   8.207  0.4888 -0.3013  0.7427
  400MOL0     C53927  11.556   3.339   8.144 -0.7450  0.2647 -0.3130
  400MOL0     C53928  11.611   3.448   8.230 -1.1739  0.3779  0.5217
  400MOL0     C53929  11.654   3.540   8.294 -0.1754 -0.8031  0.1005
  400MOL0     C53930  11.351   2.983   7.739 -0.5059  0.2416  0.1306
  400MOL0     C53931  11.287   2.897   7.656 -0.2539  1.2424  0.4482
  400MOL0     C53932  11.352   2.864   7.522 -0.7524  0.1457  0.3881
  400MOL0     H53933  10.836   2.941   7.425  3.7279  2.4415 -2.9307
  400MOL0     H53934  10.711   2.894   7.213  2.2589  1.9131 -2.3010
  400MOL0     H53935  10.586   2.802   7.038  0.1617 -0.7930 -0.0052
  400MOL0     H53936  10.550   2.643   6.978 -0.7785  0.3399 -0.8822
  400MOL0     H53937  10.537   2.714   7.278 -1.8253  0.2999  1.1015
  400MOL0     H53938  10.580   2.551   7.214 -1.2230 -2.0577 -3.0137
  400MOL0     H53939  10.372   2.547   7.077  1.4669  1.0216 -0.9394
  400MOL0     H53940  10.327   2.705   7.122 -0.0400 -0.3259 -0.6397
  400MOL0     H53941  10.330   2.478   7.316  0.0180  0.6485 -0.1939
  400MOL0     H53942  10.276   2.644   7.355  2.5919 -0.3391  2.5867
  400MOL0     H53943  10.090   2.628   7.174 -1.4026  0.9751  1.8529
  400MOL0     H53944  10.159   2.477   7.130  1.6109  2.5508 -1.2605
  400MOL0     H53945   9.937   2.492   7.262  0.9869  0.3154 -2.3164
  400MOL0     H53946  10.056   2.391   7.343  1.9834 -0.0475 -0.2052
  400MOL0     H53947   9.989   2.688   7.397  0.7112 -0.1674 -0.7745
  400MOL0     H53948  10.115   2.597   7.492 -0.2658 -1.9269  2.5912
  400MOL0     H53949   9.914   2.450   7.577  0.3792 -0.6068 -2.0228
  400MOL0     H53950   9.872   2.622   7.592 -0.0834 -0.0156 -0.8234
  400MOL0     H53951   9.735   2.300   7.446 -0.1936  0.3198  1.0420
  400MOL0     H53952   9.492   2.396   7.162  3.5167  2.3182  0.4988
  400MOL0     H53953   9.544   2.247   7.233 -0.9817  0.7156 -1.7164
  400MOL0     H53954   9.315   2.422   7.345 -2.5631 -1.5760 -0.2573
  400MOL0     H53955   9.297   2.274   7.270 -0.5991  2.2878 -1.1931
  400MOL0     H53956   9.467   2.313   7.517 -0.5602 -0.2499  0.7857
  400MOL0     H53957   9.415   2.149   7.453 -0.1630 -0.5492 -0.4822
  400MOL0     H53958   9.241   2.368   7.574  0.9784  0.2133 -1.2953
  400MOL0     H53959   9.288   2.217   7.649  0.1514 -2.3556 -0.5007
  400MOL0     H53960   9.056   2.314   7.708  1.1512  0.9020 -1.2477
  400MOL0     H53961   8.869   2.225   7.839  0.7211 -1.2911  1.2265
  400MOL0     H53962   8.470   2.000   7.547  1.6720  1.3626  0.9990
  400MOL0     H53963   8.229   1.982   7.591  0.3814 -0.3631 -0.4989
  400MOL0     H53964   8.099   1.826   7.981  0.8351 -0.9566  0.2826
  400MOL0     H53965   7.949   1.829   7.892  1.0683  1.4779  1.5735
  400MOL0     H53966   8.120   1.595   7.810 -2.1104 -0.7002 -2.7117
  400MOL0     H53967   8.059   1.585   7.980 -2.8069  1.6546  0.7212
  400MOL0     H53968   7.838   1.594   7.931  3.6743 -2.2875  3.3477
  400MOL0     H53969   7.870   1.632   7.754 -1.7334  0.8252  1.0203
  400MOL0     H53970   8.000   1.416   7.750 -0.4199 -0.8727  0.1428
  400MOL0     H53971   7.822   1.414   7.756  0.7230  0.7203 -3.1861
  400MOL0     H53972   7.834   1.390   7.988 -3.2389 -2.1702 -3.0775
  400MOL0     H53973   8.009   1.377   8.009  1.2384 -1.9699  0.2275
  400MOL0     H53974   7.988   1.190   7.813  2.0573 -0.8607  0.7393
  400MOL0     H53975   7.965   1.160   7.989  0.3555 -0.9008  0.3091
  400MOL0     H53976   7.805   1.042   7.846 -0.1256 -0.0456  2.1357
  400MOL0     H53977   7.751   1.196   7.780  0.1958  2.7695  0.5815
  400MOL0     H53978   7.678   1.250   8.017  0.1323  0.4813 -1.2950
  400MOL0     H53979   7.603   1.105   7.949 -0.0042 -0.9106  2.9418
  400MOL0     H53980   8.304   1.712   7.926 -2.1798  4.7816  3.1220
  400MOL0     H53981   8.547   1.726   7.874  1.4233  1.1257 -0.7247
  400MOL0     H53982   8.839   1.887   7.563  0.0088  0.6046 -0.6713
  400MOL0     H53983   9.042   1.978   7.439  1.3587  0.6699  0.2325
  400MOL0     H53984  10.907   2.526   7.173  0.3324  0.4123  0.9392
  400MOL0     H53985  11.068   2.580   7.353 -1.8378 -1.2894 -1.4337
  400MOL0     H53986  11.040   2.805   7.873  0.7884  2.2045  4.9756
  400MOL0     H53987  11.176   2.953   8.026  0.6150 -1.7049  0.5546
  400MOL0     H53988  11.193   3.186   8.007  0.2926 -0.1263  0.1827
  400MOL0     H53989  11.328   3.303   7.973  1.7564 -0.7904 -0.7015
  400MOL0     H53990  11.377   3.096   8.184 -4.8428 -2.3403 -0.3030
  400MOL0     H53991  11.245   3.184   8.209 -0.7338  1.3602 -0.8815
  400MOL0     H53992  11.423   3.295   8.315 -1.8138  0.1745  0.9195
  400MOL0     H53993  11.361   3.405   8.199  1.3957  0.2528  0.0877
  400MOL0     H53994  11.621   3.251   8.147  0.8539  1.4300  1.1433
  400MOL0     H53995  11.538   3.358   8.037  0.8359  2.0896 -0.3028
  400MOL0     H53996  11.720   3.605   8.349  0.5010 -1.5393  0.1661
  400MOL0     H53997  11.443   3.028   7.703 -0.6199 -0.0969 -0.6000
  400MOL0     H53998  11.459   2.887   7.517 -1.2299  2.3710 -0.9992
  400MOL0     H53999  11.349   2.756   7.502 -2.4254 -0.2573  2.4843
  400MOL0     H54000  11.303   2.927   7.447 -0.9435  0.0088  0.3980
  401MOL0     O54001   9.619  10.624   4.515 -0.8739  0.3592  0.1663
  401MOL0     C54002   9.575  10.634   4.399  0.7327  0.4243 -0.3215
  401MOL0     O54003   9.654  10.606   4.283  1.0937 -0.1714  0.2785
  401MOL0     C54004   9.781  10.550   4.295 -0.4661 -0.1910  0.2942
  401MOL0     C54005   9.797  10.414   4.274 -0.3567  0.8067  0.1295
  401MOL0     C54006   9.924  10.366   4.301  0.3643  0.1101  1.0284
  401MOL0     C54007  10.042  10.452   4.319 -1.4398  0.4548 -0.3853
  401MOL0     O54008  10.172  10.412   4.339 -0.0197 -0.4417 -0.5878
  401MOL0     C54009  10.189  10.289   4.414  0.5732 -0.7133 -0.6319
  401MOL0     C54010  10.340  10.271   4.432 -0.3436 -0.4199 -0.1582
  401MOL0     C54011  10.400  10.382   4.512 -0.0313 -0.4390 -0.5046
  401MOL0     C54012  10.555  10.368   4.516  0.2664 -0.3599  0.1059
  401MOL0     C54013  10.617  10.479   4.607  0.1699  0.1649  0.4854
  401MOL0     C54014  10.588  10.628   4.571  0.6252 -0.4007 -0.1202
  401MOL0     C54015  10.639  10.666   4.431  0.2810 -0.0264 -0.7294
  401MOL0     C54016  10.646  10.817   4.421 -0.5336 -0.5002 -0.5449
  401MOL0     N54017  10.747  10.889   4.504 -0.3417 -0.1880 -0.1659
  401MOL0     C54018  10.769  11.021   4.495  0.7786  0.1314 -0.0252
  401MOL0     C54019  10.864  11.050   4.585  0.8011  0.2651  0.0654
  401MOL0     C54020  10.924  11.185   4.612  0.5911  0.1271 -0.0305
  401MOL0     C54021  11.061  11.164   4.680 -0.7102  0.2042  0.2640
  401MOL0     C54022  11.143  11.292   4.684 -0.1376 -0.4394  0.2470
  401MOL0     C54023  11.279  11.297   4.756 -0.0841 -0.1864 -1.1000
  401MOL0     O54024  11.311  11.442   4.765 -0.2763  0.4809 -0.0289
  401MOL0     C54025  11.434  11.464   4.832  0.3749 -0.2670  0.2806
  401MOL0     C54026  11.508  11.367   4.893 -0.0072  0.1896  0.4516
  401MOL0     C54027  11.633  11.393   4.943  0.6283  0.5822  0.7411
  401MOL0     C54028  11.685  11.520   4.923 -0.7207 -0.0680 -0.3093
  401MOL0     C54029  11.825  11.537   4.979 -0.4026 -0.9023  0.2141
  401MOL0     O54030  11.881  11.434   5.056  0.4604  0.0945 -0.4888
  401MOL0     C54031  11.949  11.464   5.173 -0.4872  0.1718  0.7235
  401MOL0     C54032  12.087  11.496   5.161 -0.1633 -0.0961  0.0264
  401MOL0     C54033  12.171  11.490   5.273  0.3609 -0.3513  0.8692
  401MOL0     C54034  12.119  11.470   5.401  0.5126  0.1544  1.0171
  401MOL0     O54035  12.189  11.465   5.518 -0.4272 -0.2737  0.7513
  401MOL0     C54036  12.277  11.568   5.554  0.0213 -0.2439 -0.1464
  401MOL0     C54037  12.340  11.525   5.677  0.9928  0.3385 -0.7622
  401MOL0     C54038  12.423  11.626   5.757  0.6531 -0.4729  0.8097
  401MOL0     C54039  12.563  11.660   5.707  0.6699 -0.2459  0.6667
  401MOL0     C54040  12.626  11.776   5.773 -0.8160 -0.3699  0.2009
  401MOL0     C54041  12.775  11.794   5.727  1.2132 -0.2193  1.2273
  401MOL0     C54042  12.832  11.928   5.781  0.3630  0.8038  1.0184
  401MOL0     C54043  12.987  11.923   5.786 -1.1107  0.1958 -1.3352
  401MOL0    Cl54044  13.071  11.941   5.627 -0.1757 -0.3965 -0.2190
  401MOL0     C54045  11.980  11.461   5.412 -0.1899  0.3865 -0.7029
  401MOL0     C54046  11.897  11.442   5.300  0.1371  0.2063 -0.4747
  401MOL0     O54047  11.882  11.647   4.959  0.3620  0.7135 -0.2243
  401MOL0     C54048  11.607  11.619   4.875  0.3735  0.0305  0.0314
  401MOL0     C54049  11.479  11.598   4.831 -0.6426  0.3631  0.8419
  401MOL0     N54050  10.901  10.931   4.646  0.0430  0.3766  0.8216
  401MOL0     N54051  10.827  10.838   4.602  0.9437  0.1871 -0.2662
  401MOL0     C54052  10.026  10.586   4.305  0.0264 -0.4853 -0.0386
  401MOL0     C54053   9.897  10.638   4.305  0.3274  0.4910  0.2095
  401MOL0     C54054   9.444  10.697   4.361 -0.8375  0.5631 -0.7107
  401MOL0     C54055   9.434  10.774   4.238  0.3599 -0.6570  0.2818
  401MOL0     C54056   9.307  10.828   4.201 -0.2161 -0.4197  0.0212
  401MOL0     C54057   9.197  10.814   4.281 -0.3429  0.0288 -0.7389
  401MOL0     O54058   9.078  10.873   4.256  0.2896  0.2663 -0.0357
  401MOL0     C54059   8.990  10.822   4.148  0.0510 -0.1655 -0.1528
  401MOL0     C54060   8.861  10.916   4.152 -0.1530  0.2269  0.9123
  401MOL0     C54061   8.758  10.846   4.067  0.3342 -0.3356  0.7234
  401MOL0     C54062   8.611  10.874   4.113 -0.9243 -0.6441 -0.4130
  401MOL0     C54063   8.508  10.828   4.017  0.8725 -0.3625 -0.0684
  401MOL0     C54064   8.435  10.803   3.927 -0.3004 -0.2210  0.5363
  401MOL0     C54065   9.208  10.738   4.396  0.2108 -0.3080  0.0900
  401MOL0     C54066   9.329  10.684   4.444 -0.3125 -0.1247  0.3804
  401MOL0     C54067   9.321  10.610   4.573 -0.1193  0.1281 -0.0805
  401MOL0     H54068   9.716  10.344   4.260  1.5465 -1.4622 -0.1627
  401MOL0     H54069   9.924  10.259   4.316 -0.7563 -0.0048  0.2907
  401MOL0     H54070  10.148  10.301   4.515  2.5659  0.1413  0.1203
  401MOL0     H54071  10.138  10.211   4.355  1.8047 -0.2939 -2.3281
  401MOL0     H54072  10.393  10.271   4.336  0.9409  0.0794  0.5292
  401MOL0     H54073  10.345  10.177   4.488  2.0783  0.5142  1.3155
  401MOL0     H54074  10.352  10.399   4.608 -0.7056  0.8598 -1.0508
  401MOL0     H54075  10.382  10.472   4.453  0.7421  0.0896  0.0477
  401MOL0     H54076  10.593  10.267   4.533 -1.8355 -0.9304  1.7794
  401MOL0     H54077  10.586  10.399   4.415  1.8162 -0.8183  0.4215
  401MOL0     H54078  10.592  10.458   4.711 -0.2520  0.6246  0.4849
  401MOL0     H54079  10.725  10.470   4.592  0.0980  3.1205 -3.5744
  401MOL0     H54080  10.480  10.645   4.581  1.1775  1.8859  3.4745
  401MOL0     H54081  10.636  10.692   4.645  0.7106 -1.3034  0.6241
  401MOL0     H54082  10.562  10.630   4.362 -1.5019 -1.0493  1.6353
  401MOL0     H54083  10.736  10.622   4.405  0.3075 -0.5630  0.2093
  401MOL0     H54084  10.660  10.854   4.319  0.5294  1.7041  0.3254
  401MOL0     H54085  10.547  10.853   4.449 -0.0547  1.7728 -1.5846
  401MOL0     H54086  10.725  11.089   4.422  0.7456 -0.5145 -0.6125
  401MOL0     H54087  10.934  11.248   4.524 -3.2631  1.7283  0.4998
  401MOL0     H54088  10.850  11.234   4.676 -1.4381 -0.3628 -1.8782
  401MOL0     H54089  11.049  11.119   4.779  0.7189  1.3320  0.9858
  401MOL0     H54090  11.117  11.093   4.619  0.4007 -0.2076  1.7077
  401MOL0     H54091  11.083  11.366   4.738  1.2279 -0.5600  2.0726
  401MOL0     H54092  11.155  11.334   4.584 -0.0779 -1.5727 -0.2445
  401MOL0     H54093  11.351  11.227   4.713 -1.7009 -4.2728  2.1568
  401MOL0     H54094  11.265  11.256   4.857 -1.2195 -1.3484 -1.7066
  401MOL0     H54095  11.468  11.267   4.910  1.5856 -0.5945 -0.1740
  401MOL0     H54096  11.697  11.309   4.965  2.1702  1.4839 -0.1031
  401MOL0     H54097  12.133  11.531   5.069  0.1452 -3.2770 -1.1369
  401MOL0     H54098  12.278  11.506   5.273  0.3901 -0.4583  2.1640
  401MOL0     H54099  12.352  11.596   5.479 -1.8358  0.5154 -1.8298
  401MOL0     H54100  12.215  11.654   5.581 -2.4878 -2.5872  2.1754
  401MOL0     H54101  12.268  11.503   5.756  2.4395  0.9110  0.7771
  401MOL0     H54102  12.397  11.435   5.651 -0.0966  0.1606 -2.6721
  401MOL0     H54103  12.359  11.715   5.762  1.2439  0.2537 -2.3521
  401MOL0     H54104  12.426  11.574   5.853  1.9310  0.4533  1.2922
  401MOL0     H54105  12.546  11.681   5.601  0.0213  1.4379  1.0619
  401MOL0     H54106  12.626  11.572   5.723 -1.2167 -1.9492 -0.7867
  401MOL0     H54107  12.625  11.739   5.876 -2.3265  1.4071  0.8819
  401MOL0     H54108  12.571  11.871   5.773  0.5246  0.4410  1.0348
  401MOL0     H54109  12.828  11.708   5.770  2.4871 -0.8758 -1.4553
  401MOL0     H54110  12.780  11.793   5.618 -2.7029  2.3659  0.8255
  401MOL0     H54111  12.789  11.954   5.878  0.1742  3.2119  0.3477
  401MOL0     H54112  12.813  12.010   5.712 -0.7493  1.3519  1.9339
  401MOL0     H54113  13.028  12.007   5.843 -1.4710  1.1355 -2.4144
  401MOL0     H54114  13.024  11.836   5.842 -2.1277  1.1793  0.9671
  401MOL0     H54115  11.942  11.458   5.513 -0.0013  0.4062 -0.6321
  401MOL0     H54116  11.792  11.417   5.309  0.6293 -1.2171  2.4216
  401MOL0     H54117  11.647  11.720   4.880  1.3428 -0.3296 -0.2254
  401MOL0     H54118  11.412  11.671   4.786 -0.1427 -0.5841 -1.6512
  401MOL0     H54119  10.110  10.653   4.318  0.8740 -1.9970  3.6787
  401MOL0     H54120   9.885  10.745   4.317 -0.7234  0.2701  1.4925
  401MOL0     H54121   9.519  10.779   4.171  0.5957  1.4586  0.6565
  401MOL0     H54122   9.291  10.886   4.111 -0.2984 -1.5850 -0.7384
  401MOL0     H54123   8.960  10.719   4.170 -0.4582 -0.2054 -1.0094
  401MOL0     H54124   9.032  10.830   4.047 -0.7625  0.5495 -0.4437
  401MOL0     H54125   8.870  11.014   4.103  0.0579 -0.8665 -1.3830
  401MOL0     H54126   8.833  10.936   4.256 -3.6709 -4.1565  1.1009
  401MOL0     H54127   8.769  10.737   4.074 -2.3569 -0.7103  0.2605
  401MOL0     H54128   8.768  10.873   3.961 -1.5356 -2.1359  0.0036
  401MOL0     H54129   8.608  10.825   4.210 -0.1714 -2.7227 -1.3782
  401MOL0     H54130   8.585  10.979   4.126  0.2662 -0.6708  3.6634
  401MOL0     H54131   8.356  10.777   3.859 -1.4777 -2.4144  2.5460
  401MOL0     H54132   9.120  10.736   4.459 -0.3487 -1.6432 -0.6920
  401MOL0     H54133   9.346  10.504   4.569 -1.8041 -0.2829 -2.2708
  401MOL0     H54134   9.394  10.671   4.627 -0.7034  0.5601  0.2297
  401MOL0     H54135   9.223  10.621   4.620 -0.5294  2.5011 -1.2761
  402MOL0     O54136   3.824   5.311   0.437 -0.7455 -0.4421  0.1615
  402MOL0     C54137   3.920   5.253   0.489 -0.2975 -0.3324  1.0407
  402MOL0     O54138   3.920   5.138   0.569  0.4194  0.6805 -0.3798
  402MOL0     C54139   3.793   5.096   0.612  0.3642  0.6639  0.7664
  402MOL0     C54140   3.771   4.962   0.612 -0.5221  0.1996 -0.5034
  402MOL0     C54141   3.657   4.907   0.672  0.3541 -0.3411 -1.0377
  402MOL0     C54142   3.547   4.991   0.713  0.2816  0.2490 -0.7107
  402MOL0     O54143   3.435   4.947   0.773 -0.8002  0.4470 -0.3689
  402MOL0     C54144   3.380   4.816   0.737 -1.2297 -0.0785  0.0082
  402MOL0     C54145   3.230   4.838   0.773  0.4268 -0.3082 -0.3477
  402MOL0     C54146   3.171   4.692   0.784 -0.3202  0.3936 -0.0772
  402MOL0     C54147   3.223   4.606   0.895 -0.5251 -0.1680 -0.4407
  402MOL0     C54148   3.134   4.495   0.941 -0.4559 -0.5941  0.3310
  402MOL0     C54149   3.134   4.381   0.837 -0.3730  0.0262 -0.5216
  402MOL0     C54150   3.059   4.259   0.891 -0.1045 -0.2467 -0.2623
  402MOL0     C54151   3.028   4.147   0.789 -1.1807 -0.0430  0.3287
  402MOL0     N54152   2.964   4.035   0.857 -0.3087  0.3244  0.0553
  402MOL0     C54153   3.025   3.917   0.891 -1.2481  0.0170  0.4929
  402MOL0     C54154   2.955   3.874   1.001 -0.2730 -0.2019 -1.0328
  402MOL0     C54155   2.999   3.755   1.086 -0.0399 -0.5752  0.1423
  402MOL0     C54156   3.121   3.787   1.175  0.1486 -0.3853 -0.3688
  402MOL0     C54157   3.093   3.862   1.301  0.4855 -0.2472 -0.4580
  402MOL0     C54158   3.205   3.931   1.382 -0.9817  0.1043  0.3780
  402MOL0     O54159   3.156   3.951   1.513  0.3288 -0.6242 -0.5988
  402MOL0     C54160   3.235   4.028   1.589  0.0468  0.1981 -0.4632
  402MOL0     C54161   3.264   3.977   1.715  1.3201  0.1363 -0.3084
  402MOL0     C54162   3.347   4.034   1.804 -0.2007 -0.9045  0.2908
  402MOL0     C54163   3.416   4.156   1.770  0.2605  0.2111  0.5212
  402MOL0     C54164   3.511   4.224   1.868  0.6622  0.5921 -0.6847
  402MOL0     O54165   3.567   4.349   1.832  0.2443  0.0528  0.3585
  402MOL0     C54166   3.654   4.419   1.911 -0.5808  0.6893 -0.7504
  402MOL0     C54167   3.702   4.402   2.048 -0.6152 -0.8805 -0.0805
  402MOL0     C54168   3.810   4.477   2.099 -0.0923  0.4639  0.6615
  402MOL0     C54169   3.864   4.581   2.028  0.1474 -0.2597  0.1925
  402MOL0     O54170   3.963   4.660   2.086  0.3864  0.3882  0.5596
  402MOL0     C54171   4.079   4.582   2.140  0.1237 -0.2342  0.3856
  402MOL0     C54172   4.189   4.694   2.155 -0.1827 -0.1505 -0.3436
  402MOL0     C54173   4.317   4.643   2.241  0.9067 -0.3348  0.4743
  402MOL0     C54174   4.442   4.725   2.196  0.6434 -0.0651 -0.1966
  402MOL0     C54175   4.562   4.669   2.268  0.8257  0.0756  0.4384
  402MOL0     C54176   4.568   4.645   2.427 -0.4325  0.0348  0.3614
  402MOL0     C54177   4.711   4.609   2.490  0.1749  0.7172 -0.6429
  402MOL0     C54178   4.822   4.715   2.480 -0.0299  0.5597  0.3008
  402MOL0    Cl54179   4.983   4.643   2.527 -0.2874  0.6854 -0.2331
  402MOL0     C54180   3.805   4.611   1.905  0.1157 -0.5904 -0.0117
  402MOL0     C54181   3.706   4.526   1.840  0.0876 -0.9896  0.1992
  402MOL0     O54182   3.518   4.166   1.980  0.2361 -0.4927 -0.2708
  402MOL0     C54183   3.401   4.206   1.635  1.5430  0.1624 -0.2616
  402MOL0     C54184   3.310   4.134   1.549 -0.3286  0.9862  0.1557
  402MOL0     N54185   2.859   3.968   1.039  0.6124  0.5298  0.2499
  402MOL0     N54186   2.860   4.055   0.943  0.4069 -0.1872  0.0782
  402MOL0     C54187   3.567   5.130   0.700  0.2260 -0.5305 -1.1480
  402MOL0     C54188   3.692   5.174   0.651 -0.1638 -0.3521 -0.0099
  402MOL0     C54189   4.047   5.328   0.469 -0.1522  0.2965  0.8659
  402MOL0     C54190   4.155   5.291   0.557 -0.6086  0.1379  0.9567
  402MOL0     C54191   4.278   5.363   0.554 -0.5458 -0.7424 -0.0595
  402MOL0     C54192   4.302   5.463   0.460  0.2687  0.5287 -0.5921
  402MOL0     O54193   4.421   5.534   0.439 -1.3358 -0.1022  0.1275
  402MOL0     C54194   4.531   5.518   0.534 -0.2693 -0.6637 -1.0286
  402MOL0     C54195   4.659   5.553   0.467  0.6624 -0.0474 -0.6354
  402MOL0     C54196   4.692   5.463   0.346  0.3295 -0.7229  0.3260
  402MOL0     C54197   4.738   5.550   0.225 -0.7856 -0.1240  0.0059
  402MOL0     C54198   4.875   5.618   0.265 -0.0259 -0.8270 -0.1067
  402MOL0     C54199   4.975   5.682   0.303  0.7438  0.7609  0.6267
  402MOL0     C54200   4.202   5.492   0.370  0.0237  0.0114  0.7216
  402MOL0     C54201   4.075   5.429   0.369 -0.0147  0.2165  0.0285
  402MOL0     C54202   3.977   5.483   0.261 -0.4712  0.6869  0.1023
  402MOL0     H54203   3.848   4.910   0.556 -2.3526 -0.4928 -2.5094
  402MOL0     H54204   3.640   4.800   0.683  0.5964 -0.2935 -0.0955
  402MOL0     H54205   3.385   4.786   0.632  0.8668  1.4754 -0.4009
  402MOL0     H54206   3.437   4.752   0.805  0.4852  3.0183  1.7140
  402MOL0     H54207   3.186   4.901   0.696  1.1323  2.4639  1.3885
  402MOL0     H54208   3.212   4.886   0.869 -3.2591  1.7616 -1.8818
  402MOL0     H54209   3.194   4.642   0.689  2.2540  1.5537 -0.1471
  402MOL0     H54210   3.063   4.699   0.798 -1.0704 -3.3656 -2.3876
  402MOL0     H54211   3.319   4.561   0.869 -0.2970 -2.1392  3.1749
  402MOL0     H54212   3.238   4.672   0.981  0.4642 -0.7926 -0.1138
  402MOL0     H54213   3.170   4.465   1.040 -1.1276  0.5521  0.9315
  402MOL0     H54214   3.032   4.532   0.955  0.0623  0.9813  0.0682
  402MOL0     H54215   3.091   4.412   0.741 -4.8773  0.3002  1.3660
  402MOL0     H54216   3.235   4.338   0.829 -0.5332 -0.9106  1.8774
  402MOL0     H54217   2.962   4.285   0.934 -0.2772 -0.1083 -0.7321
  402MOL0     H54218   3.120   4.228   0.977  0.0284  0.7511  0.0123
  402MOL0     H54219   2.969   4.200   0.713  0.1219 -2.5159 -2.6435
  402MOL0     H54220   3.119   4.118   0.735 -3.5911  0.2804 -4.4768
  402MOL0     H54221   3.114   3.873   0.846 -1.6989  1.6439 -2.2501
  402MOL0     H54222   2.916   3.726   1.151  0.3602  0.9253  1.4010
  402MOL0     H54223   3.019   3.669   1.022  0.4904 -0.1571 -0.2698
  402MOL0     H54224   3.167   3.690   1.200  1.0856 -0.5315 -2.4863
  402MOL0     H54225   3.189   3.847   1.114  1.3327 -0.6088  0.6845
  402MOL0     H54226   3.036   3.787   1.357 -0.4770  2.0297  1.8599
  402MOL0     H54227   3.010   3.928   1.274 -1.1087 -2.3404 -0.9219
  402MOL0     H54228   3.233   4.024   1.332  1.3627  0.7543  2.6461
  402MOL0     H54229   3.298   3.874   1.391 -0.0342  1.7932  2.0647
  402MOL0     H54230   3.210   3.898   1.765  0.8779  0.8072  0.2939
  402MOL0     H54231   3.344   3.984   1.901 -0.6645 -1.5144 -0.0285
  402MOL0     H54232   3.668   4.319   2.110  0.3775  0.4364  2.3626
  402MOL0     H54233   3.845   4.446   2.197  0.5890 -0.4279  0.1527
  402MOL0     H54234   4.046   4.535   2.233  2.1018 -1.0377  0.7178
  402MOL0     H54235   4.108   4.499   2.075  0.8851 -1.9548  2.8216
  402MOL0     H54236   4.228   4.720   2.056 -0.1320 -0.0323 -0.2921
  402MOL0     H54237   4.147   4.781   2.206  0.5374  0.2548 -0.4340
  402MOL0     H54238   4.301   4.657   2.348 -1.2910  1.5931 -0.0307
  402MOL0     H54239   4.336   4.538   2.215  1.7133  0.3764 -2.1222
  402MOL0     H54240   4.415   4.828   2.221 -1.8321 -0.4151 -1.1679
  402MOL0     H54241   4.459   4.725   2.088 -1.7227  4.0590 -0.7539
  402MOL0     H54242   4.638   4.747   2.256  2.8947 -2.1557 -2.3212
  402MOL0     H54243   4.587   4.574   2.220  2.4448  2.2017 -3.3317
  402MOL0     H54244   4.540   4.743   2.468 -1.1059  0.2289 -0.5406
  402MOL0     H54245   4.500   4.570   2.468 -0.8255 -2.2621 -3.9263
  402MOL0     H54246   4.753   4.520   2.442 -0.4081 -0.1641  0.4203
  402MOL0     H54247   4.704   4.603   2.599 -0.3084  0.0951 -0.6951
  402MOL0     H54248   4.834   4.761   2.382  2.4245 -1.3186 -0.3693
  402MOL0     H54249   4.797   4.799   2.545 -0.8850 -1.2749  2.4898
  402MOL0     H54250   3.845   4.700   1.857  1.6070 -0.1658  1.9232
  402MOL0     H54251   3.680   4.535   1.735  0.0362 -0.6196  0.2409
  402MOL0     H54252   3.450   4.296   1.597 -1.2089  3.0297  2.3222
  402MOL0     H54253   3.287   4.177   1.452  1.1280  0.0946 -0.6333
  402MOL0     H54254   3.483   5.197   0.714 -0.3561 -0.5198 -4.0643
  402MOL0     H54255   3.706   5.282   0.643  1.0787 -0.6286 -3.3758
  402MOL0     H54256   4.135   5.208   0.624 -4.0233 -1.3178 -1.5477
  402MOL0     H54257   4.352   5.350   0.632 -0.4361 -2.4591 -0.3922
  402MOL0     H54258   4.525   5.420   0.583 -3.2956 -0.9056 -1.6632
  402MOL0     H54259   4.509   5.587   0.616 -2.0919 -3.3959  0.9919
  402MOL0     H54260   4.734   5.520   0.539 -1.6795 -3.6146  0.4796
  402MOL0     H54261   4.673   5.657   0.437 -0.0855 -1.0285 -5.1616
  402MOL0     H54262   4.608   5.396   0.326  0.9911 -1.7202  0.7881
  402MOL0     H54263   4.768   5.390   0.376 -0.8828 -3.0675 -1.9414
  402MOL0     H54264   4.756   5.479   0.143 -0.8604  2.4423 -2.3822
  402MOL0     H54265   4.668   5.627   0.190  0.4908  1.2698  0.3945
  402MOL0     H54266   5.052   5.740   0.350  0.0769  1.7381  0.5382
  402MOL0     H54267   4.225   5.554   0.284  1.6301 -0.4034  0.8086
  402MOL0     H54268   4.019   5.527   0.171 -1.8518  2.9281  0.4653
  402MOL0     H54269   3.930   5.394   0.217 -0.5694  0.0632  1.4086
  402MOL0     H54270   3.908   5.557   0.303  0.9139  0.8060  2.3569
  403MOL0     O54271   9.757  11.234  10.883 -0.2704  0.0926  0.9356
  403MOL0     C54272   9.647  11.248  10.925  0.2307 -0.3808 -0.4201
  403MOL0     O54273   9.552  11.324  10.864  0.1767  0.3999  0.6567
  403MOL0     C54274   9.571  11.341  10.727 -0.4139 -0.4426 -0.6570
  403MOL0     C54275   9.559  11.230  10.640 -0.6609  1.0421 -0.2249
  403MOL0     C54276   9.547  11.248  10.499 -0.1470  0.6710 -0.2792
  403MOL0     C54277   9.561  11.376  10.446 -0.6658 -0.5266  0.7767
  403MOL0     O54278   9.544  11.409  10.310  0.3439  0.2574 -0.2680
  403MOL0     C54279   9.567  11.290  10.233  0.2025  0.0265 -0.5419
  403MOL0     C54280   9.551  11.328  10.085 -1.0153 -0.8675 -1.0159
  403MOL0     C54281   9.402  11.369  10.038  0.3295  0.6855 -0.4661
  403MOL0     C54282   9.394  11.413   9.888  0.1203 -0.8375 -0.8003
  403MOL0     C54283   9.279  11.497   9.852  0.2250  0.5339 -0.2150
  403MOL0     C54284   9.149  11.410   9.875 -0.4380 -0.9131 -0.5173
  403MOL0     C54285   9.028  11.475   9.818  1.5855  0.1621 -0.0363
  403MOL0     C54286   8.967  11.594   9.889 -0.3930  1.2155  0.8222
  403MOL0     N54287   8.818  11.601   9.856  0.3957 -0.0851 -0.0076
  403MOL0     C54288   8.722  11.545   9.938  0.4315 -0.1051  0.3819
  403MOL0     C54289   8.602  11.570   9.871  0.7505  0.1429  0.4997
  403MOL0     C54290   8.480  11.504   9.929 -0.4706 -0.4054  0.0014
  403MOL0     C54291   8.381  11.477   9.812  0.0850 -0.0597 -1.0375
  403MOL0     C54292   8.237  11.490   9.864  0.1359  0.7186  0.9070
  403MOL0     C54293   8.142  11.426   9.757 -0.5835  0.5533 -1.0386
  403MOL0     O54294   8.117  11.517   9.651 -0.4395 -0.4593  0.3750
  403MOL0     C54295   8.002  11.491   9.569  0.4272 -0.1347 -0.7482
  403MOL0     C54296   7.933  11.366   9.567 -0.5535 -0.1084  0.0388
  403MOL0     C54297   7.840  11.337   9.467  0.1050 -0.0886  0.8408
  403MOL0     C54298   7.819  11.438   9.364 -0.6985 -0.4495 -0.4018
  403MOL0     C54299   7.733  11.416   9.249  0.0824  0.3593  0.6622
  403MOL0     O54300   7.742  11.509   9.155  0.6715  0.0438  0.5453
  403MOL0     C54301   7.653  11.491   9.046  0.1916  0.0942  1.6659
  403MOL0     C54302   7.522  11.548   9.046  0.0694 -0.7226 -0.1417
  403MOL0     C54303   7.433  11.541   8.939 -0.4043 -0.2391 -0.6897
  403MOL0     C54304   7.481  11.490   8.815 -0.3867 -0.1197 -0.3732
  403MOL0     O54305   7.411  11.521   8.706 -0.1353 -0.0964  0.0896
  403MOL0     C54306   7.359  11.426   8.620 -0.2047  0.2729 -0.2702
  403MOL0     C54307   7.209  11.416   8.629 -1.3595  0.0024 -0.0414
  403MOL0     C54308   7.177  11.301   8.728  0.1158 -0.2342 -0.2670
  403MOL0     C54309   7.031  11.318   8.777 -0.2452  0.7671 -0.3813
  403MOL0     C54310   6.932  11.276   8.661 -0.5945 -1.0549  0.7212
  403MOL0     C54311   6.789  11.268   8.708 -0.7797  0.3233 -0.5782
  403MOL0     C54312   6.687  11.242   8.597  0.0596 -0.2297  0.0947
  403MOL0     C54313   6.552  11.214   8.671  0.1552  1.4270  0.7786
  403MOL0    Cl54314   6.419  11.184   8.554 -0.0782 -0.0994  0.9421
  403MOL0     C54315   7.608  11.426   8.820  0.1513  1.5391  0.5565
  403MOL0     C54316   7.694  11.430   8.931  0.3837  0.5790 -0.3209
  403MOL0     O54317   7.658  11.307   9.250 -0.2367 -0.2155 -0.0369
  403MOL0     C54318   7.873  11.564   9.382  0.2761 -0.4049  0.2169
  403MOL0     C54319   7.961  11.590   9.482 -0.6045 -0.3563  0.4472
  403MOL0     N54320   8.638  11.627   9.752 -0.1332  0.0108  0.2041
  403MOL0     N54321   8.767  11.645   9.740  0.6342  0.3009 -0.6195
  403MOL0     C54322   9.571  11.481  10.530 -0.0456 -0.4883 -0.6952
  403MOL0     C54323   9.576  11.468  10.671  1.0117  0.3665 -0.8287
  403MOL0     C54324   9.610  11.203  11.066  0.4453 -0.1105  0.6372
  403MOL0     C54325   9.479  11.228  11.107  0.0106  0.8869  0.1298
  403MOL0     C54326   9.445  11.186  11.235 -0.1140  0.7062 -0.3383
  403MOL0     C54327   9.543  11.137  11.326  0.8650  0.7899 -0.3176
  403MOL0     O54328   9.515  11.087  11.453 -0.4513 -0.3311 -0.2586
  403MOL0     C54329   9.391  11.122  11.509  0.7142 -0.4899  0.5553
  403MOL0     C54330   9.388  11.054  11.640  0.2744  0.3033 -0.4912
  403MOL0     C54331   9.269  11.098  11.724 -1.3831 -0.4797 -0.1497
  403MOL0     C54332   9.212  10.994  11.812  0.3684 -0.2651 -0.1095
  403MOL0     C54333   9.314  10.931  11.899 -0.8951 -0.1618  0.4051
  403MOL0     C54334   9.385  10.871  11.974  0.1633  0.3572  0.1510
  403MOL0     C54335   9.673  11.113  11.277  1.3399 -0.3074  0.7074
  403MOL0     C54336   9.708  11.148  11.146  0.4851 -0.5711 -0.6710
  403MOL0     C54337   9.851  11.111  11.116 -0.5118 -0.4748 -0.2576
  403MOL0     H54338   9.543  11.130  10.678  2.0014  0.4825 -0.3665
  403MOL0     H54339   9.525  11.166  10.432 -0.4476  0.8893 -0.4524
  403MOL0     H54340   9.659  11.238  10.261  1.3638  1.4077 -1.5926
  403MOL0     H54341   9.477  11.230  10.248 -1.2160  2.1033 -0.2715
  403MOL0     H54342   9.598  11.244  10.033  1.0047 -0.7403  0.4689
  403MOL0     H54343   9.617  11.412  10.061 -0.2357 -0.7364  1.3701
  403MOL0     H54344   9.367  11.454  10.098 -1.9257  2.7877 -4.3567
  403MOL0     H54345   9.326  11.291  10.052  1.4767 -0.3260  0.3860
  403MOL0     H54346   9.485  11.470   9.868  0.0112 -0.9551 -1.6513
  403MOL0     H54347   9.398  11.323   9.826  0.6365  0.1321 -2.2071
  403MOL0     H54348   9.287  11.584   9.917  4.8576 -1.0636  1.7950
  403MOL0     H54349   9.289  11.538   9.752 -2.7902  1.9093 -0.0707
  403MOL0     H54350   9.156  11.314   9.823  2.7564 -0.6948 -0.6665
  403MOL0     H54351   9.124  11.395   9.980 -0.9488 -2.2000 -0.8050
  403MOL0     H54352   8.951  11.398   9.819 -0.9567  2.5496  1.6655
  403MOL0     H54353   9.048  11.503   9.714 -0.8541 -1.3697 -1.0009
  403MOL0     H54354   8.977  11.576   9.996  1.1970 -2.7000  0.2116
  403MOL0     H54355   9.026  11.682   9.861 -1.2405  3.2898  4.8215
  403MOL0     H54356   8.741  11.491  10.030 -2.8596 -1.3264  0.4738
  403MOL0     H54357   8.504  11.411   9.981 -1.0874 -0.7038 -0.2413
  403MOL0     H54358   8.445  11.574  10.005  2.6006  1.8471 -0.4457
  403MOL0     H54359   8.385  11.558   9.738  1.3197 -0.4180 -1.3801
  403MOL0     H54360   8.394  11.378   9.766  2.9792  0.0468 -0.6387
  403MOL0     H54361   8.208  11.596   9.867  2.0394  1.4263 -1.8671
  403MOL0     H54362   8.219  11.440   9.960 -4.0644 -2.4486 -1.1929
  403MOL0     H54363   8.050  11.400   9.810 -0.8632  2.8258 -0.3019
  403MOL0     H54364   8.189  11.333   9.723 -0.8727 -2.1499  4.7667
  403MOL0     H54365   7.980  11.288   9.626 -0.1444  2.5026  3.4578
  403MOL0     H54366   7.776  11.249   9.465  1.2114 -0.8979 -0.4251
  403MOL0     H54367   7.489  11.597   9.137  0.9264  0.1315 -0.2779
  403MOL0     H54368   7.343  11.601   8.941  1.8624  3.5766 -1.7284
  403MOL0     H54369   7.390  11.452   8.519  1.0445  0.0424  0.0438
  403MOL0     H54370   7.399  11.325   8.629 -0.3011  0.3112  0.7115
  403MOL0     H54371   7.166  11.510   8.663  0.9989  1.5406 -1.0912
  403MOL0     H54372   7.166  11.391   8.532  1.6077  0.1787 -1.5177
  403MOL0     H54373   7.206  11.211   8.673 -0.0637 -0.2391 -0.3534
  403MOL0     H54374   7.234  11.299   8.821 -2.9287 -5.0424  1.8996
  403MOL0     H54375   7.007  11.421   8.804 -1.6936 -0.1388  2.1705
  403MOL0     H54376   7.011  11.259   8.866 -0.9839  2.4196  0.5875
  403MOL0     H54377   6.960  11.176   8.627 -1.3754 -0.5179 -1.6536
  403MOL0     H54378   6.955  11.345   8.580  2.1308 -1.6018  0.9298
  403MOL0     H54379   6.788  11.186   8.781  0.3405 -1.3596 -2.3455
  403MOL0     H54380   6.774  11.361   8.764 -1.1874  1.9220 -3.2123
  403MOL0     H54381   6.715  11.148   8.550 -3.1425 -3.1165  3.3808
  403MOL0     H54382   6.678  11.326   8.528 -3.2287 -1.4114 -1.0873
  403MOL0     H54383   6.568  11.123   8.731 -1.7259 -0.9111 -1.9908
  403MOL0     H54384   6.523  11.301   8.731 -0.9916  0.4863  1.6658
  403MOL0     H54385   7.654  11.401   8.725  0.2249  0.1099  0.9476
  403MOL0     H54386   7.794  11.390   8.923  0.5848  0.8819  0.5924
  403MOL0     H54387   7.849  11.648   9.317  1.5991 -1.5187 -1.8343
  403MOL0     H54388   8.016  11.684   9.483 -0.8472 -0.2111  1.3977
  403MOL0     H54389   9.562  11.582  10.491 -1.4118  1.0171  3.0528
  403MOL0     H54390   9.565  11.550  10.742  3.0267  0.1618 -0.2182
  403MOL0     H54391   9.390  11.245  11.047 -1.3347 -2.0116  1.0919
  403MOL0     H54392   9.344  11.205  11.270 -0.3672  1.4895 -1.4370
  403MOL0     H54393   9.305  11.099  11.446  1.1871 -2.4179  0.5596
  403MOL0     H54394   9.385  11.230  11.524 -2.5346 -0.3305 -1.1421
  403MOL0     H54395   9.482  11.073  11.692  0.5762  0.3294 -1.0437
  403MOL0     H54396   9.384  10.947  11.620  0.4337 -0.0801  1.2951
  403MOL0     H54397   9.181  11.127  11.665 -2.8994  1.1854  2.7263
  403MOL0     H54398   9.301  11.179  11.790  1.6967 -0.6204 -1.3085
  403MOL0     H54399   9.145  11.040  11.886  0.6371  1.5167 -0.9308
  403MOL0     H54400   9.163  10.922  11.746 -0.4849  2.0133 -2.1186
  403MOL0     H54401   9.464  10.824  12.029  3.0014  2.1901 -2.0745
  403MOL0     H54402   9.752  11.067  11.335  1.0555 -0.5912  0.8797
  403MOL0     H54403   9.884  11.027  11.179  0.6851 -2.0123 -2.7676
  403MOL0     H54404   9.858  11.075  11.013  0.9064 -0.7403 -0.0923
  403MOL0     H54405   9.920  11.195  11.116 -1.3338  0.2992  2.0314
  404MOL0     O54406   6.104   9.363  11.105  0.1229 -0.0052  0.7379
  404MOL0     C54407   6.155   9.391  10.994  0.8689 -0.2387 -0.6309
  404MOL0     O54408   6.231   9.296  10.926  0.1110 -0.5636 -0.0169
  404MOL0     C54409   6.209   9.162  10.963 -0.1888 -0.1225 -0.3031
  404MOL0     C54410   6.097   9.091  10.934 -0.0408  0.6594  0.5792
  404MOL0     C54411   6.085   8.955  10.974  0.3739  0.0429 -0.1847
  404MOL0     C54412   6.196   8.899  11.040  0.5148 -1.1278 -0.6435
  404MOL0     O54413   6.185   8.767  11.080  1.2239  0.0458  0.9389
  404MOL0     C54414   6.064   8.711  11.111  0.0280  0.2375 -0.2010
  404MOL0     C54415   6.050   8.601  11.217  0.4058 -0.3944 -0.1446
  404MOL0     C54416   6.100   8.455  11.192  1.2339 -0.5549  0.3692
  404MOL0     C54417   6.056   8.360  11.301 -0.4603 -0.7631 -0.3795
  404MOL0     C54418   6.098   8.221  11.259 -0.0890 -0.2264 -0.3901
  404MOL0     C54419   6.082   8.139  11.389 -1.1006  0.3189 -0.8787
  404MOL0     C54420   6.125   8.001  11.363  0.4850  0.6742 -0.0281
  404MOL0     C54421   6.016   7.920  11.281 -0.0121 -0.7935  0.9132
  404MOL0     N54422   6.031   7.775  11.294  0.1958  0.5587  0.8424
  404MOL0     C54423   5.932   7.687  11.334  1.0730  0.0210 -1.1681
  404MOL0     C54424   5.976   7.570  11.301 -1.7907  0.0725  0.7834
  404MOL0     C54425   5.896   7.437  11.315 -1.1593 -0.1568 -0.6837
  404MOL0     C54426   5.911   7.385  11.459  0.2906 -0.3209 -0.4770
  404MOL0     C54427   5.792   7.312  11.498  1.7293  0.9617  0.2763
  404MOL0     C54428   5.657   7.396  11.530  0.0441 -0.5680  0.2085
  404MOL0     O54429   5.534   7.329  11.515  0.2044  0.3704 -0.7198
  404MOL0     C54430   5.418   7.401  11.523  0.3666  0.4286  0.1039
  404MOL0     C54431   5.409   7.536  11.566  0.2878  0.6612  0.2838
  404MOL0     C54432   5.283   7.599  11.561 -0.7539 -0.1455  0.2974
  404MOL0     C54433   5.174   7.531  11.507 -0.4577 -0.2082  1.1961
  404MOL0     C54434   5.049   7.610  11.487 -0.7945  1.0465 -0.0779
  404MOL0     O54435   4.953   7.568  11.394 -0.0527  0.0842  0.1694
  404MOL0     C54436   4.838   7.630  11.408  0.9867 -0.6464  0.3833
  404MOL0     C54437   4.809   7.730  11.315  1.0983 -0.5798  0.3767
  404MOL0     C54438   4.678   7.788  11.306 -1.4445  0.4738  0.3600
  404MOL0     C54439   4.578   7.743  11.394 -0.4239  0.6350  0.0716
  404MOL0     O54440   4.459   7.799  11.380 -0.0520  0.6050  0.7147
  404MOL0     C54441   4.353   7.742  11.460  0.3510  0.6755  0.3086
  404MOL0     C54442   4.205   7.795  11.434 -0.1463  0.0951 -0.3591
  404MOL0     C54443   4.197   7.941  11.426 -0.6742 -0.0806 -0.2416
  404MOL0     C54444   4.046   7.977  11.418 -0.2499 -0.5318 -0.9454
  404MOL0     C54445   4.011   8.123  11.393  0.4851 -0.7431  0.9759
  404MOL0     C54446   3.866   8.152  11.414  0.1061 -0.3223  0.1022
  404MOL0     C54447   3.844   8.312  11.426  0.8095  0.6804  0.1011
  404MOL0     C54448   3.699   8.344  11.421  0.5020  0.0231  0.2099
  404MOL0    Cl54449   3.599   8.218  11.506 -0.1742 -0.2097  0.2618
  404MOL0     C54450   4.614   7.643  11.493  0.2371  1.2749 -0.0352
  404MOL0     C54451   4.742   7.593  11.507 -0.1900 -0.4489 -0.6162
  404MOL0     O54452   5.046   7.718  11.541 -0.7196 -0.0431 -0.0530
  404MOL0     C54453   5.181   7.397  11.486 -0.0562 -0.0811  0.0562
  404MOL0     C54454   5.303   7.323  11.490 -0.3376 -0.0969 -0.7689
  404MOL0     N54455   6.102   7.582  11.235 -0.3789  0.8441  0.0138
  404MOL0     N54456   6.133   7.707  11.230 -0.8518  0.0600 -0.0255
  404MOL0     C54457   6.311   8.964  11.071 -0.2518 -0.0928  0.2674
  404MOL0     C54458   6.318   9.096  11.023  0.3131 -0.6944 -0.2177
  404MOL0     C54459   6.148   9.534  10.952  0.0999  0.0878  0.7314
  404MOL0     C54460   6.234   9.572  10.842  0.2520  0.0770  0.1151
  404MOL0     C54461   6.242   9.701  10.795 -0.1726 -0.4011 -0.7384
  404MOL0     C54462   6.150   9.797  10.836  0.1785 -0.5467  0.2827
  404MOL0     O54463   6.113   9.913  10.768 -0.1749  0.5186 -0.3164
  404MOL0     C54464   6.223   9.986  10.707 -1.1420 -0.5580  0.2643
  404MOL0     C54465   6.275  10.102  10.788 -0.0413 -0.5620  0.0226
  404MOL0     C54466   6.302  10.066  10.938  0.4533 -0.2553 -0.5434
  404MOL0     C54467   6.385  10.168  11.014 -0.8784 -0.9118  0.1227
  404MOL0     C54468   6.360  10.151  11.159  0.0234  0.2286 -0.4696
  404MOL0     C54469   6.341  10.138  11.284  0.2634 -0.1207  0.5629
  404MOL0     C54470   6.063   9.767  10.940 -0.4273 -0.5175  0.9328
  404MOL0     C54471   6.067   9.644  10.998 -0.3976  0.2923  0.1597
  404MOL0     C54472   5.979   9.637  11.132 -0.4379  0.3229  0.0181
  404MOL0     H54473   6.021   9.149  10.883 -0.5328  0.5265  1.1411
  404MOL0     H54474   5.994   8.899  10.957  1.5121 -1.0310 -3.5548
  404MOL0     H54475   5.991   8.782  11.153  0.8924  0.8931  0.2280
  404MOL0     H54476   6.022   8.679  11.015  0.0813 -0.1492 -0.0943
  404MOL0     H54477   5.945   8.595  11.249  0.1704  1.0885 -0.5429
  404MOL0     H54478   6.099   8.640  11.307  0.4037  0.3474 -0.4518
  404MOL0     H54479   6.208   8.449  11.173  1.5647  2.7417  0.5332
  404MOL0     H54480   6.053   8.415  11.102  2.1536 -3.3054  1.0100
  404MOL0     H54481   6.118   8.384  11.388  1.8340  1.3138 -2.4532
  404MOL0     H54482   5.950   8.364  11.331  0.0007  0.0706  1.2604
  404MOL0     H54483   6.043   8.178  11.175  1.1628 -0.7621 -0.9563
  404MOL0     H54484   6.204   8.213  11.236  0.2937 -2.5131  1.7333
  404MOL0     H54485   6.149   8.172  11.469  0.0959 -4.0799  0.2295
  404MOL0     H54486   5.980   8.134  11.428 -1.2088 -3.5935 -1.2195
  404MOL0     H54487   6.150   7.950  11.457 -0.9072  2.3470  1.3296
  404MOL0     H54488   6.216   8.000  11.302 -0.3161 -2.2787 -1.3685
  404MOL0     H54489   5.913   7.932  11.314 -0.0574  3.2332 -0.1770
  404MOL0     H54490   6.021   7.955  11.177 -0.8725 -2.0818  0.4187
  404MOL0     H54491   5.840   7.709  11.386  0.3947  1.9653 -3.0570
  404MOL0     H54492   5.791   7.460  11.293 -1.8470  0.7261  2.9550
  404MOL0     H54493   5.936   7.365  11.242 -1.2200 -2.5927  1.5495
  404MOL0     H54494   6.004   7.329  11.474  1.4811  1.7362  0.3727
  404MOL0     H54495   5.917   7.464  11.536 -2.0877  0.3453 -0.8917
  404MOL0     H54496   5.816   7.253  11.587  0.5876  2.7840  1.8725
  404MOL0     H54497   5.770   7.246  11.414 -0.3441  0.1962  1.3271
  404MOL0     H54498   5.651   7.485  11.466  0.2444 -1.4784 -1.1364
  404MOL0     H54499   5.654   7.433  11.632 -3.1346 -2.3078  0.8734
  404MOL0     H54500   5.494   7.588  11.610  0.5922  2.3227 -2.0683
  404MOL0     H54501   5.275   7.692  11.616  0.6069 -0.0073  0.3105
  404MOL0     H54502   4.881   7.755  11.238  2.3889 -2.4727  0.8914
  404MOL0     H54503   4.647   7.867  11.238 -1.6397  1.0973  1.1543
  404MOL0     H54504   4.342   7.634  11.446  0.6529  0.3699  2.2390
  404MOL0     H54505   4.379   7.769  11.562  1.4896  3.8423 -0.7099
  404MOL0     H54506   4.177   7.756  11.336 -3.2484 -2.0613  1.2162
  404MOL0     H54507   4.135   7.745  11.501  2.1121  0.9600  2.9041
  404MOL0     H54508   4.239   7.978  11.520 -2.0216 -0.1934  0.4348
  404MOL0     H54509   4.251   7.966  11.334 -0.4111  0.4098  0.0398
  404MOL0     H54510   4.011   7.969  11.521  1.4587 -0.3959 -0.3348
  404MOL0     H54511   3.994   7.911  11.348 -1.6853  0.6376 -1.0520
  404MOL0     H54512   4.040   8.156  11.293  0.4022 -0.4756  1.0419
  404MOL0     H54513   4.069   8.175  11.469  0.4603  0.9419 -0.1174
  404MOL0     H54514   3.817   8.119  11.322  0.6737 -3.6200  0.8493
  404MOL0     H54515   3.833   8.098  11.503  0.7667  0.2496  0.7061
  404MOL0     H54516   3.897   8.354  11.339 -0.8129 -2.3010 -2.5558
  404MOL0     H54517   3.881   8.339  11.525  1.3537 -3.4690  1.2066
  404MOL0     H54518   3.688   8.446  11.460 -2.6278 -0.3489  0.5407
  404MOL0     H54519   3.660   8.355  11.319  2.0729 -2.1453 -0.6989
  404MOL0     H54520   4.545   7.626  11.575  1.5632  3.8654  1.7963
  404MOL0     H54521   4.762   7.526  11.591 -3.0047 -0.7785 -0.1180
  404MOL0     H54522   5.095   7.346  11.443 -0.7352  0.0375  1.2329
  404MOL0     H54523   5.299   7.218  11.465 -0.3954 -0.2668 -0.0748
  404MOL0     H54524   6.405   8.930  11.115  1.5289  3.1188 -0.7078
  404MOL0     H54525   6.407   9.157  11.038  0.8784 -1.8778  1.5536
  404MOL0     H54526   6.320   9.516  10.807  0.6447 -0.4474  1.8192
  404MOL0     H54527   6.326   9.722  10.728  0.5439 -1.2547 -0.1400
  404MOL0     H54528   6.191  10.027  10.611 -1.3821 -0.7379  0.2680
  404MOL0     H54529   6.313   9.929  10.683 -0.6983  0.3667 -0.3278
  404MOL0     H54530   6.199  10.179  10.771  0.3466 -0.1586  0.0882
  404MOL0     H54531   6.359  10.147  10.735 -0.4400 -0.5521 -0.6108
  404MOL0     H54532   6.349   9.967  10.938  2.0746  0.4739  0.1205
  404MOL0     H54533   6.204  10.057  10.985  0.5964  2.2140  0.3510
  404MOL0     H54534   6.490  10.151  10.991  0.6678  2.6921  3.3996
  404MOL0     H54535   6.374  10.270  10.976  1.0645 -0.8335 -0.3138
  404MOL0     H54536   6.343  10.123  11.390 -0.3234  2.3875  0.9960
  404MOL0     H54537   5.995   9.848  10.964  1.3061  0.9124  1.2368
  404MOL0     H54538   5.935   9.537  11.137  1.3164 -0.4712  0.2908
  404MOL0     H54539   6.045   9.660  11.216  0.6702  0.2236 -0.8101
  404MOL0     H54540   5.894   9.705  11.146 -1.9722 -1.2632 -1.1621
  405MOL0     O54541   5.763   6.088   5.264 -0.1550  0.4937  0.7014
  405MOL0     C54542   5.775   6.210   5.255 -0.1075  0.3594 -1.1245
  405MOL0     O54543   5.850   6.287   5.334  0.6330 -1.0663 -0.5261
  405MOL0     C54544   5.896   6.244   5.453 -0.4701  0.2995  0.3056
  405MOL0     C54545   6.034   6.268   5.476  0.3563  0.0934  0.0444
  405MOL0     C54546   6.098   6.209   5.584  1.5782  0.1353  0.7135
  405MOL0     C54547   6.024   6.137   5.670  0.3689  0.2464 -0.9054
  405MOL0     O54548   6.065   6.075   5.786  0.4203 -0.1760  0.4646
  405MOL0     C54549   6.193   6.022   5.777  0.7471  0.3803 -0.1034
  405MOL0     C54550   6.218   5.936   5.894 -0.1350 -0.2685  0.0463
  405MOL0     C54551   6.322   5.827   5.888 -0.8554  0.1592 -0.1717
  405MOL0     C54552   6.466   5.884   5.874  0.1171 -0.0036 -0.3080
  405MOL0     C54553   6.588   5.792   5.872  1.2714 -0.4216  0.6476
  405MOL0     C54554   6.588   5.715   5.745 -0.7251 -0.3093  0.0917
  405MOL0     C54555   6.737   5.670   5.718 -0.0074  0.6399  0.3609
  405MOL0     C54556   6.779   5.555   5.805  0.4571  0.6495 -0.7169
  405MOL0     N54557   6.784   5.423   5.743 -0.8823  0.8963 -0.4390
  405MOL0     C54558   6.688   5.349   5.683 -1.3449  0.2159  0.2766
  405MOL0     C54559   6.747   5.225   5.639 -0.4898  0.2862  0.2101
  405MOL0     C54560   6.679   5.126   5.558  0.6750  0.8356 -0.6594
  405MOL0     C54561   6.607   5.006   5.628 -0.0366  0.7565  1.6032
  405MOL0     C54562   6.671   4.977   5.770  0.9618  0.1253 -0.1029
  405MOL0     C54563   6.592   4.886   5.865 -0.3262 -0.6028  0.3124
  405MOL0     O54564   6.541   4.771   5.789 -0.0248 -1.0356  0.4268
  405MOL0     C54565   6.471   4.683   5.866  0.3806 -0.2820  0.4755
  405MOL0     C54566   6.432   4.702   6.004 -0.5180  1.1660 -1.5647
  405MOL0     C54567   6.344   4.606   6.055  0.1025 -0.3327  0.8750
  405MOL0     C54568   6.309   4.485   5.994  0.2754  0.4028  0.8929
  405MOL0     C54569   6.201   4.390   6.059  0.2870  0.1009 -0.0842
  405MOL0     O54570   6.154   4.291   5.980  0.5587  0.4383 -0.2919
  405MOL0     C54571   6.068   4.202   6.028 -0.1023  0.2847 -0.3745
  405MOL0     C54572   6.109   4.066   6.030 -0.0632  1.3495 -0.3692
  405MOL0     C54573   6.027   3.964   6.083  0.2447  0.0339 -1.0312
  405MOL0     C54574   5.902   4.002   6.141  0.2301  1.3474 -0.6863
  405MOL0     O54575   5.814   3.896   6.182 -0.7638  0.1046  0.3569
  405MOL0     C54576   5.784   3.901   6.322  0.2180  0.3356 -0.3940
  405MOL0     C54577   5.670   3.809   6.364  1.1022  0.3688  0.4237
  405MOL0     C54578   5.706   3.666   6.364 -0.1484 -0.8052  1.0155
  405MOL0     C54579   5.604   3.584   6.436 -0.0412  0.0201 -0.0555
  405MOL0     C54580   5.646   3.566   6.588  0.5106 -0.6609 -0.5417
  405MOL0     C54581   5.586   3.450   6.657 -0.2015 -0.7392 -0.1922
  405MOL0     C54582   5.596   3.442   6.808  0.0339  0.5324  0.2582
  405MOL0     C54583   5.614   3.295   6.847 -1.0071  0.3260 -0.5621
  405MOL0    Cl54584   5.582   3.261   7.020 -0.0062 -0.2978  0.1254
  405MOL0     C54585   5.867   4.137   6.154  0.0300  0.4173 -0.2488
  405MOL0     C54586   5.942   4.232   6.088 -0.0107  0.1998 -0.5516
  405MOL0     O54587   6.157   4.412   6.176  0.1840  0.6274 -0.6427
  405MOL0     C54588   6.357   4.464   5.866 -0.6086 -0.3211  1.1764
  405MOL0     C54589   6.432   4.567   5.795  0.4098 -0.3330  0.7906
  405MOL0     N54590   6.882   5.226   5.678  0.3705 -0.1050 -0.6015
  405MOL0     N54591   6.900   5.343   5.731 -0.4303  0.7809  0.0312
  405MOL0     C54592   5.883   6.120   5.653 -0.3363 -0.1836  0.7523
  405MOL0     C54593   5.821   6.167   5.544 -0.4122 -0.9628  0.0077
  405MOL0     C54594   5.712   6.270   5.137 -0.3321  0.3005 -0.4805
  405MOL0     C54595   5.783   6.353   5.044  0.1255 -0.0230  0.0464
  405MOL0     C54596   5.729   6.381   4.918  1.1275  1.3496  1.0244
  405MOL0     C54597   5.603   6.338   4.875 -0.2685  0.1470  0.4395
  405MOL0     O54598   5.570   6.366   4.746  0.5297 -0.4151 -0.2306
  405MOL0     C54599   5.465   6.295   4.687 -0.0426 -0.7541 -0.1268
  405MOL0     C54600   5.412   6.344   4.554  0.2689  0.3900  0.7254
  405MOL0     C54601   5.280   6.272   4.512  0.1132  0.3009 -1.2955
  405MOL0     C54602   5.233   6.287   4.366 -0.6693 -1.0395 -0.7453
  405MOL0     C54603   5.271   6.414   4.302  0.0048  1.2329 -0.2442
  405MOL0     C54604   5.289   6.514   4.242 -0.7326 -0.5054 -0.3696
  405MOL0     C54605   5.526   6.264   4.974  0.0380 -0.3648  0.7452
  405MOL0     C54606   5.579   6.230   5.092 -0.6503 -0.4332  0.7972
  405MOL0     C54607   5.482   6.155   5.181  0.2793  0.0594  1.2089
  405MOL0     H54608   6.094   6.333   5.414  0.9930  0.7784  1.3638
  405MOL0     H54609   6.198   6.241   5.612  1.2749  2.8687 -0.9216
  405MOL0     H54610   6.210   5.951   5.696  3.1726  0.3051  0.4155
  405MOL0     H54611   6.273   6.096   5.775  1.3094 -0.2297 -0.1773
  405MOL0     H54612   6.128   5.875   5.909 -0.0997 -0.1425  0.8141
  405MOL0     H54613   6.234   6.004   5.978  0.7519 -0.6616  0.2061
  405MOL0     H54614   6.308   5.766   5.798 -1.6961 -2.5268  1.6649
  405MOL0     H54615   6.317   5.760   5.974  1.0968 -1.1555 -0.9912
  405MOL0     H54616   6.461   5.961   5.797 -1.1351 -0.8776 -1.1570
  405MOL0     H54617   6.490   5.929   5.971 -0.3889  0.7549 -0.5316
  405MOL0     H54618   6.674   5.860   5.872  0.2296  0.9981 -1.5623
  405MOL0     H54619   6.590   5.722   5.956  0.2284 -2.3796 -0.8842
  405MOL0     H54620   6.520   5.630   5.750  0.7459 -1.5865 -0.7412
  405MOL0     H54621   6.559   5.768   5.654  2.5856 -0.1760 -1.0476
  405MOL0     H54622   6.804   5.756   5.723 -0.7137  1.4191 -2.1792
  405MOL0     H54623   6.724   5.628   5.618 -0.3698 -1.3800  1.1968
  405MOL0     H54624   6.876   5.575   5.852  0.2112  5.1057 -1.6750
  405MOL0     H54625   6.700   5.535   5.878  2.1035 -0.9988  0.7180
  405MOL0     H54626   6.591   5.392   5.663 -0.8348  0.6326 -1.4977
  405MOL0     H54627   6.605   5.185   5.504  1.5401  1.3873 -1.2762
  405MOL0     H54628   6.739   5.078   5.479 -1.2711 -3.6522  0.2633
  405MOL0     H54629   6.501   5.031   5.638 -0.8955 -2.6012  2.0314
  405MOL0     H54630   6.604   4.910   5.574 -1.8447  0.9145  1.3755
  405MOL0     H54631   6.696   5.067   5.826  2.3004 -0.7920  0.8326
  405MOL0     H54632   6.764   4.926   5.747  1.0406 -1.9172  3.8371
  405MOL0     H54633   6.518   4.950   5.915 -0.9952 -2.6978  2.1412
  405MOL0     H54634   6.658   4.845   5.941 -0.4873 -3.3268 -0.9034
  405MOL0     H54635   6.452   4.782   6.075 -1.9004 -1.6739  2.3294
  405MOL0     H54636   6.307   4.610   6.157  0.1484  0.1818  0.8731
  405MOL0     H54637   6.207   4.046   5.988  0.7297  3.4465  0.3152
  405MOL0     H54638   6.050   3.858   6.089  3.3450  0.6573  2.4247
  405MOL0     H54639   5.868   3.857   6.377 -2.7134  0.1662  4.5420
  405MOL0     H54640   5.776   4.006   6.350  3.5422  0.0375  2.3007
  405MOL0     H54641   5.633   3.830   6.465 -3.7160  0.0246 -1.0449
  405MOL0     H54642   5.580   3.833   6.307  0.4199  0.9684  1.6829
  405MOL0     H54643   5.698   3.635   6.259  1.6241 -0.1794  0.6672
  405MOL0     H54644   5.809   3.641   6.392 -0.7347 -0.1501  4.1276
  405MOL0     H54645   5.601   3.488   6.383  0.2101  0.9870 -1.8874
  405MOL0     H54646   5.504   3.628   6.432 -0.6737 -1.4528 -2.5765
  405MOL0     H54647   5.634   3.659   6.644 -0.0811 -1.8685  1.4149
  405MOL0     H54648   5.754   3.546   6.585  0.3742 -1.5140  0.0370
  405MOL0     H54649   5.484   3.459   6.618  0.9549  1.8154 -3.1028
  405MOL0     H54650   5.630   3.363   6.609 -0.5212 -0.5084 -0.9252
  405MOL0     H54651   5.507   3.489   6.849  0.7965  2.6706 -0.3796
  405MOL0     H54652   5.688   3.486   6.849  2.8511 -2.8079 -1.8103
  405MOL0     H54653   5.543   3.230   6.796 -1.5382 -1.4006  2.1739
  405MOL0     H54654   5.717   3.269   6.819 -0.6564  2.0321 -0.9512
  405MOL0     H54655   5.765   4.162   6.179 -0.4834 -1.2564 -0.5340
  405MOL0     H54656   5.914   4.337   6.084 -1.0915  0.1118  2.4913
  405MOL0     H54657   6.334   4.365   5.828 -4.4222  0.6545  0.4910
  405MOL0     H54658   6.453   4.555   5.689  1.0470  4.2827  0.1679
  405MOL0     H54659   5.828   6.067   5.730 -0.5577 -2.3692 -0.8079
  405MOL0     H54660   5.715   6.152   5.522 -0.5381  0.3267 -0.4000
  405MOL0     H54661   5.888   6.380   5.045  1.1830 -3.2741 -2.9219
  405MOL0     H54662   5.784   6.439   4.845 -1.2800  0.9299 -1.3100
  405MOL0     H54663   5.381   6.283   4.755  0.1070  1.3041  0.4729
  405MOL0     H54664   5.509   6.196   4.672 -0.7189 -1.1850  0.6648
  405MOL0     H54665   5.484   6.322   4.475 -0.9936  0.5511 -0.5132
  405MOL0     H54666   5.403   6.453   4.554 -1.3737  0.3044 -0.3881
  405MOL0     H54667   5.210   6.313   4.586  1.8291 -2.5234  2.1813
  405MOL0     H54668   5.289   6.163   4.526  1.4298  0.3788 -1.4314
  405MOL0     H54669   5.282   6.209   4.307 -0.1367 -1.5726  0.3876
  405MOL0     H54670   5.124   6.276   4.357 -0.4515 -3.5530 -0.8089
  405MOL0     H54671   5.318   6.601   4.186 -3.0585 -0.6495 -1.9322
  405MOL0     H54672   5.429   6.223   4.948 -0.2057 -0.0167  1.1027
  405MOL0     H54673   5.396   6.217   5.208 -1.4795 -2.3703  1.5442
  405MOL0     H54674   5.438   6.073   5.124 -1.3065  2.2235 -0.8550
  405MOL0     H54675   5.524   6.117   5.275  2.2390  4.2460  2.2797
  406MOL0     O54676   2.299   4.357   8.399 -0.4685 -0.0918  0.6408
  406MOL0     C54677   2.294   4.316   8.511 -0.4552 -0.0155  0.5869
  406MOL0     O54678   2.290   4.391   8.629  0.5798  0.6507  0.9189
  406MOL0     C54679   2.336   4.524   8.622  0.5997  0.7902  0.0007
  406MOL0     C54680   2.269   4.604   8.715 -0.3176  0.4951  0.3452
  406MOL0     C54681   2.296   4.738   8.717 -0.1513 -0.9373 -0.0369
  406MOL0     C54682   2.381   4.798   8.622 -0.4170  0.7317 -0.6767
  406MOL0     O54683   2.405   4.933   8.612 -0.0855  0.4360  0.5830
  406MOL0     C54684   2.281   5.011   8.592  0.2013 -0.4315 -0.6737
  406MOL0     C54685   2.324   5.157   8.580  0.6844 -0.2958 -0.6803
  406MOL0     C54686   2.211   5.266   8.561  0.2189  0.8627  0.4054
  406MOL0     C54687   2.238   5.406   8.616  0.3282 -0.2997 -0.6364
  406MOL0     C54688   2.112   5.507   8.624  0.1825  0.1928 -0.0593
  406MOL0     C54689   2.106   5.590   8.498 -0.2234 -0.3412  0.1751
  406MOL0     C54690   2.214   5.700   8.492 -0.1358  0.5117  0.0412
  406MOL0     C54691   2.202   5.799   8.378  0.4801 -0.0003  0.9558
  406MOL0     N54692   2.303   5.902   8.378  0.0301 -0.2448  0.2759
  406MOL0     C54693   2.426   5.894   8.318 -0.5833 -0.2202  0.8589
  406MOL0     C54694   2.483   6.007   8.352  0.4044 -0.6498  0.0930
  406MOL0     C54695   2.628   6.055   8.340 -0.3556  0.9355  0.4902
  406MOL0     C54696   2.662   6.112   8.193 -0.8058  0.6335 -0.8688
  406MOL0     C54697   2.634   6.263   8.168  1.0672  0.7618 -0.2457
  406MOL0     C54698   2.482   6.287   8.160 -0.1957 -0.1036  0.4569
  406MOL0     O54699   2.461   6.424   8.128 -0.2748 -0.2002 -0.8696
  406MOL0     C54700   2.491   6.458   8.001 -0.1320 -0.0554 -0.2341
  406MOL0     C54701   2.414   6.421   7.886 -1.0535  0.1127 -0.4790
  406MOL0     C54702   2.459   6.484   7.765  0.6870  0.3049  0.8334
  406MOL0     C54703   2.562   6.586   7.754  0.6080  1.2357 -0.1660
  406MOL0     C54704   2.604   6.647   7.630 -0.3280 -0.6247  0.9893
  406MOL0     O54705   2.690   6.760   7.628 -0.0022  0.0547 -0.0403
  406MOL0     C54706   2.728   6.815   7.505 -0.1613 -0.0584  0.3860
  406MOL0     C54707   2.646   6.922   7.456 -0.1886  0.5809  0.1241
  406MOL0     C54708   2.695   6.987   7.342  0.0699  0.1236 -0.5467
  406MOL0     C54709   2.807   6.940   7.270 -0.5353  0.6308  1.3235
  406MOL0     O54710   2.851   7.007   7.155  0.4854 -0.5613  0.5308
  406MOL0     C54711   2.957   7.102   7.176  0.5991  0.3804 -0.1877
  406MOL0     C54712   2.936   7.216   7.075 -0.4335  1.3640 -0.0152
  406MOL0     C54713   3.043   7.315   7.077 -0.6042  1.0527 -1.0095
  406MOL0     C54714   3.028   7.410   6.959  1.0303  0.1584  1.1251
  406MOL0     C54715   3.086   7.542   6.996  0.6193  0.1817 -0.0220
  406MOL0     C54716   3.240   7.545   7.002 -0.4954 -0.1328  0.2798
  406MOL0     C54717   3.287   7.688   7.008  0.2533 -0.5429 -0.0881
  406MOL0     C54718   3.432   7.704   7.035  0.7196 -0.8336 -0.5297
  406MOL0    Cl54719   3.470   7.878   7.039 -0.3119  0.7691 -0.0051
  406MOL0     C54720   2.878   6.832   7.313  0.1411 -0.9040  0.1772
  406MOL0     C54721   2.838   6.771   7.435  0.2275  0.6708 -0.4020
  406MOL0     O54722   2.554   6.609   7.531  0.1629  0.2996  0.1791
  406MOL0     C54723   2.623   6.621   7.880  0.8100 -0.2776  0.5807
  406MOL0     C54724   2.593   6.557   7.995 -0.4072  1.0555  0.2386
  406MOL0     N54725   2.382   6.088   8.405  0.3082 -1.6040 -0.1400
  406MOL0     N54726   2.275   6.023   8.438 -0.5205  0.9424  0.3292
  406MOL0     C54727   2.465   4.710   8.548 -0.1570  0.4546  1.2240
  406MOL0     C54728   2.434   4.571   8.537 -0.8547 -1.3747 -0.1754
  406MOL0     C54729   2.287   4.164   8.541  0.7023 -0.0733 -0.2896
  406MOL0     C54730   2.309   4.109   8.674 -0.5483 -0.4717 -0.1216
  406MOL0     C54731   2.306   3.965   8.695 -0.8072 -0.4407 -0.8529
  406MOL0     C54732   2.281   3.872   8.595  0.0817  0.8070  0.0940
  406MOL0     O54733   2.271   3.738   8.623  0.3533  0.1484 -0.0573
  406MOL0     C54734   2.152   3.675   8.570 -0.0882  0.0832 -0.3012
  406MOL0     C54735   2.204   3.588   8.456  0.0317 -0.6580  0.5624
  406MOL0     C54736   2.275   3.458   8.498 -0.2255  0.1860  0.4551
  406MOL0     C54737   2.244   3.355   8.397 -0.4212 -0.4418  0.7769
  406MOL0     C54738   2.306   3.405   8.269  0.5946 -0.4032 -0.4264
  406MOL0     C54739   2.340   3.465   8.169 -0.0784 -0.4995 -0.4089
  406MOL0     C54740   2.245   3.929   8.472  0.0676  0.3264  0.3224
  406MOL0     C54741   2.234   4.066   8.458 -0.0991 -0.1073  0.4625
  406MOL0     C54742   2.160   4.111   8.338  0.1494  0.2404 -0.1802
  406MOL0     H54743   2.186   4.557   8.769 -0.5500 -3.0950 -2.7002
  406MOL0     H54744   2.238   4.793   8.790  0.0253  2.1750 -2.0872
  406MOL0     H54745   2.225   4.979   8.504 -0.8053 -0.7180  0.0479
  406MOL0     H54746   2.213   5.008   8.678 -2.2384 -1.6886 -2.5303
  406MOL0     H54747   2.390   5.173   8.494  1.4818 -2.9090 -0.6299
  406MOL0     H54748   2.386   5.189   8.664  1.4701 -0.7658 -1.0649
  406MOL0     H54749   2.118   5.236   8.610  0.6587  0.3258  0.9203
  406MOL0     H54750   2.175   5.259   8.458 -2.2660  0.7060  1.2177
  406MOL0     H54751   2.269   5.387   8.719  1.3602  0.9972 -0.6731
  406MOL0     H54752   2.317   5.455   8.558 -0.5992 -0.5148 -2.1262
  406MOL0     H54753   2.025   5.441   8.635 -0.8353  1.0081 -2.4985
  406MOL0     H54754   2.120   5.563   8.717  0.8106 -2.5123  1.6507
  406MOL0     H54755   2.124   5.525   8.412  0.2589 -1.3682  1.0192
  406MOL0     H54756   2.008   5.639   8.493 -0.0920 -0.1867 -1.1028
  406MOL0     H54757   2.317   5.663   8.495  0.6111  2.4558  1.8266
  406MOL0     H54758   2.209   5.750   8.590  1.8528 -2.1376  1.6417
  406MOL0     H54759   2.215   5.743   8.284  2.2998  0.2556  1.0116
  406MOL0     H54760   2.104   5.847   8.380 -1.0880 -2.7914 -1.1918
  406MOL0     H54761   2.480   5.809   8.276 -0.3162  1.2088 -1.9798
  406MOL0     H54762   2.652   6.120   8.425  2.0901  4.9203 -2.8599
  406MOL0     H54763   2.691   5.966   8.345 -1.4128  0.1591  0.3502
  406MOL0     H54764   2.770   6.105   8.185 -0.6612 -0.0539  1.0857
  406MOL0     H54765   2.618   6.055   8.110  0.7575  2.6935 -3.2262
  406MOL0     H54766   2.676   6.293   8.072 -0.8360 -1.6563 -1.9704
  406MOL0     H54767   2.675   6.319   8.253 -0.7935  0.7615  0.7077
  406MOL0     H54768   2.447   6.259   8.259  0.7126 -1.6166  0.3984
  406MOL0     H54769   2.449   6.213   8.086  2.2852 -2.4781  1.5264
  406MOL0     H54770   2.341   6.341   7.884  0.6330 -1.5090  0.2811
  406MOL0     H54771   2.407   6.458   7.673  2.5021 -0.1291 -0.1123
  406MOL0     H54772   2.559   6.952   7.513 -0.6379 -0.7018  0.1417
  406MOL0     H54773   2.651   7.082   7.313  0.1439  0.7990  1.3798
  406MOL0     H54774   2.940   7.143   7.276 -0.6362 -2.6786  0.9824
  406MOL0     H54775   3.053   7.051   7.163 -0.9935 -2.8261 -0.3772
  406MOL0     H54776   2.926   7.170   6.976  0.0259  2.8350 -0.7733
  406MOL0     H54777   2.843   7.267   7.102  0.5544  2.8017  0.7337
  406MOL0     H54778   3.040   7.364   7.175  1.4376  0.7229 -0.7274
  406MOL0     H54779   3.141   7.270   7.061 -0.4922  0.5042  0.9671
  406MOL0     H54780   2.922   7.428   6.937  2.1027  3.7009 -2.3743
  406MOL0     H54781   3.072   7.370   6.867  1.2177  2.0073  0.3694
  406MOL0     H54782   3.054   7.569   7.097  1.0199 -4.8263  1.7068
  406MOL0     H54783   3.039   7.614   6.928  0.6018  0.3155  0.1292
  406MOL0     H54784   3.263   7.486   7.091  0.3449 -0.6768 -0.2745
  406MOL0     H54785   3.279   7.497   6.911  2.2506  3.3420 -0.6031
  406MOL0     H54786   3.232   7.739   7.089 -0.5249  0.6511 -1.3228
  406MOL0     H54787   3.248   7.736   6.918 -3.0088 -0.6802  1.0948
  406MOL0     H54788   3.450   7.647   7.127 -2.5626 -2.1937 -0.6149
  406MOL0     H54789   3.492   7.665   6.952  3.9519  2.0594  0.1844
  406MOL0     H54790   2.959   6.799   7.249 -0.3138 -3.0068  0.6097
  406MOL0     H54791   2.902   6.693   7.475  0.6767  0.8840 -0.6828
  406MOL0     H54792   2.704   6.692   7.895 -0.0212  0.0713  4.4241
  406MOL0     H54793   2.653   6.570   8.084  3.2747  1.2963 -2.0440
  406MOL0     H54794   2.537   4.754   8.479  0.2603 -0.3233  1.1528
  406MOL0     H54795   2.486   4.505   8.468 -0.3313 -1.4426  0.2760
  406MOL0     H54796   2.329   4.185   8.748 -4.3221  1.1955 -0.5705
  406MOL0     H54797   2.330   3.927   8.794 -1.7352  0.2755 -0.3346
  406MOL0     H54798   2.073   3.739   8.531 -0.4019 -1.9102 -3.2629
  406MOL0     H54799   2.107   3.604   8.640  1.6227  0.5214  1.3435
  406MOL0     H54800   2.258   3.658   8.391 -2.0784  1.0026  0.4832
  406MOL0     H54801   2.112   3.546   8.415 -0.3047 -2.0658  2.6048
  406MOL0     H54802   2.243   3.416   8.594  0.3066  0.8502  0.9317
  406MOL0     H54803   2.384   3.469   8.501 -0.3148  0.9419  2.2029
  406MOL0     H54804   2.286   3.259   8.430 -4.8341 -2.9493 -0.0927
  406MOL0     H54805   2.136   3.344   8.381 -1.2065  1.7789  3.7498
  406MOL0     H54806   2.362   3.519   8.079 -0.2509 -1.8027 -1.2636
  406MOL0     H54807   2.218   3.863   8.390  0.0182 -1.1208  1.4713
  406MOL0     H54808   2.095   4.035   8.293 -0.1664  1.3357 -1.6357
  406MOL0     H54809   2.100   4.200   8.359 -1.5393 -0.1938 -2.7001
  406MOL0     H54810   2.227   4.150   8.260 -0.6972  0.8513 -0.6221
  407MOL0     O54811   3.764   3.773   1.237  0.2290 -0.8730 -0.2357
  407MOL0     C54812   3.699   3.823   1.329 -0.2899 -0.2273 -0.5191
  407MOL0     O54813   3.563   3.835   1.323  0.4548  0.4660  0.4964
  407MOL0     C54814   3.507   3.801   1.194  0.0086 -0.5254  0.5043
  407MOL0     C54815   3.486   3.901   1.096 -0.1472  0.0291 -0.2133
  407MOL0     C54816   3.439   3.877   0.964  0.4046  0.2707 -0.1854
  407MOL0     C54817   3.415   3.741   0.926 -0.2097 -0.7531  0.6561
  407MOL0     O54818   3.360   3.708   0.808 -0.1664 -0.2089 -0.4898
  407MOL0     C54819   3.409   3.777   0.690  0.0164  0.6921  0.4301
  407MOL0     C54820   3.417   3.665   0.595 -0.7633  0.6640  1.3169
  407MOL0     C54821   3.453   3.726   0.464 -0.1801  0.7127  0.0651
  407MOL0     C54822   3.447   3.622   0.356  0.2152  0.5749  0.1792
  407MOL0     C54823   3.453   3.678   0.213 -1.0949 -0.7364  0.5270
  407MOL0     C54824   3.322   3.681   0.128  0.1138  1.1632 -1.1609
  407MOL0     C54825   3.358   3.760   0.002  0.2133 -0.7349 -0.5416
  407MOL0     C54826   3.228   3.819  -0.077 -1.1838  0.3100  0.0003
  407MOL0     N54827   3.127   3.720  -0.107 -0.6977  0.9145 -0.2727
  407MOL0     C54828   3.157   3.589  -0.153 -0.4375  0.0154 -0.4847
  407MOL0     C54829   3.041   3.524  -0.160 -0.3010  0.6714  1.0866
  407MOL0     C54830   3.014   3.374  -0.157 -0.6742 -0.0709  0.8356
  407MOL0     C54831   3.141   3.280  -0.135  1.0687 -0.5282 -0.1357
  407MOL0     C54832   3.108   3.141  -0.084 -0.6479 -0.0096 -0.3101
  407MOL0     C54833   3.025   3.044  -0.170 -0.1260  0.0186  0.6983
  407MOL0     O54834   3.052   2.906  -0.141 -0.4110  0.4985  0.5617
  407MOL0     C54835   2.978   2.809  -0.196 -0.5163 -0.4176  0.7489
  407MOL0     C54836   2.996   2.678  -0.139  0.1516 -0.0949 -0.0655
  407MOL0     C54837   2.932   2.559  -0.178  0.1964  0.6154  0.2381
  407MOL0     C54838   2.865   2.577  -0.305  0.6379 -0.4103  0.2472
  407MOL0     C54839   2.825   2.463  -0.385  0.6590 -0.9754 -0.3780
  407MOL0     O54840   2.755   2.493  -0.497 -0.1388  0.9978  0.0435
  407MOL0     C54841   2.748   2.384  -0.585 -0.0472 -0.1298  0.0530
  407MOL0     C54842   2.859   2.353  -0.673  1.1664  0.2902  0.1434
  407MOL0     C54843   2.849   2.238  -0.759 -0.1425  0.1029  0.0880
  407MOL0     C54844   2.731   2.154  -0.760 -0.6087 -0.7431  0.3837
  407MOL0     O54845   2.745   2.041  -0.828  0.4184 -0.8944  0.6178
  407MOL0     C54846   2.644   1.948  -0.821 -0.5176  0.0636 -1.6563
  407MOL0     C54847   2.682   1.811  -0.879 -0.9385 -0.2491 -0.7213
  407MOL0     C54848   2.588   1.700  -0.849 -0.1499 -0.5437 -0.6061
  407MOL0     C54849   2.593   1.595  -0.951 -0.0067  0.2494  1.0025
  407MOL0     C54850   2.507   1.484  -0.896  0.1161 -0.9223 -0.4807
  407MOL0     C54851   2.492   1.354  -0.971  0.0804 -0.3624  1.0336
  407MOL0     C54852   2.379   1.263  -0.902 -1.1999 -0.6750  0.3907
  407MOL0     C54853   2.328   1.157  -1.009 -0.2990  0.6108 -0.0417
  407MOL0    Cl54854   2.216   1.044  -0.937  0.3344  0.0690  0.0048
  407MOL0     C54855   2.624   2.197  -0.684  0.5337 -0.4027  0.3048
  407MOL0     C54856   2.633   2.309  -0.597 -0.1091 -0.5661  0.4629
  407MOL0     O54857   2.873   2.352  -0.354  0.2526  0.3450  0.4136
  407MOL0     C54858   2.844   2.704  -0.363 -0.4504  1.0885 -0.3289
  407MOL0     C54859   2.891   2.819  -0.307 -0.2820 -0.5672  0.0951
  407MOL0     N54860   2.942   3.617  -0.131  0.6975  0.0397 -0.1129
  407MOL0     N54861   2.995   3.724  -0.093  0.1439  0.3538  0.2141
  407MOL0     C54862   3.427   3.640   1.023 -0.0821 -1.2192  0.4441
  407MOL0     C54863   3.473   3.669   1.156  0.1532  0.3376  1.1885
  407MOL0     C54864   3.757   3.863   1.458 -1.0609 -0.2480  0.1219
  407MOL0     C54865   3.674   3.882   1.566  1.1402  0.0896  0.3352
  407MOL0     C54866   3.728   3.910   1.693 -1.0217 -0.0717 -0.4614
  407MOL0     C54867   3.857   3.935   1.711 -0.0071 -0.8000 -0.1098
  407MOL0     O54868   3.895   3.979   1.832 -0.3119 -0.0366 -0.6838
  407MOL0     C54869   3.867   4.114   1.873  0.0077  0.1744  0.3202
  407MOL0     C54870   3.911   4.118   2.024  0.1710  0.1360  0.2590
  407MOL0     C54871   3.829   4.044   2.122  0.2023 -0.3637 -0.0580
  407MOL0     C54872   3.897   4.021   2.255 -0.1366 -0.0026 -0.3244
  407MOL0     C54873   3.915   4.147   2.317 -0.0415 -0.3185 -0.7251
  407MOL0     C54874   3.936   4.263   2.361 -0.0588  0.2107 -0.7371
  407MOL0     C54875   3.936   3.920   1.604 -0.4624 -0.2213 -0.4757
  407MOL0     C54876   3.901   3.874   1.474  0.3756  0.7936 -0.0433
  407MOL0     C54877   4.001   3.863   1.369 -0.3124 -0.0072  0.2933
  407MOL0     H54878   3.516   4.002   1.122 -0.7484  0.1667 -0.0592
  407MOL0     H54879   3.440   3.960   0.894 -1.5867  2.0415  1.7314
  407MOL0     H54880   3.345   3.860   0.659 -1.4736 -0.3690  0.5559
  407MOL0     H54881   3.505   3.825   0.710 -0.3133 -0.1349  5.0807
  407MOL0     H54882   3.332   3.596   0.598  1.1120 -1.8743 -0.0183
  407MOL0     H54883   3.500   3.598   0.619  1.9611  2.2272 -2.6757
  407MOL0     H54884   3.552   3.769   0.479 -1.1696  3.6673 -1.2190
  407MOL0     H54885   3.380   3.803   0.437  1.6269  1.3131 -3.7272
  407MOL0     H54886   3.529   3.551   0.375 -1.8248 -1.3549  2.5089
  407MOL0     H54887   3.352   3.569   0.364 -0.1863  1.3312  0.5507
  407MOL0     H54888   3.484   3.783   0.219 -3.0988 -0.1929  3.1493
  407MOL0     H54889   3.533   3.630   0.156 -0.0893  1.4619 -0.0554
  407MOL0     H54890   3.281   3.580   0.114 -1.6382  1.4562  1.1147
  407MOL0     H54891   3.254   3.728   0.200  3.1040  1.7798  1.4646
  407MOL0     H54892   3.418   3.693  -0.060  1.0720  0.8883 -1.5298
  407MOL0     H54893   3.428   3.840   0.026  2.3097 -2.4757 -0.4936
  407MOL0     H54894   3.189   3.896  -0.010  1.0894  1.3410  0.2481
  407MOL0     H54895   3.257   3.869  -0.170 -0.7404  2.7008  1.3369
  407MOL0     H54896   3.246   3.529  -0.170 -0.0864 -0.1399  1.6326
  407MOL0     H54897   2.960   3.356  -0.064  0.5534  1.0922  1.8023
  407MOL0     H54898   2.959   3.350  -0.249  3.1735 -2.2731 -1.1504
  407MOL0     H54899   3.191   3.264  -0.231 -2.1164 -1.2289 -1.8449
  407MOL0     H54900   3.202   3.328  -0.059  2.8066 -1.1602 -1.0769
  407MOL0     H54901   3.071   3.146   0.019  2.3934 -1.7864  1.0003
  407MOL0     H54902   3.203   3.089  -0.073 -0.0139  0.8562 -1.5927
  407MOL0     H54903   3.037   3.068  -0.276 -0.6837  1.1703  0.8778
  407MOL0     H54904   2.925   3.080  -0.143  0.0856 -0.0906  1.6407
  407MOL0     H54905   3.064   2.662  -0.055 -2.0190 -1.4682  1.5552
  407MOL0     H54906   2.959   2.462  -0.138 -1.5946  0.8307  2.0916
  407MOL0     H54907   2.953   2.405  -0.662  0.6294  0.7340  4.2931
  407MOL0     H54908   2.933   2.221  -0.824  0.0617  0.0755  0.3574
  407MOL0     H54909   2.628   1.926  -0.715  0.5647 -1.5596 -1.7939
  407MOL0     H54910   2.554   1.996  -0.860 -1.0440  2.2525  1.7777
  407MOL0     H54911   2.686   1.836  -0.986 -3.4389  2.0580 -0.3931
  407MOL0     H54912   2.780   1.778  -0.843 -2.9264 -1.2025  4.7488
  407MOL0     H54913   2.620   1.658  -0.754 -0.2089 -2.0300 -1.2104
  407MOL0     H54914   2.487   1.741  -0.837 -0.6069 -2.3337  3.2795
  407MOL0     H54915   2.693   1.554  -0.968  0.3026  1.5737 -0.6190
  407MOL0     H54916   2.549   1.635  -1.043  0.0474  1.5317  1.5091
  407MOL0     H54917   2.406   1.517  -0.867  0.9228 -1.7132  3.9172
  407MOL0     H54918   2.552   1.461  -0.800  0.2115  3.1396  0.6388
  407MOL0     H54919   2.453   1.387  -1.068 -0.1539 -1.0230  0.9008
  407MOL0     H54920   2.581   1.293  -0.989  0.1070 -0.0618  0.1147
  407MOL0     H54921   2.293   1.326  -0.878  0.8265  2.6476 -0.3427
  407MOL0     H54922   2.436   1.220  -0.819  1.9761 -0.3725 -1.4944
  407MOL0     H54923   2.289   1.208  -1.097  0.5322 -1.0200 -1.4139
  407MOL0     H54924   2.406   1.098  -1.057 -1.9600 -0.9469 -0.9589
  407MOL0     H54925   2.529   2.144  -0.687  0.7043 -0.7265  0.5414
  407MOL0     H54926   2.547   2.335  -0.536 -0.1103 -2.3417  1.2841
  407MOL0     H54927   2.783   2.716  -0.452 -1.3965  0.7744  0.2736
  407MOL0     H54928   2.866   2.912  -0.357 -1.6021 -1.6268 -1.3256
  407MOL0     H54929   3.402   3.535   1.010 -0.0707 -1.0330 -1.2505
  407MOL0     H54930   3.506   3.600   1.233  3.0526 -0.9991 -1.0280
  407MOL0     H54931   3.567   3.870   1.556  1.3452 -1.3498 -0.3875
  407MOL0     H54932   3.666   3.932   1.779  0.0486 -0.3735  0.4162
  407MOL0     H54933   3.760   4.130   1.865 -0.0934  0.0588  1.3027
  407MOL0     H54934   3.928   4.173   1.804 -0.2627  0.0064 -0.0641
  407MOL0     H54935   3.915   4.224   2.048 -0.6920  0.4231 -0.8064
  407MOL0     H54936   4.009   4.070   2.013 -0.9143 -1.8356 -1.5934
  407MOL0     H54937   3.789   3.955   2.072  1.4240 -0.2437 -1.3207
  407MOL0     H54938   3.736   4.096   2.148 -1.4184 -2.8208 -0.6367
  407MOL0     H54939   3.829   3.963   2.318  0.2993  0.0378  0.1904
  407MOL0     H54940   3.997   3.977   2.253 -0.0462  0.1245  1.0065
  407MOL0     H54941   3.946   4.362   2.401  1.1519  0.3566 -1.3767
  407MOL0     H54942   4.042   3.940   1.615 -0.5704  1.7662 -2.3445
  407MOL0     H54943   4.002   3.956   1.311  1.1483  0.7411  1.4534
  407MOL0     H54944   4.101   3.850   1.411  1.1373 -0.2800 -2.9567
  407MOL0     H54945   3.988   3.775   1.306  1.9860 -0.1806 -0.0095
  408MOL0     O54946   5.222   3.043  10.868 -0.0564 -0.6314  0.8906
  408MOL0     C54947   5.234   2.943  10.932  0.0410 -0.4038 -0.8880
  408MOL0     O54948   5.267   2.821  10.885  0.1222  0.4648 -0.1597
  408MOL0     C54949   5.279   2.809  10.748  0.2424  0.4562  0.7008
  408MOL0     C54950   5.393   2.853  10.689  0.3198 -0.1151 -0.1936
  408MOL0     C54951   5.413   2.857  10.546 -0.7443 -0.1991  0.1666
  408MOL0     C54952   5.310   2.814  10.465 -0.5936 -0.8073  0.3317
  408MOL0     O54953   5.346   2.810  10.334  0.5217  0.7792 -0.0373
  408MOL0     C54954   5.263   2.754  10.234  0.0894  0.9833 -0.6043
  408MOL0     C54955   5.289   2.605  10.215 -0.1939  0.4189 -0.0236
  408MOL0     C54956   5.226   2.536  10.085  0.5706  0.1303  0.7096
  408MOL0     C54957   5.081   2.509  10.088 -0.2206 -0.5183 -1.0595
  408MOL0     C54958   5.050   2.391  10.178  0.1453 -0.0321  0.5947
  408MOL0     C54959   4.904   2.361  10.159  0.5064  0.1755  0.0211
  408MOL0     C54960   4.854   2.302  10.028 -0.5700  0.3705 -0.0956
  408MOL0     C54961   4.883   2.151  10.029  0.0695 -0.0586  0.3092
  408MOL0     N54962   4.786   2.072  10.091  0.1114  0.7025 -0.5046
  408MOL0     C54963   4.778   2.042  10.227 -0.9149 -0.6435  0.6993
  408MOL0     C54964   4.663   1.974  10.250 -0.6144  0.4382  0.5013
  408MOL0     C54965   4.639   1.911  10.384 -0.1945  0.7221 -0.2552
  408MOL0     C54966   4.540   1.789  10.390 -0.4401  0.6359 -0.0750
  408MOL0     C54967   4.521   1.735  10.538 -0.9138  0.5369  0.3539
  408MOL0     C54968   4.641   1.658  10.597 -0.3101  0.0661 -0.0778
  408MOL0     O54969   4.665   1.548  10.512 -0.0884 -0.7261  0.1102
  408MOL0     C54970   4.781   1.471  10.517 -0.4606  1.2240 -0.2908
  408MOL0     C54971   4.815   1.401  10.404 -0.1264 -0.0856  0.6811
  408MOL0     C54972   4.916   1.303  10.386  0.5955 -0.3625 -0.4451
  408MOL0     C54973   4.990   1.281  10.507 -0.3438  0.4533 -0.0530
  408MOL0     C54974   5.119   1.199  10.498 -0.5151 -0.4525 -0.1870
  408MOL0     O54975   5.166   1.164  10.368  0.1062 -0.2821 -0.4437
  408MOL0     C54976   5.267   1.065  10.361 -0.3988 -0.0547 -0.0332
  408MOL0     C54977   5.239   0.936  10.412  0.1863  0.9522  0.3829
  408MOL0     C54978   5.338   0.839  10.416 -0.4544  0.5251 -0.4070
  408MOL0     C54979   5.465   0.871  10.374 -0.0987 -0.4172  0.2306
  408MOL0     O54980   5.569   0.785  10.369 -0.7760  0.5794 -0.0957
  408MOL0     C54981   5.553   0.646  10.409 -0.4952 -0.2059 -0.5459
  408MOL0     C54982   5.523   0.561  10.285  0.2667 -0.0726 -1.3445
  408MOL0     C54983   5.600   0.420  10.275  0.0758 -0.9053 -0.9899
  408MOL0     C54984   5.515   0.317  10.193 -0.6552  0.3049 -0.2020
  408MOL0     C54985   5.411   0.239  10.278 -0.6701 -0.0583  0.0664
  408MOL0     C54986   5.356   0.118  10.189  0.6738 -0.0891  0.8203
  408MOL0     C54987   5.239   0.140  10.088  0.0559 -0.7787 -0.3197
  408MOL0     C54988   5.142   0.255  10.125  0.4455  0.4701  0.2450
  408MOL0    Cl54989   5.088   0.234  10.305 -0.0282  0.4700  0.1538
  408MOL0     C54990   5.492   1.001  10.322  0.7058 -0.2248 -0.7777
  408MOL0     C54991   5.390   1.098  10.315 -0.1376  0.1177  0.7547
  408MOL0     O54992   5.183   1.176  10.601  0.2432 -0.4361 -0.5474
  408MOL0     C54993   4.945   1.340  10.637  0.3141 -0.2783 -0.7072
  408MOL0     C54994   4.842   1.433  10.636 -0.3575 -0.4797  0.0233
  408MOL0     N54995   4.601   1.957  10.129 -0.1175  0.6017  0.0126
  408MOL0     N54996   4.683   2.005  10.040 -0.6273 -1.0020  0.8778
  408MOL0     C54997   5.188   2.773  10.523  0.5821  0.3662 -0.1184
  408MOL0     C54998   5.178   2.772  10.663 -0.2858 -0.1487 -0.0696
  408MOL0     C54999   5.214   2.964  11.077  0.1437  0.4056 -0.4574
  408MOL0     C55000   5.123   3.069  11.121 -0.4534  0.5250 -0.3611
  408MOL0     C55001   5.111   3.094  11.256 -0.1671 -0.0731 -0.3338
  408MOL0     C55002   5.172   3.016  11.354  0.1812  1.0385 -0.8022
  408MOL0     O55003   5.174   3.059  11.487  0.0896  1.5052  0.4989
  408MOL0     C55004   5.188   2.957  11.587  0.0245  0.4998 -0.4067
  408MOL0     C55005   5.166   3.013  11.733 -0.0468  0.6835  0.4340
  408MOL0     C55006   5.296   3.021  11.815  0.3049  0.4023  0.6125
  408MOL0     C55007   5.379   3.153  11.805 -0.9533 -1.2218  0.3262
  408MOL0     C55008   5.436   3.170  11.668  0.2281  0.2525  0.1316
  408MOL0     C55009   5.487   3.170  11.555  0.0386  0.1747  0.5712
  408MOL0     C55010   5.250   2.904  11.309  0.4357 -0.1484  0.3345
  408MOL0     C55011   5.279   2.882  11.174 -1.1787 -0.6213 -0.5433
  408MOL0     C55012   5.394   2.786  11.142 -0.4101  0.1955  1.0544
  408MOL0     H55013   5.469   2.901  10.750  0.1025  2.0120 -1.4887
  408MOL0     H55014   5.507   2.897  10.511 -0.6059  0.7283  1.5209
  408MOL0     H55015   5.155   2.766  10.249 -0.0740 -0.4370 -0.5203
  408MOL0     H55016   5.301   2.802  10.144  1.4024 -0.9738 -1.1387
  408MOL0     H55017   5.266   2.551  10.307  0.6843 -2.7838 -1.5450
  408MOL0     H55018   5.397   2.585  10.216 -0.0389  1.0698  2.4419
  408MOL0     H55019   5.275   2.440  10.065  2.2387  1.1856 -0.5805
  408MOL0     H55020   5.244   2.599   9.997 -0.0575 -1.7493 -0.8382
  408MOL0     H55021   5.039   2.600  10.132 -0.2989 -1.5094  1.0599
  408MOL0     H55022   5.052   2.489   9.985  0.9186  0.1393 -1.5343
  408MOL0     H55023   5.112   2.303  10.158 -2.5972 -1.4464 -2.7685
  408MOL0     H55024   5.059   2.411  10.285 -3.4085  1.2289  0.7724
  408MOL0     H55025   4.873   2.301  10.246  4.3820 -1.0182  0.7575
  408MOL0     H55026   4.847   2.454  10.161  0.0813 -0.0627 -0.5413
  408MOL0     H55027   4.921   2.327   9.946 -1.7086 -2.8543 -2.2178
  408MOL0     H55028   4.751   2.320   9.993  0.4160  0.3655 -3.3215
  408MOL0     H55029   4.904   2.121   9.925  0.3051  3.8001 -0.9209
  408MOL0     H55030   4.977   2.129  10.080  1.5194 -0.3693 -2.2869
  408MOL0     H55031   4.855   2.058  10.301 -0.1520 -2.0139  0.2380
  408MOL0     H55032   4.736   1.875  10.419  0.3708  2.1910 -0.2172
  408MOL0     H55033   4.595   1.980  10.458 -1.1715 -1.8762  1.7536
  408MOL0     H55034   4.437   1.808  10.358 -0.4937 -2.6911 -2.4426
  408MOL0     H55035   4.566   1.701  10.329  0.4465  1.8483 -1.5184
  408MOL0     H55036   4.436   1.666  10.529 -0.5691  0.2302 -0.7344
  408MOL0     H55037   4.482   1.813  10.603  0.9679  0.5208  1.5724
  408MOL0     H55038   4.614   1.625  10.697 -1.6944  0.8687 -0.1627
  408MOL0     H55039   4.729   1.722  10.609 -0.5799  0.6396 -1.0136
  408MOL0     H55040   4.752   1.426  10.319  0.6609 -1.8198 -0.4680
  408MOL0     H55041   4.938   1.258  10.290 -0.4693  0.1468 -0.9449
  408MOL0     H55042   5.143   0.902  10.448 -0.6748  1.5238 -1.2458
  408MOL0     H55043   5.316   0.736  10.444  1.9521 -0.0924 -0.5351
  408MOL0     H55044   5.649   0.617  10.453 -0.6127  1.8541  1.1822
  408MOL0     H55045   5.479   0.622  10.486 -1.9581 -0.4417 -1.9498
  408MOL0     H55046   5.415   0.545  10.283  0.2735 -0.2162 -0.7127
  408MOL0     H55047   5.548   0.624  10.199 -0.5368  1.8986 -0.2177
  408MOL0     H55048   5.698   0.437  10.229  0.2154 -0.6609 -0.6082
  408MOL0     H55049   5.600   0.376  10.375 -2.1799  1.8948  0.3859
  408MOL0     H55050   5.580   0.255  10.132 -0.3586  3.1813 -3.0496
  408MOL0     H55051   5.456   0.380  10.125  2.9521  2.1044 -1.9227
  408MOL0     H55052   5.326   0.303  10.304 -0.5482 -0.2747  1.0014
  408MOL0     H55053   5.453   0.200  10.371 -2.7652  0.1496  1.1508
  408MOL0     H55054   5.443   0.074  10.140  1.0875 -1.2851  2.5772
  408MOL0     H55055   5.317   0.034  10.247 -1.6229 -0.6371 -1.3388
  408MOL0     H55056   5.191   0.046  10.060 -1.9077 -0.7601  2.5729
  408MOL0     H55057   5.275   0.178   9.992 -2.3754  0.7812 -0.6873
  408MOL0     H55058   5.196   0.349  10.119  2.0147 -0.4301 -0.4205
  408MOL0     H55059   5.055   0.259  10.059  0.6556  0.8716 -0.0119
  408MOL0     H55060   5.589   1.021  10.277  1.9283  2.1965  2.5429
  408MOL0     H55061   5.408   1.192  10.264 -0.0665 -0.7191 -0.8289
  408MOL0     H55062   5.010   1.315  10.720  2.6367  1.2132 -1.9589
  408MOL0     H55063   4.809   1.478  10.730  0.4365  2.5784 -1.0488
  408MOL0     H55064   5.115   2.733  10.454 -1.8965  2.1829  1.2939
  408MOL0     H55065   5.087   2.739  10.711  0.2134 -0.8361  0.4286
  408MOL0     H55066   5.056   3.126  11.057  0.7768 -0.7121 -2.8776
  408MOL0     H55067   5.066   3.186  11.289  0.9316 -0.1208  1.4481
  408MOL0     H55068   5.296   2.941  11.588 -0.2637 -2.2293  2.1575
  408MOL0     H55069   5.128   2.868  11.568  2.0191 -0.8415 -0.6911
  408MOL0     H55070   5.086   2.952  11.776 -1.1938  0.0675 -2.3781
  408MOL0     H55071   5.135   3.117  11.724  3.6192  1.7183 -2.2349
  408MOL0     H55072   5.363   2.941  11.782  0.9327  0.9874  0.4315
  408MOL0     H55073   5.272   3.010  11.921 -1.7470  0.9778  0.2394
  408MOL0     H55074   5.324   3.244  11.833  0.0507 -1.0584  1.8812
  408MOL0     H55075   5.468   3.151  11.868  0.4475  0.4886 -1.4566
  408MOL0     H55076   5.516   3.173  11.453 -2.4001  3.6151 -0.2116
  408MOL0     H55077   5.301   2.837  11.378 -1.4837 -1.7946  0.2160
  408MOL0     H55078   5.462   2.763  11.225 -0.5911 -1.6022  0.7410
  408MOL0     H55079   5.350   2.696  11.100  1.0349  0.7704 -1.9863
  408MOL0     H55080   5.453   2.827  11.059  0.7350 -2.0190  0.6993
  409MOL0     O55081   8.476   2.704   3.362  0.3149  0.1559 -0.5711
  409MOL0     C55082   8.407   2.614   3.412 -0.0213  0.5958 -0.5727
  409MOL0     O55083   8.280   2.579   3.361 -0.5291  0.7228  0.3450
  409MOL0     C55084   8.233   2.653   3.257 -0.1338 -0.0695  0.4023
  409MOL0     C55085   8.259   2.634   3.120 -0.8685 -0.3861  0.2219
  409MOL0     C55086   8.197   2.712   3.029 -0.4985 -1.1526 -0.0136
  409MOL0     C55087   8.104   2.822   3.067 -0.0281  0.6427  0.9090
  409MOL0     O55088   8.038   2.884   2.964  0.7803 -0.2133  0.6447
  409MOL0     C55089   7.955   3.003   2.992 -0.6616 -0.5584  1.1674
  409MOL0     C55090   7.818   2.973   3.023  0.1480 -0.3798 -0.2385
  409MOL0     C55091   7.776   3.082   3.120  0.2913 -0.1557 -0.9621
  409MOL0     C55092   7.622   3.065   3.137 -0.5130 -0.5498  0.4979
  409MOL0     C55093   7.552   3.184   3.206 -0.3391  0.4194 -0.0203
  409MOL0     C55094   7.579   3.319   3.135 -0.0673  0.4484 -0.2102
  409MOL0     C55095   7.534   3.317   2.989 -0.6713 -0.1426  0.1048
  409MOL0     C55096   7.385   3.299   2.975  0.0449 -0.1765  0.7172
  409MOL0     N55097   7.303   3.406   3.041 -0.1317  0.1229  0.2990
  409MOL0     C55098   7.214   3.500   2.991  0.4776  0.0414 -0.4860
  409MOL0     C55099   7.155   3.564   3.097 -0.0505 -0.0557  0.6828
  409MOL0     C55100   7.052   3.667   3.072  0.2516 -0.4345 -0.5437
  409MOL0     C55101   6.918   3.609   3.055  0.1697 -0.5479  0.2680
  409MOL0     C55102   6.800   3.710   3.060  0.3619 -0.3664 -1.5490
  409MOL0     C55103   6.733   3.727   3.208 -0.5083  0.2850 -0.1400
  409MOL0     O55104   6.834   3.732   3.312  0.5361 -0.6071  0.3765
  409MOL0     C55105   6.853   3.859   3.357  1.0262 -0.4258 -0.1261
  409MOL0     C55106   6.933   3.957   3.289 -0.4018  0.1574  0.5214
  409MOL0     C55107   6.979   4.073   3.353 -0.0740  0.6392  0.6464
  409MOL0     C55108   6.910   4.114   3.467 -0.5925  0.1593 -0.0551
  409MOL0     C55109   6.954   4.244   3.532  0.3335 -0.1521 -1.5175
  409MOL0     O55110   7.074   4.290   3.502 -0.4484  0.7141 -0.4634
  409MOL0     C55111   7.111   4.412   3.527  0.6198 -0.0583 -0.0657
  409MOL0     C55112   7.234   4.438   3.586  0.2384  0.0309 -0.3099
  409MOL0     C55113   7.284   4.574   3.600 -1.1796  1.2634  0.6644
  409MOL0     C55114   7.213   4.676   3.565 -0.5976 -1.4741  1.0455
  409MOL0     O55115   7.274   4.802   3.588 -0.7837  0.5469 -1.1249
  409MOL0     C55116   7.247   4.911   3.504 -0.3936  0.2052  0.2645
  409MOL0     C55117   7.300   4.872   3.367 -0.3696 -0.5796  0.5579
  409MOL0     C55118   7.449   4.827   3.359 -0.0758 -0.5641  0.3527
  409MOL0     C55119   7.462   4.747   3.234 -0.2526 -0.7509 -0.1966
  409MOL0     C55120   7.421   4.598   3.251 -0.5727 -0.6871 -0.3993
  409MOL0     C55121   7.409   4.532   3.117 -0.4768  0.8537 -0.4099
  409MOL0     C55122   7.337   4.391   3.133  0.6155 -0.4927 -0.5161
  409MOL0     C55123   7.352   4.320   2.988 -0.2230  0.7340  0.2370
  409MOL0    Cl55124   7.278   4.158   3.002 -0.4907 -0.5545  0.7117
  409MOL0     C55125   7.091   4.655   3.505 -0.4645 -0.3166  0.5822
  409MOL0     C55126   7.039   4.526   3.492 -0.1798  0.2300  0.8936
  409MOL0     O55127   6.873   4.304   3.609  0.6948 -0.1713 -0.0926
  409MOL0     C55128   6.808   4.030   3.517 -0.2083 -0.3772  0.4915
  409MOL0     C55129   6.779   3.903   3.468  0.3119 -0.0561  0.1165
  409MOL0     N55130   7.197   3.505   3.213  0.5308  0.7517  0.0538
  409MOL0     N55131   7.273   3.407   3.177 -0.3345  0.2694  0.3775
  409MOL0     C55132   8.080   2.839   3.205  0.6714  0.8077  0.4337
  409MOL0     C55133   8.141   2.754   3.297  0.1060  0.1352  0.7772
  409MOL0     C55134   8.475   2.534   3.516  0.4793 -1.0689 -0.0003
  409MOL0     C55135   8.424   2.413   3.553 -0.3998 -0.1345  0.3894
  409MOL0     C55136   8.466   2.343   3.670 -0.4845  0.2639  1.4135
  409MOL0     C55137   8.585   2.381   3.741  0.5979  0.3606 -0.5116
  409MOL0     O55138   8.641   2.295   3.829  1.0931  0.4870  0.2116
  409MOL0     C55139   8.557   2.235   3.930 -0.9886  0.3678  0.0392
  409MOL0     C55140   8.550   2.342   4.040  0.6669  0.1936 -0.6959
  409MOL0     C55141   8.690   2.399   4.085 -0.4167  0.6543  1.0130
  409MOL0     C55142   8.765   2.297   4.172  0.5886 -0.1990 -0.3554
  409MOL0     C55143   8.712   2.293   4.306  0.2386 -0.0549 -0.2839
  409MOL0     C55144   8.660   2.282   4.418 -0.5116  0.2810  0.9044
  409MOL0     C55145   8.646   2.501   3.694  0.1675  0.0061 -0.6021
  409MOL0     C55146   8.586   2.590   3.592  0.0796  0.3797 -0.4489
  409MOL0     C55147   8.673   2.711   3.557  1.4134  0.7353  0.3756
  409MOL0     H55148   8.316   2.549   3.084 -1.1320 -0.4127 -0.1339
  409MOL0     H55149   8.215   2.694   2.924 -3.3311 -1.2506 -0.5709
  409MOL0     H55150   8.002   3.075   3.060 -0.8903  4.1171 -3.0450
  409MOL0     H55151   7.956   3.052   2.894 -1.8621 -2.1436  0.3072
  409MOL0     H55152   7.825   2.878   3.076 -1.4691 -0.6655 -0.4799
  409MOL0     H55153   7.753   2.958   2.937 -1.1184  1.1612  0.3961
  409MOL0     H55154   7.806   3.180   3.082  2.3066 -0.7358 -0.9416
  409MOL0     H55155   7.813   3.051   3.218 -1.4958  0.3303 -0.0781
  409MOL0     H55156   7.566   3.056   3.044  0.6876 -0.3402 -0.2669
  409MOL0     H55157   7.603   2.967   3.182 -0.3173 -1.0348 -0.4492
  409MOL0     H55158   7.443   3.173   3.211 -0.2000 -1.3032  4.9372
  409MOL0     H55159   7.582   3.175   3.311  0.2169 -1.8954 -0.3257
  409MOL0     H55160   7.537   3.403   3.191 -0.2820  0.0721  0.2034
  409MOL0     H55161   7.685   3.345   3.144 -0.4260  2.2503 -0.6957
  409MOL0     H55162   7.584   3.242   2.926 -1.3672 -0.3263 -0.2399
  409MOL0     H55163   7.563   3.415   2.951 -0.8934 -1.1599 -2.9803
  409MOL0     H55164   7.365   3.294   2.868  0.6606 -3.7563  0.6638
  409MOL0     H55165   7.367   3.200   3.018  1.0180 -1.3613 -1.4829
  409MOL0     H55166   7.193   3.533   2.890  0.6095 -2.8320 -1.5393
  409MOL0     H55167   7.058   3.721   3.167  1.1094 -2.8574  0.8663
  409MOL0     H55168   7.074   3.730   2.986 -0.2418  1.2009  0.4676
  409MOL0     H55169   6.910   3.551   2.963  1.2803 -0.3650  0.0440
  409MOL0     H55170   6.909   3.543   3.142  3.5347 -1.6795 -0.1006
  409MOL0     H55171   6.722   3.668   2.997  0.7143 -3.3337 -0.1604
  409MOL0     H55172   6.828   3.804   3.011  1.0755 -0.7904 -1.9742
  409MOL0     H55173   6.680   3.634   3.228  2.4877 -1.9952 -1.9261
  409MOL0     H55174   6.680   3.823   3.207 -1.9987 -0.5110 -0.9411
  409MOL0     H55175   6.966   3.918   3.193 -0.7271  2.0062 -0.3872
  409MOL0     H55176   7.058   4.140   3.321  0.2141 -0.9003 -2.2005
  409MOL0     H55177   7.293   4.356   3.626  2.1314  1.5627  0.2073
  409MOL0     H55178   7.376   4.601   3.651 -1.2501  0.0762  1.4630
  409MOL0     H55179   7.145   4.952   3.502  0.2481  1.9179  0.3972
  409MOL0     H55180   7.303   5.003   3.526 -1.4262  1.2266 -1.1834
  409MOL0     H55181   7.233   4.798   3.321 -0.3669  0.7713 -1.7418
  409MOL0     H55182   7.279   4.962   3.309 -1.4920 -0.8826  0.4606
  409MOL0     H55183   7.510   4.918   3.355  0.0440 -0.6861 -1.0373
  409MOL0     H55184   7.479   4.767   3.446 -1.4109 -4.0743 -1.4333
  409MOL0     H55185   7.567   4.743   3.204 -0.7758 -2.4252 -1.9245
  409MOL0     H55186   7.412   4.792   3.148 -1.8119  1.4692  1.7248
  409MOL0     H55187   7.323   4.598   3.298 -0.3991  0.7974  0.0125
  409MOL0     H55188   7.496   4.545   3.311 -0.8318 -0.4388  0.1406
  409MOL0     H55189   7.345   4.597   3.057 -1.1675  1.8373  1.3236
  409MOL0     H55190   7.512   4.520   3.082 -0.6809 -0.0929 -0.7120
  409MOL0     H55191   7.231   4.415   3.145  1.5661  5.2057 -0.2628
  409MOL0     H55192   7.367   4.339   3.224 -1.0660  2.7653  2.1405
  409MOL0     H55193   7.307   4.383   2.912  0.6915  0.0725 -0.8833
  409MOL0     H55194   7.459   4.317   2.968 -0.7379 -1.6210 -2.8206
  409MOL0     H55195   7.032   4.735   3.460 -0.5037 -2.8293 -4.6085
  409MOL0     H55196   6.938   4.516   3.454 -1.0113  1.4990  2.6215
  409MOL0     H55197   6.748   4.061   3.602 -0.2282 -2.2153  1.1813
  409MOL0     H55198   6.701   3.837   3.503 -1.0223  1.1646 -0.4269
  409MOL0     H55199   7.998   2.901   3.241 -2.0577 -2.2283 -0.1267
  409MOL0     H55200   8.126   2.775   3.403 -3.3551  1.4895  0.1480
  409MOL0     H55201   8.342   2.369   3.496  0.3925  1.7635 -2.4277
  409MOL0     H55202   8.413   2.250   3.691  1.0445 -0.5423  1.8654
  409MOL0     H55203   8.611   2.143   3.956  1.9897  1.8798 -0.3558
  409MOL0     H55204   8.458   2.204   3.895 -1.9013  2.2469  0.8336
  409MOL0     H55205   8.500   2.312   4.133  0.1309  2.2837 -0.2531
  409MOL0     H55206   8.483   2.419   4.001  1.1487  0.7715 -0.3902
  409MOL0     H55207   8.671   2.488   4.146  1.3542  0.4209  1.9679
  409MOL0     H55208   8.750   2.427   3.998  0.1696 -1.0421  0.8369
  409MOL0     H55209   8.751   2.194   4.137 -2.3919 -0.1058  0.3127
  409MOL0     H55210   8.873   2.315   4.174  0.2568  2.0791  0.8523
  409MOL0     H55211   8.620   2.268   4.516 -0.1766 -0.6033  0.9253
  409MOL0     H55212   8.746   2.532   3.724  0.8708 -2.0650 -0.6595
  409MOL0     H55213   8.614   2.803   3.554  2.3903  1.3689 -2.0636
  409MOL0     H55214   8.751   2.720   3.632  1.2412  1.4255  0.4732
  409MOL0     H55215   8.719   2.698   3.458 -1.7021  2.6119 -1.5007
  410MOL0     O55216   2.112   8.387   6.465 -0.2454  0.3404  0.3285
  410MOL0     C55217   2.113   8.271   6.420  0.2537 -0.5041 -0.4813
  410MOL0     O55218   2.024   8.211   6.337  0.3880  0.9338 -0.5610
  410MOL0     C55219   1.921   8.285   6.289 -0.6967  0.7095  0.3997
  410MOL0     C55220   1.848   8.382   6.364 -0.5196  0.1175 -1.0024
  410MOL0     C55221   1.733   8.445   6.316  0.2685  0.4682  0.7492
  410MOL0     C55222   1.699   8.423   6.175 -0.6385 -0.1665 -0.7445
  410MOL0     O55223   1.591   8.488   6.122 -1.1942  1.0513  0.1936
  410MOL0     C55224   1.567   8.459   5.981  0.8215  0.5300  0.3043
  410MOL0     C55225   1.452   8.545   5.927  0.1208  0.7533 -0.2731
  410MOL0     C55226   1.476   8.690   5.947  0.3255  0.9072 -0.4206
  410MOL0     C55227   1.345   8.771   5.908  0.0694 -1.0617 -0.5166
  410MOL0     C55228   1.373   8.928   5.895 -0.3671  0.3367  0.7179
  410MOL0     C55229   1.256   9.001   5.829 -0.1172  0.0802 -1.1191
  410MOL0     C55230   1.228   8.948   5.688  0.6002  0.2883  0.4466
  410MOL0     C55231   1.338   8.958   5.585 -0.3892  0.2193 -0.2153
  410MOL0     N55232   1.297   8.916   5.455  0.2105 -0.7430  0.2771
  410MOL0     C55233   1.381   8.875   5.353  0.5584 -1.1866  0.7651
  410MOL0     C55234   1.308   8.891   5.243  0.4673 -0.6567  0.9325
  410MOL0     C55235   1.340   8.882   5.095 -0.4297 -0.1126 -0.3561
  410MOL0     C55236   1.270   8.994   5.007  0.1240  0.8788 -0.5841
  410MOL0     C55237   1.312   9.133   5.031 -0.2692 -0.6215  0.8533
  410MOL0     C55238   1.214   9.242   4.976 -0.6312 -1.1390  0.6412
  410MOL0     O55239   1.285   9.373   4.977  0.4968  0.6002 -0.4109
  410MOL0     C55240   1.327   9.418   4.857  0.5456 -0.6161  0.1364
  410MOL0     C55241   1.255   9.517   4.797 -0.6302  0.2777  0.1795
  410MOL0     C55242   1.293   9.571   4.671 -0.2747 -0.5892 -0.0702
  410MOL0     C55243   1.403   9.514   4.597 -0.1521 -1.1417 -0.1236
  410MOL0     C55244   1.436   9.567   4.461 -0.7929 -0.2575  0.5866
  410MOL0     O55245   1.368   9.660   4.404  0.0442 -0.0742 -0.8769
  410MOL0     C55246   1.352   9.670   4.270  0.5215 -0.1970  0.4178
  410MOL0     C55247   1.298   9.790   4.228  0.6580  0.3017 -0.6144
  410MOL0     C55248   1.255   9.802   4.096  0.4873 -0.1555  0.1063
  410MOL0     C55249   1.265   9.693   4.004  1.2190 -0.7966 -0.9074
  410MOL0     O55250   1.184   9.702   3.888 -1.0476  0.2873  0.0392
  410MOL0     C55251   1.177   9.589   3.799 -0.5585  0.3599 -0.4647
  410MOL0     C55252   1.059   9.494   3.825  0.8001 -0.1165  0.7694
  410MOL0     C55253   0.928   9.578   3.827  0.0924 -0.1786 -0.8013
  410MOL0     C55254   0.820   9.480   3.816  0.6860 -0.2777 -0.0426
  410MOL0     C55255   0.685   9.545   3.849  1.3194 -0.3523  0.4722
  410MOL0     C55256   0.661   9.686   3.796 -0.2785  0.4601  0.4050
  410MOL0     C55257   0.513   9.712   3.826 -0.5573  0.5178  0.8338
  410MOL0     C55258   0.471   9.848   3.773 -0.5745 -0.3153 -0.7705
  410MOL0    Cl55259   0.408   9.833   3.612 -0.1704  0.0730 -0.1361
  410MOL0     C55260   1.346   9.585   4.040  0.2275 -0.3919 -0.5113
  410MOL0     C55261   1.381   9.575   4.169 -0.2223 -0.5707 -0.9070
  410MOL0     O55262   1.535   9.512   4.409  0.1465  0.4550  0.3255
  410MOL0     C55263   1.467   9.405   4.657  0.2038  0.0906  0.5373
  410MOL0     C55264   1.441   9.371   4.794 -0.6536 -0.9239 -0.1395
  410MOL0     N55265   1.177   8.929   5.273  0.0625 -0.2919 -0.3749
  410MOL0     N55266   1.173   8.943   5.401 -0.0209  0.1079 -0.0549
  410MOL0     C55267   1.776   8.325   6.101 -0.1148 -0.9678 -0.2907
  410MOL0     C55268   1.883   8.257   6.157  0.2636 -0.5425 -0.4610
  410MOL0     C55269   2.223   8.183   6.465  0.7844  0.0370  0.6652
  410MOL0     C55270   2.237   8.182   6.607 -0.1366 -0.4309  0.0023
  410MOL0     C55271   2.344   8.118   6.676  0.3212  0.7439 -0.1639
  410MOL0     C55272   2.417   8.027   6.599 -1.2196  0.2657 -0.2959
  410MOL0     O55273   2.512   7.933   6.651  0.5537  0.1041 -0.5856
  410MOL0     C55274   2.528   7.895   6.783  0.4240  0.1840  0.6092
  410MOL0     C55275   2.407   7.809   6.825  1.1654 -0.1253  0.5955
  410MOL0     C55276   2.385   7.678   6.743 -0.3010  0.9141  0.2073
  410MOL0     C55277   2.234   7.653   6.722 -0.6399  0.4971  0.0558
  410MOL0     C55278   2.220   7.540   6.634 -1.3016 -0.1646  0.0461
  410MOL0     C55279   2.232   7.450   6.550 -0.0343 -0.1470  0.5043
  410MOL0     C55280   2.407   8.028   6.462 -0.5522 -0.5629  0.2740
  410MOL0     C55281   2.315   8.108   6.393 -0.0679 -0.1919 -0.0263
  410MOL0     C55282   2.318   8.104   6.240  0.0294  0.2868  0.5887
  410MOL0     H55283   1.860   8.398   6.471 -1.0448 -5.7823  0.2704
  410MOL0     H55284   1.688   8.513   6.387 -0.3470 -0.7388  1.5343
  410MOL0     H55285   1.648   8.498   5.919  1.1083 -0.1067  0.2710
  410MOL0     H55286   1.545   8.352   5.971 -0.5781  0.5685  2.3394
  410MOL0     H55287   1.364   8.517   5.985  1.1616  1.5165  1.7852
  410MOL0     H55288   1.427   8.514   5.825  1.3181 -2.0848  0.1920
  410MOL0     H55289   1.559   8.715   5.880 -0.9561  2.1887 -1.6184
  410MOL0     H55290   1.495   8.709   6.053 -2.8225  0.4252  0.3488
  410MOL0     H55291   1.326   8.747   5.803 -0.2358 -1.5247 -0.3573
  410MOL0     H55292   1.255   8.756   5.970 -0.4972 -0.7712 -1.2504
  410MOL0     H55293   1.397   8.978   5.990  3.6617  2.5413 -1.2022
  410MOL0     H55294   1.465   8.944   5.839 -0.9544 -0.0217 -0.3816
  410MOL0     H55295   1.167   9.017   5.890  0.1794  1.0270 -0.9215
  410MOL0     H55296   1.291   9.104   5.817  1.2920  0.1047  2.2482
  410MOL0     H55297   1.142   9.004   5.651 -1.5677 -1.3865  2.5852
  410MOL0     H55298   1.197   8.843   5.688  3.6633 -0.7193 -1.0059
  410MOL0     H55299   1.392   9.053   5.587  1.1305 -0.6275  0.3323
  410MOL0     H55300   1.415   8.887   5.615  0.9450  1.5905 -0.2994
  410MOL0     H55301   1.484   8.843   5.348  0.8799 -0.1949  0.8978
  410MOL0     H55302   1.448   8.894   5.078 -0.0885  0.5694  1.8864
  410MOL0     H55303   1.313   8.779   5.070 -1.5664 -0.0335  0.4587
  410MOL0     H55304   1.285   8.954   4.906  0.9067 -0.1855 -0.0583
  410MOL0     H55305   1.162   8.999   5.021  0.0408  0.9853 -1.2414
  410MOL0     H55306   1.415   9.134   4.994 -1.0616 -0.6666 -1.4573
  410MOL0     H55307   1.314   9.161   5.137 -2.6764  2.2925  0.2621
  410MOL0     H55308   1.123   9.253   5.035 -1.6306 -1.1636 -0.8364
  410MOL0     H55309   1.182   9.228   4.872  0.0701 -0.3591  0.3031
  410MOL0     H55310   1.173   9.558   4.855 -1.8842 -0.5225 -0.9646
  410MOL0     H55311   1.234   9.654   4.633 -1.2559 -2.0472 -1.9669
  410MOL0     H55312   1.272   9.877   4.288 -2.2361 -1.7307  1.3585
  410MOL0     H55313   1.190   9.885   4.070 -2.0281 -1.8289  0.6090
  410MOL0     H55314   1.154   9.635   3.702  1.2359 -1.9688 -2.0980
  410MOL0     H55315   1.268   9.530   3.794 -1.1911 -0.9130  1.8590
  410MOL0     H55316   1.053   9.438   3.732  2.8958  0.6188  0.1210
  410MOL0     H55317   1.088   9.442   3.917  2.2981  0.4208  0.6442
  410MOL0     H55318   0.926   9.625   3.926  1.3612  0.5680 -1.1048
  410MOL0     H55319   0.925   9.659   3.755  3.6714  2.7689  1.9481
  410MOL0     H55320   0.833   9.393   3.882  0.8125 -1.4634 -1.5634
  410MOL0     H55321   0.806   9.433   3.718  3.5438  0.4993 -0.9055
  410MOL0     H55322   0.670   9.554   3.957  4.5381  1.0190  0.9216
  410MOL0     H55323   0.607   9.479   3.810  0.0777 -1.4983  4.4299
  410MOL0     H55324   0.722   9.767   3.837 -2.0647  1.6558  0.8208
  410MOL0     H55325   0.677   9.687   3.688  1.2103  0.5722  0.6128
  410MOL0     H55326   0.506   9.715   3.935 -2.5442  0.1080  0.7434
  410MOL0     H55327   0.444   9.636   3.788 -0.1611 -0.6326  2.3091
  410MOL0     H55328   0.398   9.892   3.842  3.3354  0.4229  3.3557
  410MOL0     H55329   0.559   9.911   3.790 -1.6258  0.3146  3.4213
  410MOL0     H55330   1.367   9.499   3.977 -2.7565 -1.2783 -0.4806
  410MOL0     H55331   1.439   9.487   4.195 -0.9661 -0.9598 -0.5238
  410MOL0     H55332   1.551   9.362   4.603  1.3611  0.3513  2.0578
  410MOL0     H55333   1.508   9.304   4.848  4.1267  1.2544 -2.6982
  410MOL0     H55334   1.754   8.298   5.998  1.0249  0.8289 -1.0485
  410MOL0     H55335   1.931   8.172   6.108 -1.9795 -4.1514  2.9341
  410MOL0     H55336   2.179   8.250   6.670  0.5352  1.0701 -0.9571
  410MOL0     H55337   2.346   8.126   6.785 -2.2819  0.8625 -0.0725
  410MOL0     H55338   2.545   7.978   6.851 -2.1997 -0.5083  2.2269
  410MOL0     H55339   2.616   7.830   6.780  1.2550  1.2921  0.5491
  410MOL0     H55340   2.324   7.881   6.826 -0.3998 -1.8352  0.3780
  410MOL0     H55341   2.410   7.779   6.930 -1.7019  2.5218  1.5979
  410MOL0     H55342   2.420   7.588   6.796 -0.3892 -0.1335 -1.4320
  410MOL0     H55343   2.438   7.692   6.649  0.4847 -1.2099  0.2720
  410MOL0     H55344   2.174   7.639   6.812 -1.0250  3.9402  0.4889
  410MOL0     H55345   2.208   7.745   6.668  1.3746 -0.4540 -2.7719
  410MOL0     H55346   2.234   7.375   6.474  0.2552  0.7784 -0.4180
  410MOL0     H55347   2.474   7.965   6.404  0.1708  0.9493 -0.5674
  410MOL0     H55348   2.400   8.164   6.199 -0.6566  1.2555  0.5786
  410MOL0     H55349   2.331   7.998   6.217 -1.1359  0.1792  0.3394
  410MOL0     H55350   2.222   8.128   6.193  1.3562  0.7081 -2.0721
  411MOL0     O55351   6.028   8.610   3.236 -0.0925  0.2560 -0.0795
  411MOL0     C55352   6.021   8.577   3.123 -0.0016  0.9571 -0.3136
  411MOL0     O55353   5.954   8.472   3.074 -0.2857 -0.3054 -0.1893
  411MOL0     C55354   5.880   8.389   3.155  0.1777 -0.1769 -0.7926
  411MOL0     C55355   5.913   8.340   3.285  0.4780  0.3773  0.3756
  411MOL0     C55356   5.837   8.246   3.349 -0.5784 -0.2775 -0.6298
  411MOL0     C55357   5.723   8.189   3.287 -0.1098 -0.6025  0.6957
  411MOL0     O55358   5.641   8.090   3.338 -0.3341  0.1065 -0.8406
  411MOL0     C55359   5.698   7.952   3.324 -0.2040 -0.8700 -0.3655
  411MOL0     C55360   5.636   7.885   3.204  0.5986  0.8967 -0.0514
  411MOL0     C55361   5.491   7.862   3.228  0.0891  0.9585 -0.7298
  411MOL0     C55362   5.411   7.795   3.113 -0.0342  0.0653 -0.0987
  411MOL0     C55363   5.444   7.643   3.116 -0.4243  0.9004 -0.6111
  411MOL0     C55364   5.431   7.585   2.975  0.0301 -1.3628 -0.2761
  411MOL0     C55365   5.285   7.577   2.922 -0.4605  0.4158 -0.6297
  411MOL0     C55366   5.252   7.442   2.841 -0.2070 -0.5556 -0.6749
  411MOL0     N55367   5.114   7.444   2.778 -0.0145 -0.4808  0.3553
  411MOL0     C55368   5.075   7.413   2.653  0.3906 -0.4585  0.3374
  411MOL0     C55369   4.939   7.404   2.649  0.2083  0.1763  0.6880
  411MOL0     C55370   4.865   7.367   2.523 -0.1658 -0.7650 -0.8731
  411MOL0     C55371   4.838   7.481   2.424  0.7263 -0.1468 -0.9218
  411MOL0     C55372   4.798   7.442   2.289  0.2505 -0.2609  0.3223
  411MOL0     C55373   4.666   7.358   2.289  0.0010  0.2385 -0.1939
  411MOL0     O55374   4.694   7.229   2.333  0.2678  0.0796 -0.1419
  411MOL0     C55375   4.597   7.148   2.386  0.8532  0.7674  0.3695
  411MOL0     C55376   4.636   7.039   2.471 -0.1274  0.6519  0.7616
  411MOL0     C55377   4.529   6.949   2.514 -0.4670 -0.2421  0.2991
  411MOL0     C55378   4.396   6.965   2.464  0.6007  0.5256 -0.1675
  411MOL0     C55379   4.286   6.870   2.504  0.1040  0.5826 -0.6946
  411MOL0     O55380   4.173   6.882   2.433  0.2644 -0.5062 -0.9052
  411MOL0     C55381   4.079   6.791   2.458  0.0193 -0.8923  0.5364
  411MOL0     C55382   4.000   6.792   2.568  0.0564  0.7745  0.4079
  411MOL0     C55383   3.911   6.687   2.599  0.4039  0.0799  0.8359
  411MOL0     C55384   3.896   6.581   2.512  0.1558  0.6386 -0.2154
  411MOL0     O55385   3.818   6.467   2.538  0.3680  0.1483  0.0629
  411MOL0     C55386   3.812   6.412   2.671 -0.0327 -0.1044  0.1139
  411MOL0     C55387   3.683   6.465   2.740  0.0789 -0.3762  0.9375
  411MOL0     C55388   3.570   6.361   2.739 -0.6580 -0.5360  0.1876
  411MOL0     C55389   3.573   6.278   2.873  0.0429  0.4106  0.2601
  411MOL0     C55390   3.696   6.186   2.894 -0.5701 -0.0782 -0.0307
  411MOL0     C55391   3.699   6.067   2.793  0.0512  0.4964 -0.3508
  411MOL0     C55392   3.809   5.970   2.832  0.2784  0.4273  0.4933
  411MOL0     C55393   3.828   5.877   2.713  0.7433 -0.4569  0.3430
  411MOL0    Cl55394   3.995   5.821   2.712  0.0076  0.0854 -0.2045
  411MOL0     C55395   3.976   6.581   2.395  0.4820  0.2890  1.1407
  411MOL0     C55396   4.066   6.681   2.368  0.2997 -0.1299 -0.2189
  411MOL0     O55397   4.313   6.779   2.574 -0.2889 -0.4938 -0.0524
  411MOL0     C55398   4.371   7.074   2.381 -0.5645  0.1050 -0.1018
  411MOL0     C55399   4.464   7.168   2.340  0.0025 -0.7702 -0.2730
  411MOL0     N55400   4.900   7.422   2.781  0.7595 -0.4139 -0.2328
  411MOL0     N55401   5.006   7.448   2.848 -0.2947 -0.1373 -0.6602
  411MOL0     C55402   5.684   8.237   3.160 -0.0821 -0.1127  0.3707
  411MOL0     C55403   5.760   8.337   3.094 -0.7286 -0.4605  0.7314
  411MOL0     C55404   6.075   8.664   3.020 -0.9247  0.7430 -0.0739
  411MOL0     C55405   6.181   8.612   2.944 -0.3268  0.3409 -0.2109
  411MOL0     C55406   6.242   8.689   2.851 -0.1801 -0.1561 -0.2809
  411MOL0     C55407   6.197   8.811   2.827 -0.1453 -0.2086 -1.0465
  411MOL0     O55408   6.246   8.889   2.730 -0.0592  0.1870 -0.0781
  411MOL0     C55409   6.384   8.909   2.695 -0.3134  0.3225 -1.2029
  411MOL0     C55410   6.480   8.956   2.816 -0.7570 -0.0747 -0.9745
  411MOL0     C55411   6.569   9.076   2.785 -0.6255  0.2680 -0.9785
  411MOL0     C55412   6.654   9.120   2.910  0.4754  0.3794 -0.2487
  411MOL0     C55413   6.727   9.240   2.871 -0.2785 -0.0559 -0.7338
  411MOL0     C55414   6.802   9.330   2.855 -0.1330  0.1720 -0.1379
  411MOL0     C55415   6.088   8.870   2.897 -0.0707 -0.7362 -0.1022
  411MOL0     C55416   6.031   8.799   2.997  0.4920  0.3094 -0.3398
  411MOL0     C55417   5.901   8.846   3.070 -0.0825  0.8920  0.2118
  411MOL0     H55418   6.004   8.369   3.337  1.9924  0.0873 -1.9634
  411MOL0     H55419   5.865   8.185   3.435 -0.8092 -1.3096 -1.2663
  411MOL0     H55420   5.808   7.952   3.317 -0.1738 -2.0165 -0.1101
  411MOL0     H55421   5.675   7.902   3.419 -2.0402  0.0380 -0.3027
  411MOL0     H55422   5.690   7.791   3.189 -0.5690 -0.1774  1.9536
  411MOL0     H55423   5.657   7.947   3.116  2.1984 -2.2727 -2.0829
  411MOL0     H55424   5.447   7.959   3.252  4.2494  3.0744 -0.7426
  411MOL0     H55425   5.469   7.801   3.316 -1.2218  0.0243 -1.6517
  411MOL0     H55426   5.304   7.814   3.120  0.3467  2.4247  0.0817
  411MOL0     H55427   5.450   7.835   3.019 -0.2356  1.5879  0.4438
  411MOL0     H55428   5.548   7.627   3.147  0.3407  2.2223 -2.3227
  411MOL0     H55429   5.369   7.613   3.190 -1.6473 -2.4315 -2.9681
  411MOL0     H55430   5.490   7.652   2.912 -0.7946 -0.0373  0.3202
  411MOL0     H55431   5.467   7.483   2.996  0.4279 -0.8730  1.5650
  411MOL0     H55432   5.263   7.664   2.861 -2.0104 -0.0134 -0.7243
  411MOL0     H55433   5.229   7.583   3.016  0.2056 -1.9874  0.0000
  411MOL0     H55434   5.319   7.438   2.755  3.9509  1.7086  2.1442
  411MOL0     H55435   5.263   7.356   2.907  1.5836 -0.2499 -0.5493
  411MOL0     H55436   5.142   7.416   2.568  0.5123 -1.7457  0.3758
  411MOL0     H55437   4.918   7.282   2.478  3.2162 -0.0714  1.4102
  411MOL0     H55438   4.764   7.334   2.548 -0.2584 -1.4207 -2.0053
  411MOL0     H55439   4.756   7.537   2.471  0.4704 -0.2269 -1.2707
  411MOL0     H55440   4.915   7.559   2.426  0.3803  0.1923 -0.0711
  411MOL0     H55441   4.878   7.379   2.249 -0.5810 -0.2088 -1.5255
  411MOL0     H55442   4.769   7.523   2.221 -0.6040  1.1111  2.2421
  411MOL0     H55443   4.621   7.350   2.189  1.9494  2.7797 -1.4002
  411MOL0     H55444   4.585   7.397   2.351  1.1968 -0.2839  1.7657
  411MOL0     H55445   4.742   7.026   2.488  0.1959  2.5680  0.3758
  411MOL0     H55446   4.549   6.864   2.578 -1.6866  0.0700  1.1234
  411MOL0     H55447   4.018   6.871   2.640 -0.0019 -0.0570  1.3638
  411MOL0     H55448   3.859   6.686   2.695 -3.8225  2.0336 -1.1429
  411MOL0     H55449   3.807   6.304   2.656 -0.4325 -0.4156  2.1808
  411MOL0     H55450   3.905   6.437   2.724 -0.0056 -1.4443  0.7536
  411MOL0     H55451   3.718   6.496   2.839  1.3516 -4.1132  1.8135
  411MOL0     H55452   3.665   6.557   2.684  2.7035  0.8880  2.0045
  411MOL0     H55453   3.475   6.414   2.747  1.6834  3.9840  1.2414
  411MOL0     H55454   3.579   6.305   2.645 -1.6476 -3.1125  1.5227
  411MOL0     H55455   3.474   6.232   2.886  0.8980 -1.1500  1.6693
  411MOL0     H55456   3.585   6.346   2.958  0.3009  1.5212 -0.6425
  411MOL0     H55457   3.683   6.151   2.997 -0.2719  0.7019  0.2792
  411MOL0     H55458   3.781   6.256   2.888 -0.8668  0.2225 -1.1077
  411MOL0     H55459   3.599   6.023   2.801  0.1247  0.0736 -1.4982
  411MOL0     H55460   3.721   6.114   2.696  3.6492 -2.0143 -0.9624
  411MOL0     H55461   3.784   5.919   2.925  2.0784 -2.0037 -0.2680
  411MOL0     H55462   3.900   6.031   2.836 -0.9288  2.3923 -0.0231
  411MOL0     H55463   3.769   5.786   2.723  4.0804 -3.1777 -2.2714
  411MOL0     H55464   3.817   5.931   2.618 -1.8389 -0.9829  0.2624
  411MOL0     H55465   3.961   6.503   2.321  1.7485 -1.4217  2.6093
  411MOL0     H55466   4.109   6.684   2.268  0.4211 -0.5261 -0.1837
  411MOL0     H55467   4.275   7.089   2.333  0.6722  0.8431 -2.5383
  411MOL0     H55468   4.439   7.248   2.271  2.5973  2.3056  2.0136
  411MOL0     H55469   5.600   8.198   3.104 -0.5433  1.7920 -0.3595
  411MOL0     H55470   5.732   8.376   2.997  0.6365 -0.1178  0.4484
  411MOL0     H55471   6.207   8.512   2.977 -3.8280 -0.0654  1.8097
  411MOL0     H55472   6.333   8.655   2.803  1.4449  0.9257  1.8989
  411MOL0     H55473   6.387   8.980   2.612 -2.7027  1.1540 -0.6607
  411MOL0     H55474   6.415   8.816   2.645 -0.6631 -0.2737 -0.3364
  411MOL0     H55475   6.535   8.877   2.869  0.9975  2.0019  0.4520
  411MOL0     H55476   6.424   8.988   2.904  1.5396 -1.6421  1.2407
  411MOL0     H55477   6.504   9.151   2.740 -0.2578  1.7740  0.8805
  411MOL0     H55478   6.640   9.050   2.706 -0.2552  1.1313 -0.9453
  411MOL0     H55479   6.594   9.138   3.000  2.4072  1.9170  0.7952
  411MOL0     H55480   6.730   9.049   2.944 -1.2117 -2.0027 -1.1151
  411MOL0     H55481   6.846   9.428   2.848  1.1039 -0.4111 -0.7997
  411MOL0     H55482   6.048   8.967   2.869 -2.1533 -1.9732 -1.7418
  411MOL0     H55483   5.908   8.833   3.179  0.3915  4.1852  0.6897
  411MOL0     H55484   5.887   8.955   3.068 -2.5601  0.7413  2.8793
  411MOL0     H55485   5.813   8.794   3.032  0.3458  1.8693 -2.2720
  412MOL0     O55486   5.757  10.677   3.507 -1.1025  0.0844  0.0223
  412MOL0     C55487   5.856  10.750   3.522 -0.3913  0.3897  0.8337
  412MOL0     O55488   5.938  10.799   3.417 -0.0790 -0.0980  0.1505
  412MOL0     C55489   5.895  10.759   3.293  0.4171  0.2534 -0.4326
  412MOL0     C55490   5.773  10.799   3.239  0.0886  1.0169 -0.7865
  412MOL0     C55491   5.727  10.768   3.117 -0.6605 -0.1037 -0.7691
  412MOL0     C55492   5.803  10.675   3.043 -1.4961  0.2928 -0.5035
  412MOL0     O55493   5.746  10.629   2.936  0.0730  1.0117  0.8546
  412MOL0     C55494   5.824  10.574   2.829  0.2382  0.0765  0.2741
  412MOL0     C55495   5.736  10.560   2.706  0.1454 -0.0284  0.4701
  412MOL0     C55496   5.809  10.522   2.585 -0.4624 -0.7451  0.1549
  412MOL0     C55497   5.846  10.643   2.495 -0.2695  0.4820  0.5291
  412MOL0     C55498   5.983  10.702   2.533  0.1779 -0.0643 -0.0267
  412MOL0     C55499   6.017  10.818   2.439  0.3234 -0.3679 -0.8229
  412MOL0     C55500   6.157  10.871   2.475 -0.3414  0.2516  0.3629
  412MOL0     C55501   6.187  10.987   2.385 -0.1559  0.2251  0.4673
  412MOL0     N55502   6.141  11.112   2.453  0.4815 -0.2842 -0.4443
  412MOL0     C55503   6.017  11.180   2.430 -1.0962 -0.4601  0.1725
  412MOL0     C55504   6.032  11.282   2.516  0.3760  0.3614 -0.1730
  412MOL0     C55505   5.919  11.363   2.549  1.4920 -0.4811 -0.4515
  412MOL0     C55506   5.912  11.490   2.469  0.6228 -0.5867  0.8481
  412MOL0     C55507   6.029  11.595   2.492  0.7126  0.0336 -0.1591
  412MOL0     C55508   5.986  11.683   2.613 -0.3079  0.4121  0.2621
  412MOL0     O55509   6.088  11.781   2.639  0.8730 -0.3987 -0.2822
  412MOL0     C55510   6.158  11.758   2.758  0.0648 -0.5822  0.5738
  412MOL0     C55511   6.219  11.873   2.808 -0.3783 -0.6420 -0.1730
  412MOL0     C55512   6.295  11.879   2.928 -0.3454 -0.1733  0.1753
  412MOL0     C55513   6.318  11.762   3.002  0.8713  0.8307  0.2184
  412MOL0     C55514   6.415  11.756   3.117 -0.4941 -0.2634  0.5828
  412MOL0     O55515   6.441  11.638   3.169  0.1928 -0.4162  0.1785
  412MOL0     C55516   6.510  11.645   3.285  0.5408  0.4956 -0.1833
  412MOL0     C55517   6.631  11.574   3.294 -0.1221 -0.7815 -0.7540
  412MOL0     C55518   6.715  11.596   3.407 -0.1630 -0.6643  0.3152
  412MOL0     C55519   6.688  11.691   3.499  0.7788  0.1175 -0.0773
  412MOL0     O55520   6.787  11.701   3.599  0.0470 -0.6634 -0.2606
  412MOL0     C55521   6.767  11.792   3.712  0.1683 -0.7335 -0.8412
  412MOL0     C55522   6.732  11.713   3.850 -0.3031 -0.5399 -0.0532
  412MOL0     C55523   6.819  11.593   3.875  0.8155 -0.0288 -0.3089
  412MOL0     C55524   6.816  11.534   4.020 -0.1538 -0.2734  0.6694
  412MOL0     C55525   6.684  11.471   4.049 -0.9415  0.5310 -0.5251
  412MOL0     C55526   6.689  11.377   4.166  0.1817  0.1370  0.6992
  412MOL0     C55527   6.713  11.463   4.299  0.5341 -0.5073  0.8706
  412MOL0     C55528   6.775  11.376   4.400 -0.1911 -0.3908  0.5215
  412MOL0    Cl55529   6.682  11.224   4.427 -0.1103  0.0900  0.0898
  412MOL0     C55530   6.559  11.751   3.496  0.3815 -0.0348  0.3472
  412MOL0     C55531   6.470  11.723   3.390  0.5793 -0.1904 -0.3406
  412MOL0     O55532   6.453  11.865   3.162  0.5075  0.9382 -0.7568
  412MOL0     C55533   6.272  11.642   2.946  0.5594  0.3175  0.4376
  412MOL0     C55534   6.187  11.641   2.827 -0.0829 -0.4444  0.2686
  412MOL0     N55535   6.149  11.285   2.591 -0.0974  0.9516  0.4334
  412MOL0     N55536   6.217  11.179   2.547  0.2934  0.4555 -0.1551
  412MOL0     C55537   5.936  10.638   3.097  0.2313  0.1300  0.4822
  412MOL0     C55538   5.978  10.684   3.219 -0.7821  0.3791 -0.7348
  412MOL0     C55539   5.876  10.828   3.647  0.4477  0.2714 -0.2089
  412MOL0     C55540   5.969  10.781   3.739  1.3234  0.9505 -0.2286
  412MOL0     C55541   5.995  10.841   3.858  0.3108  0.5123  0.1751
  412MOL0     C55542   5.928  10.951   3.888 -1.3108 -1.9961 -0.0157
  412MOL0     O55543   5.948  10.997   4.017 -0.1996 -0.0897 -0.1613
  412MOL0     C55544   5.834  11.030   4.089 -0.7753  0.0908  0.4315
  412MOL0     C55545   5.870  11.160   4.152 -1.0723 -0.7093  0.2493
  412MOL0     C55546   5.871  11.274   4.040  0.1697 -0.4442  0.0694
  412MOL0     C55547   5.722  11.318   4.016  0.2311 -0.7236 -0.0330
  412MOL0     C55548   5.716  11.425   3.922  1.1249  0.3290 -0.0350
  412MOL0     C55549   5.686  11.509   3.837  0.3576 -0.5656 -1.0269
  412MOL0     C55550   5.846  11.018   3.800 -0.0581  0.4924 -0.6533
  412MOL0     C55551   5.815  10.954   3.677 -0.4219  0.5059 -0.2536
  412MOL0     C55552   5.726  11.018   3.574 -0.3041 -0.3463  0.2049
  412MOL0     H55553   5.715  10.862   3.306 -0.3834 -0.1409 -0.0872
  412MOL0     H55554   5.628  10.796   3.083 -0.3652  0.1167 -1.4634
  412MOL0     H55555   5.910  10.637   2.806 -0.1232  0.4179 -0.1463
  412MOL0     H55556   5.856  10.474   2.860  0.9873 -0.2649 -1.4564
  412MOL0     H55557   5.667  10.643   2.687 -1.6391 -2.0539 -2.7936
  412MOL0     H55558   5.668  10.480   2.736 -0.3417  1.6626  4.4455
  412MOL0     H55559   5.737  10.461   2.530  0.3159 -1.9697  0.4764
  412MOL0     H55560   5.897  10.459   2.599  0.1206 -0.7123 -2.6625
  412MOL0     H55561   5.853  10.615   2.389 -2.4424  1.3865  0.0935
  412MOL0     H55562   5.766  10.716   2.507  1.3488  1.8578  5.5499
  412MOL0     H55563   5.965  10.747   2.632 -2.2746  0.3369 -0.5898
  412MOL0     H55564   6.060  10.625   2.537  0.3494  0.1366  0.9639
  412MOL0     H55565   6.013  10.774   2.339  0.9604 -5.0770  0.9624
  412MOL0     H55566   5.944  10.898   2.451  1.5397  0.4834  1.7769
  412MOL0     H55567   6.233  10.798   2.446  0.8887  2.1840 -1.6185
  412MOL0     H55568   6.164  10.892   2.582 -0.4348  1.8989  0.0667
  412MOL0     H55569   6.294  10.986   2.360  0.6080  0.9617  3.3313
  412MOL0     H55570   6.132  10.982   2.291 -0.3367 -1.0818  0.6223
  412MOL0     H55571   5.927  11.151   2.377 -1.1667 -2.7722  1.4243
  412MOL0     H55572   5.824  11.308   2.544  2.6607 -2.6240 -0.3801
  412MOL0     H55573   5.926  11.392   2.654 -1.1303 -0.8858 -0.0854
  412MOL0     H55574   5.905  11.461   2.364 -1.9657  1.7848  0.2359
  412MOL0     H55575   5.820  11.544   2.494  0.0160  0.0399 -2.3166
  412MOL0     H55576   6.036  11.659   2.404 -1.2090 -0.5501 -0.7837
  412MOL0     H55577   6.126  11.552   2.519  0.9780  1.0526  0.5661
  412MOL0     H55578   5.960  11.620   2.698 -1.2425  0.2659 -0.1160
  412MOL0     H55579   5.892  11.739   2.606 -0.4435  0.1661  0.1110
  412MOL0     H55580   6.217  11.956   2.738  0.2929 -3.4983 -3.9112
  412MOL0     H55581   6.328  11.974   2.967 -2.9928 -0.1232  2.5621
  412MOL0     H55582   6.661  11.514   3.208  1.2727  0.6371 -1.3161
  412MOL0     H55583   6.805  11.535   3.402 -0.1556 -0.5710 -0.8254
  412MOL0     H55584   6.861  11.846   3.726  1.0198 -2.1458 -0.9593
  412MOL0     H55585   6.697  11.875   3.696 -0.2576 -1.5054 -3.5342
  412MOL0     H55586   6.727  11.782   3.934 -3.7370  1.6821 -1.8462
  412MOL0     H55587   6.629  11.675   3.846  0.0248 -1.4679 -4.3269
  412MOL0     H55588   6.796  11.516   3.800  4.8064 -0.8836 -0.8750
  412MOL0     H55589   6.923  11.626   3.867  0.8781  0.7614  2.6730
  412MOL0     H55590   6.830  11.622   4.083 -0.6552  1.7619 -1.8742
  412MOL0     H55591   6.896  11.460   4.024 -0.7381 -0.9809 -0.1955
  412MOL0     H55592   6.656  11.415   3.960 -2.3446  0.3259  0.0066
  412MOL0     H55593   6.596  11.536   4.050 -0.4466  1.2159  0.3980
  412MOL0     H55594   6.589  11.333   4.167  0.0303  0.4221 -0.5995
  412MOL0     H55595   6.761  11.296   4.152 -0.1046  0.1313 -0.8588
  412MOL0     H55596   6.618  11.509   4.327 -1.7146 -2.3954 -2.8229
  412MOL0     H55597   6.792  11.537   4.281  1.8062 -2.2218 -1.0544
  412MOL0     H55598   6.870  11.358   4.347 -0.4571  0.3856 -0.2567
  412MOL0     H55599   6.788  11.429   4.495  0.4704  0.3074  0.0589
  412MOL0     H55600   6.535  11.817   3.579 -1.0832 -1.8778  1.4931
  412MOL0     H55601   6.378  11.780   3.381  1.0467  0.2533 -3.3142
  412MOL0     H55602   6.308  11.545   2.980  0.5146  0.2205  0.2104
  412MOL0     H55603   6.140  11.548   2.796 -0.6820  0.4670 -1.7070
  412MOL0     H55604   6.004  10.580   3.036 -1.9678 -1.2813 -0.7601
  412MOL0     H55605   6.071  10.663   3.272 -1.0890 -1.0954 -0.7209
  412MOL0     H55606   6.010  10.683   3.718 -0.9019 -0.4094  1.4575
  412MOL0     H55607   6.064  10.796   3.928 -1.1383 -1.0940  0.6454
  412MOL0     H55608   5.825  10.945   4.158  0.7502 -1.2535 -0.9269
  412MOL0     H55609   5.739  11.031   4.036 -0.6203  2.1715  0.1138
  412MOL0     H55610   5.962  11.153   4.211  1.3534  1.2859 -2.9244
  412MOL0     H55611   5.788  11.183   4.221 -0.6876 -0.6933  0.7021
  412MOL0     H55612   5.923  11.244   3.949 -0.5075  1.8995 -1.1752
  412MOL0     H55613   5.919  11.363   4.082 -0.1201  2.4159 -4.8981
  412MOL0     H55614   5.664  11.238   3.969 -0.2622 -0.1892 -0.3417
  412MOL0     H55615   5.675  11.344   4.111  3.1292  1.5578  0.9541
  412MOL0     H55616   5.672  11.578   3.757  1.3687  1.8432  0.7531
  412MOL0     H55617   5.794  11.111   3.822 -0.9493 -0.4867  1.7078
  412MOL0     H55618   5.683  11.110   3.615  0.2157  0.4456 -0.9803
  412MOL0     H55619   5.776  11.058   3.486  1.8147 -1.9780  0.5893
  412MOL0     H55620   5.648  10.951   3.536 -1.2907  2.0641 -2.3386
  413MOL0     O55621  10.469   0.686   8.245  0.4721  0.1377  0.0830
  413MOL0     C55622  10.592   0.685   8.243  0.9045  0.3142  0.2388
  413MOL0     O55623  10.679   0.774   8.181 -0.3208 -1.5739 -0.2709
  413MOL0     C55624  10.649   0.820   8.059  0.5636  0.6945 -0.0093
  413MOL0     C55625  10.545   0.773   7.977  0.8617  0.4378  0.4344
  413MOL0     C55626  10.524   0.819   7.844 -0.6719 -1.1349 -0.1719
  413MOL0     C55627  10.596   0.929   7.794 -0.5602  0.4481  0.6051
  413MOL0     O55628  10.554   0.994   7.689  0.1554  0.1621  0.3198
  413MOL0     C55629  10.499   1.128   7.715 -0.0594  0.0163  0.5956
  413MOL0     C55630  10.407   1.176   7.601 -0.3098 -0.0556 -0.5516
  413MOL0     C55631  10.292   1.079   7.586 -0.5679  0.4090 -0.5731
  413MOL0     C55632  10.272   1.029   7.439  0.4378  0.8730  0.6736
  413MOL0     C55633  10.160   0.928   7.439 -0.1050  0.2127  0.2358
  413MOL0     C55634  10.017   0.972   7.485  0.0247  0.4262  0.1279
  413MOL0     C55635   9.914   0.863   7.461  0.0972  0.2624  0.2559
  413MOL0     C55636   9.941   0.711   7.506  0.1599  0.5929  0.2292
  413MOL0     N55637   9.939   0.694   7.646 -0.6113 -0.4261 -0.6521
  413MOL0     C55638  10.050   0.694   7.725  0.2130 -0.2266  0.0763
  413MOL0     C55639  10.016   0.693   7.857 -0.0516  0.0552  0.8612
  413MOL0     C55640  10.104   0.717   7.985  0.3025  0.5953  0.4005
  413MOL0     C55641  10.150   0.864   7.987 -0.1465  0.1865 -0.0256
  413MOL0     C55642  10.216   0.909   8.121  0.2474 -0.1960  1.2504
  413MOL0     C55643  10.123   0.911   8.242  0.8233  0.3467  0.0236
  413MOL0     O55644  10.024   1.011   8.223  0.0028  0.6864  0.6970
  413MOL0     C55645   9.919   1.033   8.315 -0.1738 -0.3987  0.4563
  413MOL0     C55646   9.899   0.969   8.436  0.4205 -0.0644 -0.3344
  413MOL0     C55647   9.776   0.983   8.503  0.3890  0.0338  0.9231
  413MOL0     C55648   9.677   1.081   8.461 -0.4451 -0.4192  1.0168
  413MOL0     C55649   9.559   1.111   8.542  0.4628  0.2090 -0.7964
  413MOL0     O55650   9.467   1.205   8.493  0.1158  0.6443 -0.0093
  413MOL0     C55651   9.350   1.240   8.548  0.4650  0.0494 -1.0730
  413MOL0     C55652   9.237   1.250   8.467 -0.5183 -0.0888 -0.1436
  413MOL0     C55653   9.107   1.251   8.524 -0.2215  1.3377 -0.0299
  413MOL0     C55654   9.083   1.243   8.664 -0.1733 -1.1092  0.1288
  413MOL0     O55655   8.969   1.251   8.739  0.9391 -0.6644  0.6046
  413MOL0     C55656   8.854   1.256   8.662 -0.0712 -0.4612  0.1557
  413MOL0     C55657   8.733   1.254   8.752  0.3453 -1.2083  0.5893
  413MOL0     C55658   8.753   1.346   8.881  0.0502  0.4828 -0.1607
  413MOL0     C55659   8.618   1.369   8.947 -0.2356  0.7721 -0.2374
  413MOL0     C55660   8.644   1.440   9.083  0.8456  1.1487 -0.1112
  413MOL0     C55661   8.713   1.574   9.081  0.0524  0.1785 -0.5792
  413MOL0     C55662   8.642   1.682   9.003  0.4522 -0.0711  0.1153
  413MOL0     C55663   8.691   1.822   9.017 -0.1342  0.1533 -0.5889
  413MOL0    Cl55664   8.662   1.886   9.184 -0.0706  0.0677 -0.3188
  413MOL0     C55665   9.205   1.241   8.739  0.2583  0.2494 -0.1163
  413MOL0     C55666   9.338   1.252   8.691  0.6142  0.5258  0.9741
  413MOL0     O55667   9.550   1.053   8.655  0.0029  0.3459 -0.0876
  413MOL0     C55668   9.703   1.158   8.341  0.1969  0.2409  1.0454
  413MOL0     C55669   9.825   1.131   8.272  0.2917  0.3336  0.0599
  413MOL0     N55670   9.876   0.690   7.854  0.6302  0.5233 -0.3824
  413MOL0     N55671   9.838   0.700   7.731 -0.0522  0.3978 -0.5694
  413MOL0     C55672  10.705   0.973   7.875 -0.2195  0.3485  0.0068
  413MOL0     C55673  10.730   0.917   8.000 -0.0476 -0.8574 -0.3331
  413MOL0     C55674  10.663   0.568   8.311  0.9388 -0.1698  0.0140
  413MOL0     C55675  10.586   0.511   8.411  0.4980 -0.1386 -0.4576
  413MOL0     C55676  10.642   0.421   8.485  0.1606  0.5587  0.6736
  413MOL0     C55677  10.759   0.367   8.467 -0.5430 -0.5196 -0.6186
  413MOL0     O55678  10.795   0.280   8.562 -0.2467  0.0549  0.1832
  413MOL0     C55679  10.908   0.197   8.544 -1.0844  0.5248 -0.3322
  413MOL0     C55680  10.887   0.068   8.458  0.6287 -0.0314  0.2247
  413MOL0     C55681  10.883   0.109   8.314 -0.3065 -0.3808 -0.3553
  413MOL0     C55682  10.893  -0.002   8.215 -0.1925 -0.0181 -0.3865
  413MOL0     C55683  10.994  -0.103   8.245  1.1794  0.0137  0.1766
  413MOL0     C55684  11.103  -0.158   8.253 -0.0269 -0.6517 -0.4927
  413MOL0     C55685  10.835   0.422   8.368 -0.0139 -0.0192  0.3106
  413MOL0     C55686  10.794   0.530   8.291  0.6952  0.4736 -0.7902
  413MOL0     C55687  10.893   0.587   8.194  1.3232  0.2049 -0.0498
  413MOL0     H55688  10.481   0.693   8.012  1.0549  0.1021  0.0247
  413MOL0     H55689  10.435   0.795   7.786 -0.2302 -0.8382 -0.9866
  413MOL0     H55690  10.445   1.137   7.810 -1.1076  1.2225 -0.0892
  413MOL0     H55691  10.581   1.200   7.718 -1.1097  1.2315  1.0760
  413MOL0     H55692  10.466   1.181   7.509  0.3497  2.6310 -0.0480
  413MOL0     H55693  10.385   1.281   7.624 -0.1149 -0.1448  0.0707
  413MOL0     H55694  10.205   1.130   7.629 -0.2392  1.0077 -0.6068
  413MOL0     H55695  10.312   0.995   7.653  1.8393  2.5697  1.6529
  413MOL0     H55696  10.255   1.104   7.362  2.8824 -0.4644 -1.3514
  413MOL0     H55697  10.357   0.968   7.408  0.0072  0.2475  0.7021
  413MOL0     H55698  10.154   0.893   7.335  2.6158 -1.5095  0.5378
  413MOL0     H55699  10.196   0.844   7.499  0.5543  0.2061 -0.1604
  413MOL0     H55700  10.025   0.993   7.592  0.7267  0.2431  0.1201
  413MOL0     H55701   9.985   1.058   7.426  1.4173  0.0475 -1.2653
  413MOL0     H55702   9.900   0.858   7.353  0.6801  0.8538  0.1459
  413MOL0     H55703   9.820   0.882   7.513 -0.5834 -0.7172 -0.5678
  413MOL0     H55704   9.871   0.645   7.455 -0.1575  2.6151 -2.1338
  413MOL0     H55705  10.033   0.687   7.451 -1.8705 -1.1594 -2.7592
  413MOL0     H55706  10.153   0.690   7.691  0.6910 -0.4015  1.5013
  413MOL0     H55707  10.034   0.709   8.069 -0.1649 -0.7254 -0.0844
  413MOL0     H55708  10.181   0.640   7.997  0.7152  0.4007 -2.6265
  413MOL0     H55709  10.219   0.877   7.903  0.5549 -1.8125  0.1787
  413MOL0     H55710  10.076   0.942   7.968  0.8651  1.5382  1.2744
  413MOL0     H55711  10.239   1.014   8.102 -1.2072 -0.3589 -2.1881
  413MOL0     H55712  10.294   0.834   8.131 -1.0843 -2.1969 -1.8451
  413MOL0     H55713  10.177   0.937   8.334 -1.1293 -0.1537  1.3611
  413MOL0     H55714  10.067   0.821   8.268  2.3140  0.7163  5.8728
  413MOL0     H55715   9.967   0.888   8.460 -0.5827 -0.2846  1.9933
  413MOL0     H55716   9.764   0.924   8.593  1.6786 -0.2468  0.9421
  413MOL0     H55717   9.254   1.247   8.359  0.2300  0.1803 -0.0375
  413MOL0     H55718   9.021   1.255   8.459  0.3805  2.3084 -0.7851
  413MOL0     H55719   8.867   1.344   8.598  1.6794 -2.1384 -1.9331
  413MOL0     H55720   8.838   1.179   8.587  1.6857 -0.7638  0.0514
  413MOL0     H55721   8.647   1.283   8.691  1.9549  0.8835 -0.8566
  413MOL0     H55722   8.712   1.149   8.775  0.8062 -1.8196 -1.5081
  413MOL0     H55723   8.820   1.302   8.955 -1.7593 -2.1387  0.0132
  413MOL0     H55724   8.801   1.441   8.853  0.7996  0.2384  0.2728
  413MOL0     H55725   8.568   1.272   8.960  1.0664 -0.3937 -3.0278
  413MOL0     H55726   8.549   1.425   8.884 -2.8169 -0.4744  1.2935
  413MOL0     H55727   8.697   1.367   9.145  3.6012  2.2923 -0.9690
  413MOL0     H55728   8.550   1.450   9.139  1.6197 -0.4488  1.5881
  413MOL0     H55729   8.714   1.614   9.182 -2.4599  1.3062 -0.9181
  413MOL0     H55730   8.814   1.566   9.039  0.1726 -0.2516 -0.2103
  413MOL0     H55731   8.539   1.689   9.041  0.3055 -0.0395 -0.2817
  413MOL0     H55732   8.626   1.647   8.900  2.0559  1.9124 -0.8774
  413MOL0     H55733   8.796   1.821   8.985 -0.5660 -1.1805 -2.0787
  413MOL0     H55734   8.633   1.888   8.951 -3.7011 -1.1576  1.0163
  413MOL0     H55735   9.193   1.239   8.847 -0.4766 -0.6196 -0.2011
  413MOL0     H55736   9.409   1.267   8.771  0.5087  2.4203  0.7702
  413MOL0     H55737   9.623   1.216   8.297  1.5992  2.4728  1.3290
  413MOL0     H55738   9.842   1.164   8.170  0.4356  0.3901  0.1023
  413MOL0     H55739  10.757   1.057   7.831 -0.8443  0.5061 -0.4401
  413MOL0     H55740  10.820   0.955   8.047 -0.2960 -1.0913  0.3605
  413MOL0     H55741  10.489   0.548   8.442  0.2562 -2.2142  1.6162
  413MOL0     H55742  10.572   0.393   8.563 -0.6350 -0.8552 -0.4813
  413MOL0     H55743  10.945   0.161   8.641  2.7805 -1.9141 -2.4464
  413MOL0     H55744  11.002   0.236   8.504  1.7133 -1.2653  3.7200
  413MOL0     H55745  10.798   0.010   8.482  1.2908 -2.1570 -1.9928
  413MOL0     H55746  10.972  -0.000   8.474  0.3816 -0.4511 -0.2173
  413MOL0     H55747  10.974   0.163   8.284  0.7417 -2.0627 -0.3443
  413MOL0     H55748  10.799   0.175   8.291  1.4190  1.3088 -2.2317
  413MOL0     H55749  10.804  -0.065   8.222 -1.7687  2.2990  2.7481
  413MOL0     H55750  10.902   0.027   8.110 -0.5588  1.5925  0.0094
  413MOL0     H55751  11.201  -0.202   8.252 -0.0320 -0.6443 -1.2265
  413MOL0     H55752  10.929   0.377   8.335 -1.4757 -1.6837 -1.8555
  413MOL0     H55753  10.869   0.556   8.092 -1.3891 -2.9926  1.3695
  413MOL0     H55754  10.885   0.696   8.193 -1.9706  0.0712  1.3956
  413MOL0     H55755  10.992   0.563   8.234  1.1758  2.0737  1.5800
  414MOL0     O55756   6.211   1.000   4.170 -0.4387  0.1475  0.5739
  414MOL0     C55757   6.306   0.946   4.124  1.1841  0.0709 -0.2791
  414MOL0     O55758   6.321   0.823   4.071 -0.2131  0.5601  0.1235
  414MOL0     C55759   6.216   0.729   4.064 -0.1688  0.3756 -0.8118
  414MOL0     C55760   6.173   0.671   3.943  0.4695 -0.5735  0.4874
  414MOL0     C55761   6.066   0.581   3.941  0.4573  0.1973 -0.1406
  414MOL0     C55762   5.992   0.557   4.057 -1.1520  0.2957  0.6640
  414MOL0     O55763   5.888   0.467   4.062 -0.4988 -0.3750 -1.3946
  414MOL0     C55764   5.787   0.468   3.960 -0.7636  0.2507  0.4069
  414MOL0     C55765   5.643   0.438   4.020 -0.8469 -0.0573  0.8415
  414MOL0     C55766   5.602   0.550   4.124  0.4419  0.2834  0.1611
  414MOL0     C55767   5.536   0.673   4.050 -0.3649 -0.0405 -0.3542
  414MOL0     C55768   5.542   0.791   4.145 -0.9362  0.6472  0.4465
  414MOL0     C55769   5.443   0.785   4.258 -0.5073 -0.3900  0.6363
  414MOL0     C55770   5.423   0.921   4.340  0.4373 -0.3266  0.2347
  414MOL0     C55771   5.348   0.902   4.472 -0.0554  0.7176  0.1885
  414MOL0     N55772   5.277   1.018   4.518 -0.2142 -0.0644 -0.2371
  414MOL0     C55773   5.345   1.132   4.554  1.1074 -0.4470  0.4557
  414MOL0     C55774   5.255   1.214   4.616  0.5994  1.1127  0.4332
  414MOL0     C55775   5.276   1.351   4.644  0.6804 -0.1101 -0.7603
  414MOL0     C55776   5.348   1.380   4.776 -0.1542  0.1187  0.6219
  414MOL0     C55777   5.281   1.312   4.910  0.2084 -0.0676  0.8544
  414MOL0     C55778   5.356   1.317   5.040 -0.5861 -0.2876 -0.0001
  414MOL0     O55779   5.367   1.455   5.085  1.0280  0.3531 -0.1345
  414MOL0     C55780   5.403   1.477   5.216  0.0425  0.7214  0.1422
  414MOL0     C55781   5.456   1.385   5.310 -0.0326  0.0434  0.0490
  414MOL0     C55782   5.479   1.407   5.448  0.8203 -0.0493 -0.8288
  414MOL0     C55783   5.471   1.542   5.484 -0.3430 -0.4877  0.4436
  414MOL0     C55784   5.503   1.591   5.629 -0.5233  0.1404  0.4971
  414MOL0     O55785   5.538   1.730   5.634 -0.2810  0.2256 -0.1023
  414MOL0     C55786   5.574   1.780   5.753 -0.2794  0.3131 -1.0994
  414MOL0     C55787   5.488   1.833   5.851  1.5138  0.6746 -0.2248
  414MOL0     C55788   5.540   1.870   5.977  0.6535 -0.0358 -0.7585
  414MOL0     C55789   5.677   1.865   6.015  0.6131  0.2402 -0.1018
  414MOL0     O55790   5.712   1.887   6.146 -1.7693 -0.1262  0.0730
  414MOL0     C55791   5.834   1.963   6.141 -0.7094  0.3462 -1.0569
  414MOL0     C55792   5.874   1.990   6.290 -1.1770  0.3067  0.3029
  414MOL0     C55793   5.933   1.863   6.337 -0.0035  0.3085  0.0960
  414MOL0     C55794   6.035   1.884   6.445 -0.1872 -0.1076  0.1917
  414MOL0     C55795   6.106   1.779   6.523 -0.4485 -0.4049 -0.6182
  414MOL0     C55796   6.009   1.691   6.602 -0.7010 -1.3248  0.6098
  414MOL0     C55797   6.072   1.611   6.706 -0.7181  0.0330  0.5449
  414MOL0     C55798   6.122   1.471   6.643  0.5511 -0.0997  0.2603
  414MOL0    Cl55799   6.212   1.384   6.770  0.5466 -0.8264 -0.1322
  414MOL0     C55800   5.760   1.807   5.917  0.7303  0.3869  0.5415
  414MOL0     C55801   5.710   1.766   5.796  0.5989  0.0916 -0.0345
  414MOL0     O55802   5.521   1.509   5.719 -0.0398 -0.3267 -0.4759
  414MOL0     C55803   5.430   1.641   5.386 -0.0292  1.0930  0.2804
  414MOL0     C55804   5.398   1.607   5.252  0.3885  0.0270  0.4713
  414MOL0     N55805   5.138   1.138   4.631 -1.0835 -0.3543  0.1703
  414MOL0     N55806   5.158   1.018   4.580 -0.5925  0.5919 -0.5316
  414MOL0     C55807   6.034   0.618   4.171 -1.0587 -0.4914  1.2350
  414MOL0     C55808   6.142   0.704   4.176 -0.8919  0.5520 -0.1051
  414MOL0     C55809   6.436   1.034   4.125 -0.9565  0.1008 -0.5084
  414MOL0     C55810   6.561   0.959   4.093 -0.2322 -0.4977  0.0792
  414MOL0     C55811   6.688   1.019   4.095  0.5615 -0.8350  0.5600
  414MOL0     C55812   6.704   1.161   4.116  0.7600 -0.4520 -0.7595
  414MOL0     O55813   6.827   1.222   4.125 -0.4755  0.4368 -1.0111
  414MOL0     C55814   6.939   1.176   4.052 -0.5882 -0.1120  0.1810
  414MOL0     C55815   7.041   1.278   4.014  0.0112 -0.3186  0.2112
  414MOL0     C55816   7.081   1.378   4.125 -0.1024 -0.3563  0.1579
  414MOL0     C55817   7.204   1.455   4.060  0.8019  0.3099 -0.5497
  414MOL0     C55818   7.256   1.554   4.155  0.0265 -0.9926 -0.1325
  414MOL0     C55819   7.284   1.642   4.240 -0.9978  0.2698  0.1932
  414MOL0     C55820   6.583   1.234   4.146 -0.3665  0.7183 -0.7687
  414MOL0     C55821   6.451   1.174   4.155 -0.0969 -0.1619  0.1508
  414MOL0     C55822   6.333   1.266   4.179  0.2511  0.3728  0.8253
  414MOL0     H55823   6.230   0.688   3.852 -2.6160 -1.0105 -1.6694
  414MOL0     H55824   6.040   0.534   3.846  1.8768  1.7593 -1.3683
  414MOL0     H55825   5.784   0.571   3.923 -2.2073  0.1686  0.2537
  414MOL0     H55826   5.832   0.413   3.877  1.3719  0.5696  1.2926
  414MOL0     H55827   5.646   0.342   4.072  1.2448 -0.1906  0.5387
  414MOL0     H55828   5.557   0.439   3.952 -0.0442 -0.1279 -0.1823
  414MOL0     H55829   5.689   0.564   4.188 -0.5175 -3.1767  2.5159
  414MOL0     H55830   5.531   0.506   4.194  1.1343 -0.4592  0.3999
  414MOL0     H55831   5.600   0.708   3.969 -0.6039  1.6778  0.1471
  414MOL0     H55832   5.436   0.656   4.009 -0.2185 -1.3160 -0.2251
  414MOL0     H55833   5.645   0.800   4.180 -0.2910 -0.2737 -1.0603
  414MOL0     H55834   5.511   0.868   4.074  1.7619  0.1908 -1.4010
  414MOL0     H55835   5.349   0.769   4.204 -1.1671  0.3284  1.5569
  414MOL0     H55836   5.464   0.702   4.326  3.4231  0.9646  1.3206
  414MOL0     H55837   5.370   0.991   4.275  3.3657  1.6079 -0.2703
  414MOL0     H55838   5.517   0.975   4.352 -0.0175  1.5879 -3.4140
  414MOL0     H55839   5.279   0.818   4.454  0.4190  0.5102 -0.7187
  414MOL0     H55840   5.418   0.863   4.547 -1.3406 -1.7187  0.2472
  414MOL0     H55841   5.445   1.157   4.520  0.9910  2.0236  1.6637
  414MOL0     H55842   5.337   1.385   4.559  0.6241  1.2530 -0.2846
  414MOL0     H55843   5.181   1.406   4.634  1.4800  2.1005  2.3884
  414MOL0     H55844   5.453   1.349   4.782 -0.7402 -1.8477  1.4959
  414MOL0     H55845   5.346   1.489   4.783 -0.0215  0.0183  2.7414
  414MOL0     H55846   5.266   1.209   4.876  0.2665 -1.1760  3.9018
  414MOL0     H55847   5.182   1.355   4.925  0.4625  1.0627 -0.4897
  414MOL0     H55848   5.449   1.260   5.034  0.0436  0.8571 -1.6804
  414MOL0     H55849   5.307   1.266   5.124  2.4712  1.2264  2.9500
  414MOL0     H55850   5.483   1.287   5.272  0.9322  1.0624 -2.0542
  414MOL0     H55851   5.526   1.326   5.504  0.1733 -0.7111 -1.2210
  414MOL0     H55852   5.380   1.834   5.839  1.2484 -0.1370  1.7511
  414MOL0     H55853   5.472   1.901   6.055 -0.5497 -2.5694 -0.7184
  414MOL0     H55854   5.914   1.910   6.088  1.1796  1.6163  0.3898
  414MOL0     H55855   5.820   2.063   6.099 -4.2993  1.4879  2.3008
  414MOL0     H55856   5.957   2.061   6.283 -0.1707 -0.9729 -1.8685
  414MOL0     H55857   5.792   2.030   6.349 -1.5295  0.1832 -0.0959
  414MOL0     H55858   5.849   1.808   6.383 -0.4306  0.5596 -0.3742
  414MOL0     H55859   5.960   1.792   6.258  1.9492  1.9851 -0.8086
  414MOL0     H55860   5.980   1.935   6.525  1.0190 -1.0309  1.6762
  414MOL0     H55861   6.112   1.953   6.409  0.5114  0.9138  3.3348
  414MOL0     H55862   6.155   1.833   6.605  0.3123 -0.5044 -1.0034
  414MOL0     H55863   6.169   1.707   6.470 -0.0763 -1.3132  0.9850
  414MOL0     H55864   5.933   1.752   6.652 -0.9663  0.5708 -1.8838
  414MOL0     H55865   5.951   1.624   6.537 -1.7972  0.3506 -0.1938
  414MOL0     H55866   5.997   1.586   6.782  1.0291 -0.1080  2.3062
  414MOL0     H55867   6.153   1.671   6.749  0.1245  1.1083 -2.2853
  414MOL0     H55868   6.037   1.411   6.609 -0.9189  2.2271 -0.3554
  414MOL0     H55869   6.192   1.491   6.560  2.0913 -1.1576  1.2422
  414MOL0     H55870   5.864   1.780   5.933  0.9153 -0.3744 -1.6966
  414MOL0     H55871   5.779   1.711   5.733  0.8005  0.0061  0.2590
  414MOL0     H55872   5.430   1.746   5.412 -1.3825  1.2704 -0.3581
  414MOL0     H55873   5.350   1.682   5.191 -1.8824 -0.8548  1.0752
  414MOL0     H55874   5.978   0.604   4.263 -1.5502  0.1451  1.0351
  414MOL0     H55875   6.160   0.754   4.271  2.0375  0.7794 -0.6894
  414MOL0     H55876   6.553   0.855   4.065 -1.7507  0.1215 -2.0886
  414MOL0     H55877   6.775   0.960   4.067 -0.3368 -0.9588 -2.2504
  414MOL0     H55878   6.899   1.130   3.961 -0.7206 -1.7984  1.0300
  414MOL0     H55879   6.984   1.091   4.105 -1.4007 -0.7536 -0.1339
  414MOL0     H55880   6.992   1.328   3.930 -2.4717 -1.3652  0.9401
  414MOL0     H55881   7.130   1.222   3.983 -0.0823 -0.5362  0.3341
  414MOL0     H55882   7.110   1.336   4.222 -2.0271  2.4334  2.0835
  414MOL0     H55883   7.003   1.452   4.145  0.8446  0.1475  2.2316
  414MOL0     H55884   7.281   1.378   4.046  0.6741  0.0637  0.0447
  414MOL0     H55885   7.180   1.501   3.964  0.1975  1.9600  0.3583
  414MOL0     H55886   7.301   1.722   4.309  2.5648 -1.3801  1.4569
  414MOL0     H55887   6.605   1.338   4.165 -0.0474  1.1691 -3.2972
  414MOL0     H55888   6.251   1.255   4.108  1.3681 -1.3186 -0.2689
  414MOL0     H55889   6.301   1.254   4.283  0.4908  3.0663  1.2926
  414MOL0     H55890   6.360   1.372   4.187 -0.8103  0.5540  2.6048
  415MOL0     O55891   2.005   1.211   3.476  0.2310 -0.3388 -0.7405
  415MOL0     C55892   2.007   1.092   3.453  0.0999  0.7421 -0.1780
  415MOL0     O55893   1.995   1.039   3.331  0.0701 -0.7717  0.4955
  415MOL0     C55894   1.981   1.115   3.221  0.0105  1.1448  0.1019
  415MOL0     C55895   2.053   1.076   3.106  0.1368 -0.5018 -0.0577
  415MOL0     C55896   2.038   1.144   2.982 -0.1731  0.2798 -0.5105
  415MOL0     C55897   1.940   1.237   2.967  0.1279  0.5233  0.2960
  415MOL0     O55898   1.912   1.305   2.848  0.3066  0.3488 -0.1737
  415MOL0     C55899   2.018   1.295   2.739  0.1853 -0.1380 -0.4504
  415MOL0     C55900   1.979   1.358   2.606  0.3609 -0.1282  0.1354
  415MOL0     C55901   1.832   1.306   2.573  0.6046 -1.1215  0.2065
  415MOL0     C55902   1.805   1.326   2.430  0.8746 -0.3569 -0.3029
  415MOL0     C55903   1.879   1.230   2.333  0.9734  0.0633 -0.5830
  415MOL0     C55904   1.865   1.280   2.189 -0.2768  0.4194  0.3177
  415MOL0     C55905   1.941   1.192   2.099  0.6863  0.1308 -0.2195
  415MOL0     C55906   1.971   1.255   1.964  0.0761 -0.2947  0.2226
  415MOL0     N55907   2.013   1.151   1.870 -0.2824  0.6241  0.4238
  415MOL0     C55908   2.103   1.055   1.900 -0.7174 -0.2652 -0.4398
  415MOL0     C55909   2.107   0.972   1.796 -0.2134 -0.8984 -0.1563
  415MOL0     C55910   2.188   0.849   1.787 -0.3671  0.6280  0.4963
  415MOL0     C55911   2.115   0.729   1.729 -0.4950  1.3782  0.4296
  415MOL0     C55912   2.183   0.602   1.785 -0.7276 -0.0525  0.0858
  415MOL0     C55913   2.328   0.597   1.723  0.7558 -0.4780  0.4371
  415MOL0     O55914   2.386   0.476   1.756  0.4947  0.6575  0.4386
  415MOL0     C55915   2.429   0.396   1.650 -0.7191 -0.7014  0.0742
  415MOL0     C55916   2.341   0.340   1.562  0.0646 -0.4455  0.8725
  415MOL0     C55917   2.385   0.246   1.468 -0.3973 -0.1727 -0.8840
  415MOL0     C55918   2.528   0.216   1.460  0.0625  0.3928 -0.0716
  415MOL0     C55919   2.582   0.128   1.358 -0.9830 -0.3389  0.8791
  415MOL0     O55920   2.494   0.045   1.292 -0.3114  0.4776 -0.1187
  415MOL0     C55921   2.538  -0.060   1.210 -0.8280 -0.4866  1.0111
  415MOL0     C55922   2.457  -0.099   1.102  0.3875 -0.3757  0.7767
  415MOL0     C55923   2.495  -0.189   1.006  1.4866 -0.3452 -0.3676
  415MOL0     C55924   2.617  -0.257   1.018 -0.7352 -0.2314 -0.1513
  415MOL0     O55925   2.665  -0.357   0.945 -0.3433  0.0407 -0.5334
  415MOL0     C55926   2.610  -0.358   0.811 -0.7559  0.2654 -0.1282
  415MOL0     C55927   2.648  -0.492   0.732 -0.0276 -0.0609  0.1537
  415MOL0     C55928   2.528  -0.526   0.645 -0.8434 -0.0856 -0.0023
  415MOL0     C55929   2.568  -0.633   0.546 -0.0709  0.4421  0.2597
  415MOL0     C55930   2.652  -0.568   0.428  1.5005  0.0800 -0.7694
  415MOL0     C55931   2.696  -0.680   0.331  0.8868 -0.5918 -0.1436
  415MOL0     C55932   2.793  -0.787   0.391  1.2592 -0.0041 -0.1617
  415MOL0     C55933   2.904  -0.820   0.289  0.2507 -0.0612 -0.5133
  415MOL0    Cl55934   2.830  -0.891   0.136 -0.2929 -0.1408  0.0594
  415MOL0     C55935   2.710  -0.215   1.110  0.1441 -0.1402 -0.1479
  415MOL0     C55936   2.665  -0.125   1.212  0.8607  0.1447  1.1487
  415MOL0     O55937   2.701   0.132   1.327 -0.2486 -0.6088  0.2397
  415MOL0     C55938   2.606   0.279   1.557 -0.1997  0.7027  0.7021
  415MOL0     C55939   2.560   0.373   1.647  0.3392  0.8602  0.1943
  415MOL0     N55940   2.034   1.031   1.697  0.8614 -0.5221  0.0156
  415MOL0     N55941   1.979   1.132   1.745  0.6694 -0.6424  0.3628
  415MOL0     C55942   1.853   1.254   3.082  0.9625  0.0744 -0.7509
  415MOL0     C55943   1.873   1.198   3.201 -0.2551 -0.7500  0.0006
  415MOL0     C55944   2.054   0.994   3.559  0.2949 -1.6463  0.2639
  415MOL0     C55945   2.143   0.899   3.517 -0.2291 -0.4245  0.1748
  415MOL0     C55946   2.202   0.821   3.611  0.4983 -0.9151  0.6525
  415MOL0     C55947   2.170   0.821   3.741  0.3820 -1.1220 -0.9380
  415MOL0     O55948   2.222   0.747   3.839  0.4023 -0.1230  0.3987
  415MOL0     C55949   2.306   0.838   3.915 -0.2475 -0.1290 -0.1972
  415MOL0     C55950   2.446   0.831   3.864  0.9022  0.9162 -0.6121
  415MOL0     C55951   2.540   0.893   3.970 -0.9834 -0.0350  0.6174
  415MOL0     C55952   2.668   0.943   3.901  0.4434 -1.2753 -0.7956
  415MOL0     C55953   2.736   1.039   3.988 -0.4372  0.4576  0.2377
  415MOL0     C55954   2.792   1.122   4.058 -0.8165 -1.2664 -0.7266
  415MOL0     C55955   2.065   0.902   3.777 -0.8363 -0.5270 -0.0932
  415MOL0     C55956   2.011   0.990   3.689 -0.0264  0.6434  0.0432
  415MOL0     C55957   1.908   1.088   3.755  0.0379  0.1488  0.6085
  415MOL0     H55958   2.131   1.001   3.100  0.4124 -0.1175 -3.3601
  415MOL0     H55959   2.112   1.114   2.908 -2.1626 -4.4983 -0.8799
  415MOL0     H55960   2.108   1.343   2.779 -0.4132 -0.9506  2.0276
  415MOL0     H55961   2.040   1.191   2.713  0.1143 -0.5531  1.0815
  415MOL0     H55962   2.051   1.334   2.526 -0.9225 -0.9334 -0.8169
  415MOL0     H55963   1.980   1.467   2.614 -4.3180  0.2835 -1.8550
  415MOL0     H55964   1.764   1.355   2.643  1.1912  1.7141 -1.0497
  415MOL0     H55965   1.846   1.199   2.592 -3.2177 -2.0706 -1.4429
  415MOL0     H55966   1.698   1.306   2.428  0.0517  1.9764  4.8234
  415MOL0     H55967   1.830   1.423   2.387 -1.8787 -0.1142 -1.5509
  415MOL0     H55968   1.983   1.221   2.363  0.1208 -1.2655  2.2911
  415MOL0     H55969   1.837   1.131   2.353  1.4482  0.0630  0.5057
  415MOL0     H55970   1.759   1.297   2.171 -0.1370 -0.2151 -1.1998
  415MOL0     H55971   1.904   1.383   2.191 -0.8657  0.6418  1.4049
  415MOL0     H55972   1.879   1.102   2.091 -0.1782 -0.6224  7.5483
  415MOL0     H55973   2.035   1.162   2.146 -2.0159 -1.7390  4.7285
  415MOL0     H55974   1.875   1.292   1.927 -0.8018 -2.6723 -0.0480
  415MOL0     H55975   2.051   1.329   1.971 -0.5839  0.6319 -1.4642
  415MOL0     H55976   2.150   1.023   1.992 -4.3091 -3.4549  0.5391
  415MOL0     H55977   2.271   0.876   1.721 -2.5924  1.8214 -2.0221
  415MOL0     H55978   2.216   0.829   1.891 -2.3081 -2.0098  0.6092
  415MOL0     H55979   2.021   0.726   1.786  0.8420  3.1061  2.9248
  415MOL0     H55980   2.109   0.739   1.620 -1.2011  0.8040  0.4043
  415MOL0     H55981   2.133   0.509   1.754 -0.2826  1.2755 -5.9421
  415MOL0     H55982   2.190   0.618   1.893  1.0667  0.9012 -0.1363
  415MOL0     H55983   2.387   0.680   1.762  2.1877 -2.2523  2.2307
  415MOL0     H55984   2.317   0.607   1.614  0.0921 -1.9772  0.3334
  415MOL0     H55985   2.236   0.363   1.578 -0.2707  1.2529 -2.7424
  415MOL0     H55986   2.321   0.201   1.393  0.4601  0.0842 -1.7960
  415MOL0     H55987   2.359  -0.052   1.107  0.6621  0.1229  1.8326
  415MOL0     H55988   2.411  -0.210   0.942  1.9321  2.5044 -2.0299
  415MOL0     H55989   2.500  -0.354   0.805 -0.6524  1.2768 -2.4806
  415MOL0     H55990   2.623  -0.265   0.755 -2.0897  1.7263  1.8211
  415MOL0     H55991   2.743  -0.491   0.678  0.7756 -0.5448  1.5196
  415MOL0     H55992   2.672  -0.572   0.803  6.9036  0.1255 -1.2477
  415MOL0     H55993   2.450  -0.566   0.710 -0.1046 -0.2271  0.8080
  415MOL0     H55994   2.494  -0.435   0.594 -0.4805  0.0441 -0.0135
  415MOL0     H55995   2.474  -0.675   0.508 -0.6147  0.2610  1.7596
  415MOL0     H55996   2.616  -0.717   0.598  1.2253  1.0022  0.0167
  415MOL0     H55997   2.747  -0.525   0.461  2.7776 -2.2339 -1.1647
  415MOL0     H55998   2.593  -0.490   0.380 -0.4932 -0.5437  0.5625
  415MOL0     H55999   2.609  -0.730   0.287  0.5606 -0.5455  0.4295
  415MOL0     H56000   2.760  -0.633   0.256  0.5857 -1.9966 -1.3194
  415MOL0     H56001   2.731  -0.874   0.413  1.7003  0.0398  1.3404
  415MOL0     H56002   2.836  -0.749   0.484 -1.2888 -1.8724  1.9454
  415MOL0     H56003   2.967  -0.732   0.272 -0.7893  0.3295 -2.9117
  415MOL0     H56004   2.958  -0.902   0.336 -1.9296 -0.0815  2.1933
  415MOL0     H56005   2.809  -0.260   1.115 -0.5315 -1.5462  1.5368
  415MOL0     H56006   2.728  -0.094   1.296 -1.9872  3.0797  2.4257
  415MOL0     H56007   2.711   0.257   1.568 -0.4280 -0.6755  0.4073
  415MOL0     H56008   2.631   0.424   1.711  1.9836  1.0951 -1.7166
  415MOL0     H56009   1.763   1.312   3.066  0.3880 -0.0397  1.6694
  415MOL0     H56010   1.803   1.204   3.284 -1.5798 -1.3186 -1.0272
  415MOL0     H56011   2.182   0.900   3.416  0.9800  0.2950  0.6285
  415MOL0     H56012   2.268   0.741   3.581 -0.1973 -1.7623  1.3155
  415MOL0     H56013   2.291   0.823   4.022  2.0470  1.1051  0.3711
  415MOL0     H56014   2.287   0.945   3.903 -0.7452  0.0993  2.2295
  415MOL0     H56015   2.465   0.877   3.767 -1.5283  3.4159 -0.0213
  415MOL0     H56016   2.474   0.726   3.852  1.9704  1.2375 -1.0885
  415MOL0     H56017   2.567   0.822   4.048  0.0869  1.8533  2.0479
  415MOL0     H56018   2.492   0.979   4.018  1.8144  1.2463  1.3535
  415MOL0     H56019   2.736   0.860   3.883 -0.4835 -2.7379  1.8551
  415MOL0     H56020   2.629   1.002   3.817  1.3843  0.9006  0.2176
  415MOL0     H56021   2.858   1.189   4.107 -2.3510 -0.0347 -0.2522
  415MOL0     H56022   2.028   0.898   3.879 -0.6910 -3.4258 -0.0682
  415MOL0     H56023   1.879   1.060   3.856 -1.4702  0.2201  0.2201
  415MOL0     H56024   1.937   1.194   3.757 -0.7850  0.4581 -1.2970
  415MOL0     H56025   1.817   1.082   3.695  1.2690  0.7644 -1.4434
  416MOL0     O56026   4.309  10.163   3.923  0.1589  0.0133 -0.1684
  416MOL0     C56027   4.224  10.085   3.884 -0.3975 -0.7754  0.8696
  416MOL0     O56028   4.235   9.955   3.872 -0.2318  0.3827 -0.0958
  416MOL0     C56029   4.324   9.894   3.958 -0.4185 -0.3076  0.8159
  416MOL0     C56030   4.448   9.861   3.902 -0.1476  0.0974 -0.0373
  416MOL0     C56031   4.546   9.812   3.985 -0.0512  1.0521  0.0939
  416MOL0     C56032   4.522   9.784   4.123 -0.0435  0.1863 -0.9449
  416MOL0     O56033   4.630   9.735   4.201  0.1807 -0.5541 -0.6162
  416MOL0     C56034   4.597   9.675   4.321  0.2184 -0.0088  0.1305
  416MOL0     C56035   4.727   9.628   4.397 -0.6192  0.5872  0.2617
  416MOL0     C56036   4.851   9.586   4.324 -0.2850  0.0655  1.0131
  416MOL0     C56037   4.971   9.559   4.408  0.4640 -0.0773  0.6014
  416MOL0     C56038   4.959   9.454   4.519 -0.3951  0.5757 -1.1815
  416MOL0     C56039   4.978   9.306   4.482  0.3153 -0.7461  0.0536
  416MOL0     C56040   5.112   9.256   4.447  0.0580 -0.5952 -0.5534
  416MOL0     C56041   5.186   9.314   4.322  0.3944 -0.0435 -0.1871
  416MOL0     N56042   5.093   9.321   4.215  0.6749 -0.7486 -0.6001
  416MOL0     C56043   5.020   9.219   4.171 -0.2268 -0.2295 -0.7540
  416MOL0     C56044   4.967   9.252   4.057  0.4587  0.4571 -0.7261
  416MOL0     C56045   4.858   9.182   3.977 -0.1691  0.7927  0.0082
  416MOL0     C56046   4.729   9.265   3.988  0.6126 -1.1987  0.1944
  416MOL0     C56047   4.706   9.351   3.863 -0.0047 -0.0800  0.6461
  416MOL0     C56048   4.576   9.430   3.879  0.1083 -0.0895  0.0938
  416MOL0     O56049   4.460   9.346   3.895 -0.8076 -0.1335  0.0356
  416MOL0     C56050   4.330   9.395   3.875  0.0355  0.7789 -0.2467
  416MOL0     C56051   4.302   9.533   3.856 -0.0680  0.4497  0.3421
  416MOL0     C56052   4.173   9.574   3.837  0.8754 -0.9461 -1.4553
  416MOL0     C56053   4.063   9.483   3.856  0.7255  0.1261  0.8748
  416MOL0     C56054   3.926   9.538   3.829 -0.7524 -0.3409 -0.5595
  416MOL0     O56055   3.901   9.671   3.850  0.2248 -0.4888 -0.0103
  416MOL0     C56056   3.792   9.737   3.808  0.5086  0.0019 -0.0303
  416MOL0     C56057   3.740   9.727   3.686 -0.6043  0.8739  0.3116
  416MOL0     C56058   3.619   9.788   3.654 -0.8568 -0.1686 -0.6916
  416MOL0     C56059   3.558   9.883   3.747 -0.1779 -0.4270  0.1673
  416MOL0     O56060   3.439   9.946   3.732  0.1102  0.2627 -0.7965
  416MOL0     C56061   3.431  10.010   3.600 -0.8095 -0.7142 -0.5731
  416MOL0     C56062   3.306  10.092   3.574 -0.0945 -0.2747 -0.0546
  416MOL0     C56063   3.189   9.992   3.547  0.8633  0.5114  0.2345
  416MOL0     C56064   3.056  10.058   3.521 -0.0923 -0.4857  0.7010
  416MOL0     C56065   2.965   9.952   3.486  0.8595  1.0802  0.5723
  416MOL0     C56066   2.835  10.001   3.433  0.0830 -0.8475 -0.2286
  416MOL0     C56067   2.736   9.885   3.421 -0.2874 -0.4638 -0.7002
  416MOL0     C56068   2.593   9.930   3.386 -0.2440  0.0564  0.0254
  416MOL0    Cl56069   2.574   9.976   3.216 -0.2289  0.0809  0.4091
  416MOL0     C56070   3.619   9.900   3.878  0.0774 -0.0643 -0.0209
  416MOL0     C56071   3.746   9.832   3.899  0.0837  0.3532  0.0420
  416MOL0     O56072   3.848   9.449   3.793  0.4146 -0.5011  0.8770
  416MOL0     C56073   4.091   9.350   3.872  0.2802 -0.0188 -0.2873
  416MOL0     C56074   4.224   9.307   3.887 -0.0394 -0.3432  0.1061
  416MOL0     N56075   5.007   9.377   4.027 -0.3662 -0.3354 -1.0182
  416MOL0     N56076   5.077   9.420   4.131  0.5562 -0.9037 -0.4294
  416MOL0     C56077   4.391   9.819   4.180 -0.0178  0.1160  0.0902
  416MOL0     C56078   4.304   9.885   4.093  0.6924 -0.7924  0.4346
  416MOL0     C56079   4.093  10.146   3.836 -0.1929 -0.1668 -0.4371
  416MOL0     C56080   4.042  10.254   3.910  0.3717 -0.1605  0.8234
  416MOL0     C56081   3.911  10.300   3.898 -0.6668  0.5517  0.4710
  416MOL0     C56082   3.824  10.222   3.813 -0.3959  0.0426  0.1087
  416MOL0     O56083   3.691  10.251   3.798  0.0100 -0.4040  0.6772
  416MOL0     C56084   3.634  10.368   3.864  0.1839  0.8912  0.8140
  416MOL0     C56085   3.568  10.317   3.996  0.6798 -0.0462 -0.8041
  416MOL0     C56086   3.440  10.233   3.952  0.9481  0.6108 -0.5394
  416MOL0     C56087   3.348  10.182   4.069 -0.9759  0.0583 -0.7399
  416MOL0     C56088   3.423  10.160   4.196  0.5533  0.2622  0.9999
  416MOL0     C56089   3.475  10.137   4.302 -0.8453 -0.9836 -0.1764
  416MOL0     C56090   3.872  10.116   3.737  0.2707 -0.5045 -0.2067
  416MOL0     C56091   4.010  10.081   3.749  0.5899  0.0560  0.1242
  416MOL0     C56092   4.056   9.978   3.650  0.9197 -0.4740  0.0484
  416MOL0     H56093   4.470   9.885   3.799  0.2218 -1.7039 -0.4112
  416MOL0     H56094   4.641   9.777   3.947 -1.7692 -0.0706 -3.7139
  416MOL0     H56095   4.530   9.730   4.387  1.1015  0.0583  0.9828
  416MOL0     H56096   4.540   9.584   4.298 -0.9529 -0.0349  2.8157
  416MOL0     H56097   4.692   9.544   4.458  2.2465 -0.6328  0.3778
  416MOL0     H56098   4.748   9.715   4.460  0.8287 -1.1605  2.3549
  416MOL0     H56099   4.873   9.671   4.259  3.2828 -1.3883  0.0691
  416MOL0     H56100   4.837   9.496   4.263  1.6070  0.2386  0.2502
  416MOL0     H56101   5.049   9.532   4.336  2.4857  2.5891  1.6541
  416MOL0     H56102   4.999   9.655   4.453 -1.2336  1.3492 -1.1804
  416MOL0     H56103   5.039   9.489   4.585 -0.4088  0.9036 -1.3332
  416MOL0     H56104   4.866   9.464   4.575  0.5631  0.7252  0.4342
  416MOL0     H56105   4.949   9.263   4.578 -3.0191  1.2991  0.1308
  416MOL0     H56106   4.910   9.283   4.400  2.9456 -0.9962 -2.2066
  416MOL0     H56107   5.124   9.147   4.439  1.2031 -0.8080  2.5701
  416MOL0     H56108   5.175   9.291   4.529 -0.7549  0.1308 -0.2337
  416MOL0     H56109   5.229   9.412   4.347  1.9259 -0.1699 -2.1151
  416MOL0     H56110   5.267   9.248   4.292 -0.2249 -1.2240  0.6600
  416MOL0     H56111   4.995   9.125   4.218 -2.2118 -1.4005 -3.8024
  416MOL0     H56112   4.892   9.176   3.873  1.1258  0.0845  0.4521
  416MOL0     H56113   4.847   9.088   4.030  2.4428  0.3231 -0.1703
  416MOL0     H56114   4.644   9.198   3.994 -1.3034  1.0082 -0.6242
  416MOL0     H56115   4.722   9.327   4.078 -0.6358  1.7434 -1.7522
  416MOL0     H56116   4.690   9.282   3.780 -0.3483 -0.5884  1.1264
  416MOL0     H56117   4.792   9.417   3.852  0.2463  0.0628  2.9704
  416MOL0     H56118   4.563   9.490   3.788 -2.2656 -0.5521  0.0651
  416MOL0     H56119   4.579   9.501   3.962 -1.3059  2.1554 -1.6446
  416MOL0     H56120   4.372   9.614   3.876  1.0774 -1.0458  2.7506
  416MOL0     H56121   4.150   9.676   3.810 -2.7696 -1.3980 -0.5699
  416MOL0     H56122   3.788   9.660   3.615  0.9211  1.0289  1.1432
  416MOL0     H56123   3.570   9.766   3.560 -1.3097 -0.2833 -0.4328
  416MOL0     H56124   3.520  10.073   3.592 -0.3557 -1.5845 -3.1144
  416MOL0     H56125   3.443   9.952   3.508  0.0719 -1.6490  0.1178
  416MOL0     H56126   3.291  10.167   3.652 -4.0625  1.4396 -2.1677
  416MOL0     H56127   3.326  10.149   3.483  0.8488  0.2001  0.4354
  416MOL0     H56128   3.207   9.917   3.470 -1.6264 -1.7170  1.6280
  416MOL0     H56129   3.182   9.922   3.632  0.9920  1.6286  1.1822
  416MOL0     H56130   3.064  10.127   3.437 -2.7145  0.6468  1.2855
  416MOL0     H56131   3.031  10.108   3.615  1.0832 -0.3619  0.9682
  416MOL0     H56132   2.956   9.891   3.577  0.1361 -0.6533 -0.6069
  416MOL0     H56133   3.003   9.891   3.404 -2.2131  1.2766 -1.1591
  416MOL0     H56134   2.801  10.077   3.504 -0.1826 -0.0731 -1.1587
  416MOL0     H56135   2.859  10.050   3.338 -0.1802  2.2538  1.1712
  416MOL0     H56136   2.729   9.825   3.512 -2.5325  0.4279 -0.2105
  416MOL0     H56137   2.772   9.816   3.344 -0.6702  0.2517 -1.5342
  416MOL0     H56138   2.542   9.834   3.394  5.4727 -3.5898 -1.0878
  416MOL0     H56139   2.548  10.001   3.455 -2.4011 -1.6591  0.4874
  416MOL0     H56140   3.584   9.952   3.967  1.4157 -1.2309  1.2274
  416MOL0     H56141   3.795   9.825   3.996 -0.9502  1.6938  0.6908
  416MOL0     H56142   4.015   9.272   3.874  3.1149 -2.9480  0.6543
  416MOL0     H56143   4.250   9.204   3.910 -0.9263 -0.5765  0.0872
  416MOL0     H56144   4.360   9.810   4.284  0.4962 -0.4278  0.2083
  416MOL0     H56145   4.208   9.924   4.124 -1.0785 -3.1606 -1.6874
  416MOL0     H56146   4.099  10.295   3.993  0.1174  0.9209  0.4823
  416MOL0     H56147   3.875  10.377   3.965  1.4140  1.6701  0.3875
  416MOL0     H56148   3.563  10.427   3.805 -2.7634 -1.1130  2.0543
  416MOL0     H56149   3.709  10.436   3.903  3.0766  0.4841 -3.3647
  416MOL0     H56150   3.528  10.402   4.053  1.0930  0.9337 -1.9160
  416MOL0     H56151   3.630  10.256   4.062  0.8838  0.3774 -0.5961
  416MOL0     H56152   3.468  10.153   3.883  1.0273  0.6139 -0.5118
  416MOL0     H56153   3.378  10.289   3.882  1.6285  0.7723 -1.0200
  416MOL0     H56154   3.277  10.257   4.107 -0.2370 -1.3791  4.2128
  416MOL0     H56155   3.297  10.089   4.043 -0.5575  0.0651 -1.6102
  416MOL0     H56156   3.518  10.111   4.396 -1.8238 -2.9533 -0.2239
  416MOL0     H56157   3.803  10.085   3.659 -1.5817  1.8770  0.3496
  416MOL0     H56158   4.161   9.995   3.623  0.7291  0.4371 -0.1610
  416MOL0     H56159   4.045   9.875   3.684 -0.9802 -1.2133 -2.4456
  416MOL0     H56160   4.001   9.990   3.556 -0.1579  1.5592  0.8733
  417MOL0     O56161   6.116   0.181   9.471 -0.0311  0.1110 -0.4055
  417MOL0     C56162   6.083   0.130   9.368 -0.1583  0.0101 -0.1848
  417MOL0     O56163   6.136   0.012   9.320  0.9401 -0.5068  0.4856
  417MOL0     C56164   6.229  -0.065   9.384  0.7233 -0.0727 -0.7347
  417MOL0     C56165   6.235  -0.088   9.516 -0.2792 -0.4140 -0.0748
  417MOL0     C56166   6.314  -0.196   9.558  0.1765  0.7856  0.6646
  417MOL0     C56167   6.380  -0.285   9.473  1.0218 -0.0280 -0.0506
  417MOL0     O56168   6.455  -0.397   9.525 -0.4870 -0.5341 -0.4104
  417MOL0     C56169   6.500  -0.498   9.436  0.4095 -0.1537  0.9475
  417MOL0     C56170   6.565  -0.619   9.507  1.1971  0.5394  0.2230
  417MOL0     C56171   6.624  -0.725   9.417  0.1081  0.8103 -0.3670
  417MOL0     C56172   6.708  -0.694   9.290  0.3197 -0.1434 -0.3287
  417MOL0     C56173   6.749  -0.815   9.225  0.4217 -0.3200  0.1296
  417MOL0     C56174   6.788  -0.766   9.089 -0.4928  1.0294 -0.4234
  417MOL0     C56175   6.827  -0.896   8.999 -0.4659 -0.3842 -0.2535
  417MOL0     C56176   6.915  -0.843   8.889 -0.0120  0.5347 -0.3434
  417MOL0     N56177   6.950  -0.948   8.789  0.1945  0.2623  0.1494
  417MOL0     C56178   7.043  -0.929   8.689 -0.3814 -0.1833 -0.6115
  417MOL0     C56179   7.045  -1.049   8.629 -0.2944  0.5039  0.5256
  417MOL0     C56180   7.135  -1.103   8.519  0.0057  0.9934 -0.0702
  417MOL0     C56181   7.064  -1.095   8.384 -0.3384  0.0288  0.0054
  417MOL0     C56182   7.092  -0.952   8.323 -0.7577 -1.4368  0.9063
  417MOL0     C56183   7.076  -0.961   8.168  0.3081 -0.1225 -1.0809
  417MOL0     O56184   7.025  -0.835   8.119  0.3166 -0.7179  0.7927
  417MOL0     C56185   7.030  -0.815   7.982 -0.0690  0.0408  0.7559
  417MOL0     C56186   7.135  -0.863   7.903  0.6114 -0.3093 -0.9486
  417MOL0     C56187   7.130  -0.867   7.765  0.1268  0.3214  0.2883
  417MOL0     C56188   7.022  -0.804   7.705  0.4934  0.0913  0.5240
  417MOL0     C56189   7.023  -0.806   7.552  0.3230 -0.3521  0.1586
  417MOL0     O56190   6.920  -0.755   7.483  0.1746 -0.3599 -0.6908
  417MOL0     C56191   6.936  -0.729   7.349  0.2116  0.0086  0.8581
  417MOL0     C56192   6.955  -0.828   7.249 -0.3555  0.1351  0.5665
  417MOL0     C56193   6.938  -0.795   7.112  0.3887  0.2674 -0.1041
  417MOL0     C56194   6.906  -0.671   7.066 -0.6234 -0.2061 -0.6585
  417MOL0     O56195   6.893  -0.631   6.938  0.1957  0.4027  1.1067
  417MOL0     C56196   6.964  -0.707   6.841 -0.3285 -1.5102  0.3381
  417MOL0     C56197   6.921  -0.643   6.700 -1.5123 -0.0290  0.1015
  417MOL0     C56198   6.773  -0.638   6.680  0.2020 -0.4041  0.9085
  417MOL0     C56199   6.728  -0.578   6.545  0.1909 -0.3516 -0.9064
  417MOL0     C56200   6.583  -0.545   6.530 -0.8834  0.3675  0.4338
  417MOL0     C56201   6.561  -0.479   6.389 -0.2434 -1.2215  0.1728
  417MOL0     C56202   6.420  -0.477   6.353 -0.8313 -0.0434 -1.0291
  417MOL0     C56203   6.380  -0.423   6.222  0.9443 -1.1205 -0.3163
  417MOL0    Cl56204   6.214  -0.373   6.220 -0.1392  0.7294  0.0215
  417MOL0     C56205   6.879  -0.572   7.166  0.2882  0.2178 -0.6885
  417MOL0     C56206   6.905  -0.602   7.301  0.5561  0.0277 -0.5273
  417MOL0     O56207   7.121  -0.861   7.495  0.8964 -0.1456 -0.4942
  417MOL0     C56208   6.927  -0.736   7.779 -1.0013  0.3714  0.2233
  417MOL0     C56209   6.925  -0.750   7.918 -0.3400 -0.8110 -0.1560
  417MOL0     N56210   6.945  -1.133   8.677 -0.4682  0.1982  0.0363
  417MOL0     N56211   6.903  -1.076   8.789  0.5596 -0.0669 -0.5041
  417MOL0     C56212   6.360  -0.265   9.338 -0.9247  1.4752 -0.4971
  417MOL0     C56213   6.300  -0.143   9.293  0.3786  0.8257 -0.1355
  417MOL0     C56214   5.971   0.192   9.285  0.8926 -1.2418 -0.0940
  417MOL0     C56215   5.946   0.130   9.156 -0.0558  0.5317  0.5656
  417MOL0     C56216   5.849   0.181   9.067 -1.1173  0.7688 -0.4246
  417MOL0     C56217   5.783   0.293   9.098  0.0542 -0.1456  0.5803
  417MOL0     O56218   5.711   0.342   8.985 -0.0128 -0.1128 -0.2310
  417MOL0     C56219   5.654   0.471   8.996 -0.3974 -0.1813  0.6962
  417MOL0     C56220   5.641   0.547   8.862 -1.2139 -1.2629 -0.2148
  417MOL0     C56221   5.556   0.468   8.765  0.1409 -0.0575  0.1221
  417MOL0     C56222   5.409   0.431   8.810  0.1812 -0.8125 -0.1980
  417MOL0     C56223   5.322   0.547   8.822  0.4518  0.0231  0.4704
  417MOL0     C56224   5.252   0.639   8.842  0.9938 -0.5934 -0.5594
  417MOL0     C56225   5.789   0.341   9.232  0.7347  0.9899  0.2212
  417MOL0     C56226   5.891   0.297   9.319  0.4756 -0.6757  0.5327
  417MOL0     C56227   5.900   0.371   9.446 -0.2335  0.5765 -0.4628
  417MOL0     H56228   6.177  -0.029   9.586  0.5038  0.4974 -0.1794
  417MOL0     H56229   6.313  -0.217   9.664 -0.6194  0.2791  0.5652
  417MOL0     H56230   6.416  -0.526   9.372  1.6893  1.2938 -1.5335
  417MOL0     H56231   6.570  -0.460   9.361  0.3060 -1.8940 -0.0815
  417MOL0     H56232   6.491  -0.671   9.569 -2.4468  1.5924 -2.8536
  417MOL0     H56233   6.627  -0.569   9.582  0.3721 -1.1686  2.1519
  417MOL0     H56234   6.536  -0.778   9.380  2.1858 -1.7061 -2.1526
  417MOL0     H56235   6.690  -0.782   9.484 -1.1140  1.7390  1.7086
  417MOL0     H56236   6.640  -0.635   9.228 -1.7920 -2.4956 -0.4540
  417MOL0     H56237   6.786  -0.628   9.329 -3.8400  7.4863 -2.8968
  417MOL0     H56238   6.837  -0.845   9.283  0.1553 -0.2615  0.5674
  417MOL0     H56239   6.677  -0.897   9.227  2.2289 -1.9960  0.6131
  417MOL0     H56240   6.703  -0.720   9.038 -1.8136  0.4080  1.1433
  417MOL0     H56241   6.871  -0.696   9.094  0.5376 -0.2293  1.6283
  417MOL0     H56242   6.728  -0.938   8.982  0.1959 -2.5134  0.7166
  417MOL0     H56243   6.895  -0.959   9.058 -0.7304  0.6243  1.2018
  417MOL0     H56244   6.862  -0.766   8.832  0.2378 -0.0959 -1.4595
  417MOL0     H56245   7.004  -0.794   8.932 -0.3438 -0.8232  2.1045
  417MOL0     H56246   7.111  -0.845   8.673  0.8272 -1.1604 -0.7818
  417MOL0     H56247   7.225  -1.042   8.506 -0.4894  1.9194  0.6769
  417MOL0     H56248   7.165  -1.206   8.537  1.4063  1.4496  0.3087
  417MOL0     H56249   7.103  -1.174   8.318 -1.9323 -2.0090  1.3700
  417MOL0     H56250   6.955  -1.109   8.382 -0.4544  0.9358 -0.9481
  417MOL0     H56251   7.190  -0.906   8.337 -0.7413  1.1238 -4.7463
  417MOL0     H56252   7.021  -0.879   8.363 -0.2616 -0.1785 -0.4189
  417MOL0     H56253   7.001  -1.040   8.155 -0.1880 -0.4020  2.4458
  417MOL0     H56254   7.174  -0.988   8.130  0.4425 -1.8817  0.4252
  417MOL0     H56255   7.221  -0.907   7.952  1.4694  2.6699  0.4845
  417MOL0     H56256   7.218  -0.900   7.710  1.4938  1.8867  1.4161
  417MOL0     H56257   6.992  -0.925   7.280  0.7603  0.7018  1.0647
  417MOL0     H56258   6.958  -0.867   7.034  1.7428  1.6442 -1.0961
  417MOL0     H56259   7.070  -0.683   6.844 -0.2290 -1.8432 -0.3321
  417MOL0     H56260   6.946  -0.815   6.841  1.5124 -1.8552 -0.3027
  417MOL0     H56261   6.960  -0.542   6.685 -0.4690 -0.4636 -0.1502
  417MOL0     H56262   6.965  -0.711   6.626 -0.6526  0.3260  0.2782
  417MOL0     H56263   6.735  -0.740   6.673 -0.7331  0.0422 -0.9739
  417MOL0     H56264   6.723  -0.585   6.762  3.6457  5.2639 -0.0803
  417MOL0     H56265   6.761  -0.643   6.463  0.8596 -0.2589 -0.7197
  417MOL0     H56266   6.790  -0.489   6.531 -2.2448  2.0009  1.8970
  417MOL0     H56267   6.549  -0.474   6.606 -0.4072 -0.7790  1.7623
  417MOL0     H56268   6.531  -0.641   6.533  1.8108 -1.2656 -0.8473
  417MOL0     H56269   6.602  -0.377   6.386 -0.4113 -1.1723 -0.9063
  417MOL0     H56270   6.621  -0.533   6.315  0.2806 -0.9102  0.3643
  417MOL0     H56271   6.369  -0.439   6.443  2.3323 -1.5178  1.5989
  417MOL0     H56272   6.381  -0.580   6.348 -1.2722 -0.0054  0.7832
  417MOL0     H56273   6.428  -0.327   6.204 -1.8939  0.3021 -0.8954
  417MOL0     H56274   6.393  -0.488   6.135  0.0932  1.9959 -2.9693
  417MOL0     H56275   6.846  -0.475   7.130  0.7466  0.4785 -0.4268
  417MOL0     H56276   6.886  -0.517   7.365 -2.1462  0.7458 -2.1132
  417MOL0     H56277   6.856  -0.672   7.728 -0.5014  0.2101 -0.7144
  417MOL0     H56278   6.837  -0.713   7.969  1.8563  2.2384  1.7617
  417MOL0     H56279   6.402  -0.337   9.268 -0.0205  0.0971  1.3843
  417MOL0     H56280   6.291  -0.115   9.188 -4.5833 -2.5250 -0.9798
  417MOL0     H56281   6.006   0.049   9.115 -1.2584  1.4940 -3.6355
  417MOL0     H56282   5.833   0.133   8.970 -3.4031 -1.0075  0.7206
  417MOL0     H56283   5.711   0.539   9.060  2.4270 -1.7028 -0.0409
  417MOL0     H56284   5.559   0.457   9.048 -0.4183 -1.9233  0.2381
  417MOL0     H56285   5.740   0.582   8.828 -0.8880 -2.4865 -0.5672
  417MOL0     H56286   5.596   0.646   8.871 -1.0364 -0.9909 -1.9774
  417MOL0     H56287   5.610   0.374   8.752  1.4593  0.1981  3.1138
  417MOL0     H56288   5.556   0.521   8.669 -1.0155  0.7943  0.5774
  417MOL0     H56289   5.353   0.367   8.742 -1.0623  2.5069 -2.5707
  417MOL0     H56290   5.420   0.380   8.906  3.6535  0.1981  0.0764
  417MOL0     H56291   5.192   0.723   8.872 -1.0223 -1.5075 -1.8065
  417MOL0     H56292   5.707   0.400   9.269  1.3095  0.9519  1.6106
  417MOL0     H56293   5.999   0.418   9.445  0.1824 -0.2400 -3.1255
  417MOL0     H56294   5.821   0.439   9.482  0.5808  0.9691  0.6745
  417MOL0     H56295   5.902   0.292   9.522  4.3874 -1.0707 -1.9920
  418MOL0     O56296   7.098   5.838   8.524  0.4230  0.4735 -0.3939
  418MOL0     C56297   7.176   5.782   8.608  0.2638 -0.8702 -0.1806
  418MOL0     O56298   7.143   5.706   8.727  0.4648  0.0973  0.7965
  418MOL0     C56299   7.021   5.714   8.786  0.5977  0.5936 -0.2549
  418MOL0     C56300   6.941   5.825   8.790 -0.9582  0.8853 -0.1423
  418MOL0     C56301   6.809   5.803   8.823 -0.4254 -0.8868  0.7451
  418MOL0     C56302   6.758   5.683   8.868 -0.5885 -0.7041 -0.4385
  418MOL0     O56303   6.626   5.661   8.901  0.1050 -0.5048  0.9975
  418MOL0     C56304   6.532   5.768   8.885 -0.3173 -0.0491  0.7809
  418MOL0     C56305   6.495   5.778   8.739 -0.7264  1.5744  0.0994
  418MOL0     C56306   6.383   5.873   8.711 -0.5139  0.1021  0.1893
  418MOL0     C56307   6.366   5.874   8.558 -1.2079  0.4265  0.0816
  418MOL0     C56308   6.307   6.010   8.513 -0.5810  1.1882 -0.1585
  418MOL0     C56309   6.266   6.015   8.368  0.4556 -0.7700  0.4709
  418MOL0     C56310   6.191   6.152   8.348  0.5264  0.9570  0.5151
  418MOL0     C56311   6.168   6.178   8.199 -0.4151 -0.0880  0.2442
  418MOL0     N56312   6.095   6.073   8.131  0.4919  0.4622 -0.4418
  418MOL0     C56313   6.108   6.053   7.995  0.3126 -0.5258  0.0499
  418MOL0     C56314   5.998   5.975   7.969  0.1437  0.3503 -0.7447
  418MOL0     C56315   5.946   5.923   7.844 -0.8709 -0.6153 -0.1243
  418MOL0     C56316   5.969   6.015   7.720  0.1997 -0.9174 -0.0495
  418MOL0     C56317   5.878   5.960   7.601 -1.0293 -0.6353  1.3007
  418MOL0     C56318   5.906   6.052   7.465 -0.4295  0.1481  0.0667
  418MOL0     O56319   6.051   6.075   7.443  0.5110 -0.4341  0.8792
  418MOL0     C56320   6.134   5.965   7.415  0.3819  1.2175  0.3479
  418MOL0     C56321   6.104   5.841   7.349 -0.3942  0.2702 -0.1295
  418MOL0     C56322   6.199   5.739   7.322 -0.0976 -0.1416 -0.0757
  418MOL0     C56323   6.330   5.776   7.351 -1.1667  0.3436  0.1677
  418MOL0     C56324   6.442   5.683   7.316  0.4705  0.3810 -0.5392
  418MOL0     O56325   6.576   5.724   7.324  0.7145  0.8823  0.4332
  418MOL0     C56326   6.668   5.623   7.299 -0.4895  0.2990 -0.3880
  418MOL0     C56327   6.765   5.583   7.392 -0.1892  0.0742  0.8332
  418MOL0     C56328   6.856   5.486   7.355 -0.8000  0.6311  0.7288
  418MOL0     C56329   6.867   5.443   7.223  0.9036  0.2632  0.2717
  418MOL0     O56330   6.970   5.358   7.185 -0.9777  0.0864  0.4411
  418MOL0     C56331   6.957   5.266   7.083 -0.0301  0.9968  0.4987
  418MOL0     C56332   7.095   5.206   7.052 -0.1179 -0.6570 -0.2917
  418MOL0     C56333   7.186   5.309   6.973  0.2333 -0.0111 -0.0661
  418MOL0     C56334   7.313   5.233   6.928  0.3289  0.2685 -0.0002
  418MOL0     C56335   7.425   5.335   6.871 -0.5883 -0.1869  0.0730
  418MOL0     C56336   7.549   5.266   6.809  0.6883 -0.7298 -0.5003
  418MOL0     C56337   7.530   5.169   6.687 -0.4826  0.0433 -0.3194
  418MOL0     C56338   7.604   5.030   6.700  0.1939 -0.3185  0.7545
  418MOL0    Cl56339   7.541   4.903   6.590  0.6613  0.4219 -0.3082
  418MOL0     C56340   6.781   5.499   7.123  0.2279 -0.7995 -1.3612
  418MOL0     C56341   6.682   5.583   7.169 -0.0352 -0.6077  0.2246
  418MOL0     O56342   6.400   5.569   7.280  0.0275  0.1218  0.1149
  418MOL0     C56343   6.356   5.889   7.429 -0.1321  0.0061  1.3253
  418MOL0     C56344   6.261   5.988   7.465 -0.8660  0.1410 -0.5731
  418MOL0     N56345   5.931   5.948   8.091  0.3628 -0.4237  0.2941
  418MOL0     N56346   5.999   5.994   8.183 -0.5066  0.7733  0.7347
  418MOL0     C56347   6.843   5.570   8.867  0.2687  0.0543 -0.1906
  418MOL0     C56348   6.975   5.592   8.826  0.1929  0.4374  0.7082
  418MOL0     C56349   7.323   5.783   8.587 -0.0655 -0.7547  0.4273
  418MOL0     C56350   7.407   5.783   8.692 -0.8054  0.3223  0.1382
  418MOL0     C56351   7.545   5.806   8.690 -0.2388  0.0288  0.8065
  418MOL0     C56352   7.601   5.837   8.566  0.2435 -0.2627  0.5201
  418MOL0     O56353   7.729   5.879   8.566 -0.0107  0.1718 -0.3170
  418MOL0     C56354   7.810   5.781   8.485  0.2630 -0.6369 -0.1337
  418MOL0     C56355   7.958   5.793   8.516 -0.1119 -0.1636  0.8057
  418MOL0     C56356   8.002   5.750   8.653  0.4626  0.1757 -0.2220
  418MOL0     C56357   8.149   5.774   8.691 -0.0591  0.2546  0.6770
  418MOL0     C56358   8.153   5.781   8.830  0.3726 -0.6132 -0.6557
  418MOL0     C56359   8.115   5.772   8.949  0.5461  1.0114  0.2297
  418MOL0     C56360   7.519   5.837   8.449 -0.3454  0.5636 -0.1665
  418MOL0     C56361   7.382   5.809   8.457  0.3484  0.1338 -0.4553
  418MOL0     C56362   7.312   5.819   8.328 -0.2466 -0.2724 -0.5380
  418MOL0     H56363   6.966   5.929   8.774  2.0974 -0.0708 -2.4703
  418MOL0     H56364   6.750   5.892   8.800 -0.5264 -2.2461 -6.6131
  418MOL0     H56365   6.443   5.747   8.944 -0.6961 -0.4830  0.0800
  418MOL0     H56366   6.573   5.864   8.917 -1.7084  0.9521 -0.2813
  418MOL0     H56367   6.472   5.678   8.700  0.1284  0.6099  1.9179
  418MOL0     H56368   6.586   5.805   8.685  0.9499  0.7242  2.3305
  418MOL0     H56369   6.414   5.968   8.756 -0.0046  1.9174 -3.5996
  418MOL0     H56370   6.296   5.830   8.761 -2.1229 -0.1402 -2.5907
  418MOL0     H56371   6.457   5.857   8.499 -0.2814  1.0506  1.2800
  418MOL0     H56372   6.309   5.786   8.527  1.5755 -1.2186 -0.7311
  418MOL0     H56373   6.234   6.041   8.589  1.6909  1.2277  2.1289
  418MOL0     H56374   6.384   6.086   8.523  0.8305  0.4099 -3.5989
  418MOL0     H56375   6.349   6.018   8.297  1.2077 -0.6360  1.3427
  418MOL0     H56376   6.196   5.932   8.357 -1.5912  1.0355 -1.2091
  418MOL0     H56377   6.240   6.232   8.404  0.8381  0.2448  1.2910
  418MOL0     H56378   6.098   6.131   8.403  2.6594 -1.3372  3.5954
  418MOL0     H56379   6.112   6.269   8.175 -1.1362 -0.9606 -1.5869
  418MOL0     H56380   6.262   6.204   8.151 -0.4221  1.5959  1.0903
  418MOL0     H56381   6.185   6.091   7.929  0.9710 -3.5357 -1.1004
  418MOL0     H56382   6.009   5.834   7.832  0.7561  0.5142 -0.2871
  418MOL0     H56383   5.841   5.893   7.843 -0.8587 -0.7874 -2.6877
  418MOL0     H56384   5.927   6.114   7.740 -1.6156 -1.8393  1.0223
  418MOL0     H56385   6.075   6.033   7.699 -0.4061  0.2276 -2.5073
  418MOL0     H56386   5.770   5.958   7.622 -1.6024 -1.2918 -1.3893
  418MOL0     H56387   5.896   5.857   7.568 -0.5979 -0.1041 -0.1790
  418MOL0     H56388   5.853   6.147   7.479 -1.2064 -0.1525 -0.7569
  418MOL0     H56389   5.858   5.998   7.383 -0.0781  1.3039 -0.9447
  418MOL0     H56390   6.007   5.824   7.304 -0.3947 -1.3551  0.4287
  418MOL0     H56391   6.175   5.634   7.304  3.5871 -1.2543  0.6218
  418MOL0     H56392   6.761   5.607   7.497 -0.0160 -0.4065  0.9508
  418MOL0     H56393   6.918   5.451   7.437 -0.0291 -1.1587 -0.5658
  418MOL0     H56394   6.911   5.174   7.121  0.9050 -0.0570 -0.8181
  418MOL0     H56395   6.921   5.297   6.984 -0.5547 -1.1966 -0.0637
  418MOL0     H56396   7.139   5.177   7.148  0.7981  2.6887  0.4668
  418MOL0     H56397   7.087   5.111   7.000  0.2789 -0.5832 -0.5002
  418MOL0     H56398   7.134   5.350   6.887 -0.9440 -3.2226 -1.0507
  418MOL0     H56399   7.224   5.389   7.037 -0.1254  0.2861 -0.2251
  418MOL0     H56400   7.311   5.150   6.857  0.4554 -0.0650  0.3792
  418MOL0     H56401   7.362   5.188   7.015  0.1919 -3.4651 -1.6783
  418MOL0     H56402   7.449   5.408   6.948 -1.2036  2.5051 -2.1200
  418MOL0     H56403   7.381   5.396   6.791 -0.0099  0.2078  0.0456
  418MOL0     H56404   7.601   5.353   6.769 -0.1461  1.9884  3.7455
  418MOL0     H56405   7.610   5.220   6.887 -0.2021  0.3847  0.9103
  418MOL0     H56406   7.562   5.232   6.603  2.3312  1.2337  1.5126
  418MOL0     H56407   7.425   5.140   6.676 -0.5967  0.7980 -1.3423
  418MOL0     H56408   7.709   5.044   6.672  0.1547 -0.4143  0.5604
  418MOL0     H56409   7.590   4.995   6.803  0.4701  0.1793  0.9654
  418MOL0     H56410   6.793   5.481   7.017 -2.6517  0.3355 -1.9825
  418MOL0     H56411   6.610   5.606   7.091  0.3529 -0.8984 -0.2236
  418MOL0     H56412   6.455   5.900   7.474 -0.9814  1.0918  3.0525
  418MOL0     H56413   6.284   6.069   7.534  3.2998 -1.1843 -0.0898
  418MOL0     H56414   6.785   5.480   8.882 -1.0981  0.8416 -0.5395
  418MOL0     H56415   7.040   5.506   8.818 -1.4581 -0.7463 -0.8316
  418MOL0     H56416   7.381   5.764   8.796 -0.1698 -0.6729  0.1295
  418MOL0     H56417   7.602   5.788   8.781  4.9828 -2.8962 -2.5290
  418MOL0     H56418   7.812   5.816   8.382 -0.0739  2.9332  0.9267
  418MOL0     H56419   7.776   5.678   8.503  4.3403 -1.6179  3.7539
  418MOL0     H56420   7.990   5.897   8.505 -2.8173  0.7538  0.7168
  418MOL0     H56421   8.006   5.729   8.442 -0.1385  1.2645 -0.4922
  418MOL0     H56422   7.972   5.648   8.676  1.4234 -0.1255 -0.2772
  418MOL0     H56423   7.942   5.817   8.717  1.5155 -1.3337  2.5198
  418MOL0     H56424   8.214   5.688   8.669  0.7505  1.0107  0.0171
  418MOL0     H56425   8.190   5.870   8.657 -2.8437  1.7534  1.2195
  418MOL0     H56426   8.092   5.765   9.053  3.3832  1.6293  0.9805
  418MOL0     H56427   7.556   5.840   8.348  0.4914  1.3045  0.1525
  418MOL0     H56428   7.259   5.728   8.301 -1.1485 -0.3498  1.3079
  418MOL0     H56429   7.232   5.892   8.340  0.3397  0.1825  0.9578
  418MOL0     H56430   7.379   5.853   8.249 -0.8386  1.5537 -0.3003
  419MOL0     O56431   8.212   4.573   4.477  0.2552  0.1694  1.3275
  419MOL0     C56432   8.173   4.479   4.542  0.2575  0.9419  0.6433
  419MOL0     O56433   8.059   4.486   4.615 -0.1512  0.1636  0.1909
  419MOL0     C56434   8.000   4.377   4.674 -0.1793  0.3150  0.4825
  419MOL0     C56435   7.917   4.298   4.594  0.7744 -0.2726  0.0391
  419MOL0     C56436   7.867   4.187   4.658  0.8216 -1.3381  0.0608
  419MOL0     C56437   7.894   4.151   4.787  0.6827 -0.0542 -0.4962
  419MOL0     O56438   7.833   4.034   4.837  0.1954  0.0718  0.5374
  419MOL0     C56439   7.688   4.023   4.830 -0.0977  0.5865  0.3151
  419MOL0     C56440   7.636   4.040   4.979  0.6400 -1.0987  0.1142
  419MOL0     C56441   7.495   3.987   4.989  0.2129  0.5130 -0.2251
  419MOL0     C56442   7.500   3.830   5.004 -0.1178  0.7755  0.1185
  419MOL0     C56443   7.384   3.764   4.946  0.1365 -0.2832  0.2088
  419MOL0     C56444   7.412   3.609   4.910  0.5641 -0.6042  0.0534
  419MOL0     C56445   7.285   3.531   4.869  0.4644  0.4666 -0.6385
  419MOL0     C56446   7.262   3.541   4.717  0.6781 -0.3827  0.2395
  419MOL0     N56447   7.122   3.493   4.706 -0.1446  0.2767  0.3592
  419MOL0     C56448   7.092   3.362   4.681  0.4627 -0.4647  0.1118
  419MOL0     C56449   6.957   3.352   4.685  0.0540 -0.0342  1.0510
  419MOL0     C56450   6.868   3.231   4.659  0.8129 -0.8262  0.1450
  419MOL0     C56451   6.861   3.125   4.780 -0.1937  0.2362  0.3676
  419MOL0     C56452   6.756   3.018   4.751 -0.1209 -1.5123 -0.0088
  419MOL0     C56453   6.616   3.072   4.713 -0.4992 -0.8180  0.2379
  419MOL0     O56454   6.588   3.182   4.806 -0.1330  0.8372 -0.8006
  419MOL0     C56455   6.470   3.242   4.776  0.1868 -0.2921 -0.5016
  419MOL0     C56456   6.426   3.321   4.882  0.0731  0.1164  1.0032
  419MOL0     C56457   6.308   3.399   4.878  0.7871 -0.1403  0.7203
  419MOL0     C56458   6.237   3.401   4.755 -0.2130  0.2205 -0.3278
  419MOL0     C56459   6.128   3.490   4.744 -0.9077 -0.4668  0.6644
  419MOL0     O56460   6.099   3.567   4.854  0.3148  0.1189 -1.0394
  419MOL0     C56461   6.007   3.676   4.849 -0.4023 -0.0625 -0.4754
  419MOL0     C56462   6.025   3.767   4.951 -0.9627  0.3377 -0.4420
  419MOL0     C56463   5.958   3.890   4.959 -0.0987  0.1173 -0.0942
  419MOL0     C56464   5.858   3.916   4.861 -0.3825 -0.5293 -0.0645
  419MOL0     O56465   5.783   4.025   4.844  0.4387  0.0469  0.6927
  419MOL0     C56466   5.809   4.144   4.921 -1.0487 -0.0937  0.1193
  419MOL0     C56467   5.760   4.137   5.069 -0.6680 -0.5930 -0.3247
  419MOL0     C56468   5.725   4.268   5.125  0.2244 -0.1360  0.5270
  419MOL0     C56469   5.663   4.252   5.264 -0.3982 -0.4639 -0.0259
  419MOL0     C56470   5.628   4.389   5.323  0.4516 -0.3334 -0.2332
  419MOL0     C56471   5.570   4.377   5.466 -0.6785  0.0051  0.0268
  419MOL0     C56472   5.559   4.512   5.534  0.0633  0.8300  0.5153
  419MOL0     C56473   5.473   4.618   5.468  0.5702  0.1011  1.2862
  419MOL0    Cl56474   5.313   4.547   5.438 -0.4701 -0.0966  0.2625
  419MOL0     C56475   5.833   3.819   4.765 -0.5375  0.0629 -0.1156
  419MOL0     C56476   5.901   3.700   4.763 -0.6921 -0.2268  0.2819
  419MOL0     O56477   6.079   3.502   4.632  0.0795  0.0334  0.6281
  419MOL0     C56478   6.274   3.307   4.647 -0.4187 -0.0176 -0.4020
  419MOL0     C56479   6.386   3.231   4.659  0.1212  1.0982 -0.5417
  419MOL0     N56480   6.909   3.490   4.699 -0.1801 -0.4893  0.0869
  419MOL0     N56481   7.014   3.576   4.711 -0.3686  0.6072  0.3041
  419MOL0     C56482   7.984   4.227   4.862 -0.0986 -0.4870 -0.9479
  419MOL0     C56483   8.028   4.344   4.808 -0.8589  1.2192  0.1408
  419MOL0     C56484   8.248   4.345   4.533 -0.5101  0.4425 -0.2774
  419MOL0     C56485   8.221   4.274   4.416  0.4108  0.2495  0.0314
  419MOL0     C56486   8.265   4.142   4.408 -1.2949  0.6126  0.1564
  419MOL0     C56487   8.340   4.078   4.506 -0.6123 -0.1758 -0.2602
  419MOL0     O56488   8.393   3.947   4.491  0.5723 -0.3689 -0.2341
  419MOL0     C56489   8.538   3.943   4.468  0.2769  0.9480  0.1006
  419MOL0     C56490   8.572   3.800   4.503 -0.2533  0.0203  0.5095
  419MOL0     C56491   8.620   3.792   4.651  0.8092 -0.8045  0.6409
  419MOL0     C56492   8.506   3.803   4.758 -0.1244 -0.0696 -0.1740
  419MOL0     C56493   8.567   3.853   4.876  0.8113 -0.9879 -0.7353
  419MOL0     C56494   8.613   3.898   4.979  0.7287  0.8067  0.7209
  419MOL0     C56495   8.378   4.160   4.615  0.3688 -0.1721  0.2390
  419MOL0     C56496   8.338   4.290   4.630  0.3020 -1.0329 -0.6695
  419MOL0     C56497   8.397   4.378   4.746 -0.0979 -1.0921 -0.3709
  419MOL0     H56498   7.896   4.321   4.490  0.9933 -1.0386 -0.1774
  419MOL0     H56499   7.797   4.130   4.598  1.2514  0.7579 -2.5968
  419MOL0     H56500   7.651   4.102   4.765  5.2399  0.7735 -3.1546
  419MOL0     H56501   7.646   3.929   4.791  1.4466 -0.5621  1.2970
  419MOL0     H56502   7.640   4.147   5.000  0.3519 -0.7945 -1.2420
  419MOL0     H56503   7.699   3.990   5.054  1.0007  0.9793  1.2841
  419MOL0     H56504   7.437   4.030   4.907 -1.9826  1.6757  1.8439
  419MOL0     H56505   7.457   4.041   5.076  1.1481  0.2332  0.3793
  419MOL0     H56506   7.590   3.797   4.951 -0.9567  0.6649 -1.2759
  419MOL0     H56507   7.507   3.794   5.107 -2.1013  2.4548  0.9102
  419MOL0     H56508   7.296   3.781   5.008  0.0260  1.4261 -0.3552
  419MOL0     H56509   7.369   3.807   4.846  0.3613  0.4742  0.4929
  419MOL0     H56510   7.488   3.604   4.831  0.1622  0.7374 -0.4504
  419MOL0     H56511   7.474   3.564   4.988  1.2699  0.3697  0.0835
  419MOL0     H56512   7.199   3.567   4.926  0.7675 -0.1965  0.2573
  419MOL0     H56513   7.287   3.424   4.891 -0.8908 -0.1340 -3.0431
  419MOL0     H56514   7.255   3.642   4.675  0.8417  0.5127  2.2426
  419MOL0     H56515   7.341   3.479   4.674  0.5785 -0.9071  0.8026
  419MOL0     H56516   7.168   3.285   4.672  3.0407  1.7626  1.4072
  419MOL0     H56517   6.772   3.281   4.644  1.5835 -0.4411 -5.9528
  419MOL0     H56518   6.900   3.183   4.566 -3.2450 -4.3037  0.2628
  419MOL0     H56519   6.954   3.068   4.785 -0.8192 -1.2683 -2.4146
  419MOL0     H56520   6.847   3.173   4.877  0.1930  3.0294 -0.8726
  419MOL0     H56521   6.742   2.951   4.836 -0.3275  0.5235  1.6402
  419MOL0     H56522   6.793   2.961   4.665 -0.6214 -0.8443 -0.6716
  419MOL0     H56523   6.547   2.987   4.714 -0.7757 -0.6765 -1.9515
  419MOL0     H56524   6.632   3.111   4.613  2.2995 -3.6247 -0.5835
  419MOL0     H56525   6.484   3.317   4.974 -0.9266  1.3382  1.7039
  419MOL0     H56526   6.264   3.438   4.969  0.3288  2.0937 -0.3950
  419MOL0     H56527   6.095   3.750   5.033 -3.0707 -1.6833  1.0582
  419MOL0     H56528   5.982   3.971   5.028 -2.1936  1.4647 -0.8488
  419MOL0     H56529   5.915   4.170   4.924 -0.8623 -0.8498  0.2807
  419MOL0     H56530   5.758   4.228   4.872  0.9980  0.7423 -0.6656
  419MOL0     H56531   5.665   4.083   5.066 -1.8749  1.3628  1.0113
  419MOL0     H56532   5.827   4.077   5.132 -0.5382 -0.5353 -0.4063
  419MOL0     H56533   5.807   4.340   5.121 -0.4011  0.5336 -0.7938
  419MOL0     H56534   5.650   4.319   5.064  0.3289  3.8665  3.3669
  419MOL0     H56535   5.733   4.207   5.334  0.2918 -0.3518 -0.6359
  419MOL0     H56536   5.570   4.195   5.249 -1.4372  0.3613  2.7008
  419MOL0     H56537   5.558   4.446   5.262 -2.2622 -2.4511  0.7155
  419MOL0     H56538   5.720   4.447   5.335 -1.1476  1.8406  3.2510
  419MOL0     H56539   5.486   4.308   5.472 -0.1548 -0.6326  0.0753
  419MOL0     H56540   5.635   4.325   5.537  2.2170  2.9508 -0.2234
  419MOL0     H56541   5.662   4.546   5.549  1.4487 -2.4040 -0.8192
  419MOL0     H56542   5.515   4.496   5.633  0.4725 -0.0590  0.5629
  419MOL0     H56543   5.469   4.709   5.529 -0.0352  3.1502 -2.8406
  419MOL0     H56544   5.514   4.652   5.372 -0.2505  0.7863  1.1621
  419MOL0     H56545   5.763   3.832   4.683 -0.1073  0.8049 -0.3793
  419MOL0     H56546   5.878   3.633   4.681 -0.0558 -0.6487  0.4403
  419MOL0     H56547   6.223   3.311   4.551  0.6777  0.5697 -0.9773
  419MOL0     H56548   6.415   3.166   4.577  0.2833  0.3765  0.0766
  419MOL0     H56549   8.013   4.214   4.966 -0.3354  1.8177 -0.5312
  419MOL0     H56550   8.080   4.408   4.879  2.4633 -0.2705 -0.7766
  419MOL0     H56551   8.161   4.319   4.338 -0.2181  0.4322  0.6102
  419MOL0     H56552   8.251   4.086   4.316 -3.6773 -3.1623  2.5720
  419MOL0     H56553   8.597   4.015   4.525  2.0184  0.2513 -0.7384
  419MOL0     H56554   8.547   3.963   4.360 -1.7846  0.7261 -0.1612
  419MOL0     H56555   8.662   3.765   4.452 -0.9388 -1.4405  0.2642
  419MOL0     H56556   8.485   3.735   4.490 -1.6422  1.8749  0.1096
  419MOL0     H56557   8.698   3.869   4.656 -0.8526  1.2251 -2.1777
  419MOL0     H56558   8.665   3.694   4.668 -0.4173 -1.6228 -0.6994
  419MOL0     H56559   8.436   3.881   4.727  1.7682  1.2283 -1.4418
  419MOL0     H56560   8.443   3.715   4.769 -1.0815  0.6445  0.2020
  419MOL0     H56561   8.632   3.920   5.083 -1.5356  0.2889  1.2893
  419MOL0     H56562   8.444   4.125   4.693 -0.5079  1.2833  1.7020
  419MOL0     H56563   8.477   4.330   4.803  1.1321  1.9267  0.6704
  419MOL0     H56564   8.435   4.470   4.702 -2.7649 -0.1932 -0.9795
  419MOL0     H56565   8.320   4.409   4.817 -0.3885 -0.6625 -0.8593
  420MOL0     O56566   4.338   4.976   8.954  0.1776 -0.2720  0.2298
  420MOL0     C56567   4.379   4.862   8.944 -0.7733 -0.4327 -0.0155
  420MOL0     O56568   4.328   4.755   9.006  0.1543  0.0190 -0.5161
  420MOL0     C56569   4.228   4.771   9.095 -0.2180 -0.2547 -0.5542
  420MOL0     C56570   4.248   4.818   9.228  1.2849  0.2716 -0.2167
  420MOL0     C56571   4.139   4.851   9.316  0.8550  0.6651 -0.3939
  420MOL0     C56572   4.006   4.824   9.273  0.2217 -0.1586  0.3759
  420MOL0     O56573   3.909   4.857   9.361  0.4257 -0.2265  0.1748
  420MOL0     C56574   3.777   4.805   9.336 -0.4921  0.7123 -0.3534
  420MOL0     C56575   3.677   4.850   9.444 -0.7085 -0.4179  0.2322
  420MOL0     C56576   3.719   4.799   9.580 -0.5061  0.9732 -0.2185
  420MOL0     C56577   3.707   4.640   9.608  0.5722 -0.7118  0.5719
  420MOL0     C56578   3.576   4.606   9.683 -0.2222  0.1001 -0.3941
  420MOL0     C56579   3.449   4.634   9.603 -1.6580  0.0597 -0.0075
  420MOL0     C56580   3.340   4.555   9.669 -0.3544  0.2967  0.5654
  420MOL0     C56581   3.206   4.589   9.603  0.6783 -0.3166  0.6645
  420MOL0     N56582   3.108   4.581   9.706  1.0194 -0.1936  0.0373
  420MOL0     C56583   3.043   4.683   9.772  0.5882  0.0624  1.2081
  420MOL0     C56584   2.965   4.623   9.863  1.3075  0.2659 -0.7152
  420MOL0     C56585   2.902   4.708   9.971  0.9478  0.1336  0.5781
  420MOL0     C56586   2.898   4.652  10.117  0.2842 -0.5202  0.3867
  420MOL0     C56587   2.968   4.739  10.218  0.1352  0.4808 -0.2869
  420MOL0     C56588   2.874   4.860  10.253 -1.0812 -0.4973 -0.8844
  420MOL0     O56589   2.777   4.796  10.326 -0.4194  0.0204 -0.4007
  420MOL0     C56590   2.684   4.874  10.398  0.4549 -0.7016  0.1276
  420MOL0     C56591   2.673   5.008  10.377  0.3750 -0.8650 -0.5847
  420MOL0     C56592   2.573   5.074  10.462  0.3269  0.2151  0.5670
  420MOL0     C56593   2.498   4.996  10.554  0.0604  0.3324 -0.2146
  420MOL0     C56594   2.405   5.054  10.656 -0.5020 -0.2034 -1.1034
  420MOL0     O56595   2.374   5.184  10.631  0.6415 -0.5511 -0.7589
  420MOL0     C56596   2.286   5.266  10.698 -0.4699 -1.0204 -0.2128
  420MOL0     C56597   2.278   5.400  10.651 -1.1893 -0.3026 -1.1749
  420MOL0     C56598   2.194   5.494  10.708  0.4718  0.3402  0.3648
  420MOL0     C56599   2.102   5.452  10.800  0.5720 -0.1140 -0.2369
  420MOL0     O56600   2.010   5.535  10.848  0.3213 -0.1594 -0.6090
  420MOL0     C56601   2.024   5.672  10.868  0.6657  0.1525 -0.2458
  420MOL0     C56602   1.981   5.757  10.749  0.4799  0.4604  0.0874
  420MOL0     C56603   1.978   5.906  10.772 -0.1263  0.8278  0.1325
  420MOL0     C56604   1.939   5.977  10.640 -0.7509  0.5173 -0.4558
  420MOL0     C56605   1.953   6.129  10.641  0.0325 -1.1322  0.6042
  420MOL0     C56606   1.849   6.195  10.737  0.1164  0.3017 -0.7065
  420MOL0     C56607   1.862   6.347  10.715 -0.1458  0.1375 -0.5449
  420MOL0     C56608   1.765   6.400  10.606 -0.2744  0.1556 -0.0012
  420MOL0    Cl56609   1.792   6.566  10.569  0.1424  0.0129  0.4108
  420MOL0     C56610   2.105   5.324  10.852 -0.6374 -0.3848 -0.7161
  420MOL0     C56611   2.203   5.232  10.808  0.2999 -0.9214 -0.4717
  420MOL0     O56612   2.377   4.987  10.753 -0.2290 -0.1160 -0.8279
  420MOL0     C56613   2.519   4.855  10.564  0.7992 -0.2698  0.6244
  420MOL0     C56614   2.609   4.791  10.482 -0.1132 -0.4880  0.6522
  420MOL0     N56615   2.961   4.489   9.836 -0.3151  0.1687  0.0876
  420MOL0     N56616   3.045   4.466   9.735 -0.2452  0.0690 -0.2826
  420MOL0     C56617   3.986   4.768   9.145  0.4650 -0.3204 -0.0303
  420MOL0     C56618   4.093   4.748   9.057  0.4352 -0.0020  0.0596
  420MOL0     C56619   4.474   4.834   8.826  0.5287  0.1289  0.5002
  420MOL0     C56620   4.453   4.908   8.709  0.1394 -1.4658 -0.0018
  420MOL0     C56621   4.531   4.905   8.599 -0.1241  0.4766  0.8273
  420MOL0     C56622   4.651   4.821   8.606  0.2469  0.2165  0.8503
  420MOL0     O56623   4.735   4.809   8.497 -0.0876 -0.0115 -0.2894
  420MOL0     C56624   4.781   4.942   8.448  0.1479  0.6518 -0.3182
  420MOL0     C56625   4.832   5.032   8.562  0.1353  0.2701 -0.6740
  420MOL0     C56626   4.870   5.168   8.496 -0.1424 -0.0480  0.1022
  420MOL0     C56627   4.873   5.268   8.608 -0.2377 -0.2009 -0.4590
  420MOL0     C56628   4.994   5.239   8.694  0.7085 -0.2496  0.0644
  420MOL0     C56629   5.100   5.229   8.743  0.0103 -0.3008  0.3972
  420MOL0     C56630   4.657   4.727   8.713  0.0904  1.0485 -0.2107
  420MOL0     C56631   4.558   4.724   8.817 -0.0358 -0.0551 -0.2648
  420MOL0     C56632   4.576   4.619   8.931 -1.1890  0.6350  1.2751
  420MOL0     H56633   4.348   4.818   9.270  1.3726 -5.5750  0.3671
  420MOL0     H56634   4.152   4.890   9.416  0.1802 -0.9248  0.3573
  420MOL0     H56635   3.738   4.854   9.246  2.0418  1.8346 -0.9112
  420MOL0     H56636   3.778   4.696   9.323 -1.1969  0.6870 -0.2297
  420MOL0     H56637   3.577   4.816   9.415 -1.4981  1.8574  0.0713
  420MOL0     H56638   3.670   4.959   9.437  4.8270  0.1642 -0.4704
  420MOL0     H56639   3.673   4.857   9.661 -1.1827 -1.7959  1.5330
  420MOL0     H56640   3.825   4.825   9.590  0.4081 -0.2822 -4.5421
  420MOL0     H56641   3.696   4.579   9.518 -1.8302 -0.4449  0.5994
  420MOL0     H56642   3.794   4.613   9.668  1.7553  3.0373  0.7674
  420MOL0     H56643   3.579   4.500   9.710  0.2693  1.0137  3.7518
  420MOL0     H56644   3.584   4.654   9.781  4.0905  2.4521 -1.6232
  420MOL0     H56645   3.421   4.740   9.607  1.6474  1.0301  0.4286
  420MOL0     H56646   3.458   4.606   9.498 -1.7206 -0.1154  0.0333
  420MOL0     H56647   3.337   4.589   9.773 -0.1227  1.8656  0.0837
  420MOL0     H56648   3.343   4.446   9.680 -1.7824  0.2067  0.2016
  420MOL0     H56649   3.218   4.686   9.554 -3.3597 -0.1533 -0.3405
  420MOL0     H56650   3.182   4.515   9.526  3.9865  0.5710 -1.4384
  420MOL0     H56651   3.066   4.788   9.759  2.7939 -0.6591 -2.0242
  420MOL0     H56652   2.953   4.804   9.975 -0.8672  1.1116  1.4005
  420MOL0     H56653   2.801   4.741   9.943  1.1036  0.3526  0.2723
  420MOL0     H56654   2.795   4.627  10.143  0.4751  0.2439  1.9726
  420MOL0     H56655   2.953   4.558  10.125 -2.3035 -2.1764  0.0846
  420MOL0     H56656   3.060   4.784  10.180 -0.4342  1.2212 -0.8280
  420MOL0     H56657   2.984   4.698  10.318  0.7447 -1.7794 -1.2299
  420MOL0     H56658   2.827   4.901  10.163 -0.3438  1.8234 -0.2740
  420MOL0     H56659   2.922   4.939  10.311 -2.4155  0.1900 -0.6668
  420MOL0     H56660   2.742   5.060  10.311  2.3257 -3.8197 -1.0783
  420MOL0     H56661   2.555   5.180  10.449 -0.7642  0.0055  0.2674
  420MOL0     H56662   2.343   5.420  10.567 -0.9509 -1.1402 -1.2030
  420MOL0     H56663   2.193   5.595  10.668 -2.5264 -0.1738 -1.1282
  420MOL0     H56664   1.979   5.703  10.963  0.3275 -1.5875  0.1860
  420MOL0     H56665   2.130   5.692  10.884  1.3060 -3.9107  1.8849
  420MOL0     H56666   2.058   5.745  10.672 -0.0303 -1.0223 -0.2237
  420MOL0     H56667   1.882   5.718  10.721 -0.3138  3.1296 -1.1288
  420MOL0     H56668   1.922   5.933  10.861  0.8299  1.7513  0.4746
  420MOL0     H56669   2.077   5.938  10.807  0.4904 -0.1889 -0.5864
  420MOL0     H56670   1.833   5.953  10.627 -1.0398  0.4078  1.7090
  420MOL0     H56671   2.002   5.941  10.558  0.2346  1.2253 -0.0277
  420MOL0     H56672   1.953   6.162  10.537  0.3131  0.1152  0.9787
  420MOL0     H56673   2.056   6.149  10.673 -0.1754 -0.7531  1.0484
  420MOL0     H56674   1.748   6.155  10.729  1.2689 -4.2869  3.2916
  420MOL0     H56675   1.864   6.163  10.840 -1.3856 -0.8731 -0.8188
  420MOL0     H56676   1.964   6.375  10.687 -0.7648  0.5914 -2.5449
  420MOL0     H56677   1.834   6.394  10.809  1.1346  1.2422 -0.6928
  420MOL0     H56678   1.784   6.344  10.514  2.3553  0.6547  0.1443
  420MOL0     H56679   1.660   6.399  10.634 -0.4503 -2.1376 -0.5388
  420MOL0     H56680   2.032   5.301  10.929  1.3170 -2.5574  0.6217
  420MOL0     H56681   2.203   5.128  10.841  0.4227 -1.5888 -2.4615
  420MOL0     H56682   2.471   4.795  10.640  2.1120 -2.3929 -0.1272
  420MOL0     H56683   2.632   4.685  10.478  3.1895 -0.0255  3.0766
  420MOL0     H56684   3.891   4.737   9.102 -0.8551  1.6739  1.2546
  420MOL0     H56685   4.074   4.712   8.956 -3.3130  1.0859  0.2003
  420MOL0     H56686   4.367   4.974   8.718  0.7364 -0.6876  0.0950
  420MOL0     H56687   4.512   4.968   8.513  1.0990  1.6059  1.3448
  420MOL0     H56688   4.695   4.987   8.397 -0.9469  1.0026  1.7090
  420MOL0     H56689   4.863   4.929   8.378  1.9903  3.0337  1.2370
  420MOL0     H56690   4.924   4.985   8.599 -0.8329 -1.1701  0.0115
  420MOL0     H56691   4.762   5.054   8.643  1.9186 -1.1420  1.3557
  420MOL0     H56692   4.802   5.200   8.418  0.2366 -1.2325 -0.7463
  420MOL0     H56693   4.969   5.162   8.449  0.0933 -0.3512  0.6213
  420MOL0     H56694   4.891   5.373   8.581  1.5843 -0.3672 -0.0330
  420MOL0     H56695   4.780   5.274   8.665  0.7775  0.3342  1.1960
  420MOL0     H56696   5.189   5.218   8.803 -0.2515  0.5536  0.9625
  420MOL0     H56697   4.726   4.643   8.711 -0.8878  0.2481 -0.5095
  420MOL0     H56698   4.621   4.662   9.020 -0.8986  1.3694  0.7787
  420MOL0     H56699   4.479   4.571   8.946 -0.8212 -1.9736 -2.9244
  420MOL0     H56700   4.632   4.533   8.891  0.1734  1.7696  0.6648
  421MOL0     O56701   0.892   7.319   7.783 -0.9484 -0.5414 -0.1832
  421MOL0     C56702   0.783   7.343   7.833  0.2300  0.1592 -0.1906
  421MOL0     O56703   0.765   7.441   7.919 -0.2714  0.0474 -1.2551
  421MOL0     C56704   0.830   7.446   8.044 -0.6961  1.2087  0.4061
  421MOL0     C56705   0.778   7.534   8.136 -0.3013  0.9304 -0.2134
  421MOL0     C56706   0.823   7.534   8.270  0.9456 -0.0657 -0.2966
  421MOL0     C56707   0.914   7.442   8.319 -0.6046 -0.2806 -0.5965
  421MOL0     O56708   0.935   7.447   8.454  0.4546 -0.0044  0.1849
  421MOL0     C56709   1.045   7.363   8.501  0.1842 -0.2640 -0.5799
  421MOL0     C56710   1.051   7.352   8.653 -0.4111 -0.0507  0.2995
  421MOL0     C56711   1.183   7.292   8.690 -0.1069 -0.4641  0.3404
  421MOL0     C56712   1.209   7.145   8.632  0.4028 -0.3375 -0.4028
  421MOL0     C56713   1.323   7.078   8.708 -1.3104 -0.6879  0.2437
  421MOL0     C56714   1.307   6.936   8.679 -0.2689  0.7437  0.4856
  421MOL0     C56715   1.408   6.835   8.749  0.2894  0.7039  0.9386
  421MOL0     C56716   1.351   6.693   8.753  0.7083 -0.1666  0.0604
  421MOL0     N56717   1.352   6.632   8.610 -0.8568 -0.3220 -0.0333
  421MOL0     C56718   1.249   6.624   8.532 -0.8588  0.5152  1.2971
  421MOL0     C56719   1.307   6.585   8.415  1.1983 -0.8131  0.1959
  421MOL0     C56720   1.238   6.562   8.282  1.3208 -0.0528  0.6293
  421MOL0     C56721   1.273   6.427   8.227  0.3716 -0.3257 -0.0740
  421MOL0     C56722   1.279   6.314   8.336 -0.4371  0.2367 -0.6790
  421MOL0     C56723   1.235   6.173   8.287 -0.2901  0.2857 -0.8363
  421MOL0     O56724   1.271   6.094   8.405  0.5261  0.3638 -0.1609
  421MOL0     C56725   1.259   5.953   8.407  0.4095 -0.4981  0.0631
  421MOL0     C56726   1.316   5.878   8.509  0.0729  0.6042  0.3756
  421MOL0     C56727   1.277   5.748   8.529  1.4041 -0.6165 -0.0699
  421MOL0     C56728   1.184   5.690   8.441 -0.1195 -0.0911 -0.5480
  421MOL0     C56729   1.152   5.549   8.463  0.4027 -0.2765  0.0688
  421MOL0     O56730   1.183   5.487   8.587 -0.7386 -0.0389  0.9560
  421MOL0     C56731   1.159   5.353   8.596 -0.2001 -0.3443 -0.1908
  421MOL0     C56732   1.070   5.303   8.697  0.8700 -0.0744  0.8271
  421MOL0     C56733   1.060   5.166   8.720  0.4776 -0.3132  0.4908
  421MOL0     C56734   1.127   5.068   8.644  0.9503  0.3615  0.1342
  421MOL0     O56735   1.115   4.931   8.675 -0.1683  0.0698  0.4932
  421MOL0     C56736   1.203   4.828   8.617 -0.0786  0.1189 -0.3606
  421MOL0     C56737   1.134   4.769   8.497 -0.0954 -0.1365  0.1235
  421MOL0     C56738   1.220   4.656   8.438 -0.2701 -0.3645 -0.9841
  421MOL0     C56739   1.322   4.705   8.338 -0.8035 -1.0109  0.7200
  421MOL0     C56740   1.393   4.584   8.264  0.8214 -0.4014  0.0129
  421MOL0     C56741   1.304   4.539   8.151 -0.3672  0.1943 -0.7729
  421MOL0     C56742   1.376   4.440   8.059 -0.7550  0.1281  0.5573
  421MOL0     C56743   1.286   4.395   7.938  0.6977 -0.4096 -0.4902
  421MOL0    Cl56744   1.343   4.235   7.873 -0.2230 -0.2451  0.3083
  421MOL0     C56745   1.216   5.117   8.549 -0.2516  0.4100  0.1256
  421MOL0     C56746   1.239   5.259   8.533 -0.5019 -0.5611  1.1387
  421MOL0     O56747   1.100   5.495   8.361  0.2770  1.1140 -0.3895
  421MOL0     C56748   1.137   5.763   8.327  0.2238 -0.2138  0.4269
  421MOL0     C56749   1.176   5.891   8.308  0.1853 -0.7409 -0.2888
  421MOL0     N56750   1.437   6.564   8.435 -0.2953  0.8354 -0.3539
  421MOL0     N56751   1.468   6.602   8.553  0.2924  0.1033  0.5917
  421MOL0     C56752   0.982   7.364   8.219 -1.1127  0.0962 -0.2397
  421MOL0     C56753   0.942   7.370   8.085 -0.1139  0.8992  1.0143
  421MOL0     C56754   0.665   7.276   7.771 -0.3355  0.3211  0.5741
  421MOL0     C56755   0.536   7.331   7.804  0.7346 -0.8276  0.2882
  421MOL0     C56756   0.416   7.278   7.755 -0.4235  0.2416  0.7515
  421MOL0     C56757   0.413   7.158   7.686 -0.7296  0.4861 -0.1278
  421MOL0     O56758   0.291   7.102   7.658 -0.1995 -0.1278  0.2034
  421MOL0     C56759   0.277   6.958   7.677  0.3129  0.4687  0.2817
  421MOL0     C56760   0.133   6.922   7.650  0.3607  0.4635  0.2703
  421MOL0     C56761   0.096   6.955   7.508 -0.4349 -0.1222  0.3943
  421MOL0     C56762  -0.038   6.895   7.463 -0.8936  0.0757 -0.3413
  421MOL0     C56763  -0.028   6.746   7.456 -0.3958  0.0294 -0.0978
  421MOL0     C56764  -0.032   6.626   7.434 -0.4097 -0.6973 -0.2620
  421MOL0     C56765   0.534   7.103   7.650 -0.0355  0.2572 -0.6428
  421MOL0     C56766   0.652   7.161   7.683 -0.0374 -0.6429  0.0254
  421MOL0     C56767   0.773   7.094   7.626 -0.0594 -0.0400  0.3731
  421MOL0     H56768   0.687   7.587   8.111 -1.7129 -0.0254  2.5049
  421MOL0     H56769   0.773   7.596   8.345  0.5170 -0.1310 -0.5273
  421MOL0     H56770   1.036   7.261   8.463  0.1797 -0.7857  0.7644
  421MOL0     H56771   1.137   7.394   8.450 -0.4595 -0.3809 -1.8465
  421MOL0     H56772   0.967   7.300   8.700 -1.6471  3.0209  1.7490
  421MOL0     H56773   1.055   7.456   8.689  0.5880 -0.2427  0.7891
  421MOL0     H56774   1.209   7.298   8.796  1.8306  1.9887 -0.1915
  421MOL0     H56775   1.259   7.350   8.638 -0.2987 -3.5531 -3.9368
  421MOL0     H56776   1.114   7.092   8.645 -0.8870  1.7235 -0.9109
  421MOL0     H56777   1.232   7.151   8.526 -0.3106 -1.9289 -0.6667
  421MOL0     H56778   1.416   7.108   8.661 -2.5050  2.0845 -0.5839
  421MOL0     H56779   1.325   7.105   8.814 -0.7953 -0.9723  0.3067
  421MOL0     H56780   1.210   6.900   8.715  0.1687 -0.0157  0.9421
  421MOL0     H56781   1.315   6.932   8.570  0.3008  2.3915  0.4440
  421MOL0     H56782   1.435   6.876   8.846  2.7806 -0.6928  0.9198
  421MOL0     H56783   1.503   6.845   8.695  0.6951  3.5566  2.0123
  421MOL0     H56784   1.412   6.636   8.824 -1.9157 -1.0894  1.7194
  421MOL0     H56785   1.249   6.701   8.794  0.6466 -0.5586 -0.0201
  421MOL0     H56786   1.148   6.662   8.541 -0.8747  1.1727 -0.9696
  421MOL0     H56787   1.130   6.575   8.297  0.1688  0.5038 -5.5058
  421MOL0     H56788   1.260   6.640   8.208 -2.8341 -1.7882 -2.8528
  421MOL0     H56789   1.202   6.413   8.145  0.3733  1.9916 -0.5465
  421MOL0     H56790   1.373   6.438   8.184  0.2577 -1.3343 -0.6311
  421MOL0     H56791   1.204   6.330   8.413 -1.4305  0.8759 -1.7513
  421MOL0     H56792   1.380   6.314   8.380 -0.5843  2.6608 -0.2194
  421MOL0     H56793   1.281   6.129   8.198  2.8452  0.1821  0.7063
  421MOL0     H56794   1.128   6.162   8.270 -0.3428 -1.7466  0.3660
  421MOL0     H56795   1.358   5.922   8.599 -1.1958 -0.1757  1.3794
  421MOL0     H56796   1.306   5.689   8.615 -2.6055 -0.3441  1.6760
  421MOL0     H56797   1.010   5.378   8.748  2.2427  2.6234 -1.2780
  421MOL0     H56798   0.988   5.151   8.800  0.3250  2.4360  0.9526
  421MOL0     H56799   1.306   4.853   8.589 -0.6225  0.3907 -2.2558
  421MOL0     H56800   1.213   4.751   8.694  2.3774  0.2579 -0.4652
  421MOL0     H56801   1.034   4.736   8.526  0.4505 -0.4999  1.6579
  421MOL0     H56802   1.110   4.842   8.418  0.1771 -2.3884 -2.1788
  421MOL0     H56803   1.260   4.589   8.515  1.7632  0.8141 -0.9521
  421MOL0     H56804   1.149   4.595   8.381 -2.6887  0.3113  1.1087
  421MOL0     H56805   1.392   4.760   8.401 -0.8960 -1.6888  1.4247
  421MOL0     H56806   1.281   4.765   8.256  1.0997 -0.3239  0.2322
  421MOL0     H56807   1.405   4.501   8.334 -3.6192 -1.5788 -0.3114
  421MOL0     H56808   1.495   4.616   8.241  1.2040 -1.9381 -0.5023
  421MOL0     H56809   1.227   4.479   8.200 -2.0007  1.2751 -1.9069
  421MOL0     H56810   1.264   4.626   8.097  2.5061  1.0347 -1.7354
  421MOL0     H56811   1.416   4.354   8.113 -0.9764 -0.0006  0.5144
  421MOL0     H56812   1.458   4.487   8.003  1.6215 -2.4794  1.5905
  421MOL0     H56813   1.177   4.395   7.949  0.5499  0.3166 -1.7045
  421MOL0     H56814   1.301   4.473   7.862 -1.2320  1.5927  1.0706
  421MOL0     H56815   1.274   5.052   8.484  0.3399  1.3090 -0.2632
  421MOL0     H56816   1.305   5.291   8.453 -3.7948  1.1163 -1.1503
  421MOL0     H56817   1.073   5.717   8.252  3.0189  1.4536 -3.3497
  421MOL0     H56818   1.141   5.947   8.223 -1.2233 -0.2317  0.6001
  421MOL0     H56819   1.052   7.286   8.246  0.5556  0.8154 -2.1891
  421MOL0     H56820   0.998   7.306   8.018  1.1967  3.2183 -0.2621
  421MOL0     H56821   0.543   7.425   7.859  1.6647  0.5494 -2.0106
  421MOL0     H56822   0.328   7.339   7.774  0.4475  0.9103  3.0837
  421MOL0     H56823   0.293   6.929   7.782 -4.2131 -0.8213  0.8130
  421MOL0     H56824   0.351   6.910   7.612 -1.8036  0.9490 -2.6815
  421MOL0     H56825   0.065   6.987   7.706 -1.1866 -0.2367 -0.7218
  421MOL0     H56826   0.105   6.821   7.680 -2.1878  1.1795  0.5491
  421MOL0     H56827   0.174   6.918   7.441  1.1078 -2.3867  3.2015
  421MOL0     H56828   0.099   7.062   7.487  0.4051 -0.4288 -1.2494
  421MOL0     H56829  -0.120   6.926   7.528 -0.7518  2.6617 -1.2995
  421MOL0     H56830  -0.063   6.929   7.362  2.6183 -1.3528 -1.8789
  421MOL0     H56831  -0.033   6.521   7.417 -1.9512 -0.4173 -2.2614
  421MOL0     H56832   0.535   7.018   7.582 -0.7491 -0.1399 -0.1760
  421MOL0     H56833   0.846   7.160   7.579  1.7997 -0.1627  2.8827
  421MOL0     H56834   0.827   7.049   7.709  1.1949  0.0135 -0.3790
  421MOL0     H56835   0.745   7.018   7.552 -0.4946  1.0259 -0.5909
  422MOL0     O56836   1.800  10.086  11.116 -0.2549 -0.5463 -0.1151
  422MOL0     C56837   1.859  10.042  11.222  0.4646  0.3197  0.2159
  422MOL0     O56838   1.989  10.014  11.224 -0.9672 -0.0723  0.9425
  422MOL0     C56839   2.080  10.094  11.165  0.3526  0.3202  0.2975
  422MOL0     C56840   2.195  10.037  11.117 -1.3881  0.2947  0.5303
  422MOL0     C56841   2.275  10.103  11.033  0.3500  0.3948  0.3468
  422MOL0     C56842   2.260  10.241  11.009 -0.9240 -0.1080 -0.0288
  422MOL0     O56843   2.342  10.310  10.918  0.2229 -0.5387  0.1291
  422MOL0     C56844   2.473  10.257  10.876  0.0017 -0.9807  0.0518
  422MOL0     C56845   2.558  10.371  10.827  0.1012  0.1268 -0.3092
  422MOL0     C56846   2.497  10.422  10.702  0.2569 -0.7483 -1.0852
  422MOL0     C56847   2.575  10.546  10.661 -1.1043  1.0920 -0.0502
  422MOL0     C56848   2.510  10.623  10.543 -0.1043  0.8780 -1.0800
  422MOL0     C56849   2.560  10.761  10.534 -0.4860 -0.4920  0.4562
  422MOL0     C56850   2.495  10.843  10.430  0.4125 -0.1886  0.4719
  422MOL0     C56851   2.516  10.803  10.287  0.2267 -0.1546  0.0310
  422MOL0     N56852   2.474  10.908  10.200  0.2440  0.1977 -0.2196
  422MOL0     C56853   2.437  10.885  10.069  0.9150 -0.7710 -0.0221
  422MOL0     C56854   2.432  11.002  10.005 -0.5943  0.6525 -0.4047
  422MOL0     C56855   2.398  11.020   9.859  0.0893  0.3173 -0.4456
  422MOL0     C56856   2.258  10.970   9.820  0.2124  0.1132 -0.0123
  422MOL0     C56857   2.252  10.970   9.666  0.4059 -0.0715  0.2488
  422MOL0     C56858   2.280  10.829   9.602  0.0376  0.3002 -0.3842
  422MOL0     O56859   2.231  10.838   9.469 -0.5647 -0.7491 -0.5041
  422MOL0     C56860   2.237  10.719   9.400 -0.1025  0.0530 -0.2087
  422MOL0     C56861   2.131  10.640   9.372 -0.1800 -0.3682  1.2170
  422MOL0     C56862   2.147  10.518   9.307 -0.2405  0.8418  1.4172
  422MOL0     C56863   2.272  10.468   9.269  1.1993  0.4170  0.5925
  422MOL0     C56864   2.285  10.343   9.187  0.2058 -0.6896 -0.7419
  422MOL0     O56865   2.180  10.259   9.185  0.4490 -0.3802 -0.1790
  422MOL0     C56866   2.162  10.142   9.116  0.4485 -1.0988 -0.8316
  422MOL0     C56867   2.239  10.105   9.000 -0.4006  0.8418 -0.0843
  422MOL0     C56868   2.208   9.995   8.916 -0.3885  0.7571 -0.7312
  422MOL0     C56869   2.092   9.929   8.952 -0.5976 -0.0220  0.3768
  422MOL0     O56870   2.050   9.815   8.877  0.4291 -0.0251 -0.7510
  422MOL0     C56871   2.088   9.817   8.737  0.0748 -0.5400 -0.5961
  422MOL0     C56872   2.062   9.683   8.660 -0.4477 -0.0222  0.6568
  422MOL0     C56873   1.916   9.653   8.647 -0.6633 -0.3989  0.5965
  422MOL0     C56874   1.893   9.504   8.669 -1.1898  0.6466 -0.8030
  422MOL0     C56875   1.748   9.465   8.692 -1.8613 -0.5824 -0.0015
  422MOL0     C56876   1.742   9.314   8.718  0.7061 -0.3083  1.1233
  422MOL0     C56877   1.715   9.266   8.570 -0.4665  0.1479 -0.0246
  422MOL0     C56878   1.761   9.113   8.565 -0.7852 -0.5640  0.2045
  422MOL0    Cl56879   1.674   9.015   8.687 -0.5674  0.2897  0.2730
  422MOL0     C56880   1.999   9.977   9.049 -0.6114  0.9048 -0.2658
  422MOL0     C56881   2.039  10.078   9.142 -0.3974 -0.1222 -0.1714
  422MOL0     O56882   2.394  10.328   9.125  0.6732  0.2796  0.3063
  422MOL0     C56883   2.380  10.556   9.272 -0.2215  0.0183 -0.5822
  422MOL0     C56884   2.358  10.678   9.345  0.5711  0.2413  0.2118
  422MOL0     N56885   2.456  11.095  10.103  0.0361 -0.2958 -0.4496
  422MOL0     N56886   2.475  11.039  10.215 -1.0737  0.0657  0.2959
  422MOL0     C56887   2.147  10.305  11.067 -0.0477  0.9962  0.5969
  422MOL0     C56888   2.062  10.230  11.135  1.2583  0.0210  0.2546
  422MOL0     C56889   1.785   9.997  11.346 -0.9083 -1.2931 -0.0026
  422MOL0     C56890   1.822   9.867  11.387 -0.2556 -0.3469  0.2898
  422MOL0     C56891   1.762   9.815  11.496 -0.5132  0.0525  0.1059
  422MOL0     C56892   1.669   9.879  11.576 -0.0379  0.0295  0.0989
  422MOL0     O56893   1.614   9.819  11.681  0.0278 -0.0466 -0.5244
  422MOL0     C56894   1.699   9.831  11.807 -0.1589 -0.2410 -0.1384
  422MOL0     C56895   1.644   9.931  11.907  0.5479  0.0926  0.1608
  422MOL0     C56896   1.525   9.866  11.985 -0.1792 -0.0979 -0.3596
  422MOL0     C56897   1.503   9.942  12.122 -0.6349  0.0425  0.4862
  422MOL0     C56898   1.380   9.886  12.183  0.3337 -1.1500 -0.0622
  422MOL0     C56899   1.292   9.830  12.247 -0.0205 -0.0134 -0.3015
  422MOL0     C56900   1.622  10.008  11.527 -0.9193  0.4986  0.8467
  422MOL0     C56901   1.691  10.068  11.416  0.2400 -0.8184 -0.4880
  422MOL0     C56902   1.657  10.209  11.372  0.4047 -0.3274  0.2384
  422MOL0     H56903   2.210   9.930  11.128  0.3560  0.0887 -2.5894
  422MOL0     H56904   2.344  10.052  10.967  0.0046  0.7998 -0.3408
  422MOL0     H56905   2.524  10.207  10.958 -0.6349  0.8233  1.6306
  422MOL0     H56906   2.450  10.181  10.801  0.6612 -1.7059  0.5709
  422MOL0     H56907   2.654  10.321  10.811  0.5492 -0.4976  3.4264
  422MOL0     H56908   2.577  10.452  10.898  1.3522  0.7273 -1.2749
  422MOL0     H56909   2.400  10.457  10.738  1.2643  0.2860  0.8331
  422MOL0     H56910   2.489  10.351  10.620 -2.0061 -0.9692 -0.7397
  422MOL0     H56911   2.595  10.612  10.746  2.2043 -1.0040  0.9764
  422MOL0     H56912   2.677  10.517  10.634 -0.6959  1.5691  0.9581
  422MOL0     H56913   2.514  10.582  10.441  1.9259  1.6911 -1.3824
  422MOL0     H56914   2.403  10.626  10.565 -0.1916 -0.6236 -1.2034
  422MOL0     H56915   2.551  10.805  10.634  3.4749  0.5477  0.5033
  422MOL0     H56916   2.666  10.756  10.508  0.0217 -3.1711  2.6059
  422MOL0     H56917   2.516  10.951  10.434 -0.0875 -0.0475 -0.4501
  422MOL0     H56918   2.387  10.842  10.447  0.1915  2.8176 -0.1566
  422MOL0     H56919   2.624  10.794  10.274  0.8716  3.2362  1.7346
  422MOL0     H56920   2.474  10.706  10.261 -0.5358  0.2029 -0.0954
  422MOL0     H56921   2.434  10.787  10.024  1.7876  0.0337 -1.9489
  422MOL0     H56922   2.417  11.123   9.830  2.4697 -0.5898 -2.5364
  422MOL0     H56923   2.466  10.954   9.804 -2.6103 -1.8815 -1.3896
  422MOL0     H56924   2.248  10.871   9.865 -1.3776 -0.6068 -1.7715
  422MOL0     H56925   2.187  11.046   9.853  2.2807  1.5196  1.3674
  422MOL0     H56926   2.303  11.049   9.610 -3.7001  0.3881 -3.4316
  422MOL0     H56927   2.147  10.992   9.646  1.0799  2.4734 -0.8802
  422MOL0     H56928   2.231  10.749   9.659  1.6724  0.7866  1.7973
  422MOL0     H56929   2.388  10.811   9.595 -0.0576  0.0834 -1.4539
  422MOL0     H56930   2.032  10.654   9.416 -0.7732  0.0016 -0.1974
  422MOL0     H56931   2.059  10.458   9.284  1.6605 -1.3544 -0.5733
  422MOL0     H56932   2.335  10.146   8.971  2.2123 -4.8431 -0.8451
  422MOL0     H56933   2.283   9.970   8.842 -1.1413 -3.7285 -0.2859
  422MOL0     H56934   2.018   9.891   8.698 -0.2888 -0.4411  0.2103
  422MOL0     H56935   2.188   9.855   8.715 -0.4401  1.5868  0.4250
  422MOL0     H56936   2.089   9.704   8.556 -0.7100 -1.8964  0.1766
  422MOL0     H56937   2.116   9.599   8.705 -0.3035 -0.1946  0.1605
  422MOL0     H56938   1.858   9.710   8.720 -2.0680  1.0780 -1.5546
  422MOL0     H56939   1.888   9.681   8.545  0.7826  1.9955  0.7844
  422MOL0     H56940   1.955   9.481   8.756  0.7157  0.4224 -2.1713
  422MOL0     H56941   1.932   9.444   8.587  1.1210 -1.5273  1.6866
  422MOL0     H56942   1.690   9.493   8.604  0.1513  1.8584 -0.6883
  422MOL0     H56943   1.694   9.524   8.767 -0.2353 -2.1514  2.5513
  422MOL0     H56944   1.831   9.259   8.749  0.9607 -1.8013 -1.8612
  422MOL0     H56945   1.654   9.293   8.779 -0.4681  2.0166  0.3729
  422MOL0     H56946   1.778   9.321   8.500  0.3331 -0.3860  0.2620
  422MOL0     H56947   1.609   9.273   8.545 -0.7056 -0.1280  0.8605
  422MOL0     H56948   1.733   9.071   8.468 -4.7374  2.1154 -0.0485
  422MOL0     H56949   1.864   9.105   8.599 -1.3561 -1.2736  1.9006
  422MOL0     H56950   1.894   9.950   9.038  0.1305 -1.3047 -3.6887
  422MOL0     H56951   1.980  10.129   9.218  0.9691 -1.4432  1.8825
  422MOL0     H56952   2.486  10.539   9.253  0.3694  0.4322  1.9341
  422MOL0     H56953   2.450  10.737   9.349  1.4940 -1.1945  1.5010
  422MOL0     H56954   2.118  10.408  11.047 -1.8019 -0.1611 -4.8145
  422MOL0     H56955   1.977  10.275  11.185 -0.1814  0.3072 -2.3018
  422MOL0     H56956   1.887   9.804  11.327 -2.4426 -0.9876 -1.5374
  422MOL0     H56957   1.784   9.713  11.527 -0.6401  0.8392  3.1026
  422MOL0     H56958   1.797   9.871  11.780  0.4138 -1.5855 -0.1112
  422MOL0     H56959   1.717   9.732  11.850 -3.6541 -0.5773  0.9074
  422MOL0     H56960   1.608  10.021  11.858 -0.1472 -0.5958 -0.6138
  422MOL0     H56961   1.726   9.946  11.979 -0.0734 -2.0590  1.4162
  422MOL0     H56962   1.550   9.765  12.018 -1.3121  0.3102  1.9623
  422MOL0     H56963   1.437   9.856  11.920 -1.9312  1.3021  1.6542
  422MOL0     H56964   1.578   9.909  12.194 -0.2566 -0.9776 -0.3449
  422MOL0     H56965   1.501  10.050  12.105  2.1963  0.0834 -0.1118
  422MOL0     H56966   1.200   9.798  12.292 -1.3861  1.9404 -1.5327
  422MOL0     H56967   1.555  10.071  11.585  0.3589  1.9686  0.7919
  422MOL0     H56968   1.591  10.248  11.449  4.4021  1.6594  3.0180
  422MOL0     H56969   1.737  10.283  11.377 -2.5498  3.0546  3.5040
  422MOL0     H56970   1.594  10.213  11.282 -1.2735  1.6755  1.4355
  423MOL0     O56971   0.108   4.429   4.493 -0.8172 -0.0501  0.3621
  423MOL0     C56972   0.088   4.309   4.471  0.2474 -0.0932 -0.0347
  423MOL0     O56973   0.167   4.219   4.395  0.2320  0.1496 -0.3392
  423MOL0     C56974   0.290   4.258   4.356  0.0514  1.0110  0.3356
  423MOL0     C56975   0.389   4.258   4.453 -0.9456  0.3025 -0.3232
  423MOL0     C56976   0.515   4.299   4.433  0.2277 -0.9398  0.2916
  423MOL0     C56977   0.545   4.362   4.315 -0.6510  0.3686  0.9623
  423MOL0     O56978   0.669   4.421   4.308  0.4061 -0.8472 -0.4321
  423MOL0     C56979   0.686   4.545   4.242  0.0754  0.1285  0.3447
  423MOL0     C56980   0.842   4.582   4.228  0.0395  0.2542  0.1081
  423MOL0     C56981   0.866   4.694   4.124 -0.4237  0.7739  0.2745
  423MOL0     C56982   0.799   4.820   4.159  0.1950  0.2408 -1.1389
  423MOL0     C56983   0.850   4.933   4.080  0.1568  0.1643  0.7719
  423MOL0     C56984   0.777   4.938   3.938 -0.2805  0.3499  0.0569
  423MOL0     C56985   0.865   4.992   3.820  0.5472 -0.5728 -0.3609
  423MOL0     C56986   0.868   5.144   3.826  0.4717  0.5699  0.2207
  423MOL0     N56987   0.937   5.183   3.701  0.3662 -0.0880 -0.2043
  423MOL0     C56988   1.061   5.144   3.655  0.2567 -0.2984  0.1185
  423MOL0     C56989   1.096   5.223   3.549 -0.5682  0.6731 -0.2865
  423MOL0     C56990   1.209   5.223   3.469 -0.9770 -0.0975  0.4973
  423MOL0     C56991   1.257   5.365   3.422  0.8219 -0.4006 -0.9404
  423MOL0     C56992   1.308   5.463   3.532  0.7564  0.0771 -0.1510
  423MOL0     C56993   1.195   5.536   3.619  0.2582  0.8685  0.6535
  423MOL0     O56994   1.252   5.636   3.706  0.5195 -0.5775 -1.2258
  423MOL0     C56995   1.161   5.718   3.776 -0.2527 -0.7525  0.2010
  423MOL0     C56996   1.023   5.701   3.763  0.2213 -1.1083 -1.0295
  423MOL0     C56997   0.935   5.807   3.819 -0.4240  0.7830 -0.3221
  423MOL0     C56998   0.988   5.910   3.898 -0.2502 -0.2799 -0.3165
  423MOL0     C56999   0.913   6.011   3.975  0.3373 -0.3772 -0.0166
  423MOL0     O57000   0.783   6.024   3.924 -0.4094  0.0628 -0.1462
  423MOL0     C57001   0.693   6.112   3.975 -0.7390 -0.1640  0.1149
  423MOL0     C57002   0.558   6.083   3.940  0.3455  0.0516  0.2290
  423MOL0     C57003   0.457   6.173   3.979  0.6107  0.0784  1.3925
  423MOL0     C57004   0.483   6.293   4.039  0.3785 -0.8405 -1.0111
  423MOL0     O57005   0.402   6.399   4.059 -0.3349  0.4317  0.2296
  423MOL0     C57006   0.259   6.382   4.068 -0.6814  0.4261  0.3619
  423MOL0     C57007   0.198   6.512   4.118  0.1928 -0.5953  1.0189
  423MOL0     C57008   0.238   6.538   4.264 -0.4892  0.4274  0.6547
  423MOL0     C57009   0.188   6.673   4.321 -1.3195 -0.4137  0.1092
  423MOL0     C57010   0.032   6.682   4.333 -0.0568  0.2092 -0.2398
  423MOL0     C57011  -0.022   6.720   4.470 -0.0615 -0.3835  0.0920
  423MOL0     C57012  -0.174   6.721   4.467  0.0232  0.0967  0.4542
  423MOL0     C57013  -0.231   6.730   4.607  0.4211  0.1630  0.5154
  423MOL0    Cl57014  -0.216   6.903   4.671  0.2903  0.1678 -0.2682
  423MOL0     C57015   0.615   6.324   4.063 -0.1432 -0.0438  0.3251
  423MOL0     C57016   0.720   6.232   4.036 -0.2251 -1.0414 -0.6523
  423MOL0     O57017   0.958   6.078   4.065 -0.3089  0.1235  0.3559
  423MOL0     C57018   1.124   5.923   3.907  0.7702  0.4502  0.5049
  423MOL0     C57019   1.211   5.828   3.843 -0.4829 -0.2634  0.5270
  423MOL0     N57020   0.986   5.309   3.532 -0.2065 -0.6233 -0.7288
  423MOL0     N57021   0.905   5.289   3.627 -0.0155 -0.3085 -0.7863
  423MOL0     C57022   0.449   4.370   4.214  0.2632 -0.2999  0.0068
  423MOL0     C57023   0.322   4.310   4.226  0.6487  0.0242 -0.2754
  423MOL0     C57024  -0.035   4.248   4.523  0.4276 -0.2655  0.0869
  423MOL0     C57025  -0.118   4.164   4.443  0.1315 -0.2690  0.1113
  423MOL0     C57026  -0.226   4.107   4.509 -0.6654  0.0695 -0.6419
  423MOL0     C57027  -0.273   4.136   4.629 -0.4772 -0.6724 -0.4829
  423MOL0     O57028  -0.393   4.088   4.670 -0.4590  0.0947  0.2380
  423MOL0     C57029  -0.410   4.046   4.806 -0.2992 -0.8256  0.2470
  423MOL0     C57030  -0.541   3.977   4.812 -0.8150  0.1638 -0.1961
  423MOL0     C57031  -0.544   3.833   4.745 -0.4098 -0.2420  0.2737
  423MOL0     C57032  -0.669   3.794   4.658 -0.2888 -0.6098  0.0941
  423MOL0     C57033  -0.712   3.872   4.538 -0.0333 -0.9791 -0.2425
  423MOL0     C57034  -0.748   3.938   4.441 -0.6510 -0.8015 -0.2969
  423MOL0     C57035  -0.197   4.225   4.704  0.1500  0.1958 -0.3732
  423MOL0     C57036  -0.081   4.282   4.657 -1.1034 -0.1084 -0.4771
  423MOL0     C57037   0.004   4.359   4.761 -0.6997  0.0925 -0.2705
  423MOL0     H57038   0.361   4.213   4.548 -0.4226  1.5565  0.4524
  423MOL0     H57039   0.592   4.309   4.509  2.9848 -0.2488 -2.4135
  423MOL0     H57040   0.642   4.552   4.142  1.1297  0.0510 -0.1343
  423MOL0     H57041   0.641   4.625   4.303 -0.0223  1.6899 -1.6626
  423MOL0     H57042   0.903   4.499   4.193 -0.2374  0.7812 -1.6874
  423MOL0     H57043   0.875   4.610   4.329 -0.5037 -1.1421  0.6875
  423MOL0     H57044   0.820   4.654   4.033 -1.7156  2.4664  0.1515
  423MOL0     H57045   0.975   4.707   4.122 -0.6144  2.6373 -0.0544
  423MOL0     H57046   0.691   4.821   4.141  0.1371 -3.7259 -1.9725
  423MOL0     H57047   0.817   4.842   4.264 -1.2070  1.4622 -1.1068
  423MOL0     H57048   0.822   5.026   4.130 -1.8141  0.4946 -0.8127
  423MOL0     H57049   0.958   4.927   4.066 -0.1881  0.0877 -3.0889
  423MOL0     H57050   0.760   4.834   3.911 -0.0457 -0.2137  1.9077
  423MOL0     H57051   0.674   4.974   3.944 -0.8901 -0.7658 -2.4575
  423MOL0     H57052   0.812   4.974   3.726 -1.5122  2.1089  0.1607
  423MOL0     H57053   0.960   4.939   3.831  0.7784  0.0539  0.8168
  423MOL0     H57054   0.763   5.173   3.820 -0.0485 -0.6903  2.0718
  423MOL0     H57055   0.929   5.188   3.906  2.6553 -0.9194 -0.5243
  423MOL0     H57056   1.116   5.064   3.703  1.8578  2.0670  2.5493
  423MOL0     H57057   1.287   5.174   3.528 -1.4393  0.1393  1.3224
  423MOL0     H57058   1.211   5.147   3.390 -0.7058  0.7343 -0.3069
  423MOL0     H57059   1.340   5.350   3.353  2.7898  1.2888  0.8994
  423MOL0     H57060   1.173   5.409   3.368 -1.1682 -1.7565  0.8714
  423MOL0     H57061   1.362   5.545   3.485  0.0346  1.9525  2.1055
  423MOL0     H57062   1.379   5.415   3.600  1.1984  0.9179 -0.0008
  423MOL0     H57063   1.151   5.455   3.679  1.5601  0.4484  1.0882
  423MOL0     H57064   1.114   5.576   3.558 -1.2669  0.3726  2.2601
  423MOL0     H57065   0.976   5.625   3.702 -2.5835 -0.8695  0.6458
  423MOL0     H57066   0.828   5.791   3.811  0.0947 -2.6092 -2.5323
  423MOL0     H57067   0.551   5.991   3.882 -2.0087  0.5605 -0.3945
  423MOL0     H57068   0.358   6.152   3.938  0.7412 -2.9165  2.3995
  423MOL0     H57069   0.201   6.354   3.980 -0.5128  2.0215 -0.2884
  423MOL0     H57070   0.241   6.309   4.147  0.5296 -0.1169  0.1519
  423MOL0     H57071   0.223   6.596   4.052 -3.8826  0.9937  1.2086
  423MOL0     H57072   0.090   6.504   4.103  0.3826 -1.0684 -0.1908
  423MOL0     H57073   0.190   6.468   4.333  0.6001 -0.8115  0.1999
  423MOL0     H57074   0.347   6.533   4.267 -0.5599 -0.8703  1.7734
  423MOL0     H57075   0.246   6.752   4.271  2.4661 -3.0311 -0.0484
  423MOL0     H57076   0.222   6.666   4.425  0.3495 -1.6687 -0.4700
  423MOL0     H57077  -0.021   6.595   4.294 -0.7762  0.7644 -0.5183
  423MOL0     H57078   0.001   6.759   4.262 -2.4075 -0.4301  0.0098
  423MOL0     H57079   0.013   6.644   4.541  0.6251  1.1367  1.4350
  423MOL0     H57080   0.017   6.816   4.504  1.5162 -1.6655  2.1159
  423MOL0     H57081  -0.216   6.636   4.413  1.7884  0.6630 -1.9794
  423MOL0     H57082  -0.207   6.814   4.419 -1.2641 -0.3560  0.4231
  423MOL0     H57083  -0.334   6.696   4.603  1.5638 -3.6772 -1.0884
  423MOL0     H57084  -0.191   6.650   4.670 -0.4376 -2.5110 -2.1283
  423MOL0     H57085   0.636   6.428   4.084 -0.5736  0.3935 -1.2921
  423MOL0     H57086   0.822   6.256   4.065  0.1706 -1.6676 -1.4844
  423MOL0     H57087   1.184   6.000   3.953  2.2921  0.8089 -1.9269
  423MOL0     H57088   1.317   5.845   3.859 -0.2734 -0.5478 -0.4704
  423MOL0     H57089   0.470   4.413   4.116  0.1747  2.3484  1.0506
  423MOL0     H57090   0.264   4.321   4.135  2.9822  1.4156 -1.6831
  423MOL0     H57091  -0.072   4.121   4.354  1.6695 -4.2993  2.5560
  423MOL0     H57092  -0.281   4.030   4.455 -0.1238 -1.0708  0.3905
  423MOL0     H57093  -0.402   4.130   4.875 -0.2604 -1.3030  0.8333
  423MOL0     H57094  -0.322   3.984   4.824  1.8622  2.2368  1.0756
  423MOL0     H57095  -0.623   4.031   4.765 -1.7246  1.2513  2.4215
  423MOL0     H57096  -0.562   3.958   4.918 -0.5137 -0.2837 -0.2149
  423MOL0     H57097  -0.541   3.761   4.826  0.5401 -1.2856 -0.6532
  423MOL0     H57098  -0.447   3.822   4.696 -0.9110  0.8970 -1.0543
  423MOL0     H57099  -0.648   3.693   4.621  2.3620 -0.0065 -0.2641
  423MOL0     H57100  -0.758   3.780   4.720  0.2968  4.3102  2.5255
  423MOL0     H57101  -0.789   3.996   4.361  1.0198  2.8890  1.2511
  423MOL0     H57102  -0.229   4.250   4.805  1.5422  1.4434 -0.1918
  423MOL0     H57103   0.022   4.464   4.736  4.6192 -0.4020  0.4625
  423MOL0     H57104  -0.048   4.352   4.857  1.5441 -1.2046  0.9234
  423MOL0     H57105   0.099   4.307   4.772  0.1205  1.4460 -0.8072
  424MOL0     O57106  11.067   7.458   3.290  0.0688 -0.3759  0.2638
  424MOL0     C57107  11.067   7.537   3.196 -1.2336  0.6659  0.2975
  424MOL0     O57108  11.068   7.505   3.062 -0.4795  0.4538 -0.0472
  424MOL0     C57109  11.062   7.378   3.015 -0.3600  0.6009  0.0492
  424MOL0     C57110  11.108   7.262   3.075  0.7612  0.2571 -1.1663
  424MOL0     C57111  11.107   7.137   3.011 -0.4670  0.3956  0.1980
  424MOL0     C57112  11.063   7.121   2.870  0.6581 -0.8821  0.2795
  424MOL0     O57113  11.040   7.011   2.794 -0.6179 -0.0781 -0.3995
  424MOL0     C57114  11.092   6.890   2.855  0.4814 -0.0317 -0.3270
  424MOL0     C57115  11.106   6.790   2.747 -0.6065  0.7042  0.0390
  424MOL0     C57116  11.151   6.652   2.785 -0.2242  0.1479 -0.0784
  424MOL0     C57117  11.035   6.590   2.864  0.4762  0.2819 -0.2727
  424MOL0     C57118  11.058   6.445   2.899 -0.6183 -0.5520 -0.5277
  424MOL0     C57119  11.049   6.362   2.770 -0.5754  0.2986  0.5351
  424MOL0     C57120  10.928   6.376   2.670 -0.2655 -0.1257 -0.8191
  424MOL0     C57121  10.803   6.339   2.741 -0.3979  0.3498 -0.5220
  424MOL0     N57122  10.700   6.304   2.646  0.6976 -0.2976 -0.0268
  424MOL0     C57123  10.685   6.181   2.596 -0.4478 -0.1964 -0.9269
  424MOL0     C57124  10.577   6.195   2.511 -0.3934  0.3297 -0.2513
  424MOL0     C57125  10.524   6.084   2.435 -0.0302 -0.0839  0.4164
  424MOL0     C57126  10.630   6.002   2.363 -0.0460  0.5383 -0.3710
  424MOL0     C57127  10.719   6.078   2.261 -0.6544  0.9795 -0.0636
  424MOL0     C57128  10.829   5.976   2.206  1.4810 -0.5682 -0.1875
  424MOL0     O57129  10.777   5.892   2.101 -0.6265 -0.6802  0.2589
  424MOL0     C57130  10.837   5.774   2.067  0.2094 -0.3320 -0.2559
  424MOL0     C57131  10.771   5.704   1.958  0.0612  1.0097 -0.6082
  424MOL0     C57132  10.827   5.591   1.911 -0.0037  0.2409 -0.5078
  424MOL0     C57133  10.955   5.545   1.951 -0.3503  0.0456  0.0038
  424MOL0     C57134  11.031   5.429   1.888  0.8564 -0.8179  0.5407
  424MOL0     O57135  10.945   5.330   1.847 -0.8196 -0.1821 -0.2496
  424MOL0     C57136  11.004   5.211   1.803  0.2988 -0.1129  0.3990
  424MOL0     C57137  11.073   5.221   1.694  0.1623 -0.0320  1.3864
  424MOL0     C57138  11.130   5.106   1.644 -0.4621 -0.1094  0.4754
  424MOL0     C57139  11.113   4.985   1.715 -0.6668  0.7636 -0.2630
  424MOL0     O57140  11.192   4.882   1.667 -0.0551  0.0031  0.0127
  424MOL0     C57141  11.325   4.899   1.697  0.4087  1.1827  0.0078
  424MOL0     C57142  11.343   4.860   1.841 -1.1378  0.0738  0.2278
  424MOL0     C57143  11.486   4.883   1.904 -0.4361 -0.5318  0.8433
  424MOL0     C57144  11.534   5.031   1.903 -0.6824 -0.2624 -0.0582
  424MOL0     C57145  11.671   5.078   1.966  0.7507 -0.0739 -0.7990
  424MOL0     C57146  11.786   5.028   1.872  0.2486  0.3261 -0.3410
  424MOL0     C57147  11.915   5.103   1.899 -0.4713  0.0192  1.0771
  424MOL0     C57148  12.018   5.072   1.794  0.4260  0.2748 -1.1831
  424MOL0    Cl57149  12.174   5.149   1.821 -0.0082 -0.1816 -0.0824
  424MOL0     C57150  11.036   4.973   1.830 -0.3854 -0.4200 -0.4698
  424MOL0     C57151  10.985   5.090   1.874  0.4672  0.1381 -0.4460
  424MOL0     O57152  11.157   5.423   1.885 -0.1480 -0.1669  0.7181
  424MOL0     C57153  11.011   5.606   2.067 -0.3227 -0.2528 -0.0522
  424MOL0     C57154  10.950   5.720   2.122 -0.5048 -0.2940 -0.1779
  424MOL0     N57155  10.536   6.330   2.511  1.2304 -0.1726 -0.0842
  424MOL0     N57156  10.605   6.395   2.602  0.6867 -0.1269 -0.0442
  424MOL0     C57157  11.019   7.243   2.806  0.3120  0.4760 -0.5885
  424MOL0     C57158  11.011   7.360   2.875  0.7677  0.0932 -1.1369
  424MOL0     C57159  11.049   7.682   3.226 -0.3303 -0.1028 -0.6304
  424MOL0     C57160  10.995   7.769   3.125  0.3026  0.1931 -0.2269
  424MOL0     C57161  11.007   7.906   3.133 -0.1533 -0.1100 -0.7700
  424MOL0     C57162  11.039   7.964   3.256 -0.6725 -0.2051 -1.9101
  424MOL0     O57163  11.021   8.100   3.278  0.1184  0.0399  0.1027
  424MOL0     C57164  11.122   8.199   3.239  0.5239 -0.4051 -0.2824
  424MOL0     C57165  11.264   8.187   3.307 -0.0702 -0.0309 -0.2196
  424MOL0     C57166  11.269   8.205   3.457 -0.7721 -0.6531 -0.7215
  424MOL0     C57167  11.410   8.244   3.508  1.9023 -0.9359 -1.4503
  424MOL0     C57168  11.405   8.240   3.659 -0.8080  1.3039  0.7628
  424MOL0     C57169  11.413   8.241   3.778 -0.6178 -0.2112 -1.3964
  424MOL0     C57170  11.070   7.883   3.361  0.3979  0.8886  0.8006
  424MOL0     C57171  11.082   7.739   3.353  0.9243 -0.4360 -0.0671
  424MOL0     C57172  11.109   7.659   3.478 -0.9329 -0.0786 -0.3509
  424MOL0     H57173  11.143   7.271   3.178  1.6599 -0.8208 -1.3590
  424MOL0     H57174  11.131   7.043   3.058 -3.3904 -1.7033 -2.1065
  424MOL0     H57175  11.190   6.906   2.900 -0.1716 -0.6345  1.4083
  424MOL0     H57176  11.025   6.845   2.928  0.8044 -2.8237 -1.6346
  424MOL0     H57177  11.195   6.823   2.693 -0.2476 -1.7036 -0.9803
  424MOL0     H57178  11.015   6.792   2.687 -0.3467 -1.1600 -0.4729
  424MOL0     H57179  11.244   6.667   2.841 -0.0377 -0.2844 -0.2649
  424MOL0     H57180  11.187   6.602   2.694 -0.5270  5.7752 -3.7654
  424MOL0     H57181  11.041   6.654   2.953  1.1717 -0.2825  0.0956
  424MOL0     H57182  10.937   6.594   2.816  0.2681 -1.9100 -0.1041
  424MOL0     H57183  11.155   6.435   2.948 -1.1619  0.8425  0.9186
  424MOL0     H57184  10.984   6.413   2.973 -0.1364 -1.4884 -0.4526
  424MOL0     H57185  11.137   6.396   2.715 -3.7832  3.0729 -3.4001
  424MOL0     H57186  11.063   6.258   2.799  1.5161  0.1656 -0.7563
  424MOL0     H57187  10.950   6.309   2.586 -2.0084  1.5912 -2.7699
  424MOL0     H57188  10.905   6.477   2.635 -4.4966 -1.3834 -2.3314
  424MOL0     H57189  10.821   6.253   2.805 -0.5012 -0.1904 -1.2073
  424MOL0     H57190  10.764   6.421   2.804 -2.5864 -0.3084 -0.9179
  424MOL0     H57191  10.753   6.097   2.608 -1.1391 -0.5123  1.1534
  424MOL0     H57192  10.474   6.024   2.512  0.6506  0.9337  1.6923
  424MOL0     H57193  10.460   6.110   2.351 -0.5555 -0.0082  0.8358
  424MOL0     H57194  10.695   5.969   2.444  0.7690  0.3333 -1.0974
  424MOL0     H57195  10.568   5.927   2.314 -0.7976  1.4436 -0.8628
  424MOL0     H57196  10.777   6.158   2.309 -0.2558 -1.0614  3.1528
  424MOL0     H57197  10.665   6.118   2.175  0.4684  1.9300 -0.3573
  424MOL0     H57198  10.874   5.913   2.284  1.3423  0.9244  1.1385
  424MOL0     H57199  10.912   6.032   2.162  1.2296  1.5057  1.7965
  424MOL0     H57200  10.674   5.733   1.917  0.5801  1.1822 -1.7458
  424MOL0     H57201  10.778   5.531   1.835  4.7436 -3.8459 -0.8677
  424MOL0     H57202  11.096   5.315   1.646 -0.2752 -0.1898  0.8608
  424MOL0     H57203  11.195   5.106   1.557 -0.1117 -0.2037  0.7338
  424MOL0     H57204  11.386   4.840   1.628 -1.5316  0.5706 -1.2781
  424MOL0     H57205  11.345   5.007   1.699  0.4297  1.1765  0.1630
  424MOL0     H57206  11.275   4.906   1.914 -0.2289 -1.3133  2.0515
  424MOL0     H57207  11.327   4.752   1.842  3.3009 -0.8117 -1.4526
  424MOL0     H57208  11.482   4.860   2.011 -1.7776  0.8819  1.1399
  424MOL0     H57209  11.556   4.818   1.851 -1.3524 -1.3911  0.6612
  424MOL0     H57210  11.457   5.088   1.956  1.3317 -0.3818  3.2424
  424MOL0     H57211  11.532   5.072   1.801 -1.0875  0.3459  0.1862
  424MOL0     H57212  11.688   5.021   2.058  1.0328 -0.6769 -1.2155
  424MOL0     H57213  11.672   5.187   1.974  0.3705 -0.1206 -0.0382
  424MOL0     H57214  11.812   4.923   1.888  1.3447  0.3754 -1.6617
  424MOL0     H57215  11.750   5.027   1.768 -2.8877 -2.4019  0.5756
  424MOL0     H57216  11.957   5.083   1.998 -0.4527 -0.0252  1.0609
  424MOL0     H57217  11.910   5.212   1.891 -2.3907 -0.1834 -4.0885
  424MOL0     H57218  12.023   4.965   1.776 -1.5515 -0.1651  0.4751
  424MOL0     H57219  11.988   5.109   1.695 -2.1085 -1.8917 -1.3262
  424MOL0     H57220  11.015   4.873   1.867 -3.4376  0.6069  0.9339
  424MOL0     H57221  10.930   5.089   1.968  0.8501  4.2735  0.0123
  424MOL0     H57222  11.106   5.572   2.108 -0.4143  0.0495  0.4183
  424MOL0     H57223  10.981   5.787   2.201 -2.4446  2.4042 -1.5602
  424MOL0     H57224  10.987   7.228   2.703 -0.1716 -1.8748 -0.1639
  424MOL0     H57225  10.979   7.450   2.823  2.1486  1.7547  0.7053
  424MOL0     H57226  10.936   7.734   3.041 -1.1429 -1.6947  1.4552
  424MOL0     H57227  10.980   7.971   3.050  3.0278  0.8319 -1.1870
  424MOL0     H57228  11.079   8.295   3.266  0.1560 -0.8041  0.5759
  424MOL0     H57229  11.133   8.203   3.130 -0.5529 -1.7171 -0.4696
  424MOL0     H57230  11.332   8.254   3.253  1.0210 -0.9404 -0.0118
  424MOL0     H57231  11.286   8.082   3.290  2.5166  0.5068 -0.5598
  424MOL0     H57232  11.231   8.112   3.500  1.3628 -1.0627  0.4444
  424MOL0     H57233  11.200   8.285   3.484  0.3220  0.2259 -0.4533
  424MOL0     H57234  11.495   8.183   3.477  2.3226 -0.8530 -0.5104
  424MOL0     H57235  11.430   8.348   3.482 -0.8361  0.5508  1.6180
  424MOL0     H57236  11.420   8.240   3.885 -0.3245  0.0915 -1.4076
  424MOL0     H57237  11.078   7.923   3.461  0.6685  0.9172  0.7675
  424MOL0     H57238  11.025   7.592   3.502 -0.8069  0.2620  1.1074
  424MOL0     H57239  11.195   7.593   3.460  0.8237  0.8418  3.5814
  424MOL0     H57240  11.135   7.717   3.567  3.5190 -2.7748  0.4264
  425MOL0     O57241   8.700   7.621   9.748 -0.0937 -0.8216  0.3385
  425MOL0     C57242   8.684   7.512   9.794  0.7828  0.5691  0.0300
  425MOL0     O57243   8.563   7.458   9.812  0.7125  0.3273  0.1421
  425MOL0     C57244   8.449   7.513   9.777  0.2640  0.1618 -0.0360
  425MOL0     C57245   8.432   7.612   9.682 -0.0314  0.1641  0.6693
  425MOL0     C57246   8.306   7.669   9.651 -0.4815  0.7052  0.4637
  425MOL0     C57247   8.192   7.615   9.699 -0.7458  0.2474 -0.5713
  425MOL0     O57248   8.078   7.667   9.658 -0.6743 -0.1645 -0.8979
  425MOL0     C57249   7.948   7.601   9.666  0.1188  0.4913 -0.0029
  425MOL0     C57250   7.957   7.470   9.582  0.0169  0.8361  0.1035
  425MOL0     C57251   7.943   7.498   9.431 -0.8111 -0.3415 -0.5853
  425MOL0     C57252   7.790   7.508   9.403 -0.3649 -0.3129 -0.0266
  425MOL0     C57253   7.761   7.547   9.256 -0.7327 -0.2456 -0.3012
  425MOL0     C57254   7.629   7.633   9.247 -0.2580  0.2281  0.2893
  425MOL0     C57255   7.588   7.664   9.107 -0.4807 -0.1223 -0.9384
  425MOL0     C57256   7.456   7.742   9.107 -0.8262 -0.3057  0.0993
  425MOL0     N57257   7.408   7.760   8.966 -0.9507 -0.6073 -0.6285
  425MOL0     C57258   7.407   7.660   8.874  1.1795 -0.6875 -0.9791
  425MOL0     C57259   7.388   7.726   8.755  0.6058  0.0624 -0.3231
  425MOL0     C57260   7.377   7.672   8.620  0.0617 -0.2595 -0.2911
  425MOL0     C57261   7.246   7.675   8.552  0.2919  0.4924 -0.4047
  425MOL0     C57262   7.143   7.799   8.574 -0.0518  0.6248  1.1817
  425MOL0     C57263   7.062   7.776   8.695  0.4248 -1.0900 -0.9740
  425MOL0     O57264   6.967   7.876   8.703  0.1261  0.0728 -0.5159
  425MOL0     C57265   6.846   7.854   8.781 -0.4334 -1.1677  0.9267
  425MOL0     C57266   6.847   7.809   8.917  1.3694  0.2894  0.5229
  425MOL0     C57267   6.718   7.794   8.985 -0.7981 -0.3700 -0.1025
  425MOL0     C57268   6.596   7.834   8.924 -0.1378  0.0135 -0.4031
  425MOL0     C57269   6.457   7.821   8.991 -0.0151  0.2333 -0.0919
  425MOL0     O57270   6.344   7.862   8.920 -0.5052 -0.1688  0.3628
  425MOL0     C57271   6.230   7.856   8.997 -0.1056 -0.6619 -0.5293
  425MOL0     C57272   6.215   7.937   9.112 -0.5207 -0.9053  0.2721
  425MOL0     C57273   6.112   7.918   9.209 -0.3385 -0.3936 -1.1257
  425MOL0     C57274   6.012   7.818   9.185  0.2870  0.6930  0.0223
  425MOL0     O57275   5.899   7.799   9.259 -0.4340 -0.0583  0.4138
  425MOL0     C57276   5.919   7.837   9.398  0.4419 -0.6778  0.1157
  425MOL0     C57277   5.813   7.795   9.498 -0.0674  0.2028 -0.6790
  425MOL0     C57278   5.810   7.644   9.526 -0.5971 -0.1767  0.0673
  425MOL0     C57279   5.710   7.561   9.440  1.0281  0.3673  0.2490
  425MOL0     C57280   5.712   7.413   9.464 -0.7970  0.0212 -0.8137
  425MOL0     C57281   5.666   7.381   9.606 -0.0946  0.1898 -0.4611
  425MOL0     C57282   5.676   7.236   9.653  0.5550 -0.0311  0.1544
  425MOL0     C57283   5.584   7.144   9.577 -0.0128 -0.1317 -0.2811
  425MOL0    Cl57284   5.543   6.999   9.670  0.2345 -0.3873 -0.2671
  425MOL0     C57285   6.027   7.738   9.069 -0.2715 -0.4425 -1.2545
  425MOL0     C57286   6.133   7.759   8.974  0.3620  0.6191 -0.6535
  425MOL0     O57287   6.461   7.774   9.106  0.6345  0.0745 -0.1000
  425MOL0     C57288   6.606   7.890   8.789 -0.1947  0.1603 -0.9331
  425MOL0     C57289   6.729   7.901   8.723  0.0022 -0.4340 -0.6162
  425MOL0     N57290   7.382   7.862   8.784  0.2666 -0.2078  0.1755
  425MOL0     N57291   7.393   7.879   8.910  1.0119  0.1065 -0.1512
  425MOL0     C57292   8.203   7.504   9.788 -0.2207 -0.6073 -0.0503
  425MOL0     C57293   8.331   7.448   9.823 -0.0296  0.1509 -0.7508
  425MOL0     C57294   8.797   7.432   9.851 -0.3128 -0.5661  0.3971
  425MOL0     C57295   8.766   7.315   9.929  0.4421 -0.2851  1.0821
  425MOL0     C57296   8.863   7.237   9.987 -0.7862 -1.4797 -0.0408
  425MOL0     C57297   8.994   7.273   9.967 -0.5149 -0.7323  0.1359
  425MOL0     O57298   9.090   7.208  10.040  0.1687  0.2304 -0.1016
  425MOL0     C57299   9.164   7.279  10.137  0.4826 -0.6678  0.1160
  425MOL0     C57300   9.175   7.203  10.265 -0.1100 -0.0638  0.7565
  425MOL0     C57301   9.256   7.079  10.226 -0.0453 -1.0347  0.0609
  425MOL0     C57302   9.282   7.000  10.359 -0.0120  0.0621 -0.2489
  425MOL0     C57303   9.382   7.054  10.455 -0.8255 -0.5724 -0.0983
  425MOL0     C57304   9.444   7.096  10.553 -0.1510  0.5577 -0.8048
  425MOL0     C57305   9.039   7.375   9.880 -0.8077  0.8541 -0.3129
  425MOL0     C57306   8.940   7.453   9.822  0.9358  0.1179 -0.4472
  425MOL0     C57307   8.990   7.564   9.727  1.1630  0.7748  1.1856
  425MOL0     H57308   8.514   7.650   9.622 -0.0929 -1.1387 -0.3035
  425MOL0     H57309   8.308   7.755   9.585  0.5370  1.1749  1.0781
  425MOL0     H57310   7.921   7.581   9.770 -0.0928 -0.2871 -0.1945
  425MOL0     H57311   7.863   7.660   9.629 -1.1512 -1.7319 -0.8674
  425MOL0     H57312   7.866   7.414   9.606 -0.5188 -0.1035 -3.5113
  425MOL0     H57313   8.050   7.416   9.604 -1.2249 -1.5674 -0.2239
  425MOL0     H57314   7.969   7.404   9.381 -1.8909  0.0962 -2.0447
  425MOL0     H57315   8.000   7.585   9.399 -0.3130 -0.8324 -1.0503
  425MOL0     H57316   7.734   7.419   9.433 -2.3643 -0.1391 -2.8545
  425MOL0     H57317   7.746   7.586   9.466 -1.2221 -1.3227  0.6665
  425MOL0     H57318   7.844   7.595   9.204  0.8005 -0.5182  1.7702
  425MOL0     H57319   7.739   7.449   9.213  0.0549 -0.0585 -1.1638
  425MOL0     H57320   7.561   7.577   9.311  2.4748 -1.1461  2.1886
  425MOL0     H57321   7.638   7.729   9.299  0.6370  0.0755  0.4411
  425MOL0     H57322   7.582   7.565   9.061  0.0324 -0.7364  0.2654
  425MOL0     H57323   7.670   7.720   9.061  0.5045 -0.3048  0.4877
  425MOL0     H57324   7.385   7.694   9.175  0.5363 -0.0263  1.8044
  425MOL0     H57325   7.471   7.843   9.144  0.7411 -0.1421 -0.8802
  425MOL0     H57326   7.406   7.555   8.902 -2.1393 -0.0012  2.2016
  425MOL0     H57327   7.434   7.739   8.556  0.0722  0.7963  0.7875
  425MOL0     H57328   7.420   7.571   8.627 -3.4237 -1.9999 -1.8599
  425MOL0     H57329   7.268   7.660   8.446  2.2138 -1.2364  0.1780
  425MOL0     H57330   7.203   7.578   8.578  1.9816 -0.2743 -0.3781
  425MOL0     H57331   7.066   7.802   8.497 -0.8388  1.9787  1.9632
  425MOL0     H57332   7.188   7.899   8.568 -4.2701  2.7509  1.1811
  425MOL0     H57333   7.120   7.774   8.788 -2.0502 -2.2209  0.6571
  425MOL0     H57334   7.008   7.681   8.691  0.5046 -1.2113  0.2827
  425MOL0     H57335   6.947   7.787   8.953  1.0719  1.5063  2.2306
  425MOL0     H57336   6.712   7.763   9.089  1.7596  0.5911  0.4154
  425MOL0     H57337   6.285   8.018   9.132 -0.0052 -1.1327 -0.5717
  425MOL0     H57338   6.099   7.989   9.290 -0.4584  0.6223 -2.0279
  425MOL0     H57339   6.013   7.815   9.448 -0.9323 -0.9091  2.7365
  425MOL0     H57340   5.926   7.946   9.395  0.6756 -0.6752  0.6595
  425MOL0     H57341   5.832   7.853   9.588  0.6306  0.6214 -1.0865
  425MOL0     H57342   5.715   7.833   9.466 -0.3911  0.0312  0.0986
  425MOL0     H57343   5.909   7.603   9.507  0.7024  3.4397 -1.6343
  425MOL0     H57344   5.784   7.636   9.632 -1.8439 -0.3340 -0.2330
  425MOL0     H57345   5.725   7.570   9.332 -3.9830  0.9422 -0.6625
  425MOL0     H57346   5.612   7.608   9.454  0.4274 -1.2175  1.6735
  425MOL0     H57347   5.816   7.379   9.459 -0.6561  0.5361 -1.4716
  425MOL0     H57348   5.653   7.360   9.390 -2.6282 -1.9504  1.8541
  425MOL0     H57349   5.725   7.435   9.680 -1.7230  1.6915 -0.1761
  425MOL0     H57350   5.563   7.417   9.616  0.5397  1.7633  0.7682
  425MOL0     H57351   5.650   7.221   9.758 -3.3503  2.1185 -0.3337
  425MOL0     H57352   5.784   7.219   9.639  0.4408 -1.1842  0.6141
  425MOL0     H57353   5.486   7.184   9.548 -0.6883 -3.7530 -3.7050
  425MOL0     H57354   5.627   7.117   9.481  2.2900 -1.9260  1.1509
  425MOL0     H57355   5.948   7.668   9.046  0.3261 -1.4103 -0.4047
  425MOL0     H57356   6.137   7.699   8.884  0.4930 -1.7186  0.8174
  425MOL0     H57357   6.519   7.935   8.742 -0.6474 -0.1331 -0.3993
  425MOL0     H57358   6.738   7.942   8.623 -1.5312  4.0277  0.8179
  425MOL0     H57359   8.121   7.450   9.833  0.9404 -1.3677  1.2408
  425MOL0     H57360   8.331   7.369   9.897 -2.7191  3.1582  2.8813
  425MOL0     H57361   8.665   7.285   9.955 -0.5859  0.6550 -1.4566
  425MOL0     H57362   8.826   7.154  10.045  0.3868 -2.7674 -1.0583
  425MOL0     H57363   9.116   7.376  10.150 -0.4484 -0.5291 -3.2612
  425MOL0     H57364   9.263   7.310  10.101  0.5008 -0.6798  0.1554
  425MOL0     H57365   9.077   7.174  10.305  0.0976 -2.4004 -0.2807
  425MOL0     H57366   9.235   7.264  10.333  0.5791 -0.3566  0.4114
  425MOL0     H57367   9.344   7.103  10.165 -2.1515  0.7210 -2.4798
  425MOL0     H57368   9.192   7.018  10.162 -1.2446 -0.0523  0.2904
  425MOL0     H57369   9.189   7.001  10.416  0.4722  2.1497  0.6095
  425MOL0     H57370   9.308   6.897  10.335  3.6446  1.0866 -1.4755
  425MOL0     H57371   9.485   7.119  10.649 -1.2400 -2.7541  0.6130
  425MOL0     H57372   9.144   7.395   9.861 -0.9052  1.6854  0.0020
  425MOL0     H57373   8.953   7.548   9.625  2.3235 -0.0752  0.8739
  425MOL0     H57374   8.955   7.666   9.748 -2.2450 -0.1945  0.9015
  425MOL0     H57375   9.099   7.572   9.736  1.0970  1.2266  1.6267
  426MOL0     O57376   5.273   9.041   8.357  0.3290 -0.8118  0.3722
  426MOL0     C57377   5.261   8.984   8.250 -0.0547 -0.4696  0.6971
  426MOL0     O57378   5.161   8.994   8.157  0.9709 -0.7456  0.6574
  426MOL0     C57379   5.037   9.037   8.181 -0.1163 -0.1556 -0.9153
  426MOL0     C57380   4.983   9.042   8.310 -0.6132 -0.3633 -0.7038
  426MOL0     C57381   4.854   9.086   8.324  1.2452 -0.6770 -0.2951
  426MOL0     C57382   4.776   9.114   8.207  0.3806  0.0813  0.1430
  426MOL0     O57383   4.646   9.157   8.198 -0.0036  0.4453 -0.5292
  426MOL0     C57384   4.576   9.200   8.317  0.9765 -0.4096  0.3545
  426MOL0     C57385   4.486   9.322   8.297 -0.0712  1.2724  0.3076
  426MOL0     C57386   4.552   9.453   8.265 -0.9346  0.1370  1.0561
  426MOL0     C57387   4.638   9.506   8.376  0.8979  0.7723  0.3004
  426MOL0     C57388   4.659   9.650   8.345 -0.3628 -0.4271  0.1812
  426MOL0     C57389   4.547   9.756   8.385 -0.8755  0.5822 -0.0711
  426MOL0     C57390   4.601   9.905   8.377 -0.3774 -0.2278 -0.8247
  426MOL0     C57391   4.496  10.000   8.418  0.1053 -1.2702 -0.2507
  426MOL0     N57392   4.554  10.137   8.437 -0.0464  0.2088 -1.2634
  426MOL0     C57393   4.619  10.175   8.553 -0.4576 -0.0824  0.1562
  426MOL0     C57394   4.660  10.304   8.525 -0.4520 -0.0497  1.0766
  426MOL0     C57395   4.755  10.383   8.618  0.4245  0.5638 -0.4876
  426MOL0     C57396   4.866  10.454   8.527  0.3922  0.7299  0.5736
  426MOL0     C57397   4.810  10.598   8.485  0.6232  0.3983 -0.3351
  426MOL0     C57398   4.917  10.688   8.440  0.1912  0.2669 -0.0561
  426MOL0     O57399   5.030  10.703   8.531  0.1934 -0.6273  0.1116
  426MOL0     C57400   5.008  10.768   8.659 -1.1952 -0.1180  1.1287
  426MOL0     C57401   4.888  10.826   8.698  0.5445  0.3310  0.2583
  426MOL0     C57402   4.881  10.896   8.819  1.1898 -0.2824  0.1476
  426MOL0     C57403   5.001  10.911   8.900 -0.0722  0.5930 -0.5108
  426MOL0     C57404   5.004  10.990   9.029 -0.0772  0.2469  0.3964
  426MOL0     O57405   5.126  10.996   9.097  0.2361 -0.6325  0.5547
  426MOL0     C57406   5.147  11.067   9.213  0.3624  0.7611 -0.0357
  426MOL0     C57407   5.050  11.118   9.300  0.6045 -0.0607  0.7535
  426MOL0     C57408   5.088  11.180   9.423 -0.0114 -0.6992 -0.1219
  426MOL0     C57409   5.228  11.192   9.453  1.0610 -0.1924 -0.5441
  426MOL0     O57410   5.267  11.249   9.572  0.8093 -0.9592 -0.0143
  426MOL0     C57411   5.283  11.162   9.686 -0.2802 -0.1884  0.3696
  426MOL0     C57412   5.146  11.110   9.736  0.6745  1.1146  1.0593
  426MOL0     C57413   5.049  11.216   9.773 -0.1351 -0.5863  0.1863
  426MOL0     C57414   5.051  11.226   9.932  0.3894  1.0873  0.5333
  426MOL0     C57415   4.963  11.330   9.990 -0.7142 -0.4686  0.6102
  426MOL0     C57416   4.924  11.302  10.135 -1.1010  0.7045  0.3541
  426MOL0     C57417   5.044  11.297  10.233  0.0886  0.1968  0.2103
  426MOL0     C57418   5.053  11.154  10.292 -0.5361  0.0031  0.0298
  426MOL0    Cl57419   5.169  11.160  10.421  0.5399 -0.1774  0.0754
  426MOL0     C57420   5.321  11.139   9.358  0.6597  0.6244  0.5253
  426MOL0     C57421   5.276  11.076   9.246 -0.8782  0.1028 -0.7454
  426MOL0     O57422   4.909  11.057   9.054 -0.1170 -0.0082 -0.5505
  426MOL0     C57423   5.116  10.851   8.863  0.4359 -0.0223 -0.2309
  426MOL0     C57424   5.119  10.778   8.745  0.0998  0.0760  0.4496
  426MOL0     N57425   4.630  10.330   8.389 -0.4137  0.7087 -0.6295
  426MOL0     N57426   4.580  10.221   8.339 -0.1271  0.1535 -1.2765
  426MOL0     C57427   4.823   9.090   8.076 -0.2542 -0.0883 -0.2868
  426MOL0     C57428   4.958   9.047   8.063  0.4610 -0.0487  0.4721
  426MOL0     C57429   5.378   8.912   8.204 -0.0866 -0.3089 -0.6331
  426MOL0     C57430   5.393   8.906   8.065 -0.1304 -0.7827 -0.0830
  426MOL0     C57431   5.504   8.849   8.013 -0.3503  0.4647 -0.4792
  426MOL0     C57432   5.576   8.753   8.081  0.2059  0.0856  0.3659
  426MOL0     O57433   5.672   8.677   8.031 -0.3582 -0.0156  0.0464
  426MOL0     C57434   5.636   8.542   8.017 -0.4456  0.2635  0.0908
  426MOL0     C57435   5.613   8.459   8.143 -0.5770 -0.4409 -0.3596
  426MOL0     C57436   5.748   8.437   8.226  0.4841  0.0591 -0.0025
  426MOL0     C57437   5.724   8.342   8.344 -0.1763  1.4038 -0.0943
  426MOL0     C57438   5.718   8.414   8.467  1.8438 -0.4718  0.9399
  426MOL0     C57439   5.710   8.492   8.560  0.4601 -0.4411  0.8591
  426MOL0     C57440   5.558   8.757   8.214 -0.7245  0.2637 -0.2244
  426MOL0     C57441   5.466   8.839   8.287  0.4171 -0.1281 -0.1871
  426MOL0     C57442   5.470   8.828   8.433 -0.4805 -0.1694 -0.2030
  426MOL0     H57443   5.031   9.008   8.401  0.5249  1.5173 -0.5343
  426MOL0     H57444   4.808   9.074   8.422  1.1777  1.5589 -0.0103
  426MOL0     H57445   4.507   9.119   8.343  0.9553 -0.2637  0.7480
  426MOL0     H57446   4.651   9.223   8.392  0.8813 -2.3829  1.1034
  426MOL0     H57447   4.424   9.334   8.386 -1.4649 -0.6665 -0.3391
  426MOL0     H57448   4.410   9.298   8.222  1.3701 -0.9708 -0.5030
  426MOL0     H57449   4.466   9.516   8.242  0.0756  1.6070  1.1985
  426MOL0     H57450   4.611   9.436   8.174 -0.6192  0.5819  1.1734
  426MOL0     H57451   4.587   9.502   8.472 -0.3379  0.4824 -0.3410
  426MOL0     H57452   4.730   9.447   8.374  1.1718  1.0515  2.3115
  426MOL0     H57453   4.753   9.677   8.393  0.4443  0.6350 -1.8588
  426MOL0     H57454   4.682   9.673   8.240  2.3302  2.3890  1.2535
  426MOL0     H57455   4.458   9.753   8.322 -1.9611  0.7708  1.3951
  426MOL0     H57456   4.519   9.732   8.488  3.6033 -1.0837  0.9766
  426MOL0     H57457   4.640   9.929   8.277  2.0831 -1.8446 -0.3669
  426MOL0     H57458   4.680   9.913   8.453 -1.7006  1.7462  0.4132
  426MOL0     H57459   4.428   9.993   8.332 -1.3033 -0.4316  0.7430
  426MOL0     H57460   4.447   9.969   8.510 -0.1184 -0.2293 -0.0019
  426MOL0     H57461   4.637  10.129   8.649  4.0462  3.8289  1.5605
  426MOL0     H57462   4.696  10.459   8.669  1.8204  2.0720 -1.0557
  426MOL0     H57463   4.811  10.321   8.688 -1.8512  1.1499  2.0284
  426MOL0     H57464   4.955  10.463   8.590  0.5936  0.6559  0.2986
  426MOL0     H57465   4.883  10.397   8.435  0.5152  2.2363 -0.3588
  426MOL0     H57466   4.764  10.640   8.575  3.9475 -0.5535  2.0209
  426MOL0     H57467   4.730  10.583   8.413 -2.2613 -2.7806  3.1554
  426MOL0     H57468   4.882  10.789   8.413 -0.7487  0.1405  0.6567
  426MOL0     H57469   4.955  10.646   8.346 -0.4236 -0.3729 -0.0232
  426MOL0     H57470   4.798  10.836   8.639  0.5804  0.2543  0.1898
  426MOL0     H57471   4.785  10.935   8.854  2.2334  1.6860  0.9809
  426MOL0     H57472   4.943  11.115   9.286  0.6810  0.0991  0.0889
  426MOL0     H57473   5.021  11.229   9.492  1.6457 -1.0012  1.7971
  426MOL0     H57474   5.347  11.076   9.663 -0.5964 -1.3241  3.3441
  426MOL0     H57475   5.337  11.213   9.766  2.5276 -0.5969 -1.1113
  426MOL0     H57476   5.105  11.050   9.655  2.4896 -0.4927  1.2587
  426MOL0     H57477   5.159  11.040   9.819  0.2993  1.6000  1.5368
  426MOL0     H57478   5.067  11.309   9.719  0.0483 -0.0902  1.0785
  426MOL0     H57479   4.945  11.186   9.759 -0.7729  0.6281  1.9729
  426MOL0     H57480   5.157  11.240   9.955  0.8943 -0.7973 -0.3604
  426MOL0     H57481   5.016  11.135   9.981 -0.8326  1.9715  1.3388
  426MOL0     H57482   4.869  11.341   9.934 -0.8551 -0.6291  0.8103
  426MOL0     H57483   5.016  11.425   9.987 -1.0900 -0.2476 -2.8019
  426MOL0     H57484   4.861  11.389  10.156 -1.9100  1.2038 -3.3670
  426MOL0     H57485   4.863  11.211  10.142  1.5111 -1.3943 -1.9096
  426MOL0     H57486   5.018  11.365  10.315  0.0851  1.8023 -1.0710
  426MOL0     H57487   5.140  11.328  10.191 -0.3664  0.6552 -0.5180
  426MOL0     H57488   4.952  11.128  10.324 -1.3489  2.3200 -0.4136
  426MOL0     H57489   5.078  11.089  10.208 -0.8144 -2.0866  1.4894
  426MOL0     H57490   5.425  11.132   9.387  0.8153 -4.5622 -0.2828
  426MOL0     H57491   5.353  11.033   9.183 -0.2102 -0.1112  0.1900
  426MOL0     H57492   5.211  10.855   8.915  1.6635 -1.6206 -2.1901
  426MOL0     H57493   5.217  10.738   8.718  1.0666 -0.0869  3.6860
  426MOL0     H57494   4.762   9.108   7.988 -2.5437  1.9415  1.5769
  426MOL0     H57495   5.000   9.030   7.965 -1.5547 -0.1412 -0.4110
  426MOL0     H57496   5.328   8.958   7.996  1.1278 -1.4249 -1.8439
  426MOL0     H57497   5.529   8.856   7.907  0.6592  0.5440 -0.2438
  426MOL0     H57498   5.715   8.490   7.962 -1.3273  0.0572 -1.0395
  426MOL0     H57499   5.554   8.543   7.944 -1.2296 -1.8202  0.8529
  426MOL0     H57500   5.582   8.359   8.112 -2.2011 -1.0057  2.6680
  426MOL0     H57501   5.541   8.505   8.211 -0.2003  0.1882 -0.3750
  426MOL0     H57502   5.791   8.531   8.260 -2.4829  1.7933 -0.7117
  426MOL0     H57503   5.810   8.397   8.145 -0.7157  0.8526 -1.3697
  426MOL0     H57504   5.641   8.274   8.323  1.2987 -0.5652  0.1878
  426MOL0     H57505   5.811   8.280   8.362 -0.1427  0.8398 -1.9808
  426MOL0     H57506   5.717   8.565   8.637 -0.9169  1.6051 -0.8271
  426MOL0     H57507   5.632   8.704   8.273 -1.0714 -0.7100 -0.6315
  426MOL0     H57508   5.562   8.789   8.478  0.2794  2.1001  0.3829
  426MOL0     H57509   5.456   8.923   8.486  1.5577  0.5366 -0.8263
  426MOL0     H57510   5.390   8.758   8.457 -0.7871 -1.0757 -3.3688
  427MOL0     O57511   6.577   6.038  11.257 -0.7130  0.3512 -0.3876
  427MOL0     C57512   6.497   6.128  11.234  0.9460  0.0506 -1.0410
  427MOL0     O57513   6.503   6.250  11.296 -0.2654  0.6890 -0.1559
  427MOL0     C57514   6.607   6.269  11.382 -0.4456 -0.7134 -0.3911
  427MOL0     C57515   6.601   6.246  11.521 -0.4165 -0.2446  0.2145
  427MOL0     C57516   6.721   6.258  11.596  0.4784  0.8217  0.2422
  427MOL0     C57517   6.840   6.287  11.536  0.0384 -0.0945  0.3867
  427MOL0     O57518   6.956   6.295  11.606  0.9901  0.2428  0.1944
  427MOL0     C57519   7.046   6.189  11.561  0.7210  0.1201 -0.5456
  427MOL0     C57520   7.186   6.196  11.646  0.0717  0.1339  0.7138
  427MOL0     C57521   7.176   6.111  11.777  0.1498 -0.0096  1.0005
  427MOL0     C57522   7.135   6.196  11.896 -0.1975 -0.6322  0.1285
  427MOL0     C57523   7.104   6.114  12.022 -0.3864  0.3326  1.1776
  427MOL0     C57524   7.045   6.195  12.135  0.3560 -1.2008 -0.3666
  427MOL0     C57525   7.138   6.320  12.166  0.2038  0.0214 -0.6105
  427MOL0     C57526   7.087   6.386  12.290 -1.1568 -0.2028 -0.3868
  427MOL0     N57527   7.177   6.488  12.341 -0.5723 -0.4502 -0.1875
  427MOL0     C57528   7.311   6.487  12.367 -0.9911 -0.2082 -0.1103
  427MOL0     C57529   7.345   6.615  12.390  0.2049 -0.2790  0.7570
  427MOL0     C57530   7.470   6.685  12.413  0.8079 -0.3988 -0.6132
  427MOL0     C57531   7.593   6.594  12.441  0.6373 -0.2612  0.0621
  427MOL0     C57532   7.698   6.666  12.526  0.0119 -1.1767  0.4484
  427MOL0     C57533   7.800   6.571  12.579  0.0442 -0.8683 -0.3807
  427MOL0     O57534   7.894   6.533  12.482 -0.3184  0.1978 -0.2459
  427MOL0     C57535   8.009   6.468  12.517 -0.6227 -0.4083  0.3192
  427MOL0     C57536   8.044   6.447  12.649 -0.2441  0.8221 -0.6212
  427MOL0     C57537   8.182   6.427  12.689 -0.6493  0.1929 -0.1151
  427MOL0     C57538   8.279   6.407  12.583 -0.7999 -0.5128 -1.3089
  427MOL0     C57539   8.424   6.393  12.621 -0.5873 -0.3975  0.5886
  427MOL0     O57540   8.460   6.440  12.749 -0.1243 -0.3109  1.0016
  427MOL0     C57541   8.582   6.423  12.798 -0.7179  0.5601 -0.4222
  427MOL0     C57542   8.649   6.299  12.806  0.5112 -0.6428  0.4544
  427MOL0     C57543   8.786   6.282  12.855  0.0743 -0.9407 -0.3997
  427MOL0     C57544   8.854   6.398  12.909  0.5743 -0.5455  1.4171
  427MOL0     O57545   8.984   6.384  12.948  0.0551 -0.1421 -0.1937
  427MOL0     C57546   9.069   6.300  12.873  0.7518  0.6735 -0.4725
  427MOL0     C57547   9.211   6.331  12.908  0.6369  0.1095  0.6349
  427MOL0     C57548   9.244   6.281  13.045  0.3200  0.0310 -0.1562
  427MOL0     C57549   9.391   6.249  13.050  0.7696 -1.3678  0.2029
  427MOL0     C57550   9.414   6.177  13.183 -0.7969  0.4155  0.5225
  427MOL0     C57551   9.561   6.122  13.183 -0.5528  0.0313  0.5907
  427MOL0     C57552   9.669   6.228  13.156 -0.2046 -0.0952 -0.0088
  427MOL0     C57553   9.809   6.166  13.132  0.3055  0.5576  0.9951
  427MOL0    Cl57554   9.933   6.296  13.131 -0.2092 -0.1060  0.0838
  427MOL0     C57555   8.781   6.521  12.909  0.0096  0.0816 -0.1886
  427MOL0     C57556   8.649   6.529  12.861 -0.0809 -0.6693 -0.2129
  427MOL0     O57557   8.487   6.323  12.542 -0.6762  0.0091  0.4124
  427MOL0     C57558   8.241   6.426  12.449 -0.8269  0.0448 -0.2120
  427MOL0     C57559   8.110   6.463  12.422  0.7143 -0.0028  0.7819
  427MOL0     N57560   7.220   6.683  12.386 -0.3585 -0.0602 -0.2231
  427MOL0     N57561   7.122   6.612  12.350 -0.0634  1.0605 -0.2498
  427MOL0     C57562   6.844   6.328  11.400 -0.0216  0.9172  0.0268
  427MOL0     C57563   6.731   6.308  11.327 -0.3797  0.6584 -0.4937
  427MOL0     C57564   6.378   6.085  11.155  0.1337 -0.4233  0.2981
  427MOL0     C57565   6.304   6.192  11.104  0.0106 -0.6023  0.4106
  427MOL0     C57566   6.188   6.166  11.025 -0.5770 -1.2704  0.6189
  427MOL0     C57567   6.161   6.041  10.970 -0.7602  0.9822 -0.1468
  427MOL0     O57568   6.048   6.009  10.889  0.0142  0.3134 -1.0410
  427MOL0     C57569   6.067   6.078  10.762  0.4256  0.3599  0.5437
  427MOL0     C57570   5.960   6.019  10.665  0.0650 -0.2956  0.5158
  427MOL0     C57571   5.942   6.103  10.543  0.1153 -0.7769  1.4661
  427MOL0     C57572   5.835   6.047  10.436 -0.3200  0.0050  0.1401
  427MOL0     C57573   5.818   6.145  10.323  0.2951  0.2007  0.0136
  427MOL0     C57574   5.803   6.218  10.228 -0.0706 -0.6359  0.6491
  427MOL0     C57575   6.234   5.935  11.018 -1.1548  0.0805  0.1257
  427MOL0     C57576   6.340   5.954  11.112 -0.1773 -0.8686  0.1621
  427MOL0     C57577   6.423   5.834  11.146  0.2636 -0.7177  0.7370
  427MOL0     H57578   6.518   6.201  11.575 -0.5161  1.4081  1.4910
  427MOL0     H57579   6.706   6.235  11.701  1.0192 -1.9264 -0.2063
  427MOL0     H57580   7.001   6.090  11.568  3.2600 -1.0576  0.3840
  427MOL0     H57581   7.078   6.220  11.460 -0.9202  3.4925 -0.1670
  427MOL0     H57582   7.205   6.302  11.666  2.7358  0.1800 -1.4955
  427MOL0     H57583   7.268   6.150  11.591 -0.3772  1.9983 -1.6798
  427MOL0     H57584   7.265   6.056  11.807 -1.6988 -2.2324  2.8030
  427MOL0     H57585   7.098   6.035  11.764  1.7938 -1.5854  0.0534
  427MOL0     H57586   7.206   6.279  11.902 -0.0609 -0.5013 -2.2706
  427MOL0     H57587   7.040   6.246  11.872  0.5863  1.6014  1.3943
  427MOL0     H57588   7.040   6.031  11.989  0.5593  0.4039 -0.9380
  427MOL0     H57589   7.199   6.065  12.041 -0.8743 -2.1956 -2.1399
  427MOL0     H57590   6.948   6.236  12.105  1.5706  0.0169 -3.1130
  427MOL0     H57591   7.054   6.129  12.221  1.1303 -1.4753 -0.6532
  427MOL0     H57592   7.150   6.387  12.080 -2.0757  0.6337 -0.5256
  427MOL0     H57593   7.239   6.282  12.183  0.6279  1.2929 -0.1674
  427MOL0     H57594   6.985   6.422  12.271 -1.5069  1.7566  4.0814
  427MOL0     H57595   7.070   6.317  12.373 -3.4452  0.4589 -0.2474
  427MOL0     H57596   7.377   6.402  12.380 -1.5869 -0.6490  0.0799
  427MOL0     H57597   7.493   6.760  12.337 -0.3436  3.9747  2.9083
  427MOL0     H57598   7.453   6.747  12.502 -0.4863 -1.0016 -0.4223
  427MOL0     H57599   7.565   6.498  12.486 -1.0565  0.4168  0.5483
  427MOL0     H57600   7.626   6.567  12.340 -0.0927 -1.0873  0.0385
  427MOL0     H57601   7.652   6.718  12.611 -0.4301 -0.3149 -0.2971
  427MOL0     H57602   7.744   6.749  12.472  2.2725 -2.2913  0.5657
  427MOL0     H57603   7.765   6.483  12.634 -1.2803 -1.0653 -1.4600
  427MOL0     H57604   7.852   6.622  12.660 -1.8029 -1.6423  1.3699
  427MOL0     H57605   7.971   6.448  12.730  1.5438 -0.8314  1.1116
  427MOL0     H57606   8.199   6.404  12.794  3.2315 -0.7560 -0.8288
  427MOL0     H57607   8.597   6.208  12.776  0.3243 -1.0364  1.8977
  427MOL0     H57608   8.837   6.187  12.865  0.5056 -0.7450 -0.6763
  427MOL0     H57609   9.045   6.194  12.882 -1.2257  1.2559  2.5561
  427MOL0     H57610   9.057   6.332  12.769  1.2819 -0.4358 -0.8913
  427MOL0     H57611   9.264   6.270  12.833 -1.9359 -1.3025 -0.1677
  427MOL0     H57612   9.237   6.437  12.902  0.5721  0.2962  3.0446
  427MOL0     H57613   9.202   6.354  13.115 -1.4561 -0.2332 -0.8748
  427MOL0     H57614   9.192   6.187  13.065  1.1830 -0.4678 -0.2564
  427MOL0     H57615   9.440   6.346  13.039 -0.2507 -0.7097  1.1622
  427MOL0     H57616   9.416   6.189  12.962  1.3635  1.5649 -1.7943
  427MOL0     H57617   9.355   6.087  13.197  0.3721 -0.5306 -0.4679
  427MOL0     H57618   9.396   6.239  13.272  0.2254  3.1593 -1.0333
  427MOL0     H57619   9.577   6.072  13.279  0.5596 -2.3073 -0.7194
  427MOL0     H57620   9.581   6.034  13.121  0.7829 -0.9073  2.2561
  427MOL0     H57621   9.684   6.309  13.228  2.8182 -0.4121 -0.1508
  427MOL0     H57622   9.647   6.278  13.062 -0.1909  0.0838  0.0822
  427MOL0     H57623   9.830   6.096  13.213  2.0344  1.8450  1.7073
  427MOL0     H57624   9.801   6.119  13.033 -0.4976  2.5746  0.0414
  427MOL0     H57625   8.830   6.612  12.944  1.9412 -0.6267 -0.9575
  427MOL0     H57626   8.600   6.625  12.871  1.9148  0.3004  0.8662
  427MOL0     H57627   8.305   6.412  12.362  0.0559  1.7911  0.1061
  427MOL0     H57628   8.083   6.492  12.321  2.3156 -3.7026 -0.8879
  427MOL0     H57629   6.935   6.368  11.358 -1.2253  1.2608 -2.5009
  427MOL0     H57630   6.735   6.310  11.218  0.5852  0.0166 -0.4882
  427MOL0     H57631   6.329   6.290  11.142 -0.7408  0.4767 -1.7493
  427MOL0     H57632   6.115   6.242  10.997  0.2917 -0.5535  0.2309
  427MOL0     H57633   6.171   6.063  10.731 -0.2817  0.4008 -2.1721
  427MOL0     H57634   6.041   6.184  10.771 -1.1942 -0.0536  1.1791
  427MOL0     H57635   5.868   6.009  10.723  1.0016  4.0600  3.2158
  427MOL0     H57636   5.997   5.919  10.640 -1.0100 -0.7739  0.7734
  427MOL0     H57637   6.044   6.123  10.511  0.5081  3.4944  4.4990
  427MOL0     H57638   5.894   6.199  10.565 -2.7228 -1.1313 -2.1196
  427MOL0     H57639   5.866   5.953  10.389 -1.1080 -0.0574 -0.2653
  427MOL0     H57640   5.748   6.027  10.499  1.1560 -2.2723  1.6309
  427MOL0     H57641   5.784   6.272  10.138 -0.3035 -2.9993 -0.8002
  427MOL0     H57642   6.198   5.835  10.993 -1.2960  0.5150 -1.4611
  427MOL0     H57643   6.447   5.830  11.252 -0.6070  1.4651  1.0671
  427MOL0     H57644   6.366   5.745  11.119  1.1523 -0.7961 -1.0057
  427MOL0     H57645   6.518   5.842  11.093 -0.4950 -2.3003 -0.9792
  428MOL0     O57646   2.165   2.830  10.849 -0.4352  0.0552  0.8019
  428MOL0     C57647   2.189   2.794  10.963  1.3284  0.5167  0.2493
  428MOL0     O57648   2.306   2.776  11.030 -0.0709  0.2726 -0.5113
  428MOL0     C57649   2.419   2.781  10.952  0.1966 -0.5238 -0.1248
  428MOL0     C57650   2.479   2.906  10.926 -0.3936  0.4726  0.3760
  428MOL0     C57651   2.589   2.916  10.835  0.9271  0.1545  0.2642
  428MOL0     C57652   2.634   2.804  10.768  1.2417 -0.6413  0.6863
  428MOL0     O57653   2.749   2.822  10.689 -0.0938 -0.1963  0.8596
  428MOL0     C57654   2.809   2.708  10.632 -0.6555 -0.2148  0.0953
  428MOL0     C57655   2.952   2.736  10.593  0.2882  0.0629  0.4858
  428MOL0     C57656   3.013   2.618  10.513 -0.4561 -0.0281  0.2210
  428MOL0     C57657   2.957   2.604  10.376  0.4864  0.9685  0.4125
  428MOL0     C57658   3.019   2.485  10.302 -0.1015  0.1183 -0.2604
  428MOL0     C57659   3.020   2.511  10.155 -0.4712  0.3091 -0.1572
  428MOL0     C57660   3.111   2.411  10.088 -0.2191  0.3755 -0.5482
  428MOL0     C57661   3.046   2.278  10.089  0.4372 -0.2137  0.3022
  428MOL0     N57662   3.096   2.193   9.984 -0.0967  0.0161 -0.3986
  428MOL0     C57663   3.227   2.157   9.967 -0.3072  0.1761  0.1627
  428MOL0     C57664   3.243   2.097   9.853 -0.1710  0.7424 -0.4909
  428MOL0     C57665   3.360   2.032   9.799  0.1087 -0.5831 -0.0563
  428MOL0     C57666   3.450   2.122   9.707  1.2513 -0.6888 -0.1265
  428MOL0     C57667   3.505   2.046   9.585  1.0022  0.3561 -0.5378
  428MOL0     C57668   3.607   1.933   9.628 -0.1454 -0.2323 -0.6344
  428MOL0     O57669   3.654   1.857   9.519 -0.4961 -0.3429  0.0545
  428MOL0     C57670   3.776   1.795   9.527  0.7272 -0.3057  0.1316
  428MOL0     C57671   3.788   1.696   9.424  0.7286 -0.7548  0.6512
  428MOL0     C57672   3.910   1.640   9.401 -0.6660 -0.5137  0.7586
  428MOL0     C57673   4.019   1.657   9.480 -1.2364 -0.6027  0.4162
  428MOL0     C57674   4.150   1.603   9.432 -0.4374 -0.6288 -0.4752
  428MOL0     O57675   4.258   1.643   9.499  0.4307 -0.4436  0.6362
  428MOL0     C57676   4.383   1.592   9.485 -0.0217 -0.0557 -0.1200
  428MOL0     C57677   4.457   1.590   9.604 -0.2797  0.8556 -0.0242
  428MOL0     C57678   4.600   1.570   9.609  0.3633  0.4890  0.1684
  428MOL0     C57679   4.666   1.543   9.494 -0.8228 -0.0006 -0.6405
  428MOL0     O57680   4.797   1.519   9.498  0.1608  1.3480 -0.0122
  428MOL0     C57681   4.834   1.370   9.497 -0.6909 -0.4678  0.6340
  428MOL0     C57682   4.824   1.295   9.632  0.7763 -0.1393  0.0527
  428MOL0     C57683   4.904   1.372   9.734 -1.7025 -0.1226 -0.5916
  428MOL0     C57684   4.845   1.348   9.875 -0.6213  0.2467 -0.6297
  428MOL0     C57685   4.914   1.433   9.982 -0.2426 -1.0579 -0.6195
  428MOL0     C57686   4.852   1.574   9.985  0.5314  0.0595 -0.5816
  428MOL0     C57687   4.892   1.634  10.123 -0.2611 -0.4244 -0.0911
  428MOL0     C57688   5.042   1.695  10.138  0.7962 -0.3046 -0.5142
  428MOL0    Cl57689   5.089   1.754  10.292 -0.2556 -0.2205  0.2707
  428MOL0     C57690   4.591   1.532   9.371  0.2356 -0.5628 -0.1513
  428MOL0     C57691   4.452   1.555   9.366  0.7068  0.2392  0.9187
  428MOL0     O57692   4.155   1.543   9.327  0.9031  0.1887 -0.0751
  428MOL0     C57693   4.004   1.744   9.591 -0.1145 -0.0667  0.6293
  428MOL0     C57694   3.885   1.822   9.603 -0.8035  0.3795 -0.8467
  428MOL0     N57695   3.121   2.113   9.787 -0.7764  0.5188  0.9289
  428MOL0     N57696   3.036   2.168   9.866  0.0368 -0.5302  0.1299
  428MOL0     C57697   2.559   2.680  10.779 -0.0526  0.3126 -0.1408
  428MOL0     C57698   2.461   2.667  10.877  0.4825  0.2747  0.8289
  428MOL0     C57699   2.069   2.796  11.058 -0.5396  0.4163 -0.3912
  428MOL0     C57700   2.083   2.847  11.192 -0.1838  0.7920 -0.1526
  428MOL0     C57701   1.988   2.823  11.286  0.1365 -0.1668  0.1995
  428MOL0     C57702   1.873   2.753  11.252  1.2068 -0.2344  0.6093
  428MOL0     O57703   1.781   2.740  11.359 -0.1858  0.2051  0.7802
  428MOL0     C57704   1.655   2.668  11.343  0.0826 -0.7153  0.7252
  428MOL0     C57705   1.559   2.690  11.458 -0.1448 -0.4330 -0.2954
  428MOL0     C57706   1.593   2.602  11.585  0.8038  0.6982  0.2246
  428MOL0     C57707   1.502   2.630  11.709  0.2822 -0.6155  0.2355
  428MOL0     C57708   1.512   2.776  11.730 -0.4213  0.2704 -0.0627
  428MOL0     C57709   1.512   2.898  11.747  0.1666  0.9124 -0.0957
  428MOL0     C57710   1.846   2.711  11.126 -0.1360  0.6956  0.2058
  428MOL0     C57711   1.951   2.725  11.023  0.2043 -0.2023 -0.1214
  428MOL0     C57712   1.926   2.653  10.894  0.4690 -1.1448 -0.1765
  428MOL0     H57713   2.445   2.983  10.995 -2.1145 -1.0443  1.3119
  428MOL0     H57714   2.638   3.009  10.808 -1.7341  2.0408  1.4898
  428MOL0     H57715   2.813   2.620  10.697  1.7305 -1.0207 -1.0342
  428MOL0     H57716   2.751   2.682  10.543  0.4210  2.4096 -1.4952
  428MOL0     H57717   3.000   2.742  10.691  0.6838 -1.6930  0.4251
  428MOL0     H57718   2.955   2.834  10.543 -0.1025 -0.3862 -0.4499
  428MOL0     H57719   2.984   2.525  10.562  0.1979 -0.3394  0.0318
  428MOL0     H57720   3.122   2.626  10.520 -0.3036 -1.5085 -0.0847
  428MOL0     H57721   2.849   2.592  10.370  0.5462  0.8800 -0.7797
  428MOL0     H57722   2.975   2.697  10.321  0.1974  0.7680 -0.0216
  428MOL0     H57723   3.122   2.490  10.338 -0.1559  0.5290 -0.1586
  428MOL0     H57724   2.972   2.388  10.321  0.2284  0.1043  0.5166
  428MOL0     H57725   2.917   2.510  10.117  0.4310  1.0499 -2.8745
  428MOL0     H57726   3.051   2.613  10.131 -0.9614  0.7349  0.9693
  428MOL0     H57727   3.206   2.402  10.141 -1.9200  0.2304  2.7501
  428MOL0     H57728   3.133   2.461   9.993  0.1422  3.0920  0.8644
  428MOL0     H57729   3.058   2.219  10.180  0.1150 -1.0543 -0.1925
  428MOL0     H57730   2.938   2.285  10.073  0.1894 -1.6502  1.1939
  428MOL0     H57731   3.308   2.156  10.040  0.3812 -1.3329 -0.5624
  428MOL0     H57732   3.410   1.976   9.878  0.6237 -0.2612 -0.1537
  428MOL0     H57733   3.320   1.950   9.739 -1.2498 -0.7432  1.0101
  428MOL0     H57734   3.384   2.203   9.674  0.5515 -0.8520  0.8427
  428MOL0     H57735   3.541   2.154   9.757  0.8382 -1.0977  0.9200
  428MOL0     H57736   3.536   2.111   9.502 -0.8483 -1.3735 -2.7342
  428MOL0     H57737   3.411   2.010   9.542 -0.2421  2.0065  0.6621
  428MOL0     H57738   3.566   1.870   9.707  1.6363 -1.7380 -0.8379
  428MOL0     H57739   3.682   1.992   9.682 -0.9382 -1.7106  2.2262
  428MOL0     H57740   3.704   1.688   9.357  1.8860 -1.5184 -0.7653
  428MOL0     H57741   3.905   1.579   9.312 -1.4262  0.3670  0.1862
  428MOL0     H57742   4.395   1.613   9.690 -2.1415  1.7533 -1.5228
  428MOL0     H57743   4.661   1.570   9.698 -1.1115 -1.3431  1.2610
  428MOL0     H57744   4.789   1.315   9.414 -0.3927  0.9320 -0.5009
  428MOL0     H57745   4.939   1.371   9.464 -0.7818  0.8001  0.3249
  428MOL0     H57746   4.720   1.288   9.665  1.1563  3.2575  2.3548
  428MOL0     H57747   4.855   1.194   9.602 -0.5276  0.5493 -4.4291
  428MOL0     H57748   5.002   1.324   9.725 -1.0840  0.7918  0.8854
  428MOL0     H57749   4.896   1.479   9.714  0.9670  0.0689 -1.0589
  428MOL0     H57750   4.861   1.242   9.895 -0.0139  0.1282 -1.6594
  428MOL0     H57751   4.742   1.383   9.876 -0.3255  1.1515  0.4575
  428MOL0     H57752   5.022   1.442   9.968  0.5523 -2.7508  3.2968
  428MOL0     H57753   4.897   1.388  10.080  0.1002 -4.3886 -1.9524
  428MOL0     H57754   4.867   1.646   9.904 -0.9426  1.5075  0.3660
  428MOL0     H57755   4.745   1.554   9.999  1.2130 -3.0023  1.0964
  428MOL0     H57756   4.883   1.556  10.199  1.1659  0.2706  0.8322
  428MOL0     H57757   4.828   1.720  10.148 -0.7946 -1.1790  1.2478
  428MOL0     H57758   5.095   1.603  10.113 -0.9787 -0.9111 -2.3263
  428MOL0     H57759   5.063   1.764  10.057 -0.5900 -0.3093 -0.9118
  428MOL0     H57760   4.637   1.516   9.274 -0.6407  0.7155 -0.8078
  428MOL0     H57761   4.385   1.557   9.280  0.9164 -2.9419  0.5606
  428MOL0     H57762   4.081   1.764   9.664  1.0555  0.2493 -0.6485
  428MOL0     H57763   3.876   1.889   9.688  0.1403  1.1356 -1.3261
  428MOL0     H57764   2.565   2.593  10.714 -0.5967  1.6738 -2.1063
  428MOL0     H57765   2.401   2.580  10.898  1.6043 -0.2541  2.0028
  428MOL0     H57766   2.170   2.908  11.213 -1.1645  1.7338  1.3663
  428MOL0     H57767   2.016   2.865  11.382  3.0016  1.4301 -1.2195
  428MOL0     H57768   1.678   2.562  11.328 -0.1967 -0.7324  0.3864
  428MOL0     H57769   1.602   2.701  11.253  0.3073  1.3291  1.2912
  428MOL0     H57770   1.461   2.660  11.419  1.7302 -3.9652 -2.8241
  428MOL0     H57771   1.563   2.793  11.493  2.4746 -0.5132 -0.1760
  428MOL0     H57772   1.701   2.609  11.604  0.9409 -1.6423  0.6844
  428MOL0     H57773   1.580   2.497  11.556 -0.6591  0.2226  2.3877
  428MOL0     H57774   1.400   2.595  11.689  0.7128 -0.8898 -1.6700
  428MOL0     H57775   1.534   2.575  11.798  0.7248 -1.8324 -0.6444
  428MOL0     H57776   1.504   3.003  11.763 -2.1179  0.8696 -0.5875
  428MOL0     H57777   1.754   2.660  11.097 -0.1322  2.1255 -2.7086
  428MOL0     H57778   1.838   2.589  10.904  0.7510 -1.2227  2.7181
  428MOL0     H57779   1.915   2.724  10.811  1.8265 -2.9707 -2.0316
  428MOL0     H57780   2.015   2.596  10.867  0.3020 -0.8423 -1.4437
  429MOL0     O57781   6.088   9.905   3.126 -0.3942 -0.0131  0.0867
  429MOL0     C57782   6.014   9.808   3.146  0.3654 -0.2368  0.0589
  429MOL0     O57783   5.889   9.806   3.222  0.2932 -0.4353 -0.2417
  429MOL0     C57784   5.867   9.898   3.320 -0.3410 -0.5033  0.4322
  429MOL0     C57785   5.965   9.965   3.387 -0.8150 -0.2529  0.3425
  429MOL0     C57786   5.934  10.038   3.499  0.2145 -1.1474 -0.2565
  429MOL0     C57787   5.801  10.066   3.530 -0.1485 -0.6068 -0.1283
  429MOL0     O57788   5.783  10.143   3.637 -0.4508 -0.1794 -0.2002
  429MOL0     C57789   5.664  10.228   3.639 -0.7378  0.4801  0.2173
  429MOL0     C57790   5.645  10.306   3.770 -0.2439  0.3842  1.1663
  429MOL0     C57791   5.573  10.446   3.760 -0.3358  0.2529  1.3227
  429MOL0     C57792   5.484  10.460   3.627 -0.0648  1.3285 -0.6653
  429MOL0     C57793   5.378  10.576   3.645  0.4510 -0.5655 -0.0912
  429MOL0     C57794   5.457  10.711   3.676  0.8475  0.1297 -0.7965
  429MOL0     C57795   5.372  10.833   3.690  1.0212  0.0408  0.2673
  429MOL0     C57796   5.295  10.822   3.810  0.6712  0.0321  0.7009
  429MOL0     N57797   5.211  10.938   3.839 -0.3382 -0.6125 -0.0988
  429MOL0     C57798   5.080  10.938   3.894 -0.7217 -0.0505 -0.6001
  429MOL0     C57799   5.044  11.068   3.915 -0.0276 -0.0076 -0.3288
  429MOL0     C57800   4.917  11.145   3.948 -0.3001 -0.0107 -0.0214
  429MOL0     C57801   4.855  11.104   4.081 -0.1366 -0.4041 -0.3175
  429MOL0     C57802   4.941  11.125   4.206 -0.0720  0.7434 -0.1647
  429MOL0     C57803   5.048  11.016   4.234 -0.1968  0.6495 -0.8459
  429MOL0     O57804   4.979  10.888   4.217  0.6515 -0.2098  0.3687
  429MOL0     C57805   5.052  10.776   4.235 -0.0103 -0.7649 -0.4526
  429MOL0     C57806   4.993  10.654   4.217  0.5306  0.4276  0.6846
  429MOL0     C57807   5.069  10.532   4.234  0.4213 -0.5612  0.3930
  429MOL0     C57808   5.210  10.531   4.254  0.1462  0.8420  0.6896
  429MOL0     C57809   5.279  10.395   4.259  0.3552  0.2386 -0.1799
  429MOL0     O57810   5.410  10.399   4.267  0.3277 -0.2776 -0.3319
  429MOL0     C57811   5.479  10.295   4.309  0.5872 -0.5944  0.0546
  429MOL0     C57812   5.568  10.318   4.413 -0.9201 -0.1767 -0.0799
  429MOL0     C57813   5.662  10.226   4.442 -0.5599 -0.3443  0.5328
  429MOL0     C57814   5.678  10.106   4.364 -0.0136  0.0932  0.1255
  429MOL0     O57815   5.792  10.034   4.404  0.1535  0.6488  0.4341
  429MOL0     C57816   5.825   9.940   4.299 -1.1201  0.9536 -0.3312
  429MOL0     C57817   5.957   9.871   4.351  0.3577 -0.9555 -0.6345
  429MOL0     C57818   6.000   9.775   4.240 -1.0553  0.5044  0.8390
  429MOL0     C57819   6.128   9.692   4.262  0.4595 -1.1123  0.0452
  429MOL0     C57820   6.163   9.587   4.150  0.4322  0.0285 -0.1686
  429MOL0     C57821   6.294   9.519   4.166  0.3542  1.3187 -0.1719
  429MOL0     C57822   6.274   9.400   4.265 -0.8236 -0.2377  0.6476
  429MOL0     C57823   6.400   9.331   4.309 -0.2171 -0.7198 -0.2814
  429MOL0    Cl57824   6.511   9.456   4.377 -0.5019 -0.4206  0.0957
  429MOL0     C57825   5.587  10.089   4.266  0.6487  0.1255 -0.1005
  429MOL0     C57826   5.490  10.183   4.232  0.2792 -0.1082  0.7668
  429MOL0     O57827   5.213  10.290   4.241 -0.1413 -0.5522  0.4665
  429MOL0     C57828   5.269  10.652   4.261  0.2809 -0.5912  0.2897
  429MOL0     C57829   5.192  10.772   4.254 -0.1743 -0.9087  0.2325
  429MOL0     N57830   5.142  11.148   3.864  0.1779  0.0257  0.0500
  429MOL0     N57831   5.244  11.075   3.830 -0.5057  0.5284  0.1743
  429MOL0     C57832   5.698  10.012   3.451  0.0592  0.7239 -0.5362
  429MOL0     C57833   5.732   9.923   3.353  0.5774  0.8159  0.5285
  429MOL0     C57834   6.044   9.676   3.080 -0.1854 -0.3549 -0.1925
  429MOL0     C57835   6.144   9.601   3.145 -0.6227  0.5617  0.5352
  429MOL0     C57836   6.189   9.484   3.089 -0.4179 -0.0466 -0.0286
  429MOL0     C57837   6.137   9.449   2.957  0.0302 -0.2671 -0.0776
  429MOL0     O57838   6.172   9.335   2.887 -0.5050  0.4991  0.9078
  429MOL0     C57839   6.220   9.353   2.752 -0.8701  0.0153  0.0616
  429MOL0     C57840   6.350   9.424   2.750 -1.3107 -1.1200 -0.4401
  429MOL0     C57841   6.397   9.450   2.610 -1.1038 -0.0405 -1.0027
  429MOL0     C57842   6.532   9.522   2.607  0.7823 -0.4509  0.6750
  429MOL0     C57843   6.551   9.604   2.483  0.2197  0.2227  0.4066
  429MOL0     C57844   6.572   9.675   2.384  0.0681  0.4325 -0.6698
  429MOL0     C57845   6.025   9.518   2.906 -0.3608  0.4777 -0.6764
  429MOL0     C57846   5.978   9.634   2.966  0.0438 -0.5428 -0.6217
  429MOL0     C57847   5.875   9.719   2.902  0.4686 -0.4294 -0.3414
  429MOL0     H57848   6.068   9.951   3.358 -1.5806 -1.4073 -2.0986
  429MOL0     H57849   6.010  10.085   3.561  0.8567 -0.6001 -1.4304
  429MOL0     H57850   5.658  10.289   3.548 -1.3795  0.2016  0.0684
  429MOL0     H57851   5.574  10.167   3.629 -0.7392  0.4430  0.4376
  429MOL0     H57852   5.746  10.322   3.808 -0.3627  0.5751  1.4101
  429MOL0     H57853   5.601  10.246   3.851  3.0498 -1.5268  1.7181
  429MOL0     H57854   5.651  10.522   3.760 -0.1227  0.1266 -0.9616
  429MOL0     H57855   5.512  10.467   3.848 -3.1568 -3.7154  0.6137
  429MOL0     H57856   5.557  10.489   3.550 -0.1428  0.7024 -0.9870
  429MOL0     H57857   5.439  10.364   3.598 -1.7832  2.3767 -1.6692
  429MOL0     H57858   5.307  10.588   3.562 -1.7529  1.8493  1.9692
  429MOL0     H57859   5.309  10.547   3.725  1.7793  0.5630  1.5219
  429MOL0     H57860   5.513  10.704   3.770  1.4846 -1.6954 -1.2579
  429MOL0     H57861   5.528  10.746   3.600  1.9781  0.8340  0.5486
  429MOL0     H57862   5.303  10.850   3.607  0.6488  1.3373  0.8112
  429MOL0     H57863   5.426  10.928   3.690 -0.8345  1.2506 -2.6666
  429MOL0     H57864   5.229  10.734   3.815 -1.6019  1.6814  3.9679
  429MOL0     H57865   5.372  10.808   3.886  1.7612  2.7938  0.1954
  429MOL0     H57866   5.024  10.854   3.932 -2.3728  0.8167 -1.0050
  429MOL0     H57867   4.948  11.248   3.972 -0.8120 -0.0124  0.6799
  429MOL0     H57868   4.846  11.128   3.867  0.6584  1.1374 -1.1360
  429MOL0     H57869   4.768  11.170   4.095  0.7234  1.3460 -2.6278
  429MOL0     H57870   4.821  11.001   4.077  1.5995 -1.2992  3.5853
  429MOL0     H57871   4.880  11.145   4.294 -0.3364  0.8637 -0.3751
  429MOL0     H57872   5.002  11.214   4.194 -0.1834  1.0434  1.2842
  429MOL0     H57873   5.087  11.041   4.333 -2.6490  2.9447 -0.3421
  429MOL0     H57874   5.130  11.029   4.163  2.9516  0.2740  2.4457
  429MOL0     H57875   4.887  10.654   4.195  0.5202  1.1557  0.6995
  429MOL0     H57876   5.004  10.445   4.231  0.7859 -0.8764  1.2662
  429MOL0     H57877   5.562  10.411   4.468  1.7034  0.4852 -0.7855
  429MOL0     H57878   5.744  10.248   4.510  0.0535 -0.5181 -0.1395
  429MOL0     H57879   5.746   9.864   4.296 -0.9858  0.4146  3.8013
  429MOL0     H57880   5.833   9.992   4.203  2.0345 -2.7748 -2.3641
  429MOL0     H57881   6.032   9.947   4.374 -1.3613  1.4827 -2.5696
  429MOL0     H57882   5.928   9.807   4.435  0.3800 -1.9423 -1.3522
  429MOL0     H57883   5.924   9.697   4.227 -1.0469  0.3762  1.4948
  429MOL0     H57884   6.017   9.827   4.145 -1.1917 -0.9668 -0.0214
  429MOL0     H57885   6.113   9.644   4.360  0.9178 -0.6534  0.3422
  429MOL0     H57886   6.209   9.764   4.269 -2.8936  3.0457  0.2570
  429MOL0     H57887   6.152   9.637   4.054 -0.0693 -1.1353 -0.7440
  429MOL0     H57888   6.082   9.512   4.150 -0.7967  1.2736  1.4065
  429MOL0     H57889   6.319   9.475   4.069  3.4072 -1.5672  1.7163
  429MOL0     H57890   6.374   9.588   4.195 -1.2899  2.3346  2.2441
  429MOL0     H57891   6.214   9.322   4.218  1.0429 -1.7128  0.6204
  429MOL0     H57892   6.236   9.442   4.359 -0.6828  2.2372 -0.3379
  429MOL0     H57893   6.385   9.264   4.394 -1.3221  0.4732  0.4917
  429MOL0     H57894   6.462   9.285   4.231  2.9108  3.8579 -0.8742
  429MOL0     H57895   5.593   9.996   4.209  0.3277  0.4856 -0.7273
  429MOL0     H57896   5.432  10.177   4.140  0.8908  2.3562  0.1560
  429MOL0     H57897   5.376  10.668   4.262  0.0057  1.5675 -0.2447
  429MOL0     H57898   5.241  10.868   4.270 -1.1947 -0.5355  1.2806
  429MOL0     H57899   5.595  10.047   3.449 -0.7149 -1.4009 -0.9509
  429MOL0     H57900   5.653   9.884   3.290  1.4566 -0.7389  0.3115
  429MOL0     H57901   6.192   9.629   3.238  0.1972 -2.8292  1.2579
  429MOL0     H57902   6.259   9.425   3.147 -1.3190 -1.0165  0.0964
  429MOL0     H57903   6.153   9.416   2.692 -0.1713  1.0109  0.3144
  429MOL0     H57904   6.231   9.251   2.713 -2.8535 -0.3939  0.4687
  429MOL0     H57905   6.433   9.371   2.799 -0.5897  1.5508  1.4629
  429MOL0     H57906   6.332   9.520   2.800 -2.6518 -1.5706 -0.0211
  429MOL0     H57907   6.320   9.520   2.575  0.5960  3.1087  1.0284
  429MOL0     H57908   6.396   9.358   2.551 -1.0916  0.5792 -2.0027
  429MOL0     H57909   6.540   9.589   2.694 -0.7407  0.1198  0.4153
  429MOL0     H57910   6.610   9.445   2.607  0.6079 -0.7382 -2.5860
  429MOL0     H57911   6.608   9.732   2.300  0.7547  1.1430  0.0961
  429MOL0     H57912   5.972   9.464   2.828 -2.7943  1.2645  0.3428
  429MOL0     H57913   5.817   9.781   2.971 -0.3052  1.7335 -2.8182
  429MOL0     H57914   5.921   9.790   2.833  2.4803  0.1810  1.4878
  429MOL0     H57915   5.806   9.653   2.850 -0.4750 -0.0865  0.4416
  430MOL0     O57916   3.612   3.534   4.616 -0.0422 -0.8834 -0.4180
  430MOL0     C57917   3.584   3.650   4.632  0.0005 -0.9241  0.2522
  430MOL0     O57918   3.481   3.700   4.705 -0.4774  0.5091 -0.5107
  430MOL0     C57919   3.392   3.609   4.759 -0.5551  0.0123  0.3363
  430MOL0     C57920   3.289   3.552   4.690 -1.8943  0.6342 -0.5133
  430MOL0     C57921   3.193   3.477   4.764  0.9453 -0.5693 -0.2859
  430MOL0     C57922   3.193   3.467   4.905  0.1837 -0.0635  0.2222
  430MOL0     O57923   3.085   3.406   4.969 -1.0893 -0.2417 -0.4980
  430MOL0     C57924   3.120   3.365   5.098  0.2540 -0.2160 -0.1838
  430MOL0     C57925   3.013   3.262   5.143  0.7772  0.5978 -0.3559
  430MOL0     C57926   3.003   3.146   5.042 -0.1357 -0.0664  0.4138
  430MOL0     C57927   2.919   3.031   5.102 -0.0192 -0.1394  0.2611
  430MOL0     C57928   2.971   2.882   5.089  0.1262  0.3276 -0.5310
  430MOL0     C57929   2.868   2.773   5.122 -0.0692  0.0976  0.4701
  430MOL0     C57930   2.781   2.783   5.249 -0.2637  0.3138  1.7749
  430MOL0     C57931   2.879   2.792   5.369  0.1203  0.4506  0.4563
  430MOL0     N57932   2.799   2.808   5.494  0.0761  0.6723  0.7876
  430MOL0     C57933   2.731   2.709   5.559  0.3212  1.0656 -0.8380
  430MOL0     C57934   2.691   2.768   5.677 -0.1770  0.0272  0.5577
  430MOL0     C57935   2.622   2.700   5.793 -0.3991  0.3786  0.2729
  430MOL0     C57936   2.474   2.664   5.781 -0.5969 -0.2329 -0.7455
  430MOL0     C57937   2.407   2.607   5.910  0.2108 -1.2818 -0.7035
  430MOL0     C57938   2.466   2.478   5.972  1.3077 -0.1846 -0.1669
  430MOL0     O57939   2.522   2.392   5.873 -0.6242 -0.0092  0.2643
  430MOL0     C57940   2.546   2.261   5.898 -0.5122  0.3946  0.2859
  430MOL0     C57941   2.532   2.175   5.782 -0.3281 -0.4387  0.2639
  430MOL0     C57942   2.524   2.041   5.788 -0.2237 -0.0073  0.0872
  430MOL0     C57943   2.541   1.973   5.908 -1.4170  0.5130  0.1505
  430MOL0     C57944   2.538   1.826   5.933  0.9436  0.1947 -0.1675
  430MOL0     O57945   2.562   1.785   6.064 -0.2980  0.1587  0.0561
  430MOL0     C57946   2.563   1.648   6.082  0.0830  0.8343  0.9227
  430MOL0     C57947   2.687   1.587   6.072 -0.3097 -0.0190 -0.8147
  430MOL0     C57948   2.709   1.455   6.105 -0.1111 -0.4239 -1.4695
  430MOL0     C57949   2.600   1.377   6.128 -0.7333 -0.2222 -0.2118
  430MOL0     O57950   2.607   1.238   6.150 -0.1186  0.2694  0.5981
  430MOL0     C57951   2.731   1.194   6.214 -0.2536 -0.1241 -0.5593
  430MOL0     C57952   2.698   1.067   6.293  0.5766  0.0787 -0.5591
  430MOL0     C57953   2.833   0.993   6.325  0.2049  0.3653  0.2186
  430MOL0     C57954   2.812   0.903   6.449  0.1516 -0.3725  0.2473
  430MOL0     C57955   2.910   0.785   6.470 -0.6871 -0.3937  0.5408
  430MOL0     C57956   2.926   0.743   6.613 -0.1553 -0.3062  0.1537
  430MOL0     C57957   3.072   0.686   6.623  0.9134  0.4966  0.1167
  430MOL0     C57958   3.170   0.794   6.661 -0.4943  0.5630  0.1562
  430MOL0    Cl57959   3.262   0.849   6.525 -0.0757 -0.7821  0.4364
  430MOL0     C57960   2.466   1.438   6.121  0.0564 -0.2159  0.9379
  430MOL0     C57961   2.445   1.567   6.105 -0.0855 -0.7917  0.2236
  430MOL0     O57962   2.508   1.753   5.834 -0.8653  0.9337 -0.8745
  430MOL0     C57963   2.559   2.056   6.020  0.2215  0.5487  0.5344
  430MOL0     C57964   2.560   2.197   6.021 -0.5550  0.0999  0.6518
  430MOL0     N57965   2.723   2.903   5.671  0.9562  1.0912 -0.2536
  430MOL0     N57966   2.790   2.927   5.566 -0.7006  0.0701  0.4412
  430MOL0     C57967   3.298   3.529   4.970  0.3437 -0.1023  0.3092
  430MOL0     C57968   3.390   3.601   4.899 -0.8060 -0.1440  0.1128
  430MOL0     C57969   3.658   3.753   4.551 -0.2929 -0.3468 -0.0036
  430MOL0     C57970   3.607   3.882   4.557 -0.3847 -0.0169 -0.2259
  430MOL0     C57971   3.670   3.988   4.499 -0.2028 -1.0968 -0.3689
  430MOL0     C57972   3.776   3.970   4.416 -0.7727 -0.4753  0.4688
  430MOL0     O57973   3.814   4.092   4.356 -0.1787 -0.0548 -0.1121
  430MOL0     C57974   3.936   4.108   4.272 -0.2642 -0.8696 -1.4070
  430MOL0     C57975   4.039   4.208   4.344 -1.1089  0.5352  0.7111
  430MOL0     C57976   4.163   4.236   4.253  0.4782 -0.1801  0.8615
  430MOL0     C57977   4.278   4.147   4.273 -0.1127  0.3115 -0.5040
  430MOL0     C57978   4.408   4.213   4.235  0.0613 -0.2402  0.0239
  430MOL0     C57979   4.516   4.267   4.215 -0.0802 -0.7280 -0.3684
  430MOL0     C57980   3.831   3.848   4.406  0.6282 -0.3034  0.2250
  430MOL0     C57981   3.780   3.737   4.481 -0.3605  0.6821  0.5464
  430MOL0     C57982   3.841   3.598   4.457 -0.7341 -0.0644  0.0863
  430MOL0     H57983   3.277   3.564   4.583 -5.1537  0.3418 -0.2960
  430MOL0     H57984   3.109   3.428   4.718  0.7623  1.5379 -2.3904
  430MOL0     H57985   3.219   3.319   5.102 -0.5621 -2.0943  0.0078
  430MOL0     H57986   3.118   3.448   5.168 -0.8840 -2.1149  2.1910
  430MOL0     H57987   2.915   3.309   5.140 -1.1273 -3.0737 -1.3404
  430MOL0     H57988   3.029   3.225   5.244 -1.8433  1.0856  0.2951
  430MOL0     H57989   3.103   3.116   5.010 -0.1635 -1.5199  1.6128
  430MOL0     H57990   2.957   3.171   4.946  1.7482 -4.6161 -1.9661
  430MOL0     H57991   2.897   3.056   5.206 -0.1941 -0.0390  0.1998
  430MOL0     H57992   2.824   3.031   5.048 -0.9726 -1.1138  1.8440
  430MOL0     H57993   3.005   2.870   4.986 -2.0025 -1.8775 -1.0854
  430MOL0     H57994   3.059   2.866   5.152 -1.0186 -0.4791  0.9213
  430MOL0     H57995   2.794   2.769   5.042  1.5079  2.8713 -1.2839
  430MOL0     H57996   2.916   2.675   5.121  2.5261  1.2952  0.9579
  430MOL0     H57997   2.720   2.695   5.269 -0.8677  1.0330  3.2685
  430MOL0     H57998   2.725   2.876   5.262 -0.7535  0.2201  0.4595
  430MOL0     H57999   2.947   2.707   5.382 -1.2597 -0.6992  0.4403
  430MOL0     H58000   2.941   2.882   5.361  0.0371  0.7995  3.0208
  430MOL0     H58001   2.715   2.605   5.532 -0.4069  1.4238 -1.8406
  430MOL0     H58002   2.683   2.610   5.809 -0.4761 -0.0752 -1.7184
  430MOL0     H58003   2.635   2.758   5.884 -0.1402 -1.9422  1.8166
  430MOL0     H58004   2.412   2.750   5.754 -1.7215  0.4835  3.4973
  430MOL0     H58005   2.468   2.583   5.707 -0.0034 -1.8751  0.9480
  430MOL0     H58006   2.302   2.590   5.883 -0.0772 -0.9175  0.1506
  430MOL0     H58007   2.405   2.685   5.988 -0.1041 -0.0652 -1.8790
  430MOL0     H58008   2.385   2.429   6.026  1.4812 -0.8297 -0.4810
  430MOL0     H58009   2.538   2.512   6.047 -1.0688 -0.0231  2.1897
  430MOL0     H58010   2.549   2.230   5.689  3.3320  0.2620  1.1928
  430MOL0     H58011   2.512   1.998   5.688  0.0336 -2.5032  1.0541
  430MOL0     H58012   2.765   1.655   6.039 -0.0300  2.0827  3.5847
  430MOL0     H58013   2.810   1.414   6.100  0.6289  1.1854 -0.4105
  430MOL0     H58014   2.812   1.166   6.148  0.4027 -1.2512  0.6792
  430MOL0     H58015   2.779   1.272   6.274  0.3626 -1.0191  0.1236
  430MOL0     H58016   2.631   1.084   6.378  0.3323 -1.7293 -0.3568
  430MOL0     H58017   2.637   1.016   6.217 -2.2025 -0.4319  1.8108
  430MOL0     H58018   2.862   0.927   6.242 -1.9873  2.6188 -2.5593
  430MOL0     H58019   2.922   1.054   6.342  0.1277  1.5217 -2.8641
  430MOL0     H58020   2.712   0.862   6.436  0.3639 -0.7733 -0.1306
  430MOL0     H58021   2.820   0.956   6.545 -0.0198 -3.8841  2.3590
  430MOL0     H58022   3.006   0.825   6.436  1.5846 -5.4710  0.1582
  430MOL0     H58023   2.884   0.698   6.409 -0.4490 -0.4537  0.5232
  430MOL0     H58024   2.919   0.823   6.687  3.2162 -2.0059  2.5846
  430MOL0     H58025   2.857   0.660   6.631 -1.2700 -0.7587 -4.7922
  430MOL0     H58026   3.105   0.639   6.529 -1.0428 -1.0942  0.1646
  430MOL0     H58027   3.072   0.608   6.699 -0.5088 -0.1350 -0.5010
  430MOL0     H58028   3.114   0.877   6.704 -2.5300  0.8154 -2.7026
  430MOL0     H58029   3.248   0.752   6.725  0.6780  2.2735 -0.0959
  430MOL0     H58030   2.374   1.382   6.135 -0.5925 -0.4892 -3.1350
  430MOL0     H58031   2.351   1.609   6.139 -0.9408 -1.3115 -1.3824
  430MOL0     H58032   2.539   2.005   6.114  1.0826 -0.9343 -0.0459
  430MOL0     H58033   2.560   2.260   6.109  2.2946 -1.1964  1.7071
  430MOL0     H58034   3.300   3.524   5.079 -3.1172  0.3801  0.4863
  430MOL0     H58035   3.466   3.637   4.966  0.9069 -1.7620 -0.8546
  430MOL0     H58036   3.512   3.906   4.604 -0.3502 -0.6731  0.1953
  430MOL0     H58037   3.634   4.091   4.502 -0.8023 -1.3299  1.2487
  430MOL0     H58038   3.928   4.164   4.178 -0.6568  2.3139  0.3744
  430MOL0     H58039   3.984   4.010   4.267 -0.0387 -1.1747  2.9558
  430MOL0     H58040   4.070   4.162   4.438 -3.2491 -0.1918  1.1042
  430MOL0     H58041   3.982   4.299   4.367  1.0902  1.3335  3.5886
  430MOL0     H58042   4.196   4.339   4.269  0.0516 -0.0963  1.1993
  430MOL0     H58043   4.127   4.226   4.150  0.0397  0.1863  0.9773
  430MOL0     H58044   4.293   4.132   4.381 -2.1627  0.4277 -0.1590
  430MOL0     H58045   4.268   4.052   4.219 -1.7633  0.1373  0.0580
  430MOL0     H58046   4.603   4.328   4.200  0.8852 -1.6217  1.2522
  430MOL0     H58047   3.920   3.826   4.349  0.7894  2.5827 -0.8080
  430MOL0     H58048   3.775   3.517   4.424  0.5384 -2.3224  2.6405
  430MOL0     H58049   3.924   3.603   4.385  0.3505  1.1996  1.3616
  430MOL0     H58050   3.877   3.561   4.553 -0.8223  0.3302  0.2727
  431MOL0     O58051   6.231   9.252   9.216  0.4457  0.0636  0.3057
  431MOL0     C58052   6.235   9.131   9.179  0.2932 -1.6505 -0.4032
  431MOL0     O58053   6.128   9.050   9.178 -0.1910  0.0277 -0.2599
  431MOL0     C58054   6.009   9.093   9.234  0.8952 -0.1509 -0.5455
  431MOL0     C58055   5.903   9.132   9.151  0.6805 -0.2971  0.4518
  431MOL0     C58056   5.784   9.176   9.212 -0.3911 -0.0061  0.5777
  431MOL0     C58057   5.756   9.157   9.347 -0.7129 -1.0735 -0.8270
  431MOL0     O58058   5.644   9.202   9.405 -0.2035  0.0883 -0.2052
  431MOL0     C58059   5.607   9.344   9.395  0.6754  0.2057 -0.2587
  431MOL0     C58060   5.473   9.345   9.327 -0.6912 -0.3093  0.0851
  431MOL0     C58061   5.457   9.489   9.273  0.0230 -0.3001  0.3580
  431MOL0     C58062   5.341   9.492   9.178  0.4947  0.3345  1.2508
  431MOL0     C58063   5.321   9.634   9.132  0.4789 -1.1762 -0.1959
  431MOL0     C58064   5.206   9.632   9.019  0.2010 -0.0331 -0.5056
  431MOL0     C58065   5.157   9.778   8.987 -0.4744  0.5272  0.7942
  431MOL0     C58066   5.016   9.789   8.926 -0.2684 -0.6614  0.4166
  431MOL0     N58067   4.983   9.720   8.797  0.9134  0.6376 -0.3966
  431MOL0     C58068   5.045   9.737   8.677  0.0631  0.1762  0.9428
  431MOL0     C58069   5.030   9.621   8.608  1.1331  0.8688  0.4862
  431MOL0     C58070   5.081   9.590   8.467  0.4805 -0.4116  0.1513
  431MOL0     C58071   5.103   9.435   8.450 -0.3586  0.4243  0.4136
  431MOL0     C58072   5.197   9.405   8.333 -1.4262 -0.2065  0.5100
  431MOL0     C58073   5.112   9.424   8.206 -0.4377  0.2265  0.5465
  431MOL0     O58074   5.190   9.397   8.087 -0.1146  0.1977 -0.3088
  431MOL0     C58075   5.118   9.370   7.970 -0.3080 -0.0078 -0.4738
  431MOL0     C58076   5.193   9.353   7.855  0.4179 -0.0755 -0.5287
  431MOL0     C58077   5.126   9.327   7.738 -1.1556  0.9623  0.2055
  431MOL0     C58078   4.992   9.335   7.717 -0.5575 -0.4775 -0.4709
  431MOL0     C58079   4.937   9.302   7.577  0.7436 -0.2972  0.4533
  431MOL0     O58080   5.024   9.239   7.495 -0.7555  0.6507 -0.0254
  431MOL0     C58081   4.982   9.195   7.370 -0.4818 -0.6253 -0.0998
  431MOL0     C58082   5.033   9.256   7.256  0.9896 -0.3453  0.4563
  431MOL0     C58083   4.979   9.213   7.130 -0.4019  0.1466  1.0188
  431MOL0     C58084   4.882   9.117   7.115 -0.1843  1.5171 -0.3902
  431MOL0     O58085   4.848   9.088   6.980  0.3914 -0.0771  0.4800
  431MOL0     C58086   4.780   8.961   6.954 -0.2994  0.3234 -0.0395
  431MOL0     C58087   4.885   8.848   6.960  0.0021 -0.0844  0.2440
  431MOL0     C58088   4.983   8.850   6.840 -0.5282 -0.5443  0.7456
  431MOL0     C58089   5.131   8.881   6.888 -0.5198 -0.2060 -0.0130
  431MOL0     C58090   5.231   8.884   6.780 -0.1465  0.4521 -0.8336
  431MOL0     C58091   5.369   8.934   6.828 -0.0854  0.1828 -0.3633
  431MOL0     C58092   5.475   8.962   6.717  0.1708  0.3817  0.1766
  431MOL0     C58093   5.505   8.828   6.649  0.3672 -0.3034 -0.1891
  431MOL0    Cl58094   5.377   8.792   6.528 -0.2916 -0.4989 -0.6016
  431MOL0     C58095   4.831   9.061   7.236  0.1145  0.2735  0.3648
  431MOL0     C58096   4.882   9.101   7.353 -0.0146  0.0356  0.8743
  431MOL0     O58097   4.816   9.324   7.553 -0.3295  0.5464 -0.3140
  431MOL0     C58098   4.919   9.360   7.833  0.2179 -0.6165 -0.7114
  431MOL0     C58099   4.972   9.382   7.955  0.2360  0.9472  0.5827
  431MOL0     N58100   4.931   9.549   8.676 -0.3071  0.3941  0.4842
  431MOL0     N58101   4.911   9.605   8.787  0.2444  0.1466  0.0744
  431MOL0     C58102   5.859   9.095   9.424  0.7163  0.5106  0.4949
  431MOL0     C58103   5.983   9.066   9.377 -0.4096  1.3566  1.0977
  431MOL0     C58104   6.367   9.090   9.135  0.6013  0.4533 -0.7926
  431MOL0     C58105   6.468   9.184   9.128  0.5433  0.7231  0.3438
  431MOL0     C58106   6.590   9.154   9.069  0.5814  0.0511 -0.3644
  431MOL0     C58107   6.621   9.030   9.024 -0.4636 -0.5284  0.1609
  431MOL0     O58108   6.747   9.009   8.967 -0.7483 -0.1386 -0.4037
  431MOL0     C58109   6.802   8.879   8.947 -0.2361  0.4356  0.3049
  431MOL0     C58110   6.866   8.809   9.077 -0.1457  0.9448  0.3091
  431MOL0     C58111   7.005   8.865   9.105 -0.0294  0.0566 -0.5046
  431MOL0     C58112   7.007   9.007   9.169 -0.0588 -0.4747  0.5397
  431MOL0     C58113   7.017   9.108   9.058  0.1209 -0.8208  0.6784
  431MOL0     C58114   7.044   9.193   8.967  0.6516 -0.0770 -0.0586
  431MOL0     C58115   6.535   8.930   9.052  0.0133  0.1635  0.3991
  431MOL0     C58116   6.405   8.961   9.111 -0.0414  0.5023  0.6390
  431MOL0     C58117   6.308   8.842   9.126  0.7520 -0.5036  1.1870
  431MOL0     H58118   5.931   9.145   9.047  4.7369 -3.4427  0.9312
  431MOL0     H58119   5.706   9.221   9.152  0.0945  0.4521  0.2879
  431MOL0     H58120   5.596   9.383   9.497 -0.5678 -1.5799  0.3439
  431MOL0     H58121   5.685   9.403   9.346  1.3402  0.7519  1.3979
  431MOL0     H58122   5.391   9.332   9.398 -0.1760  4.9883  2.0628
  431MOL0     H58123   5.464   9.275   9.244 -2.8413  0.7940 -0.6702
  431MOL0     H58124   5.546   9.516   9.216 -0.0943 -2.9107 -1.1960
  431MOL0     H58125   5.441   9.570   9.346  1.6452  0.9128 -0.5728
  431MOL0     H58126   5.358   9.427   9.092 -2.5187  1.4077 -0.3184
  431MOL0     H58127   5.250   9.450   9.222 -0.2208  2.7141  2.2013
  431MOL0     H58128   5.288   9.693   9.218  1.8017 -0.9431  0.1722
  431MOL0     H58129   5.410   9.678   9.086 -1.2574  1.2407 -1.4829
  431MOL0     H58130   5.249   9.583   8.931 -1.4405 -0.4308 -1.1341
  431MOL0     H58131   5.126   9.570   9.058  0.0892  1.0495  1.0678
  431MOL0     H58132   5.233   9.826   8.924  1.3376  0.7325  2.9578
  431MOL0     H58133   5.157   9.836   9.081 -1.9603  1.7369  0.0859
  431MOL0     H58134   4.939   9.760   8.998 -0.1674 -0.9116  0.4273
  431MOL0     H58135   5.000   9.894   8.902  0.1506 -0.6521  0.1658
  431MOL0     H58136   5.100   9.825   8.645  0.7105  0.0984  1.8031
  431MOL0     H58137   5.006   9.640   8.405  0.6509  2.4019  2.0272
  431MOL0     H58138   5.179   9.638   8.472  0.8745 -1.0842 -0.8979
  431MOL0     H58139   5.159   9.391   8.533 -0.1609 -0.1098  0.0021
  431MOL0     H58140   5.014   9.373   8.430 -1.1193  1.8955 -1.0507
  431MOL0     H58141   5.236   9.303   8.329 -0.0877  0.2682  1.0520
  431MOL0     H58142   5.283   9.471   8.344 -2.1920  0.6621  1.5798
  431MOL0     H58143   5.069   9.525   8.201  0.1506  0.4847  0.5977
  431MOL0     H58144   5.028   9.356   8.222 -0.5355  0.3423  0.5288
  431MOL0     H58145   5.301   9.348   7.859  0.3983  0.0241  2.4595
  431MOL0     H58146   5.195   9.301   7.659 -0.5538  0.1522  0.9854
  431MOL0     H58147   5.108   9.334   7.259 -3.4516  4.5024  0.4224
  431MOL0     H58148   5.024   9.263   7.044 -0.3568  0.0705  0.9985
  431MOL0     H58149   4.692   8.948   7.017 -0.4309 -0.8389 -0.4397
  431MOL0     H58150   4.734   8.959   6.855 -3.3258 -0.5324  1.2732
  431MOL0     H58151   4.949   8.843   7.048 -0.1282 -0.2271  0.3294
  431MOL0     H58152   4.832   8.754   6.945 -0.6415  0.2771  0.2073
  431MOL0     H58153   4.969   8.747   6.805 -2.7455 -0.2960  0.7160
  431MOL0     H58154   4.954   8.923   6.764 -2.3139 -0.8256  1.1178
  431MOL0     H58155   5.165   8.810   6.963  1.3934  2.1367  1.4713
  431MOL0     H58156   5.136   8.977   6.938 -0.7091  0.1102 -0.5855
  431MOL0     H58157   5.210   8.957   6.700  1.1548  1.3626 -0.3866
  431MOL0     H58158   5.228   8.784   6.736 -0.9562  0.7227 -1.4035
  431MOL0     H58159   5.359   9.034   6.870  3.7428  0.8162 -0.6245
  431MOL0     H58160   5.397   8.867   6.911 -1.0963  1.1971  0.8362
  431MOL0     H58161   5.568   8.992   6.766  0.4036  1.1317 -0.6961
  431MOL0     H58162   5.445   9.031   6.637 -1.3781 -0.5049 -0.0322
  431MOL0     H58163   5.590   8.823   6.581 -0.8853 -1.4120 -1.7292
  431MOL0     H58164   5.518   8.755   6.730 -2.1420  0.7968  1.3143
  431MOL0     H58165   4.748   8.992   7.239  0.1375  0.0210 -2.4589
  431MOL0     H58166   4.835   9.054   7.439  0.6272  1.1803  1.8672
  431MOL0     H58167   4.813   9.381   7.822 -0.4696 -2.8189  1.0563
  431MOL0     H58168   4.896   9.400   8.031 -1.0982  0.3475 -0.5517
  431MOL0     H58169   5.832   9.076   9.528  3.8127  1.6003  1.6194
  431MOL0     H58170   6.063   9.014   9.430  0.6302  1.4563 -0.3206
  431MOL0     H58171   6.445   9.287   9.154 -0.4519  0.6464 -0.1711
  431MOL0     H58172   6.651   9.240   9.043  0.6802 -0.6093 -2.5298
  431MOL0     H58173   6.886   8.899   8.880 -1.0967 -0.5242 -1.1045
  431MOL0     H58174   6.734   8.813   8.892  0.9901 -0.4430 -0.2064
  431MOL0     H58175   6.878   8.703   9.054 -1.9923  0.7743 -0.0218
  431MOL0     H58176   6.799   8.818   9.163 -1.1284 -2.2570  0.0074
  431MOL0     H58177   7.063   8.869   9.013 -1.7474 -0.2420 -1.6568
  431MOL0     H58178   7.060   8.789   9.162  0.4308  0.3135 -0.6032
  431MOL0     H58179   6.920   9.031   9.231 -0.6964 -4.3425  1.4087
  431MOL0     H58180   7.095   9.006   9.235 -0.8179  2.1587  1.7036
  431MOL0     H58181   7.082   9.247   8.883 -0.9873 -0.5404 -1.1364
  431MOL0     H58182   6.555   8.825   9.031  0.4973  0.2968  0.1863
  431MOL0     H58183   6.361   8.747   9.125 -2.3331 -2.4299  2.9919
  431MOL0     H58184   6.255   8.851   9.221  0.6557  0.3152  1.0658
  431MOL0     H58185   6.237   8.839   9.042  0.3202  1.0351  1.4640
  432MOL0     O58186   7.171  11.048   7.484  0.0023 -0.8447 -0.1351
  432MOL0     C58187   7.260  10.991   7.541  0.8964 -0.4419 -0.5108
  432MOL0     O58188   7.367  10.921   7.476 -0.4621 -0.2115  0.3156
  432MOL0     C58189   7.374  10.901   7.337 -0.2446 -0.1194  0.2561
  432MOL0     C58190   7.488  10.952   7.271 -0.3777  0.1801  0.4166
  432MOL0     C58191   7.490  10.936   7.136 -0.7272  0.0461 -1.2905
  432MOL0     C58192   7.396  10.869   7.055 -0.1892 -0.3689  0.3385
  432MOL0     O58193   7.398  10.861   6.915  0.5644  0.3687 -0.3188
  432MOL0     C58194   7.487  10.942   6.825 -0.1051 -0.2092  0.4459
  432MOL0     C58195   7.455  10.923   6.678 -1.0110  0.6927 -0.2581
  432MOL0     C58196   7.309  10.909   6.637 -0.1396 -0.0304  0.1279
  432MOL0     C58197   7.309  10.899   6.484  0.0075  0.1400  1.0474
  432MOL0     C58198   7.166  10.882   6.427 -0.8069 -0.2646 -0.3783
  432MOL0     C58199   7.159  10.872   6.276  1.3782 -0.1980 -0.5622
  432MOL0     C58200   7.007  10.862   6.236 -0.0466  0.2665 -1.0035
  432MOL0     C58201   6.961  10.723   6.279 -0.0471 -0.3687  0.4927
  432MOL0     N58202   6.859  10.679   6.187 -0.0782  0.1149  0.7143
  432MOL0     C58203   6.872  10.576   6.095  0.4805  0.5207  0.9024
  432MOL0     C58204   6.752  10.577   6.032 -0.5733  0.4547  0.5203
  432MOL0     C58205   6.716  10.475   5.923  1.0565  0.5915  0.5197
  432MOL0     C58206   6.611  10.539   5.824 -0.6244  0.2454 -0.2963
  432MOL0     C58207   6.578  10.461   5.695 -0.3249  0.1728 -0.1237
  432MOL0     C58208   6.447  10.381   5.735  0.0317 -0.4223  0.2227
  432MOL0     O58209   6.394  10.326   5.609 -0.4573 -0.0548 -0.6271
  432MOL0     C58210   6.397  10.191   5.578 -0.0240 -0.4022 -0.4427
  432MOL0     C58211   6.486  10.099   5.651  0.6220 -0.8372 -0.2049
  432MOL0     C58212   6.498   9.971   5.603 -0.8629 -0.5100  1.4067
  432MOL0     C58213   6.425   9.930   5.491 -0.3209  0.2975 -0.4388
  432MOL0     C58214   6.430   9.786   5.448  1.5910 -1.5463  0.1385
  432MOL0     O58215   6.336   9.739   5.365 -0.6237 -0.3701  0.5716
  432MOL0     C58216   6.333   9.606   5.320  0.1417 -0.0458  0.4974
  432MOL0     C58217   6.399   9.579   5.200  1.2552 -0.0946  0.2428
  432MOL0     C58218   6.376   9.456   5.144  1.2384  0.7984 -0.6039
  432MOL0     C58219   6.313   9.351   5.213  1.4697 -0.0089  0.7582
  432MOL0     O58220   6.319   9.227   5.162 -0.2672 -0.4024 -0.5636
  432MOL0     C58221   6.207   9.140   5.165  0.0880 -0.0617 -0.1335
  432MOL0     C58222   6.242   8.995   5.101  0.0545  0.6866  1.5168
  432MOL0     C58223   6.320   9.019   4.960 -0.1624  0.2229 -0.1604
  432MOL0     C58224   6.282   8.908   4.867 -0.3194  0.6410 -0.0039
  432MOL0     C58225   6.289   8.932   4.720 -0.8703  0.9677  0.1950
  432MOL0     C58226   6.261   8.800   4.648 -0.3935  0.1002  0.1200
  432MOL0     C58227   6.223   8.836   4.502  0.0898 -0.4560  0.8015
  432MOL0     C58228   6.337   8.890   4.422  0.0146  0.0280 -0.8295
  432MOL0    Cl58229   6.314   8.931   4.249  0.0517 -0.2986 -0.5536
  432MOL0     C58230   6.258   9.380   5.337 -0.0210  0.0948 -0.3701
  432MOL0     C58231   6.256   9.511   5.386  0.0006 -1.0994 -0.5757
  432MOL0     O58232   6.524   9.722   5.478  0.2798 -0.1696 -0.4921
  432MOL0     C58233   6.336  10.017   5.428 -0.6715 -0.2855 -0.4961
  432MOL0     C58234   6.330  10.149   5.468  0.2495  0.0129  0.0171
  432MOL0     N58235   6.682  10.689   6.077 -0.2846  0.0673  1.0272
  432MOL0     N58236   6.745  10.745   6.161  1.0179  0.0597  0.1366
  432MOL0     C58237   7.281  10.825   7.129 -0.0893 -0.2437  0.5501
  432MOL0     C58238   7.273  10.837   7.265  0.6386 -0.4805  0.0238
  432MOL0     C58239   7.276  10.980   7.689 -0.7087  0.1910 -0.5830
  432MOL0     C58240   7.366  10.886   7.749 -1.2885  1.6128  0.2937
  432MOL0     C58241   7.388  10.891   7.891 -0.0628 -0.1350 -0.6986
  432MOL0     C58242   7.321  10.983   7.965 -0.5760  0.2413  0.9111
  432MOL0     O58243   7.345  10.988   8.100  0.2941  0.5239 -0.7548
  432MOL0     C58244   7.260  11.068   8.189 -0.2137 -0.7307  0.1623
  432MOL0     C58245   7.302  11.074   8.335 -0.7246  0.3442 -0.5717
  432MOL0     C58246   7.318  10.934   8.397 -0.5738  0.0382  0.6070
  432MOL0     C58247   7.330  10.939   8.548 -0.9242  0.4216 -0.0669
  432MOL0     C58248   7.329  10.806   8.616 -0.5034 -0.2884  0.1678
  432MOL0     C58249   7.381  10.709   8.671  0.5778  0.5776  0.1464
  432MOL0     C58250   7.225  11.068   7.903 -0.3443  1.1779  0.0087
  432MOL0     C58251   7.200  11.058   7.774  0.9771 -0.9353  0.8642
  432MOL0     C58252   7.074  11.129   7.725 -0.6455 -0.0995 -0.4043
  432MOL0     H58253   7.570  11.012   7.309 -1.0820  1.6769 -0.3448
  432MOL0     H58254   7.573  10.981   7.084 -2.3366  1.5256 -2.7158
  432MOL0     H58255   7.457  11.044   6.850 -0.7252 -0.4307  0.6368
  432MOL0     H58256   7.591  10.913   6.842 -0.2280 -0.2707  1.1230
  432MOL0     H58257   7.516  10.835   6.657  1.1272  1.7161  1.3477
  432MOL0     H58258   7.507  11.003   6.625 -2.3632  1.4447 -0.4928
  432MOL0     H58259   7.253  10.996   6.672 -0.5217 -0.1167 -0.2528
  432MOL0     H58260   7.267  10.826   6.696  1.8698  0.7756  2.9154
  432MOL0     H58261   7.351  10.979   6.423 -2.1183  2.3828  2.3813
  432MOL0     H58262   7.374  10.812   6.465 -2.1138 -2.0592  3.1723
  432MOL0     H58263   7.136  10.786   6.469 -0.0880 -1.4991 -2.5395
  432MOL0     H58264   7.102  10.956   6.476 -0.9805 -0.2650 -0.6010
  432MOL0     H58265   7.210  10.950   6.217  1.2195 -0.5755 -1.2088
  432MOL0     H58266   7.206  10.779   6.243  1.4733  0.0837 -1.2389
  432MOL0     H58267   7.009  10.892   6.131 -0.3461  2.6957 -0.3669
  432MOL0     H58268   6.943  10.932   6.291 -0.6987 -0.8968 -0.2125
  432MOL0     H58269   7.037  10.645   6.270 -1.1347 -1.4537  0.4012
  432MOL0     H58270   6.924  10.725   6.382  1.9969  0.5129  1.2683
  432MOL0     H58271   6.957  10.508   6.094  1.7014  1.8016  4.0532
  432MOL0     H58272   6.805  10.436   5.873  0.4543  0.6207 -0.6091
  432MOL0     H58273   6.672  10.390   5.975  1.5817  1.0013  1.6592
  432MOL0     H58274   6.517  10.558   5.877 -1.7504  0.2924 -2.2049
  432MOL0     H58275   6.653  10.634   5.789  3.7064 -1.9215 -1.7643
  432MOL0     H58276   6.660  10.389   5.682  1.5316  1.8483  1.6102
  432MOL0     H58277   6.550  10.538   5.623 -3.1816 -0.6842 -0.0720
  432MOL0     H58278   6.373  10.451   5.774  1.4170  1.7688 -0.8835
  432MOL0     H58279   6.466  10.299   5.805 -0.1722 -2.2213 -1.7320
  432MOL0     H58280   6.541  10.130   5.739 -2.3841  0.4016  1.3970
  432MOL0     H58281   6.565   9.902   5.652  1.0522  0.5875  0.4496
  432MOL0     H58282   6.459   9.664   5.169  0.4359  0.9016  1.3222
  432MOL0     H58283   6.431   9.428   5.055  0.2522 -1.5023 -0.5658
  432MOL0     H58284   6.156   9.117   5.259 -3.8724  0.8753 -1.8393
  432MOL0     H58285   6.127   9.199   5.121 -0.3608 -0.4703  0.1240
  432MOL0     H58286   6.301   8.942   5.176 -0.3763 -1.0712  0.6573
  432MOL0     H58287   6.155   8.934   5.076 -1.0118  3.5449 -2.8168
  432MOL0     H58288   6.285   9.111   4.912  0.3492  0.7188  0.3894
  432MOL0     H58289   6.428   9.025   4.974 -0.3563  4.1783  0.9821
  432MOL0     H58290   6.175   8.887   4.875  0.0548 -3.1929 -2.4017
  432MOL0     H58291   6.333   8.816   4.895 -1.5751  0.6835  2.7732
  432MOL0     H58292   6.385   8.968   4.683 -1.0387  0.3285 -0.9141
  432MOL0     H58293   6.213   9.008   4.701 -1.7994 -0.5868 -3.0620
  432MOL0     H58294   6.351   8.738   4.649 -0.5639 -0.6255 -4.7347
  432MOL0     H58295   6.185   8.734   4.692  1.7820 -2.7148 -0.0825
  432MOL0     H58296   6.125   8.884   4.506  0.0400 -0.6426  2.5470
  432MOL0     H58297   6.212   8.740   4.450 -0.1320  0.5232 -1.0649
  432MOL0     H58298   6.369   8.984   4.466 -2.2979  0.1905  0.6696
  432MOL0     H58299   6.423   8.824   4.437  0.1048  0.8627  3.2712
  432MOL0     H58300   6.203   9.298   5.382  2.4185 -1.2938  0.2697
  432MOL0     H58301   6.198   9.537   5.474  0.8437 -0.1356 -0.2927
  432MOL0     H58302   6.296   9.986   5.332  0.9327  3.7902 -2.7431
  432MOL0     H58303   6.279  10.224   5.409  0.4646  0.7184  0.7004
  432MOL0     H58304   7.197  10.778   7.078 -0.1903  1.8485 -1.3874
  432MOL0     H58305   7.192  10.801   7.327  0.6242  4.2322  3.2254
  432MOL0     H58306   7.411  10.807   7.690  0.1026  2.2830  0.4232
  432MOL0     H58307   7.449  10.829   7.956 -0.8634 -2.9226 -2.4340
  432MOL0     H58308   7.156  11.034   8.191 -1.1457  1.8467 -0.4864
  432MOL0     H58309   7.254  11.174   8.161 -2.8693 -0.7055  0.5890
  432MOL0     H58310   7.221  11.131   8.381 -1.3935 -0.7596 -0.3393
  432MOL0     H58311   7.399  11.124   8.346 -0.1655 -0.4937 -1.5737
  432MOL0     H58312   7.409  10.882   8.368 -0.1136  0.4045  1.3687
  432MOL0     H58313   7.228  10.880   8.367 -2.1032  1.9472  1.4813
  432MOL0     H58314   7.426  10.982   8.579  0.1753 -0.3039 -2.2819
  432MOL0     H58315   7.244  10.993   8.587 -1.4046 -1.1663  1.1672
  432MOL0     H58316   7.429  10.624   8.716 -2.9493 -0.4640  2.3317
  432MOL0     H58317   7.166  11.137   7.963  0.9032  1.4766  0.9308
  432MOL0     H58318   7.009  11.068   7.662  1.6092 -0.1239 -2.8834
  432MOL0     H58319   7.008  11.158   7.807 -3.3922  1.0080 -2.7987
  432MOL0     H58320   7.106  11.220   7.674  0.2484  1.2302  2.3462
  433MOL0     O58321   4.262   8.805   3.707  0.4270  0.0544  0.2427
  433MOL0     C58322   4.273   8.837   3.592 -0.3681  0.4760 -1.0315
  433MOL0     O58323   4.179   8.821   3.499  0.6135  0.2528 -0.0181
  433MOL0     C58324   4.046   8.798   3.533 -0.5624  0.1704  0.2251
  433MOL0     C58325   3.979   8.873   3.635  0.3691 -0.6815  0.4106
  433MOL0     C58326   3.851   8.855   3.664  0.5386 -0.1961  0.6927
  433MOL0     C58327   3.759   8.768   3.585  0.8493 -0.4964  0.5731
  433MOL0     O58328   3.627   8.747   3.603  0.3365 -0.3886  0.1978
  433MOL0     C58329   3.565   8.836   3.697  0.8313 -0.1547 -0.0052
  433MOL0     C58330   3.425   8.787   3.735 -0.2913 -0.1338  0.2817
  433MOL0     C58331   3.356   8.888   3.823  0.6025  0.1690  0.2267
  433MOL0     C58332   3.292   9.013   3.759 -0.2855 -0.4251 -0.1469
  433MOL0     C58333   3.176   9.085   3.834 -0.6804 -0.3644  0.4465
  433MOL0     C58334   3.199   9.111   3.981  0.1848 -0.1462 -0.1169
  433MOL0     C58335   3.274   9.244   4.005  0.7014  0.9304  0.5038
  433MOL0     C58336   3.186   9.368   3.996  0.3540 -0.1811 -0.3881
  433MOL0     N58337   3.074   9.376   4.090  0.4946  0.2175  0.1370
  433MOL0     C58338   2.944   9.414   4.066  0.3600  0.2999 -0.6142
  433MOL0     C58339   2.872   9.384   4.175  0.0637  0.5374  0.2720
  433MOL0     C58340   2.720   9.379   4.177  1.2016 -0.6289 -0.0132
  433MOL0     C58341   2.661   9.518   4.152  0.2110  0.2056  1.3977
  433MOL0     C58342   2.638   9.554   4.001 -0.6152 -0.2181 -0.5780
  433MOL0     C58343   2.568   9.689   4.007  0.4704  0.0363  0.4116
  433MOL0     O58344   2.605   9.778   3.898 -0.5016 -0.5846  0.0605
  433MOL0     C58345   2.568   9.908   3.900 -0.3413 -0.4224  0.1563
  433MOL0     C58346   2.500   9.975   4.003 -0.5306  0.3794  0.6190
  433MOL0     C58347   2.477  10.111   3.997  0.0408 -0.5220 -0.2539
  433MOL0     C58348   2.507  10.192   3.884 -0.5516  0.4123  0.0239
  433MOL0     C58349   2.484  10.338   3.897  0.9529 -0.2577 -0.7524
  433MOL0     O58350   2.536  10.414   3.790  0.3761  0.1044  0.1400
  433MOL0     C58351   2.503  10.545   3.763 -0.3999 -0.6681  0.2801
  433MOL0     C58352   2.522  10.591   3.637 -0.2052 -0.1572  0.4060
  433MOL0     C58353   2.478  10.714   3.595  0.1911  0.2103 -1.1586
  433MOL0     C58354   2.417  10.806   3.680 -0.0622 -0.4455  0.2080
  433MOL0     O58355   2.373  10.921   3.612  1.4126  0.4135  0.4915
  433MOL0     C58356   2.297  11.016   3.693  0.6323  1.1711  0.9246
  433MOL0     C58357   2.292  11.149   3.613  0.7549  0.1078 -0.1738
  433MOL0     C58358   2.433  11.200   3.578  0.3826 -0.0938  0.6927
  433MOL0     C58359   2.414  11.342   3.524  0.5643 -0.3992  0.1260
  433MOL0     C58360   2.488  11.348   3.385  0.3919 -0.2158  0.6805
  433MOL0     C58361   2.395  11.299   3.270 -0.0225  0.4279  0.5010
  433MOL0     C58362   2.466  11.315   3.129 -0.1437 -0.4675  0.4357
  433MOL0     C58363   2.592  11.222   3.099  0.9447 -0.4735 -0.0504
  433MOL0    Cl58364   2.735  11.276   3.202  0.3155 -0.1621 -0.2941
  433MOL0     C58365   2.417  10.776   3.816  0.3645 -0.4197  0.3843
  433MOL0     C58366   2.463  10.642   3.858  0.5301  0.0580  0.2301
  433MOL0     O58367   2.416  10.381   3.991  0.3497 -0.2610 -0.1804
  433MOL0     C58368   2.564  10.129   3.771  0.3756 -0.2029 -0.1673
  433MOL0     C58369   2.598   9.989   3.784 -0.4923  0.0871 -0.8300
  433MOL0     N58370   2.962   9.334   4.272 -0.7627 -0.5780  0.0914
  433MOL0     N58371   3.078   9.346   4.221 -0.0681 -0.6353 -0.2924
  433MOL0     C58372   3.818   8.682   3.492 -0.0048  0.2597  0.5825
  433MOL0     C58373   3.963   8.705   3.465 -0.6555  0.1455 -0.5238
  433MOL0     C58374   4.411   8.873   3.545 -0.8446  0.6443 -0.3324
  433MOL0     C58375   4.427   8.925   3.414 -0.7568  0.5638 -0.3503
  433MOL0     C58376   4.549   8.950   3.357 -0.5294 -0.0677  1.0987
  433MOL0     C58377   4.666   8.935   3.428 -0.4982 -0.5909 -0.8194
  433MOL0     O58378   4.779   8.955   3.358  0.0987 -1.1733  0.6142
  433MOL0     C58379   4.900   8.957   3.437 -0.1290 -0.4867 -0.0575
  433MOL0     C58380   5.009   9.005   3.345 -0.4787 -0.6448 -1.0262
  433MOL0     C58381   5.161   8.983   3.378  0.3893  0.7662 -0.2138
  433MOL0     C58382   5.201   9.052   3.503 -0.4389 -0.5401 -0.1304
  433MOL0     C58383   5.265   8.960   3.606  0.8211  0.0000 -0.8047
  433MOL0     C58384   5.319   8.898   3.697  0.6649  0.5166 -0.0825
  433MOL0     C58385   4.651   8.899   3.563 -0.0574  0.7890 -0.1833
  433MOL0     C58386   4.532   8.876   3.620  0.4511  0.6106  0.5494
  433MOL0     C58387   4.531   8.839   3.772  0.5384  0.7489  1.0103
  433MOL0     H58388   4.038   8.939   3.698  0.0470  0.9881 -0.9713
  433MOL0     H58389   3.808   8.916   3.743 -2.8219 -0.9084 -0.4264
  433MOL0     H58390   3.622   8.837   3.790  0.4443  2.1117  0.2818
  433MOL0     H58391   3.548   8.931   3.645 -3.8026 -2.2706 -3.0058
  433MOL0     H58392   3.443   8.698   3.795 -0.9014  0.4147  1.3151
  433MOL0     H58393   3.377   8.764   3.639  4.0853  0.3936 -2.3222
  433MOL0     H58394   3.418   8.927   3.905 -1.3907 -3.5754  3.8986
  433MOL0     H58395   3.275   8.836   3.876 -0.3079  0.5082 -0.7887
  433MOL0     H58396   3.377   9.082   3.747 -0.1267 -0.5254  0.3827
  433MOL0     H58397   3.247   8.989   3.662 -3.4555  0.3825  0.9966
  433MOL0     H58398   3.136   9.174   3.784  0.9343  0.0734 -0.1291
  433MOL0     H58399   3.099   9.008   3.826 -0.5958 -0.7353  2.7153
  433MOL0     H58400   3.101   9.120   4.028 -0.1695 -0.1811 -0.8456
  433MOL0     H58401   3.244   9.028   4.037 -1.2373 -1.1731 -0.4620
  433MOL0     H58402   3.367   9.248   3.948 -0.6025  0.3325 -1.8462
  433MOL0     H58403   3.302   9.232   4.110 -0.4095  1.1562  0.8402
  433MOL0     H58404   3.252   9.455   4.008  0.7757 -0.3590 -1.3280
  433MOL0     H58405   3.142   9.369   3.896  1.1468 -1.2491 -0.7606
  433MOL0     H58406   2.903   9.439   3.968 -2.4240 -0.3947  0.2861
  433MOL0     H58407   2.687   9.318   4.093  2.3211 -1.1592 -0.0782
  433MOL0     H58408   2.669   9.337   4.264 -3.5393 -0.7347 -2.5216
  433MOL0     H58409   2.569   9.531   4.208 -0.0819  0.0899  0.9485
  433MOL0     H58410   2.734   9.591   4.188 -0.4199 -0.0725  3.3511
  433MOL0     H58411   2.569   9.485   3.951 -3.1925  1.1581  0.8456
  433MOL0     H58412   2.736   9.569   3.956 -0.3796  0.1652  0.0506
  433MOL0     H58413   2.592   9.727   4.107 -2.7036  0.6855  1.0442
  433MOL0     H58414   2.461   9.667   4.001  0.2316  1.5675 -2.7413
  433MOL0     H58415   2.454   9.928   4.089 -4.1456  1.8786 -0.2804
  433MOL0     H58416   2.448  10.163   4.088  2.0619 -1.9066  1.2843
  433MOL0     H58417   2.545  10.511   3.567  0.5761 -0.2640  0.7733
  433MOL0     H58418   2.481  10.747   3.491 -1.4233 -0.9741 -1.6214
  433MOL0     H58419   2.195  10.986   3.721  0.1531  2.9237  1.1899
  433MOL0     H58420   2.352  11.031   3.786  0.3012  1.7322  1.0331
  433MOL0     H58421   2.230  11.153   3.523 -0.1471 -0.4495  0.4063
  433MOL0     H58422   2.229  11.210   3.680 -0.5427 -1.0621 -0.2748
  433MOL0     H58423   2.509  11.189   3.656 -0.2313 -0.1429  1.2826
  433MOL0     H58424   2.461  11.135   3.495 -0.8462 -0.7774  0.7910
  433MOL0     H58425   2.455  11.412   3.598  2.1621 -0.6723 -0.4640
  433MOL0     H58426   2.312  11.371   3.499  0.8903  0.6660 -0.0089
  433MOL0     H58427   2.573  11.281   3.398  0.8933  0.2042 -0.3765
  433MOL0     H58428   2.517  11.452   3.370  3.1058 -1.1296 -1.0505
  433MOL0     H58429   2.365  11.194   3.279  1.6669  0.0770  4.3480
  433MOL0     H58430   2.304  11.360   3.273  0.0821  0.6471 -0.6703
  433MOL0     H58431   2.485  11.419   3.102  0.9514 -1.3042 -2.2479
  433MOL0     H58432   2.387  11.283   3.061 -1.0029  2.4479 -0.0766
  433MOL0     H58433   2.566  11.116   3.110  2.3492 -0.9038 -0.6942
  433MOL0     H58434   2.629  11.238   2.997 -1.1289  3.1781 -0.4159
  433MOL0     H58435   2.380  10.853   3.882  1.3299  0.8826 -0.5378
  433MOL0     H58436   2.449  10.609   3.961 -0.7026 -0.1215  0.0237
  433MOL0     H58437   2.584  10.198   3.690 -3.9718  1.6662  0.0855
  433MOL0     H58438   2.667   9.949   3.711  0.5849 -2.0363  1.2234
  433MOL0     H58439   3.757   8.605   3.447  0.2256 -0.7164  1.9144
  433MOL0     H58440   4.017   8.649   3.389 -2.0289 -0.3799 -1.1598
  433MOL0     H58441   4.342   8.943   3.349 -0.6538 -0.6685 -0.8649
  433MOL0     H58442   4.541   8.985   3.254 -0.2336 -2.7627  0.0708
  433MOL0     H58443   4.921   8.857   3.476  0.0182 -0.0844  0.9244
  433MOL0     H58444   4.891   9.031   3.517 -2.6323  2.2128 -2.6009
  433MOL0     H58445   4.998   9.112   3.324 -0.1839 -0.4415 -0.2153
  433MOL0     H58446   4.980   8.952   3.254  0.1882 -1.4856 -0.7632
  433MOL0     H58447   5.223   9.014   3.293  1.2154 -0.1026  0.0581
  433MOL0     H58448   5.178   8.875   3.385  2.1074  1.0247  0.0174
  433MOL0     H58449   5.269   9.128   3.465  0.7100 -1.1777  0.5813
  433MOL0     H58450   5.111   9.097   3.545  1.0079  0.2291  2.3626
  433MOL0     H58451   5.375   8.847   3.772  0.6353  0.7068  0.0678
  433MOL0     H58452   4.740   8.887   3.624 -0.9093  0.9912  1.1513
  433MOL0     H58453   4.472   8.911   3.828 -2.3974 -0.4133 -0.3424
  433MOL0     H58454   4.489   8.740   3.796  0.4777  0.6839  0.6450
  433MOL0     H58455   4.632   8.845   3.814  0.4032 -0.5023  1.5718
  434MOL0     O58456   2.811  10.186   6.480 -0.5704  0.3377  0.9258
  434MOL0     C58457   2.872  10.079   6.462 -1.1251 -0.4036  0.3051
  434MOL0     O58458   2.835   9.958   6.503 -0.0851 -0.2003  0.0275
  434MOL0     C58459   2.743   9.932   6.603 -0.8525 -0.4068 -0.1774
  434MOL0     C58460   2.723  10.030   6.705  0.0111  0.1495  0.6457
  434MOL0     C58461   2.618  10.013   6.803  0.8143  0.2430 -0.1767
  434MOL0     C58462   2.558   9.890   6.811 -0.1229 -0.4150  0.7722
  434MOL0     O58463   2.465   9.867   6.910  0.3121  0.5505  0.6486
  434MOL0     C58464   2.346   9.796   6.876 -0.2066 -0.5301 -0.1237
  434MOL0     C58465   2.261   9.898   6.795 -0.0642  0.1001  0.6481
  434MOL0     C58466   2.105   9.853   6.794 -1.1901  0.1654 -0.3739
  434MOL0     C58467   2.018   9.913   6.911  0.5629 -0.8292  1.1598
  434MOL0     C58468   1.946  10.050   6.895 -0.3339 -0.2777  0.1846
  434MOL0     C58469   1.853  10.091   7.014 -0.1029  0.0240  0.1181
  434MOL0     C58470   1.756  10.195   6.964  0.0052  0.4505 -0.1135
  434MOL0     C58471   1.828  10.327   6.946  0.5046 -0.3684 -0.2366
  434MOL0     N58472   1.741  10.447   6.904  0.1399  0.4069 -0.7606
  434MOL0     C58473   1.683  10.454   6.786  0.7834 -0.0748 -0.7375
  434MOL0     C58474   1.632  10.585   6.778  0.2196 -0.0322 -1.3886
  434MOL0     C58475   1.547  10.648   6.669  0.5394  0.0104  0.1087
  434MOL0     C58476   1.584  10.794   6.630 -0.0312  0.7494  1.4174
  434MOL0     C58477   1.723  10.815   6.578  0.0638 -1.1314 -0.0246
  434MOL0     C58478   1.770  10.960   6.606 -0.0080 -0.0904  0.3951
  434MOL0     O58479   1.672  11.053   6.557  0.2634  0.3008  0.1884
  434MOL0     C58480   1.655  11.183   6.604 -0.2254  0.0518  0.2999
  434MOL0     C58481   1.722  11.220   6.714  0.1867  1.0108 -0.7255
  434MOL0     C58482   1.694  11.335   6.784  1.7074 -1.6477 -0.7965
  434MOL0     C58483   1.592  11.425   6.737  0.9142 -0.4231 -1.1598
  434MOL0     C58484   1.534  11.546   6.805  0.4524  0.1504 -0.1990
  434MOL0     O58485   1.600  11.599   6.909 -0.4723  0.4994 -0.2884
  434MOL0     C58486   1.579  11.719   6.969 -0.1986 -0.1930  0.4503
  434MOL0     C58487   1.627  11.832   6.912  0.4834 -0.2695  0.3365
  434MOL0     C58488   1.621  11.958   6.965 -0.0728 -1.4768  0.2847
  434MOL0     C58489   1.567  11.970   7.092  0.5801  0.5241 -0.0105
  434MOL0     O58490   1.578  12.098   7.150  0.3194 -0.3936  0.6283
  434MOL0     C58491   1.619  12.115   7.285 -0.3492  1.0450  0.0932
  434MOL0     C58492   1.630  12.267   7.318 -0.5099  0.2237 -0.6213
  434MOL0     C58493   1.698  12.281   7.453  0.5271 -1.1875  0.0493
  434MOL0     C58494   1.646  12.188   7.562 -0.6040  0.9327  0.5301
  434MOL0     C58495   1.689  12.239   7.701 -1.1272 -0.8663  0.0914
  434MOL0     C58496   1.595  12.337   7.765  0.3921  0.9791  0.4695
  434MOL0     C58497   1.662  12.382   7.900  0.2242 -0.5185 -0.9750
  434MOL0     C58498   1.722  12.525   7.883 -0.1422 -0.0493  0.1445
  434MOL0    Cl58499   1.869  12.534   7.778  0.3810  0.0314  0.3297
  434MOL0     C58500   1.534  11.856   7.163 -0.9701 -0.1079 -0.3192
  434MOL0     C58501   1.532  11.732   7.102 -1.0415  0.1922 -1.5918
  434MOL0     O58502   1.441  11.603   6.750  0.6794 -0.3612  0.3227
  434MOL0     C58503   1.527  11.376   6.621  0.5940 -0.5757 -0.3736
  434MOL0     C58504   1.558  11.269   6.547 -0.0068 -0.0727 -0.3097
  434MOL0     N58505   1.646  10.648   6.904  0.2678 -0.2087  0.2693
  434MOL0     N58506   1.717  10.564   6.979  0.1098 -0.7043 -0.7946
  434MOL0     C58507   2.591   9.793   6.718  0.0272  1.4145  0.3668
  434MOL0     C58508   2.664   9.824   6.603 -0.4391  0.1332 -0.6131
  434MOL0     C58509   2.997  10.070   6.380  0.6974 -0.4160 -0.0519
  434MOL0     C58510   3.054  10.189   6.337  0.2864 -0.9417  0.0760
  434MOL0     C58511   3.159  10.195   6.247  0.2814 -0.1198 -0.7647
  434MOL0     C58512   3.209  10.073   6.201 -0.0742  1.0214 -0.2461
  434MOL0     O58513   3.324  10.059   6.131 -0.4340  0.1555 -0.6056
  434MOL0     C58514   3.394  10.173   6.087 -1.1741  0.2919 -0.0538
  434MOL0     C58515   3.323  10.243   5.970  0.6195 -0.8350 -1.6804
  434MOL0     C58516   3.419  10.339   5.903  0.1409 -0.0895  0.2293
  434MOL0     C58517   3.352  10.407   5.784 -0.3661  0.1284 -0.0295
  434MOL0     C58518   3.325  10.314   5.679  0.6818  0.8372  0.2105
  434MOL0     C58519   3.293  10.239   5.591 -0.0307 -0.1766  0.1080
  434MOL0     C58520   3.158   9.952   6.252 -0.1015  0.0462 -0.1305
  434MOL0     C58521   3.051   9.951   6.333 -0.3458  0.3292 -0.1927
  434MOL0     C58522   2.994   9.809   6.350  0.0132 -0.4570  0.2758
  434MOL0     H58523   2.772  10.127   6.699 -0.4795  0.6830  3.7250
  434MOL0     H58524   2.595  10.091   6.875  0.1960 -0.5640  0.5198
  434MOL0     H58525   2.350   9.701   6.822 -1.4112 -0.2153 -0.7996
  434MOL0     H58526   2.297   9.773   6.971 -0.4400  1.3399  0.2501
  434MOL0     H58527   2.298   9.889   6.692 -1.7027  0.4179 -0.0045
  434MOL0     H58528   2.291   9.998   6.829  4.0356 -0.8761  0.3660
  434MOL0     H58529   2.112   9.743   6.796  1.3754  0.2564  1.9829
  434MOL0     H58530   2.060   9.878   6.698 -1.5335 -2.3756 -0.9560
  434MOL0     H58531   1.939   9.841   6.935 -3.1534  2.7835  0.8871
  434MOL0     H58532   2.081   9.928   6.999  1.1749 -0.1895  0.6221
  434MOL0     H58533   2.027  10.123   6.884 -0.0391 -0.8510 -1.8220
  434MOL0     H58534   1.896  10.060   6.798  0.1447 -1.4425 -0.2043
  434MOL0     H58535   1.806  10.000   7.052  2.2473 -1.6820 -0.8359
  434MOL0     H58536   1.910  10.120   7.103  0.4985  0.6289 -0.4564
  434MOL0     H58537   1.667  10.210   7.026 -0.7291  1.6851 -1.3857
  434MOL0     H58538   1.716  10.166   6.866 -1.2347  0.5764  0.3381
  434MOL0     H58539   1.890  10.352   7.032  0.1104  0.7762 -0.2657
  434MOL0     H58540   1.895  10.315   6.860 -0.6323  3.4501 -1.8426
  434MOL0     H58541   1.662  10.384   6.705 -1.1128 -2.0412  1.3251
  434MOL0     H58542   1.564  10.590   6.577 -5.5237 -2.1700 -0.0488
  434MOL0     H58543   1.442  10.640   6.697 -0.3088  0.4559 -2.5838
  434MOL0     H58544   1.518  10.823   6.548  1.4016 -1.9089 -0.8318
  434MOL0     H58545   1.569  10.866   6.711 -1.2003  1.6913  0.3889
  434MOL0     H58546   1.724  10.808   6.469  0.0168 -1.0344 -0.0317
  434MOL0     H58547   1.788  10.738   6.620 -0.2533 -0.6579  1.3938
  434MOL0     H58548   1.865  10.980   6.556  1.5575 -0.4504  3.0595
  434MOL0     H58549   1.790  10.947   6.713  1.5051  1.8139  0.4020
  434MOL0     H58550   1.794  11.151   6.758  0.4159 -0.3663 -3.1161
  434MOL0     H58551   1.749  11.351   6.877  0.0759 -1.0497  0.1172
  434MOL0     H58552   1.672  11.826   6.813 -0.0208 -0.0569  0.0907
  434MOL0     H58553   1.653  12.047   6.912 -4.1762 -0.9220 -1.6152
  434MOL0     H58554   1.555  12.068   7.360  0.3466  1.9940  1.3125
  434MOL0     H58555   1.715  12.064   7.298 -0.7277  0.6196  1.3512
  434MOL0     H58556   1.678  12.327   7.240  0.3187  1.5417  0.8386
  434MOL0     H58557   1.526  12.298   7.328 -0.2173  0.6510  1.7072
  434MOL0     H58558   1.804  12.275   7.428  0.8618  1.4017  0.4992
  434MOL0     H58559   1.672  12.384   7.482 -1.5225 -2.2915  2.5461
  434MOL0     H58560   1.690  12.090   7.544 -3.2925  0.0381 -2.0341
  434MOL0     H58561   1.536  12.188   7.570 -0.6550  1.0868 -0.1283
  434MOL0     H58562   1.794  12.271   7.692 -1.4338  0.1973  0.2107
  434MOL0     H58563   1.700  12.152   7.766  1.5773  0.8724  2.1592
  434MOL0     H58564   1.588  12.425   7.700 -1.2620  1.5148  1.3186
  434MOL0     H58565   1.494  12.304   7.788  0.6593 -0.9647 -0.9669
  434MOL0     H58566   1.742  12.317   7.936  1.1615  0.5590 -1.0336
  434MOL0     H58567   1.586  12.381   7.979  0.0427  0.4029 -1.1258
  434MOL0     H58568   1.648  12.598   7.847  0.6276 -0.3688 -2.3079
  434MOL0     H58569   1.748  12.563   7.982 -0.4642 -1.7396  0.9146
  434MOL0     H58570   1.477  11.854   7.255 -0.8123 -1.2071 -0.2280
  434MOL0     H58571   1.512  11.641   7.156  1.7808  0.2332 -0.2785
  434MOL0     H58572   1.448  11.434   6.575  1.5251  0.2164 -0.9988
  434MOL0     H58573   1.502  11.221   6.467  0.6312 -0.9972 -0.2166
  434MOL0     H58574   2.540   9.697   6.730 -2.3940  2.1321 -2.6852
  434MOL0     H58575   2.663   9.737   6.539 -3.6899 -0.2038 -0.3036
  434MOL0     H58576   3.014  10.284   6.372 -2.6691 -2.1637  0.3826
  434MOL0     H58577   3.189  10.297   6.226 -3.7416  1.2679 -0.5121
  434MOL0     H58578   3.486  10.133   6.042 -1.3499  0.9020 -0.9680
  434MOL0     H58579   3.418  10.240   6.170 -0.4718  0.7968 -0.6522
  434MOL0     H58580   3.228  10.290   5.997 -0.1724 -1.5849 -3.0411
  434MOL0     H58581   3.290  10.162   5.904 -3.4392  1.6499 -3.1065
  434MOL0     H58582   3.513  10.290   5.876 -0.2662 -0.9552  0.3760
  434MOL0     H58583   3.446  10.421   5.970  2.2360  1.2551 -2.0563
  434MOL0     H58584   3.258  10.452   5.816  0.8849  0.7239  3.1611
  434MOL0     H58585   3.420  10.484   5.746  1.0864 -0.4377  1.3357
  434MOL0     H58586   3.279  10.174   5.507  2.4400  0.9407 -1.2653
  434MOL0     H58587   3.212   9.860   6.230  0.5314  0.6980 -1.4254
  434MOL0     H58588   3.044   9.735   6.286 -0.7006 -1.1036  0.4389
  434MOL0     H58589   3.007   9.770   6.451 -4.2029  1.4243  1.7834
  434MOL0     H58590   2.889   9.800   6.320 -0.0630 -1.9020  0.8909
  435MOL0     O58591   8.268   4.913   0.128 -0.2024  0.3896  0.5339
  435MOL0     C58592   8.206   4.858   0.213 -0.7264  0.1095  0.2710
  435MOL0     O58593   8.076   4.887   0.261  0.3232  0.6856  0.0444
  435MOL0     C58594   8.012   4.972   0.176  0.5121 -0.6276 -1.1021
  435MOL0     C58595   8.044   5.110   0.181 -0.1875 -0.5650  0.8013
  435MOL0     C58596   7.985   5.202   0.095 -0.4847 -0.3586 -0.2402
  435MOL0     C58597   7.874   5.166   0.011  0.1730  0.1361 -0.1971
  435MOL0     O58598   7.804   5.260  -0.054  0.1053  0.1159  0.1462
  435MOL0     C58599   7.774   5.216  -0.190  0.2138  0.0456  0.0898
  435MOL0     C58600   7.626   5.192  -0.209  1.1832  0.5596  0.7722
  435MOL0     C58601   7.557   5.298  -0.295 -0.1614 -0.5005  0.0470
  435MOL0     C58602   7.411   5.262  -0.344 -1.0324 -0.8470  0.3603
  435MOL0     C58603   7.314   5.271  -0.230 -0.2277  0.2039 -1.5263
  435MOL0     C58604   7.181   5.204  -0.291 -0.7043  0.5995  0.1004
  435MOL0     C58605   7.055   5.263  -0.227  0.0164  0.3851  0.0012
  435MOL0     C58606   7.013   5.189  -0.096 -1.2573 -0.1479 -0.4746
  435MOL0     N58607   7.075   5.239   0.028  0.7745 -0.1574 -0.0715
  435MOL0     C58608   7.027   5.336   0.114  0.2046 -0.3058 -1.1628
  435MOL0     C58609   7.104   5.319   0.225 -0.0680 -0.6878 -0.2158
  435MOL0     C58610   7.077   5.375   0.364 -0.1160 -0.8022  0.3302
  435MOL0     C58611   6.998   5.276   0.453 -0.4834 -0.2730 -0.1462
  435MOL0     C58612   7.013   5.331   0.595 -0.4216 -0.0617 -0.8362
  435MOL0     C58613   6.934   5.262   0.702 -0.1100 -0.3830 -0.5744
  435MOL0     O58614   6.809   5.210   0.643  0.1196 -0.7097 -0.1833
  435MOL0     C58615   6.699   5.280   0.688 -0.1874  0.6033  0.2916
  435MOL0     C58616   6.679   5.415   0.664 -0.0312  0.0710  0.8699
  435MOL0     C58617   6.556   5.478   0.692  1.3237  0.6409 -0.1244
  435MOL0     C58618   6.458   5.406   0.768 -0.9531 -0.8343  0.6191
  435MOL0     C58619   6.332   5.487   0.809 -0.2676  0.2450  0.3691
  435MOL0     O58620   6.324   5.614   0.757  0.5883  0.0126 -0.2486
  435MOL0     C58621   6.223   5.693   0.803  0.3051 -0.1685 -0.3650
  435MOL0     C58622   6.089   5.662   0.785  0.5216  0.2873  0.9992
  435MOL0     C58623   5.984   5.751   0.829  0.2163 -0.1168  0.6428
  435MOL0     C58624   6.025   5.879   0.877 -0.1749 -0.0812  0.4337
  435MOL0     O58625   5.943   5.968   0.931  0.1927  0.1745 -0.2626
  435MOL0     C58626   5.845   5.919   1.026 -0.3276  0.2483 -0.0381
  435MOL0     C58627   5.713   5.989   0.995  0.6808 -0.1128  0.4411
  435MOL0     C58628   5.692   6.132   1.046 -0.1445  0.4706 -0.0904
  435MOL0     C58629   5.553   6.169   1.003 -0.3079  0.0045 -0.2850
  435MOL0     C58630   5.475   6.225   1.122  0.3298  0.6346  0.2361
  435MOL0     C58631   5.416   6.110   1.202  0.1533 -0.4860  0.8980
  435MOL0     C58632   5.301   6.027   1.122 -0.3845 -0.1297 -0.2827
  435MOL0     C58633   5.250   5.907   1.206  1.2106 -0.1762  0.0254
  435MOL0    Cl58634   5.148   5.827   1.084  0.2605 -0.4423  0.4043
  435MOL0     C58635   6.159   5.908   0.883 -0.0969 -0.2396 -0.0090
  435MOL0     C58636   6.257   5.820   0.840 -0.0491  0.2297  0.0049
  435MOL0     O58637   6.256   5.423   0.879 -0.0326  0.0652 -0.0267
  435MOL0     C58638   6.488   5.281   0.800  0.8762 -0.6858 -0.2869
  435MOL0     C58639   6.604   5.210   0.759  0.5414 -0.3444 -0.0502
  435MOL0     N58640   7.198   5.226   0.200  0.4947  0.0376 -0.6133
  435MOL0     N58641   7.183   5.181   0.088  0.6309 -0.0873  0.2773
  435MOL0     C58642   7.836   5.029   0.018  0.8697  0.2641  0.0311
  435MOL0     C58643   7.901   4.939   0.097 -0.9476  0.3966 -0.2455
  435MOL0     C58644   8.274   4.763   0.302 -0.2166 -0.7245  0.8194
  435MOL0     C58645   8.256   4.770   0.433 -0.1084  0.3289 -0.9364
  435MOL0     C58646   8.305   4.677   0.530 -0.2848 -1.0154  0.0464
  435MOL0     C58647   8.403   4.591   0.494  0.4029 -0.0233 -0.2043
  435MOL0     O58648   8.458   4.521   0.603 -0.0439  0.1455 -0.4426
  435MOL0     C58649   8.572   4.438   0.571  1.2788 -0.8201  0.3977
  435MOL0     C58650   8.639   4.409   0.695 -1.0456 -0.4957 -0.2145
  435MOL0     C58651   8.686   4.263   0.707 -1.8097  0.1616 -0.3417
  435MOL0     C58652   8.778   4.247   0.827  0.1343  0.9188 -0.4710
  435MOL0     C58653   8.763   4.119   0.883  0.1547  0.3492 -0.4342
  435MOL0     C58654   8.745   4.020   0.949  1.0780  0.2802  0.1293
  435MOL0     C58655   8.441   4.592   0.364 -0.2596 -0.0492  0.2954
  435MOL0     C58656   8.393   4.689   0.268  0.2165 -0.6268 -0.0329
  435MOL0     C58657   8.444   4.691   0.124  0.6549  0.0190  0.2646
  435MOL0     H58658   8.117   5.140   0.256  0.5594  1.2800 -0.6016
  435MOL0     H58659   8.015   5.307   0.095 -0.4490 -0.3482 -1.5838
  435MOL0     H58660   7.810   5.296  -0.255  2.0765  1.1601  2.3332
  435MOL0     H58661   7.840   5.131  -0.207  0.6717  0.5419 -0.6896
  435MOL0     H58662   7.587   5.177  -0.107  0.7469 -5.3789  0.0604
  435MOL0     H58663   7.610   5.097  -0.261 -1.1860  3.3050 -4.2169
  435MOL0     H58664   7.623   5.316  -0.381  3.3249 -0.9100  2.4389
  435MOL0     H58665   7.544   5.392  -0.241  1.7266  1.6616 -2.9574
  435MOL0     H58666   7.395   5.333  -0.426  1.1187  0.2293  0.8093
  435MOL0     H58667   7.424   5.162  -0.386 -3.8297 -1.0298 -0.2794
  435MOL0     H58668   7.343   5.220  -0.138 -2.9773  1.9713  0.4455
  435MOL0     H58669   7.285   5.374  -0.207 -1.3615 -0.5234  0.5155
  435MOL0     H58670   7.172   5.213  -0.400 -5.3618 -0.8334  0.1224
  435MOL0     H58671   7.182   5.095  -0.279 -3.1170  0.7096  2.4369
  435MOL0     H58672   6.975   5.267  -0.302  2.0280  5.6740 -2.3352
  435MOL0     H58673   7.065   5.368  -0.200  0.1466  0.1113  1.0685
  435MOL0     H58674   6.908   5.204  -0.070 -1.1699 -0.0086 -0.2035
  435MOL0     H58675   7.043   5.085  -0.111  0.1835  0.2581 -0.5613
  435MOL0     H58676   6.939   5.398   0.100  0.8257  0.7220 -0.6254
  435MOL0     H58677   7.173   5.404   0.408 -0.9089 -1.2686  2.4709
  435MOL0     H58678   7.019   5.467   0.356 -0.8020 -1.2758 -0.2475
  435MOL0     H58679   6.899   5.282   0.408  1.0829  3.6784 -3.6943
  435MOL0     H58680   7.046   5.178   0.442  0.5188  0.0187  1.3070
  435MOL0     H58681   6.978   5.435   0.596  0.1329  0.1545  1.9861
  435MOL0     H58682   7.119   5.332   0.621 -0.6086 -1.8496  0.1500
  435MOL0     H58683   6.921   5.334   0.783 -0.3383 -0.5357 -0.4758
  435MOL0     H58684   6.990   5.178   0.743  0.4216 -0.0241 -0.5535
  435MOL0     H58685   6.751   5.474   0.608  0.1351  0.1264  1.1406
  435MOL0     H58686   6.544   5.580   0.656 -0.9122 -0.1678 -1.9299
  435MOL0     H58687   6.040   5.576   0.740  3.9740 -0.9048 -0.8619
  435MOL0     H58688   5.881   5.717   0.829  0.1040  0.1895 -0.3592
  435MOL0     H58689   5.834   5.811   1.036  1.0730  0.1420  0.5237
  435MOL0     H58690   5.883   5.951   1.124  2.1267  0.4933 -1.0184
  435MOL0     H58691   5.696   5.984   0.888  2.4185 -0.8493  0.1589
  435MOL0     H58692   5.637   5.927   1.044  1.7053 -1.8409 -0.0539
  435MOL0     H58693   5.703   6.150   1.153 -2.0538 -0.9665  0.3957
  435MOL0     H58694   5.759   6.198   0.990 -1.1653  0.4469 -1.3841
  435MOL0     H58695   5.487   6.101   0.949 -2.4692  0.8446  1.1398
  435MOL0     H58696   5.557   6.262   0.945  1.4863  0.0264 -0.1849
  435MOL0     H58697   5.387   6.284   1.095  0.1965 -0.7355 -2.7588
  435MOL0     H58698   5.541   6.290   1.180 -0.3573  3.8655 -2.2625
  435MOL0     H58699   5.498   6.042   1.228 -0.6684 -2.3868 -1.1390
  435MOL0     H58700   5.381   6.147   1.299 -0.1813  0.6100  0.3692
  435MOL0     H58701   5.351   5.980   1.037 -0.1534 -1.3815  0.5229
  435MOL0     H58702   5.212   6.085   1.098  1.0626  1.5626 -1.8999
  435MOL0     H58703   5.340   5.846   1.219  1.8672  0.7050 -0.2910
  435MOL0     H58704   5.199   5.928   1.300  0.7485 -3.2850  0.5775
  435MOL0     H58705   6.194   6.007   0.912 -0.1314  0.4138 -2.0648
  435MOL0     H58706   6.362   5.847   0.849 -0.1658  0.1211  2.5405
  435MOL0     H58707   6.402   5.232   0.846 -1.4331  3.9425  0.9990
  435MOL0     H58708   6.617   5.103   0.774 -2.3472 -0.5112  2.2047
  435MOL0     H58709   7.745   4.993  -0.029  1.2322 -2.2980  1.0931
  435MOL0     H58710   7.865   4.837   0.082  0.4579  0.3032 -4.0371
  435MOL0     H58711   8.191   4.847   0.472  0.5478  0.9701 -1.0965
  435MOL0     H58712   8.299   4.686   0.638 -0.0418 -0.8835  0.0482
  435MOL0     H58713   8.638   4.497   0.507  0.6863 -0.4650  0.1045
  435MOL0     H58714   8.555   4.344   0.518  3.3404 -1.4505  0.7535
  435MOL0     H58715   8.585   4.435   0.787  2.0899 -0.3908  1.7456
  435MOL0     H58716   8.724   4.479   0.696 -2.4044  1.3368 -2.3979
  435MOL0     H58717   8.746   4.242   0.619 -1.2854 -0.7394  0.2130
  435MOL0     H58718   8.606   4.188   0.710  0.3010 -2.2018  0.7626
  435MOL0     H58719   8.881   4.250   0.791  0.7178 -3.0791  0.3395
  435MOL0     H58720   8.766   4.314   0.912  4.2971 -0.0197  1.1161
  435MOL0     H58721   8.719   3.932   1.005 -5.1533  1.3807 -0.3376
  435MOL0     H58722   8.516   4.521   0.329 -1.3290 -0.3286 -1.5727
  435MOL0     H58723   8.520   4.766   0.102 -0.5520  1.1220 -0.2762
  435MOL0     H58724   8.484   4.593   0.096 -1.2401 -0.2581 -1.7495
  435MOL0     H58725   8.356   4.699   0.059  1.1606  1.1476 -0.3143
  436MOL0     O58726   0.492   0.844   5.109  0.4106 -0.4266  0.2949
  436MOL0     C58727   0.546   0.812   5.215 -0.3807 -0.4394  1.3505
  436MOL0     O58728   0.681   0.780   5.221  0.0500 -0.7980 -0.5201
  436MOL0     C58729   0.769   0.775   5.117  0.1197  0.4572  0.2444
  436MOL0     C58730   0.900   0.740   5.159  0.2153  0.2240  0.0397
  436MOL0     C58731   1.011   0.727   5.075 -0.7059  0.3910 -1.1984
  436MOL0     C58732   0.980   0.732   4.935  0.3937  0.4911 -0.7695
  436MOL0     O58733   1.069   0.707   4.827 -0.4410  0.5388 -0.3309
  436MOL0     C58734   1.208   0.694   4.863  0.4069 -0.8088  0.2564
  436MOL0     C58735   1.289   0.667   4.730 -1.2216  0.0815 -0.1253
  436MOL0     C58736   1.429   0.624   4.765 -0.6720  0.2219  1.0049
  436MOL0     C58737   1.511   0.743   4.809 -0.8290 -0.3880 -0.0060
  436MOL0     C58738   1.650   0.681   4.866  0.1984  1.4388  0.4744
  436MOL0     C58739   1.622   0.592   4.987 -0.2575 -0.4749 -0.7714
  436MOL0     C58740   1.741   0.599   5.086  0.8397 -0.3751 -0.0348
  436MOL0     C58741   1.706   0.524   5.212  0.1795 -0.2114  0.4614
  436MOL0     N58742   1.821   0.540   5.300  0.0701  0.5633  0.1976
  436MOL0     C58743   1.941   0.465   5.292  0.0543  0.3935  0.6838
  436MOL0     C58744   2.024   0.516   5.385  0.4224 -0.3528  0.3751
  436MOL0     C58745   2.152   0.443   5.425 -0.7066  0.3678 -0.3611
  436MOL0     C58746   2.285   0.521   5.458 -0.3211 -0.9752  0.0272
  436MOL0     C58747   2.359   0.458   5.578  0.0335 -0.4250 -0.5615
  436MOL0     C58748   2.277   0.455   5.713 -0.7168 -0.2925 -0.2943
  436MOL0     O58749   2.346   0.387   5.813 -0.8523 -0.7440  0.1992
  436MOL0     C58750   2.332   0.255   5.844  0.6256  0.3170  0.5695
  436MOL0     C58751   2.401   0.209   5.955 -0.4634  0.3988  0.3842
  436MOL0     C58752   2.373   0.077   5.988 -0.3262 -1.0013  0.0955
  436MOL0     C58753   2.295  -0.020   5.914  0.3087 -0.6145  0.6736
  436MOL0     C58754   2.285  -0.166   5.959 -1.2565  0.1009  0.5546
  436MOL0     O58755   2.229  -0.259   5.874 -0.0477 -0.4135 -0.3281
  436MOL0     C58756   2.263  -0.394   5.908 -0.1008 -0.8716  0.4285
  436MOL0     C58757   2.154  -0.487   5.941 -0.8504  0.6273 -0.7032
  436MOL0     C58758   2.184  -0.628   5.937 -0.4548  0.1697 -0.6007
  436MOL0     C58759   2.318  -0.672   5.928 -0.0485  0.5163 -0.6438
  436MOL0     O58760   2.319  -0.811   5.926  0.4452 -0.3085  0.4198
  436MOL0     C58761   2.444  -0.873   5.965  1.3357  0.6580  0.1930
  436MOL0     C58762   2.421  -1.015   5.988  0.0277 -0.0687 -0.4215
  436MOL0     C58763   2.373  -1.047   6.133 -1.1046 -0.5838 -0.5416
  436MOL0     C58764   2.329  -1.198   6.133 -0.2081  0.2877  0.2998
  436MOL0     C58765   2.276  -1.224   6.271  0.4891  0.2847 -1.2784
  436MOL0     C58766   2.231  -1.370   6.295 -0.4359  0.0261  0.0631
  436MOL0     C58767   2.209  -1.399   6.447  0.5364  0.0543  0.5105
  436MOL0     C58768   2.087  -1.337   6.513  0.5562  0.2499  0.4515
  436MOL0    Cl58769   1.944  -1.336   6.403  0.2863  0.2386  0.2456
  436MOL0     C58770   2.419  -0.582   5.904  0.2812 -0.1580  0.1764
  436MOL0     C58771   2.397  -0.445   5.886  0.6186 -0.7388  0.2370
  436MOL0     O58772   2.350  -0.192   6.058  0.2162  0.2616 -0.9368
  436MOL0     C58773   2.246   0.027   5.792  1.0539 -0.1424  0.4034
  436MOL0     C58774   2.260   0.163   5.761 -0.1602  0.2001 -0.5033
  436MOL0     N58775   1.959   0.632   5.443 -0.5954  0.4064 -0.0772
  436MOL0     N58776   1.840   0.635   5.387  0.5931  0.0369 -1.3704
  436MOL0     C58777   0.850   0.766   4.894 -0.7736  0.2765  0.6029
  436MOL0     C58778   0.753   0.799   4.983  0.2661  0.2953 -0.3507
  436MOL0     C58779   0.473   0.814   5.339  1.1220 -0.7779  0.2810
  436MOL0     C58780   0.541   0.850   5.460 -1.5341  0.4426 -0.3836
  436MOL0     C58781   0.482   0.844   5.588  0.4563 -0.3772 -0.0038
  436MOL0     C58782   0.353   0.786   5.602 -0.2977 -0.1244 -0.3619
  436MOL0     O58783   0.285   0.766   5.725 -0.1701  0.3480  0.1870
  436MOL0     C58784   0.349   0.838   5.833 -0.4670  0.0618 -0.6072
  436MOL0     C58785   0.257   0.843   5.960  0.5515  0.2777 -0.2601
  436MOL0     C58786   0.224   0.704   6.011 -0.0862 -0.2130  0.4451
  436MOL0     C58787   0.145   0.720   6.135  0.2491  0.2527 -0.2155
  436MOL0     C58788   0.004   0.767   6.114 -0.1136  0.0167  0.0149
  436MOL0     C58789  -0.106   0.799   6.080 -0.8495 -0.1809 -0.4187
  436MOL0     C58790   0.286   0.756   5.481  0.4260 -0.2491 -0.0103
  436MOL0     C58791   0.337   0.780   5.355  0.0289  1.3430  0.6426
  436MOL0     C58792   0.256   0.735   5.235 -1.0500 -0.3672  0.0364
  436MOL0     H58793   0.918   0.725   5.265 -3.7787 -1.9616  0.6052
  436MOL0     H58794   1.106   0.691   5.114 -0.2313  3.2344  0.5584
  436MOL0     H58795   1.248   0.781   4.915 -2.2552  0.3193  0.5677
  436MOL0     H58796   1.221   0.608   4.930  0.3293 -1.5195 -0.6109
  436MOL0     H58797   1.291   0.749   4.658  2.3817  0.4580  0.1926
  436MOL0     H58798   1.249   0.587   4.668  2.5409 -0.7047 -1.8350
  436MOL0     H58799   1.466   0.591   4.668  0.0848 -3.3153  2.3140
  436MOL0     H58800   1.419   0.533   4.825 -0.8364 -1.0077 -0.7945
  436MOL0     H58801   1.526   0.803   4.719  0.6028 -3.2461 -1.8142
  436MOL0     H58802   1.462   0.785   4.898  1.8738 -0.9927  1.8721
  436MOL0     H58803   1.698   0.624   4.786  2.8029  3.4374  0.5051
  436MOL0     H58804   1.716   0.762   4.898  0.0514  1.1740  1.4870
  436MOL0     H58805   1.540   0.634   5.045 -1.2616  0.6516 -2.9048
  436MOL0     H58806   1.617   0.492   4.942 -0.0432 -1.6883  1.7375
  436MOL0     H58807   1.743   0.705   5.113 -1.9944 -0.8442  2.5386
  436MOL0     H58808   1.835   0.558   5.046  0.6601 -1.9177  1.0310
  436MOL0     H58809   1.610   0.549   5.258 -0.1023  3.1023 -1.5839
  436MOL0     H58810   1.693   0.420   5.181 -1.0062 -0.1701  0.7425
  436MOL0     H58811   1.961   0.380   5.228 -3.5986  0.0706 -0.2440
  436MOL0     H58812   2.114   0.380   5.506 -2.2433  2.4566  0.6711
  436MOL0     H58813   2.189   0.382   5.343 -1.8525  3.1054 -3.1093
  436MOL0     H58814   2.347   0.533   5.368 -3.4360  0.4779 -2.1397
  436MOL0     H58815   2.257   0.622   5.488  0.1238 -0.9545  0.3828
  436MOL0     H58816   2.449   0.515   5.605 -0.3989 -0.4914  1.1774
  436MOL0     H58817   2.384   0.356   5.547  2.0725  0.5119 -2.2765
  436MOL0     H58818   2.179   0.409   5.697  0.1505 -1.3619 -3.1033
  436MOL0     H58819   2.265   0.560   5.742  1.6496 -0.4079  1.3889
  436MOL0     H58820   2.466   0.272   6.015  2.5104 -1.9647 -0.0898
  436MOL0     H58821   2.419   0.051   6.084  0.0036  2.2993  0.9556
  436MOL0     H58822   2.055  -0.446   5.960 -0.0359  2.2691  0.2631
  436MOL0     H58823   2.097  -0.692   5.947 -1.7813  1.8138 -1.1726
  436MOL0     H58824   2.501  -0.864   5.872  0.8361  0.7268 -0.1086
  436MOL0     H58825   2.493  -0.814   6.044 -0.3533  3.3773 -0.6368
  436MOL0     H58826   2.337  -1.052   5.928  0.2023 -2.1220  0.4929
  436MOL0     H58827   2.508  -1.079   5.971  0.3286 -0.2591  1.6072
  436MOL0     H58828   2.449  -1.022   6.207 -2.8196 -2.0414  1.8791
  436MOL0     H58829   2.279  -0.998   6.160  0.2220  0.4822  2.5025
  436MOL0     H58830   2.405  -1.265   6.092  1.6762  0.9736  2.4376
  436MOL0     H58831   2.244  -1.208   6.065  1.2270  0.4716 -1.6251
  436MOL0     H58832   2.189  -1.159   6.288  0.9767  0.0485  3.5598
  436MOL0     H58833   2.352  -1.194   6.345  0.2541 -1.6340 -0.1842
  436MOL0     H58834   2.155  -1.400   6.222  0.3545  0.2566 -0.8786
  436MOL0     H58835   2.313  -1.441   6.277  1.4245  1.6602  1.5963
  436MOL0     H58836   2.301  -1.380   6.502  0.1793 -0.0158  1.1433
  436MOL0     H58837   2.191  -1.507   6.454  4.4676 -0.8477 -0.7343
  436MOL0     H58838   2.062  -1.385   6.608  0.2661  1.7338  1.1605
  436MOL0     H58839   2.102  -1.232   6.538 -1.7946  0.4233  1.3708
  436MOL0     H58840   2.519  -0.617   5.881  0.6358  1.4441 -0.8438
  436MOL0     H58841   2.464  -0.372   5.841 -1.3226  1.3198  0.5246
  436MOL0     H58842   2.195  -0.032   5.716  2.7683 -0.4547 -0.5659
  436MOL0     H58843   2.211   0.211   5.677 -1.9547  1.0507  0.9348
  436MOL0     H58844   0.846   0.778   4.786 -0.2612  0.4970  0.6018
  436MOL0     H58845   0.664   0.821   4.924  0.7209  0.2205 -1.0744
  436MOL0     H58846   0.647   0.874   5.462 -1.2952 -0.6217  1.1880
  436MOL0     H58847   0.551   0.851   5.672  1.1702 -2.2008 -0.3818
  436MOL0     H58848   0.390   0.937   5.808  2.9789 -1.4416 -1.4195
  436MOL0     H58849   0.439   0.786   5.865 -1.0121  0.4602  1.8336
  436MOL0     H58850   0.162   0.892   5.937 -0.0666  0.2721  2.0334
  436MOL0     H58851   0.310   0.901   6.035  2.2834 -0.5389 -0.8068
  436MOL0     H58852   0.315   0.646   6.023 -0.3721 -0.6272  0.6169
  436MOL0     H58853   0.162   0.662   5.931  1.4412 -1.4552 -0.1353
  436MOL0     H58854   0.123   0.626   6.187  1.9405  1.4646  2.9135
  436MOL0     H58855   0.208   0.778   6.202  0.7640 -1.5359  0.9011
  436MOL0     H58856  -0.198   0.828   6.033 -0.0773  2.2042 -0.5708
  436MOL0     H58857   0.189   0.706   5.477  1.1781 -1.8444  0.5495
  436MOL0     H58858   0.160   0.695   5.268 -0.1859 -1.3673  1.4785
  436MOL0     H58859   0.232   0.815   5.165 -0.8752  1.4018  1.9215
  436MOL0     H58860   0.311   0.657   5.181 -0.5427 -0.3795  0.5577
  437MOL0     O58861   5.144   5.301   7.472  0.1867 -0.8035 -0.6535
  437MOL0     C58862   5.026   5.272   7.480 -0.1357 -0.1116  0.5027
  437MOL0     O58863   4.925   5.303   7.392  0.5047  0.0676  0.3211
  437MOL0     C58864   4.953   5.392   7.282 -0.9589 -0.0738  0.6348
  437MOL0     C58865   5.016   5.516   7.307 -0.7337 -0.0600  0.1451
  437MOL0     C58866   5.021   5.617   7.211 -1.1636  1.0535  0.4112
  437MOL0     C58867   4.953   5.607   7.082 -1.0469 -0.3673  0.6702
  437MOL0     O58868   4.944   5.718   7.001 -0.2832  0.0136  0.9380
  437MOL0     C58869   4.927   5.711   6.863  0.3498 -0.3054  0.7776
  437MOL0     C58870   5.059   5.655   6.796  0.7394  1.0439 -0.4407
  437MOL0     C58871   5.056   5.654   6.645 -0.8348 -0.0347  0.1574
  437MOL0     C58872   5.105   5.522   6.590 -0.7507 -0.3472 -0.2404
  437MOL0     C58873   5.255   5.483   6.632 -0.3996 -0.0591  0.0953
  437MOL0     C58874   5.362   5.594   6.601 -0.3796  0.5178 -0.3635
  437MOL0     C58875   5.374   5.647   6.459 -0.8987 -0.7024 -0.4139
  437MOL0     C58876   5.499   5.743   6.458  0.1096 -0.6597  0.7920
  437MOL0     N58877   5.629   5.681   6.427  0.1796  0.0794  0.8615
  437MOL0     C58878   5.658   5.638   6.300 -0.2410  1.1002  0.3934
  437MOL0     C58879   5.801   5.605   6.300 -0.0836 -0.3916 -0.2576
  437MOL0     C58880   5.883   5.543   6.196 -0.5059  0.0949  0.0451
  437MOL0     C58881   5.855   5.581   6.049  0.5048 -0.9525  0.4486
  437MOL0     C58882   5.895   5.738   6.030 -0.1618  0.6322  0.4066
  437MOL0     C58883   5.836   5.798   5.904  0.1499 -0.1350  0.4669
  437MOL0     O58884   5.701   5.748   5.865 -0.0916 -0.0858 -0.0966
  437MOL0     C58885   5.594   5.784   5.949  0.5666  0.4568  0.0845
  437MOL0     C58886   5.476   5.716   5.924  1.0298 -0.6003 -0.5260
  437MOL0     C58887   5.362   5.744   6.001  0.1077  0.3103 -0.1355
  437MOL0     C58888   5.354   5.846   6.099 -0.5471 -0.1498  0.3857
  437MOL0     C58889   5.230   5.875   6.171 -0.2130  0.5115  0.2819
  437MOL0     O58890   5.108   5.843   6.113  0.0153 -0.5545  0.1132
  437MOL0     C58891   5.001   5.874   6.184  0.6708 -0.7546 -0.1974
  437MOL0     C58892   4.965   5.788   6.292  1.6883  0.0219 -0.8444
  437MOL0     C58893   4.844   5.826   6.357  0.1318  0.7045  0.0004
  437MOL0     C58894   4.750   5.921   6.313  0.1127  0.1106  1.0471
  437MOL0     O58895   4.624   5.946   6.361  0.1210  1.0198  1.1190
  437MOL0     C58896   4.536   5.836   6.388 -0.6959  0.0920  0.5274
  437MOL0     C58897   4.399   5.898   6.390  0.5674  0.1238 -0.4070
  437MOL0     C58898   4.293   5.792   6.423  0.9121 -0.2189  0.6341
  437MOL0     C58899   4.265   5.815   6.573  0.4984 -0.3288  0.2650
  437MOL0     C58900   4.180   5.702   6.635  0.0103  0.1963 -0.9794
  437MOL0     C58901   4.032   5.706   6.566 -0.1195 -0.1471 -0.1641
  437MOL0     C58902   3.936   5.613   6.637 -0.0787  0.5588  0.2647
  437MOL0     C58903   3.979   5.462   6.651  0.3271 -0.3941 -0.5438
  437MOL0    Cl58904   3.836   5.355   6.658 -0.1470 -0.2978  0.0040
  437MOL0     C58905   4.799   6.008   6.216  0.4821 -1.2674 -0.6807
  437MOL0     C58906   4.917   5.985   6.147  0.5083 -0.4549 -0.6139
  437MOL0     O58907   5.244   5.895   6.293 -0.3363 -0.1607  0.7661
  437MOL0     C58908   5.478   5.927   6.108  0.0073 -0.1072  0.2460
  437MOL0     C58909   5.589   5.893   6.037 -0.6461 -0.7856  0.3456
  437MOL0     N58910   5.839   5.628   6.435  0.0225  0.8496 -0.5382
  437MOL0     N58911   5.736   5.658   6.505 -1.2618 -0.5921  0.1163
  437MOL0     C58912   4.898   5.483   7.053  0.2304 -0.2811  0.3513
  437MOL0     C58913   4.898   5.381   7.155  0.5241  0.3683 -0.0397
  437MOL0     C58914   4.987   5.181   7.587 -0.8240  0.1600 -0.3880
  437MOL0     C58915   5.058   5.061   7.591 -0.4223 -0.6452 -0.5703
  437MOL0     C58916   5.021   4.957   7.675  0.0846  0.2791  0.4115
  437MOL0     C58917   4.921   4.972   7.769 -0.0885  1.0997  0.0182
  437MOL0     O58918   4.896   4.858   7.848  0.5771  0.4498  0.3358
  437MOL0     C58919   4.760   4.825   7.896  0.5539 -0.1988 -0.0147
  437MOL0     C58920   4.731   4.877   8.039 -0.9630  0.2762  0.3893
  437MOL0     C58921   4.591   4.824   8.056 -0.2691 -0.4133 -0.1817
  437MOL0     C58922   4.538   4.852   8.201 -0.1223 -0.8107  0.0961
  437MOL0     C58923   4.398   4.804   8.249 -1.0817  0.6135  0.6294
  437MOL0     C58924   4.283   4.763   8.277 -0.9263 -0.2709 -0.5265
  437MOL0     C58925   4.843   5.090   7.768  0.0721  0.3095  0.3505
  437MOL0     C58926   4.881   5.200   7.678 -0.7308 -0.3333 -0.0317
  437MOL0     C58927   4.799   5.332   7.675 -0.3258  0.6240  0.2742
  437MOL0     H58928   5.066   5.527   7.403 -0.2244  0.4329 -0.1723
  437MOL0     H58929   5.090   5.692   7.248  2.1135 -2.2491  1.6440
  437MOL0     H58930   4.839   5.649   6.843 -2.0022  3.5000 -1.9809
  437MOL0     H58931   4.915   5.809   6.816  3.4573  0.5540  1.5235
  437MOL0     H58932   5.075   5.556   6.839 -0.7796  0.3692 -1.3612
  437MOL0     H58933   5.138   5.727   6.821  0.9678  0.2342  1.3122
  437MOL0     H58934   5.127   5.729   6.610  0.7133 -1.7777 -0.5973
  437MOL0     H58935   4.958   5.684   6.606 -0.7114  2.4160  1.5512
  437MOL0     H58936   5.033   5.444   6.614 -0.5499  0.0123  1.7684
  437MOL0     H58937   5.098   5.539   6.483 -2.2836  1.5078  0.1094
  437MOL0     H58938   5.249   5.460   6.739 -3.9546  3.4985  0.9005
  437MOL0     H58939   5.289   5.390   6.585  1.8008  0.6831  0.0971
  437MOL0     H58940   5.349   5.676   6.672 -3.0385 -0.0692 -0.0901
  437MOL0     H58941   5.454   5.543   6.631 -0.5585  0.0723 -0.5734
  437MOL0     H58942   5.279   5.695   6.436 -0.1486  0.9960 -0.0849
  437MOL0     H58943   5.382   5.558   6.395 -1.1086 -1.2155  0.2590
  437MOL0     H58944   5.487   5.808   6.370 -3.1936 -3.1559 -0.8299
  437MOL0     H58945   5.511   5.789   6.557  0.8464  0.8729  0.0313
  437MOL0     H58946   5.594   5.643   6.213  1.9555  1.2717 -1.3024
  437MOL0     H58947   5.984   5.579   6.218 -1.0661 -0.1334  3.5760
  437MOL0     H58948   5.893   5.434   6.198 -0.1917  0.1001 -0.6815
  437MOL0     H58949   5.915   5.516   5.984  0.7436 -1.6221  1.3314
  437MOL0     H58950   5.750   5.558   6.026  0.4233  0.9773 -1.5313
  437MOL0     H58951   6.003   5.745   6.017 -0.2312  0.1430 -0.5414
  437MOL0     H58952   5.865   5.792   6.120 -3.5914  0.3717 -0.4214
  437MOL0     H58953   5.914   5.774   5.831  0.1238  0.3133  0.2855
  437MOL0     H58954   5.842   5.907   5.915 -0.1989  0.0726 -1.1180
  437MOL0     H58955   5.491   5.633   5.857  0.7254  0.4709 -1.9777
  437MOL0     H58956   5.273   5.684   5.980  0.3982 -1.1512  2.3986
  437MOL0     H58957   5.017   5.697   6.323  1.3193  0.2663  0.5207
  437MOL0     H58958   4.815   5.760   6.438  2.0602  1.5762  1.4784
  437MOL0     H58959   4.542   5.756   6.314 -1.4795 -0.5144  1.1035
  437MOL0     H58960   4.554   5.783   6.482 -0.2740 -1.3579 -0.3481
  437MOL0     H58961   4.406   5.984   6.457 -2.7023  2.0490 -2.2744
  437MOL0     H58962   4.361   5.931   6.293 -1.8944  0.3740  0.5640
  437MOL0     H58963   4.201   5.804   6.365 -0.9399 -1.5602  3.0916
  437MOL0     H58964   4.329   5.689   6.418 -2.6587 -1.5841  0.0077
  437MOL0     H58965   4.220   5.914   6.581  3.0535  1.0391 -0.8182
  437MOL0     H58966   4.362   5.819   6.625 -0.1864 -0.9411  1.6313
  437MOL0     H58967   4.174   5.700   6.744  0.9668  1.0773 -0.9013
  437MOL0     H58968   4.232   5.609   6.609  0.8556  0.4420 -0.2264
  437MOL0     H58969   3.991   5.807   6.559 -4.0503 -1.5047  0.8865
  437MOL0     H58970   4.061   5.660   6.471  1.4922 -1.4363  0.8815
  437MOL0     H58971   3.835   5.604   6.594 -0.0627 -2.0394  0.6011
  437MOL0     H58972   3.924   5.645   6.741 -0.3509 -1.8432  1.0347
  437MOL0     H58973   4.027   5.432   6.558  0.1761  2.0441 -1.4927
  437MOL0     H58974   4.048   5.445   6.734 -2.6142  0.6890  2.3707
  437MOL0     H58975   4.740   6.095   6.190 -3.6992 -3.4473  0.7739
  437MOL0     H58976   4.949   6.045   6.063 -1.9519 -0.2333 -1.4630
  437MOL0     H58977   5.471   6.017   6.168 -0.3735  0.4285 -0.5752
  437MOL0     H58978   5.673   5.961   6.047  0.2011 -1.4021 -2.0174
  437MOL0     H58979   4.848   5.454   6.962  0.4455 -3.3867  1.1341
  437MOL0     H58980   4.838   5.291   7.141  2.7403 -1.0399 -1.0576
  437MOL0     H58981   5.136   5.050   7.515 -0.7574  0.6558 -1.1421
  437MOL0     H58982   5.065   4.858   7.673  0.4871  0.4079 -3.5260
  437MOL0     H58983   4.763   4.716   7.904 -2.4023 -0.3885 -0.2943
  437MOL0     H58984   4.681   4.849   7.824  1.7631  3.0736 -0.3789
  437MOL0     H58985   4.738   4.985   8.053 -0.9095  0.0103  2.8011
  437MOL0     H58986   4.802   4.825   8.105 -2.5030 -2.8857 -0.2265
  437MOL0     H58987   4.595   4.715   8.046  4.2708 -0.3452 -1.2243
  437MOL0     H58988   4.521   4.881   7.994 -0.1135  1.0923  0.9501
  437MOL0     H58989   4.608   4.802   8.269  0.1571 -5.8418 -3.3515
  437MOL0     H58990   4.535   4.961   8.212  1.9872 -0.6202 -0.8865
  437MOL0     H58991   4.185   4.737   8.312 -0.9319  3.3900  2.8430
  437MOL0     H58992   4.756   5.104   7.831 -0.0111  1.4842  0.0003
  437MOL0     H58993   4.724   5.330   7.755  0.1887  2.9304  0.8781
  437MOL0     H58994   4.866   5.418   7.678  1.0783 -0.2779 -2.0890
  437MOL0     H58995   4.739   5.337   7.584  0.4310 -0.1674 -0.2788
  438MOL0     O58996   8.570   5.562  10.454  0.2334  0.1103 -0.7154
  438MOL0     C58997   8.570   5.523  10.571 -0.4199  1.0336 -1.1656
  438MOL0     O58998   8.544   5.389  10.610 -0.2581  0.2041  0.1509
  438MOL0     C58999   8.520   5.289  10.521 -0.0988  1.0029  0.2424
  438MOL0     C59000   8.626   5.256  10.438  0.2065 -0.6031 -0.3419
  438MOL0     C59001   8.615   5.164  10.344 -0.7532 -0.4000 -0.1282
  438MOL0     C59002   8.491   5.105  10.326 -0.4165  1.0430  0.4281
  438MOL0     O59003   8.476   5.028  10.209  0.4218  0.2154  0.1730
  438MOL0     C59004   8.362   4.938  10.191 -0.6010 -0.0261 -0.1527
  438MOL0     C59005   8.383   4.827  10.095  0.2292  0.7274 -1.1361
  438MOL0     C59006   8.384   4.875   9.943  0.4751 -0.7276  0.0775
  438MOL0     C59007   8.248   4.933   9.900 -0.0922  0.1406  0.6240
  438MOL0     C59008   8.128   4.837   9.920 -0.4697 -0.6264 -0.3809
  438MOL0     C59009   7.992   4.876   9.873  1.0911 -0.0066 -0.0121
  438MOL0     C59010   7.885   4.772   9.907 -0.9012  0.6102 -0.8118
  438MOL0     C59011   7.827   4.791  10.041 -1.2757 -0.6003 -0.3506
  438MOL0     N59012   7.712   4.708  10.070  0.7674  0.5999  0.1157
  438MOL0     C59013   7.704   4.580  10.098 -0.5903 -0.3282  0.1014
  438MOL0     C59014   7.580   4.533  10.072  0.4072  0.1724  0.4882
  438MOL0     C59015   7.522   4.386  10.073 -1.3200 -0.2629 -0.2562
  438MOL0     C59016   7.580   4.308   9.950  1.0732 -0.1942  0.4376
  438MOL0     C59017   7.501   4.177   9.920 -0.8621 -0.2611  0.4568
  438MOL0     C59018   7.476   4.084  10.034  0.1731  0.4406  0.6815
  438MOL0     O59019   7.607   4.042  10.078 -0.4578 -0.3362 -0.0660
  438MOL0     C59020   7.637   3.983  10.197  0.2156  0.4138 -0.7577
  438MOL0     C59021   7.539   3.923  10.274  0.0408 -0.1055 -0.0854
  438MOL0     C59022   7.573   3.836  10.379  0.1872 -0.0503  0.0962
  438MOL0     C59023   7.705   3.834  10.435 -0.9624 -0.1897  0.9079
  438MOL0     C59024   7.734   3.762  10.563  0.5596  1.3233 -0.0769
  438MOL0     O59025   7.837   3.806  10.633 -0.4965 -1.0707 -0.7063
  438MOL0     C59026   7.870   3.736  10.750 -0.4836 -0.2397 -0.7069
  438MOL0     C59027   7.911   3.600  10.747  0.4183 -0.0451 -0.6988
  438MOL0     C59028   7.966   3.547  10.866  0.7391  0.0662  0.5663
  438MOL0     C59029   7.954   3.613  10.983  0.0497 -0.9790 -0.0188
  438MOL0     O59030   8.004   3.550  11.092 -0.2576 -0.4478 -0.2357
  438MOL0     C59031   8.080   3.621  11.193  0.0279 -0.0139  0.2499
  438MOL0     C59032   8.133   3.501  11.271  0.2436 -0.1777  0.0223
  438MOL0     C59033   8.283   3.482  11.206  0.3235  0.2644  0.4514
  438MOL0     C59034   8.285   3.366  11.101  0.7200 -0.0155 -0.0133
  438MOL0     C59035   8.419   3.315  11.075 -1.1307 -0.0627  0.4817
  438MOL0     C59036   8.502   3.404  10.983  0.0489  0.0552 -0.0461
  438MOL0     C59037   8.494   3.365  10.836 -0.4232 -0.5739  0.4297
  438MOL0     C59038   8.563   3.458  10.740 -0.2801 -0.1217  0.5061
  438MOL0    Cl59039   8.487   3.630  10.759 -0.3126  0.5176 -0.2169
  438MOL0     C59040   7.909   3.738  10.993  0.0285  0.1555  0.0283
  438MOL0     C59041   7.886   3.800  10.867  0.5180 -0.4730 -0.3283
  438MOL0     O59042   7.652   3.689  10.606  0.4755  0.7759  0.2915
  438MOL0     C59043   7.808   3.896  10.358 -0.0243  0.1573  0.1041
  438MOL0     C59044   7.766   3.954  10.235  0.3970 -1.6377 -0.0465
  438MOL0     N59045   7.513   4.644  10.015  0.1534  0.0816 -0.5713
  438MOL0     N59046   7.591   4.746  10.011  0.7705  0.1318  0.2417
  438MOL0     C59047   8.385   5.131  10.413  0.3773  0.4468  0.0487
  438MOL0     C59048   8.409   5.214  10.516  1.1316 -0.0260 -0.0159
  438MOL0     C59049   8.602   5.617  10.687 -0.8647  1.2819  0.3072
  438MOL0     C59050   8.556   5.576  10.816 -1.0328  0.2010  0.2252
  438MOL0     C59051   8.562   5.670  10.921 -0.5519 -0.0547  0.2819
  438MOL0     C59052   8.607   5.800  10.904 -0.3651  0.3913  0.1539
  438MOL0     O59053   8.611   5.890  11.013  0.5933 -0.3905  0.8330
  438MOL0     C59054   8.636   6.036  11.000 -0.3064  0.1182 -0.0047
  438MOL0     C59055   8.789   6.061  11.004 -0.4254  0.0680 -0.6743
  438MOL0     C59056   8.823   6.210  10.973 -0.4604 -0.3390  0.1864
  438MOL0     C59057   8.793   6.260  10.831 -0.3619 -1.2998 -0.4508
  438MOL0     C59058   8.859   6.175  10.735 -0.3597 -0.2881 -0.0277
  438MOL0     C59059   8.897   6.105  10.645  0.0761  0.5736 -0.3518
  438MOL0     C59060   8.656   5.832  10.773  0.6157  0.2530 -0.8140
  438MOL0     C59061   8.652   5.742  10.667 -0.1402  0.1003 -0.0381
  438MOL0     C59062   8.707   5.791  10.532  0.0750 -0.4891 -0.3389
  438MOL0     H59063   8.724   5.303  10.442 -1.6555  4.0672 -2.8323
  438MOL0     H59064   8.691   5.132  10.274 -0.1797  0.0184  0.2902
  438MOL0     H59065   8.344   4.885  10.285  2.3700 -0.7821  0.1179
  438MOL0     H59066   8.272   4.993  10.164 -0.9056 -0.8457 -0.8448
  438MOL0     H59067   8.315   4.743  10.112  0.7690  0.5771  0.4257
  438MOL0     H59068   8.484   4.787  10.111 -0.9739 -1.9241  0.6819
  438MOL0     H59069   8.404   4.791   9.877 -1.3207 -1.1597  0.0383
  438MOL0     H59070   8.450   4.958   9.916 -1.1007 -0.0251 -1.8828
  438MOL0     H59071   8.227   5.028   9.952  1.4829  2.4565 -2.6558
  438MOL0     H59072   8.250   4.951   9.792 -0.3472 -1.7242  0.2770
  438MOL0     H59073   8.156   4.749   9.861  0.0488 -0.1717 -0.8314
  438MOL0     H59074   8.127   4.800  10.023  1.7519 -1.7546 -0.6862
  438MOL0     H59075   7.977   4.975   9.915  0.7827  2.4757 -5.1709
  438MOL0     H59076   7.985   4.881   9.764 -0.6245  0.1651  0.0713
  438MOL0     H59077   7.918   4.668   9.892 -0.8285  0.1521  1.9914
  438MOL0     H59078   7.807   4.791   9.833 -1.3742 -1.4638 -0.9023
  438MOL0     H59079   7.904   4.779  10.117  0.0109  1.1504 -1.2928
  438MOL0     H59080   7.798   4.896  10.050 -0.8158 -0.4547 -0.5171
  438MOL0     H59081   7.779   4.512  10.138  1.5426  1.2135 -1.1066
  438MOL0     H59082   7.544   4.332  10.165 -2.2968  2.0390  1.4119
  438MOL0     H59083   7.413   4.387  10.061 -1.3429  2.3433 -0.4656
  438MOL0     H59084   7.584   4.368   9.859 -0.9541  1.3765  1.3045
  438MOL0     H59085   7.685   4.291   9.975  1.2154 -0.7700 -0.5109
  438MOL0     H59086   7.562   4.128   9.845  0.2205  0.7728  0.6296
  438MOL0     H59087   7.403   4.202   9.877  0.0132  2.1854 -0.3278
  438MOL0     H59088   7.421   3.994  10.005  1.7655 -0.1516 -0.6857
  438MOL0     H59089   7.422   4.134  10.115  2.0580  2.7628  0.6241
  438MOL0     H59090   7.438   3.911  10.236 -0.6949 -2.6760  2.3355
  438MOL0     H59091   7.487   3.787  10.423  1.1250 -0.2843  1.7553
  438MOL0     H59092   7.900   3.545  10.654  2.5490  0.9287 -1.6004
  438MOL0     H59093   7.990   3.442  10.862  0.9141  0.1249 -0.2098
  438MOL0     H59094   8.161   3.678  11.147  1.4869 -2.2589 -0.1068
  438MOL0     H59095   8.018   3.689  11.252 -0.9149  0.1366 -0.8562
  438MOL0     H59096   8.128   3.531  11.376  1.1289  0.5121 -0.1149
  438MOL0     H59097   8.073   3.410  11.260 -2.0918  1.3246 -0.5133
  438MOL0     H59098   8.337   3.565  11.158  1.7565 -0.6998  0.3462
  438MOL0     H59099   8.346   3.461  11.292  2.9648  1.5820 -1.0324
  438MOL0     H59100   8.235   3.404  11.012 -0.7078 -1.5033  0.1069
  438MOL0     H59101   8.227   3.280  11.137 -1.8485  1.3943 -0.5212
  438MOL0     H59102   8.424   3.210  11.044  1.8510  0.6277 -1.8885
  438MOL0     H59103   8.467   3.316  11.173 -0.6990  0.9925  0.2681
  438MOL0     H59104   8.482   3.510  11.004  0.1271 -0.0423  0.5388
  438MOL0     H59105   8.607   3.393  11.011  0.1620  1.9905  0.4156
  438MOL0     H59106   8.391   3.349  10.804 -0.5552 -2.5187  1.6518
  438MOL0     H59107   8.550   3.272  10.826  1.5245  0.7034 -1.6803
  438MOL0     H59108   8.669   3.463  10.767 -0.3496  1.5744  0.6010
  438MOL0     H59109   8.562   3.428  10.635 -1.7579 -1.7697  0.9545
  438MOL0     H59110   7.911   3.788  11.090 -1.6818  1.2597 -0.4690
  438MOL0     H59111   7.850   3.902  10.869  2.2364  0.1863 -1.4204
  438MOL0     H59112   7.905   3.902  10.407  1.0618 -2.5326 -1.4822
  438MOL0     H59113   7.846   3.995  10.174  0.0175 -0.6733  0.0832
  438MOL0     H59114   8.294   5.072  10.409  0.6609 -0.0556  0.8135
  438MOL0     H59115   8.337   5.242  10.592  0.4390  3.3890 -1.7540
  438MOL0     H59116   8.517   5.477  10.841  2.0132 -1.8747 -2.4286
  438MOL0     H59117   8.533   5.640  11.022  2.4898  2.1626  2.0001
  438MOL0     H59118   8.587   6.099  11.074  2.6237  1.6796  0.7632
  438MOL0     H59119   8.590   6.080  10.911 -1.2142  0.7139  0.7500
  438MOL0     H59120   8.835   5.994  10.931 -1.8015 -1.5057 -0.1611
  438MOL0     H59121   8.820   6.038  11.107  0.3058 -0.1079 -0.9206
  438MOL0     H59122   8.931   6.230  10.976 -0.6092  0.5131  0.2884
  438MOL0     H59123   8.768   6.274  11.043  0.9783 -1.4400  2.4558
  438MOL0     H59124   8.685   6.243  10.823 -0.8084  1.4836 -1.4084
  438MOL0     H59125   8.807   6.362  10.794 -3.5138 -1.8808 -3.7964
  438MOL0     H59126   8.931   6.044  10.563  1.4351 -0.0805  0.6615
  438MOL0     H59127   8.705   5.929  10.764  0.3971  0.7879  2.4741
  438MOL0     H59128   8.775   5.872  10.558  0.8526 -1.4512  0.7082
  438MOL0     H59129   8.775   5.722  10.481  0.1092 -2.4749  2.2071
  438MOL0     H59130   8.633   5.823  10.458  1.6088  1.8307 -0.9794
  439MOL0     O59131   4.092   7.462   2.279 -0.1055  0.3400 -0.2044
  439MOL0     C59132   4.084   7.413   2.163  0.2092 -0.9592 -0.6244
  439MOL0     O59133   4.132   7.470   2.051 -0.0867 -0.6606  0.4342
  439MOL0     C59134   4.220   7.569   2.064  0.2559 -0.5196 -0.3511
  439MOL0     C59135   4.197   7.703   2.107 -0.8092 -0.1758 -0.1385
  439MOL0     C59136   4.306   7.794   2.124 -1.3473 -0.4422  0.4031
  439MOL0     C59137   4.437   7.756   2.104  0.2714  0.7343 -0.4674
  439MOL0     O59138   4.531   7.854   2.122  0.3309 -0.2318  1.2144
  439MOL0     C59139   4.661   7.857   2.061  0.5206  0.0044  0.0342
  439MOL0     C59140   4.724   7.992   2.091 -0.5387  0.4734  0.4340
  439MOL0     C59141   4.717   8.006   2.247 -0.0819  0.5220 -0.4180
  439MOL0     C59142   4.807   8.114   2.303 -0.4878  0.5538 -0.6805
  439MOL0     C59143   4.773   8.137   2.455 -0.2583  0.2374  0.3798
  439MOL0     C59144   4.850   8.255   2.509  0.7986  0.1084  0.1573
  439MOL0     C59145   4.796   8.281   2.649  0.5983  0.7655  0.0941
  439MOL0     C59146   4.855   8.412   2.708 -0.1255 -0.3686 -0.1990
  439MOL0     N59147   4.831   8.547   2.639 -0.2054 -0.0039 -0.4574
  439MOL0     C59148   4.714   8.590   2.588 -0.3552 -1.1238  1.2318
  439MOL0     C59149   4.747   8.693   2.495 -0.6045  0.2160 -0.4597
  439MOL0     C59150   4.650   8.776   2.420  0.4323 -0.6865  0.7503
  439MOL0     C59151   4.660   8.928   2.455  0.8690 -0.0621  0.1185
  439MOL0     C59152   4.617   8.954   2.602 -0.4884  0.2344  0.3552
  439MOL0     C59153   4.627   9.102   2.621 -0.0620  0.6341 -0.5092
  439MOL0     O59154   4.582   9.119   2.760  0.0305 -1.1325 -0.6638
  439MOL0     C59155   4.666   9.184   2.840 -0.6700 -0.2983  0.0616
  439MOL0     C59156   4.730   9.305   2.817 -0.3083 -0.4851 -0.2193
  439MOL0     C59157   4.825   9.358   2.898 -0.2684  1.0380 -0.9094
  439MOL0     C59158   4.859   9.288   3.018 -0.2106 -0.6416 -0.2540
  439MOL0     C59159   4.960   9.349   3.110 -0.5460 -0.1446 -0.1368
  439MOL0     O59160   4.936   9.328   3.243  1.0051 -0.5402  0.2985
  439MOL0     C59161   5.027   9.364   3.343  1.5292  0.6631 -0.0417
  439MOL0     C59162   5.156   9.408   3.325  0.2050 -1.2237  0.0957
  439MOL0     C59163   5.234   9.432   3.439  0.3155 -0.1690 -0.2695
  439MOL0     C59164   5.192   9.397   3.573 -0.2930  0.6267  0.0423
  439MOL0     O59165   5.275   9.431   3.677  0.3395 -0.4966  1.0921
  439MOL0     C59166   5.259   9.369   3.804  0.0711  0.4634  0.6367
  439MOL0     C59167   5.387   9.396   3.876 -0.3343 -0.2454  0.0012
  439MOL0     C59168   5.389   9.320   4.011 -1.0811 -0.6226  0.1205
  439MOL0     C59169   5.534   9.293   4.052  0.0732  0.3357  0.4177
  439MOL0     C59170   5.596   9.169   3.995  0.1819 -1.0166 -0.2361
  439MOL0     C59171   5.746   9.186   4.007  0.7730 -1.0248 -0.6996
  439MOL0     C59172   5.823   9.089   3.917 -0.1956 -0.1034 -0.0491
  439MOL0     C59173   5.970   9.144   3.902  0.4280  0.4651  0.3923
  439MOL0    Cl59174   6.069   9.131   4.045  0.1993 -0.0840  0.1465
  439MOL0     C59175   5.057   9.354   3.587 -0.1218 -0.0761  0.2798
  439MOL0     C59176   4.982   9.339   3.473  0.1809 -0.0165 -0.1964
  439MOL0     O59177   5.028   9.437   3.060 -0.2962  0.0134  0.5005
  439MOL0     C59178   4.795   9.167   3.045  0.2864  0.2045  0.8323
  439MOL0     C59179   4.703   9.116   2.955  0.8284  0.3700  0.6237
  439MOL0     N59180   4.883   8.700   2.500 -0.9886  0.8736  0.6959
  439MOL0     N59181   4.934   8.614   2.582  0.1587  0.5688  0.0442
  439MOL0     C59182   4.464   7.620   2.085  0.5432 -0.6378  0.6321
  439MOL0     C59183   4.355   7.527   2.055  0.0821 -0.0916  0.2999
  439MOL0     C59184   4.031   7.270   2.151 -0.0194  0.8742  0.4854
  439MOL0     C59185   4.061   7.194   2.035 -0.2012 -1.1658 -1.9302
  439MOL0     C59186   4.021   7.058   2.024  0.8227 -0.3874 -0.0383
  439MOL0     C59187   3.951   7.000   2.129  0.0842 -0.1418 -0.3680
  439MOL0     O59188   3.914   6.864   2.114  0.4005 -0.3406 -0.5022
  439MOL0     C59189   3.793   6.825   2.185  0.0333 -0.0650 -0.8457
  439MOL0     C59190   3.743   6.685   2.138  0.1364 -0.0518  0.4658
  439MOL0     C59191   3.602   6.655   2.200  0.1777 -0.7753 -0.0394
  439MOL0     C59192   3.614   6.575   2.333  1.5277  0.1981  0.6696
  439MOL0     C59193   3.491   6.500   2.362  0.2705  0.7982  0.3467
  439MOL0     C59194   3.393   6.438   2.389  0.1211  0.1722 -0.1450
  439MOL0     C59195   3.921   7.071   2.246 -0.7894 -0.4003 -0.8503
  439MOL0     C59196   3.970   7.208   2.264  0.2771  0.4252 -0.4801
  439MOL0     C59197   3.924   7.274   2.390  0.2006 -1.1702  0.2546
  439MOL0     H59198   4.099   7.738   2.139 -2.3298 -2.5284 -1.8783
  439MOL0     H59199   4.273   7.894   2.151 -2.0164 -1.0247  1.8641
  439MOL0     H59200   4.718   7.770   2.094  0.1614  0.5188  2.1526
  439MOL0     H59201   4.658   7.853   1.952  2.4225  3.4951 -0.3209
  439MOL0     H59202   4.661   8.066   2.041 -2.0442  1.2428  3.2162
  439MOL0     H59203   4.827   7.992   2.053 -0.1493  0.3751  1.4368
  439MOL0     H59204   4.751   7.912   2.291  0.1304  1.1693  0.8241
  439MOL0     H59205   4.617   8.037   2.277  1.0037  2.8837  1.1190
  439MOL0     H59206   4.914   8.107   2.286  0.4456  2.2141  3.3229
  439MOL0     H59207   4.777   8.207   2.254  0.6146  1.3316  0.0752
  439MOL0     H59208   4.666   8.148   2.472 -0.1486  0.9771  0.6158
  439MOL0     H59209   4.799   8.055   2.522  1.6056  0.3813 -0.1180
  439MOL0     H59210   4.954   8.223   2.520  0.4706 -1.4380 -0.8745
  439MOL0     H59211   4.838   8.342   2.444 -2.1421  0.5004  1.0581
  439MOL0     H59212   4.833   8.201   2.713 -2.6907  0.0598  1.3607
  439MOL0     H59213   4.686   8.287   2.653  0.6483  1.7583  0.3797
  439MOL0     H59214   4.814   8.426   2.809 -0.3061 -0.8082 -0.2060
  439MOL0     H59215   4.963   8.399   2.713  0.2649  2.4668  0.3161
  439MOL0     H59216   4.620   8.543   2.617 -0.8796 -1.9585 -1.5129
  439MOL0     H59217   4.680   8.767   2.315 -2.3459 -2.7780  0.0214
  439MOL0     H59218   4.551   8.729   2.423  1.1576 -2.3415  0.4107
  439MOL0     H59219   4.759   8.963   2.423  1.2335 -2.6441 -1.8436
  439MOL0     H59220   4.594   8.976   2.382  1.7705 -0.9822 -1.3359
  439MOL0     H59221   4.686   8.901   2.668  0.5556 -1.8399 -2.2229
  439MOL0     H59222   4.519   8.908   2.617  0.5423 -3.2106 -2.1418
  439MOL0     H59223   4.577   9.159   2.543  1.3956 -0.3180 -2.2266
  439MOL0     H59224   4.731   9.136   2.624 -0.6035  2.5978 -2.0653
  439MOL0     H59225   4.688   9.362   2.735 -0.2429 -3.0000 -2.1084
  439MOL0     H59226   4.879   9.450   2.881  1.8890  0.0872  0.4194
  439MOL0     H59227   5.206   9.433   3.232  1.0315 -2.5650  0.1476
  439MOL0     H59228   5.332   9.473   3.420  0.2058  0.6849  0.8836
  439MOL0     H59229   5.178   9.419   3.858  1.2028 -0.2141  3.0980
  439MOL0     H59230   5.237   9.262   3.799 -0.0099  0.5243 -0.9412
  439MOL0     H59231   5.475   9.367   3.819  1.8649  3.0890  1.3872
  439MOL0     H59232   5.397   9.504   3.887  3.0119 -0.1652 -2.4750
  439MOL0     H59233   5.329   9.370   4.088 -2.3020 -0.4740 -0.9064
  439MOL0     H59234   5.353   9.217   4.001 -0.5169 -0.8182  0.0640
  439MOL0     H59235   5.531   9.281   4.160  2.0099  0.9840  0.5898
  439MOL0     H59236   5.591   9.383   4.026 -1.0230  1.1765  0.8688
  439MOL0     H59237   5.569   9.148   3.891 -2.5294 -0.3684  0.2596
  439MOL0     H59238   5.554   9.084   4.049 -0.3717  0.4373  1.7190
  439MOL0     H59239   5.769   9.285   3.966 -1.7766 -0.8519 -1.9105
  439MOL0     H59240   5.773   9.177   4.113  0.5825  0.4678 -0.5069
  439MOL0     H59241   5.765   9.089   3.825 -1.3121 -4.7970  0.3801
  439MOL0     H59242   5.826   8.986   3.955 -2.1777 -0.4977 -0.8518
  439MOL0     H59243   6.027   9.080   3.834 -0.4429 -4.3616  3.7203
  439MOL0     H59244   5.958   9.248   3.870 -3.0502  0.3798  1.0260
  439MOL0     H59245   5.025   9.330   3.688  3.2129 -0.9835  1.2451
  439MOL0     H59246   4.878   9.308   3.478  0.6241 -1.7872 -1.3408
  439MOL0     H59247   4.811   9.110   3.136 -3.8874  1.6934  2.7329
  439MOL0     H59248   4.651   9.022   2.972  1.7212 -0.0142  1.3023
  439MOL0     H59249   4.571   7.601   2.079  1.2023  2.1851  2.0647
  439MOL0     H59250   4.376   7.422   2.033  0.8486 -0.9708  4.3345
  439MOL0     H59251   4.114   7.246   1.955  1.0913 -0.7067 -0.8121
  439MOL0     H59252   4.036   7.005   1.931  1.4261 -0.7599  0.2692
  439MOL0     H59253   3.719   6.903   2.167  0.1039  0.2497  0.1496
  439MOL0     H59254   3.816   6.827   2.293 -1.2599  2.9322 -0.5244
  439MOL0     H59255   3.806   6.599   2.164  0.5719 -0.1629 -0.8824
  439MOL0     H59256   3.740   6.679   2.029  2.4537 -2.6773  0.4216
  439MOL0     H59257   3.543   6.600   2.126  1.5504 -0.1256 -1.7039
  439MOL0     H59258   3.552   6.749   2.226  2.7199  0.5881  0.2479
  439MOL0     H59259   3.701   6.509   2.321  0.1221 -2.1168  2.3781
  439MOL0     H59260   3.636   6.629   2.426  3.2816 -1.1576  1.1037
  439MOL0     H59261   3.305   6.382   2.413 -0.4034  0.5915 -1.0436
  439MOL0     H59262   3.880   7.017   2.331 -0.5540  0.3495 -0.2544
  439MOL0     H59263   3.840   7.217   2.430 -1.0945 -0.3765 -1.1926
  439MOL0     H59264   4.007   7.290   2.459  0.6819 -1.6337 -0.2087
  439MOL0     H59265   3.883   7.371   2.360 -0.4294 -1.9863 -1.7315
  440MOL0     O59266   7.053   8.808   5.269  0.2067 -0.1354 -0.2950
  440MOL0     C59267   7.155   8.817   5.344 -0.5391 -0.3559  0.2262
  440MOL0     O59268   7.262   8.893   5.316 -0.7495  0.4597 -0.1095
  440MOL0     C59269   7.270   8.937   5.180  0.0689 -0.3237 -0.8302
  440MOL0     C59270   7.389   8.909   5.108 -0.0082 -0.1925 -0.9215
  440MOL0     C59271   7.413   8.944   4.981 -0.6625  0.3118  0.0794
  440MOL0     C59272   7.322   9.021   4.916 -0.4973  0.2441 -0.2386
  440MOL0     O59273   7.358   9.080   4.796  0.1142  0.1054  0.0314
  440MOL0     C59274   7.260   9.078   4.690 -0.3877  1.2750 -0.5423
  440MOL0     C59275   7.324   9.097   4.552 -0.5521 -0.4288  0.1527
  440MOL0     C59276   7.446   9.207   4.547  0.0946  1.3051 -0.4418
  440MOL0     C59277   7.537   9.192   4.421 -0.3130  0.5568 -0.1299
  440MOL0     C59278   7.643   9.086   4.445  0.0663 -0.6666  0.3485
  440MOL0     C59279   7.728   9.056   4.321 -0.5291  0.4343  0.0845
  440MOL0     C59280   7.646   8.987   4.203 -0.0359 -0.0833 -0.0937
  440MOL0     C59281   7.619   9.075   4.085  0.0247 -0.6581  0.0912
  440MOL0     N59282   7.487   9.036   4.026  0.4459  0.0567 -0.4868
  440MOL0     C59283   7.456   9.044   3.891 -0.0691 -0.1335  0.0902
  440MOL0     C59284   7.326   9.028   3.891 -0.1041  0.3519 -0.3955
  440MOL0     C59285   7.250   9.022   3.772 -0.2358  0.9939  1.4645
  440MOL0     C59286   7.279   8.898   3.686 -1.0096  0.7829  0.2316
  440MOL0     C59287   7.147   8.859   3.612  0.7985  0.4171  0.7190
  440MOL0     C59288   7.150   8.928   3.474  0.1810 -0.3163 -0.6806
  440MOL0     O59289   7.022   8.935   3.415  0.5733 -0.9701 -0.2742
  440MOL0     C59290   6.964   8.839   3.333  0.3075  0.0012 -0.1742
  440MOL0     C59291   6.857   8.894   3.254 -0.1577  0.3107 -0.8225
  440MOL0     C59292   6.795   8.814   3.156  0.5905  1.0761 -0.1919
  440MOL0     C59293   6.845   8.684   3.132  0.0988  0.6139  0.4312
  440MOL0     C59294   6.790   8.591   3.030 -0.2380  0.1213  0.6984
  440MOL0     O59295   6.673   8.630   2.976  0.3529  1.1767  0.0664
  440MOL0     C59296   6.602   8.537   2.904  0.7777  0.0535  0.2070
  440MOL0     C59297   6.616   8.534   2.765 -0.8805  0.6343 -0.7111
  440MOL0     C59298   6.541   8.437   2.691 -0.3564  0.1309  0.4637
  440MOL0     C59299   6.464   8.337   2.751 -0.3920  0.0671  0.2750
  440MOL0     O59300   6.433   8.217   2.690 -0.4561  0.1585  0.5803
  440MOL0     C59301   6.372   8.237   2.554 -1.4092  0.5216  0.3709
  440MOL0     C59302   6.311   8.104   2.525 -0.2578  0.0646  0.5215
  440MOL0     C59303   6.209   8.115   2.411 -0.0507  0.5467  0.8472
  440MOL0     C59304   6.141   8.003   2.356  0.2769  0.1052  0.1261
  440MOL0     C59305   6.039   8.032   2.246  0.2014  0.0452 -0.4330
  440MOL0     C59306   5.934   7.919   2.229  0.1677 -1.4924  0.0556
  440MOL0     C59307   5.828   7.953   2.118 -0.7482 -0.4247  0.5361
  440MOL0     C59308   5.718   7.842   2.100 -0.5685 -0.1736  0.0287
  440MOL0    Cl59309   5.780   7.686   2.073 -0.0037 -0.0652  0.0376
  440MOL0     C59310   6.446   8.344   2.885 -0.0687 -0.1775 -0.0682
  440MOL0     C59311   6.514   8.445   2.958 -0.1350  0.0366 -0.4637
  440MOL0     O59312   6.842   8.483   3.006 -1.1531  0.7095 -0.0550
  440MOL0     C59313   6.956   8.631   3.216  0.6236  0.3223  0.2473
  440MOL0     C59314   7.010   8.708   3.316  0.8412 -0.1294  0.5132
  440MOL0     N59315   7.269   9.003   4.017  0.5675  0.0912  0.6673
  440MOL0     N59316   7.369   9.007   4.090 -0.8432 -0.0168  0.1469
  440MOL0     C59317   7.207   9.068   4.986  0.2861 -0.8936 -0.2757
  440MOL0     C59318   7.184   9.020   5.114  0.5511  0.1345 -0.3402
  440MOL0     C59319   7.143   8.759   5.479  0.0175  0.8782  0.6849
  440MOL0     C59320   7.021   8.758   5.552  0.8735  0.6216  0.2530
  440MOL0     C59321   7.000   8.696   5.672 -0.2517  0.3407  0.1347
  440MOL0     C59322   7.096   8.608   5.725 -0.0038 -0.5844 -0.6459
  440MOL0     O59323   7.075   8.547   5.844 -0.3946 -0.2046  0.2896
  440MOL0     C59324   7.047   8.408   5.849  0.5869 -0.3958 -0.5347
  440MOL0     C59325   6.994   8.370   5.996 -0.9902 -0.0651  0.0748
  440MOL0     C59326   6.878   8.458   6.024  0.9238 -0.0233  0.1999
  440MOL0     C59327   6.833   8.423   6.160 -0.3860 -0.1750 -0.0669
  440MOL0     C59328   6.766   8.537   6.213 -0.9862 -0.6666 -0.2647
  440MOL0     C59329   6.714   8.645   6.224 -0.6544 -0.0781  1.2440
  440MOL0     C59330   7.226   8.614   5.660  0.8420  0.6866 -0.0130
  440MOL0     C59331   7.244   8.680   5.537 -1.7085 -0.0470 -0.0458
  440MOL0     C59332   7.374   8.648   5.473 -0.3979  0.1121  0.2317
  440MOL0     H59333   7.456   8.843   5.163 -2.1347 -0.9804  0.8760
  440MOL0     H59334   7.500   8.900   4.933 -0.0180  0.3548  1.1749
  440MOL0     H59335   7.203   8.984   4.687 -2.7378  2.5378  1.0308
  440MOL0     H59336   7.194   9.162   4.712 -0.0252  0.5135  4.6052
  440MOL0     H59337   7.252   9.119   4.473  1.7916  2.7148 -1.3041
  440MOL0     H59338   7.378   9.004   4.531  2.7310  1.1885  0.8006
  440MOL0     H59339   7.510   9.193   4.634 -0.3466  5.6537  0.7986
  440MOL0     H59340   7.414   9.310   4.560  1.5734  1.5323  1.8759
  440MOL0     H59341   7.477   9.157   4.336 -0.1711 -1.9467  0.7337
  440MOL0     H59342   7.591   9.283   4.394  1.2574  1.4525  4.9570
  440MOL0     H59343   7.717   9.129   4.514  1.0543 -0.2622 -0.9080
  440MOL0     H59344   7.596   8.995   4.483 -1.6653  0.1114  0.1395
  440MOL0     H59345   7.779   9.144   4.280 -0.7030 -0.2406 -1.6603
  440MOL0     H59346   7.807   8.983   4.339  0.5800  0.3280 -4.1910
  440MOL0     H59347   7.557   8.954   4.257  0.3562 -0.4095  0.3650
  440MOL0     H59348   7.711   8.905   4.169 -4.3733 -3.2897 -1.6492
  440MOL0     H59349   7.604   9.179   4.117 -2.8370 -1.1959  0.8273
  440MOL0     H59350   7.703   9.067   4.016 -1.7524 -2.9081 -1.9802
  440MOL0     H59351   7.508   9.059   3.796 -1.2120  0.9669 -0.3851
  440MOL0     H59352   7.143   9.019   3.796 -0.0390 -0.9365  2.2556
  440MOL0     H59353   7.272   9.114   3.717 -1.6365 -0.0596 -1.0335
  440MOL0     H59354   7.364   8.928   3.625  1.8459  0.8085  3.8819
  440MOL0     H59355   7.309   8.819   3.756  2.3192  1.5472 -0.1767
  440MOL0     H59356   7.063   8.881   3.679 -0.7598  0.0004 -0.9916
  440MOL0     H59357   7.135   8.751   3.599  1.1626  0.3710  0.7535
  440MOL0     H59358   7.227   8.890   3.407  2.8871  2.7464  0.4227
  440MOL0     H59359   7.183   9.032   3.490 -0.6600 -0.3285  1.5616
  440MOL0     H59360   6.821   8.993   3.280  0.8580  1.0109 -1.9373
  440MOL0     H59361   6.715   8.870   3.109  0.5636  0.6811 -0.6316
  440MOL0     H59362   6.677   8.608   2.713 -1.7992  1.7225 -0.2788
  440MOL0     H59363   6.561   8.430   2.585  0.9823 -4.2379  0.8078
  440MOL0     H59364   6.311   8.328   2.551 -0.2066  1.3476 -0.0039
  440MOL0     H59365   6.450   8.250   2.478 -3.0240 -1.7423 -1.8046
  440MOL0     H59366   6.392   8.037   2.496 -1.6023 -0.7469 -1.6184
  440MOL0     H59367   6.259   8.076   2.617 -2.6218  0.0658 -0.7250
  440MOL0     H59368   6.130   8.184   2.439  0.0450  0.7912  0.5231
  440MOL0     H59369   6.253   8.169   2.327  0.8953  1.1523  1.7040
  440MOL0     H59370   6.069   7.972   2.432 -0.9433 -2.4609 -1.8995
  440MOL0     H59371   6.196   7.911   2.334  1.0456  0.6958 -0.4784
  440MOL0     H59372   6.100   8.051   2.157 -1.6712  1.2918 -1.5203
  440MOL0     H59373   5.984   8.125   2.265 -0.9929 -1.1666  2.6404
  440MOL0     H59374   5.988   7.833   2.189 -0.1757 -0.5418 -2.6296
  440MOL0     H59375   5.896   7.893   2.329  1.7396 -1.6295  0.6556
  440MOL0     H59376   5.882   7.970   2.024 -1.0056  1.0487  0.6343
  440MOL0     H59377   5.778   8.047   2.143  0.6517  0.3560  0.5438
  440MOL0     H59378   5.647   7.841   2.183  0.5713 -1.8659  1.0657
  440MOL0     H59379   5.667   7.878   2.011 -0.5863 -4.0144 -1.7171
  440MOL0     H59380   6.393   8.267   2.942 -1.1442  0.8426  0.3581
  440MOL0     H59381   6.498   8.436   3.065  0.0516  2.8062 -0.1171
  440MOL0     H59382   6.998   8.533   3.197 -1.2847 -0.4180 -0.4298
  440MOL0     H59383   7.090   8.665   3.374  0.8279  1.2178  1.5622
  440MOL0     H59384   7.137   9.139   4.945  0.5830  1.1134  2.4409
  440MOL0     H59385   7.102   9.053   5.177  1.3270  1.1201  0.1825
  440MOL0     H59386   6.948   8.822   5.504 -0.2021 -1.6238 -1.2637
  440MOL0     H59387   6.906   8.707   5.724 -1.3835 -0.6079 -1.6273
  440MOL0     H59388   7.132   8.350   5.811  0.0182  0.0012 -2.5210
  440MOL0     H59389   6.972   8.390   5.771  1.3734 -2.5456 -0.8505
  440MOL0     H59390   7.073   8.381   6.071 -2.5761 -0.6810  1.9079
  440MOL0     H59391   6.964   8.265   5.991 -1.6602  0.1039  0.4656
  440MOL0     H59392   6.804   8.433   5.947  1.6372  2.5494 -1.4553
  440MOL0     H59393   6.899   8.564   6.008  0.8945 -0.3700 -2.6897
  440MOL0     H59394   6.767   8.337   6.149  2.5034 -2.2659 -2.8868
  440MOL0     H59395   6.907   8.392   6.235 -2.8908 -2.4713  1.6142
  440MOL0     H59396   6.666   8.739   6.242  1.4269  1.1200  0.8379
  440MOL0     H59397   7.310   8.559   5.702  2.2148  0.4908 -2.7766
  440MOL0     H59398   7.385   8.667   5.365  1.2512  1.7210  0.6304
  440MOL0     H59399   7.447   8.715   5.520  1.5559 -1.9505  0.3023
  440MOL0     H59400   7.411   8.552   5.510  0.3671  0.4406  0.3313
  441MOL0     O59401   2.551   7.060   1.780 -1.4994  0.0579  1.2220
  441MOL0     C59402   2.675   7.072   1.807 -0.4641 -0.4798  0.6736
  441MOL0     O59403   2.760   6.971   1.863 -0.3025  0.2418  0.4090
  441MOL0     C59404   2.719   6.846   1.887  0.3120 -0.8029 -0.0235
  441MOL0     C59405   2.670   6.764   1.791 -0.7972  0.4959  0.4633
  441MOL0     C59406   2.632   6.628   1.817 -0.0608  0.2469 -0.3665
  441MOL0     C59407   2.656   6.579   1.948  0.0407  0.3668  0.4403
  441MOL0     O59408   2.647   6.443   1.997  0.2038  0.4647  0.0440
  441MOL0     C59409   2.614   6.345   1.902  0.4990  1.3283 -0.3220
  441MOL0     C59410   2.660   6.215   1.969 -1.3114  0.9070 -0.1763
  441MOL0     C59411   2.564   6.166   2.081  0.5758 -0.8538  0.2201
  441MOL0     C59412   2.611   6.020   2.135 -0.0476  0.1054 -0.9938
  441MOL0     C59413   2.535   5.992   2.261  0.1254 -0.2557 -0.4912
  441MOL0     C59414   2.555   5.844   2.299 -0.1014  0.2967  0.4980
  441MOL0     C59415   2.691   5.808   2.351  0.1266 -0.6949 -0.4263
  441MOL0     C59416   2.702   5.665   2.391 -0.6833 -0.0946 -0.4893
  441MOL0     N59417   2.836   5.644   2.449 -0.4817  0.1925  0.0574
  441MOL0     C59418   2.874   5.697   2.569 -0.6478  0.5751 -1.2122
  441MOL0     C59419   3.000   5.656   2.596  0.0759  0.2063  0.2596
  441MOL0     C59420   3.093   5.697   2.712  0.2486 -0.3342  0.6321
  441MOL0     C59421   3.181   5.590   2.780 -0.5735  0.9671 -0.0907
  441MOL0     C59422   3.293   5.624   2.865 -0.2040 -1.5647 -0.3974
  441MOL0     C59423   3.365   5.496   2.892 -1.1051  0.0367  0.5381
  441MOL0     O59424   3.418   5.486   3.026 -0.4542 -0.3968  0.1441
  441MOL0     C59425   3.337   5.429   3.119  0.3464 -0.0495  0.6340
  441MOL0     C59426   3.380   5.429   3.243 -1.3276 -0.4892  0.1495
  441MOL0     C59427   3.314   5.372   3.353  0.6919  0.0813 -0.3028
  441MOL0     C59428   3.181   5.324   3.337 -1.0194 -0.6349 -0.0004
  441MOL0     C59429   3.101   5.281   3.453  0.7073  1.3589 -0.4397
  441MOL0     O59430   2.998   5.197   3.441  0.1822 -0.2860 -0.2133
  441MOL0     C59431   2.913   5.150   3.543 -0.5661 -1.8491 -0.8786
  441MOL0     C59432   2.868   5.015   3.532  0.2000 -1.2282 -0.2518
  441MOL0     C59433   2.781   4.968   3.633 -0.4001  0.4097  1.5615
  441MOL0     C59434   2.735   5.042   3.739 -0.1981 -0.6914 -0.4243
  441MOL0     O59435   2.638   5.002   3.821 -0.0367  0.3366  0.6969
  441MOL0     C59436   2.539   5.096   3.864  1.5311 -0.0881 -1.1164
  441MOL0     C59437   2.415   5.018   3.894  0.3768  0.1646  0.2789
  441MOL0     C59438   2.360   4.944   3.766  0.1645 -0.4964 -0.4975
  441MOL0     C59439   2.217   4.883   3.794 -0.9128 -0.1837 -0.2656
  441MOL0     C59440   2.179   4.798   3.674  0.2389 -0.2962  1.1483
  441MOL0     C59441   2.033   4.768   3.704  1.2045  0.4548  0.4639
  441MOL0     C59442   1.975   4.663   3.610  0.2539  0.1626 -0.4420
  441MOL0     C59443   1.832   4.698   3.562  0.1177 -0.3027 -0.7231
  441MOL0    Cl59444   1.720   4.703   3.707  0.8406  0.0698  0.1005
  441MOL0     C59445   2.775   5.178   3.745  0.5821  0.3055  0.2282
  441MOL0     C59446   2.871   5.231   3.659 -0.4441  0.0280  1.2131
  441MOL0     O59447   3.147   5.324   3.558  0.4704 -0.4385 -0.3359
  441MOL0     C59448   3.126   5.325   3.204 -0.3502 -0.6973 -0.5875
  441MOL0     C59449   3.203   5.378   3.093  0.3523 -0.3200 -0.6263
  441MOL0     N59450   3.041   5.605   2.475 -0.0009 -0.4305  0.3251
  441MOL0     N59451   2.945   5.593   2.395  0.0409 -0.0843 -0.2855
  441MOL0     C59452   2.711   6.659   2.044  0.9337  0.1827  0.2310
  441MOL0     C59453   2.746   6.793   2.014  0.2163  0.4207 -0.0460
  441MOL0     C59454   2.735   7.213   1.805  0.3928 -0.2403  0.4146
  441MOL0     C59455   2.865   7.237   1.857 -0.2254  0.3324 -0.3863
  441MOL0     C59456   2.907   7.371   1.882  0.6430  0.1210 -0.1946
  441MOL0     C59457   2.837   7.480   1.826  0.0172 -0.2767  0.2929
  441MOL0     O59458   2.863   7.611   1.855  0.3839  0.1927 -0.1798
  441MOL0     C59459   2.987   7.639   1.926 -0.1164  0.2058 -0.7072
  441MOL0     C59460   3.009   7.793   1.961  0.1723  0.8642  0.3358
  441MOL0     C59461   2.878   7.861   2.026 -1.0615 -0.5454  0.2017
  441MOL0     C59462   2.891   8.011   2.038 -0.1735 -0.5533 -0.4222
  441MOL0     C59463   2.763   8.068   2.089 -0.0964  0.6503 -0.3929
  441MOL0     C59464   2.664   8.125   2.132 -0.3149  0.6190  0.4463
  441MOL0     C59465   2.723   7.458   1.758 -0.8718 -0.4033  0.3974
  441MOL0     C59466   2.671   7.326   1.751  0.4538 -0.3807  0.7689
  441MOL0     C59467   2.529   7.323   1.686  0.1162 -0.6238 -0.7099
  441MOL0     H59468   2.673   6.806   1.691 -1.2532  0.9249  0.6239
  441MOL0     H59469   2.597   6.569   1.732 -0.3483  1.6418 -1.2398
  441MOL0     H59470   2.509   6.331   1.875 -0.0365  4.8874 -0.4692
  441MOL0     H59471   2.661   6.350   1.803  0.5996  0.7126 -0.3101
  441MOL0     H59472   2.759   6.216   2.016 -0.4166 -3.3261 -1.5203
  441MOL0     H59473   2.667   6.129   1.902  1.9864 -1.0204  2.3340
  441MOL0     H59474   2.470   6.144   2.030  1.5652 -2.2967 -1.0733
  441MOL0     H59475   2.555   6.246   2.155 -0.0537 -1.0890  0.4040
  441MOL0     H59476   2.599   5.942   2.060 -1.8761  2.4788 -3.3827
  441MOL0     H59477   2.716   6.016   2.167 -0.5941 -2.9712  0.8302
  441MOL0     H59478   2.576   6.053   2.342  1.5245 -1.3113 -0.3838
  441MOL0     H59479   2.428   6.010   2.247  0.2725  0.4120 -0.7864
  441MOL0     H59480   2.469   5.826   2.365 -0.3015  1.0721  0.4678
  441MOL0     H59481   2.538   5.776   2.215 -0.3304 -1.3549  1.8308
  441MOL0     H59482   2.713   5.875   2.434 -0.5297 -1.3382  0.2798
  441MOL0     H59483   2.770   5.834   2.279  1.8687 -0.2692  1.5568
  441MOL0     H59484   2.636   5.638   2.473  3.3521 -2.1146  2.4581
  441MOL0     H59485   2.678   5.591   2.313  0.6324  0.5869 -1.5969
  441MOL0     H59486   2.807   5.754   2.633 -1.5956  1.2124 -2.6950
  441MOL0     H59487   3.148   5.788   2.687 -1.9785  1.0918  0.6718
  441MOL0     H59488   3.033   5.726   2.799 -1.9675 -1.0590 -0.5757
  441MOL0     H59489   3.115   5.531   2.845 -0.1298  1.1467  0.5298
  441MOL0     H59490   3.216   5.520   2.703  0.7540  0.1202  1.2355
  441MOL0     H59491   3.263   5.672   2.958 -0.1214 -2.6890  0.2319
  441MOL0     H59492   3.368   5.692   2.824  1.0364 -1.4642  1.8429
  441MOL0     H59493   3.456   5.496   2.831 -0.8070  0.6672  0.9750
  441MOL0     H59494   3.320   5.404   2.854  2.4195 -1.2807 -0.8892
  441MOL0     H59495   3.477   5.477   3.249  0.2272 -3.3757  0.1079
  441MOL0     H59496   3.360   5.381   3.451 -1.4616  0.3587  0.7317
  441MOL0     H59497   2.914   4.957   3.453 -1.3800 -1.5939 -0.9437
  441MOL0     H59498   2.749   4.864   3.626 -1.3968  0.6786  1.8754
  441MOL0     H59499   2.574   5.140   3.958 -2.5307 -2.2853  1.7215
  441MOL0     H59500   2.513   5.166   3.785  0.6619 -0.8067 -1.4831
  441MOL0     H59501   2.425   4.940   3.970 -4.6749 -2.7862 -1.5665
  441MOL0     H59502   2.338   5.089   3.929  2.1990  1.8696  1.0319
  441MOL0     H59503   2.357   5.014   3.681 -0.1293  1.5067  1.0738
  441MOL0     H59504   2.420   4.855   3.744 -0.0880 -0.9650  0.6463
  441MOL0     H59505   2.147   4.967   3.802 -1.5702 -0.9033  3.3437
  441MOL0     H59506   2.230   4.824   3.885 -2.7463 -2.0711 -1.1498
  441MOL0     H59507   2.242   4.708   3.670 -1.0983 -1.2302  0.5514
  441MOL0     H59508   2.185   4.853   3.579 -2.7003  0.8577  1.5478
  441MOL0     H59509   2.026   4.726   3.805 -0.2481 -0.3836  0.0334
  441MOL0     H59510   1.973   4.859   3.692 -3.2690 -2.2248  0.2662
  441MOL0     H59511   1.979   4.577   3.678 -0.1952  0.8960  0.5337
  441MOL0     H59512   2.035   4.654   3.520  2.6955  1.5208  0.9392
  441MOL0     H59513   1.844   4.789   3.502  3.6599  1.0270  1.6307
  441MOL0     H59514   1.806   4.621   3.490 -0.5085 -0.7590 -0.0188
  441MOL0     H59515   2.742   5.242   3.826  1.6747  0.5979  0.4591
  441MOL0     H59516   2.895   5.337   3.660  1.5820 -0.3631  0.1149
  441MOL0     H59517   3.032   5.274   3.184 -1.0319  0.9612 -1.8524
  441MOL0     H59518   3.163   5.366   2.994  1.8905 -0.2226 -1.2870
  441MOL0     H59519   2.711   6.610   2.141 -1.5589 -0.0165  0.2085
  441MOL0     H59520   2.788   6.867   2.081  0.8116  1.8575 -1.9431
  441MOL0     H59521   2.932   7.159   1.892 -1.6481 -0.3418  1.0221
  441MOL0     H59522   2.988   7.385   1.952  0.0442  1.5621  0.2585
  441MOL0     H59523   3.065   7.593   1.865  1.2994  0.9544  0.4880
  441MOL0     H59524   2.981   7.592   2.024  1.3942  1.5458  0.0644
  441MOL0     H59525   3.025   7.847   1.867 -3.9519 -4.3580 -4.0426
  441MOL0     H59526   3.104   7.814   2.010  0.6681  4.1149 -1.6855
  441MOL0     H59527   2.862   7.818   2.126 -0.1453  0.2331  0.7013
  441MOL0     H59528   2.789   7.837   1.968  0.4804 -0.4473 -2.3398
  441MOL0     H59529   2.970   8.051   2.102 -1.9344  3.1024 -0.2280
  441MOL0     H59530   2.922   8.054   1.942  2.8662  1.2138  1.2143
  441MOL0     H59531   2.572   8.165   2.169  0.7360  0.5577  3.3933
  441MOL0     H59532   2.677   7.551   1.725  2.9724  1.9750  1.1295
  441MOL0     H59533   2.454   7.309   1.764  2.3866  1.5248  2.0813
  441MOL0     H59534   2.505   7.419   1.638  2.0265  0.0883 -0.3266
  441MOL0     H59535   2.532   7.247   1.607  2.5361 -0.7227 -0.6085
  442MOL0     O59536   2.312   1.378   8.671  0.6867 -0.1535 -0.2938
  442MOL0     C59537   2.332   1.329   8.558 -0.0830 -0.3961 -0.5262
  442MOL0     O59538   2.359   1.400   8.448 -0.6720 -0.2105  0.4113
  442MOL0     C59539   2.378   1.541   8.435  0.1322  0.3290 -0.1989
  442MOL0     C59540   2.357   1.598   8.311 -0.1588  0.3310  0.1124
  442MOL0     C59541   2.370   1.738   8.292 -0.5521  0.5298 -0.0594
  442MOL0     C59542   2.405   1.818   8.401 -0.1778 -0.1176  0.2128
  442MOL0     O59543   2.398   1.957   8.388 -0.3200 -1.2175  0.3923
  442MOL0     C59544   2.483   2.040   8.463 -0.1219  0.5204  0.2385
  442MOL0     C59545   2.529   2.161   8.384  1.0266  0.4058  0.7496
  442MOL0     C59546   2.679   2.156   8.342  1.1231 -0.0201 -0.6106
  442MOL0     C59547   2.728   2.292   8.303  0.4724  0.0918  1.3384
  442MOL0     C59548   2.878   2.277   8.277 -0.2134 -0.6630  0.0963
  442MOL0     C59549   2.963   2.393   8.351  0.0943  0.4195  0.3069
  442MOL0     C59550   3.105   2.412   8.288  0.4262 -0.8846  0.1911
  442MOL0     C59551   3.214   2.474   8.367  0.2496  1.3023 -0.0227
  442MOL0     N59552   3.346   2.464   8.294 -0.4555  0.1129 -0.2939
  442MOL0     C59553   3.443   2.360   8.286 -0.8507 -0.0869 -0.4470
  442MOL0     C59554   3.528   2.391   8.186  1.4521 -0.5092 -0.7145
  442MOL0     C59555   3.653   2.312   8.153  0.4076  0.3557  0.2999
  442MOL0     C59556   3.750   2.389   8.064 -0.6317 -0.0112 -0.0408
  442MOL0     C59557   3.869   2.306   8.015  1.3749  0.5310  0.0105
  442MOL0     C59558   3.995   2.397   8.004  0.2583  0.1041 -0.6880
  442MOL0     O59559   3.958   2.524   7.942 -0.0255 -0.8526 -0.2698
  442MOL0     C59560   4.045   2.571   7.852  0.9011  1.5593  0.6998
  442MOL0     C59561   4.042   2.511   7.727 -0.1687 -0.2834 -0.1352
  442MOL0     C59562   4.149   2.534   7.640  0.1379  0.2020  0.8206
  442MOL0     C59563   4.260   2.617   7.672  0.3669 -0.6908 -0.3800
  442MOL0     C59564   4.378   2.633   7.577 -0.6115 -0.6562 -0.2549
  442MOL0     O59565   4.485   2.699   7.627 -0.1676  0.2760 -0.0438
  442MOL0     C59566   4.606   2.687   7.566  0.1263 -0.2135 -0.2244
  442MOL0     C59567   4.655   2.788   7.478  0.3484 -0.1801  0.3354
  442MOL0     C59568   4.770   2.758   7.406  0.4783  0.9169  0.0875
  442MOL0     C59569   4.843   2.639   7.423  0.7184  0.3699 -0.0709
  442MOL0     O59570   4.966   2.613   7.367 -0.7947  0.4837  1.1259
  442MOL0     C59571   4.941   2.542   7.250 -0.0987  1.4158 -0.0053
  442MOL0     C59572   5.025   2.577   7.132  0.3361 -0.1220 -0.2206
  442MOL0     C59573   4.970   2.535   6.994  0.3008 -0.1642 -0.1823
  442MOL0     C59574   5.015   2.386   6.961  1.0645  0.0647 -0.0622
  442MOL0     C59575   4.931   2.334   6.830 -0.3190 -0.9268  0.1155
  442MOL0     C59576   4.950   2.425   6.700  0.0203 -0.6489 -0.3224
  442MOL0     C59577   4.959   2.328   6.579 -0.6005  0.7171 -0.1511
  442MOL0     C59578   4.939   2.400   6.448 -0.6953  0.4832 -0.0404
  442MOL0    Cl59579   4.964   2.274   6.306  0.3312  0.1060 -0.0708
  442MOL0     C59580   4.795   2.555   7.525 -0.4239  0.4929  0.8293
  442MOL0     C59581   4.682   2.580   7.597  0.4265  0.5446  0.0925
  442MOL0     O59582   4.370   2.586   7.459 -0.3840  0.6001 -0.5417
  442MOL0     C59583   4.250   2.693   7.791  0.2254 -0.3521 -0.3335
  442MOL0     C59584   4.145   2.653   7.883  0.2670 -0.5236 -0.5505
  442MOL0     N59585   3.483   2.516   8.137  0.6309  0.3370  0.1518
  442MOL0     N59586   3.374   2.553   8.197  0.0204  0.1017  0.8166
  442MOL0     C59587   2.435   1.758   8.526  0.3392  0.8487 -0.6865
  442MOL0     C59588   2.428   1.620   8.546  0.8497  0.0745 -0.8786
  442MOL0     C59589   2.324   1.180   8.549  0.3821 -0.2536  0.0495
  442MOL0     C59590   2.391   1.116   8.438 -0.6508  0.0651  0.6646
  442MOL0     C59591   2.389   0.982   8.421 -0.2814  0.4210 -0.6915
  442MOL0     C59592   2.321   0.899   8.509  0.6875  1.4877  0.4620
  442MOL0     O59593   2.327   0.763   8.472 -0.5600 -0.0178 -0.4991
  442MOL0     C59594   2.252   0.674   8.561 -0.6288  0.1265  0.4171
  442MOL0     C59595   2.258   0.529   8.511 -0.2977  0.0077  0.9119
  442MOL0     C59596   2.129   0.478   8.433 -0.4305 -0.0375 -0.5409
  442MOL0     C59597   2.142   0.337   8.396 -0.1864  0.1147  0.7652
  442MOL0     C59598   2.020   0.289   8.325  0.5987  0.5218 -0.0242
  442MOL0     C59599   1.916   0.239   8.273 -0.2564 -0.7712 -0.5264
  442MOL0     C59600   2.265   0.956   8.618  0.1755  0.4383  0.1922
  442MOL0     C59601   2.270   1.092   8.649 -0.4756  1.1289  0.1163
  442MOL0     C59602   2.207   1.130   8.784 -0.1751 -0.2299  0.5402
  442MOL0     H59603   2.310   1.544   8.229  1.2212  2.3306 -2.1226
  442MOL0     H59604   2.354   1.789   8.198  3.0427  2.2806  0.1254
  442MOL0     H59605   2.417   2.077   8.542 -0.9756  0.2189 -0.3267
  442MOL0     H59606   2.565   1.979   8.502  1.7835  1.5927 -1.8583
  442MOL0     H59607   2.514   2.243   8.455  1.2881  0.5325  0.6596
  442MOL0     H59608   2.460   2.178   8.301 -2.3137 -0.7633  3.0635
  442MOL0     H59609   2.693   2.079   8.265  1.4938  0.6604 -1.2303
  442MOL0     H59610   2.728   2.119   8.432 -0.2076  0.7527  0.4654
  442MOL0     H59611   2.672   2.316   8.212 -1.5941 -2.3845  1.8348
  442MOL0     H59612   2.699   2.368   8.376  0.2341  1.8228 -0.4902
  442MOL0     H59613   2.927   2.182   8.302  0.4979 -0.4972 -0.5942
  442MOL0     H59614   2.894   2.292   8.169 -0.0858 -0.4913  0.1383
  442MOL0     H59615   2.912   2.487   8.328 -0.5110  0.0907  0.2977
  442MOL0     H59616   2.972   2.370   8.457 -0.9532  0.3677  0.3960
  442MOL0     H59617   3.105   2.474   8.199 -1.4064  1.8559  1.9552
  442MOL0     H59618   3.137   2.309   8.267 -3.0902 -2.4532  1.5952
  442MOL0     H59619   3.179   2.577   8.382  0.1675  1.7935 -3.0536
  442MOL0     H59620   3.224   2.410   8.455 -2.3543 -2.3142 -2.0644
  442MOL0     H59621   3.458   2.275   8.352  0.9825  0.7350  0.2746
  442MOL0     H59622   3.710   2.294   8.245  1.4773  3.2240  0.3080
  442MOL0     H59623   3.617   2.225   8.098 -1.7247  0.1599  1.8923
  442MOL0     H59624   3.698   2.429   7.977 -1.3180 -0.4079  0.1780
  442MOL0     H59625   3.791   2.468   8.127 -0.4838 -1.1084  1.2994
  442MOL0     H59626   3.848   2.259   7.919  4.7007 -0.8631 -0.1514
  442MOL0     H59627   3.901   2.225   8.082  1.4328 -0.4782 -1.2022
  442MOL0     H59628   4.072   2.351   7.942 -0.1373  0.2335 -1.2862
  442MOL0     H59629   4.032   2.410   8.107  0.8168 -2.3629 -0.5122
  442MOL0     H59630   3.968   2.432   7.712  1.7751 -1.9752 -1.3696
  442MOL0     H59631   4.166   2.481   7.546 -0.8540 -3.5660  2.5647
  442MOL0     H59632   4.607   2.885   7.476  1.0893  0.3702 -4.7595
  442MOL0     H59633   4.815   2.827   7.335  0.4077 -1.3539 -2.3087
  442MOL0     H59634   4.944   2.435   7.274  0.3283  1.3657 -0.2778
  442MOL0     H59635   4.840   2.559   7.212 -0.2771 -0.9006 -0.7467
  442MOL0     H59636   5.030   2.686   7.126 -0.3843  0.1572  2.7195
  442MOL0     H59637   5.124   2.539   7.159  0.4269  1.6913  2.3291
  442MOL0     H59638   4.864   2.546   6.969  0.7220 -1.7271 -3.0988
  442MOL0     H59639   5.030   2.595   6.925 -0.6027  0.2769 -0.6099
  442MOL0     H59640   4.978   2.320   7.041 -1.7126 -4.6955 -4.6243
  442MOL0     H59641   5.120   2.391   6.931  0.5445 -0.6131 -2.1807
  442MOL0     H59642   4.825   2.334   6.856 -0.2546  4.5180  1.7117
  442MOL0     H59643   4.957   2.233   6.797 -0.9105 -0.1752 -2.9598
  442MOL0     H59644   4.864   2.492   6.700 -0.9567 -1.8641  0.1940
  442MOL0     H59645   5.044   2.482   6.703  0.0113 -0.6640  0.3478
  442MOL0     H59646   4.876   2.258   6.584  0.8262 -0.9374  2.6687
  442MOL0     H59647   5.059   2.284   6.579 -0.4800  0.9423 -1.3434
  442MOL0     H59648   4.834   2.430   6.456 -0.4403  1.0684  1.3097
  442MOL0     H59649   5.013   2.480   6.440  1.4414 -1.3604  0.3015
  442MOL0     H59650   4.853   2.465   7.543  2.1815  1.8825 -0.0523
  442MOL0     H59651   4.667   2.505   7.674  0.3175  1.1912  0.7223
  442MOL0     H59652   4.332   2.758   7.821 -0.1168 -0.2275  0.3729
  442MOL0     H59653   4.143   2.693   7.984  0.0052 -1.1619 -0.2981
  442MOL0     H59654   2.456   1.818   8.614 -1.3646  2.6881 -1.4733
  442MOL0     H59655   2.456   1.577   8.642 -1.3538 -2.1746 -1.1503
  442MOL0     H59656   2.452   1.182   8.377 -2.1977  2.3859  1.4503
  442MOL0     H59657   2.450   0.931   8.347 -0.3335 -1.0150  0.2180
  442MOL0     H59658   2.149   0.702   8.581 -0.6383  1.1129 -0.9246
  442MOL0     H59659   2.286   0.689   8.664 -3.5405  1.3424  1.2760
  442MOL0     H59660   2.253   0.475   8.606 -2.2611  2.7555  2.5107
  442MOL0     H59661   2.345   0.515   8.446 -0.9999  2.4171 -0.6690
  442MOL0     H59662   2.132   0.548   8.349  5.1778  1.4009  0.4372
  442MOL0     H59663   2.035   0.475   8.488 -1.4688 -4.3733 -2.2060
  442MOL0     H59664   2.223   0.322   8.324 -1.0532  0.0378 -0.2126
  442MOL0     H59665   2.172   0.284   8.487 -0.3480 -1.6312 -0.1494
  442MOL0     H59666   1.829   0.190   8.234 -3.3965  0.5126  4.0432
  442MOL0     H59667   2.216   0.882   8.680  0.6753 -3.1884 -3.3091
  442MOL0     H59668   2.105   1.165   8.768 -0.6619 -1.4410  0.8945
  442MOL0     H59669   2.194   1.045   8.852 -0.3776  0.9000  1.9590
  442MOL0     H59670   2.268   1.208   8.831  0.1285  0.5420 -1.0583
  443MOL0     O59671   1.660   2.881   2.208  0.5327  0.2073 -1.5503
  443MOL0     C59672   1.684   2.997   2.240 -0.1758 -0.3467  0.4488
  443MOL0     O59673   1.595   3.079   2.310  0.3995 -0.4205 -0.1121
  443MOL0     C59674   1.485   3.010   2.357  0.1215 -0.6286  0.5734
  443MOL0     C59675   1.497   2.942   2.479  0.0792  0.5574  0.8529
  443MOL0     C59676   1.389   2.851   2.524  0.0819  0.4331  0.7332
  443MOL0     C59677   1.265   2.836   2.448 -0.1996 -0.3761  0.0538
  443MOL0     O59678   1.162   2.770   2.507 -0.5307  0.5707 -0.4126
  443MOL0     C59679   1.043   2.854   2.519 -0.5367  0.0175 -0.0382
  443MOL0     C59680   0.946   2.795   2.631  0.1409  0.3146  0.6748
  443MOL0     C59681   0.815   2.868   2.640  0.7556  0.6893 -0.0688
  443MOL0     C59682   0.711   2.797   2.556  0.4720  0.2153 -0.2897
  443MOL0     C59683   0.589   2.882   2.501  0.3997 -0.3344  0.6104
  443MOL0     C59684   0.503   2.785   2.426  0.2995 -0.0239  0.4830
  443MOL0     C59685   0.394   2.872   2.359 -0.9476 -0.4746  0.4074
  443MOL0     C59686   0.288   2.793   2.285  1.5331 -0.4257 -0.4404
  443MOL0     N59687   0.218   2.700   2.376 -0.1710 -0.4830 -0.7250
  443MOL0     C59688   0.198   2.569   2.354  0.3603  0.0812  0.2474
  443MOL0     C59689   0.115   2.527   2.455 -0.4024 -0.6506  0.3959
  443MOL0     C59690   0.061   2.387   2.459 -0.4131 -0.1260 -0.1454
  443MOL0     C59691   0.080   2.346   2.605  0.8100 -0.1914  0.0986
  443MOL0     C59692  -0.038   2.384   2.701 -0.5212  0.1723 -0.3062
  443MOL0     C59693  -0.171   2.347   2.650  0.1029 -0.4703 -0.5839
  443MOL0     O59694  -0.177   2.208   2.616  1.1064 -1.1090 -0.0855
  443MOL0     C59695  -0.306   2.147   2.611 -0.1810 -0.0989 -0.3108
  443MOL0     C59696  -0.321   2.007   2.621 -0.2049  0.4216 -0.4590
  443MOL0     C59697  -0.443   1.947   2.635  0.0790  0.0700 -0.1242
  443MOL0     C59698  -0.563   2.021   2.624  0.0002  0.5619  1.3653
  443MOL0     C59699  -0.700   1.959   2.628 -0.7146 -0.3064  0.9907
  443MOL0     O59700  -0.806   2.047   2.607  0.2814 -0.1415 -0.8691
  443MOL0     C59701  -0.943   2.015   2.623  0.0043  0.6561  1.0163
  443MOL0     C59702  -0.995   1.904   2.690  0.0588 -0.7075  0.8510
  443MOL0     C59703  -1.137   1.882   2.707 -1.2243  0.2447 -1.1769
  443MOL0     C59704  -1.219   1.965   2.632 -0.1134 -0.2075 -0.9019
  443MOL0     O59705  -1.351   1.939   2.634 -0.3290  0.5821 -0.1336
  443MOL0     C59706  -1.420   1.955   2.515  0.2489  0.3831 -0.9732
  443MOL0     C59707  -1.531   2.060   2.539 -0.7478 -0.1444  0.4523
  443MOL0     C59708  -1.635   2.054   2.427 -0.7268  0.1436  0.7132
  443MOL0     C59709  -1.730   2.172   2.439  0.4817 -0.4797  0.1613
  443MOL0     C59710  -1.825   2.184   2.318  0.5974  1.1871 -0.8696
  443MOL0     C59711  -1.953   2.112   2.336  0.0375  0.8462  0.1631
  443MOL0     C59712  -2.061   2.144   2.228  0.3740  0.4979  0.2324
  443MOL0     C59713  -2.173   2.042   2.223  0.3703  0.0796  0.1323
  443MOL0    Cl59714  -2.284   2.104   2.101  0.2396  0.2957 -0.3871
  443MOL0     C59715  -1.167   2.087   2.583 -0.7823  0.4282  0.4064
  443MOL0     C59716  -1.038   2.108   2.562 -0.9453  0.5515  0.0332
  443MOL0     O59717  -0.701   1.847   2.665  0.7596 -0.0157  0.0445
  443MOL0     C59718  -0.556   2.162   2.600 -0.4524  0.2509 -0.7959
  443MOL0     C59719  -0.427   2.220   2.597 -1.2632  0.2420  0.0487
  443MOL0     N59720   0.088   2.628   2.539 -0.7154 -0.2229 -0.4069
  443MOL0     N59721   0.138   2.738   2.485  0.2172 -0.4027 -0.2757
  443MOL0     C59722   1.257   2.921   2.328 -0.9370 -0.5342  0.2703
  443MOL0     C59723   1.362   3.009   2.286  0.3067  0.6206 -0.5539
  443MOL0     C59724   1.811   3.061   2.202  0.1677  0.2733  0.1405
  443MOL0     C59725   1.862   3.012   2.084  0.0576  0.4379 -1.0368
  443MOL0     C59726   1.987   3.059   2.042  0.0569 -0.1108 -0.0535
  443MOL0     C59727   2.061   3.149   2.106 -0.7511  0.8622  0.6103
  443MOL0     O59728   2.167   3.195   2.035  0.4220 -0.2944 -0.3036
  443MOL0     C59729   2.219   3.329   2.073 -0.8514  0.2051 -0.3423
  443MOL0     C59730   2.290   3.377   1.943  0.7501  0.2744  0.4163
  443MOL0     C59731   2.351   3.512   1.959 -0.0997 -0.0631 -0.6308
  443MOL0     C59732   2.482   3.513   2.039 -0.2010 -0.4417  0.1881
  443MOL0     C59733   2.544   3.648   2.046 -0.0032  0.3032  0.4122
  443MOL0     C59734   2.588   3.761   2.051  0.7259  1.0317 -0.2462
  443MOL0     C59735   2.012   3.201   2.225  0.3339 -0.0988 -0.4599
  443MOL0     C59736   1.889   3.160   2.276 -0.5371  0.0467  0.2388
  443MOL0     C59737   1.852   3.193   2.420 -0.4201 -0.8536 -0.1417
  443MOL0     H59738   1.589   2.951   2.536  0.8267 -2.0641  0.2047
  443MOL0     H59739   1.397   2.800   2.619 -2.8289  1.8252  1.8262
  443MOL0     H59740   1.064   2.957   2.550 -1.5850  0.2110  0.0553
  443MOL0     H59741   0.994   2.856   2.421 -3.6917  0.5403  1.4115
  443MOL0     H59742   0.987   2.786   2.732 -0.4554  1.4080  1.0289
  443MOL0     H59743   0.924   2.691   2.605 -1.3874 -0.4501  4.3844
  443MOL0     H59744   0.819   2.974   2.615  1.5052  1.6731  3.5737
  443MOL0     H59745   0.799   2.849   2.747  4.3929 -1.1567  0.3270
  443MOL0     H59746   0.766   2.769   2.466  0.5851 -1.3854  0.2475
  443MOL0     H59747   0.687   2.702   2.606  1.4854 -0.2763 -0.7239
  443MOL0     H59748   0.557   2.928   2.595  4.1222 -0.6335  2.1972
  443MOL0     H59749   0.633   2.962   2.440 -2.2662  0.9873  0.2517
  443MOL0     H59750   0.560   2.737   2.346 -0.3196 -2.2437  1.2849
  443MOL0     H59751   0.461   2.709   2.493 -0.3126 -0.0459  0.0818
  443MOL0     H59752   0.443   2.936   2.285  1.8894 -2.4462  0.4336
  443MOL0     H59753   0.348   2.942   2.429 -2.3732  4.7513 -5.0000
  443MOL0     H59754   0.213   2.858   2.238 -0.4463 -2.8109 -0.8192
  443MOL0     H59755   0.333   2.754   2.193 -0.7019  1.1356 -2.3073
  443MOL0     H59756   0.225   2.520   2.262 -1.2156  0.8266 -0.6512
  443MOL0     H59757  -0.041   2.380   2.420 -2.2632  0.5010  4.0864
  443MOL0     H59758   0.133   2.328   2.400  2.8180  4.2697 -1.1672
  443MOL0     H59759   0.083   2.237   2.602  2.0837 -0.2174  1.2833
  443MOL0     H59760   0.180   2.367   2.644  1.4983 -0.2012 -1.5821
  443MOL0     H59761  -0.032   2.491   2.725 -1.2271  0.4985 -1.4637
  443MOL0     H59762  -0.009   2.330   2.791  0.9194  2.2179  0.5256
  443MOL0     H59763  -0.194   2.417   2.569  2.1545  2.2690  1.0249
  443MOL0     H59764  -0.237   2.372   2.733  2.5460 -0.9097  1.5927
  443MOL0     H59765  -0.237   1.938   2.626 -0.1170  0.6131  1.4853
  443MOL0     H59766  -0.446   1.841   2.656 -2.0173  0.1784  0.3317
  443MOL0     H59767  -0.931   1.838   2.747  0.1544 -1.2524  0.1254
  443MOL0     H59768  -1.179   1.798   2.761 -1.7749  0.3151 -1.4876
  443MOL0     H59769  -1.356   1.990   2.433 -0.7621  1.8857 -1.1639
  443MOL0     H59770  -1.465   1.861   2.484  1.2604 -1.3333  2.2615
  443MOL0     H59771  -1.566   2.036   2.640  1.5022 -0.3267  1.2424
  443MOL0     H59772  -1.487   2.160   2.529 -1.4383  0.1913  0.6607
  443MOL0     H59773  -1.585   2.057   2.329 -0.6698 -1.5436  0.6702
  443MOL0     H59774  -1.690   1.960   2.415  1.8774 -1.1790 -2.9826
  443MOL0     H59775  -1.673   2.265   2.438  1.3276 -0.8569 -3.5593
  443MOL0     H59776  -1.790   2.151   2.527 -0.9916 -1.9138 -1.1078
  443MOL0     H59777  -1.767   2.150   2.232 -1.2827 -2.4943 -0.8912
  443MOL0     H59778  -1.848   2.290   2.300  1.7114  1.1819 -2.5698
  443MOL0     H59779  -1.928   2.006   2.326  1.6037  0.9722  2.2798
  443MOL0     H59780  -1.988   2.135   2.437  2.0109  2.0827  0.6183
  443MOL0     H59781  -2.011   2.150   2.131  0.5620  0.2275  0.3075
  443MOL0     H59782  -2.092   2.247   2.241  1.9148  1.3138 -1.9531
  443MOL0     H59783  -2.141   1.938   2.216 -0.4491 -0.3241  1.9208
  443MOL0     H59784  -2.223   2.048   2.320 -0.4189 -0.2928 -0.2429
  443MOL0     H59785  -1.223   2.174   2.550 -1.0554 -0.0794 -0.5171
  443MOL0     H59786  -1.007   2.204   2.523 -0.3783  2.2566  4.1353
  443MOL0     H59787  -0.641   2.230   2.601 -0.1325  0.6524 -0.7785
  443MOL0     H59788  -0.407   2.326   2.584 -3.3284  1.0900  2.7082
  443MOL0     H59789   1.161   2.912   2.278  0.3874  0.9002 -2.8534
  443MOL0     H59790   1.372   3.073   2.198  1.9062 -0.1985 -1.0109
  443MOL0     H59791   1.814   2.933   2.026  1.2229 -1.0096 -0.0833
  443MOL0     H59792   2.015   3.034   1.940  0.0976 -0.8916  0.1439
  443MOL0     H59793   2.292   3.322   2.154  3.9907 -0.8815 -4.3276
  443MOL0     H59794   2.132   3.391   2.096 -2.7172 -1.1095 -3.2212
  443MOL0     H59795   2.224   3.367   1.857 -1.1178 -0.8318  1.9206
  443MOL0     H59796   2.372   3.311   1.913  1.8233  1.7597 -0.0588
  443MOL0     H59797   2.279   3.583   2.001  0.3239 -0.6752  1.2069
  443MOL0     H59798   2.368   3.547   1.857  0.9526  0.3189 -0.3367
  443MOL0     H59799   2.470   3.471   2.139 -2.3593 -1.7736 -0.5480
  443MOL0     H59800   2.551   3.450   1.981  0.2377  0.8055 -0.7009
  443MOL0     H59801   2.651   3.847   2.045  3.4898 -0.7644  0.8117
  443MOL0     H59802   2.069   3.276   2.280 -1.7404  0.2466  1.3347
  443MOL0     H59803   1.937   3.183   2.489 -2.7477  0.6019  3.1839
  443MOL0     H59804   1.821   3.296   2.438 -1.4205 -1.3845  1.3869
  443MOL0     H59805   1.783   3.120   2.464  0.0841 -1.2087  0.0773
  444MOL0     O59806   5.281   9.762   6.858  0.6624  0.6314 -0.4874
  444MOL0     C59807   5.162   9.782   6.848  0.6224  0.3141 -0.2003
  444MOL0     O59808   5.073   9.726   6.756  0.6270  1.0300  0.4017
  444MOL0     C59809   5.113   9.640   6.661 -0.5896  0.2158 -0.2011
  444MOL0     C59810   5.155   9.519   6.704 -0.2596 -0.2276  0.3551
  444MOL0     C59811   5.184   9.414   6.611  0.6165 -0.5251  0.6920
  444MOL0     C59812   5.162   9.434   6.467  0.2873  0.6653  0.3843
  444MOL0     O59813   5.161   9.335   6.364  0.4612 -0.4376 -0.2992
  444MOL0     C59814   5.210   9.205   6.377  0.4332 -0.7175  0.5164
  444MOL0     C59815   5.183   9.127   6.241 -0.0010 -0.4347  0.1892
  444MOL0     C59816   5.221   8.983   6.268  0.0671 -0.6697 -1.0459
  444MOL0     C59817   5.206   8.900   6.133  0.7036  0.6444 -0.8450
  444MOL0     C59818   5.230   8.760   6.191 -0.2591 -0.4038  1.4743
  444MOL0     C59819   5.191   8.658   6.081 -0.5441  0.0827 -0.0373
  444MOL0     C59820   5.274   8.540   6.104  0.4267 -0.1406 -0.7403
  444MOL0     C59821   5.205   8.407   6.079  0.0763  0.7750  0.0634
  444MOL0     N59822   5.136   8.393   5.952 -0.0276  0.2121  0.4224
  444MOL0     C59823   5.155   8.481   5.848  0.3551 -0.5496 -0.1459
  444MOL0     C59824   5.043   8.480   5.770  0.0988 -0.1354 -0.2356
  444MOL0     C59825   5.028   8.548   5.636 -0.1529  0.3558  0.3165
  444MOL0     C59826   5.041   8.452   5.513  0.7187 -0.5129  0.5740
  444MOL0     C59827   5.088   8.527   5.382 -0.5040 -0.0216 -0.2246
  444MOL0     C59828   4.968   8.609   5.334  0.3430  0.3237 -0.8593
  444MOL0     O59829   5.001   8.665   5.206  0.0652  0.6805  0.5310
  444MOL0     C59830   4.908   8.728   5.136  0.4933  0.3180  0.7525
  444MOL0     C59831   4.905   8.864   5.145 -0.3017  0.2818  0.2888
  444MOL0     C59832   4.814   8.936   5.075 -0.1708  0.0488 -0.2234
  444MOL0     C59833   4.725   8.871   4.997  0.3537 -0.6015  0.8566
  444MOL0     C59834   4.627   8.952   4.925  0.4981  0.0800 -0.0320
  444MOL0     O59835   4.524   8.874   4.877 -0.1348  0.1697  0.2267
  444MOL0     C59836   4.426   8.933   4.809  0.1987 -0.4608 -0.7248
  444MOL0     C59837   4.451   9.010   4.702 -0.9284 -0.6025  1.0525
  444MOL0     C59838   4.341   9.061   4.640  0.9403 -0.1858 -0.1015
  444MOL0     C59839   4.210   9.040   4.677 -0.4618 -0.2107 -1.0327
  444MOL0     O59840   4.102   9.103   4.620 -0.5079  0.2222  0.5535
  444MOL0     C59841   4.056   9.212   4.698  0.0176  0.1149 -0.6800
  444MOL0     C59842   3.973   9.305   4.616  0.2578 -0.5381  0.4784
  444MOL0     C59843   3.826   9.255   4.592 -0.2765 -0.1496 -0.5785
  444MOL0     C59844   3.731   9.293   4.703 -0.0502 -0.4644  0.5936
  444MOL0     C59845   3.587   9.253   4.711  0.1399  0.5392 -0.1041
  444MOL0     C59846   3.560   9.098   4.696  0.6902 -0.3218 -0.2155
  444MOL0     C59847   3.414   9.050   4.713  0.6575 -0.3805 -0.1637
  444MOL0     C59848   3.401   8.897   4.693  0.9277 -0.7780 -1.3691
  444MOL0    Cl59849   3.224   8.842   4.728  0.0165 -0.2808  0.2314
  444MOL0     C59850   4.189   8.974   4.796 -0.6588  0.1506 -0.6847
  444MOL0     C59851   4.297   8.915   4.853 -1.2843  0.6402 -0.0301
  444MOL0     O59852   4.630   9.072   4.919  0.2350 -0.7905  1.0323
  444MOL0     C59853   4.726   8.728   4.974  0.0724 -0.4071  0.1440
  444MOL0     C59854   4.824   8.660   5.047 -0.3869  0.3936 -0.4502
  444MOL0     N59855   4.953   8.399   5.828  0.1415 -0.2531  0.1914
  444MOL0     N59856   5.003   8.358   5.931  0.2545 -0.3182 -0.4156
  444MOL0     C59857   5.127   9.573   6.428  0.1441 -1.4287 -0.0484
  444MOL0     C59858   5.111   9.672   6.529  0.9235  0.3698  1.0665
  444MOL0     C59859   5.091   9.854   6.960  0.0922 -0.0154 -0.8612
  444MOL0     C59860   4.962   9.903   6.935 -0.9718 -0.0393  0.6223
  444MOL0     C59861   4.890   9.953   7.037  0.3297  0.2595 -0.2803
  444MOL0     C59862   4.937   9.980   7.166 -0.5178 -0.1127  0.7530
  444MOL0     O59863   4.862  10.035   7.263  0.2103 -0.0985  0.1851
  444MOL0     C59864   4.749  10.122   7.233 -0.0901 -0.0272  0.5085
  444MOL0     C59865   4.674  10.113   7.372  0.7343 -0.3901 -0.4466
  444MOL0     C59866   4.653   9.966   7.421  0.3420  0.3678 -0.4439
  444MOL0     C59867   4.594   9.967   7.564  0.3548  0.6744 -0.8448
  444MOL0     C59868   4.461  10.037   7.571  0.0189  0.0344 -0.8537
  444MOL0     C59869   4.352  10.090   7.575 -0.8893 -0.1428  0.5811
  444MOL0     C59870   5.067   9.936   7.190 -1.0149  0.4555  0.1594
  444MOL0     C59871   5.144   9.872   7.093  0.3706  0.3182 -0.6540
  444MOL0     C59872   5.289   9.838   7.123  0.0996  0.9425 -0.7163
  444MOL0     H59873   5.168   9.501   6.810  3.0073 -0.3449  0.0257
  444MOL0     H59874   5.214   9.318   6.650 -1.1347 -1.0985  0.7148
  444MOL0     H59875   5.317   9.193   6.396  0.4014  1.1220  2.1746
  444MOL0     H59876   5.150   9.155   6.454 -1.5189 -1.9101 -1.6419
  444MOL0     H59877   5.250   9.172   6.168  2.2152 -2.4692  0.8446
  444MOL0     H59878   5.080   9.147   6.211 -0.3107 -1.3402  0.6066
  444MOL0     H59879   5.149   8.944   6.341  2.0139  0.7150  1.8234
  444MOL0     H59880   5.318   8.985   6.317  0.5959 -2.6713 -1.8958
  444MOL0     H59881   5.109   8.918   6.086 -1.2591 -1.1490  2.1553
  444MOL0     H59882   5.288   8.924   6.065  1.7110 -0.5408 -0.0991
  444MOL0     H59883   5.334   8.758   6.223  0.6082  0.6087 -1.0954
  444MOL0     H59884   5.169   8.736   6.279 -0.4513 -1.5920  1.0374
  444MOL0     H59885   5.085   8.632   6.091 -0.2555 -1.3352 -0.3033
  444MOL0     H59886   5.212   8.701   5.983 -0.2199 -1.1930 -0.5534
  444MOL0     H59887   5.311   8.537   6.207  2.0549 -2.2685 -1.3169
  444MOL0     H59888   5.360   8.543   6.036 -0.4299  0.5621 -1.8311
  444MOL0     H59889   5.281   8.328   6.074 -2.4658 -1.7749 -2.8086
  444MOL0     H59890   5.142   8.384   6.165 -2.5663  4.8964 -0.4859
  444MOL0     H59891   5.240   8.548   5.840 -0.3487  0.4697  0.5117
  444MOL0     H59892   4.931   8.600   5.634 -2.1625 -2.9906  1.2819
  444MOL0     H59893   5.105   8.625   5.625 -0.6488  1.2288  2.5111
  444MOL0     H59894   5.111   8.371   5.535 -0.3887 -2.9801 -3.7855
  444MOL0     H59895   4.947   8.405   5.484  2.0707 -2.4783 -0.8695
  444MOL0     H59896   5.117   8.448   5.313 -1.1902 -0.1538 -0.3681
  444MOL0     H59897   5.179   8.584   5.402 -0.8659  0.3960  0.2559
  444MOL0     H59898   4.943   8.689   5.403  2.5752 -0.7755  1.3775
  444MOL0     H59899   4.884   8.540   5.323  0.4973  0.1375 -0.8841
  444MOL0     H59900   4.976   8.917   5.206 -2.5111  1.6262  1.8316
  444MOL0     H59901   4.811   9.044   5.077 -1.2013  0.0514 -1.2775
  444MOL0     H59902   4.547   9.032   4.657 -1.9772 -0.4345 -1.2457
  444MOL0     H59903   4.350   9.104   4.541  0.7733 -1.9849 -0.9387
  444MOL0     H59904   3.994   9.166   4.775 -3.9387  0.9540 -3.0791
  444MOL0     H59905   4.131   9.273   4.750 -0.0694  0.9949 -1.5517
  444MOL0     H59906   3.980   9.402   4.666  1.0977  0.4737 -1.5165
  444MOL0     H59907   4.027   9.323   4.523 -1.1608 -0.7335 -0.4140
  444MOL0     H59908   3.791   9.300   4.498 -1.6660 -0.3286 -0.1778
  444MOL0     H59909   3.832   9.146   4.580  5.7233  0.0364 -2.0999
  444MOL0     H59910   3.733   9.402   4.714 -0.8635 -0.2499 -1.0559
  444MOL0     H59911   3.790   9.251   4.785  1.3213  0.1635 -0.0316
  444MOL0     H59912   3.532   9.308   4.634  1.6745  0.7082 -1.1050
  444MOL0     H59913   3.559   9.284   4.812 -0.3716  1.8330 -0.6160
  444MOL0     H59914   3.592   9.061   4.598 -0.0424 -2.2700  0.2510
  444MOL0     H59915   3.619   9.045   4.772 -0.9760 -1.8628  0.0615
  444MOL0     H59916   3.354   9.113   4.647  1.2975  1.8579  1.2778
  444MOL0     H59917   3.385   9.082   4.814 -0.2522 -0.5545 -0.3599
  444MOL0     H59918   3.429   8.878   4.589  0.7187 -1.7186 -1.2659
  444MOL0     H59919   3.471   8.841   4.756 -1.8834 -2.7788  0.1955
  444MOL0     H59920   4.090   8.961   4.838 -0.7519 -0.3158 -1.0431
  444MOL0     H59921   4.297   8.869   4.951 -0.1791  3.5019  1.4359
  444MOL0     H59922   4.647   8.681   4.918  1.4232 -1.1523 -1.1938
  444MOL0     H59923   4.827   8.552   5.034 -0.7123  0.5608 -2.1908
  444MOL0     H59924   5.112   9.598   6.323  4.4651  0.5552 -0.4317
  444MOL0     H59925   5.084   9.777   6.519  1.1695  0.6351  2.8886
  444MOL0     H59926   4.931   9.890   6.832 -0.2807  1.1905  0.2329
  444MOL0     H59927   4.795   9.992   7.001  1.2196  1.6450 -1.2036
  444MOL0     H59928   4.677  10.088   7.158 -0.5759 -3.2226  2.2165
  444MOL0     H59929   4.780  10.225   7.213 -2.4532  0.8463  0.9408
  444MOL0     H59930   4.577  10.164   7.365  0.1914 -0.7064  3.0201
  444MOL0     H59931   4.721  10.173   7.450  1.1986 -0.0001 -1.0152
  444MOL0     H59932   4.750   9.916   7.431  1.0060  2.0141  2.8412
  444MOL0     H59933   4.592   9.911   7.349 -0.9655 -0.4651  1.2068
  444MOL0     H59934   4.585   9.862   7.594  1.4765  1.4457  2.6501
  444MOL0     H59935   4.669  10.010   7.631 -0.2978 -0.6282  0.8322
  444MOL0     H59936   4.256  10.138   7.569  0.3617  2.3585 -0.6682
  444MOL0     H59937   5.097   9.956   7.292  1.9938  2.8196 -1.0148
  444MOL0     H59938   5.306   9.731   7.142  1.3550  1.1108 -0.8661
  444MOL0     H59939   5.357   9.874   7.046  1.5769 -2.2593 -1.0615
  444MOL0     H59940   5.322   9.878   7.219 -0.2605  3.7027 -1.6669
  445MOL0     O59941   6.959   0.556   2.584  0.6508  0.4975  0.0824
  445MOL0     C59942   7.044   0.522   2.658 -0.2258  0.7716 -0.1464
  445MOL0     O59943   7.037   0.412   2.741  0.6362 -0.4554 -0.7224
  445MOL0     C59944   6.912   0.351   2.744 -0.8825 -0.3226 -0.4024
  445MOL0     C59945   6.859   0.272   2.634 -0.2638 -0.0478 -0.1615
  445MOL0     C59946   6.742   0.197   2.635 -0.9332  0.0089 -0.0136
  445MOL0     C59947   6.672   0.200   2.762  0.9359 -0.3168  0.5610
  445MOL0     O59948   6.545   0.144   2.789 -0.7011  0.1420  0.0271
  445MOL0     C59949   6.473   0.067   2.692 -0.0378 -0.4515 -0.0931
  445MOL0     C59950   6.508  -0.075   2.728  0.1162  0.8189  0.6660
  445MOL0     C59951   6.528  -0.159   2.596 -0.4322  0.3998 -0.1439
  445MOL0     C59952   6.603  -0.295   2.625  0.2889  0.4716  0.4706
  445MOL0     C59953   6.565  -0.397   2.516  0.4316 -0.3229 -0.3165
  445MOL0     C59954   6.674  -0.498   2.500 -0.5109  0.8478 -0.1610
  445MOL0     C59955   6.726  -0.567   2.626 -0.0656  0.1741  0.1947
  445MOL0     C59956   6.616  -0.660   2.689 -0.4732  0.3162 -0.0347
  445MOL0     N59957   6.568  -0.778   2.610  0.1692 -0.1318 -0.5395
  445MOL0     C59958   6.618  -0.908   2.610  0.8714 -0.6675 -0.4783
  445MOL0     C59959   6.538  -0.986   2.540  0.1461 -0.2135  0.5969
  445MOL0     C59960   6.557  -1.125   2.517  0.7760 -0.1144  0.3855
  445MOL0     C59961   6.431  -1.196   2.486 -0.6710  0.0966 -0.9933
  445MOL0     C59962   6.452  -1.343   2.442 -0.3376  0.4014 -0.7453
  445MOL0     C59963   6.496  -1.365   2.303  0.2720 -0.3709  0.1839
  445MOL0     O59964   6.453  -1.487   2.251  1.0431  0.1526 -0.1810
  445MOL0     C59965   6.409  -1.484   2.117  0.1011 -0.4989 -0.5202
  445MOL0     C59966   6.269  -1.457   2.084 -0.2084  0.7386 -0.7703
  445MOL0     C59967   6.230  -1.471   1.953  0.3298 -0.0070  0.2885
  445MOL0     C59968   6.313  -1.523   1.853  0.2002 -0.0978  0.5100
  445MOL0     C59969   6.258  -1.530   1.717 -0.1810  0.2889 -0.8955
  445MOL0     O59970   6.123  -1.552   1.693  0.6714 -0.4943 -0.4501
  445MOL0     C59971   6.077  -1.600   1.569  0.9714  0.4905 -1.4925
  445MOL0     C59972   5.965  -1.539   1.528  0.5294 -0.8268 -0.1714
  445MOL0     C59973   5.888  -1.579   1.416 -0.0420  0.6350 -0.2555
  445MOL0     C59974   5.936  -1.691   1.347  0.1821 -0.2472  0.0614
  445MOL0     O59975   5.881  -1.743   1.235  0.2110  0.9444  0.0196
  445MOL0     C59976   5.771  -1.682   1.170  0.6466  0.0785  0.1733
  445MOL0     C59977   5.674  -1.787   1.108  0.1249 -0.7012  0.7254
  445MOL0     C59978   5.747  -1.848   0.988 -0.9015  0.2261 -0.4944
  445MOL0     C59979   5.668  -1.970   0.939 -0.1647  0.9706 -0.1314
  445MOL0     C59980   5.682  -1.977   0.784  0.7644 -0.1229  0.9083
  445MOL0     C59981   5.610  -2.099   0.719 -1.2593 -0.8537  1.0090
  445MOL0     C59982   5.619  -2.113   0.561 -1.1121 -0.0823 -0.4759
  445MOL0     C59983   5.752  -2.164   0.505  0.2686 -0.2664 -1.4022
  445MOL0    Cl59984   5.801  -2.324   0.577  0.4369  0.3154  0.0301
  445MOL0     C59985   6.059  -1.747   1.386 -0.1729  0.0040  0.2345
  445MOL0     C59986   6.133  -1.702   1.492  0.7837  0.4868 -0.9572
  445MOL0     O59987   6.340  -1.511   1.630 -0.2737 -0.1395 -0.1389
  445MOL0     C59988   6.442  -1.565   1.890 -0.0516 -0.4621 -0.7146
  445MOL0     C59989   6.491  -1.543   2.020 -0.0069  0.5846 -0.5650
  445MOL0     N59990   6.448  -0.888   2.489 -0.0581 -0.6412  0.2408
  445MOL0     N59991   6.463  -0.771   2.532  0.6388 -0.4466  0.1818
  445MOL0     C59992   6.723   0.264   2.872  0.8825 -0.6058  0.3229
  445MOL0     C59993   6.841   0.344   2.863 -0.2109 -0.4218 -0.6842
  445MOL0     C59994   7.154   0.621   2.686  0.3487 -0.9084 -0.1421
  445MOL0     C59995   7.177   0.724   2.597 -0.4363 -0.2065  0.7346
  445MOL0     C59996   7.285   0.812   2.621  0.4703 -0.3592 -0.6182
  445MOL0     C59997   7.355   0.811   2.744 -0.1166  0.0117  0.1251
  445MOL0     O59998   7.454   0.901   2.768 -0.0975 -0.4347  0.1009
  445MOL0     C59999   7.578   0.848   2.808 -0.9449 -0.0754  0.8487
  445MOL0     C60000   7.696   0.873   2.720  0.2747  0.5908  0.1933
  445MOL0     C60001   7.676   0.790   2.590  0.2751  0.3624  0.2659
  445MOL0     C60002   7.770   0.816   2.473 -0.9161  0.3312 -0.3002
  445MOL0     C60003   7.734   0.938   2.413  0.5813  0.3345 -0.2191
  445MOL0     C60004   7.691   1.041   2.364 -0.6559 -0.1732 -0.2755
  445MOL0     C60005   7.316   0.724   2.845  0.1172 -0.1733 -0.2807
  445MOL0     C60006   7.208   0.631   2.813  0.2034  1.1787 -0.8178
  445MOL0     C60007   7.171   0.546   2.930  0.7786  0.0391  0.4935
  445MOL0     H60008   6.918   0.255   2.545 -1.5538  0.0209 -1.0612
  445MOL0     H60009   6.703   0.144   2.548  1.6935 -1.9530 -0.1242
  445MOL0     H60010   6.365   0.081   2.685 -0.9084 -5.0667  0.5885
  445MOL0     H60011   6.498   0.094   2.589 -0.8778  0.1226 -0.1536
  445MOL0     H60012   6.422  -0.132   2.766 -2.1482  1.3104 -3.1865
  445MOL0     H60013   6.599  -0.086   2.786 -0.4403  1.1378  1.6239
  445MOL0     H60014   6.586  -0.102   2.523 -1.0095 -0.5764 -1.4187
  445MOL0     H60015   6.441  -0.169   2.530  3.2714 -2.7382 -5.3012
  445MOL0     H60016   6.709  -0.271   2.622  0.2111  1.0220 -3.7625
  445MOL0     H60017   6.589  -0.323   2.730 -0.9090  0.3966  0.3029
  445MOL0     H60018   6.464  -0.434   2.536 -0.3325  0.5779 -2.2585
  445MOL0     H60019   6.554  -0.344   2.421  1.0437  0.7015  0.1597
  445MOL0     H60020   6.649  -0.564   2.417  3.0797  1.3706 -1.8501
  445MOL0     H60021   6.757  -0.437   2.461 -1.5610  2.8436  0.5548
  445MOL0     H60022   6.756  -0.486   2.692  0.3176  1.2422 -1.2302
  445MOL0     H60023   6.813  -0.625   2.591  0.4241  0.9472  0.1044
  445MOL0     H60024   6.660  -0.707   2.777 -1.1319 -1.1835 -0.4726
  445MOL0     H60025   6.523  -0.606   2.708 -1.6860  0.2258 -4.4956
  445MOL0     H60026   6.698  -0.949   2.672  1.3131  1.1978  0.2411
  445MOL0     H60027   6.631  -1.144   2.438  1.3953  1.8134  0.4380
  445MOL0     H60028   6.602  -1.178   2.602 -0.6651 -1.5017  0.3260
  445MOL0     H60029   6.360  -1.202   2.569  2.1553 -2.3038  1.5064
  445MOL0     H60030   6.376  -1.146   2.406  1.1401  1.4580 -1.4476
  445MOL0     H60031   6.353  -1.387   2.455 -1.1213  2.3727  0.3924
  445MOL0     H60032   6.527  -1.389   2.507  0.3576  0.9512 -1.1301
  445MOL0     H60033   6.604  -1.355   2.289  0.1198  0.9857 -0.0817
  445MOL0     H60034   6.451  -1.288   2.241  3.8667  2.7909  1.1230
  445MOL0     H60035   6.207  -1.413   2.161 -1.7319 -1.0455 -0.9049
  445MOL0     H60036   6.126  -1.441   1.945  0.1263 -0.6850  0.2869
  445MOL0     H60037   5.933  -1.448   1.577 -0.2194  0.0127 -2.0868
  445MOL0     H60038   5.797  -1.527   1.387  0.9744  2.3080 -0.5614
  445MOL0     H60039   5.707  -1.624   1.238  0.7957  0.3594  0.0774
  445MOL0     H60040   5.813  -1.624   1.087  1.1943 -1.8225 -0.9405
  445MOL0     H60041   5.644  -1.869   1.174 -3.8556 -0.1205 -0.1202
  445MOL0     H60042   5.585  -1.740   1.067  1.8118 -0.4311 -3.0894
  445MOL0     H60043   5.761  -1.770   0.913  1.3226  4.5991  3.8453
  445MOL0     H60044   5.849  -1.877   1.015 -0.2123  1.8785 -1.1560
  445MOL0     H60045   5.561  -1.962   0.957 -0.8570 -1.1648 -2.6198
  445MOL0     H60046   5.697  -2.062   0.992 -0.9758  0.9454  0.2729
  445MOL0     H60047   5.788  -1.991   0.764  0.6680  1.0210 -0.5914
  445MOL0     H60048   5.640  -1.889   0.734  0.7590 -1.3178 -1.3254
  445MOL0     H60049   5.664  -2.187   0.757 -0.2396 -0.8924 -0.4397
  445MOL0     H60050   5.508  -2.096   0.758 -0.8608 -1.0220  2.0849
  445MOL0     H60051   5.593  -2.019   0.511  1.6052 -0.4102 -2.7522
  445MOL0     H60052   5.546  -2.188   0.530 -3.0520  1.4079  0.2596
  445MOL0     H60053   5.733  -2.158   0.398 -3.0432  2.3004 -0.8380
  445MOL0     H60054   5.836  -2.102   0.538  0.1768 -1.4564  1.3895
  445MOL0     H60055   6.082  -1.846   1.348 -2.0910  0.2089 -1.6814
  445MOL0     H60056   6.227  -1.746   1.525 -0.7800  0.2600  4.0131
  445MOL0     H60057   6.499  -1.605   1.807 -3.9490 -2.9598 -2.4740
  445MOL0     H60058   6.592  -1.574   2.044  1.1429  1.5216 -3.7879
  445MOL0     H60059   6.679   0.250   2.971  0.3045 -0.4036  0.1007
  445MOL0     H60060   6.874   0.388   2.957  1.1196  0.6856 -1.6339
  445MOL0     H60061   7.118   0.723   2.506 -2.3604 -2.1827  1.9029
  445MOL0     H60062   7.313   0.884   2.545 -1.2833  0.1390 -0.8147
  445MOL0     H60063   7.578   0.743   2.840  2.2162 -0.1991  0.7838
  445MOL0     H60064   7.593   0.902   2.903 -0.7747 -0.1537  0.8676
  445MOL0     H60065   7.790   0.857   2.773 -1.1969 -2.1014  2.2040
  445MOL0     H60066   7.691   0.978   2.689 -3.6237  0.0364 -1.7336
  445MOL0     H60067   7.577   0.816   2.551  0.5989  0.8184 -0.2679
  445MOL0     H60068   7.686   0.683   2.612  2.3878  0.5133  0.2568
  445MOL0     H60069   7.876   0.816   2.502 -1.2855 -0.1298  1.1446
  445MOL0     H60070   7.773   0.734   2.401  2.5392  2.3885 -2.8253
  445MOL0     H60071   7.643   1.125   2.317 -0.3959 -1.7595 -3.7011
  445MOL0     H60072   7.370   0.724   2.939  3.7053 -1.1389 -2.1238
  445MOL0     H60073   7.065   0.569   2.947  0.8460  0.6798  0.1044
  445MOL0     H60074   7.187   0.442   2.904  0.3657  0.6154 -2.3856
  445MOL0     H60075   7.226   0.565   3.023 -0.5959 -0.7311  1.5066
  446MOL0     O60076   0.759   6.314   1.704 -0.2933  0.0239  0.3445
  446MOL0     C60077   0.667   6.388   1.677  0.0920  0.3270 -0.8803
  446MOL0     O60078   0.594   6.380   1.565 -0.7229  0.2808  0.8247
  446MOL0     C60079   0.649   6.326   1.444 -0.3308 -0.6439 -0.7923
  446MOL0     C60080   0.702   6.198   1.432 -0.6296 -1.3437  0.2729
  446MOL0     C60081   0.737   6.146   1.304  0.6274  0.3406 -0.6578
  446MOL0     C60082   0.720   6.219   1.186 -0.1266 -0.7112 -1.5024
  446MOL0     O60083   0.751   6.159   1.068 -0.4303  0.3248 -0.7381
  446MOL0     C60084   0.715   6.215   0.938  0.6571  0.3210 -0.2956
  446MOL0     C60085   0.760   6.124   0.827  0.0918  0.0578 -0.2016
  446MOL0     C60086   0.740   6.193   0.698 -0.3462 -0.6574  0.1983
  446MOL0     C60087   0.769   6.087   0.586  1.1391 -0.4106  0.8375
  446MOL0     C60088   0.781   6.149   0.439 -0.4515 -0.3772 -0.0833
  446MOL0     C60089   0.745   6.049   0.331  0.5889 -0.5676 -0.3411
  446MOL0     C60090   0.746   6.109   0.184 -0.8503 -0.3589 -0.4137
  446MOL0     C60091   0.717   5.993   0.090 -0.1235  0.4631 -0.2210
  446MOL0     N60092   0.726   6.047  -0.046 -0.2958 -0.4253 -0.8099
  446MOL0     C60093   0.842   6.041  -0.118 -0.1346  0.4896 -0.2180
  446MOL0     C60094   0.818   6.089  -0.241  0.6893  0.0441 -0.4666
  446MOL0     C60095   0.902   6.125  -0.365  0.2673  0.4015 -0.3463
  446MOL0     C60096   0.984   6.246  -0.341  0.0547  0.1491 -0.3174
  446MOL0     C60097   0.898   6.365  -0.291  0.1664  0.0210 -0.0171
  446MOL0     C60098   0.907   6.383  -0.137  0.1850 -0.3280 -1.2533
  446MOL0     O60099   1.044   6.403  -0.095  1.0398 -0.3436 -0.1400
  446MOL0     C60100   1.066   6.411   0.039 -0.2995 -0.1226  0.1175
  446MOL0     C60101   1.196   6.434   0.087  0.3055 -0.5816 -0.7141
  446MOL0     C60102   1.223   6.446   0.224  0.6733 -0.2115 -0.2287
  446MOL0     C60103   1.124   6.430   0.320 -0.2837  0.1094 -0.5721
  446MOL0     C60104   1.149   6.450   0.460  0.7524  0.0956 -0.2416
  446MOL0     O60105   1.045   6.418   0.540 -0.4107  0.3610  0.4862
  446MOL0     C60106   1.061   6.432   0.678 -0.0179  0.6475  0.4668
  446MOL0     C60107   1.037   6.319   0.769 -0.4191  0.1465  0.6686
  446MOL0     C60108   1.049   6.325   0.907 -0.3437  0.4625  0.6536
  446MOL0     C60109   1.111   6.440   0.958 -0.1300 -0.6416  0.2778
  446MOL0     O60110   1.130   6.462   1.086  0.4406  0.2222 -0.3174
  446MOL0     C60111   1.080   6.371   1.185  0.1754 -0.8086 -0.0224
  446MOL0     C60112   1.099   6.447   1.309  0.2566 -0.2230  0.2730
  446MOL0     C60113   1.073   6.368   1.437  0.5123  0.2382 -0.7746
  446MOL0     C60114   1.128   6.445   1.561 -0.1925  0.2787  0.6895
  446MOL0     C60115   1.109   6.384   1.699 -0.5041 -0.0285 -0.2581
  446MOL0     C60116   1.169   6.472   1.810  0.4384  0.1059 -0.7459
  446MOL0     C60117   1.160   6.395   1.952  0.9049 -0.2431  0.2959
  446MOL0     C60118   1.232   6.470   2.059  0.8480 -0.1016 -0.9611
  446MOL0    Cl60119   1.124   6.606   2.113 -0.0912  0.3263  0.0296
  446MOL0     C60120   1.139   6.549   0.872 -0.4402 -0.7268 -0.1623
  446MOL0     C60121   1.108   6.545   0.735  0.4343 -0.0800 -0.0211
  446MOL0     O60122   1.250   6.499   0.490 -0.1941 -0.0726  0.7889
  446MOL0     C60123   0.990   6.404   0.274  0.0819 -0.6081  0.4779
  446MOL0     C60124   0.955   6.393   0.138  0.9805 -0.1339 -0.1566
  446MOL0     N60125   0.682   6.133  -0.241  0.1429  0.0594  1.2783
  446MOL0     N60126   0.631   6.094  -0.126 -0.2134 -0.2836 -1.3246
  446MOL0     C60127   0.671   6.351   1.202 -0.7349 -0.6137 -1.0003
  446MOL0     C60128   0.635   6.402   1.332  0.3323  0.6191 -0.0194
  446MOL0     C60129   0.617   6.492   1.776 -0.2576  0.0703 -0.3712
  446MOL0     C60130   0.521   6.580   1.736  1.6951 -0.0847  0.3945
  446MOL0     C60131   0.473   6.689   1.815  0.1221  0.1900  0.4444
  446MOL0     C60132   0.509   6.692   1.947  0.9214  0.0800  1.0557
  446MOL0     O60133   0.461   6.784   2.037  0.4621 -0.4426  0.7603
  446MOL0     C60134   0.390   6.899   1.992 -0.4686  0.1283  0.3103
  446MOL0     C60135   0.493   7.004   1.959 -0.1634  0.0004  0.1019
  446MOL0     C60136   0.582   7.049   2.073 -0.9245  0.5479 -0.2048
  446MOL0     C60137   0.725   7.093   2.039  1.0246 -0.3401 -0.2075
  446MOL0     C60138   0.790   6.983   1.969 -0.2675  0.5661 -0.6469
  446MOL0     C60139   0.837   6.899   1.894 -0.3267 -0.5539  0.6120
  446MOL0     C60140   0.593   6.595   1.995 -1.0027  1.3066 -0.2201
  446MOL0     C60141   0.657   6.504   1.909  0.1138  0.0882  0.3332
  446MOL0     C60142   0.754   6.402   1.968 -0.2895 -0.5975 -0.1044
  446MOL0     H60143   0.709   6.141   1.524  1.8713  0.0625  1.0669
  446MOL0     H60144   0.768   6.043   1.294 -0.0763  0.1802 -1.2585
  446MOL0     H60145   0.606   6.219   0.945  0.6501 -1.3452  1.5060
  446MOL0     H60146   0.762   6.312   0.918  3.3306 -1.2134 -2.0327
  446MOL0     H60147   0.707   6.028   0.836 -1.5097  1.1106  3.2584
  446MOL0     H60148   0.863   6.090   0.839 -0.6645 -1.9242  1.2917
  446MOL0     H60149   0.807   6.280   0.689  1.9700 -2.3282  0.3299
  446MOL0     H60150   0.635   6.223   0.699 -0.5809 -1.4019  1.8086
  446MOL0     H60151   0.862   6.035   0.612  1.0783 -0.7437  0.4017
  446MOL0     H60152   0.697   6.005   0.594  2.6703 -1.8485  0.6115
  446MOL0     H60153   0.723   6.242   0.435 -1.1735 -0.6925  1.7592
  446MOL0     H60154   0.889   6.164   0.439 -0.2157 -1.2116  3.1980
  446MOL0     H60155   0.818   5.968   0.336  0.7767 -0.3907 -0.1823
  446MOL0     H60156   0.644   6.011   0.346  0.5817 -0.2349  0.5249
  446MOL0     H60157   0.843   6.151   0.155  0.2913 -2.6192 -0.0961
  446MOL0     H60158   0.680   6.196   0.179  1.4140  1.4807 -0.2966
  446MOL0     H60159   0.789   5.911   0.094  2.7453  2.8123 -0.0806
  446MOL0     H60160   0.611   5.970   0.104 -0.7700  4.1214  2.5497
  446MOL0     H60161   0.940   6.018  -0.078  0.5106  2.9561 -0.1816
  446MOL0     H60162   0.968   6.047  -0.403  1.6169  0.6844  1.3153
  446MOL0     H60163   0.832   6.142  -0.447 -2.0135  0.9515  1.6130
  446MOL0     H60164   1.057   6.228  -0.262 -3.1583  0.7390  3.0727
  446MOL0     H60165   1.035   6.256  -0.438  3.5008 -0.9095  1.2185
  446MOL0     H60166   0.795   6.351  -0.325  0.4160 -3.0971  0.2008
  446MOL0     H60167   0.931   6.461  -0.332 -0.9404  0.9948  1.2797
  446MOL0     H60168   0.863   6.293  -0.093  1.0323  0.3803  1.2018
  446MOL0     H60169   0.843   6.470  -0.118 -1.6372 -1.4225 -2.1349
  446MOL0     H60170   1.285   6.456   0.029 -1.3294  1.5736 -2.5800
  446MOL0     H60171   1.328   6.467   0.242  0.0693  2.2312  0.9058
  446MOL0     H60172   1.001   6.224   0.731 -2.1200  1.5877 -1.5594
  446MOL0     H60173   1.012   6.240   0.962 -0.1963 -0.2479 -0.2998
  446MOL0     H60174   0.974   6.356   1.167 -0.7909  3.3309  1.1897
  446MOL0     H60175   1.147   6.284   1.181 -0.6787 -1.4326 -1.9897
  446MOL0     H60176   1.197   6.495   1.303 -1.0289  2.6683  0.3374
  446MOL0     H60177   1.030   6.532   1.309  1.6905  1.2125 -4.2753
  446MOL0     H60178   0.968   6.343   1.456  0.2882  2.0293  0.6308
  446MOL0     H60179   1.133   6.278   1.427 -1.5698 -1.2182 -0.9598
  446MOL0     H60180   1.065   6.535   1.561 -3.2036 -1.5818 -2.1132
  446MOL0     H60181   1.234   6.458   1.539  0.0757 -0.6602  1.4028
  446MOL0     H60182   1.151   6.283   1.707 -0.0245  0.1078 -0.9386
  446MOL0     H60183   1.002   6.377   1.718 -1.0815  5.5767  0.2525
  446MOL0     H60184   1.271   6.510   1.798 -0.3562  2.3040 -1.1236
  446MOL0     H60185   1.109   6.564   1.805 -0.4865 -0.4824 -0.5930
  446MOL0     H60186   1.212   6.300   1.937  0.8234  0.0517 -2.5402
  446MOL0     H60187   1.057   6.369   1.976  0.7702 -1.1032 -1.0940
  446MOL0     H60188   1.241   6.415   2.153 -1.1030  1.8527  0.4884
  446MOL0     H60189   1.333   6.501   2.031  1.0764 -0.3448 -0.4143
  446MOL0     H60190   1.172   6.642   0.917 -1.3778 -1.1537  1.5082
  446MOL0     H60191   1.133   6.634   0.677  0.5932  0.2509  0.5449
  446MOL0     H60192   0.907   6.400   0.344  3.4324 -1.6305  4.7611
  446MOL0     H60193   0.852   6.369   0.114  1.5824 -3.1893 -0.1424
  446MOL0     H60194   0.656   6.405   1.109 -1.4121 -0.3238 -0.7269
  446MOL0     H60195   0.586   6.498   1.334  0.1256  0.5134  0.0221
  446MOL0     H60196   0.491   6.587   1.632 -2.7281  0.7913  1.5230
  446MOL0     H60197   0.400   6.750   1.763  2.1727  2.5052  0.1077
  446MOL0     H60198   0.319   6.947   2.060 -2.4391 -0.5541 -1.1720
  446MOL0     H60199   0.318   6.875   1.914  0.4809 -1.9428  0.0103
  446MOL0     H60200   0.447   7.100   1.931  0.9647  0.1581 -1.3225
  446MOL0     H60201   0.540   6.973   1.866 -0.5080 -2.5369  0.7099
  446MOL0     H60202   0.601   6.969   2.146 -0.0988  0.1158 -0.8792
  446MOL0     H60203   0.530   7.126   2.132 -0.8067  1.0876 -0.7906
  446MOL0     H60204   0.724   7.178   1.970  0.8406  0.4790  0.7756
  446MOL0     H60205   0.777   7.123   2.130 -0.2405  0.7139  0.1944
  446MOL0     H60206   0.884   6.838   1.818  0.8049  0.6749  0.2932
  446MOL0     H60207   0.624   6.588   2.099  0.7227  1.2960 -0.7046
  446MOL0     H60208   0.790   6.440   2.064 -1.7144 -0.1284  0.2593
  446MOL0     H60209   0.704   6.307   1.982 -0.0766 -1.1425 -2.5097
  446MOL0     H60210   0.852   6.392   1.919  0.2186 -2.0535  1.1590
  447MOL0     O60211   0.899   7.855   1.619  0.7736  0.6490  0.4589
  447MOL0     C60212   0.999   7.922   1.645 -0.3637 -1.0667 -0.5328
  447MOL0     O60213   1.063   7.920   1.769 -0.6589 -0.4610  0.1450
  447MOL0     C60214   1.015   7.832   1.858  0.7116 -0.3526 -0.5198
  447MOL0     C60215   1.096   7.737   1.903 -0.1098  1.2089 -0.2928
  447MOL0     C60216   1.061   7.643   2.003  0.9559  0.8783 -0.6761
  447MOL0     C60217   0.935   7.652   2.065  0.1971  0.9366 -0.1551
  447MOL0     O60218   0.895   7.573   2.167 -0.3377 -0.0477 -0.0838
  447MOL0     C60219   0.975   7.447   2.205  0.4551 -0.1337 -0.3317
  447MOL0     C60220   0.887   7.376   2.315 -0.1197 -0.3285 -0.3240
  447MOL0     C60221   0.937   7.230   2.337 -0.5487 -0.2728 -0.2355
  447MOL0     C60222   0.833   7.153   2.416  0.0419 -0.3672  0.2122
  447MOL0     C60223   0.884   7.002   2.439 -0.4082 -0.0928 -0.5711
  447MOL0     C60224   0.868   6.924   2.311  0.0018  0.5060 -0.6537
  447MOL0     C60225   0.899   6.778   2.319 -0.0587  1.3276 -0.7898
  447MOL0     C60226   0.806   6.707   2.414 -0.3669 -0.5057  0.8636
  447MOL0     N60227   0.787   6.572   2.378 -0.4649  0.6395  0.8184
  447MOL0     C60228   0.903   6.494   2.390  0.2990  0.1139  0.8931
  447MOL0     C60229   0.864   6.369   2.376  0.4386  1.2703  0.0311
  447MOL0     C60230   0.949   6.245   2.397 -0.5039 -0.0277 -0.2023
  447MOL0     C60231   0.992   6.197   2.263 -0.0715 -0.3898  0.6374
  447MOL0     C60232   1.065   6.064   2.285 -0.1472  0.4836 -0.3047
  447MOL0     C60233   1.130   6.027   2.153 -0.5049  0.2095  0.4581
  447MOL0     O60234   1.036   5.992   2.055 -0.3110  0.4414  0.2557
  447MOL0     C60235   1.080   5.979   1.918  1.1472 -0.1664 -0.0889
  447MOL0     C60236   0.989   5.989   1.809 -0.0940  0.3828 -0.6599
  447MOL0     C60237   1.029   5.976   1.679 -0.2463  0.3161  0.3083
  447MOL0     C60238   1.158   5.949   1.645 -0.6213  0.5133  0.0694
  447MOL0     C60239   1.202   5.965   1.499 -1.2392  0.1887 -0.2693
  447MOL0     O60240   1.106   5.991   1.406 -0.0496 -0.8256 -0.3600
  447MOL0     C60241   1.132   5.998   1.276 -0.2082  0.0198  0.5407
  447MOL0     C60242   1.242   6.053   1.219 -0.2754 -0.0638  0.1085
  447MOL0     C60243   1.250   6.070   1.078 -0.5323 -0.1883 -0.0489
  447MOL0     C60244   1.152   6.021   0.997 -0.2165 -0.8764 -0.3581
  447MOL0     O60245   1.168   6.005   0.860  0.7178 -0.2757 -0.2397
  447MOL0     C60246   1.294   6.015   0.800 -0.1871  0.2211  0.3924
  447MOL0     C60247   1.304   5.952   0.657 -0.1791 -0.4380  0.1231
  447MOL0     C60248   1.214   6.007   0.550 -0.5559 -0.8367 -0.0176
  447MOL0     C60249   1.250   5.926   0.426  1.0805  0.4979  0.1734
  447MOL0     C60250   1.186   5.982   0.304  0.5610 -0.1599  0.6057
  447MOL0     C60251   1.203   5.915   0.164  0.2321  0.3522 -0.4277
  447MOL0     C60252   1.163   5.769   0.170  0.4951 -0.3607  0.4610
  447MOL0     C60253   1.200   5.687   0.044 -1.0841 -0.0901  1.0380
  447MOL0    Cl60254   1.146   5.779  -0.100 -0.4092 -0.5060  0.3918
  447MOL0     C60255   1.044   5.960   1.052 -0.0050 -0.1007 -0.1686
  447MOL0     C60256   1.029   5.952   1.188 -0.8026 -0.4359  0.7315
  447MOL0     O60257   1.321   5.945   1.472  0.2771 -0.3000 -0.0269
  447MOL0     C60258   1.253   5.943   1.747  0.0019  0.3852 -0.8424
  447MOL0     C60259   1.218   5.966   1.880 -0.0224 -0.3538  0.5504
  447MOL0     N60260   0.727   6.363   2.370 -0.5929 -0.1141 -0.0396
  447MOL0     N60261   0.674   6.488   2.366 -0.6196  0.1564  0.7414
  447MOL0     C60262   0.853   7.753   2.030  0.3735 -0.3292  0.3990
  447MOL0     C60263   0.894   7.846   1.927  0.2546 -0.3589  0.4263
  447MOL0     C60264   1.073   8.000   1.533 -0.3376 -0.3600  1.3304
  447MOL0     C60265   1.210   8.030   1.562  0.1097 -0.2855 -1.6648
  447MOL0     C60266   1.295   8.077   1.471 -0.3149  0.7516  0.3795
  447MOL0     C60267   1.251   8.092   1.334  0.2145  0.0202  0.6353
  447MOL0     O60268   1.341   8.127   1.235 -0.0351  0.0706 -0.7166
  447MOL0     C60269   1.309   8.123   1.100  0.0505  0.2705  1.0166
  447MOL0     C60270   1.209   8.235   1.037  0.7312  0.5992 -0.0880
  447MOL0     C60271   1.238   8.375   1.087 -0.0551  1.0352 -0.7737
  447MOL0     C60272   1.160   8.484   1.016 -0.1814  0.2575 -0.7844
  447MOL0     C60273   1.191   8.506   0.871  0.6532 -0.1907  0.5964
  447MOL0     C60274   1.208   8.522   0.753  0.1918  0.2031 -0.7108
  447MOL0     C60275   1.117   8.068   1.303 -0.4062 -0.2150  0.2547
  447MOL0     C60276   1.034   8.018   1.397  0.6412  0.2921  0.1232
  447MOL0     C60277   0.894   7.982   1.344  0.5061  0.2373 -0.2027
  447MOL0     H60278   1.194   7.733   1.857 -0.3107 -2.4471 -0.6618
  447MOL0     H60279   1.140   7.579   2.042 -0.5385  0.7658  2.5275
  447MOL0     H60280   0.996   7.381   2.120 -2.9471 -1.9737  0.0748
  447MOL0     H60281   1.074   7.457   2.249 -1.6071  0.1896  4.9169
  447MOL0     H60282   0.783   7.375   2.282 -1.5647  2.8032  3.3830
  447MOL0     H60283   0.884   7.441   2.403 -0.8370  0.9457 -1.2635
  447MOL0     H60284   1.038   7.232   2.379 -0.2468 -0.1018 -0.9524
  447MOL0     H60285   0.943   7.174   2.243 -1.6557 -3.5527  1.5113
  447MOL0     H60286   0.837   7.206   2.511  0.4280 -3.6582  2.1634
  447MOL0     H60287   0.733   7.161   2.374 -0.5840 -2.6059  1.1298
  447MOL0     H60288   0.989   7.010   2.468 -0.1297 -0.8457 -1.3358
  447MOL0     H60289   0.820   6.954   2.514 -0.5867 -1.6998 -1.7071
  447MOL0     H60290   0.764   6.934   2.280  0.0548  1.9708 -0.4337
  447MOL0     H60291   0.928   6.975   2.235  2.2938 -0.3551  0.4801
  447MOL0     H60292   1.000   6.767   2.361 -1.1020  0.3692  1.6188
  447MOL0     H60293   0.894   6.734   2.219  1.5422 -1.9395  0.4106
  447MOL0     H60294   0.850   6.706   2.514  1.3601 -2.5328  0.1524
  447MOL0     H60295   0.707   6.754   2.417 -0.8832 -1.3731 -1.0537
  447MOL0     H60296   1.006   6.523   2.408  0.3546 -0.6409  1.8829
  447MOL0     H60297   1.031   6.263   2.467 -3.1921 -0.3534  3.2783
  447MOL0     H60298   0.877   6.182   2.450  0.1534 -1.0543 -0.4964
  447MOL0     H60299   0.899   6.186   2.207  1.1027 -1.9980 -1.1138
  447MOL0     H60300   1.057   6.267   2.210  1.5723 -3.7833 -2.2573
  447MOL0     H60301   0.989   5.996   2.323  1.3474 -1.2285 -0.2430
  447MOL0     H60302   1.146   6.068   2.359  1.1943  1.3705 -1.7462
  447MOL0     H60303   1.194   5.938   2.152  0.8331  1.1236 -0.8729
  447MOL0     H60304   1.196   6.108   2.119 -0.7234  0.4678  0.6446
  447MOL0     H60305   0.887   6.022   1.829 -0.3850 -2.0721  2.8160
  447MOL0     H60306   0.949   5.997   1.608  0.1371  2.3900  0.4328
  447MOL0     H60307   1.324   6.081   1.284  0.6474  0.0442 -1.0652
  447MOL0     H60308   1.329   6.125   1.030 -0.9434 -2.8420 -4.3626
  447MOL0     H60309   1.311   6.123   0.801  1.5829 -0.0104 -0.5429
  447MOL0     H60310   1.364   5.959   0.862  0.1990  0.2420 -0.0206
  447MOL0     H60311   1.408   5.972   0.626  0.0425 -0.2372  0.9780
  447MOL0     H60312   1.303   5.843   0.669  1.9896 -0.7361 -1.7299
  447MOL0     H60313   1.110   6.004   0.583 -1.6525  4.4439 -1.8860
  447MOL0     H60314   1.246   6.111   0.534  2.3188 -1.5720  0.4158
  447MOL0     H60315   1.227   5.820   0.436  0.4639  0.5474 -0.6410
  447MOL0     H60316   1.359   5.923   0.418  1.0886 -2.2922  0.3399
  447MOL0     H60317   1.206   6.089   0.294 -2.4775  0.4844  0.5433
  447MOL0     H60318   1.079   5.977   0.324  0.6014 -1.1016  0.6324
  447MOL0     H60319   1.143   5.962   0.086 -1.5282 -2.8373 -1.1559
  447MOL0     H60320   1.308   5.909   0.132  0.9596 -1.1632  1.9715
  447MOL0     H60321   1.054   5.765   0.167  0.5478 -2.4819 -0.7231
  447MOL0     H60322   1.201   5.719   0.260  1.4934  0.0987  0.3109
  447MOL0     H60323   1.309   5.676   0.040 -1.0964 -0.8861  2.3198
  447MOL0     H60324   1.152   5.589   0.045 -1.4019 -0.0011 -1.3019
  447MOL0     H60325   0.973   5.905   0.991 -0.5439  1.1168 -0.6666
  447MOL0     H60326   0.960   5.883   1.236  2.4924 -3.4275  1.6280
  447MOL0     H60327   1.359   5.928   1.730  0.4531  0.6310  1.4619
  447MOL0     H60328   1.289   5.973   1.961 -1.3540  0.8988  1.6589
  447MOL0     H60329   0.748   7.758   2.060  0.5173  0.3638  0.7981
  447MOL0     H60330   0.834   7.935   1.915  0.2954  0.9261  6.5428
  447MOL0     H60331   1.241   8.032   1.666  1.5313 -0.3247 -2.0683
  447MOL0     H60332   1.398   8.095   1.499  0.1653  1.1721 -1.5028
  447MOL0     H60333   1.277   8.025   1.063  3.3225 -0.5629  0.0964
  447MOL0     H60334   1.400   8.146   1.045 -0.0497 -2.5271 -0.4988
  447MOL0     H60335   1.105   8.217   1.066  0.7597  1.2305  0.4387
  447MOL0     H60336   1.214   8.223   0.929  0.2109  1.4540 -0.2204
  447MOL0     H60337   1.343   8.398   1.067 -0.0195  0.9707 -0.6604
  447MOL0     H60338   1.222   8.380   1.196  0.0346 -0.1478 -0.6992
  447MOL0     H60339   1.052   8.469   1.023 -0.2552  1.5261  2.5705
  447MOL0     H60340   1.178   8.577   1.071 -1.3668 -1.3110  2.5075
  447MOL0     H60341   1.237   8.532   0.651 -4.0600  0.5293 -2.0697
  447MOL0     H60342   1.097   8.085   1.197  0.2557  1.5656  0.3840
  447MOL0     H60343   0.876   8.027   1.246 -0.8811 -2.0546 -1.1025
  447MOL0     H60344   0.881   7.873   1.339  0.2924  0.2331 -5.2445
  447MOL0     H60345   0.833   8.027   1.423  1.0821  0.6003  0.0398
  448MOL0     O60346   9.880   8.682   7.587 -0.0311  0.6008  0.5082
  448MOL0     C60347   9.994   8.651   7.555 -0.2421  0.0388 -0.0349
  448MOL0     O60348  10.036   8.603   7.436 -0.0966 -0.7239  0.6960
  448MOL0     C60349   9.933   8.571   7.349  0.4333 -0.9320 -1.2291
  448MOL0     C60350   9.912   8.438   7.318  0.5110 -0.2563  0.7051
  448MOL0     C60351   9.821   8.406   7.214 -0.0809 -0.5265 -0.3457
  448MOL0     C60352   9.752   8.509   7.148 -0.0906 -0.2496 -0.8469
  448MOL0     O60353   9.696   8.474   7.029  0.6077 -0.0795  0.6304
  448MOL0     C60354   9.644   8.577   6.939  0.2837 -0.0405 -0.0242
  448MOL0     C60355   9.486   8.593   6.951  0.5071  0.2152  0.7849
  448MOL0     C60356   9.416   8.737   6.962  0.6808  0.1981 -0.2793
  448MOL0     C60357   9.444   8.835   6.847  0.3542  0.4446 -1.0277
  448MOL0     C60358   9.332   8.942   6.839 -0.1514  0.6317  0.1450
  448MOL0     C60359   9.327   9.024   6.710  0.1080  0.0321  0.2101
  448MOL0     C60360   9.215   9.129   6.696  0.3171 -0.0770 -0.2366
  448MOL0     C60361   9.225   9.199   6.551  0.2579  0.0477 -0.7591
  448MOL0     N60362   9.119   9.294   6.532  0.1699 -0.7790  0.7817
  448MOL0     C60363   9.072   9.349   6.408 -0.1431  0.7211 -0.9801
  448MOL0     C60364   8.954   9.414   6.440 -1.1274  0.2143  1.1048
  448MOL0     C60365   8.899   9.518   6.353 -0.7367  0.5227  0.9656
  448MOL0     C60366   8.754   9.483   6.315 -0.8242  1.2470 -0.1715
  448MOL0     C60367   8.696   9.619   6.288  0.6561 -0.2093  0.3119
  448MOL0     C60368   8.751   9.709   6.164  0.5067  0.0774 -0.6029
  448MOL0     O60369   8.701   9.847   6.166 -0.1053  0.2250 -0.6414
  448MOL0     C60370   8.567   9.875   6.141 -0.3305  0.5765 -1.1858
  448MOL0     C60371   8.537  10.005   6.165  0.0854  0.5379  0.1829
  448MOL0     C60372   8.408  10.056   6.151  0.0885 -0.1405  0.0046
  448MOL0     C60373   8.306   9.960   6.123 -0.1892  0.1875 -0.3392
  448MOL0     C60374   8.160   9.998   6.128 -0.0452  0.8976 -1.1903
  448MOL0     O60375   8.072   9.892   6.157 -0.2059 -0.6356 -0.4039
  448MOL0     C60376   7.941   9.914   6.190 -0.1722 -1.0251  0.0908
  448MOL0     C60377   7.880   9.829   6.291  0.1003 -0.5548 -0.6011
  448MOL0     C60378   7.745   9.855   6.330 -0.2421 -0.1752 -0.7717
  448MOL0     C60379   7.664   9.947   6.272  0.0692 -0.4986  0.5819
  448MOL0     O60380   7.536   9.965   6.316  0.4417  0.0142  0.5582
  448MOL0     C60381   7.493  10.094   6.360 -0.5911  0.6507 -0.1588
  448MOL0     C60382   7.385  10.069   6.462  0.2023 -0.2703  0.3146
  448MOL0     C60383   7.277   9.983   6.403 -0.2243  1.2607  1.0808
  448MOL0     C60384   7.140  10.012   6.447  0.4445  0.7134  0.4201
  448MOL0     C60385   7.115   9.992   6.596  0.5710  1.1271 -0.2588
  448MOL0     C60386   6.967  10.020   6.636  0.7599  0.8345 -0.5481
  448MOL0     C60387   6.939   9.949   6.761 -0.0038 -0.0384  0.0253
  448MOL0     C60388   7.019   9.981   6.894  0.1914 -0.1112  0.1434
  448MOL0    Cl60389   6.953   9.896   7.048 -0.0257 -0.4441 -0.2823
  448MOL0     C60390   7.719  10.017   6.157  0.2519 -0.1311 -0.0064
  448MOL0     C60391   7.854   9.997   6.121 -0.3696  0.0705  0.3428
  448MOL0     O60392   8.124  10.116   6.103 -0.3625  0.4728  0.2258
  448MOL0     C60393   8.338   9.823   6.093  0.3351 -0.4322  0.7478
  448MOL0     C60394   8.474   9.781   6.113  1.8708  1.0944  0.1669
  448MOL0     N60395   8.931   9.399   6.573 -0.0669 -0.7255 -0.1047
  448MOL0     N60396   9.034   9.343   6.624 -1.4036  0.2315 -1.1400
  448MOL0     C60397   9.745   8.635   7.212 -0.4358 -0.4098  0.5111
  448MOL0     C60398   9.839   8.665   7.305 -0.0421 -0.0232 -0.5436
  448MOL0     C60399  10.102   8.676   7.658 -0.4831 -0.0551 -0.8322
  448MOL0     C60400  10.073   8.683   7.794  0.1478 -0.3100  0.1986
  448MOL0     C60401  10.162   8.714   7.896  0.2220 -0.0864 -0.0399
  448MOL0     C60402  10.291   8.739   7.861  0.4523  0.4130  0.6970
  448MOL0     O60403  10.384   8.788   7.956 -0.5900  0.3059 -0.1920
  448MOL0     C60404  10.527   8.783   7.935 -0.6794  0.8090 -0.1631
  448MOL0     C60405  10.589   8.754   8.076  0.4632 -0.3553  1.1542
  448MOL0     C60406  10.539   8.849   8.181 -1.0772 -0.6071  0.0681
  448MOL0     C60407  10.628   8.849   8.313 -0.9788 -0.0113 -0.1324
  448MOL0     C60408  10.755   8.923   8.299  0.5808 -0.4147 -0.0189
  448MOL0     C60409  10.859   8.984   8.273 -0.1553 -0.9902 -0.2204
  448MOL0     C60410  10.329   8.730   7.716 -0.4973 -0.3306  0.7890
  448MOL0     C60411  10.235   8.707   7.621  0.2982  0.0926 -0.1007
  448MOL0     C60412  10.279   8.731   7.474 -0.5183 -0.1737 -0.3036
  448MOL0     H60413   9.968   8.360   7.370  5.8957  1.1541 -2.2589
  448MOL0     H60414   9.827   8.303   7.181  0.6738 -1.3405  2.0972
  448MOL0     H60415   9.693   8.672   6.966  1.5589  0.2162 -2.9108
  448MOL0     H60416   9.671   8.558   6.835 -0.8709 -2.4980  0.0554
  448MOL0     H60417   9.464   8.535   7.041 -1.5292  1.7412  1.3546
  448MOL0     H60418   9.440   8.525   6.879  1.3061 -0.1937  0.6511
  448MOL0     H60419   9.447   8.781   7.057  1.4189 -0.1063 -0.3780
  448MOL0     H60420   9.310   8.710   6.966  1.3245 -2.4794  1.8471
  448MOL0     H60421   9.537   8.884   6.877  0.3594  0.3834 -0.9411
  448MOL0     H60422   9.449   8.791   6.747 -1.0210  2.3374 -1.9892
  448MOL0     H60423   9.235   8.892   6.844 -0.3826  0.9902 -0.6936
  448MOL0     H60424   9.331   9.010   6.925 -1.7471  2.5745 -1.3179
  448MOL0     H60425   9.427   9.067   6.706  1.3949 -2.6565  1.0248
  448MOL0     H60426   9.318   8.954   6.626 -2.4352 -0.7358  1.0479
  448MOL0     H60427   9.231   9.193   6.783  3.2979 -0.1688 -0.6221
  448MOL0     H60428   9.114   9.088   6.704 -1.4252  3.9058  0.0249
  448MOL0     H60429   9.322   9.246   6.535  0.0097  1.6877  1.9163
  448MOL0     H60430   9.222   9.120   6.477  2.5043  0.9077 -1.8499
  448MOL0     H60431   9.112   9.345   6.307  0.0119  3.4571 -1.0941
  448MOL0     H60432   8.908   9.614   6.403 -0.9727  1.1098 -0.0971
  448MOL0     H60433   8.962   9.523   6.264  1.4051 -0.4082  2.3673
  448MOL0     H60434   8.747   9.418   6.228 -1.5502 -1.1355  1.5866
  448MOL0     H60435   8.706   9.439   6.402 -1.1710 -0.1479 -1.0511
  448MOL0     H60436   8.685   9.676   6.381  1.5486 -0.3422  0.5049
  448MOL0     H60437   8.592   9.594   6.263 -0.6463  3.1179  1.8227
  448MOL0     H60438   8.719   9.657   6.072 -2.5658  0.7967 -0.0601
  448MOL0     H60439   8.860   9.711   6.165  0.4983  1.1829  1.0211
  448MOL0     H60440   8.607  10.081   6.200 -0.6105  0.1423  2.6547
  448MOL0     H60441   8.383  10.156   6.186 -1.2384 -0.6741  0.6321
  448MOL0     H60442   7.930   9.749   6.344 -0.8508 -0.8035 -0.0404
  448MOL0     H60443   7.688   9.782   6.387  0.2307 -1.2388 -1.6181
  448MOL0     H60444   7.572  10.150   6.410 -0.9837  2.0457 -1.0393
  448MOL0     H60445   7.461  10.159   6.278  0.8115 -2.0246 -3.0444
  448MOL0     H60446   7.433  10.013   6.543 -0.6198  0.1177  1.0854
  448MOL0     H60447   7.347  10.166   6.495  0.4279  1.1914 -3.3491
  448MOL0     H60448   7.286  10.004   6.296 -2.4321  1.5290  0.9018
  448MOL0     H60449   7.291   9.876   6.424  0.2421  1.8500  4.2835
  448MOL0     H60450   7.072   9.950   6.389  1.5654 -0.2939  0.1457
  448MOL0     H60451   7.109  10.115   6.427 -0.3254  0.3338 -0.3431
  448MOL0     H60452   7.180  10.060   6.652  1.4821  0.7961 -0.8923
  448MOL0     H60453   7.142   9.889   6.622 -5.3203 -0.5391  0.6940
  448MOL0     H60454   6.942  10.126   6.631 -1.8556  0.2865 -6.1950
  448MOL0     H60455   6.907   9.966   6.562  0.6306 -0.7611  0.6483
  448MOL0     H60456   6.937   9.840   6.753 -1.8751 -0.3023  2.7331
  448MOL0     H60457   6.836   9.967   6.792  0.2160 -0.7411  1.2323
  448MOL0     H60458   7.124   9.951   6.887  0.1062 -0.1889 -0.9495
  448MOL0     H60459   7.014  10.090   6.904 -0.5608  0.0178 -1.3773
  448MOL0     H60460   7.654  10.093   6.116  0.8934  0.1106 -0.5967
  448MOL0     H60461   7.893  10.046   6.032 -2.0481  0.6803 -0.0995
  448MOL0     H60462   8.257   9.756   6.065  1.8185 -0.4978 -4.3343
  448MOL0     H60463   8.487   9.674   6.107 -0.0533  0.7715  0.9478
  448MOL0     H60464   9.684   8.715   7.172  1.5696  0.1262 -1.7329
  448MOL0     H60465   9.833   8.769   7.334  0.3699 -0.1143 -0.1248
  448MOL0     H60466   9.970   8.683   7.827 -0.6937 -1.8228 -2.1302
  448MOL0     H60467  10.124   8.735   7.995  0.6808  1.0479 -0.0851
  448MOL0     H60468  10.551   8.882   7.896 -1.7540  1.0918 -0.1519
  448MOL0     H60469  10.562   8.714   7.858 -0.0167  2.3794 -1.3318
  448MOL0     H60470  10.694   8.781   8.063  0.0314  2.3718  2.7158
  448MOL0     H60471  10.572   8.656   8.122 -2.5098 -0.3518  0.3016
  448MOL0     H60472  10.437   8.830   8.215 -1.9920  3.3933  0.1389
  448MOL0     H60473  10.530   8.951   8.142 -2.0597  0.9815  4.0333
  448MOL0     H60474  10.571   8.900   8.392  0.2003  1.6838 -0.2980
  448MOL0     H60475  10.652   8.747   8.344  1.1224 -1.3182 -5.0732
  448MOL0     H60476  10.948   9.043   8.264 -0.1969 -1.2733 -4.3777
  448MOL0     H60477  10.432   8.750   7.688 -0.3002  2.7714  3.1713
  448MOL0     H60478  10.205   8.789   7.418 -0.4676 -0.9564 -1.2127
  448MOL0     H60479  10.371   8.790   7.479 -0.6057  0.0774 -1.3608
  448MOL0     H60480  10.294   8.639   7.416  2.3611 -2.5857  3.7655
  449MOL0     O60481   2.835   6.232   5.610  0.1791  0.3641 -0.3740
  449MOL0     C60482   2.911   6.190   5.703  0.3575 -0.1958 -0.2806
  449MOL0     O60483   2.885   6.204   5.844 -0.4425 -0.1288  0.7942
  449MOL0     C60484   2.753   6.209   5.880 -0.0474  0.3829  0.8042
  449MOL0     C60485   2.672   6.100   5.903  0.4096 -1.3431 -0.4782
  449MOL0     C60486   2.552   6.110   5.973  0.8215  0.4717 -0.5140
  449MOL0     C60487   2.488   6.235   5.995 -0.3869 -0.1547 -0.0681
  449MOL0     O60488   2.374   6.259   6.064  0.2786 -0.6983 -0.3075
  449MOL0     C60489   2.292   6.156   6.121 -0.9387 -0.0840 -0.8219
  449MOL0     C60490   2.193   6.093   6.027 -0.3815  0.1858  0.0174
  449MOL0     C60491   2.088   6.196   5.990  0.8367  0.6536 -0.3995
  449MOL0     C60492   2.127   6.264   5.857  0.0334  0.2367 -0.5404
  449MOL0     C60493   2.003   6.343   5.820 -0.9024  0.7091 -0.5794
  449MOL0     C60494   2.018   6.382   5.676  0.6229  0.6482 -0.1408
  449MOL0     C60495   1.903   6.452   5.613  0.5524  0.3298 -0.5778
  449MOL0     C60496   1.863   6.585   5.686 -0.2102 -0.3586 -0.2383
  449MOL0     N60497   1.733   6.631   5.630  0.5556  0.0748  0.0090
  449MOL0     C60498   1.614   6.656   5.700  0.6954  0.0783  0.4160
  449MOL0     C60499   1.524   6.685   5.600 -0.0490 -0.4969 -0.2528
  449MOL0     C60500   1.389   6.739   5.618  0.4867 -0.6206 -0.7991
  449MOL0     C60501   1.294   6.632   5.685  0.8209  0.2068  0.2488
  449MOL0     C60502   1.236   6.527   5.592  0.2985  0.2496  0.5501
  449MOL0     C60503   1.338   6.416   5.566  0.0567 -0.6438  0.0477
  449MOL0     O60504   1.369   6.351   5.688 -0.8269  0.6003 -0.2488
  449MOL0     C60505   1.478   6.265   5.690  0.7150  0.8864 -0.4581
  449MOL0     C60506   1.576   6.241   5.593 -0.2771  0.9592 -0.7516
  449MOL0     C60507   1.683   6.155   5.627 -0.9927  0.2681 -0.5439
  449MOL0     C60508   1.695   6.091   5.753  1.0484 -0.3664 -0.8009
  449MOL0     C60509   1.799   5.991   5.772 -0.2420 -0.4089 -0.4901
  449MOL0     O60510   1.909   5.995   5.699 -0.6886 -0.1063  0.4175
  449MOL0     C60511   2.020   5.903   5.713 -0.0427  0.0843 -0.1598
  449MOL0     C60512   2.099   5.882   5.598 -0.2694 -0.4049 -0.3309
  449MOL0     C60513   2.214   5.798   5.610  0.2003  0.2173  0.9433
  449MOL0     C60514   2.245   5.738   5.733  0.3315 -1.1561  0.5107
  449MOL0     O60515   2.335   5.640   5.754  0.9064  0.3269  0.4650
  449MOL0     C60516   2.428   5.609   5.656 -0.7237  0.0295  0.2033
  449MOL0     C60517   2.524   5.491   5.700  0.2439 -0.4480 -0.5506
  449MOL0     C60518   2.469   5.355   5.652 -0.5812  0.1299 -0.0740
  449MOL0     C60519   2.582   5.248   5.669 -0.5165 -0.0856  1.1339
  449MOL0     C60520   2.551   5.124   5.587  0.0989  0.2993 -0.3450
  449MOL0     C60521   2.565   5.128   5.438 -0.7204 -1.1612 -0.2789
  449MOL0     C60522   2.573   4.988   5.391  0.0738  0.7791 -0.9018
  449MOL0     C60523   2.520   4.959   5.248 -0.6094  0.3917 -1.3625
  449MOL0    Cl60524   2.637   4.992   5.123  0.2986 -0.1725 -0.0717
  449MOL0     C60525   2.160   5.765   5.850 -0.6856 -0.5575 -0.1071
  449MOL0     C60526   2.051   5.852   5.835 -0.1257  0.7205 -0.2889
  449MOL0     O60527   1.776   5.899   5.846 -0.4449  0.3239  0.9313
  449MOL0     C60528   1.595   6.117   5.850  0.1030  0.8684  1.0378
  449MOL0     C60529   1.488   6.200   5.819  0.1376  0.1228 -0.1535
  449MOL0     N60530   1.597   6.690   5.482  1.2764  0.3775  0.2893
  449MOL0     N60531   1.713   6.652   5.502 -0.5490 -0.4660  0.5707
  449MOL0     C60532   2.565   6.343   5.952  0.3684 -0.2119 -1.0611
  449MOL0     C60533   2.696   6.333   5.904 -0.1383  0.7684  0.1346
  449MOL0     C60534   3.046   6.133   5.661 -0.1715  0.7278 -0.3035
  449MOL0     C60535   3.120   6.079   5.765  0.0956  0.5339  0.2460
  449MOL0     C60536   3.247   6.027   5.741 -0.2817 -0.5025  1.3012
  449MOL0     C60537   3.289   6.028   5.611  0.0012  0.2138  0.2041
  449MOL0     O60538   3.417   5.976   5.583 -0.3493  0.8685  0.0119
  449MOL0     C60539   3.417   5.859   5.503 -0.7224 -0.3609  0.7116
  449MOL0     C60540   3.560   5.805   5.538  0.7097 -0.2680 -0.4191
  449MOL0     C60541   3.542   5.727   5.670  0.1097 -0.5736  0.4803
  449MOL0     C60542   3.647   5.615   5.685 -0.1043 -0.4997  0.0288
  449MOL0     C60543   3.625   5.560   5.819  0.2497  0.4176  0.2677
  449MOL0     C60544   3.624   5.517   5.931 -0.3101 -0.0015 -0.4874
  449MOL0     C60545   3.217   6.075   5.507  0.5949 -0.1844  1.0399
  449MOL0     C60546   3.095   6.132   5.528  0.1175  0.7612 -0.0073
  449MOL0     C60547   3.023   6.185   5.406  0.6846  0.2437 -0.4282
  449MOL0     H60548   2.715   6.004   5.878 -2.4217 -1.6724 -5.2977
  449MOL0     H60549   2.524   6.009   6.001  3.2499 -0.4404 -1.0962
  449MOL0     H60550   2.356   6.078   6.161 -1.9393 -1.6960 -2.2060
  449MOL0     H60551   2.233   6.177   6.211 -1.3594 -0.2067 -1.0649
  449MOL0     H60552   2.137   6.007   6.065  0.8675 -0.4447  0.4678
  449MOL0     H60553   2.237   6.052   5.937 -0.6447  0.2393 -0.1376
  449MOL0     H60554   2.071   6.265   6.073 -1.1392 -0.1290 -0.0941
  449MOL0     H60555   1.998   6.135   5.979  1.3892 -0.4863  1.0687
  449MOL0     H60556   2.212   6.331   5.875  0.8097 -1.1643  1.2592
  449MOL0     H60557   2.164   6.200   5.777  0.9970  0.4977 -0.3223
  449MOL0     H60558   1.914   6.282   5.841 -2.2109  2.9822  0.9630
  449MOL0     H60559   1.984   6.429   5.885  0.0496  0.6112 -0.1591
  449MOL0     H60560   2.108   6.445   5.679  2.6987 -1.9714 -2.0383
  449MOL0     H60561   2.050   6.300   5.611  0.7423  0.8840 -0.3826
  449MOL0     H60562   1.813   6.391   5.604  0.4138  0.6828 -1.6608
  449MOL0     H60563   1.922   6.486   5.511  1.5014  0.1197 -0.4829
  449MOL0     H60564   1.829   6.569   5.788  0.2631  5.5073  1.1796
  449MOL0     H60565   1.935   6.667   5.674 -3.4420  2.4769 -2.2476
  449MOL0     H60566   1.590   6.654   5.806  0.2902 -0.0200  0.3225
  449MOL0     H60567   1.399   6.827   5.681 -2.7197  0.2756 -1.3706
  449MOL0     H60568   1.340   6.767   5.525  1.0728  0.0115 -0.9250
  449MOL0     H60569   1.345   6.581   5.767 -1.7348  0.0108  1.8249
  449MOL0     H60570   1.210   6.694   5.716  1.2070  1.6674 -1.4491
  449MOL0     H60571   1.207   6.570   5.496  2.2895 -1.2094 -0.7864
  449MOL0     H60572   1.151   6.479   5.640  0.5990  0.7079  1.5733
  449MOL0     H60573   1.421   6.467   5.517 -1.3545  2.4801  0.6458
  449MOL0     H60574   1.310   6.344   5.489  1.2660 -1.4620  0.3419
  449MOL0     H60575   1.577   6.297   5.500 -3.0987  0.3909 -1.2074
  449MOL0     H60576   1.751   6.134   5.546 -2.0880 -1.3234 -1.0897
  449MOL0     H60577   2.075   5.938   5.508  0.6373  1.1122  0.3241
  449MOL0     H60578   2.280   5.774   5.527 -0.8428 -3.6567  1.0453
  449MOL0     H60579   2.380   5.585   5.561  0.6448  1.0175 -0.7803
  449MOL0     H60580   2.475   5.707   5.646 -0.0410  0.2326  3.9652
  449MOL0     H60581   2.628   5.511   5.673  0.9329 -0.2487  2.0028
  449MOL0     H60582   2.520   5.476   5.808  2.5462  2.1312  0.0054
  449MOL0     H60583   2.379   5.339   5.713 -0.7254  0.3291 -0.2318
  449MOL0     H60584   2.430   5.351   5.550 -1.0261  1.5098  0.0199
  449MOL0     H60585   2.601   5.215   5.771  0.3873 -1.7058  0.4779
  449MOL0     H60586   2.669   5.294   5.621 -3.1886  1.0504 -3.2025
  449MOL0     H60587   2.449   5.098   5.616  0.0556 -0.1833 -0.9149
  449MOL0     H60588   2.616   5.042   5.618  1.4877  1.8727  1.1117
  449MOL0     H60589   2.482   5.170   5.380  0.2583 -0.6221 -1.3402
  449MOL0     H60590   2.659   5.179   5.414 -2.2043  1.8802 -0.1661
  449MOL0     H60591   2.510   4.925   5.455  1.7780 -0.9196 -0.8085
  449MOL0     H60592   2.677   4.955   5.395 -0.0384  0.5298  0.2737
  449MOL0     H60593   2.496   4.852   5.248 -0.1702  0.2749 -0.4946
  449MOL0     H60594   2.427   5.014   5.235  1.2318  3.7019 -1.5623
  449MOL0     H60595   2.171   5.718   5.947  3.2794 -0.5459 -0.4132
  449MOL0     H60596   1.997   5.876   5.925 -1.1091 -1.7455 -0.1364
  449MOL0     H60597   1.574   6.067   5.944 -1.5739  0.5216  0.5044
  449MOL0     H60598   1.414   6.222   5.895  0.3144 -1.7480  0.6110
  449MOL0     H60599   2.518   6.437   5.977  2.0242 -0.0342  1.7077
  449MOL0     H60600   2.752   6.423   5.878 -0.5496  1.0865  0.3480
  449MOL0     H60601   3.088   6.087   5.868  4.3578  1.7227  1.7122
  449MOL0     H60602   3.316   5.986   5.814  3.3090  1.8565 -0.4672
  449MOL0     H60603   3.415   5.879   5.395 -1.1855 -0.1635  0.7543
  449MOL0     H60604   3.340   5.785   5.526 -1.6964  0.4762  0.2602
  449MOL0     H60605   3.624   5.888   5.570 -1.0426  0.7207  0.7129
  449MOL0     H60606   3.599   5.749   5.453 -1.5158  3.3080 -4.2111
  449MOL0     H60607   3.441   5.688   5.679  0.4178 -0.9333  3.2631
  449MOL0     H60608   3.563   5.799   5.749 -0.8883  0.0727  0.1691
  449MOL0     H60609   3.637   5.539   5.607  3.2967  0.5195 -1.5763
  449MOL0     H60610   3.743   5.665   5.669 -0.4694 -0.2154 -1.3598
  449MOL0     H60611   3.618   5.489   6.034 -0.3698 -0.3650 -0.5894
  449MOL0     H60612   3.255   6.062   5.406  0.7873  1.0323  0.9473
  449MOL0     H60613   2.979   6.284   5.420 -0.2077 -0.0959 -0.8108
  449MOL0     H60614   3.103   6.204   5.333  2.2984 -1.0082  0.9117
  449MOL0     H60615   2.955   6.113   5.361  1.1616  1.3841 -3.1608
  450MOL0     O60616   7.236   2.832   5.737 -0.1168 -0.2016 -0.9395
  450MOL0     C60617   7.207   2.789   5.627 -0.8713  0.5664 -0.4917
  450MOL0     O60618   7.077   2.787   5.584 -0.2095  0.6421  0.3422
  450MOL0     C60619   6.982   2.840   5.658 -0.0060  0.5036 -0.3109
  450MOL0     C60620   6.877   2.907   5.600 -0.0014 -0.4194  0.1626
  450MOL0     C60621   6.777   2.967   5.678  0.6734 -0.1366  0.4541
  450MOL0     C60622   6.768   2.945   5.814 -0.5567 -0.8873  0.1787
  450MOL0     O60623   6.676   3.011   5.886  0.6289 -1.5169  0.6627
  450MOL0     C60624   6.666   2.984   6.025  0.0772  0.5564  0.1903
  450MOL0     C60625   6.532   3.044   6.070 -0.1159 -0.2872 -0.4161
  450MOL0     C60626   6.484   2.996   6.211  0.4586 -0.7392  0.4831
  450MOL0     C60627   6.335   3.030   6.222  0.0583 -0.5193  0.7334
  450MOL0     C60628   6.299   2.985   6.363 -0.4387 -0.4669  0.1685
  450MOL0     C60629   6.154   2.978   6.396  0.1429 -0.5711 -0.7128
  450MOL0     C60630   6.142   2.937   6.542  0.1376 -0.0377 -0.9910
  450MOL0     C60631   5.992   2.930   6.589 -1.6009  0.2959 -0.1828
  450MOL0     N60632   5.985   2.890   6.740  0.1977 -1.0104  0.2810
  450MOL0     C60633   5.984   2.756   6.784 -0.9341  0.2371  0.2543
  450MOL0     C60634   5.940   2.766   6.905  0.0371  0.5104  0.1177
  450MOL0     C60635   5.949   2.646   6.999  0.0460  1.2904 -0.2023
  450MOL0     C60636   5.856   2.530   6.968 -0.0753 -0.0931  0.8142
  450MOL0     C60637   5.881   2.410   7.065 -0.3633 -0.8987  0.3443
  450MOL0     C60638   5.804   2.277   7.021  0.0969  0.9306  0.4172
  450MOL0     O60639   5.802   2.228   6.891  0.6969  0.3566 -0.4837
  450MOL0     C60640   5.920   2.159   6.868  0.7767 -0.2274 -0.2607
  450MOL0     C60641   5.920   2.021   6.855  0.4404 -0.1177 -0.2795
  450MOL0     C60642   6.039   1.939   6.846 -0.1873 -0.6832 -0.0878
  450MOL0     C60643   6.162   2.015   6.847 -0.1762 -0.4802  0.1836
  450MOL0     C60644   6.289   1.949   6.826 -1.2655  0.1032 -0.0166
  450MOL0     O60645   6.393   2.019   6.765 -0.3016 -0.4108 -0.0187
  450MOL0     C60646   6.494   1.959   6.692 -0.2821  1.6332  0.5688
  450MOL0     C60647   6.623   2.022   6.681  0.2465  0.0677 -0.0595
  450MOL0     C60648   6.723   1.974   6.596 -0.2512  0.0802 -0.2129
  450MOL0     C60649   6.698   1.857   6.527 -0.1939  0.1388 -0.1108
  450MOL0     O60650   6.804   1.824   6.451 -0.0827  0.8808 -0.1894
  450MOL0     C60651   6.806   1.690   6.415 -0.8333  1.4549 -0.0025
  450MOL0     C60652   6.936   1.648   6.353 -0.4606 -0.9350 -0.1602
  450MOL0     C60653   6.954   1.716   6.210 -1.0033  0.4269 -0.1172
  450MOL0     C60654   6.886   1.650   6.091  0.0681  0.1344 -0.6076
  450MOL0     C60655   6.934   1.516   6.053  0.3030  0.6584 -0.2350
  450MOL0     C60656   6.876   1.450   5.926 -0.1972 -0.9398 -0.6135
  450MOL0     C60657   6.849   1.566   5.819  0.1134 -0.0423 -0.2283
  450MOL0     C60658   6.802   1.519   5.685 -0.7468  0.0978 -0.0470
  450MOL0    Cl60659   6.824   1.631   5.554 -0.6594 -0.4115  0.0695
  450MOL0     C60660   6.583   1.778   6.554  0.1350  0.2098 -0.5821
  450MOL0     C60661   6.484   1.828   6.631  0.6955 -0.2110 -0.1677
  450MOL0     O60662   6.304   1.840   6.873  0.3474 -0.2851 -0.2547
  450MOL0     C60663   6.164   2.154   6.844 -0.1324 -0.1977  0.2423
  450MOL0     C60664   6.046   2.221   6.856  0.3626  0.1146 -0.0296
  450MOL0     N60665   5.913   2.899   6.943 -1.0057 -0.6794 -1.0225
  450MOL0     N60666   5.935   2.971   6.840 -0.7357 -0.5270  0.7214
  450MOL0     C60667   6.856   2.859   5.875 -1.0976 -0.3418  0.2438
  450MOL0     C60668   6.969   2.816   5.802  0.7020  0.1992  0.4270
  450MOL0     C60669   7.314   2.716   5.536 -0.0572  0.0359 -0.9031
  450MOL0     C60670   7.446   2.768   5.548 -0.0344  1.1410 -0.4176
  450MOL0     C60671   7.550   2.724   5.467  0.2004 -0.2765  0.2078
  450MOL0     C60672   7.526   2.635   5.368 -0.1521 -1.0919 -0.5354
  450MOL0     O60673   7.628   2.570   5.302  0.2729  0.1815  0.3526
  450MOL0     C60674   7.748   2.637   5.270  0.1819 -0.1438 -0.3209
  450MOL0     C60675   7.838   2.536   5.199 -0.7487  0.0379 -0.3619
  450MOL0     C60676   7.968   2.606   5.138  0.5494 -0.4733 -0.7160
  450MOL0     C60677   8.077   2.627   5.247 -0.2657  0.5512 -1.0102
  450MOL0     C60678   8.204   2.652   5.189 -0.4571 -0.5466  0.7544
  450MOL0     C60679   8.311   2.680   5.132  0.4058 -0.5283  1.3667
  450MOL0     C60680   7.400   2.575   5.363  0.6749 -0.7091  0.3849
  450MOL0     C60681   7.287   2.618   5.433  0.4153 -1.0815  0.0332
  450MOL0     C60682   7.144   2.566   5.405  0.6746 -0.1899 -0.0099
  450MOL0     H60683   6.883   2.919   5.492  0.5230  1.2571  0.3556
  450MOL0     H60684   6.708   3.040   5.636 -0.7377 -0.2492  2.4372
  450MOL0     H60685   6.658   2.878   6.048  0.0815  0.2209 -1.2559
  450MOL0     H60686   6.741   3.039   6.082  0.3684  1.0923 -0.6900
  450MOL0     H60687   6.456   3.014   5.997  1.1934 -1.0170 -1.4982
  450MOL0     H60688   6.537   3.154   6.073 -0.3382 -0.2818 -0.0949
  450MOL0     H60689   6.545   3.031   6.295 -2.2965 -2.1045  3.2516
  450MOL0     H60690   6.493   2.887   6.208 -1.2924 -0.8866 -1.1863
  450MOL0     H60691   6.315   3.135   6.196  3.4600  0.1577  0.4586
  450MOL0     H60692   6.274   2.978   6.147  1.0415 -3.0306  1.5812
  450MOL0     H60693   6.342   2.886   6.380 -0.8333 -0.9570 -1.5135
  450MOL0     H60694   6.355   3.052   6.428 -1.9466 -0.3851  1.4342
  450MOL0     H60695   6.113   3.080   6.391 -0.3970 -0.6992  0.7752
  450MOL0     H60696   6.102   2.912   6.326  2.4584 -3.1658 -0.1453
  450MOL0     H60697   6.198   3.010   6.600  2.3139 -3.3963  1.5182
  450MOL0     H60698   6.189   2.840   6.560  2.1203  0.6504 -2.2098
  450MOL0     H60699   5.945   3.028   6.577 -2.2023  0.0683  0.2555
  450MOL0     H60700   5.936   2.861   6.526  0.6716  0.3518 -2.4223
  450MOL0     H60701   6.032   2.672   6.735 -0.6854  0.2899  0.4084
  450MOL0     H60702   6.049   2.602   6.994 -0.2652  0.3907  0.8915
  450MOL0     H60703   5.939   2.687   7.100  1.1157 -1.8229  1.2886
  450MOL0     H60704   5.755   2.571   6.974  0.7591  2.4776 -0.9853
  450MOL0     H60705   5.869   2.491   6.866 -0.2539 -1.1434  1.1846
  450MOL0     H60706   5.847   2.430   7.167  2.8835  2.9456  0.9265
  450MOL0     H60707   5.989   2.399   7.067 -0.1949  0.4645 -0.2877
  450MOL0     H60708   5.701   2.301   7.049  0.9633  1.5322  3.4410
  450MOL0     H60709   5.837   2.199   7.090  0.9578 -0.4018 -1.3987
  450MOL0     H60710   5.833   1.956   6.857  1.7776 -2.0264  2.5090
  450MOL0     H60711   6.033   1.831   6.837 -0.9156 -0.9558  2.6700
  450MOL0     H60712   6.634   2.116   6.734  1.0578  0.7006 -1.3227
  450MOL0     H60713   6.800   2.049   6.585 -2.9044  3.4168  1.8370
  450MOL0     H60714   6.795   1.626   6.504  3.5769 -1.6461 -1.3453
  450MOL0     H60715   6.727   1.673   6.341  0.2517 -0.8991 -0.7387
  450MOL0     H60716   7.017   1.674   6.421 -2.2809 -0.2958  1.8580
  450MOL0     H60717   6.939   1.539   6.345 -0.8502 -0.9396 -0.2582
  450MOL0     H60718   6.912   1.817   6.211 -3.8201 -0.6554 -0.5479
  450MOL0     H60719   7.060   1.722   6.184 -0.1542  3.7647  3.2866
  450MOL0     H60720   6.910   1.708   6.001  1.6545 -0.6608 -0.7342
  450MOL0     H60721   6.779   1.653   6.111 -0.1549 -2.1756 -1.1576
  450MOL0     H60722   6.912   1.445   6.134  3.3721  0.2072  0.3334
  450MOL0     H60723   7.043   1.515   6.049  0.3291  1.7999 -0.1621
  450MOL0     H60724   6.929   1.361   5.890 -1.3419 -1.3865 -1.2521
  450MOL0     H60725   6.776   1.411   5.948  0.6595 -1.0144  4.2718
  450MOL0     H60726   6.949   1.609   5.806  0.8724 -0.8559  2.3181
  450MOL0     H60727   6.773   1.635   5.858  1.2247 -0.1413  2.3289
  450MOL0     H60728   6.871   1.442   5.649  1.1633  1.7596 -0.1080
  450MOL0     H60729   6.698   1.484   5.688  0.5477 -4.3872  2.8388
  450MOL0     H60730   6.565   1.688   6.496 -0.5896  1.3293 -2.1717
  450MOL0     H60731   6.395   1.768   6.652 -1.6009  1.5321 -3.8726
  450MOL0     H60732   6.251   2.219   6.838 -1.3991  1.7747  1.8097
  450MOL0     H60733   6.045   2.329   6.867  1.0563  0.2851 -1.3637
  450MOL0     H60734   6.855   2.839   5.982 -0.4280  1.3228  0.5937
  450MOL0     H60735   7.034   2.743   5.849 -0.4880 -0.9099  0.4038
  450MOL0     H60736   7.473   2.842   5.623 -2.5764  2.8543 -1.0530
  450MOL0     H60737   7.642   2.782   5.469 -1.5126  2.7282 -1.3496
  450MOL0     H60738   7.791   2.691   5.355 -1.8385  2.5283 -0.8361
  450MOL0     H60739   7.732   2.727   5.209  0.2736  1.1253  1.4414
  450MOL0     H60740   7.789   2.478   5.121  2.6675 -0.7248 -2.1458
  450MOL0     H60741   7.875   2.465   5.274  0.1339  1.0155  0.1711
  450MOL0     H60742   7.936   2.693   5.080  0.7614 -1.5942 -2.5869
  450MOL0     H60743   8.017   2.537   5.069  1.5887  0.5066 -0.9863
  450MOL0     H60744   8.035   2.714   5.298  0.3542  0.6992 -0.7330
  450MOL0     H60745   8.088   2.544   5.318  0.2794  0.3682 -1.3021
  450MOL0     H60746   8.410   2.703   5.096 -0.5102  0.6162 -0.5921
  450MOL0     H60747   7.398   2.486   5.302 -1.3896  1.4415 -3.0498
  450MOL0     H60748   7.084   2.645   5.359  0.1194  1.9494  3.9720
  450MOL0     H60749   7.149   2.486   5.330  1.5064  0.1068 -0.2873
  450MOL0     H60750   7.090   2.527   5.491  1.6306  0.6132  0.9720
  451MOL0     O60751   4.974   2.658   2.019  0.3234  0.2349 -0.2445
  451MOL0     C60752   4.973   2.565   2.099  0.3208 -0.1112 -0.1861
  451MOL0     O60753   4.995   2.433   2.083 -0.1900 -0.1594  0.1926
  451MOL0     C60754   5.052   2.381   1.972 -0.1849 -0.5298  0.0242
  451MOL0     C60755   5.172   2.434   1.919 -0.0022  0.4726  0.0307
  451MOL0     C60756   5.208   2.400   1.786 -0.4837  0.0232  0.5380
  451MOL0     C60757   5.146   2.294   1.715  0.6369  0.8644 -0.8740
  451MOL0     O60758   5.190   2.249   1.593  0.1931 -0.6591  0.3728
  451MOL0     C60759   5.320   2.202   1.588 -0.7917 -0.2466 -0.4190
  451MOL0     C60760   5.360   2.063   1.661  0.4169 -0.8659 -0.5940
  451MOL0     C60761   5.510   2.045   1.659  0.6278 -0.3660  0.3058
  451MOL0     C60762   5.542   1.928   1.757 -0.2052 -0.0911 -0.0472
  451MOL0     C60763   5.698   1.902   1.754 -0.5592  0.7612  0.0034
  451MOL0     C60764   5.785   2.017   1.767 -0.2405 -0.2174 -0.5351
  451MOL0     C60765   5.764   2.095   1.904  0.0847  0.3929 -0.1033
  451MOL0     C60766   5.871   2.206   1.902 -0.9721 -0.9238  0.4378
  451MOL0     N60767   5.849   2.287   2.031  0.6041  0.2139  0.0671
  451MOL0     C60768   5.845   2.242   2.159  0.3740 -0.2531 -0.7927
  451MOL0     C60769   5.828   2.358   2.238 -0.7276  0.1058 -0.4986
  451MOL0     C60770   5.831   2.369   2.390 -0.3471 -1.0372 -0.5953
  451MOL0     C60771   5.967   2.434   2.445  1.2605 -0.7757 -0.0475
  451MOL0     C60772   5.989   2.380   2.591  1.0691  0.3052  0.5347
  451MOL0     C60773   5.871   2.392   2.696 -0.7622  0.6881  0.2838
  451MOL0     O60774   5.880   2.528   2.744  0.0644 -0.1427 -0.6097
  451MOL0     C60775   5.942   2.555   2.864 -0.8667  0.0727  0.2451
  451MOL0     C60776   6.058   2.481   2.915  0.3214 -0.2247  0.3331
  451MOL0     C60777   6.127   2.517   3.031 -0.4272 -0.7631 -0.0060
  451MOL0     C60778   6.076   2.626   3.111  0.2902  0.2545 -0.0818
  451MOL0     C60779   6.140   2.662   3.238  0.9428  0.4777  0.6095
  451MOL0     O60780   6.090   2.779   3.292 -0.0195  0.2741 -0.3137
  451MOL0     C60781   6.137   2.850   3.399 -0.0193  0.3412 -0.3266
  451MOL0     C60782   6.272   2.851   3.445 -0.4391  0.0849  0.2769
  451MOL0     C60783   6.307   2.927   3.548 -1.0729  0.3849 -0.1115
  451MOL0     C60784   6.239   3.030   3.609  0.4968 -0.3488  0.1603
  451MOL0     O60785   6.297   3.128   3.697  0.4754  0.5065  0.3868
  451MOL0     C60786   6.441   3.145   3.704 -0.5021 -0.4472  0.0582
  451MOL0     C60787   6.462   3.281   3.774  0.5240  0.1184 -0.3450
  451MOL0     C60788   6.428   3.274   3.922 -1.3359  0.8758 -0.7453
  451MOL0     C60789   6.486   3.385   4.007 -0.0900 -0.2039 -0.5487
  451MOL0     C60790   6.478   3.358   4.155  0.8628 -0.4791  0.0559
  451MOL0     C60791   6.522   3.474   4.248  0.6531 -0.4106  0.0159
  451MOL0     C60792   6.548   3.414   4.390 -0.1718  0.2056  0.3898
  451MOL0     C60793   6.594   3.517   4.500 -0.0324  0.4959 -0.6266
  451MOL0    Cl60794   6.721   3.622   4.433  0.1639  0.5353 -0.1778
  451MOL0     C60795   6.112   3.042   3.548 -0.8967  0.3501  0.3150
  451MOL0     C60796   6.060   2.953   3.454  0.7534  0.2656  0.1667
  451MOL0     O60797   6.238   2.599   3.284 -0.8196 -0.2437 -0.2679
  451MOL0     C60798   5.965   2.707   3.056 -0.7507  1.1246 -0.1355
  451MOL0     C60799   5.905   2.672   2.935  0.6580  0.4900  0.7169
  451MOL0     N60800   5.842   2.458   2.155  0.9656  0.1023 -0.3819
  451MOL0     N60801   5.851   2.419   2.034  0.0034 -0.8421 -0.1345
  451MOL0     C60802   5.035   2.229   1.781  0.0032 -0.2151  0.3906
  451MOL0     C60803   4.985   2.282   1.900 -0.6974 -0.2812 -0.8082
  451MOL0     C60804   4.936   2.596   2.243 -0.2778 -0.0207  1.1342
  451MOL0     C60805   4.881   2.498   2.320  0.1180 -0.5044 -0.3049
  451MOL0     C60806   4.861   2.521   2.461 -0.5628  0.6463  0.3198
  451MOL0     C60807   4.903   2.636   2.522 -0.6458 -0.1166  0.5937
  451MOL0     O60808   4.879   2.678   2.649 -0.0230  0.6414 -0.1607
  451MOL0     C60809   4.825   2.579   2.746  0.0241 -0.5803  0.2675
  451MOL0     C60810   4.669   2.572   2.709  0.7902  0.3516 -0.4167
  451MOL0     C60811   4.600   2.463   2.794 -0.7075  1.3780 -0.0044
  451MOL0     C60812   4.618   2.478   2.942 -0.5253 -0.4177 -1.5744
  451MOL0     C60813   4.588   2.609   2.995 -0.3540 -0.0448 -0.1138
  451MOL0     C60814   4.578   2.722   3.036  0.8229 -0.4613 -0.2559
  451MOL0     C60815   4.963   2.737   2.443 -0.7725  0.4904 -0.8722
  451MOL0     C60816   4.978   2.717   2.304  0.1414  1.1139 -0.4936
  451MOL0     C60817   5.044   2.833   2.237 -0.1273 -0.4648 -0.7499
  451MOL0     H60818   5.221   2.524   1.954  2.3458  0.0436 -1.8844
  451MOL0     H60819   5.277   2.473   1.744 -1.1716  0.4368  0.1112
  451MOL0     H60820   5.354   2.180   1.486  1.5827 -0.2444  0.3050
  451MOL0     H60821   5.385   2.281   1.626 -1.2172 -0.3419  0.5343
  451MOL0     H60822   5.303   1.986   1.608 -1.3850  0.4949 -0.7610
  451MOL0     H60823   5.340   2.080   1.767  1.4755 -1.0850 -0.3487
  451MOL0     H60824   5.556   2.137   1.695 -2.2012  0.5886  1.7643
  451MOL0     H60825   5.556   2.020   1.563 -2.8121 -0.2170 -1.5156
  451MOL0     H60826   5.510   1.948   1.859 -1.2437 -0.9399 -0.1930
  451MOL0     H60827   5.493   1.834   1.729  0.4010 -1.2377  2.4657
  451MOL0     H60828   5.713   1.838   1.841  1.9849 -0.9103 -1.5230
  451MOL0     H60829   5.716   1.850   1.660 -1.8556  3.1104 -1.6531
  451MOL0     H60830   5.890   1.987   1.755  0.3276  2.3711 -3.2200
  451MOL0     H60831   5.764   2.089   1.687  3.3490 -0.6686 -2.0856
  451MOL0     H60832   5.769   2.032   1.994 -1.8259  0.8599  0.3787
  451MOL0     H60833   5.663   2.136   1.907 -0.1171 -0.1167  2.3613
  451MOL0     H60834   5.971   2.162   1.915 -0.8955 -1.0773 -0.5562
  451MOL0     H60835   5.871   2.274   1.817 -1.7566  2.5839  3.0418
  451MOL0     H60836   5.850   2.140   2.194 -3.1058 -0.3889 -0.2568
  451MOL0     H60837   5.743   2.422   2.428  1.3230 -0.3295  2.6218
  451MOL0     H60838   5.822   2.264   2.421 -1.6242 -1.9480 -3.5924
  451MOL0     H60839   6.060   2.408   2.394  1.6534 -0.0561  0.2895
  451MOL0     H60840   5.958   2.542   2.433 -1.0333 -1.0966 -2.1472
  451MOL0     H60841   6.074   2.437   2.631  1.3524 -1.7358  3.1166
  451MOL0     H60842   6.024   2.276   2.587 -0.7980 -0.3946  1.3569
  451MOL0     H60843   5.877   2.325   2.782  0.4681  0.7187  0.2312
  451MOL0     H60844   5.775   2.371   2.648 -1.0934  4.4479 -1.0259
  451MOL0     H60845   6.100   2.400   2.857 -1.2818  0.4025 -1.8567
  451MOL0     H60846   6.213   2.458   3.060 -0.4688  0.0902  2.0274
  451MOL0     H60847   6.339   2.777   3.404 -1.0240 -0.9547  1.1279
  451MOL0     H60848   6.411   2.913   3.574 -1.2369 -1.5210 -0.3188
  451MOL0     H60849   6.470   3.060   3.767  1.6995  0.0460 -0.2374
  451MOL0     H60850   6.481   3.138   3.603 -2.0831  1.3400 -0.7487
  451MOL0     H60851   6.568   3.306   3.761  0.6073  0.1236  0.2815
  451MOL0     H60852   6.392   3.353   3.731  1.2372  0.5862 -0.7302
  451MOL0     H60853   6.322   3.264   3.945 -0.7915  1.5688  2.5226
  451MOL0     H60854   6.479   3.188   3.967 -1.7129  1.2771  0.4898
  451MOL0     H60855   6.435   3.477   3.976  4.0820  1.5723 -3.0255
  451MOL0     H60856   6.588   3.406   3.973 -1.6629  1.7340 -4.7659
  451MOL0     H60857   6.534   3.269   4.183  2.6992  0.7506  0.5491
  451MOL0     H60858   6.372   3.337   4.170  0.7507 -0.9690 -1.2830
  451MOL0     H60859   6.613   3.516   4.205  0.8378  0.0676  0.8378
  451MOL0     H60860   6.452   3.559   4.242  3.2217  1.7115 -2.2515
  451MOL0     H60861   6.631   3.344   4.375 -0.6792  0.1621 -3.1520
  451MOL0     H60862   6.451   3.379   4.426  0.3582  0.1501  1.8293
  451MOL0     H60863   6.506   3.575   4.529  1.8301  2.2213  1.9864
  451MOL0     H60864   6.628   3.473   4.594 -2.4962  0.9573  0.5486
  451MOL0     H60865   6.052   3.118   3.596 -2.2291  0.7318 -1.8463
  451MOL0     H60866   5.957   2.966   3.421  0.5975 -0.7692  0.1968
  451MOL0     H60867   5.920   2.786   3.115 -1.1487  0.7161  0.1190
  451MOL0     H60868   5.831   2.737   2.889 -0.1172 -0.1436  1.0460
  451MOL0     H60869   4.998   2.139   1.733  0.9473 -0.0350 -0.6956
  451MOL0     H60870   4.895   2.237   1.942 -0.5750  0.5552  0.3753
  451MOL0     H60871   4.865   2.400   2.275 -2.4352  0.4411 -1.6677
  451MOL0     H60872   4.826   2.432   2.513  3.4840  0.2338  2.8343
  451MOL0     H60873   4.835   2.608   2.851 -2.1874 -0.3352  0.4573
  451MOL0     H60874   4.868   2.479   2.743 -1.5476 -1.2693 -0.6781
  451MOL0     H60875   4.655   2.548   2.603 -0.5540  2.8484 -0.8755
  451MOL0     H60876   4.633   2.673   2.729  1.0529  0.4871 -0.6200
  451MOL0     H60877   4.645   2.365   2.774  0.1499  1.3079  2.0106
  451MOL0     H60878   4.493   2.467   2.771 -2.5773 -2.8193  5.6128
  451MOL0     H60879   4.554   2.406   2.993 -1.1880  0.4567 -1.1537
  451MOL0     H60880   4.715   2.445   2.980 -1.7748 -2.1455  0.3127
  451MOL0     H60881   4.573   2.812   3.094  2.6418 -0.1662 -0.5262
  451MOL0     H60882   4.990   2.836   2.479  1.1830 -0.2828 -0.0285
  451MOL0     H60883   5.131   2.795   2.183  0.6160 -1.9538  1.3486
  451MOL0     H60884   4.961   2.875   2.180 -0.1370  1.6918  0.7602
  451MOL0     H60885   5.093   2.908   2.299  1.3671  2.1019 -4.6650
  452MOL0     O60886  10.330   8.985   6.194  0.5306 -0.3153  0.3213
  452MOL0     C60887  10.413   8.900   6.212 -0.5293  0.7439  0.3293
  452MOL0     O60888  10.485   8.833   6.118 -0.5447  0.1943  0.2849
  452MOL0     C60889  10.452   8.814   5.994 -0.1725  0.4553  1.2483
  452MOL0     C60890  10.557   8.808   5.901  0.8260 -0.9837 -0.0473
  452MOL0     C60891  10.532   8.807   5.770 -1.0971  0.9753  0.5859
  452MOL0     C60892  10.403   8.778   5.719 -0.5529  0.7318  0.0245
  452MOL0     O60893  10.400   8.752   5.583 -0.0093 -0.0356  0.3624
  452MOL0     C60894  10.276   8.751   5.509 -0.2308  0.6386 -0.1695
  452MOL0     C60895  10.303   8.836   5.380 -0.2804  0.1349 -0.4455
  452MOL0     C60896  10.159   8.866   5.327 -0.0662 -1.0405  0.6434
  452MOL0     C60897  10.178   8.959   5.200  0.2823  0.3501 -0.5509
  452MOL0     C60898  10.069   9.061   5.189 -0.8915 -0.3740 -0.0244
  452MOL0     C60899  10.090   9.138   5.057  0.0693 -0.0417  0.0917
  452MOL0     C60900   9.972   9.238   5.053  0.2734 -0.7552  0.0883
  452MOL0     C60901   9.984   9.334   4.939  0.4706 -0.9819  0.1235
  452MOL0     N60902   9.886   9.444   4.943  0.1423  0.1912  0.1081
  452MOL0     C60903   9.751   9.430   4.946  0.1014 -0.9568  1.2463
  452MOL0     C60904   9.705   9.556   4.967  0.4817  0.2022  0.3037
  452MOL0     C60905   9.565   9.599   4.980  0.5894 -0.3073 -0.0618
  452MOL0     C60906   9.488   9.569   4.856  0.8366 -1.0309 -0.3437
  452MOL0     C60907   9.438   9.423   4.860 -0.2255  0.3576 -0.6362
  452MOL0     C60908   9.306   9.403   4.779  0.1314 -0.2247  0.3845
  452MOL0     O60909   9.309   9.279   4.702  0.1257 -0.0408  0.2638
  452MOL0     C60910   9.183   9.257   4.649  0.2020  0.2234  0.1935
  452MOL0     C60911   9.110   9.356   4.582  0.4865 -0.0235  0.3249
  452MOL0     C60912   8.991   9.342   4.520 -0.5097  0.0484 -0.0878
  452MOL0     C60913   8.942   9.202   4.515 -0.0240  0.1745  0.2665
  452MOL0     C60914   8.823   9.182   4.442  0.2845  0.7646 -0.8084
  452MOL0     O60915   8.792   9.047   4.443 -0.0854 -0.3830  0.6543
  452MOL0     C60916   8.675   9.002   4.383 -0.5931 -0.0149  0.2647
  452MOL0     C60917   8.686   8.923   4.266 -0.1577  0.1470 -0.0443
  452MOL0     C60918   8.575   8.860   4.210 -0.3712  0.5215 -0.6554
  452MOL0     C60919   8.455   8.859   4.285 -0.6129  0.5720 -0.3148
  452MOL0     O60920   8.347   8.787   4.243 -1.0541 -0.1355 -0.5944
  452MOL0     C60921   8.282   8.846   4.130 -0.0133 -0.1211 -0.3422
  452MOL0     C60922   8.141   8.800   4.113 -0.0756  0.2710  0.5694
  452MOL0     C60923   8.040   8.867   4.208 -0.4292  0.4080 -1.0996
  452MOL0     C60924   8.037   8.813   4.349 -0.0241  1.0183  0.3631
  452MOL0     C60925   7.932   8.693   4.376 -0.7362 -0.6298  0.4643
  452MOL0     C60926   7.908   8.663   4.533  0.1093 -0.6092  0.0107
  452MOL0     C60927   7.839   8.783   4.599 -0.2237  0.2346 -0.3575
  452MOL0     C60928   7.770   8.758   4.734  0.3019  0.2256  0.5632
  452MOL0    Cl60929   7.875   8.689   4.855 -0.0663  0.4344 -0.2792
  452MOL0     C60930   8.445   8.929   4.402  0.0109  0.1397  0.1101
  452MOL0     C60931   8.553   9.009   4.445  0.7727 -0.4634  0.8101
  452MOL0     O60932   8.748   9.274   4.403  0.1750  0.0626 -0.0954
  452MOL0     C60933   9.020   9.101   4.563 -0.2771 -0.2244 -0.8010
  452MOL0     C60934   9.137   9.127   4.630 -0.4041  0.3080  0.6354
  452MOL0     N60935   9.807   9.647   4.960  0.3077 -0.7597 -0.0815
  452MOL0     N60936   9.916   9.577   4.962 -0.1246 -0.0835  0.2216
  452MOL0     C60937  10.298   8.775   5.806  0.1888 -0.4827 -1.9880
  452MOL0     C60938  10.320   8.793   5.948  0.1365  0.9362  0.2574
  452MOL0     C60939  10.461   8.875   6.344  0.0022 -0.0352 -0.6350
  452MOL0     C60940  10.591   8.809   6.365  0.3831 -1.1661  0.1614
  452MOL0     C60941  10.634   8.794   6.492  0.2568  0.7986  0.3831
  452MOL0     C60942  10.565   8.830   6.604 -0.8587 -0.8280  0.0006
  452MOL0     O60943  10.599   8.827   6.743 -0.1980 -0.6496  0.2763
  452MOL0     C60944  10.720   8.750   6.764 -0.9181 -0.2870  0.6898
  452MOL0     C60945  10.764   8.744   6.910  0.5567 -0.7620  0.2590
  452MOL0     C60946  10.685   8.650   6.995 -0.7931 -0.0613  0.0383
  452MOL0     C60947  10.697   8.666   7.143 -0.5170  0.4849 -0.1647
  452MOL0     C60948  10.640   8.795   7.193  0.0565 -0.8138  0.8396
  452MOL0     C60949  10.586   8.884   7.253 -0.3009  0.5151  0.1091
  452MOL0     C60950  10.438   8.872   6.588 -0.4046 -0.3707 -0.8489
  452MOL0     C60951  10.385   8.905   6.462 -0.2886 -0.5761 -0.6792
  452MOL0     C60952  10.240   8.969   6.465 -0.0551 -0.3083 -0.1130
  452MOL0     H60953  10.660   8.811   5.937  0.9495 -1.4740 -0.3609
  452MOL0     H60954  10.611   8.795   5.696 -2.8414 -0.8727 -1.0937
  452MOL0     H60955  10.244   8.653   5.472 -2.2003 -0.4161  3.8261
  452MOL0     H60956  10.193   8.794   5.565 -2.3979 -2.1544 -1.0684
  452MOL0     H60957  10.368   8.783   5.309  1.0686 -2.4276  2.4810
  452MOL0     H60958  10.350   8.932   5.404 -2.7262  0.9520  1.5470
  452MOL0     H60959  10.104   8.926   5.400  0.1576  1.7202 -1.2915
  452MOL0     H60960  10.095   8.778   5.314  0.5676 -1.4472  0.2113
  452MOL0     H60961  10.264   9.026   5.215  1.2959 -0.6974 -1.4722
  452MOL0     H60962  10.176   8.906   5.105 -2.0609  0.2424 -0.4827
  452MOL0     H60963   9.973   9.008   5.187 -1.0863 -1.2969  7.1804
  452MOL0     H60964  10.051   9.125   5.276  0.9332  1.9521 -1.2315
  452MOL0     H60965  10.183   9.195   5.053 -0.5144  1.1593  2.1333
  452MOL0     H60966  10.080   9.075   4.968  0.1180 -0.3405  0.2980
  452MOL0     H60967   9.957   9.284   5.151 -1.7619 -0.2929 -0.3956
  452MOL0     H60968   9.877   9.185   5.040 -0.4336 -0.0723  2.0483
  452MOL0     H60969  10.081   9.385   4.947 -0.9575  1.9893  0.0471
  452MOL0     H60970   9.976   9.263   4.857  1.4958 -1.9573  0.8368
  452MOL0     H60971   9.695   9.337   4.956  0.5658 -1.6700 -1.7766
  452MOL0     H60972   9.512   9.548   5.061  0.1270 -0.3338 -0.3733
  452MOL0     H60973   9.555   9.708   4.985 -1.5007 -0.2287 -3.1696
  452MOL0     H60974   9.409   9.643   4.841  1.5157 -0.2286 -0.0772
  452MOL0     H60975   9.556   9.584   4.771  0.6050 -1.1120 -0.5442
  452MOL0     H60976   9.429   9.378   4.959 -0.6340  1.0769 -0.3356
  452MOL0     H60977   9.517   9.360   4.818  1.9257  0.8732  2.3079
  452MOL0     H60978   9.303   9.490   4.714  0.1786  0.1779  0.9102
  452MOL0     H60979   9.231   9.418   4.858  1.5849 -2.6527  2.3846
  452MOL0     H60980   9.160   9.452   4.569  1.2677 -0.3360  0.9416
  452MOL0     H60981   8.941   9.422   4.466  0.8692  2.3951  1.8817
  452MOL0     H60982   8.776   8.899   4.210 -1.3477 -0.6753 -1.6864
  452MOL0     H60983   8.588   8.806   4.116  0.3881  0.0023 -0.2632
  452MOL0     H60984   8.284   8.955   4.134  1.5567 -0.1708  1.5581
  452MOL0     H60985   8.343   8.829   4.040  1.0362  0.4649  0.2471
  452MOL0     H60986   8.110   8.815   4.009  0.1811  0.7658  0.5581
  452MOL0     H60987   8.142   8.691   4.118  0.5766  0.0695 -2.2788
  452MOL0     H60988   8.064   8.973   4.217  0.2434  0.1685  0.1391
  452MOL0     H60989   7.939   8.853   4.167 -1.7974 -1.4681  2.5186
  452MOL0     H60990   8.008   8.894   4.417  2.5958  0.4885  2.2818
  452MOL0     H60991   8.137   8.774   4.372  0.0230  0.5103 -0.6386
  452MOL0     H60992   7.960   8.605   4.316  1.4342 -1.2486  2.2466
  452MOL0     H60993   7.837   8.720   4.330 -1.4172 -0.9745  1.6475
  452MOL0     H60994   7.849   8.573   4.552 -0.2265 -0.1582  1.1478
  452MOL0     H60995   8.006   8.633   4.574  0.0963 -2.7900 -1.3948
  452MOL0     H60996   7.768   8.822   4.527 -0.2861  3.3691  1.2151
  452MOL0     H60997   7.906   8.869   4.612  0.1009  0.0912 -1.0363
  452MOL0     H60998   7.724   8.846   4.781 -3.5535 -1.3473  0.1203
  452MOL0     H60999   7.682   8.695   4.722  0.4302  0.4376 -2.2725
  452MOL0     H61000   8.356   8.946   4.462  0.1873  0.7123  0.2208
  452MOL0     H61001   8.546   9.073   4.533  0.0585  0.4823  0.0865
  452MOL0     H61002   9.002   8.998   4.532 -2.7422  0.6346 -2.5551
  452MOL0     H61003   9.217   9.054   4.632  1.2381  1.9390 -1.3554
  452MOL0     H61004  10.193   8.764   5.778 -1.0113  2.9195  0.4132
  452MOL0     H61005  10.235   8.788   6.015  0.0917 -3.5216  0.1251
  452MOL0     H61006  10.647   8.790   6.273 -2.0582 -1.0785 -1.4312
  452MOL0     H61007  10.738   8.766   6.498  0.3074  0.9602  0.2750
  452MOL0     H61008  10.799   8.789   6.699  0.0972 -3.5863 -0.2475
  452MOL0     H61009  10.688   8.648   6.740  0.4685 -0.6014  0.0299
  452MOL0     H61010  10.765   8.849   6.941 -0.0037  0.8706 -4.4629
  452MOL0     H61011  10.864   8.700   6.912  0.8592 -0.1252 -0.1449
  452MOL0     H61012  10.698   8.547   6.961 -0.9875  1.1521 -4.3007
  452MOL0     H61013  10.580   8.669   6.976 -0.7906  0.4002  0.4601
  452MOL0     H61014  10.635   8.597   7.202 -0.5071  0.5104 -0.1240
  452MOL0     H61015  10.802   8.659   7.176 -0.8014 -1.4429  0.4776
  452MOL0     H61016  10.549   8.971   7.304 -3.0509  1.2402 -2.8031
  452MOL0     H61017  10.385   8.895   6.680  1.3479  0.1451  0.0860
  452MOL0     H61018  10.170   8.917   6.398  3.1760  0.1298 -4.2096
  452MOL0     H61019  10.192   8.980   6.563 -0.1470  0.7501 -0.2607
  452MOL0     H61020  10.240   9.073   6.432 -4.2818 -0.0492  0.1071
  453MOL0     O61021   4.130  11.308   6.551  1.0174 -0.1300 -0.0178
  453MOL0     C61022   4.041  11.396   6.546 -0.1105 -0.7977 -0.7432
  453MOL0     O61023   4.043  11.515   6.612 -1.0776 -0.3982 -0.7580
  453MOL0     C61024   4.147  11.539   6.699 -0.0724 -0.1468 -0.4315
  453MOL0     C61025   4.277  11.544   6.656 -0.2066 -0.2621 -1.0272
  453MOL0     C61026   4.375  11.571   6.760 -0.9597  0.3570  0.7508
  453MOL0     C61027   4.347  11.588   6.892  0.4482 -0.2487  0.1082
  453MOL0     O61028   4.452  11.586   6.978  0.0091  0.2024 -1.0152
  453MOL0     C61029   4.453  11.520   7.111  0.7533 -0.3757 -0.4475
  453MOL0     C61030   4.474  11.366   7.080  0.5419 -0.7935 -0.6783
  453MOL0     C61031   4.432  11.277   7.190 -0.1149 -0.6854 -0.2835
  453MOL0     C61032   4.521  11.284   7.317  0.8354  0.0739 -0.3325
  453MOL0     C61033   4.470  11.211   7.444  0.1487  0.1680 -0.7671
  453MOL0     C61034   4.476  11.061   7.426 -0.5486  0.8182 -0.0587
  453MOL0     C61035   4.455  10.967   7.547 -0.3797  0.2928  0.3622
  453MOL0     C61036   4.553  10.994   7.659 -0.9056 -0.5868  0.6070
  453MOL0     N61037   4.695  10.983   7.627 -0.7811 -0.1394  0.0420
  453MOL0     C61038   4.786  11.085   7.618 -0.5552 -0.1899 -0.1096
  453MOL0     C61039   4.911  11.034   7.607 -0.9950 -0.4730  0.2519
  453MOL0     C61040   5.037  11.117   7.570 -0.4318 -0.0390  0.1627
  453MOL0     C61041   5.005  11.209   7.441  0.4868 -0.5497 -0.6955
  453MOL0     C61042   4.999  11.114   7.318 -0.4870 -0.4464 -0.1371
  453MOL0     C61043   4.950  11.197   7.204 -0.6328 -0.6961  0.2529
  453MOL0     O61044   4.974  11.143   7.081 -0.3894  0.2965  0.5346
  453MOL0     C61045   4.902  11.190   6.975  0.0790 -0.1090  0.0722
  453MOL0     C61046   4.842  11.317   6.961 -0.2147  0.3245 -1.8092
  453MOL0     C61047   4.778  11.356   6.850 -0.1546  0.1300 -1.2240
  453MOL0     C61048   4.766  11.265   6.748  0.5889 -0.0235  0.4493
  453MOL0     C61049   4.681  11.301   6.636  0.3963  0.3639  0.1090
  453MOL0     O61050   4.660  11.198   6.544 -0.4548  0.2769 -0.0259
  453MOL0     C61051   4.587  11.212   6.423  0.2027 -0.4633 -0.7558
  453MOL0     C61052   4.643  11.203   6.299 -0.0033  0.0448  0.8605
  453MOL0     C61053   4.567  11.216   6.181  0.4578 -0.4591  0.4960
  453MOL0     C61054   4.426  11.226   6.186 -0.0130 -0.0845 -0.0942
  453MOL0     O61055   4.359  11.218   6.069 -0.3537  0.3289 -0.3354
  453MOL0     C61056   4.223  11.274   6.077 -0.0217 -0.3811 -0.3681
  453MOL0     C61057   4.191  11.284   5.929  1.3264  0.0552  0.7593
  453MOL0     C61058   4.049  11.345   5.913  0.5512 -0.0939 -0.1475
  453MOL0     C61059   4.037  11.466   5.806  0.2130 -1.1466 -0.0234
  453MOL0     C61060   4.132  11.581   5.854  0.4114 -0.9813  1.1654
  453MOL0     C61061   4.126  11.705   5.759 -0.0031  0.0206  0.3630
  453MOL0     C61062   4.175  11.828   5.829  0.6706  0.5355  0.1002
  453MOL0     C61063   4.112  11.948   5.753 -0.7603  0.5572 -0.3268
  453MOL0    Cl61064   4.105  11.927   5.570 -0.2187  0.1129 -0.0892
  453MOL0     C61065   4.369  11.218   6.317 -0.4269 -0.0721  0.3907
  453MOL0     C61066   4.447  11.218   6.436 -0.7846  0.1068  0.0184
  453MOL0     O61067   4.629  11.410   6.634  0.1525 -0.1164  0.0982
  453MOL0     C61068   4.820  11.141   6.758 -0.8219  0.3516  0.0658
  453MOL0     C61069   4.896  11.101   6.871  0.1314  0.1966 -0.1361
  453MOL0     N61070   4.905  10.900   7.615  0.1314 -1.4095 -0.7057
  453MOL0     N61071   4.770  10.873   7.621 -1.5064 -1.1352  0.1142
  453MOL0     C61072   4.216  11.582   6.931  0.0912 -0.4121  0.8561
  453MOL0     C61073   4.115  11.562   6.838  0.4159 -0.4278 -0.2442
  453MOL0     C61074   3.933  11.350   6.457  0.5634  0.3260  0.5876
  453MOL0     C61075   3.954  11.242   6.367 -0.4146 -0.2650  0.0767
  453MOL0     C61076   3.849  11.197   6.286  0.3358 -0.7593 -0.6231
  453MOL0     C61077   3.721  11.262   6.291 -1.0179  0.3967 -0.6021
  453MOL0     O61078   3.623  11.211   6.209 -0.1434  0.0934  0.5627
  453MOL0     C61079   3.508  11.286   6.201 -0.7147  0.8690 -0.1320
  453MOL0     C61080   3.434  11.229   6.083  0.5621  0.3164  0.2741
  453MOL0     C61081   3.385  11.094   6.109  0.6604  0.0511 -0.3154
  453MOL0     C61082   3.272  11.042   6.016 -1.5740 -0.4436 -0.1996
  453MOL0     C61083   3.325  11.016   5.881  0.0050  0.4405  0.0400
  453MOL0     C61084   3.365  10.981   5.767  0.5115  0.7208 -0.1448
  453MOL0     C61085   3.700  11.353   6.390  0.1816  0.6709 -0.3707
  453MOL0     C61086   3.800  11.404   6.467  0.5266 -0.7377 -0.6793
  453MOL0     C61087   3.751  11.488   6.586  0.3628  0.4652 -0.1842
  453MOL0     H61088   4.305  11.515   6.555  1.6747  1.3940 -1.0267
  453MOL0     H61089   4.477  11.578   6.723 -0.8314 -2.5406  0.3031
  453MOL0     H61090   4.536  11.557   7.171  0.4162 -1.5662  0.8069
  453MOL0     H61091   4.362  11.543   7.166  1.1935  0.5326 -0.0860
  453MOL0     H61092   4.575  11.345   7.042  0.7213  3.7495 -3.5661
  453MOL0     H61093   4.409  11.345   6.994  0.6606  1.0697 -1.2662
  453MOL0     H61094   4.421  11.180   7.138  1.8015  0.3155 -2.7669
  453MOL0     H61095   4.334  11.303   7.231  0.4337  2.2166 -0.5990
  453MOL0     H61096   4.619  11.249   7.282  1.7476  0.3908  1.7976
  453MOL0     H61097   4.537  11.387   7.351 -1.0867  0.3839 -0.2708
  453MOL0     H61098   4.529  11.258   7.523  1.0314 -1.5411 -0.3676
  453MOL0     H61099   4.363  11.237   7.448 -0.2979 -1.3838 -1.6010
  453MOL0     H61100   4.408  11.030   7.346 -0.2560 -0.3035  0.1047
  453MOL0     H61101   4.579  11.050   7.389 -0.2345  3.1331 -0.0247
  453MOL0     H61102   4.490  10.870   7.511  2.9713  0.8477  1.7277
  453MOL0     H61103   4.350  10.965   7.577 -0.1082  0.4834  1.3608
  453MOL0     H61104   4.538  11.096   7.697 -2.1241  0.8003 -3.1185
  453MOL0     H61105   4.531  10.919   7.735 -1.3200  0.0299  1.1052
  453MOL0     H61106   4.751  11.188   7.628 -1.5338 -0.6183  1.0314
  453MOL0     H61107   5.077  11.169   7.658 -2.2813 -0.3272  1.2442
  453MOL0     H61108   5.119  11.047   7.550  0.5387  0.6845  1.4400
  453MOL0     H61109   4.912  11.263   7.464  1.2942  0.0795  1.2997
  453MOL0     H61110   5.086  11.282   7.445  1.2474 -1.3444 -1.3017
  453MOL0     H61111   4.943  11.024   7.343  2.0449 -1.8881  0.7890
  453MOL0     H61112   5.104  11.087   7.301  0.4698  0.9006  2.9338
  453MOL0     H61113   5.002  11.293   7.200 -1.1980 -0.4230 -1.0152
  453MOL0     H61114   4.841  11.207   7.209 -0.5632 -0.2225  1.0292
  453MOL0     H61115   4.852  11.389   7.042 -1.1256  0.6660 -1.9845
  453MOL0     H61116   4.743  11.458   6.834 -1.1330 -0.2229 -1.3698
  453MOL0     H61117   4.750  11.185   6.290 -0.4240 -1.9801 -0.7545
  453MOL0     H61118   4.629  11.204   6.093 -1.4403 -2.0695 -0.6905
  453MOL0     H61119   4.155  11.215   6.139  0.1151  0.5253  0.6888
  453MOL0     H61120   4.217  11.372   6.126  1.6251  1.1500 -2.9862
  453MOL0     H61121   4.264  11.341   5.872 -1.3067  1.0954 -1.8475
  453MOL0     H61122   4.181  11.185   5.885  2.2211  0.8528 -1.3670
  453MOL0     H61123   3.987  11.259   5.883  1.1270 -1.4062  2.1644
  453MOL0     H61124   4.010  11.378   6.010 -1.5522  0.9698 -1.2901
  453MOL0     H61125   3.932  11.495   5.800  0.9430  1.5049 -1.6974
  453MOL0     H61126   4.076  11.427   5.712  5.4596 -1.0720  1.8034
  453MOL0     H61127   4.234  11.542   5.856 -0.1385 -2.5014  1.5300
  453MOL0     H61128   4.097  11.609   5.954 -4.4679  2.2327 -1.0573
  453MOL0     H61129   4.172  11.683   5.663 -2.0677 -3.8521  0.0690
  453MOL0     H61130   4.023  11.718   5.724  1.1048 -1.5900 -4.1624
  453MOL0     H61131   4.284  11.836   5.826  0.5181  3.2145 -0.0453
  453MOL0     H61132   4.141  11.825   5.933  1.7800  1.4839  0.5115
  453MOL0     H61133   4.011  11.962   5.792 -1.0789 -0.1996 -0.8640
  453MOL0     H61134   4.172  12.033   5.787 -1.1541  1.0037 -0.7367
  453MOL0     H61135   4.261  11.218   6.329 -0.6661  0.3838 -1.4082
  453MOL0     H61136   4.418  11.217   6.541  1.7049  1.9886  0.8326
  453MOL0     H61137   4.803  11.067   6.681 -2.3737  1.4446 -0.7053
  453MOL0     H61138   4.920  10.995   6.868  0.5188  0.3095 -2.0265
  453MOL0     H61139   4.195  11.627   7.027  2.9105  4.1101 -0.3331
  453MOL0     H61140   4.021  11.565   6.892  1.0633  3.8731  0.9895
  453MOL0     H61141   4.052  11.201   6.348  1.3048  4.2741 -2.3324
  453MOL0     H61142   3.868  11.126   6.206  0.5827  3.6085 -4.9053
  453MOL0     H61143   3.522  11.393   6.182 -0.4299  0.8111 -0.2578
  453MOL0     H61144   3.459  11.273   6.298 -1.7324 -2.8076 -1.0149
  453MOL0     H61145   3.485  11.239   5.987 -0.4730  2.8319 -0.0753
  453MOL0     H61146   3.348  11.295   6.071  0.3639 -0.0478 -0.3257
  453MOL0     H61147   3.343  11.091   6.210  1.2067 -0.0291 -0.0894
  453MOL0     H61148   3.470  11.026   6.106  0.8014  0.1647  0.6404
  453MOL0     H61149   3.217  10.955   6.052 -1.3498  0.0273  1.4025
  453MOL0     H61150   3.190  11.114   6.005 -1.2267  0.0288  0.2522
  453MOL0     H61151   3.396  10.955   5.668 -0.9128  1.1972 -0.7457
  453MOL0     H61152   3.599  11.394   6.398  0.0822  0.4165 -0.3124
  453MOL0     H61153   3.821  11.477   6.669  1.0191  2.3905 -0.4189
  453MOL0     H61154   3.760  11.596   6.569 -2.2180  1.2310  2.4332
  453MOL0     H61155   3.656  11.465   6.636  1.6833 -3.3462  0.9247
  454MOL0     O61156  11.017   2.382   4.446 -0.5664  0.4142 -0.6127
  454MOL0     C61157  11.118   2.318   4.480 -0.3496 -0.1908  0.8816
  454MOL0     O61158  11.215   2.274   4.400  0.0514 -0.0470 -0.2066
  454MOL0     C61159  11.198   2.276   4.266 -0.2052  0.0704 -0.0443
  454MOL0     C61160  11.273   2.178   4.200  0.0669  0.3570 -0.2457
  454MOL0     C61161  11.268   2.174   4.060 -0.3160 -0.3081  1.1848
  454MOL0     C61162  11.185   2.263   3.984  0.7279 -0.4539 -1.1705
  454MOL0     O61163  11.178   2.240   3.848  0.7847  0.3847 -0.7513
  454MOL0     C61164  11.085   2.316   3.766  0.6197  0.6191  0.6461
  454MOL0     C61165  11.050   2.234   3.638 -0.8813  0.6430 -0.4798
  454MOL0     C61166  10.995   2.316   3.520 -0.5151  0.6982  0.2146
  454MOL0     C61167  10.852   2.359   3.534  0.2345 -0.9829 -0.6151
  454MOL0     C61168  10.788   2.423   3.405  0.0713 -0.5991  0.2174
  454MOL0     C61169  10.870   2.553   3.367 -0.1060  0.0327 -0.5771
  454MOL0     C61170  10.818   2.646   3.260 -0.4221 -0.3302  0.5578
  454MOL0     C61171  10.924   2.754   3.219 -0.2110  0.2700  0.0938
  454MOL0     N61172  10.871   2.835   3.117  0.1818 -0.3374 -0.1508
  454MOL0     C61173  10.804   2.945   3.138 -0.1310  0.1580 -0.0223
  454MOL0     C61174  10.781   2.998   3.015 -0.2325 -0.3058 -0.7832
  454MOL0     C61175  10.722   3.143   2.989  0.3599  0.2144  0.6935
  454MOL0     C61176  10.828   3.251   3.037  0.4580  0.5134  0.6162
  454MOL0     C61177  10.779   3.392   2.992 -0.5848  0.0147  0.5230
  454MOL0     C61178  10.646   3.434   3.056 -0.6047 -0.5742  0.2300
  454MOL0     O61179  10.597   3.558   3.010 -0.9995 -0.8332 -0.0686
  454MOL0     C61180  10.672   3.666   3.045  0.2657  0.5912  0.0988
  454MOL0     C61181  10.681   3.759   2.947 -0.1008  0.7530  0.0149
  454MOL0     C61182  10.749   3.871   2.965  0.6150  0.9762 -0.1700
  454MOL0     C61183  10.823   3.897   3.088 -0.3322  0.3350  0.8652
  454MOL0     C61184  10.917   4.013   3.098  0.5537  0.4358 -0.3612
  454MOL0     O61185  11.003   4.022   3.206  0.7817 -0.2907  0.2908
  454MOL0     C61186  11.084   4.132   3.225  0.4539 -0.5629 -0.3588
  454MOL0     C61187  11.099   4.167   3.355  0.3474 -0.1915  0.3235
  454MOL0     C61188  11.190   4.262   3.386 -0.6299  0.5150  0.0564
  454MOL0     C61189  11.260   4.331   3.289  0.4662 -0.4920 -0.5914
  454MOL0     O61190  11.345   4.427   3.339 -0.3979 -0.8760  0.6149
  454MOL0     C61191  11.409   4.521   3.246 -0.3686  0.0090  0.6877
  454MOL0     C61192  11.513   4.600   3.310 -0.4186  0.0346  0.1622
  454MOL0     C61193  11.456   4.712   3.404 -0.4149  0.2168 -0.6652
  454MOL0     C61194  11.362   4.815   3.325 -1.2597  0.1329 -0.4631
  454MOL0     C61195  11.384   4.962   3.371  0.2934 -0.5675  0.2648
  454MOL0     C61196  11.298   5.054   3.290  1.3856  0.0082 -0.4201
  454MOL0     C61197  11.274   5.187   3.352 -0.0060  0.2161 -0.6110
  454MOL0     C61198  11.240   5.291   3.243  0.9861 -0.4673  0.3939
  454MOL0    Cl61199  11.374   5.342   3.135  0.4296  0.3300 -0.0338
  454MOL0     C61200  11.253   4.296   3.152  0.5155  0.0075  0.5264
  454MOL0     C61201  11.155   4.196   3.128  0.1249 -0.8009 -0.5701
  454MOL0     O61202  10.915   4.097   3.011  0.3649  0.0164  0.1087
  454MOL0     C61203  10.809   3.807   3.187  0.7856 -1.0046 -0.5029
  454MOL0     C61204  10.747   3.681   3.163  0.3326 -0.2714  0.2646
  454MOL0     N61205  10.824   2.909   2.924 -0.8935  0.0512 -0.0690
  454MOL0     N61206  10.885   2.814   2.981  0.5418 -0.2305 -0.4782
  454MOL0     C61207  11.116   2.365   4.053  0.3109 -1.1169 -0.4717
  454MOL0     C61208  11.131   2.369   4.190 -0.2325 -0.3984 -0.0947
  454MOL0     C61209  11.141   2.301   4.622  0.1380  0.2658  1.0066
  454MOL0     C61210  11.276   2.324   4.657 -0.0745 -0.0147 -0.4634
  454MOL0     C61211  11.308   2.316   4.790 -0.7126 -0.5662 -0.0801
  454MOL0     C61212  11.212   2.294   4.886 -0.9167 -0.6571  0.0359
  454MOL0     O61213  11.232   2.285   5.020  0.7735 -0.4253  0.0834
  454MOL0     C61214  11.326   2.188   5.074  0.3313 -0.6996  0.6285
  454MOL0     C61215  11.447   2.277   5.111 -0.0335  0.5164 -0.6370
  454MOL0     C61216  11.428   2.328   5.252  0.3190 -0.3282 -0.3932
  454MOL0     C61217  11.359   2.465   5.275 -0.2274 -0.5860 -0.6572
  454MOL0     C61218  11.415   2.577   5.198 -0.2885 -1.1504  0.4774
  454MOL0     C61219  11.466   2.669   5.137 -0.7009  0.4464  0.3268
  454MOL0     C61220  11.079   2.275   4.851  0.1222  0.3963 -1.5149
  454MOL0     C61221  11.045   2.292   4.716 -0.1680 -0.0610  0.0491
  454MOL0     C61222  10.898   2.275   4.692 -0.2616  0.1195  0.7284
  454MOL0     H61223  11.343   2.118   4.258 -1.4686 -1.1508  0.1028
  454MOL0     H61224  11.345   2.112   4.016  3.2943  3.5384  1.4486
  454MOL0     H61225  10.991   2.342   3.816 -0.4359 -1.6404 -0.0674
  454MOL0     H61226  11.146   2.400   3.729  4.0850 -1.8470  0.2788
  454MOL0     H61227  10.984   2.149   3.655 -1.3014  0.8744 -0.9076
  454MOL0     H61228  11.145   2.189   3.610 -0.4937  1.2780 -0.2188
  454MOL0     H61229  11.008   2.250   3.433 -0.8644 -1.5421  1.7742
  454MOL0     H61230  11.071   2.395   3.513 -1.4763  1.6824  0.6775
  454MOL0     H61231  10.789   2.276   3.566  0.2633 -0.9114 -0.3663
  454MOL0     H61232  10.837   2.422   3.622  0.2030 -1.2530 -0.4262
  454MOL0     H61233  10.791   2.348   3.326 -2.5559  1.2830 -1.8590
  454MOL0     H61234  10.686   2.458   3.425  0.1399 -0.4427  0.2976
  454MOL0     H61235  10.883   2.604   3.462  1.7903 -1.8634  0.2493
  454MOL0     H61236  10.965   2.515   3.327  0.7958  1.0823  0.5241
  454MOL0     H61237  10.719   2.688   3.277 -1.4838 -1.8273 -1.5547
  454MOL0     H61238  10.803   2.591   3.167 -0.7868 -2.7655  1.9582
  454MOL0     H61239  10.950   2.811   3.310  0.1054 -2.1157  1.5878
  454MOL0     H61240  11.020   2.708   3.194  1.0440  1.6112  2.0805
  454MOL0     H61241  10.773   2.979   3.236 -2.8936  0.2265 -0.8161
  454MOL0     H61242  10.683   3.159   2.889  1.6743  3.2320  0.5497
  454MOL0     H61243  10.631   3.143   3.050 -2.5363 -3.0909 -3.0871
  454MOL0     H61244  10.835   3.253   3.146 -0.5703  1.7202  0.6816
  454MOL0     H61245  10.926   3.245   2.988  0.7268  1.8968  0.9257
  454MOL0     H61246  10.783   3.401   2.883 -0.7920 -1.3244  0.3851
  454MOL0     H61247  10.858   3.462   3.020  1.6764 -3.7233  4.9904
  454MOL0     H61248  10.654   3.430   3.165  2.0026  2.1314  0.2471
  454MOL0     H61249  10.577   3.355   3.023 -1.3229 -1.2797  3.1478
  454MOL0     H61250  10.638   3.744   2.849 -1.5847  1.4513  0.5298
  454MOL0     H61251  10.748   3.954   2.896 -3.4489  0.0224 -1.5398
  454MOL0     H61252  11.049   4.115   3.436  1.5870 -1.1920  0.4665
  454MOL0     H61253  11.206   4.286   3.491  0.2192 -1.3160  0.3856
  454MOL0     H61254  11.460   4.457   3.174 -3.2294 -1.4274 -0.2053
  454MOL0     H61255  11.335   4.588   3.201 -0.8416  1.9291  3.9351
  454MOL0     H61256  11.573   4.540   3.379  3.8407  4.7629  1.1640
  454MOL0     H61257  11.580   4.637   3.233 -0.5625  0.9306  0.4565
  454MOL0     H61258  11.407   4.672   3.493  0.3336  0.5858 -0.0767
  454MOL0     H61259  11.537   4.763   3.456  0.1561 -0.1358 -1.1902
  454MOL0     H61260  11.257   4.788   3.345 -0.5630 -1.4252  1.4841
  454MOL0     H61261  11.385   4.813   3.218  1.5210 -0.5001  0.0737
  454MOL0     H61262  11.490   4.989   3.373 -0.3712  2.3406  1.8512
  454MOL0     H61263  11.354   4.957   3.476  0.2622 -1.8290  0.2120
  454MOL0     H61264  11.343   5.056   3.191  2.0290 -1.7516 -0.1921
  454MOL0     H61265  11.197   5.015   3.272 -0.0541  2.6989  1.2269
  454MOL0     H61266  11.357   5.207   3.421  0.9891  1.0603 -1.9968
  454MOL0     H61267  11.182   5.179   3.411  0.2235  0.6546 -0.1800
  454MOL0     H61268  11.156   5.263   3.177  1.9272  0.9394 -1.5006
  454MOL0     H61269  11.204   5.377   3.299  3.4183  1.0765 -0.2755
  454MOL0     H61270  11.293   4.365   3.080  2.2811  0.8049  2.1846
  454MOL0     H61271  11.146   4.177   3.021 -0.0361  1.3755 -0.9965
  454MOL0     H61272  10.859   3.833   3.280  1.0408 -1.1217 -0.6063
  454MOL0     H61273  10.745   3.602   3.237  0.4317  0.2397  0.8136
  454MOL0     H61274  11.052   2.441   4.010 -0.3984 -0.7175  1.2028
  454MOL0     H61275  11.095   2.464   4.230 -0.9729  1.3657 -4.3279
  454MOL0     H61276  11.365   2.323   4.595  3.0373  0.1449  3.5531
  454MOL0     H61277  11.408   2.337   4.825 -0.7408  1.2199 -0.9336
  454MOL0     H61278  11.348   2.116   4.995 -1.4775 -0.3813 -0.2147
  454MOL0     H61279  11.283   2.135   5.160 -3.3221  1.4617  0.3525
  454MOL0     H61280  11.459   2.356   5.036  0.8275  2.2973  1.2615
  454MOL0     H61281  11.536   2.214   5.103 -2.6321 -3.8759  1.3952
  454MOL0     H61282  11.529   2.343   5.294 -0.8096  2.4704  1.6630
  454MOL0     H61283  11.378   2.250   5.309 -0.0949 -0.6076 -1.1296
  454MOL0     H61284  11.250   2.468   5.262 -0.3068  0.8970  0.1276
  454MOL0     H61285  11.360   2.492   5.381 -4.5351  0.6081 -0.7288
  454MOL0     H61286  11.520   2.753   5.098  1.2671 -1.7631 -2.1000
  454MOL0     H61287  11.016   2.253   4.936  2.7935 -1.3727  0.1463
  454MOL0     H61288  10.879   2.193   4.623  0.3610 -0.5877  1.3802
  454MOL0     H61289  10.835   2.263   4.780  0.3514  1.0314  1.3101
  454MOL0     H61290  10.858   2.367   4.649  1.8594  1.0482  0.5869
  455MOL0     O61291   5.179   8.533   4.197  1.0048 -0.8689 -0.4188
  455MOL0     C61292   5.169   8.659   4.193 -1.2900  0.0033  0.1039
  455MOL0     O61293   5.061   8.730   4.146  0.0870  0.0213 -0.3431
  455MOL0     C61294   4.933   8.679   4.170 -0.6248  1.0786  0.4039
  455MOL0     C61295   4.830   8.751   4.116 -0.0609 -0.6515 -0.6489
  455MOL0     C61296   4.691   8.725   4.133 -0.6854  0.0021  0.8243
  455MOL0     C61297   4.650   8.607   4.201 -0.3037  0.4109 -0.0064
  455MOL0     O61298   4.522   8.564   4.222  0.2181  0.6394  0.1804
  455MOL0     C61299   4.428   8.635   4.132  0.5905  0.6366 -0.3545
  455MOL0     C61300   4.296   8.563   4.151  0.4649 -0.4593  0.2320
  455MOL0     C61301   4.195   8.605   4.038  0.7420  0.1314  0.3293
  455MOL0     C61302   4.050   8.558   4.063 -0.0188  0.2006 -0.0312
  455MOL0     C61303   3.937   8.564   3.943 -0.4287  0.1010  0.1756
  455MOL0     C61304   3.824   8.476   3.998  0.0805  0.5989  0.7577
  455MOL0     C61305   3.691   8.489   3.923  0.2128 -0.6206  0.7733
  455MOL0     C61306   3.591   8.392   3.983  0.1382  0.0923  0.4561
  455MOL0     N61307   3.470   8.408   3.905 -0.0320  0.3736  0.6504
  455MOL0     C61308   3.459   8.362   3.773  0.1050  0.0319  0.0615
  455MOL0     C61309   3.341   8.418   3.723  0.3334 -0.0637 -0.1970
  455MOL0     C61310   3.303   8.393   3.579  0.6545 -0.2056 -0.2625
  455MOL0     C61311   3.153   8.387   3.555  0.2351 -0.0690  0.2565
  455MOL0     C61312   3.114   8.343   3.405  0.3364 -0.1274  0.3394
  455MOL0     C61313   3.117   8.467   3.301 -0.0908  0.6668  0.4529
  455MOL0     O61314   3.107   8.413   3.175  0.3981  0.1955 -0.3106
  455MOL0     C61315   3.112   8.509   3.075 -0.4050  0.1493  0.0412
  455MOL0     C61316   3.177   8.636   3.090 -0.2894 -0.5175 -1.3133
  455MOL0     C61317   3.183   8.725   2.989  0.5430  0.1401  0.0338
  455MOL0     C61318   3.102   8.714   2.869  0.5428 -1.4681  0.1324
  455MOL0     C61319   3.103   8.811   2.749  0.5845 -0.4361 -0.7228
  455MOL0     O61320   3.043   8.767   2.642  0.6612  0.3360 -0.1113
  455MOL0     C61321   3.055   8.846   2.527 -0.5355  0.1168  0.2701
  455MOL0     C61322   2.990   8.967   2.507  0.6902 -0.3402 -0.2356
  455MOL0     C61323   3.000   9.036   2.386 -0.2128 -0.5994 -0.5277
  455MOL0     C61324   3.102   9.000   2.294  0.3405  0.7783 -1.1494
  455MOL0     O61325   3.153   9.100   2.205  0.7629  0.1508  0.3881
  455MOL0     C61326   3.290   9.123   2.225 -0.6393 -0.8916 -0.9396
  455MOL0     C61327   3.327   9.266   2.178  0.0036  0.5624  0.5275
  455MOL0     C61328   3.241   9.378   2.250  0.1157  0.1779 -0.0328
  455MOL0     C61329   3.279   9.532   2.240 -0.2794  0.6692 -0.0614
  455MOL0     C61330   3.260   9.603   2.101  0.2120  0.0332 -0.1581
  455MOL0     C61331   3.118   9.640   2.044  0.2382 -0.4950 -0.0300
  455MOL0     C61332   3.126   9.739   1.928 -0.3988 -0.2009  0.2431
  455MOL0     C61333   2.985   9.790   1.886  0.4403  0.5729  0.6315
  455MOL0    Cl61334   2.918   9.893   2.023 -0.0729  0.5396  0.1144
  455MOL0     C61335   3.164   8.883   2.311 -0.2585  0.6179 -0.0220
  455MOL0     C61336   3.149   8.802   2.432 -0.0122 -0.4575 -0.4157
  455MOL0     O61337   3.173   8.909   2.750 -0.1833 -0.1783 -0.2535
  455MOL0     C61338   3.045   8.583   2.852 -0.3992  0.1423  0.3809
  455MOL0     C61339   3.063   8.479   2.947  0.3584  0.1622  0.1395
  455MOL0     N61340   3.276   8.486   3.827 -0.4175 -1.2026 -0.6552
  455MOL0     N61341   3.354   8.477   3.933  0.1543  0.3497 -1.1087
  455MOL0     C61342   4.754   8.529   4.252  0.0851  0.6120  0.3064
  455MOL0     C61343   4.890   8.555   4.242  0.1701 -0.3014  0.3034
  455MOL0     C61344   5.288   8.732   4.225  0.0306 -0.2274  0.4142
  455MOL0     C61345   5.275   8.876   4.212 -0.5655 -0.2434  0.5074
  455MOL0     C61346   5.380   8.963   4.239 -0.7210  0.0001  0.0921
  455MOL0     C61347   5.493   8.912   4.300 -0.9636  0.1239 -0.6214
  455MOL0     O61348   5.604   8.996   4.316  0.4038  0.5664 -1.0736
  455MOL0     C61349   5.585   9.102   4.411 -1.1735  0.9599 -0.2371
  455MOL0     C61350   5.515   9.064   4.527 -0.0620 -0.3212  0.6006
  455MOL0     C61351   5.520   9.186   4.623  0.7714  0.0099  0.1927
  455MOL0     C61352   5.412   9.174   4.735  1.1838  0.7288 -0.3047
  455MOL0     C61353   5.402   9.306   4.791 -0.0315  0.2008  0.1637
  455MOL0     C61354   5.395   9.411   4.850  0.0067  0.0177 -0.5563
  455MOL0     C61355   5.514   8.775   4.311  0.5602  0.4923 -0.7537
  455MOL0     C61356   5.408   8.683   4.281 -0.3389 -0.4621  0.7264
  455MOL0     C61357   5.444   8.544   4.309 -0.4368 -0.0699  0.5850
  455MOL0     H61358   4.852   8.840   4.057 -3.1243 -0.5492 -1.8301
  455MOL0     H61359   4.624   8.788   4.074  0.4091  1.5786  1.1897
  455MOL0     H61360   4.422   8.739   4.166  0.1486 -0.2012  2.4545
  455MOL0     H61361   4.457   8.624   4.028 -1.0042 -0.2557 -0.7317
  455MOL0     H61362   4.245   8.576   4.247 -0.2068  0.4100 -0.2285
  455MOL0     H61363   4.323   8.458   4.138 -0.6575 -0.5471 -1.7831
  455MOL0     H61364   4.234   8.566   3.943 -0.0804  3.8085 -1.7166
  455MOL0     H61365   4.191   8.712   4.017  5.0149  0.5506  0.7797
  455MOL0     H61366   4.067   8.452   4.084 -5.0751 -0.4144  2.2781
  455MOL0     H61367   4.022   8.612   4.153  1.5897 -0.3770  0.8596
  455MOL0     H61368   3.907   8.669   3.939 -0.3983  0.2173  1.9264
  455MOL0     H61369   3.982   8.528   3.850  2.6984  2.6521  0.5247
  455MOL0     H61370   3.857   8.372   3.995  0.6700  0.6840  2.8081
  455MOL0     H61371   3.792   8.487   4.102  0.7977 -0.0132  1.0458
  455MOL0     H61372   3.719   8.453   3.823  0.4229 -1.6512  1.1932
  455MOL0     H61373   3.647   8.589   3.923 -1.0511 -1.1580  0.2039
  455MOL0     H61374   3.621   8.288   3.965  0.3392 -0.1618  2.0758
  455MOL0     H61375   3.574   8.416   4.088  2.8395 -0.9740  1.2153
  455MOL0     H61376   3.526   8.317   3.700  0.9418  0.9073  0.2627
  455MOL0     H61377   3.346   8.471   3.515 -1.5488 -1.0043 -2.9388
  455MOL0     H61378   3.356   8.303   3.545  2.6753  1.0183 -0.5522
  455MOL0     H61379   3.115   8.310   3.623 -0.7127 -1.0062 -1.2990
  455MOL0     H61380   3.103   8.483   3.568 -1.4504 -0.9795  0.8438
  455MOL0     H61381   3.013   8.302   3.401  0.2500 -0.0124  1.1998
  455MOL0     H61382   3.187   8.272   3.367 -2.6786 -1.4665 -3.6096
  455MOL0     H61383   3.211   8.520   3.320 -1.2457  2.3795  1.6028
  455MOL0     H61384   3.038   8.542   3.308 -0.1745  0.7235 -0.9490
  455MOL0     H61385   3.223   8.670   3.182 -3.7386  2.9838 -0.6160
  455MOL0     H61386   3.232   8.820   3.008  1.4343 -0.5167  1.1862
  455MOL0     H61387   2.921   8.988   2.588  1.5344  0.0702  0.3923
  455MOL0     H61388   2.934   9.122   2.377  0.4951  0.2916  1.9432
  455MOL0     H61389   3.318   9.103   2.329 -0.7594 -2.7053 -1.2206
  455MOL0     H61390   3.356   9.048   2.178  1.3522  0.5204 -0.5405
  455MOL0     H61391   3.426   9.311   2.193  0.1475  1.3485 -2.1442
  455MOL0     H61392   3.321   9.260   2.069  0.2917  0.5238  0.5133
  455MOL0     H61393   3.134   9.375   2.228  0.0431  0.1096  0.3200
  455MOL0     H61394   3.231   9.346   2.355  2.1254 -1.5251 -0.3008
  455MOL0     H61395   3.380   9.536   2.281 -0.7210  0.9408  1.0341
  455MOL0     H61396   3.219   9.593   2.308  3.1013  1.2293  2.7195
  455MOL0     H61397   3.303   9.539   2.023 -1.3356 -1.0968 -0.1297
  455MOL0     H61398   3.318   9.693   2.125 -0.9813  0.2054  2.4599
  455MOL0     H61399   3.077   9.549   1.998 -1.8175  0.6858 -0.6649
  455MOL0     H61400   3.045   9.676   2.117 -2.0888 -0.0316 -2.3889
  455MOL0     H61401   3.182   9.701   1.842  0.2568  1.5638 -0.1547
  455MOL0     H61402   3.175   9.828   1.969  0.2296 -0.1874 -0.5008
  455MOL0     H61403   2.981   9.851   1.796 -2.0140  2.6051  2.0014
  455MOL0     H61404   2.914   9.708   1.874 -0.3207  1.3589 -0.4094
  455MOL0     H61405   3.218   8.849   2.223 -1.1484 -0.4539 -0.1697
  455MOL0     H61406   3.199   8.707   2.441 -0.0507 -0.2893  2.4939
  455MOL0     H61407   2.992   8.561   2.760 -0.0892  1.8859 -0.2601
  455MOL0     H61408   3.013   8.384   2.930  0.2815  0.3958 -1.0143
  455MOL0     H61409   4.737   8.425   4.281 -0.3013  0.8747  1.0397
  455MOL0     H61410   4.961   8.482   4.281  0.8902 -1.7603 -3.3384
  455MOL0     H61411   5.186   8.922   4.172 -1.1761 -3.0753 -1.7023
  455MOL0     H61412   5.369   9.070   4.229 -3.2185  0.5311  5.3686
  455MOL0     H61413   5.520   9.171   4.355 -0.2573  2.5068  0.5244
  455MOL0     H61414   5.678   9.156   4.430 -0.7535  0.5272 -1.0057
  455MOL0     H61415   5.554   8.979   4.584  2.3621  1.5587  1.9987
  455MOL0     H61416   5.410   9.049   4.503  0.0619  0.1536 -0.2902
  455MOL0     H61417   5.514   9.275   4.560  0.9131 -1.7564 -2.5063
  455MOL0     H61418   5.623   9.189   4.662  0.2187  1.7898  1.6569
  455MOL0     H61419   5.316   9.148   4.690  1.0763  2.0283 -0.8615
  455MOL0     H61420   5.427   9.092   4.807 -0.0532  1.7346  1.1506
  455MOL0     H61421   5.363   9.496   4.906 -3.5055 -0.9627 -0.8189
  455MOL0     H61422   5.608   8.739   4.352  0.9501  1.2947 -0.9246
  455MOL0     H61423   5.424   8.470   4.231  2.7420  0.5262 -0.9430
  455MOL0     H61424   5.551   8.536   4.330  0.0186 -0.1170 -1.5172
  455MOL0     H61425   5.389   8.500   4.393 -0.2811  1.6325  1.6351
  456MOL0     O61426   0.727   5.759   4.925  0.4650 -0.0187 -0.3271
  456MOL0     C61427   0.745   5.712   4.813 -0.5756  0.9091 -0.2542
  456MOL0     O61428   0.698   5.765   4.697 -0.2788  0.8335 -0.0815
  456MOL0     C61429   0.627   5.883   4.711  0.1599 -0.1244  0.1102
  456MOL0     C61430   0.695   5.996   4.661  0.8361 -0.2641 -0.7492
  456MOL0     C61431   0.629   6.125   4.659  0.5657  0.0839  0.4562
  456MOL0     C61432   0.499   6.140   4.713 -0.0905  1.1002  0.2589
  456MOL0     O61433   0.430   6.249   4.718  0.1131  0.5683  0.8220
  456MOL0     C61434   0.474   6.360   4.632  0.5248  0.7153  0.3126
  456MOL0     C61435   0.369   6.462   4.633  1.2610  0.1246 -0.4664
  456MOL0     C61436   0.320   6.511   4.765 -0.1274 -0.5687 -0.9262
  456MOL0     C61437   0.433   6.571   4.856  0.3000 -0.5728  0.8911
  456MOL0     C61438   0.391   6.695   4.925  0.6872 -1.0986  0.0164
  456MOL0     C61439   0.481   6.738   5.037  0.8373  0.2506  0.3773
  456MOL0     C61440   0.623   6.777   4.999 -0.5141 -0.2870  0.5719
  456MOL0     C61441   0.723   6.774   5.123  1.0073  0.3827 -0.1810
  456MOL0     N61442   0.741   6.642   5.191  0.2533 -0.4592 -0.6485
  456MOL0     C61443   0.867   6.581   5.213 -0.1971 -0.6212 -0.4938
  456MOL0     C61444   0.830   6.487   5.310 -0.6142  0.4199 -0.1235
  456MOL0     C61445   0.929   6.399   5.368 -0.0003  0.2907  0.0405
  456MOL0     C61446   0.892   6.251   5.356  0.2835 -0.1690 -0.2180
  456MOL0     C61447   0.829   6.198   5.477  0.0024 -0.0582  0.1256
  456MOL0     C61448   0.765   6.057   5.437  0.0295 -0.1736  0.3819
  456MOL0     O61449   0.870   5.956   5.413 -0.2088  0.4072 -0.4244
  456MOL0     C61450   0.825   5.826   5.409  0.2343 -1.3401 -0.1120
  456MOL0     C61451   0.813   5.754   5.521 -0.1444 -0.0169  0.5705
  456MOL0     C61452   0.797   5.618   5.511  0.6396  0.0216  1.2539
  456MOL0     C61453   0.776   5.554   5.389  0.7738 -0.2515  0.6148
  456MOL0     C61454   0.731   5.413   5.384  0.8017 -0.1695  0.7353
  456MOL0     O61455   0.646   5.361   5.475 -0.3051  0.1091 -0.2149
  456MOL0     C61456   0.623   5.227   5.482 -0.1908 -0.4289  0.2746
  456MOL0     C61457   0.717   5.130   5.512 -0.3786  0.9739 -0.0141
  456MOL0     C61458   0.672   4.995   5.525  0.0082 -0.5336  0.9309
  456MOL0     C61459   0.537   4.966   5.518 -0.5671 -0.0838  0.4224
  456MOL0     O61460   0.493   4.831   5.518 -0.4743  1.0925  0.2566
  456MOL0     C61461   0.383   4.807   5.424  0.2573  0.7737 -0.1777
  456MOL0     C61462   0.352   4.658   5.424 -0.4668  0.7057 -0.5261
  456MOL0     C61463   0.212   4.621   5.381  0.1362 -0.3013  0.5750
  456MOL0     C61464   0.173   4.693   5.246 -0.2545 -0.2157 -0.7898
  456MOL0     C61465   0.030   4.667   5.188  0.2359 -0.1509 -0.6328
  456MOL0     C61466   0.015   4.707   5.037 -0.2393 -0.1352  0.5334
  456MOL0     C61467   0.018   4.867   5.032 -0.2210  0.3218 -0.8023
  456MOL0     C61468   0.068   4.905   4.888  0.6889  0.4923  0.4303
  456MOL0    Cl61469  -0.031   4.810   4.777  0.0140  0.7641  0.2396
  456MOL0     C61470   0.445   5.067   5.500  0.3580  0.0730  0.6013
  456MOL0     C61471   0.486   5.197   5.486 -0.0846  0.0828 -0.2068
  456MOL0     O61472   0.759   5.346   5.283 -0.3533 -0.0010  0.5483
  456MOL0     C61473   0.788   5.637   5.274 -0.1786  0.7707 -0.7498
  456MOL0     C61474   0.824   5.771   5.281 -0.1256  0.5062  0.9090
  456MOL0     N61475   0.693   6.506   5.348  0.2281 -0.2749  0.1975
  456MOL0     N61476   0.646   6.593   5.269  0.2624  1.2851  0.6292
  456MOL0     C61477   0.435   6.026   4.772  0.1719  0.8561  0.0202
  456MOL0     C61478   0.491   5.891   4.756  0.0784 -0.1273 -0.9536
  456MOL0     C61479   0.821   5.578   4.811  0.1301  0.1370 -0.1427
  456MOL0     C61480   0.792   5.472   4.911  0.3148  0.3577 -0.5394
  456MOL0     C61481   0.872   5.354   4.907  0.5692 -0.1923  0.0610
  456MOL0     C61482   0.977   5.340   4.825  1.1457 -0.3597  0.2504
  456MOL0     O61483   1.041   5.226   4.839  0.9921  0.3254 -0.0748
  456MOL0     C61484   1.169   5.216   4.773  0.4021 -0.0338  0.8811
  456MOL0     C61485   1.250   5.105   4.824 -0.6132 -0.8128 -0.3995
  456MOL0     C61486   1.395   5.096   4.782  0.1046 -0.6877 -0.5416
  456MOL0     C61487   1.492   5.023   4.887  0.8920  0.2163  0.1843
  456MOL0     C61488   1.631   5.054   4.857 -0.6500  1.7037  0.7403
  456MOL0     C61489   1.748   5.068   4.824  0.4176 -0.7504 -0.0253
  456MOL0     C61490   0.999   5.439   4.721  0.1149  0.8554  0.4031
  456MOL0     C61491   0.921   5.550   4.706  0.6396  0.1654  0.1541
  456MOL0     C61492   0.951   5.660   4.606  0.8088  0.3208 -0.2721
  456MOL0     H61493   0.796   5.990   4.620  2.0489 -1.2953  2.1220
  456MOL0     H61494   0.692   6.207   4.625  1.8018 -1.0497 -0.1185
  456MOL0     H61495   0.562   6.423   4.646 -0.6793  3.1045 -1.9480
  456MOL0     H61496   0.487   6.304   4.539 -0.7468 -2.5064  1.9208
  456MOL0     H61497   0.282   6.418   4.583  0.6931  0.1862  0.4588
  456MOL0     H61498   0.407   6.540   4.566  0.5611  1.5579  0.7427
  456MOL0     H61499   0.273   6.427   4.816  0.8605  0.0007  1.0249
  456MOL0     H61500   0.241   6.586   4.760  2.4769  2.4736 -0.2247
  456MOL0     H61501   0.480   6.486   4.907  0.9101 -2.3599 -2.3740
  456MOL0     H61502   0.519   6.605   4.797 -1.1938  3.2145  0.6604
  456MOL0     H61503   0.389   6.778   4.854 -0.7472 -2.3297 -1.4631
  456MOL0     H61504   0.287   6.670   4.949  0.2295 -1.5579 -2.2627
  456MOL0     H61505   0.437   6.818   5.097  3.1673  4.4242 -2.9063
  456MOL0     H61506   0.486   6.645   5.094  0.6228 -0.9276 -1.4468
  456MOL0     H61507   0.613   6.882   4.968  2.3640 -0.1640 -0.2188
  456MOL0     H61508   0.668   6.723   4.916 -0.5392  0.3222  0.1576
  456MOL0     H61509   0.825   6.793   5.087  0.5716  0.1561 -1.6223
  456MOL0     H61510   0.687   6.846   5.197  0.1883 -1.0819  0.8957
  456MOL0     H61511   0.960   6.605   5.163  0.2928  0.2739  0.7871
  456MOL0     H61512   1.026   6.404   5.318  1.1535 -2.1537  1.8151
  456MOL0     H61513   0.947   6.412   5.476 -2.9090 -1.8091  0.9032
  456MOL0     H61514   0.819   6.242   5.275 -1.4636  0.0585  1.2572
  456MOL0     H61515   0.976   6.183   5.338 -0.8059 -1.9529  1.0452
  456MOL0     H61516   0.747   6.263   5.509  0.0395 -0.0852  0.2736
  456MOL0     H61517   0.896   6.176   5.561  1.2455 -2.6275 -1.4095
  456MOL0     H61518   0.687   6.063   5.361 -0.7117 -3.1952  0.7953
  456MOL0     H61519   0.703   6.031   5.523 -3.0945  1.7210 -1.1239
  456MOL0     H61520   0.825   5.807   5.615  1.4525 -0.5217  0.6787
  456MOL0     H61521   0.789   5.555   5.599  0.2434 -4.0678 -1.4165
  456MOL0     H61522   0.822   5.155   5.504 -0.0715 -0.1949  0.0868
  456MOL0     H61523   0.745   4.915   5.522 -0.1554 -0.6905 -2.5501
  456MOL0     H61524   0.302   4.865   5.471  2.3632  1.7880  2.4437
  456MOL0     H61525   0.410   4.849   5.327  0.0329  3.4383  0.8185
  456MOL0     H61526   0.414   4.611   5.348 -1.0226 -0.3784 -0.3342
  456MOL0     H61527   0.378   4.626   5.525 -1.8583  0.2873 -0.2764
  456MOL0     H61528   0.209   4.512   5.372 -1.8027 -0.1107 -3.1264
  456MOL0     H61529   0.141   4.650   5.459  0.0900 -2.9434  1.6437
  456MOL0     H61530   0.247   4.661   5.172  0.9483  1.2395 -0.2518
  456MOL0     H61531   0.180   4.802   5.260 -3.3081  0.0098 -0.2117
  456MOL0     H61532  -0.040   4.712   5.259  1.3664  1.4295 -0.4734
  456MOL0     H61533   0.006   4.560   5.198  0.9803 -0.1645  1.6865
  456MOL0     H61534   0.094   4.679   4.967 -0.8175  2.2393 -1.2092
  456MOL0     H61535  -0.072   4.654   4.997  1.1266 -1.1493 -1.2691
  456MOL0     H61536   0.091   4.901   5.106  2.3402 -0.5311 -2.7455
  456MOL0     H61537  -0.076   4.914   5.059 -1.9444 -0.4813 -4.6386
  456MOL0     H61538   0.075   5.011   4.863 -2.0711  0.8000  0.6331
  456MOL0     H61539   0.170   4.871   4.869 -0.1109 -1.0540 -1.3719
  456MOL0     H61540   0.339   5.051   5.481  0.0658  2.6691 -0.4700
  456MOL0     H61541   0.411   5.272   5.465  0.3724  0.9366  1.0820
  456MOL0     H61542   0.776   5.591   5.177 -0.9409  0.6004 -0.5809
  456MOL0     H61543   0.827   5.828   5.189 -0.4086 -2.9809 -1.4858
  456MOL0     H61544   0.332   6.046   4.798  0.2886  2.5422 -0.6867
  456MOL0     H61545   0.429   5.807   4.784 -3.2706  1.7555 -2.0902
  456MOL0     H61546   0.708   5.475   4.980  0.7088 -0.3166 -0.0261
  456MOL0     H61547   0.843   5.269   4.968 -1.3222 -0.6084 -1.3101
  456MOL0     H61548   1.213   5.314   4.792 -2.0660  0.6014  4.3441
  456MOL0     H61549   1.150   5.205   4.666  0.3933  1.2697  0.7398
  456MOL0     H61550   1.206   5.009   4.794 -0.7968  0.2701 -4.0836
  456MOL0     H61551   1.248   5.124   4.932  1.3016  1.5797 -0.7129
  456MOL0     H61552   1.428   5.200   4.777 -0.3426 -0.5367 -0.4515
  456MOL0     H61553   1.407   5.052   4.683 -0.5119 -0.0334 -0.9212
  456MOL0     H61554   1.463   5.050   4.989 -2.0107 -1.5104 -0.0696
  456MOL0     H61555   1.480   4.914   4.881 -0.2115  0.3490 -0.1188
  456MOL0     H61556   1.841   5.079   4.773 -0.3927  3.9025 -0.9777
  456MOL0     H61557   1.052   5.394   4.638  0.3070 -2.9394  2.3643
  456MOL0     H61558   1.047   5.646   4.557  2.2598  3.8778  1.2244
  456MOL0     H61559   0.865   5.687   4.545 -1.1189  0.7932  2.4327
  456MOL0     H61560   0.975   5.752   4.660  2.7612  1.8813 -3.5293
  457MOL0     O61561   9.692   8.380   8.303 -0.1800  0.6283  0.5207
  457MOL0     C61562   9.650   8.453   8.213 -0.7809  0.2707  0.0398
  457MOL0     O61563   9.697   8.454   8.087  0.0751  0.1358  0.1266
  457MOL0     C61564   9.824   8.408   8.048  0.1892  0.7587 -0.3362
  457MOL0     C61565   9.857   8.407   7.909 -0.8073  0.7383  0.1805
  457MOL0     C61566   9.976   8.359   7.862 -0.4912  0.0469 -0.0021
  457MOL0     C61567  10.081   8.336   7.953 -0.0386  0.4617  0.2194
  457MOL0     O61568  10.203   8.302   7.887 -0.3127 -0.7503  0.9589
  457MOL0     C61569  10.321   8.277   7.957 -0.1783 -0.4220 -0.4940
  457MOL0     C61570  10.441   8.283   7.875 -0.0576  0.2526 -0.3307
  457MOL0     C61571  10.563   8.328   7.955 -0.3736  0.0443  0.2611
  457MOL0     C61572  10.686   8.268   7.897 -0.1432  0.1973 -0.4792
  457MOL0     C61573  10.825   8.308   7.962  0.1377 -0.1584 -0.7453
  457MOL0     C61574  10.860   8.461   7.972 -0.5380 -0.3459  0.9140
  457MOL0     C61575  10.834   8.540   7.841 -0.0491  0.8535 -0.2142
  457MOL0     C61576  10.889   8.681   7.845  0.4764 -0.5546 -1.2644
  457MOL0     N61577  10.877   8.737   7.710 -0.0844 -0.0055 -0.0702
  457MOL0     C61578  10.979   8.742   7.616 -0.2577  0.5132  0.6736
  457MOL0     C61579  10.915   8.769   7.504 -0.2265 -0.2286  1.0955
  457MOL0     C61580  10.979   8.806   7.364  0.4905 -0.1459  1.1455
  457MOL0     C61581  11.109   8.883   7.376  0.1503 -0.1610  0.6659
  457MOL0     C61582  11.085   9.039   7.390  0.4717  0.6597  0.4381
  457MOL0     C61583  10.995   9.080   7.512 -0.5613 -0.5211 -0.2703
  457MOL0     O61584  10.973   9.220   7.536 -0.1991  0.8789 -0.0513
  457MOL0     C61585  10.884   9.289   7.456 -0.1711 -0.6752  0.1913
  457MOL0     C61586  10.822   9.228   7.345 -0.3675  0.1211 -1.1839
  457MOL0     C61587  10.747   9.318   7.254 -0.8118  0.8237  0.1295
  457MOL0     C61588  10.734   9.451   7.279 -0.0113 -0.1541 -0.1165
  457MOL0     C61589  10.649   9.530   7.184  0.3198  0.1989  0.4701
  457MOL0     O61590  10.614   9.470   7.062  0.3432 -1.3513  0.9689
  457MOL0     C61591  10.535   9.552   6.981 -0.2629  0.6484  0.2024
  457MOL0     C61592  10.405   9.595   7.019  0.7905 -0.1454  0.0289
  457MOL0     C61593  10.336   9.694   6.946  0.1024 -0.5218 -0.0163
  457MOL0     C61594  10.396   9.756   6.834  0.3520  0.4705  0.2420
  457MOL0     O61595  10.340   9.858   6.768  0.9807  0.0029 -0.5206
  457MOL0     C61596  10.245   9.939   6.843  0.5117  0.9880 -0.1789
  457MOL0     C61597  10.222  10.064   6.771  0.3367 -0.3987 -0.4659
  457MOL0     C61598  10.170  10.170   6.864  0.2710 -0.3138  0.0505
  457MOL0     C61599  10.034  10.226   6.826 -0.1553 -0.3140  0.7900
  457MOL0     C61600  10.054  10.342   6.726 -0.4054  0.3894  0.2102
  457MOL0     C61601   9.916  10.372   6.666 -0.1693  0.2272 -0.3288
  457MOL0     C61602   9.941  10.444   6.524 -0.3283  0.0761 -0.8977
  457MOL0     C61603   9.993  10.582   6.526  0.1103 -0.9046  0.4243
  457MOL0    Cl61604   9.871  10.692   6.585 -0.1587 -0.1076  0.2720
  457MOL0     C61605  10.517   9.710   6.791 -0.3591 -0.3387 -0.3539
  457MOL0     C61606  10.592   9.614   6.864 -0.3312  0.9206  0.4887
  457MOL0     O61607  10.616   9.643   7.221  0.3068  1.1848 -0.0761
  457MOL0     C61608  10.806   9.506   7.379 -0.1594 -0.0475  0.5215
  457MOL0     C61609  10.871   9.423   7.475 -0.3643  0.0735 -0.2262
  457MOL0     N61610  10.779   8.785   7.530  0.4246  0.0413  0.0547
  457MOL0     N61611  10.759   8.782   7.657  0.4253 -0.5299 -0.0930
  457MOL0     C61612  10.057   8.344   8.086 -0.7495  0.6514  0.3789
  457MOL0     C61613   9.930   8.381   8.140  0.2885  0.7654  0.3841
  457MOL0     C61614   9.540   8.537   8.235  0.6378 -0.6540  0.0008
  457MOL0     C61615   9.461   8.584   8.126  0.6415 -0.0080 -0.1672
  457MOL0     C61616   9.347   8.674   8.144 -0.2545  0.1328 -0.3382
  457MOL0     C61617   9.313   8.726   8.272  0.0259  0.6324  0.8512
  457MOL0     O61618   9.217   8.821   8.300 -0.0346 -0.3112  0.1381
  457MOL0     C61619   9.153   8.866   8.186  1.1873 -0.0373  0.1707
  457MOL0     C61620   9.074   8.988   8.228  0.2634 -0.9357 -0.9325
  457MOL0     C61621   8.999   9.034   8.108  0.1012  0.5688  0.1478
  457MOL0     C61622   8.907   9.160   8.131  0.6612  0.3773  0.0630
  457MOL0     C61623   8.855   9.211   8.002 -0.4165 -0.4690  0.5766
  457MOL0     C61624   8.819   9.255   7.895  0.2763 -0.2346 -0.1004
  457MOL0     C61625   9.386   8.681   8.373 -0.6764  0.3337 -0.2728
  457MOL0     C61626   9.497   8.588   8.359 -0.2069 -0.5788 -0.1829
  457MOL0     C61627   9.548   8.544   8.491  0.2806  0.0673 -0.4442
  457MOL0     H61628   9.793   8.450   7.833 -1.4414  1.3935  1.0543
  457MOL0     H61629  10.003   8.371   7.757  2.6159 -4.0204  0.1155
  457MOL0     H61630  10.334   8.351   8.036  1.1315  0.6052 -1.6297
  457MOL0     H61631  10.323   8.182   8.011 -0.7018 -0.2321 -0.1291
  457MOL0     H61632  10.426   8.348   7.788 -1.2586  0.3988 -0.0311
  457MOL0     H61633  10.447   8.184   7.830  1.1594  0.6097 -1.0146
  457MOL0     H61634  10.550   8.293   8.058  2.0993 -1.6084  0.1004
  457MOL0     H61635  10.570   8.436   7.966 -1.0754 -0.0514  1.8275
  457MOL0     H61636  10.669   8.161   7.890  0.6221 -0.0749  1.1229
  457MOL0     H61637  10.706   8.299   7.794 -1.0305 -0.7230 -0.9421
  457MOL0     H61638  10.823   8.261   8.061  0.8593  0.2020 -0.5520
  457MOL0     H61639  10.903   8.257   7.905  1.6612  1.1346  0.1066
  457MOL0     H61640  10.803   8.501   8.057  1.8732  2.7480  1.3065
  457MOL0     H61641  10.966   8.481   7.992 -0.4149 -0.2734  0.2032
  457MOL0     H61642  10.731   8.541   7.806  0.2727  0.0509 -1.2479
  457MOL0     H61643  10.895   8.483   7.769 -0.5237 -1.5856  1.2057
  457MOL0     H61644  10.846   8.745   7.923  0.2635 -0.7220 -1.2457
  457MOL0     H61645  10.996   8.682   7.872 -0.0726  2.4729  1.4214
  457MOL0     H61646  11.085   8.739   7.642  0.0291  0.3076 -0.4608
  457MOL0     H61647  10.994   8.708   7.319 -2.8274 -0.3613  0.2110
  457MOL0     H61648  10.904   8.849   7.297 -1.1661  0.2984  3.1881
  457MOL0     H61649  11.166   8.842   7.460 -1.0998 -0.1990  1.5284
  457MOL0     H61650  11.166   8.863   7.286  0.8960  0.1903  1.0515
  457MOL0     H61651  11.049   9.075   7.293  1.9059  0.8960 -0.0350
  457MOL0     H61652  11.179   9.089   7.415 -0.8058  2.7591  1.3067
  457MOL0     H61653  11.057   9.043   7.595 -0.9033 -0.6207 -0.0552
  457MOL0     H61654  10.894   9.037   7.508 -2.0664  2.8087 -2.1169
  457MOL0     H61655  10.847   9.125   7.322  0.4198  0.0447 -0.0737
  457MOL0     H61656  10.698   9.261   7.176  5.1167 -3.9523 -0.8152
  457MOL0     H61657  10.355   9.543   7.100  1.5210 -1.6689 -0.4780
  457MOL0     H61658  10.233   9.715   6.972 -0.8530 -4.0629 -0.5050
  457MOL0     H61659  10.148   9.891   6.854  0.1288  1.7352 -0.1963
  457MOL0     H61660  10.277   9.955   6.947 -2.9875  1.9114  0.9039
  457MOL0     H61661  10.313  10.112   6.734 -0.3843  0.6290 -0.9595
  457MOL0     H61662  10.167  10.048   6.678  0.8703 -0.1751 -0.8276
  457MOL0     H61663  10.177  10.132   6.966  0.9042 -1.8246 -0.5357
  457MOL0     H61664  10.243  10.251   6.867  0.4501 -0.5033  1.0145
  457MOL0     H61665   9.976  10.271   6.907 -1.9210  1.0504 -1.1420
  457MOL0     H61666   9.965  10.147   6.797  3.8567 -2.5977 -4.1415
  457MOL0     H61667  10.114  10.302   6.644  2.3911 -3.0333  3.5694
  457MOL0     H61668  10.095  10.434   6.767 -0.1076  0.0743  0.6265
  457MOL0     H61669   9.866  10.276   6.658 -1.1804  0.8909 -3.2187
  457MOL0     H61670   9.859  10.445   6.724  0.0897  1.7996 -1.9589
  457MOL0     H61671   9.844  10.438   6.473 -0.1792  0.4999 -1.2424
  457MOL0     H61672  10.014  10.391   6.463  0.6862  1.8851 -1.3378
  457MOL0     H61673  10.075  10.583   6.599 -1.1227 -1.4931  1.8831
  457MOL0     H61674  10.033  10.616   6.430 -2.8897  0.8168 -0.3426
  457MOL0     H61675  10.558   9.766   6.708  1.8786  0.0875  0.9622
  457MOL0     H61676  10.690   9.581   6.831  0.0088  2.2504  0.0860
  457MOL0     H61677  10.831   9.612   7.381  0.0724 -0.1078  2.6035
  457MOL0     H61678  10.917   9.471   7.560  1.0050  2.2152 -2.0729
  457MOL0     H61679  10.137   8.322   8.157 -1.2752 -3.5357 -0.0496
  457MOL0     H61680   9.911   8.368   8.246  3.0902  0.1429  0.8869
  457MOL0     H61681   9.488   8.556   8.024 -2.1464 -0.9441 -0.7503
  457MOL0     H61682   9.289   8.702   8.056 -0.3873  0.0787 -0.2696
  457MOL0     H61683   9.084   8.790   8.148 -1.5047  3.3805 -2.3521
  457MOL0     H61684   9.219   8.889   8.102 -1.9848 -0.9471 -2.8072
  457MOL0     H61685   9.146   9.063   8.263  0.0801 -0.0988 -2.2571
  457MOL0     H61686   9.004   8.961   8.308  3.0809  0.6699  2.3533
  457MOL0     H61687   8.961   8.950   8.049 -3.1474  2.3535 -0.5216
  457MOL0     H61688   9.080   9.073   8.045 -1.4779  1.2464 -1.5401
  457MOL0     H61689   8.827   9.123   8.197  1.1363  1.7601  1.4837
  457MOL0     H61690   8.960   9.242   8.179 -0.7995  2.1784 -1.2657
  457MOL0     H61691   8.774   9.303   7.810 -0.9020 -1.2362 -0.0718
  457MOL0     H61692   9.356   8.702   8.475  2.8556 -1.0393  1.2195
  457MOL0     H61693   9.516   8.605   8.575  2.9498  0.3972  0.4499
  457MOL0     H61694   9.505   8.443   8.497 -2.1058  0.9736 -1.1489
  457MOL0     H61695   9.657   8.535   8.501  1.0123  4.9083 -1.3570
  458MOL0     O61696   5.492   3.717   8.729 -0.8981  0.0248 -0.4673
  458MOL0     C61697   5.610   3.701   8.698 -0.9828  0.1158  0.2787
  458MOL0     O61698   5.712   3.657   8.778  0.5552  0.0300  0.0951
  458MOL0     C61699   5.692   3.648   8.909 -0.2372 -0.3838 -0.4296
  458MOL0     C61700   5.658   3.527   8.962  0.8408 -0.0103 -0.3097
  458MOL0     C61701   5.631   3.511   9.099  0.0098  0.1596  0.0985
  458MOL0     C61702   5.643   3.614   9.184  0.4913  0.6638  0.0798
  458MOL0     O61703   5.630   3.581   9.318  0.0375 -0.6980 -0.2433
  458MOL0     C61704   5.647   3.682   9.422 -0.1082  0.2268  0.7000
  458MOL0     C61705   5.690   3.612   9.546 -0.3880 -0.1287  0.3857
  458MOL0     C61706   5.823   3.552   9.538  0.0822  0.1631 -0.2110
  458MOL0     C61707   5.816   3.426   9.631 -0.5632  0.2326 -0.0309
  458MOL0     C61708   5.961   3.379   9.682 -0.0085  0.6809  0.1020
  458MOL0     C61709   5.932   3.301   9.802  0.4263  0.1493 -0.2393
  458MOL0     C61710   6.065   3.276   9.889  0.3636 -0.2851  0.2953
  458MOL0     C61711   6.033   3.228  10.030  0.2836 -0.3282  0.8385
  458MOL0     N61712   6.143   3.222  10.119  0.4949 -0.6374 -0.8858
  458MOL0     C61713   6.251   3.136  10.097 -0.2116  0.4545 -0.1000
  458MOL0     C61714   6.321   3.151  10.213 -0.0164 -0.0426  0.5607
  458MOL0     C61715   6.463   3.091  10.242  0.0566  0.2016  0.1103
  458MOL0     C61716   6.465   3.006  10.368 -0.0219 -0.2518  0.5543
  458MOL0     C61717   6.610   2.971  10.399 -0.0024  0.2192  0.0210
  458MOL0     C61718   6.620   2.878  10.516 -0.2875  0.4408  0.1111
  458MOL0     O61719   6.536   2.766  10.518  0.6387 -0.1531 -0.5774
  458MOL0     C61720   6.562   2.666  10.425  0.4170  0.1937  0.7030
  458MOL0     C61721   6.690   2.642  10.359  0.8803  0.3831 -0.3609
  458MOL0     C61722   6.685   2.542  10.258  0.5822 -0.2806  0.1717
  458MOL0     C61723   6.577   2.452  10.238 -0.3280  0.2005  0.5490
  458MOL0     C61724   6.599   2.347  10.134  1.0392 -0.0338 -0.2495
  458MOL0     O61725   6.529   2.233  10.156  0.1995  0.0467 -0.3124
  458MOL0     C61726   6.515   2.142  10.051 -0.7954  0.2423  1.1793
  458MOL0     C61727   6.382   2.106  10.016  0.0776 -0.0989  0.1253
  458MOL0     C61728   6.357   2.002   9.936 -0.3204 -0.6459 -0.7636
  458MOL0     C61729   6.472   1.944   9.869 -0.1763 -0.7157 -0.7152
  458MOL0     O61730   6.443   1.854   9.776  0.4216  0.8754 -0.0744
  458MOL0     C61731   6.554   1.806   9.687  0.7551  0.5160 -1.3480
  458MOL0     C61732   6.505   1.698   9.589 -0.8345  0.6442 -0.1252
  458MOL0     C61733   6.461   1.567   9.652  0.6789  0.3661 -0.9441
  458MOL0     C61734   6.347   1.571   9.751  0.1736 -0.2140 -0.8174
  458MOL0     C61735   6.263   1.438   9.754  0.0156 -0.1585  0.0867
  458MOL0     C61736   6.119   1.459   9.799  0.2241 -0.1227 -0.0575
  458MOL0     C61737   6.088   1.339   9.896 -0.1176 -0.6660  0.2105
  458MOL0     C61738   5.935   1.339   9.950 -0.2580 -0.4486  0.2157
  458MOL0    Cl61739   5.916   1.198  10.045  0.3154 -0.2333 -0.0891
  458MOL0     C61740   6.604   1.974   9.902  0.3458  0.3020 -0.3909
  458MOL0     C61741   6.629   2.069  10.007 -0.0992 -0.9028  0.1744
  458MOL0     O61742   6.676   2.368  10.040  0.4145  0.2280 -0.2926
  458MOL0     C61743   6.455   2.477  10.311 -0.4929 -1.1291  1.2534
  458MOL0     C61744   6.450   2.591  10.394 -0.7543 -0.4443  0.1373
  458MOL0     N61745   6.252   3.238  10.303  0.2118 -0.2628  0.1300
  458MOL0     N61746   6.146   3.279  10.242  0.0649  0.3746 -0.0029
  458MOL0     C61747   5.677   3.739   9.130 -0.3597  0.3404 -0.0938
  458MOL0     C61748   5.713   3.764   8.994 -0.0596 -0.3641  0.2229
  458MOL0     C61749   5.647   3.728   8.561  0.2630  0.2004 -0.7881
  458MOL0     C61750   5.778   3.764   8.535 -0.1282  0.2520 -0.3206
  458MOL0     C61751   5.821   3.834   8.420  0.0099  0.1699  0.2366
  458MOL0     C61752   5.725   3.856   8.322 -0.2639 -1.3769  0.4221
  458MOL0     O61753   5.750   3.918   8.195  0.9142 -0.5295 -0.1330
  458MOL0     C61754   5.668   4.031   8.154 -0.9057  0.2636  0.0244
  458MOL0     C61755   5.695   4.072   8.008  0.9911  0.3878  1.0522
  458MOL0     C61756   5.618   4.199   7.968 -1.0134 -0.8381 -0.4647
  458MOL0     C61757   5.669   4.238   7.833  0.4052 -0.1123 -0.1829
  458MOL0     C61758   5.604   4.371   7.810 -0.2032 -0.3344  0.5460
  458MOL0     C61759   5.569   4.486   7.784 -0.5072  0.1109  0.4670
  458MOL0     C61760   5.590   3.810   8.344 -0.0681  0.3608 -0.8100
  458MOL0     C61761   5.553   3.738   8.456 -0.9535 -0.4450  0.4465
  458MOL0     C61762   5.408   3.696   8.458 -0.2460  0.3681  0.3783
  458MOL0     H61763   5.629   3.457   8.885  1.1037  0.5795 -0.9499
  458MOL0     H61764   5.596   3.414   9.133  1.8055 -0.7909 -0.6455
  458MOL0     H61765   5.716   3.759   9.388  0.0123 -0.6134 -1.0276
  458MOL0     H61766   5.549   3.729   9.440  0.3508  0.0265  4.6646
  458MOL0     H61767   5.621   3.527   9.550  0.9990 -1.2516  1.2317
  458MOL0     H61768   5.685   3.680   9.632  0.9367  0.5511 -0.0465
  458MOL0     H61769   5.900   3.617   9.578  2.1615 -1.3311 -1.5733
  458MOL0     H61770   5.851   3.517   9.438  2.4456  0.8251  0.1622
  458MOL0     H61771   5.756   3.464   9.714  2.6360 -0.0968  2.6394
  458MOL0     H61772   5.768   3.346   9.574 -0.9074  1.1715 -1.0886
  458MOL0     H61773   6.020   3.324   9.607 -1.2855 -0.9189  0.2217
  458MOL0     H61774   6.018   3.465   9.718  1.8932 -1.2093  1.9547
  458MOL0     H61775   5.854   3.346   9.864 -1.1112 -0.6311 -1.5310
  458MOL0     H61776   5.881   3.211   9.768  0.9598  0.8767 -3.2277
  458MOL0     H61777   6.112   3.375   9.883 -2.8344  1.3823 -0.0998
  458MOL0     H61778   6.116   3.196   9.834 -0.1333 -0.6369  0.3382
  458MOL0     H61779   5.957   3.292  10.076 -2.4655 -0.9957 -2.3230
  458MOL0     H61780   5.984   3.130  10.022  0.9471 -0.5392 -1.4095
  458MOL0     H61781   6.274   3.075  10.010 -1.0934 -2.5508  1.6221
  458MOL0     H61782   6.510   3.032  10.163 -0.0558 -0.4111  0.4993
  458MOL0     H61783   6.513   3.189  10.251 -2.0178  1.4021 -0.8054
  458MOL0     H61784   6.429   3.070  10.448  2.4891  0.8176  0.9162
  458MOL0     H61785   6.400   2.917  10.365  1.3689 -1.3046  0.6960
  458MOL0     H61786   6.668   3.062  10.416  1.0655 -0.3973 -0.2994
  458MOL0     H61787   6.650   2.926  10.308 -0.5153  2.4745 -1.4145
  458MOL0     H61788   6.595   2.941  10.602  0.6916  2.2273 -0.8476
  458MOL0     H61789   6.719   2.833  10.514 -2.1542 -4.1165 -0.6034
  458MOL0     H61790   6.783   2.696  10.376  2.1284 -1.0508 -2.1840
  458MOL0     H61791   6.782   2.524  10.212  1.6117 -0.6734  2.3328
  458MOL0     H61792   6.295   2.167  10.039  0.8563  0.6649  1.1511
  458MOL0     H61793   6.258   1.987   9.895 -2.4287  3.6173  2.0594
  458MOL0     H61794   6.597   1.890   9.631  0.2601  0.5214 -1.7236
  458MOL0     H61795   6.627   1.753   9.749 -1.0808 -0.4227  0.1069
  458MOL0     H61796   6.432   1.731   9.514  1.3331  1.4626 -1.9928
  458MOL0     H61797   6.584   1.650   9.531 -0.2566  1.4996 -0.0644
  458MOL0     H61798   6.437   1.491   9.577 -0.6035 -2.0200  1.7170
  458MOL0     H61799   6.551   1.530   9.701 -0.0029  0.3965  0.3737
  458MOL0     H61800   6.281   1.654   9.722 -1.8972 -1.8071 -0.9025
  458MOL0     H61801   6.383   1.600   9.850  2.2480 -1.6733 -1.0866
  458MOL0     H61802   6.317   1.371   9.821  0.1212  0.8672  1.0542
  458MOL0     H61803   6.254   1.393   9.654  0.7669  0.8656 -0.4630
  458MOL0     H61804   6.113   1.553   9.854 -1.6017 -0.7677  0.9145
  458MOL0     H61805   6.047   1.457   9.717 -2.4182  2.9522  1.9198
  458MOL0     H61806   6.152   1.360   9.982  0.4000  2.7109 -0.8573
  458MOL0     H61807   6.107   1.243   9.846 -1.2400 -2.1125  2.3920
  458MOL0     H61808   5.924   1.433  10.004 -0.8363 -0.3203 -0.1180
  458MOL0     H61809   5.875   1.346   9.859  0.7519 -0.9793 -0.5165
  458MOL0     H61810   6.699   1.933   9.870  2.2847  0.7091  3.9991
  458MOL0     H61811   6.727   2.103  10.039 -1.1932  2.1916  0.5649
  458MOL0     H61812   6.374   2.407  10.299 -0.0771 -1.3348 -0.8955
  458MOL0     H61813   6.368   2.603  10.465  0.3715 -0.0098  1.3973
  458MOL0     H61814   5.681   3.824   9.198  2.3301 -0.7007  1.1985
  458MOL0     H61815   5.751   3.853   8.945  3.4800 -0.6586  2.1318
  458MOL0     H61816   5.853   3.740   8.610  0.7482 -2.3162 -1.8901
  458MOL0     H61817   5.919   3.853   8.378  1.1657  0.3300  2.8618
  458MOL0     H61818   5.708   4.120   8.204  2.9741  0.4530 -3.0120
  458MOL0     H61819   5.560   4.026   8.168 -1.1264 -0.1686 -1.6623
  458MOL0     H61820   5.666   3.996   7.935 -0.8593  2.7877 -0.8872
  458MOL0     H61821   5.798   4.077   7.972  0.8417 -1.4983  0.2296
  458MOL0     H61822   5.654   4.276   8.037 -1.1319 -0.3289 -0.9671
  458MOL0     H61823   5.509   4.195   7.971 -1.0723 -0.1129 -1.2500
  458MOL0     H61824   5.777   4.254   7.828  0.3470 -0.1793 -3.2949
  458MOL0     H61825   5.656   4.179   7.742  1.8426 -0.7686  0.0163
  458MOL0     H61826   5.567   4.592   7.776  2.1268  0.0909 -2.6191
  458MOL0     H61827   5.513   3.821   8.268  0.5560 -1.4625 -1.7513
  458MOL0     H61828   5.351   3.716   8.367 -1.3742 -2.3135  0.4113
  458MOL0     H61829   5.397   3.589   8.476  1.4257 -0.3693 -2.4380
  458MOL0     H61830   5.353   3.751   8.536  0.9038  2.0507  0.0670
  459MOL0     O61831  11.439  11.298   9.020  0.6746 -1.8359 -0.1498
  459MOL0     C61832  11.528  11.378   9.001  0.1988  0.1781 -0.3202
  459MOL0     O61833  11.663  11.343   9.005 -1.1917  0.4538 -0.1502
  459MOL0     C61834  11.699  11.206   9.025  0.2864 -0.3703  0.4589
  459MOL0     C61835  11.828  11.180   8.994 -0.0727  0.1308  0.3692
  459MOL0     C61836  11.876  11.048   9.003 -0.7170  0.3094  0.6869
  459MOL0     C61837  11.795  10.943   9.025 -0.1720  0.3332 -0.3638
  459MOL0     O61838  11.858  10.819   9.030  0.1795  1.2969  0.5733
  459MOL0     C61839  11.782  10.715   9.095  0.0890  0.4430 -1.2489
  459MOL0     C61840  11.866  10.585   9.089 -0.4424 -0.0422 -0.7368
  459MOL0     C61841  11.985  10.582   9.180  0.8111 -0.6856  0.1314
  459MOL0     C61842  12.026  10.436   9.222 -1.1571  1.2287  0.3356
  459MOL0     C61843  12.167  10.428   9.293  0.0089 -0.9465  0.5044
  459MOL0     C61844  12.203  10.279   9.334 -0.0686  0.6039 -0.0378
  459MOL0     C61845  12.333  10.270   9.413 -0.2671 -0.8975 -0.3766
  459MOL0     C61846  12.438  10.372   9.362  0.5442 -0.2926 -0.3416
  459MOL0     N61847  12.568  10.355   9.425  0.3406  0.4267 -0.4019
  459MOL0     C61848  12.667  10.447   9.431 -0.7252  0.3437 -0.2848
  459MOL0     C61849  12.786  10.380   9.448  0.5067 -0.0166  0.0420
  459MOL0     C61850  12.916  10.431   9.492  0.5424 -0.8921 -0.2787
  459MOL0     C61851  12.965  10.424   9.640  0.2441  0.2279 -0.0853
  459MOL0     C61852  12.861  10.492   9.744 -0.2322  0.0229 -0.7748
  459MOL0     C61853  12.848  10.639   9.721 -0.4073 -0.0102 -0.6194
  459MOL0     O61854  12.902  10.714   9.826  0.7430 -0.6617  0.2350
  459MOL0     C61855  12.820  10.763   9.926  1.4188  0.0694 -1.0347
  459MOL0     C61856  12.695  10.824   9.895  0.7232 -0.8081  0.0236
  459MOL0     C61857  12.617  10.889   9.992 -0.3006  0.3301  0.9552
  459MOL0     C61858  12.654  10.889  10.124 -0.4208  0.6775  0.7732
  459MOL0     C61859  12.576  10.955  10.233 -0.0231  0.3431 -0.8395
  459MOL0     O61860  12.641  10.974  10.358  0.2609 -0.0288 -0.2972
  459MOL0     C61861  12.582  11.014  10.468  0.2727  0.2412 -0.3515
  459MOL0     C61862  12.553  10.915  10.566 -0.5073  0.4906 -0.1432
  459MOL0     C61863  12.481  10.958  10.672  0.0629  0.0532 -0.2984
  459MOL0     C61864  12.436  11.090  10.687  0.1674  1.0098 -0.0673
  459MOL0     O61865  12.353  11.133  10.791 -0.2246  0.4507  0.4606
  459MOL0     C61866  12.414  11.108  10.920  0.3395  0.8161 -0.0693
  459MOL0     C61867  12.333  11.193  11.026 -0.2678  0.3463  0.1249
  459MOL0     C61868  12.365  11.338  11.002  1.2000  0.5950  0.0111
  459MOL0     C61869  12.294  11.426  11.118 -0.0796 -0.2742  0.2670
  459MOL0     C61870  12.153  11.460  11.096  0.2266 -0.1820 -0.0460
  459MOL0     C61871  12.111  11.557  11.204 -0.8625 -1.0852 -0.7868
  459MOL0     C61872  11.961  11.587  11.201 -0.4207 -0.2068 -0.6955
  459MOL0     C61873  11.908  11.687  11.306 -0.8045  0.4266  1.4198
  459MOL0    Cl61874  11.738  11.676  11.300 -0.9072 -0.3921  0.3866
  459MOL0     C61875  12.464  11.195  10.593  0.3320  1.1306  0.3503
  459MOL0     C61876  12.543  11.147  10.484 -0.6902 -0.7374  0.5488
  459MOL0     O61877  12.464  11.006  10.213  0.1091  0.1934 -0.1886
  459MOL0     C61878  12.780  10.824  10.156  0.9160  1.4843  0.8280
  459MOL0     C61879  12.853  10.754  10.061  0.2029 -0.4762 -0.7699
  459MOL0     N61880  12.749  10.250   9.442 -1.4306  0.9471  0.0990
  459MOL0     N61881  12.624  10.238   9.422  0.5279 -0.0390 -0.9675
  459MOL0     C61882  11.665  10.973   9.068  0.2518 -0.3126 -0.4918
  459MOL0     C61883  11.620  11.103   9.064  0.0297 -0.3856 -0.5819
  459MOL0     C61884  11.488  11.524   8.996 -1.2044  0.9018  0.1643
  459MOL0     C61885  11.586  11.617   9.034  0.2574  0.0609 -1.3740
  459MOL0     C61886  11.559  11.751   9.033  0.4131 -0.1865 -0.7420
  459MOL0     C61887  11.442  11.802   8.993 -0.3826 -0.6371 -0.0481
  459MOL0     O61888  11.440  11.940   8.991 -0.0272  0.0889  0.4664
  459MOL0     C61889  11.332  12.005   8.914  0.3337 -0.3634 -0.1101
  459MOL0     C61890  11.335  12.155   8.910 -0.6189 -0.0009  0.8342
  459MOL0     C61891  11.223  12.203   8.827  0.8713  0.0824  0.2970
  459MOL0     C61892  11.252  12.344   8.798 -0.6047 -0.2371  0.6351
  459MOL0     C61893  11.362  12.355   8.698  0.0587  0.1057 -0.6087
  459MOL0     C61894  11.455  12.350   8.622  0.5195 -0.7952  0.1399
  459MOL0     C61895  11.333  11.712   8.954 -0.5339  1.0408 -0.5552
  459MOL0     C61896  11.364  11.572   8.952 -0.2742 -0.8707 -0.1831
  459MOL0     C61897  11.256  11.483   8.897  0.8317  0.0851 -0.3588
  459MOL0     H61898  11.886  11.264   8.958 -1.8735  2.8901  3.3842
  459MOL0     H61899  11.980  11.030   8.978 -0.3292 -1.5799  3.2745
  459MOL0     H61900  11.759  10.732   9.201  1.7056  0.9846 -0.9675
  459MOL0     H61901  11.681  10.704   9.055 -0.4657 -1.9459  0.5906
  459MOL0     H61902  11.903  10.569   8.987  2.0485  2.1934 -0.2902
  459MOL0     H61903  11.803  10.498   9.112  0.8629 -1.1572 -1.2470
  459MOL0     H61904  11.969  10.644   9.269  1.0784  0.3711 -0.5350
  459MOL0     H61905  12.067  10.628   9.125  0.1004  3.5179  2.1314
  459MOL0     H61906  11.938  10.398   9.274 -1.6061  4.2905  2.0360
  459MOL0     H61907  12.030  10.376   9.130 -1.1279  1.8529 -0.0786
  459MOL0     H61908  12.231  10.475   9.217 -0.8301 -1.5753 -0.6317
  459MOL0     H61909  12.151  10.491   9.380 -1.1821 -2.6779  1.6119
  459MOL0     H61910  12.121  10.241   9.394  2.4016 -2.5393  1.6551
  459MOL0     H61911  12.218  10.215   9.246 -0.5019 -0.6613  0.7816
  459MOL0     H61912  12.370  10.168   9.403  0.3695 -0.9594  2.0774
  459MOL0     H61913  12.313  10.289   9.519 -0.3548  2.3531 -0.8794
  459MOL0     H61914  12.465  10.352   9.258  3.3264 -0.2551  0.2949
  459MOL0     H61915  12.409  10.477   9.369  2.3638  0.3958 -2.0275
  459MOL0     H61916  12.648  10.553   9.435  2.1318  0.9308 -0.0545
  459MOL0     H61917  12.987  10.368   9.436  0.7425 -1.0799  0.1814
  459MOL0     H61918  12.935  10.528   9.446  0.5676 -1.1215 -0.7684
  459MOL0     H61919  12.991  10.322   9.671 -1.5884 -0.0334  0.7667
  459MOL0     H61920  13.060  10.477   9.640  0.1068  0.5259 -1.9374
  459MOL0     H61921  12.890  10.478   9.848  3.5678 -2.9144 -2.0057
  459MOL0     H61922  12.768  10.434   9.737 -0.3822  0.2808 -0.9570
  459MOL0     H61923  12.739  10.650   9.713 -0.5579 -2.1821 -2.7365
  459MOL0     H61924  12.897  10.666   9.627  1.8716  1.6840  0.9341
  459MOL0     H61925  12.651  10.819   9.796  0.0808 -0.7166  0.2968
  459MOL0     H61926  12.523  10.940   9.973 -0.2031  1.2069  2.7279
  459MOL0     H61927  12.604  10.820  10.578  1.6778  1.4286 -1.5355
  459MOL0     H61928  12.454  10.881  10.744  2.3807 -0.5492  0.0244
  459MOL0     H61929  12.400  11.004  10.949 -1.0813  1.6530  2.5879
  459MOL0     H61930  12.522  11.124  10.926 -0.0737  5.6511 -1.2160
  459MOL0     H61931  12.226  11.173  11.015  0.4267 -3.4361 -1.5772
  459MOL0     H61932  12.369  11.174  11.128 -1.3433 -0.6274  0.3433
  459MOL0     H61933  12.474  11.339  11.009  1.1459 -0.1687  1.2639
  459MOL0     H61934  12.324  11.372  10.907 -1.5319  1.5959  1.4273
  459MOL0     H61935  12.345  11.522  11.122 -0.7193  0.3725 -3.4597
  459MOL0     H61936  12.329  11.365  11.202  1.7941 -0.8092 -0.8519
  459MOL0     H61937  12.087  11.373  11.097 -0.4751  0.3268 -0.7358
  459MOL0     H61938  12.157  11.511  11.000  0.3958 -1.9803 -1.0271
  459MOL0     H61939  12.146  11.532  11.304 -3.5748  0.0771  0.5665
  459MOL0     H61940  12.154  11.655  11.186 -0.2967 -0.7023  2.1730
  459MOL0     H61941  11.904  11.498  11.228 -1.5805  0.9659  1.0056
  459MOL0     H61942  11.927  11.615  11.101  4.4880  2.9248 -1.8582
  459MOL0     H61943  11.941  11.657  11.405  2.9408  0.9557  0.4745
  459MOL0     H61944  11.959  11.784  11.304 -0.0123  0.0193  1.6148
  459MOL0     H61945  12.419  11.293  10.598 -1.0687  0.6373 -1.6365
  459MOL0     H61946  12.559  11.212  10.399 -0.0463  0.1976  1.3649
  459MOL0     H61947  12.791  10.803  10.261  2.8983 -0.2593  0.3357
  459MOL0     H61948  12.942  10.701  10.094 -1.4214 -2.4580  0.6653
  459MOL0     H61949  11.590  10.902   9.102  0.4506 -0.4257 -0.2849
  459MOL0     H61950  11.520  11.120   9.104  0.8347  1.0635  1.0095
  459MOL0     H61951  11.683  11.590   9.075 -0.2892  0.3784  0.2214
  459MOL0     H61952  11.643  11.818   9.046 -0.7111  1.5165 -1.8437
  459MOL0     H61953  11.234  11.973   8.952 -0.8094  0.6028 -2.0822
  459MOL0     H61954  11.332  11.959   8.815  3.4523 -0.4135 -0.1753
  459MOL0     H61955  11.432  12.184   8.871 -1.3821  1.6778  0.0677
  459MOL0     H61956  11.327  12.191   9.013  0.6846 -0.0778  0.9761
  459MOL0     H61957  11.126  12.194   8.877  0.3663  2.7695 -0.0517
  459MOL0     H61958  11.207  12.143   8.737  2.5932  1.1995 -0.8118
  459MOL0     H61959  11.174  12.407   8.755  1.0307  1.7780  0.4497
  459MOL0     H61960  11.275  12.392   8.894 -2.2787  4.3741 -1.0097
  459MOL0     H61961  11.532  12.335   8.549 -1.0818 -0.0645 -1.8043
  459MOL0     H61962  11.243  11.751   8.907 -1.5532  1.0177  1.3111
  459MOL0     H61963  11.178  11.540   8.845 -0.5952 -0.4530  1.1049
  459MOL0     H61964  11.280  11.408   8.822 -0.7197 -1.0660  0.2357
  459MOL0     H61965  11.215  11.414   8.972  1.1466 -1.6320 -1.6941
  460MOL0     O61966  11.250   1.871   5.129 -0.0871 -0.1472  0.3246
  460MOL0     C61967  11.265   1.770   5.196  0.4451 -0.4664 -0.7619
  460MOL0     O61968  11.312   1.766   5.320 -0.3068  0.8746  0.0024
  460MOL0     C61969  11.349   1.882   5.385  0.0340  0.1463  0.1410
  460MOL0     C61970  11.471   1.950   5.369 -0.6180  0.0358 -0.5426
  460MOL0     C61971  11.514   2.046   5.461  0.0949 -0.8690  0.8763
  460MOL0     C61972  11.433   2.078   5.565 -0.4604 -0.6239 -0.5397
  460MOL0     O61973  11.486   2.182   5.644 -0.3143  0.6311  0.4731
  460MOL0     C61974  11.383   2.241   5.730  0.3058 -0.7249  0.0579
  460MOL0     C61975  11.435   2.379   5.785  0.6792 -0.1828  0.0067
  460MOL0     C61976  11.462   2.474   5.666 -0.3932  0.1378  0.4224
  460MOL0     C61977  11.572   2.578   5.717 -0.3675  0.0532  0.7571
  460MOL0     C61978  11.622   2.668   5.600  0.3451 -0.4006 -0.6922
  460MOL0     C61979  11.735   2.768   5.632  0.1758 -0.1729 -0.1025
  460MOL0     C61980  11.693   2.904   5.705 -0.5296  0.4586 -0.2771
  460MOL0     C61981  11.790   2.955   5.810 -0.6458 -0.4411  0.2987
  460MOL0     N61982  11.764   2.894   5.939 -0.3679  0.6024 -0.3987
  460MOL0     C61983  11.828   2.778   5.987 -0.9921  0.1981 -0.4525
  460MOL0     C61984  11.791   2.767   6.116 -0.7389  0.5198  1.2097
  460MOL0     C61985  11.828   2.642   6.195  0.3338 -0.0676  0.6944
  460MOL0     C61986  11.977   2.650   6.224 -1.1012  0.3843  0.8442
  460MOL0     C61987  12.033   2.519   6.263 -0.2348 -0.2452 -0.4884
  460MOL0     C61988  11.958   2.463   6.388 -0.4064 -0.3512  0.6596
  460MOL0     O61989  12.022   2.342   6.430  0.0555  0.9183 -1.0580
  460MOL0     C61990  11.955   2.229   6.393 -0.3415 -0.7498 -0.7382
  460MOL0     C61991  11.919   2.203   6.261  0.1418 -0.2630 -0.0930
  460MOL0     C61992  11.837   2.088   6.233  0.1950 -0.0260  0.5361
  460MOL0     C61993  11.811   2.002   6.337 -0.0899  1.1316  0.0320
  460MOL0     C61994  11.710   1.881   6.321  0.3452 -0.1173  0.0880
  460MOL0     O61995  11.638   1.886   6.207 -0.1355 -0.5541  0.7019
  460MOL0     C61996  11.560   1.773   6.185 -1.5567 -0.8951 -1.5745
  460MOL0     C61997  11.617   1.660   6.123  0.0428 -0.9411 -0.1750
  460MOL0     C61998  11.530   1.553   6.102  0.6256 -0.8444 -0.5084
  460MOL0     C61999  11.396   1.559   6.139 -0.1847  0.2483 -0.3281
  460MOL0     O62000  11.314   1.445   6.138 -0.6618  0.3060  0.4760
  460MOL0     C62001  11.174   1.462   6.117  0.5227 -1.0484  0.4616
  460MOL0     C62002  11.120   1.330   6.072 -0.2457  0.3367 -0.1117
  460MOL0     C62003  11.167   1.290   5.933  0.4747  0.5007 -0.4389
  460MOL0     C62004  11.170   1.135   5.921 -0.1616 -0.8942  0.4348
  460MOL0     C62005  11.211   1.106   5.774  0.8803  0.2942 -0.1684
  460MOL0     C62006  11.107   0.999   5.719 -0.1917  0.0395 -0.9852
  460MOL0     C62007  11.145   0.959   5.578 -0.5506 -0.2575  0.8145
  460MOL0     C62008  11.034   0.868   5.525  0.1236  0.4126  0.1316
  460MOL0    Cl62009  10.888   0.958   5.497  0.1025  0.1564  0.2060
  460MOL0     C62010  11.347   1.671   6.201 -0.3749 -0.6289  0.0115
  460MOL0     C62011  11.429   1.782   6.220  0.4431  0.9199 -0.4025
  460MOL0     O62012  11.702   1.793   6.406  0.0240 -0.1347 -0.5391
  460MOL0     C62013  11.868   2.014   6.468  0.0086 -0.4021 -0.7998
  460MOL0     C62014  11.938   2.132   6.492  0.5975 -0.4732 -0.5925
  460MOL0     N62015  11.720   2.873   6.145 -0.0090 -0.2080  0.1552
  460MOL0     N62016  11.697   2.948   6.037  0.2652 -0.1164 -0.1823
  460MOL0     C62017  11.307   2.021   5.585  0.1377 -0.6827  0.0953
  460MOL0     C62018  11.266   1.915   5.498 -0.1075  0.3716 -0.5910
  460MOL0     C62019  11.205   1.634   5.145 -0.1863 -0.5192  0.1418
  460MOL0     C62020  11.096   1.636   5.060  0.4562  0.0845 -0.5110
  460MOL0     C62021  11.034   1.520   5.013 -0.2519  0.7054 -0.0028
  460MOL0     C62022  11.086   1.396   5.040  0.8353 -0.7502  0.0737
  460MOL0     O62023  11.022   1.289   4.979 -0.1374 -0.1878 -0.0206
  460MOL0     C62024  11.034   1.155   5.028  0.1276 -0.3891 -0.7507
  460MOL0     C62025  10.912   1.074   4.977 -0.3381 -0.0668  0.9464
  460MOL0     C62026  10.912   1.071   4.814 -1.2311  0.1395 -0.1022
  460MOL0     C62027  10.860   0.942   4.761 -0.0648  0.7695  0.1358
  460MOL0     C62028  10.716   0.954   4.773 -0.9785 -0.1339  0.3078
  460MOL0     C62029  10.603   0.979   4.784  0.0293  0.0696  0.0177
  460MOL0     C62030  11.196   1.388   5.121 -1.0653  0.9239  1.1210
  460MOL0     C62031  11.258   1.502   5.176  0.2527 -0.7611 -0.0947
  460MOL0     C62032  11.378   1.479   5.267 -0.3556  0.2416  0.9067
  460MOL0     H62033  11.527   1.929   5.278 -0.8133  1.1204 -0.9245
  460MOL0     H62034  11.604   2.107   5.459 -0.2639 -0.3471 -0.2626
  460MOL0     H62035  11.288   2.257   5.677  0.8331  0.7652 -0.4920
  460MOL0     H62036  11.348   2.170   5.806  0.3953 -1.8635 -0.9261
  460MOL0     H62037  11.522   2.368   5.850 -0.5610  1.6322  2.1220
  460MOL0     H62038  11.353   2.417   5.847  0.3719  2.0299 -1.6274
  460MOL0     H62039  11.368   2.519   5.632 -1.5975 -1.7580  1.1040
  460MOL0     H62040  11.506   2.422   5.581 -1.1635  1.3132 -0.7243
  460MOL0     H62041  11.533   2.647   5.792  0.6132  1.6872 -0.1794
  460MOL0     H62042  11.654   2.516   5.755 -1.6933 -1.8838  0.5812
  460MOL0     H62043  11.667   2.600   5.526 -0.3417 -1.9536  0.2593
  460MOL0     H62044  11.540   2.728   5.561  0.2385 -0.1808 -0.1396
  460MOL0     H62045  11.803   2.704   5.688  2.3361  1.5191 -0.6586
  460MOL0     H62046  11.785   2.798   5.540  2.8199  0.8976  1.5615
  460MOL0     H62047  11.592   2.890   5.743 -1.1704  0.6407 -1.8158
  460MOL0     H62048  11.698   2.990   5.637  4.6736  1.4021  0.8803
  460MOL0     H62049  11.896   2.934   5.790 -1.2246 -2.9380 -0.4287
  460MOL0     H62050  11.779   3.063   5.828  3.4660 -0.0386  1.6196
  460MOL0     H62051  11.882   2.704   5.929 -0.0659 -0.5606  1.3020
  460MOL0     H62052  11.757   2.628   6.276 -1.8032  3.2499 -0.4133
  460MOL0     H62053  11.816   2.559   6.125  0.1768  1.1238 -0.7431
  460MOL0     H62054  12.031   2.691   6.138 -0.5875  0.3260  1.1332
  460MOL0     H62055  11.992   2.730   6.298 -2.0398  2.5239 -1.1418
  460MOL0     H62056  12.142   2.513   6.267 -0.2631 -1.1949 -0.7542
  460MOL0     H62057  12.022   2.449   6.179 -0.1885 -2.0428  0.9400
  460MOL0     H62058  11.855   2.449   6.353  0.2507 -1.1611 -1.0955
  460MOL0     H62059  11.937   2.535   6.467 -2.3282  0.0029 -0.1173
  460MOL0     H62060  11.927   2.278   6.183 -0.2931  0.2544  0.3514
  460MOL0     H62061  11.802   2.087   6.130  3.6040  3.1270 -0.8705
  460MOL0     H62062  11.721   1.645   6.099 -0.6891 -2.7402 -2.6463
  460MOL0     H62063  11.561   1.456   6.063  0.6914 -1.5977  1.2992
  460MOL0     H62064  11.128   1.496   6.210 -0.8837 -2.2406  0.2361
  460MOL0     H62065  11.153   1.538   6.041 -1.1900 -1.3702  0.5730
  460MOL0     H62066  11.156   1.251   6.139  4.1200  2.4546  0.4469
  460MOL0     H62067  11.011   1.326   6.073 -0.3031 -1.2614 -2.9127
  460MOL0     H62068  11.086   1.314   5.862 -2.6428 -0.9387  2.3560
  460MOL0     H62069  11.262   1.336   5.903  2.1925 -1.8178  1.0942
  460MOL0     H62070  11.072   1.094   5.947 -0.3346 -1.2297 -0.6964
  460MOL0     H62071  11.252   1.103   5.986  0.2869 -0.5791  0.0374
  460MOL0     H62072  11.309   1.059   5.774  1.1009  0.7288 -1.6362
  460MOL0     H62073  11.211   1.192   5.706  2.8551 -0.7761 -1.6033
  460MOL0     H62074  11.105   0.914   5.787  2.8897 -0.8698 -1.8619
  460MOL0     H62075  11.008   1.046   5.716 -0.5820 -0.7244 -0.4025
  460MOL0     H62076  11.230   0.890   5.574  1.4611  2.0537  1.5188
  460MOL0     H62077  11.167   1.042   5.510  2.1279 -2.1954 -0.8802
  460MOL0     H62078  11.068   0.826   5.430  0.6997  1.2234 -0.0259
  460MOL0     H62079  11.014   0.787   5.596 -0.7936 -0.9229 -1.5596
  460MOL0     H62080  11.242   1.687   6.224  0.4388  2.0086  2.5017
  460MOL0     H62081  11.391   1.880   6.248  1.1428  1.4376 -1.2103
  460MOL0     H62082  11.834   1.944   6.544  0.9228  0.9112  0.8925
  460MOL0     H62083  11.971   2.146   6.594 -4.0008  1.2006  0.9409
  460MOL0     H62084  11.249   2.039   5.675 -0.6100 -0.0940 -0.4924
  460MOL0     H62085  11.175   1.857   5.510 -0.1873  0.7026  0.4339
  460MOL0     H62086  11.045   1.719   5.013  1.2261  0.3193 -0.9514
  460MOL0     H62087  10.944   1.521   4.952 -0.0550  1.1600 -0.2900
  460MOL0     H62088  11.028   1.156   5.137  0.2171 -1.3273 -0.7274
  460MOL0     H62089  11.131   1.110   5.004  0.5242 -1.5043  2.5320
  460MOL0     H62090  10.826   1.131   5.013  0.6669 -0.0572  3.5235
  460MOL0     H62091  10.924   0.977   5.026  2.5586 -1.1389 -1.5529
  460MOL0     H62092  11.013   1.078   4.773 -2.1435 -0.9137 -2.7282
  460MOL0     H62093  10.863   1.160   4.775 -0.1561  0.7788 -0.0263
  460MOL0     H62094  10.886   0.938   4.655  0.4233 -0.1708  0.2788
  460MOL0     H62095  10.910   0.855   4.807  0.2776  1.2851  0.7650
  460MOL0     H62096  10.497   0.991   4.788  0.0361  0.4340 -0.7606
  460MOL0     H62097  11.237   1.289   5.136  0.9699  0.8959 -3.1415
  460MOL0     H62098  11.468   1.521   5.221 -0.5438 -1.4527 -1.2181
  460MOL0     H62099  11.355   1.519   5.366  1.6892  6.5496 -0.7284
  460MOL0     H62100  11.394   1.372   5.286 -0.3293  0.2302  0.8251
  461MOL0     O62101   9.144   6.627   4.199 -0.6106 -0.5381  0.0213
  461MOL0     C62102   9.126   6.501   4.201  0.5305 -0.6554  0.4694
  461MOL0     O62103   9.113   6.415   4.092  0.6074 -0.1174  0.1013
  461MOL0     C62104   9.172   6.439   3.975 -0.8569  0.2480 -0.0971
  461MOL0     C62105   9.308   6.465   3.964  0.3076 -0.0142 -0.1202
  461MOL0     C62106   9.369   6.483   3.841 -0.7582  0.4270  0.6411
  461MOL0     C62107   9.295   6.477   3.725  0.2244 -0.5742 -0.2999
  461MOL0     O62108   9.367   6.518   3.614 -0.3026  0.1549  0.5751
  461MOL0     C62109   9.285   6.556   3.490 -0.2073  0.0383  0.5431
  461MOL0     C62110   9.342   6.665   3.413 -0.4203 -0.9289  0.4878
  461MOL0     C62111   9.348   6.796   3.491  0.5776 -0.4336 -0.2497
  461MOL0     C62112   9.241   6.907   3.441  0.0006 -0.1870 -0.3688
  461MOL0     C62113   9.245   7.029   3.538  0.0079  1.0951 -0.0785
  461MOL0     C62114   9.240   7.155   3.460  1.5441  0.3824  0.1517
  461MOL0     C62115   9.242   7.281   3.556  0.3041  0.4094 -0.2918
  461MOL0     C62116   9.247   7.406   3.472 -1.2846  0.2788  0.4848
  461MOL0     N62117   9.268   7.523   3.558  0.1294  0.1643  1.1991
  461MOL0     C62118   9.314   7.631   3.500 -0.7514  0.3785 -1.0649
  461MOL0     C62119   9.329   7.726   3.602 -0.0404  0.4299 -0.2925
  461MOL0     C62120   9.359   7.871   3.596  0.2074  0.2927  0.4599
  461MOL0     C62121   9.233   7.949   3.573 -1.1236 -0.2676  0.4141
  461MOL0     C62122   9.179   7.933   3.428 -0.2381  0.2071 -0.1207
  461MOL0     C62123   9.076   8.044   3.397 -0.3262 -0.8838 -0.1761
  461MOL0     O62124   9.134   8.176   3.380 -0.1598 -0.7551  0.2922
  461MOL0     C62125   9.068   8.278   3.310  0.5235  0.1997 -0.8547
  461MOL0     C62126   9.143   8.385   3.265 -0.5543  0.4526  0.8237
  461MOL0     C62127   9.084   8.479   3.180 -1.1928 -0.1067 -1.0200
  461MOL0     C62128   8.955   8.468   3.129  0.1475 -0.9094  0.2668
  461MOL0     C62129   8.908   8.557   3.026 -0.3948  0.4346  0.2576
  461MOL0     O62130   8.997   8.647   2.962 -0.3563 -0.3132 -0.4179
  461MOL0     C62131   8.939   8.709   2.843 -0.6586 -1.1289 -0.0374
  461MOL0     C62132   8.973   8.846   2.825  1.1744  0.5639  0.6634
  461MOL0     C62133   8.933   8.917   2.705  0.6846  0.3503 -0.9020
  461MOL0     C62134   8.849   8.861   2.611 -0.5654 -0.4331 -0.0660
  461MOL0     O62135   8.794   8.919   2.497  1.0806  0.1633 -0.1286
  461MOL0     C62136   8.836   9.052   2.456 -0.5183 -1.0185 -0.3445
  461MOL0     C62137   8.986   9.061   2.409  0.0228 -0.3893 -0.0630
  461MOL0     C62138   9.011   9.012   2.271  0.0050 -1.2645 -0.6984
  461MOL0     C62139   9.159   8.993   2.236 -0.5400  0.4047 -0.6926
  461MOL0     C62140   9.216   9.121   2.179  0.6664 -0.2305  0.9147
  461MOL0     C62141   9.360   9.120   2.162  0.2421  0.6126  0.3592
  461MOL0     C62142   9.415   9.259   2.126  0.8883  0.0897  1.0244
  461MOL0     C62143   9.562   9.262   2.094  0.2990 -0.2543 -0.1723
  461MOL0    Cl62144   9.596   9.427   2.041  0.0991  0.1909 -0.0932
  461MOL0     C62145   8.817   8.728   2.634 -0.6105  0.4196  0.2733
  461MOL0     C62146   8.867   8.647   2.739  0.8779  0.7705 -0.3104
  461MOL0     O62147   8.788   8.549   3.005 -0.5570  0.5673 -0.6917
  461MOL0     C62148   8.874   8.366   3.188  0.4337 -0.4180  0.7832
  461MOL0     C62149   8.928   8.272   3.280 -0.4803  0.1483 -0.4337
  461MOL0     N62150   9.262   7.661   3.711 -0.1098 -0.3018 -0.5756
  461MOL0     N62151   9.239   7.544   3.689 -0.2227  0.7223  1.2742
  461MOL0     C62152   9.162   6.445   3.731 -0.1139  0.6879 -0.2061
  461MOL0     C62153   9.102   6.427   3.859  1.1670 -0.1174  0.1384
  461MOL0     C62154   9.081   6.436   4.331 -0.3624 -0.5831  0.1384
  461MOL0     C62155   9.059   6.528   4.443  0.1059 -0.1906 -0.2087
  461MOL0     C62156   9.037   6.481   4.571 -0.1447 -0.6488  0.0186
  461MOL0     C62157   9.033   6.341   4.599 -0.9334 -0.9307 -0.0343
  461MOL0     O62158   9.010   6.289   4.725 -0.9979 -0.8818 -0.0088
  461MOL0     C62159   9.036   6.148   4.750 -0.1349  0.3592  0.0271
  461MOL0     C62160   9.033   6.122   4.899  0.1500  1.4196 -0.1944
  461MOL0     C62161   9.141   6.193   4.988 -0.5771  0.3418 -0.4008
  461MOL0     C62162   9.067   6.277   5.098  0.1945  0.0319 -0.0537
  461MOL0     C62163   9.003   6.405   5.051  0.5391  1.1101 -1.6261
  461MOL0     C62164   8.936   6.491   4.997  0.5974 -0.0378 -0.0162
  461MOL0     C62165   9.061   6.254   4.492  0.5261 -0.5991  0.0653
  461MOL0     C62166   9.094   6.299   4.363  0.8030 -0.5058  0.4805
  461MOL0     C62167   9.137   6.196   4.262  0.0529  1.0747  0.2328
  461MOL0     H62168   9.359   6.468   4.059  2.3521  1.9810 -1.1639
  461MOL0     H62169   9.475   6.504   3.848 -0.3771 -1.8182  3.7140
  461MOL0     H62170   9.284   6.473   3.419 -1.8517  1.1461 -0.8090
  461MOL0     H62171   9.182   6.583   3.513  0.1285  1.1255  0.8559
  461MOL0     H62172   9.275   6.660   3.327  2.5016 -4.1663 -1.9013
  461MOL0     H62173   9.441   6.655   3.368 -0.7924  2.7823 -1.5695
  461MOL0     H62174   9.447   6.841   3.476  1.9222 -1.3043  4.3861
  461MOL0     H62175   9.334   6.785   3.599 -0.8539  3.4983  0.1508
  461MOL0     H62176   9.254   6.948   3.341 -1.9068  0.8829 -0.2186
  461MOL0     H62177   9.144   6.856   3.442  0.2045 -0.6598  2.1618
  461MOL0     H62178   9.159   7.022   3.606 -0.5954  1.6320 -0.7639
  461MOL0     H62179   9.345   7.037   3.581  0.6597 -0.5479 -1.2070
  461MOL0     H62180   9.320   7.168   3.387  0.9850  1.0368 -0.3555
  461MOL0     H62181   9.148   7.158   3.402  1.6452  2.8932 -0.0070
  461MOL0     H62182   9.327   7.268   3.624 -0.5466  4.2274  1.8330
  461MOL0     H62183   9.146   7.280   3.609 -0.4947  0.8261 -1.6770
  461MOL0     H62184   9.329   7.404   3.399 -2.0645  1.8343 -0.4902
  461MOL0     H62185   9.150   7.416   3.423 -0.3701  2.9563 -0.9838
  461MOL0     H62186   9.333   7.647   3.394  0.3028 -0.2660 -0.9873
  461MOL0     H62187   9.418   7.897   3.684 -1.2188  0.8729  1.2657
  461MOL0     H62188   9.420   7.895   3.508 -0.6577  0.2834 -0.1569
  461MOL0     H62189   9.164   7.921   3.652 -1.1101 -0.9899  0.1784
  461MOL0     H62190   9.263   8.054   3.577  0.8039 -0.6427 -1.8466
  461MOL0     H62191   9.122   7.840   3.418  2.8306 -1.5837 -3.0709
  461MOL0     H62192   9.258   7.920   3.354  0.1183 -1.6565  0.5293
  461MOL0     H62193   9.003   8.034   3.478  0.0903 -2.2556  0.0646
  461MOL0     H62194   9.018   8.013   3.309 -1.8828 -2.4191  1.2984
  461MOL0     H62195   9.248   8.396   3.288 -0.9583  5.7577  1.3840
  461MOL0     H62196   9.156   8.553   3.147  0.9529 -2.3396 -1.6627
  461MOL0     H62197   9.040   8.901   2.890  1.7328  1.6402 -0.7576
  461MOL0     H62198   8.959   9.019   2.681 -1.9344  1.1302 -0.7144
  461MOL0     H62199   8.771   9.098   2.382  1.0027  0.5626 -0.7643
  461MOL0     H62200   8.829   9.121   2.541 -0.0885  3.2378 -3.4298
  461MOL0     H62201   9.028   9.162   2.417  1.0895 -0.9369  1.9070
  461MOL0     H62202   9.057   9.002   2.468  0.6901 -0.6916 -1.1225
  461MOL0     H62203   8.964   8.913   2.269 -4.3327  0.4730  1.6425
  461MOL0     H62204   8.956   9.078   2.203  1.9932  0.7962 -0.4114
  461MOL0     H62205   9.170   8.916   2.159 -1.4894  0.1886 -0.6330
  461MOL0     H62206   9.225   8.963   2.318 -3.6022 -2.9787  0.8412
  461MOL0     H62207   9.191   9.208   2.240 -0.9898 -0.8638  1.1891
  461MOL0     H62208   9.175   9.125   2.077  3.1895  0.4990 -0.1657
  461MOL0     H62209   9.406   9.076   2.251  0.5748 -0.9359 -0.5401
  461MOL0     H62210   9.382   9.046   2.084 -2.6612  0.8911 -0.8667
  461MOL0     H62211   9.418   9.319   2.218  3.1472  0.0291  1.0541
  461MOL0     H62212   9.351   9.314   2.056  0.1965 -1.8523  0.0624
  461MOL0     H62213   9.625   9.249   2.183 -0.0026  4.1094  0.8959
  461MOL0     H62214   9.590   9.193   2.013 -0.8460 -2.1297  0.9558
  461MOL0     H62215   8.748   8.690   2.560  0.5987  0.5233 -0.9538
  461MOL0     H62216   8.836   8.543   2.746  3.8321 -0.3470 -2.0646
  461MOL0     H62217   8.768   8.352   3.173  0.3671 -0.8412  1.5672
  461MOL0     H62218   8.871   8.198   3.335  0.7130 -0.1953  0.3940
  461MOL0     H62219   9.099   6.441   3.642  0.8663  0.1379 -0.8936
  461MOL0     H62220   8.998   6.397   3.869 -0.0660  2.5149 -3.1483
  461MOL0     H62221   9.051   6.632   4.414 -0.6431 -0.3914 -0.7424
  461MOL0     H62222   9.041   6.561   4.645  1.4640 -0.4548 -0.2423
  461MOL0     H62223   9.123   6.104   4.699 -1.9146  0.8000 -3.7564
  461MOL0     H62224   8.948   6.103   4.704 -0.0934  2.0887 -1.9316
  461MOL0     H62225   9.056   6.015   4.907  1.2964  1.6072 -0.8192
  461MOL0     H62226   8.936   6.158   4.933  0.6868  2.5560  0.1840
  461MOL0     H62227   9.201   6.265   4.931 -2.1697  2.6375  0.6617
  461MOL0     H62228   9.195   6.112   5.037 -4.2153 -1.6237  0.7227
  461MOL0     H62229   8.989   6.210   5.135 -1.2993  0.8724 -1.5485
  461MOL0     H62230   9.132   6.303   5.183 -1.0382 -1.2528  1.3405
  461MOL0     H62231   8.882   6.564   4.941 -0.1257  0.4472  1.2776
  461MOL0     H62232   9.067   6.145   4.487 -0.1340 -0.6601 -4.6236
  461MOL0     H62233   9.054   6.188   4.190 -1.2449  0.6181  1.7113
  461MOL0     H62234   9.231   6.229   4.218  2.3947 -2.0342  2.5123
  461MOL0     H62235   9.160   6.096   4.301 -1.5315  0.5789 -0.0152
  462MOL0     O62236   0.627   3.857   8.969  0.0266 -0.3210  0.4222
  462MOL0     C62237   0.709   3.762   8.970 -0.2359 -0.2186 -1.1395
  462MOL0     O62238   0.710   3.664   9.075 -0.2373 -0.3664  0.2882
  462MOL0     C62239   0.610   3.682   9.164  0.2300  1.3716  0.2564
  462MOL0     C62240   0.513   3.576   9.166  0.4972  0.6643 -0.3386
  462MOL0     C62241   0.406   3.590   9.258 -0.9217  0.8568  0.8835
  462MOL0     C62242   0.395   3.705   9.342 -0.3135 -0.1752 -0.6946
  462MOL0     O62243   0.294   3.735   9.429  0.7532 -0.2384 -0.6751
  462MOL0     C62244   0.204   3.639   9.466  0.7667  0.6203 -0.2650
  462MOL0     C62245   0.109   3.695   9.569  0.3117  0.0119 -0.9524
  462MOL0     C62246   0.172   3.689   9.707 -0.6366  0.2376 -0.0473
  462MOL0     C62247   0.073   3.743   9.814  0.8215 -0.2203  0.0233
  462MOL0     C62248   0.134   3.755   9.954  0.0978 -0.0681  0.0896
  462MOL0     C62249   0.035   3.818  10.059  0.6361  0.2890  0.2082
  462MOL0     C62250   0.071   3.774  10.199 -0.2918  0.2691 -0.1055
  462MOL0     C62251  -0.003   3.880  10.298  0.5971 -0.0973  0.3741
  462MOL0     N62252   0.017   3.846  10.441 -0.2224 -1.2522 -0.3773
  462MOL0     C62253   0.144   3.845  10.502  0.2369 -0.6420 -0.4210
  462MOL0     C62254   0.111   3.835  10.640  0.4982  0.2562 -0.2833
  462MOL0     C62255   0.208   3.821  10.756  0.1763  0.1690 -0.0104
  462MOL0     C62256   0.261   3.675  10.765  0.0797  0.0600  0.6531
  462MOL0     C62257   0.339   3.661  10.897 -0.8810 -0.1868  0.0767
  462MOL0     C62258   0.238   3.628  11.010 -0.6819  0.0699  0.0436
  462MOL0     O62259   0.290   3.623  11.140  0.1614 -0.0651 -0.7881
  462MOL0     C62260   0.355   3.507  11.177 -0.0891  0.7712 -0.9146
  462MOL0     C62261   0.416   3.509  11.303 -0.3014  0.8587  0.8778
  462MOL0     C62262   0.504   3.402  11.344 -0.4444  0.2042 -1.3212
  462MOL0     C62263   0.523   3.293  11.257 -0.3468  0.6583 -0.3400
  462MOL0     C62264   0.587   3.170  11.310  0.0121  0.0279 -0.6161
  462MOL0     O62265   0.617   3.068  11.227  0.0691 -0.3159 -0.3767
  462MOL0     C62266   0.678   2.954  11.271  1.1929 -0.6901  0.2235
  462MOL0     C62267   0.642   2.885  11.386  0.6962 -0.5138 -0.5218
  462MOL0     C62268   0.704   2.761  11.413  0.3119 -0.2855  0.2558
  462MOL0     C62269   0.809   2.715  11.340  0.4684  0.3519  0.7080
  462MOL0     O62270   0.860   2.598  11.384  0.8447 -0.0393 -0.2702
  462MOL0     C62271   1.000   2.596  11.382  0.0483  0.9461  0.4145
  462MOL0     C62272   1.061   2.581  11.520  0.8919 -0.2678  0.4799
  462MOL0     C62273   0.996   2.663  11.628 -0.0812  0.6383 -0.0770
  462MOL0     C62274   1.100   2.679  11.742  0.7993 -0.8179 -0.2966
  462MOL0     C62275   1.016   2.781  11.835  0.6304 -0.2505  0.8023
  462MOL0     C62276   1.107   2.805  11.960 -0.4753 -0.5732 -0.2019
  462MOL0     C62277   1.037   2.873  12.079 -0.5768 -1.0126  0.2142
  462MOL0     C62278   1.113   2.847  12.209 -0.3835 -0.8259 -0.1573
  462MOL0    Cl62279   1.268   2.943  12.233  0.3122 -0.3253 -0.0163
  462MOL0     C62280   0.834   2.772  11.214 -0.3207 -0.0497 -0.7304
  462MOL0     C62281   0.766   2.891  11.178 -0.5423  0.4286 -0.1260
  462MOL0     O62282   0.612   3.164  11.430 -0.4680 -0.3043  0.1927
  462MOL0     C62283   0.473   3.295  11.127 -0.0872  0.1427  0.0099
  462MOL0     C62284   0.397   3.405  11.082  0.6965 -0.0399 -0.1651
  462MOL0     N62285  -0.024   3.832  10.654 -0.2277  0.0344  0.7022
  462MOL0     N62286  -0.074   3.836  10.535 -0.6979 -0.4834 -0.4141
  462MOL0     C62287   0.496   3.802   9.335  0.6794 -0.2544  0.2298
  462MOL0     C62288   0.612   3.791   9.255 -0.5188  0.1797 -0.2461
  462MOL0     C62289   0.793   3.736   8.852 -0.1500 -0.3705  0.2100
  462MOL0     C62290   0.791   3.826   8.739 -0.2733  0.1294  0.6464
  462MOL0     C62291   0.872   3.809   8.631 -0.3056  0.2312  0.7590
  462MOL0     C62292   0.962   3.704   8.628 -0.0588 -0.6089 -0.0789
  462MOL0     O62293   1.046   3.693   8.525  0.1016  0.2121  0.6106
  462MOL0     C62294   1.171   3.768   8.524 -0.4178 -0.6567 -0.3356
  462MOL0     C62295   1.290   3.689   8.580 -0.7059  0.2110  0.0464
  462MOL0     C62296   1.303   3.558   8.510  0.6308  0.0943 -0.0808
  462MOL0     C62297   1.432   3.494   8.530 -0.3588 -0.8886 -0.5629
  462MOL0     C62298   1.442   3.355   8.488 -0.0280  0.6830 -0.8162
  462MOL0     C62299   1.461   3.246   8.433 -0.5406  0.0366 -0.4726
  462MOL0     C62300   0.967   3.610   8.732  0.4008 -0.3268 -0.1582
  462MOL0     C62301   0.874   3.618   8.842 -0.1192  0.6596 -0.3182
  462MOL0     C62302   0.880   3.495   8.944 -0.5324  0.5211 -0.1550
  462MOL0     H62303   0.525   3.488   9.104  0.7113 -0.7823  1.6499
  462MOL0     H62304   0.330   3.513   9.249 -0.4717  0.5553 -0.7918
  462MOL0     H62305   0.148   3.621   9.374  0.2597 -0.0055  0.1556
  462MOL0     H62306   0.250   3.543   9.494 -3.1108 -2.4778 -3.1744
  462MOL0     H62307   0.025   3.625   9.569  0.2650  0.0553 -0.0585
  462MOL0     H62308   0.070   3.795   9.549 -1.9655 -0.7744 -0.7407
  462MOL0     H62309   0.267   3.745   9.709 -0.0181 -0.7664 -0.4921
  462MOL0     H62310   0.193   3.584   9.730 -1.1886  0.2537  0.5627
  462MOL0     H62311   0.030   3.840   9.787 -1.4794 -0.9226  0.9442
  462MOL0     H62312  -0.012   3.674   9.817 -0.0473  0.8357  2.3747
  462MOL0     H62313   0.165   3.654   9.982 -2.2286 -1.2892 -1.4008
  462MOL0     H62314   0.220   3.823   9.945 -1.4555  1.8529 -1.2100
  462MOL0     H62315   0.046   3.927  10.053  0.3142  0.3167  0.1489
  462MOL0     H62316  -0.062   3.774  10.036  1.8798 -3.0408  0.8053
  462MOL0     H62317   0.177   3.798  10.210 -0.5289  0.2660  3.2358
  462MOL0     H62318   0.046   3.668  10.213  0.9879 -0.0003  0.3065
  462MOL0     H62319   0.040   3.976  10.270 -2.5742  1.4514  0.3304
  462MOL0     H62320  -0.111   3.873  10.283  0.6339  0.1755 -0.0269
  462MOL0     H62321   0.246   3.841  10.463 -0.2011 -0.0347 -1.6959
  462MOL0     H62322   0.285   3.898  10.749  0.0156  0.2603 -0.8885
  462MOL0     H62323   0.147   3.835  10.846 -0.8056 -1.2538 -0.4226
  462MOL0     H62324   0.189   3.593  10.764  2.5178 -2.2375 -1.2476
  462MOL0     H62325   0.331   3.635  10.691 -1.9728 -2.5072 -0.0494
  462MOL0     H62326   0.387   3.755  10.923 -0.5391 -0.7515  1.5935
  462MOL0     H62327   0.422   3.590  10.890 -1.9216 -1.7934  2.4822
  462MOL0     H62328   0.182   3.536  10.995 -1.9257  0.4244  2.0454
  462MOL0     H62329   0.161   3.705  11.017 -0.7029  0.1541 -1.0505
  462MOL0     H62330   0.409   3.607  11.350  1.6974  1.7459 -0.5158
  462MOL0     H62331   0.532   3.395  11.448 -0.4016 -1.5627 -1.4268
  462MOL0     H62332   0.571   2.911  11.464  0.2987  1.8987 -1.5782
  462MOL0     H62333   0.660   2.700  11.492 -3.5509 -0.3088 -1.6883
  462MOL0     H62334   1.016   2.510  11.317  2.1009  0.9746  0.8235
  462MOL0     H62335   1.056   2.671  11.326  2.2439 -0.3522  0.7632
  462MOL0     H62336   1.052   2.472  11.527  1.0616 -0.2302  1.4019
  462MOL0     H62337   1.166   2.603  11.502  0.6890 -0.3036 -0.9115
  462MOL0     H62338   0.973   2.763  11.589  0.1264  1.4629  1.8033
  462MOL0     H62339   0.912   2.605  11.666  2.0563 -1.0993  2.3519
  462MOL0     H62340   1.184   2.740  11.709  0.4245  0.4056  0.8886
  462MOL0     H62341   1.142   2.585  11.777 -1.8950 -2.4831 -1.2161
  462MOL0     H62342   0.930   2.725  11.873  0.9015 -0.8433  0.5612
  462MOL0     H62343   0.988   2.862  11.767 -0.0241 -3.1533 -2.7342
  462MOL0     H62344   1.141   2.708  11.996  0.5881  0.0384  0.5038
  462MOL0     H62345   1.203   2.858  11.953 -0.8037  0.9411  3.6886
  462MOL0     H62346   0.945   2.814  12.087 -1.1608 -0.6959 -2.8977
  462MOL0     H62347   1.014   2.978  12.059 -2.3939 -1.5303 -0.6858
  462MOL0     H62348   1.045   2.878  12.289 -0.8855  0.1400 -0.9447
  462MOL0     H62349   1.135   2.741  12.225 -2.2283 -1.4599 -1.5534
  462MOL0     H62350   0.902   2.739  11.136 -1.7352 -2.2916 -1.0920
  462MOL0     H62351   0.771   2.928  11.076  0.7120  0.3218 -0.1223
  462MOL0     H62352   0.496   3.222  11.051 -0.8668 -0.3513  0.2363
  462MOL0     H62353   0.359   3.413  10.981 -1.4470  1.3826  0.6650
  462MOL0     H62354   0.494   3.882   9.407  2.1222  0.3114 -0.3176
  462MOL0     H62355   0.684   3.872   9.249  0.4225 -0.7181 -1.7412
  462MOL0     H62356   0.726   3.913   8.739  3.0428  2.8143  0.1136
  462MOL0     H62357   0.860   3.873   8.544  2.8774  1.5816  1.1558
  462MOL0     H62358   1.165   3.860   8.583 -1.4110  1.1838 -3.1410
  462MOL0     H62359   1.185   3.787   8.417  0.3634  0.9025  0.0163
  462MOL0     H62360   1.266   3.672   8.686 -1.7783 -1.6560 -0.4499
  462MOL0     H62361   1.376   3.755   8.565  1.0516 -2.3152 -2.0309
  462MOL0     H62362   1.286   3.581   8.404  0.0813  0.4435  0.0754
  462MOL0     H62363   1.211   3.507   8.539  0.4381  0.3682 -0.1906
  462MOL0     H62364   1.507   3.557   8.480  0.8199 -0.4055  1.6576
  462MOL0     H62365   1.463   3.495   8.635 -1.3550  4.4502 -0.0474
  462MOL0     H62366   1.457   3.143   8.402 -0.0968 -0.0559 -0.2351
  462MOL0     H62367   1.044   3.534   8.718  3.0101  2.1903 -0.2857
  462MOL0     H62368   0.780   3.453   8.959  0.5751 -2.6507 -0.9500
  462MOL0     H62369   0.949   3.419   8.908 -2.0169 -0.2566 -1.4935
  462MOL0     H62370   0.926   3.538   9.033 -0.0630 -1.5348  0.6511
  463MOL0     O62371   8.882  11.234   4.006  0.6725 -0.1465 -0.4310
  463MOL0     C62372   8.858  11.195   3.895 -0.4332 -0.2789  0.2058
  463MOL0     O62373   8.964  11.153   3.811 -0.0526  0.0704  0.1614
  463MOL0     C62374   9.096  11.181   3.830  0.4157  0.7122  0.0997
  463MOL0     C62375   9.160  11.116   3.932  0.3191 -0.4452 -0.3612
  463MOL0     C62376   9.300  11.143   3.947 -0.6388 -0.6517  0.3406
  463MOL0     C62377   9.364  11.219   3.850 -0.6387  0.0725  0.1142
  463MOL0     O62378   9.494  11.257   3.873  0.7037 -0.3174 -0.5382
  463MOL0     C62379   9.504  11.339   3.988  0.1865 -0.4097  0.3675
  463MOL0     C62380   9.560  11.481   3.960 -0.7409  0.1109  0.0251
  463MOL0     C62381   9.516  11.552   3.836  0.4135 -0.0311  1.0168
  463MOL0     C62382   9.558  11.697   3.826 -0.8585 -0.4898 -0.0867
  463MOL0     C62383   9.581  11.746   3.676 -0.1049 -0.4030 -0.4305
  463MOL0     C62384   9.438  11.756   3.612  0.0368 -0.3807  0.3460
  463MOL0     C62385   9.444  11.816   3.466 -0.6880 -0.3627 -0.1109
  463MOL0     C62386   9.303  11.811   3.414  0.3346  0.1373 -0.1146
  463MOL0     N62387   9.271  11.873   3.283 -0.3710  0.2788 -0.0784
  463MOL0     C62388   9.243  12.004   3.252 -0.6473 -0.0305  0.4444
  463MOL0     C62389   9.217  11.996   3.113 -0.3938  0.0558 -0.4578
  463MOL0     C62390   9.226  12.123   3.025 -0.2518  1.2221  0.1422
  463MOL0     C62391   9.331  12.106   2.913  0.1128  0.0082  0.5953
  463MOL0     C62392   9.344  12.250   2.844  0.3435  0.5032  0.3886
  463MOL0     C62393   9.435  12.259   2.717  0.4639  0.5807 -0.4520
  463MOL0     O62394   9.574  12.229   2.745  0.1504  0.1178 -0.1507
  463MOL0     C62395   9.646  12.307   2.838 -0.5132  0.4829 -0.4818
  463MOL0     C62396   9.741  12.254   2.925  0.1483 -0.1486 -0.4203
  463MOL0     C62397   9.819  12.329   3.010  0.1771 -0.6651  0.5437
  463MOL0     C62398   9.815  12.474   3.002 -0.0098 -0.7175  0.4901
  463MOL0     C62399   9.904  12.557   3.083 -0.0254 -0.2866  0.1122
  463MOL0     O62400  10.017  12.500   3.150 -0.2109  1.0439  0.3395
  463MOL0     C62401  10.108  12.561   3.239 -0.3192  0.1197 -0.2957
  463MOL0     C62402  10.152  12.475   3.343  0.3452  0.0782  0.0455
  463MOL0     C62403  10.254  12.530   3.429  0.7635  0.4800 -0.9706
  463MOL0     C62404  10.302  12.666   3.416  0.2220 -0.6826 -0.1220
  463MOL0     O62405  10.386  12.736   3.502  0.1996  0.5311 -0.0156
  463MOL0     C62406  10.475  12.665   3.586 -0.9518  0.1733  0.7756
  463MOL0     C62407  10.569  12.766   3.653 -0.5795  0.1609  1.2723
  463MOL0     C62408  10.712  12.768   3.606 -0.1538 -0.7519  0.4207
  463MOL0     C62409  10.726  12.808   3.455 -0.5206 -0.6840 -0.0285
  463MOL0     C62410  10.878  12.799   3.422 -0.7515 -0.5008 -0.0380
  463MOL0     C62411  10.893  12.829   3.273  0.8516  0.1225 -0.6331
  463MOL0     C62412  11.014  12.756   3.202  0.3874 -1.1771  0.1738
  463MOL0     C62413  11.146  12.820   3.250  0.0118  0.1417 -1.3849
  463MOL0    Cl62414  11.205  12.976   3.189 -0.2707 -0.0435 -0.1471
  463MOL0     C62415  10.252  12.742   3.306  1.7425  0.4014  0.2000
  463MOL0     C62416  10.147  12.689   3.225  1.1067 -0.3282  0.2917
  463MOL0     O62417   9.882  12.674   3.078  1.1615 -0.4049 -0.1195
  463MOL0     C62418   9.712  12.532   2.925  0.6998  0.8732 -0.1340
  463MOL0     C62419   9.637  12.448   2.830  0.3677  0.1163  0.3944
  463MOL0     N62420   9.216  11.868   3.072  0.2797 -0.2466  0.0683
  463MOL0     N62421   9.243  11.796   3.172 -0.3869 -0.5905 -0.8996
  463MOL0     C62422   9.305  11.258   3.729  0.4919 -0.0560 -0.5332
  463MOL0     C62423   9.162  11.246   3.722  0.1486  0.1041  0.1613
  463MOL0     C62424   8.724  11.179   3.843  1.2646  1.5692 -0.6077
  463MOL0     C62425   8.708  11.105   3.715 -0.2179 -0.4875 -0.2853
  463MOL0     C62426   8.575  11.079   3.663 -1.2394 -0.6429  0.1066
  463MOL0     C62427   8.459  11.119   3.744 -0.7939 -0.1247  0.2478
  463MOL0     O62428   8.328  11.072   3.721 -0.2195 -0.2916  0.3992
  463MOL0     C62429   8.300  10.979   3.617  0.0750  0.2237  0.4024
  463MOL0     C62430   8.159  10.915   3.627 -0.1349 -0.5301  0.5855
  463MOL0     C62431   8.126  10.799   3.542 -0.4349  1.2662  0.1084
  463MOL0     C62432   7.987  10.737   3.562 -0.5861 -0.1008 -0.2222
  463MOL0     C62433   7.933  10.690   3.684 -0.7753  0.3130 -0.9593
  463MOL0     C62434   7.882  10.654   3.787 -0.6360  0.6651 -0.8207
  463MOL0     C62435   8.477  11.196   3.860 -0.1704  0.2225  0.4457
  463MOL0     C62436   8.603  11.219   3.911  1.2735  0.2406 -0.3910
  463MOL0     C62437   8.600  11.271   4.051 -0.1480  0.0115  0.1191
  463MOL0     H62438   9.119  11.072   4.022 -1.0053  0.8756 -0.2794
  463MOL0     H62439   9.361  11.114   4.033  0.6062  2.4107  0.6254
  463MOL0     H62440   9.410  11.347   4.044 -1.0458  0.8550 -1.7619
  463MOL0     H62441   9.575  11.290   4.056 -0.8306  0.1791  1.9087
  463MOL0     H62442   9.668  11.481   3.948 -0.7276  1.9428 -0.1231
  463MOL0     H62443   9.540  11.541   4.049  1.1634  1.2992 -0.3060
  463MOL0     H62444   9.407  11.546   3.830  0.2313  2.3206  0.9371
  463MOL0     H62445   9.567  11.500   3.755  1.1660 -1.0127  2.0978
  463MOL0     H62446   9.488  11.761   3.880  1.5514 -0.2767  3.0179
  463MOL0     H62447   9.653  11.723   3.873 -1.2957 -1.2537  1.2480
  463MOL0     H62448   9.631  11.843   3.677 -1.7471  0.4919 -0.6712
  463MOL0     H62449   9.647  11.674   3.627  1.4520 -0.5554  1.7336
  463MOL0     H62450   9.388  11.660   3.599  1.0600 -1.2422  2.4036
  463MOL0     H62451   9.384  11.820   3.682  0.4328  0.3273  0.0144
  463MOL0     H62452   9.512  11.757   3.404  0.2074  2.0142 -1.4981
  463MOL0     H62453   9.489  11.915   3.454 -1.4320 -0.1376 -1.1791
  463MOL0     H62454   9.268  11.708   3.408 -1.7128  0.6347  1.7553
  463MOL0     H62455   9.244  11.863   3.490  1.8230 -2.0625  2.7225
  463MOL0     H62456   9.260  12.095   3.309 -1.2489 -1.1557  2.5151
  463MOL0     H62457   9.128  12.147   2.982 -0.2018  0.4305 -0.4317
  463MOL0     H62458   9.260  12.203   3.091  0.2206 -0.0124  1.4477
  463MOL0     H62459   9.430  12.074   2.943  0.1607 -0.8810 -0.4597
  463MOL0     H62460   9.295  12.032   2.841 -3.3241  0.9082  1.2103
  463MOL0     H62461   9.379  12.332   2.908  0.9466 -1.3453  2.5543
  463MOL0     H62462   9.243  12.281   2.816  0.1811  0.4885  0.9605
  463MOL0     H62463   9.409  12.356   2.674  0.7309  0.5922 -0.5869
  463MOL0     H62464   9.404  12.178   2.651  0.3323 -0.5360  0.9332
  463MOL0     H62465   9.758  12.147   2.929  1.1208  0.0306  0.6554
  463MOL0     H62466   9.887  12.284   3.082 -0.2179 -0.0877  1.2915
  463MOL0     H62467  10.108  12.376   3.336 -0.7989  0.6456 -1.3272
  463MOL0     H62468  10.299  12.458   3.498 -1.3678 -1.1120 -1.1253
  463MOL0     H62469  10.411  12.625   3.665 -1.9256  1.8177  0.8628
  463MOL0     H62470  10.525  12.583   3.533  0.8066  1.5221  0.2165
  463MOL0     H62471  10.522  12.864   3.647  1.7599  1.2713 -2.0625
  463MOL0     H62472  10.565  12.737   3.758  2.3492 -0.4358  1.3062
  463MOL0     H62473  10.765  12.850   3.656  0.6991 -1.3209  0.4642
  463MOL0     H62474  10.774  12.680   3.624  1.5818  0.1681 -0.7002
  463MOL0     H62475  10.687  12.907   3.428  1.7534  0.5272  0.8074
  463MOL0     H62476  10.682  12.727   3.397  3.5703 -0.9894 -3.1296
  463MOL0     H62477  10.927  12.705   3.449  3.0626  0.8875 -1.3481
  463MOL0     H62478  10.938  12.875   3.473  0.5171 -2.2130  1.1476
  463MOL0     H62479  10.806  12.787   3.221  0.4725 -0.9470  0.8062
  463MOL0     H62480  10.880  12.938   3.269  2.3131  0.5037  2.6184
  463MOL0     H62481  11.009  12.766   3.093  0.3911  1.8203  0.3821
  463MOL0     H62482  11.013  12.649   3.223  1.6051 -1.7941 -2.5061
  463MOL0     H62483  11.135  12.809   3.358  1.7633 -2.2425 -1.3668
  463MOL0     H62484  11.231  12.757   3.224  0.0029  0.3368 -1.9015
  463MOL0     H62485  10.278  12.846   3.287 -1.7150  1.1725 -1.0451
  463MOL0     H62486  10.109  12.745   3.141 -1.0789 -0.8711  0.8532
  463MOL0     H62487   9.699  12.639   2.914  0.4252  1.3960  3.8741
  463MOL0     H62488   9.558  12.491   2.770  0.6494  0.3285  0.1745
  463MOL0     H62489   9.363  11.311   3.654  0.6525  1.0256  0.3259
  463MOL0     H62490   9.103  11.291   3.643  0.5978 -0.8348 -0.7315
  463MOL0     H62491   8.803  11.084   3.666  0.4016 -1.7732  1.3540
  463MOL0     H62492   8.561  11.034   3.566 -1.5072  2.2520 -1.2873
  463MOL0     H62493   8.366  10.891   3.607 -1.4095 -0.8759 -0.0322
  463MOL0     H62494   8.308  11.038   3.525  0.4202  0.4007  0.5422
  463MOL0     H62495   8.092  10.993   3.590 -0.3362 -0.1790  1.6639
  463MOL0     H62496   8.146  10.900   3.735 -2.2412  0.5245  0.5135
  463MOL0     H62497   8.207  10.727   3.558  0.1275  1.7657 -0.4612
  463MOL0     H62498   8.131  10.814   3.433 -2.1041  0.8877 -0.0462
  463MOL0     H62499   7.917  10.815   3.531 -0.4119  0.5137  0.8594
  463MOL0     H62500   7.983  10.658   3.487 -2.2211 -3.2902  2.9528
  463MOL0     H62501   7.842  10.626   3.882 -1.3304  1.9457 -0.7125
  463MOL0     H62502   8.387  11.237   3.906  1.0496  0.2486  2.9641
  463MOL0     H62503   8.675  11.216   4.109  1.5042 -0.1226 -2.0024
  463MOL0     H62504   8.643  11.371   4.060  0.9289 -0.5967  2.7199
  463MOL0     H62505   8.500  11.268   4.094  0.9700 -2.4165  2.9128
  464MOL0     O62506   6.874   0.278  10.707 -0.5741 -0.2564 -0.2533
  464MOL0     C62507   6.957   0.233  10.783 -0.8470  0.0887 -0.5126
  464MOL0     O62508   7.028   0.302  10.877  0.4384  0.4981 -0.1085
  464MOL0     C62509   7.011   0.440  10.875  0.2852 -0.1831  0.2105
  464MOL0     C62510   7.118   0.521  10.833  0.4608  0.3007 -0.2289
  464MOL0     C62511   7.104   0.657  10.836  0.2084  0.4972 -0.1342
  464MOL0     C62512   6.987   0.724  10.871  0.0401  0.8423 -0.1597
  464MOL0     O62513   6.979   0.858  10.851  0.6071 -0.8785 -0.2098
  464MOL0     C62514   6.883   0.939  10.935  0.5670 -0.6966  0.5608
  464MOL0     C62515   6.940   1.084  10.935  0.2818  0.2510 -0.2592
  464MOL0     C62516   6.839   1.196  10.991  0.4653  0.1045  0.9605
  464MOL0     C62517   6.875   1.350  10.992  0.7081 -0.3471  0.7809
  464MOL0     C62518   6.823   1.448  11.098  0.4260  0.0628 -0.2763
  464MOL0     C62519   6.671   1.469  11.076  0.0057  0.8826 -0.1062
  464MOL0     C62520   6.592   1.549  11.183 -0.4435  0.5952 -0.6674
  464MOL0     C62521   6.685   1.613  11.283 -0.1475 -0.1019 -0.3611
  464MOL0     N62522   6.599   1.655  11.393 -0.2977  0.8781  0.0142
  464MOL0     C62523   6.547   1.779  11.398  0.4970 -0.2406  0.1610
  464MOL0     C62524   6.458   1.785  11.494 -0.4291 -0.3137 -0.4545
  464MOL0     C62525   6.378   1.905  11.502 -0.3856  0.1673 -0.8044
  464MOL0     C62526   6.459   2.000  11.595  0.1232  0.5290 -0.2984
  464MOL0     C62527   6.388   2.143  11.604 -0.8519 -0.2302  0.4657
  464MOL0     C62528   6.456   2.243  11.701  0.0008  0.6050 -0.2947
  464MOL0     O62529   6.600   2.237  11.685 -0.0903 -0.8884 -0.0221
  464MOL0     C62530   6.671   2.332  11.767 -0.4220  1.7966  0.2468
  464MOL0     C62531   6.816   2.338  11.763  0.3465  0.4551  0.4537
  464MOL0     C62532   6.889   2.422  11.848  0.2871  0.7326 -0.0342
  464MOL0     C62533   6.821   2.516  11.937  0.3048  0.6438 -0.3418
  464MOL0     C62534   6.889   2.631  12.006  0.9347  0.4054  0.0636
  464MOL0     O62535   6.810   2.685  12.102  0.2865  0.1437  0.2562
  464MOL0     C62536   6.861   2.802  12.155  0.2780 -0.9210 -0.4657
  464MOL0     C62537   6.980   2.805  12.233  1.2303  0.2124  1.0527
  464MOL0     C62538   7.027   2.931  12.269  0.0633 -0.2079 -0.7819
  464MOL0     C62539   6.962   3.046  12.235  0.1423 -0.3337  0.4572
  464MOL0     O62540   7.012   3.162  12.301  0.1430 -0.9914  0.3284
  464MOL0     C62541   6.960   3.179  12.435  0.7070  0.0869 -0.2378
  464MOL0     C62542   6.969   3.323  12.475  1.1577  0.4251  0.4776
  464MOL0     C62543   6.877   3.410  12.388 -0.1132  0.6520  0.0522
  464MOL0     C62544   6.884   3.563  12.405  0.1100 -0.2329  0.7165
  464MOL0     C62545   6.829   3.598  12.537 -0.8269 -0.2756  0.4602
  464MOL0     C62546   6.773   3.747  12.538 -0.2597  0.5722 -0.7364
  464MOL0     C62547   6.715   3.783  12.672  0.2014  0.3531  0.2680
  464MOL0     C62548   6.704   3.931  12.679 -1.9395  0.1575 -0.9459
  464MOL0    Cl62549   6.641   3.990  12.841 -0.0400 -0.3885  0.1574
  464MOL0     C62550   6.853   3.047  12.155  0.2827  0.4615  0.0975
  464MOL0     C62551   6.801   2.929  12.112  0.2434  0.4574  0.0509
  464MOL0     O62552   6.997   2.678  11.970  0.3387  0.3108 -0.1835
  464MOL0     C62553   6.681   2.513  11.933 -0.5408  0.6814 -0.6948
  464MOL0     C62554   6.607   2.422  11.865 -0.1510  0.2245  1.0401
  464MOL0     N62555   6.459   1.656  11.556  0.4538  0.4118 -0.0555
  464MOL0     N62556   6.552   1.580  11.495 -0.2978  0.4636 -1.4553
  464MOL0     C62557   6.881   0.641  10.908  0.2575 -1.7478  0.0605
  464MOL0     C62558   6.896   0.499  10.910  1.5881  0.4521 -0.5511
  464MOL0     C62559   6.995   0.084  10.759 -0.6753 -0.4382 -1.0966
  464MOL0     C62560   6.986   0.034  10.628 -0.3013 -0.3239 -0.2393
  464MOL0     C62561   7.025  -0.094  10.598 -0.7666  0.2273  0.7261
  464MOL0     C62562   7.082  -0.177  10.689  0.6093 -0.0603 -0.0240
  464MOL0     O62563   7.121  -0.302  10.653  1.0312 -0.1674  1.0841
  464MOL0     C62564   7.051  -0.370  10.538 -0.4833 -0.2720  0.4960
  464MOL0     C62565   7.151  -0.345  10.420 -0.2129 -0.3266  0.1632
  464MOL0     C62566   7.100  -0.390  10.283 -0.4645  0.4103  1.1542
  464MOL0     C62567   7.173  -0.334  10.161 -0.1067  1.2554  0.4483
  464MOL0     C62568   7.111  -0.411  10.049 -0.0602  0.0616  0.4080
  464MOL0     C62569   7.059  -0.491   9.968 -0.3090 -0.2825  0.7826
  464MOL0     C62570   7.090  -0.136  10.815  0.9304  0.9028  0.6625
  464MOL0     C62571   7.050  -0.002  10.858 -0.1214  0.0521 -0.2773
  464MOL0     C62572   7.083   0.038  10.998  0.2234 -0.4440  1.2890
  464MOL0     H62573   7.201   0.472  10.782 -0.6107 -1.5113 -0.3264
  464MOL0     H62574   7.173   0.713  10.773 -1.2354  1.5312 -0.8651
  464MOL0     H62575   6.786   0.934  10.885  1.9032 -0.9812 -2.1966
  464MOL0     H62576   6.867   0.911  11.039  0.4777 -0.3375  0.6446
  464MOL0     H62577   6.960   1.123  10.835 -0.3513 -0.6766 -0.7762
  464MOL0     H62578   7.035   1.080  10.988 -0.1185  2.9951  0.8023
  464MOL0     H62579   6.809   1.150  11.086  0.5981 -3.0933 -0.4284
  464MOL0     H62580   6.751   1.195  10.926  0.2926  1.7761  1.1136
  464MOL0     H62581   6.984   1.353  11.002  1.0529  1.4425 -2.1661
  464MOL0     H62582   6.859   1.384  10.889  3.7433 -1.1439 -0.0706
  464MOL0     H62583   6.839   1.403  11.196 -2.0367  0.2680  0.2931
  464MOL0     H62584   6.872   1.545  11.104 -1.9049  1.1924  2.5062
  464MOL0     H62585   6.664   1.537  10.990 -0.9852  1.0794  0.1089
  464MOL0     H62586   6.621   1.372  11.065  0.2942  0.3339  2.7862
  464MOL0     H62587   6.522   1.480  11.230  2.3884 -0.1032  3.0271
  464MOL0     H62588   6.537   1.634  11.141 -2.4850 -0.3016  0.0667
  464MOL0     H62589   6.749   1.533  11.322  1.0940  0.6615 -0.7600
  464MOL0     H62590   6.742   1.698  11.245 -1.3537  1.0255  0.2607
  464MOL0     H62591   6.561   1.853  11.320 -0.6465 -1.7060 -1.4944
  464MOL0     H62592   6.364   1.938  11.398 -0.4535 -1.3212 -1.2904
  464MOL0     H62593   6.279   1.888  11.545 -0.8612  2.7626 -0.6768
  464MOL0     H62594   6.464   1.952  11.694  0.5697  3.5373  1.2501
  464MOL0     H62595   6.554   2.020  11.545 -1.2939  1.9329 -2.5895
  464MOL0     H62596   6.283   2.123  11.627 -0.7317 -0.2584  0.9907
  464MOL0     H62597   6.400   2.203  11.513  0.1651  0.9421  1.3486
  464MOL0     H62598   6.428   2.213  11.803 -1.1238  1.9566 -0.1745
  464MOL0     H62599   6.431   2.348  11.682  1.1505  1.4888  2.5184
  464MOL0     H62600   6.873   2.292  11.683  0.5897 -0.0420  0.9056
  464MOL0     H62601   6.996   2.435  11.832  0.7960 -4.2528 -3.2940
  464MOL0     H62602   7.027   2.712  12.264 -1.4205 -1.8563 -0.7152
  464MOL0     H62603   7.101   2.944  12.348 -0.2062  3.6886 -0.9705
  464MOL0     H62604   6.856   3.144  12.435  0.7805 -0.3783  2.8347
  464MOL0     H62605   7.019   3.113  12.500  2.9586 -2.3963 -4.3681
  464MOL0     H62606   6.925   3.330  12.575 -0.6017  0.0834 -0.2374
  464MOL0     H62607   7.071   3.360  12.483  0.3826  2.9116 -0.1636
  464MOL0     H62608   6.905   3.385  12.285 -1.6139 -1.0856  0.0124
  464MOL0     H62609   6.775   3.370  12.397  0.2016  0.3110  3.5181
  464MOL0     H62610   6.817   3.605  12.329  0.7643 -0.0034  0.2663
  464MOL0     H62611   6.980   3.609  12.385  0.8801 -2.1312 -0.2371
  464MOL0     H62612   6.907   3.580  12.611 -0.5542 -2.6229 -0.3367
  464MOL0     H62613   6.744   3.530  12.551 -0.9035 -0.9017 -2.4899
  464MOL0     H62614   6.859   3.812  12.518  0.4719  0.6473  2.1377
  464MOL0     H62615   6.702   3.762  12.457 -1.5579 -1.8299 -0.1526
  464MOL0     H62616   6.781   3.753  12.754  0.5757  4.4208  1.6884
  464MOL0     H62617   6.616   3.741  12.690  1.0077  0.2373  7.9319
  464MOL0     H62618   6.806   3.970  12.666 -1.8911 -0.3609 -2.2501
  464MOL0     H62619   6.646   3.967  12.594 -3.7027  0.9738  0.5328
  464MOL0     H62620   6.822   3.149  12.136 -0.8782  0.2400  0.7273
  464MOL0     H62621   6.711   2.927  12.052  0.4227  2.4274 -0.3513
  464MOL0     H62622   6.615   2.584  11.982 -2.1315 -1.2034  0.0456
  464MOL0     H62623   6.502   2.421  11.890 -0.7340 -1.8055 -1.1526
  464MOL0     H62624   6.788   0.683  10.947 -0.4747 -0.4322 -2.8204
  464MOL0     H62625   6.818   0.430  10.942  1.5338  0.4145 -0.7645
  464MOL0     H62626   6.950   0.098  10.548  2.3986  1.5827 -0.0979
  464MOL0     H62627   6.993  -0.120  10.498  1.8659  1.6842 -0.5947
  464MOL0     H62628   6.956  -0.323  10.511 -1.5011 -1.7825  1.2831
  464MOL0     H62629   7.032  -0.476  10.554  1.0606 -0.3417  2.1298
  464MOL0     H62630   7.246  -0.396  10.434 -0.3607 -1.0316 -1.2495
  464MOL0     H62631   7.175  -0.238  10.421 -1.0035 -0.0936 -1.6964
  464MOL0     H62632   6.996  -0.358  10.278 -0.1788  1.1579 -2.0974
  464MOL0     H62633   7.111  -0.499  10.286 -1.9699  0.0929 -1.6960
  464MOL0     H62634   7.176  -0.226  10.146  2.0977  1.1427 -0.3955
  464MOL0     H62635   7.280  -0.351  10.179 -0.6996  0.7986  4.6871
  464MOL0     H62636   7.003  -0.550   9.899 -2.7462  0.2985  2.1292
  464MOL0     H62637   7.131  -0.199  10.893 -0.0441  1.3244  1.5406
  464MOL0     H62638   7.120  -0.042  11.062  0.9057 -0.4696  0.8692
  464MOL0     H62639   7.169   0.105  11.002 -1.9091  2.4887  1.3510
  464MOL0     H62640   7.002   0.090  11.049  0.1428 -2.3127  3.1739
  465MOL0     O62641  10.227  11.224   7.369  0.3385  0.2373 -0.0163
  465MOL0     C62642  10.249  11.336   7.412  0.4223  0.3405  0.6583
  465MOL0     O62643  10.266  11.450   7.330  0.0463  0.0124  0.6697
  465MOL0     C62644  10.277  11.454   7.195 -0.0906 -0.2437 -0.0278
  465MOL0     C62645  10.217  11.556   7.127 -0.2440 -0.0754 -0.0913
  465MOL0     C62646  10.217  11.570   6.990  0.0178  0.2833  0.6809
  465MOL0     C62647  10.286  11.482   6.909  0.1812  0.0687 -0.0677
  465MOL0     O62648  10.305  11.514   6.771  0.1242 -0.1497  0.3517
  465MOL0     C62649  10.373  11.426   6.677  0.4472  1.0330 -0.1953
  465MOL0     C62650  10.373  11.485   6.536  0.1905  0.4149  0.0560
  465MOL0     C62651  10.241  11.516   6.464  0.8293 -0.1585  0.0807
  465MOL0     C62652  10.179  11.377   6.407 -0.5214 -0.2946 -0.2506
  465MOL0     C62653  10.067  11.422   6.307  1.1024  1.6081 -0.1405
  465MOL0     C62654   9.927  11.452   6.374 -0.5306  0.7373 -0.4682
  465MOL0     C62655   9.810  11.459   6.275 -0.3065  0.3501  0.3248
  465MOL0     C62656   9.694  11.533   6.351  0.0418 -0.3480 -0.0006
  465MOL0     N62657   9.571  11.551   6.275  0.4094  0.0929  0.0709
  465MOL0     C62658   9.457  11.462   6.283 -0.4197  0.1615  0.0944
  465MOL0     C62659   9.366  11.526   6.213  0.2172 -0.5993 -0.2248
  465MOL0     C62660   9.230  11.469   6.172 -0.4799 -0.4257 -0.2629
  465MOL0     C62661   9.106  11.538   6.231 -0.3763 -0.6447  0.6804
  465MOL0     C62662   8.996  11.436   6.276  0.4197  0.6537 -0.0511
  465MOL0     C62663   8.890  11.513   6.378 -0.9875  0.3107  0.6761
  465MOL0     O62664   8.975  11.540   6.498  0.2881  0.1405  0.6194
  465MOL0     C62665   8.915  11.553   6.621 -0.2980 -0.1187  0.9760
  465MOL0     C62666   8.991  11.534   6.731 -0.9769  1.0609  0.6660
  465MOL0     C62667   8.937  11.547   6.862  0.2218  0.3106 -0.2875
  465MOL0     C62668   8.802  11.555   6.885 -0.4000  0.1973  0.5842
  465MOL0     C62669   8.740  11.552   7.010  0.0505  0.1125 -0.7828
  465MOL0     O62670   8.829  11.579   7.125  0.4485  0.0887  0.3943
  465MOL0     C62671   8.779  11.616   7.250  0.1004 -0.7733 -0.6753
  465MOL0     C62672   8.645  11.654   7.281  0.4206 -0.1155  0.2121
  465MOL0     C62673   8.604  11.681   7.413  0.3023  0.6710 -0.2543
  465MOL0     C62674   8.691  11.669   7.523  0.3440 -0.1813  0.0509
  465MOL0     O62675   8.631  11.700   7.644  0.8609 -0.3217  0.0398
  465MOL0     C62676   8.722  11.735   7.749  0.8686 -0.1812 -0.1216
  465MOL0     C62677   8.675  11.720   7.894 -0.7270 -0.5998 -0.3976
  465MOL0     C62678   8.558  11.621   7.917 -0.7087 -0.1075  0.8570
  465MOL0     C62679   8.524  11.604   8.066  0.3399 -0.1774  0.4149
  465MOL0     C62680   8.420  11.495   8.098 -0.2418  0.4441 -0.4675
  465MOL0     C62681   8.383  11.493   8.247  0.7676  0.5625 -0.4039
  465MOL0     C62682   8.260  11.402   8.279  0.9404 -0.0341  0.2115
  465MOL0     C62683   8.234  11.409   8.429  0.0523 -0.2281  1.0343
  465MOL0    Cl62684   8.344  11.314   8.516 -0.2920 -0.2516 -0.0476
  465MOL0     C62685   8.824  11.633   7.488  0.0889  0.1971 -0.4025
  465MOL0     C62686   8.869  11.610   7.353 -0.3967 -0.9389  0.1149
  465MOL0     O62687   8.622  11.527   7.014  0.1524 -0.6384 -0.2997
  465MOL0     C62688   8.718  11.565   6.768  0.4033  0.1342 -0.6808
  465MOL0     C62689   8.776  11.566   6.645  1.2650  0.2093 -0.2354
  465MOL0     N62690   9.414  11.647   6.164  0.3086  1.0135  0.0327
  465MOL0     N62691   9.533  11.664   6.206  0.5220  0.1018 -0.5288
  465MOL0     C62692  10.352  11.369   6.971  0.4655 -0.5303  0.2657
  465MOL0     C62693  10.340  11.360   7.116  0.4835 -0.7320 -0.6381
  465MOL0     C62694  10.270  11.363   7.562  0.3681  0.4836  0.7767
  465MOL0     C62695  10.331  11.492   7.601  0.2213 -0.4256  0.3584
  465MOL0     C62696  10.352  11.517   7.737 -0.6339  0.5525 -1.0199
  465MOL0     C62697  10.317  11.433   7.837 -0.1826 -0.2911 -0.8355
  465MOL0     O62698  10.337  11.482   7.964  1.3558  0.0681 -0.0957
  465MOL0     C62699  10.357  11.390   8.072 -0.6856  0.1955  0.1131
  465MOL0     C62700  10.413  11.466   8.185 -0.6245 -0.1317  0.7255
  465MOL0     C62701  10.552  11.519   8.156 -0.7177  0.2000  0.4393
  465MOL0     C62702  10.542  11.668   8.118 -0.2082  0.6230 -0.0745
  465MOL0     C62703  10.650  11.711   8.036 -1.2538 -0.7558 -0.2446
  465MOL0     C62704  10.741  11.753   7.965  0.1735  0.7539 -0.1389
  465MOL0     C62705  10.259  11.314   7.807 -0.6582  0.2441  0.3229
  465MOL0     C62706  10.237  11.272   7.670  0.1571 -0.7265  0.6412
  465MOL0     C62707  10.177  11.138   7.644 -0.3550  0.1239  0.7180
  465MOL0     H62708  10.167  11.628   7.192 -2.9780 -0.5212 -1.5507
  465MOL0     H62709  10.159  11.653   6.951  0.2510  2.0575  3.7487
  465MOL0     H62710  10.475  11.410   6.711 -0.6929 -4.3147  1.7199
  465MOL0     H62711  10.326  11.327   6.677  0.1822  1.1510  0.7419
  465MOL0     H62712  10.433  11.417   6.475 -1.9047 -1.7587  0.2802
  465MOL0     H62713  10.423  11.583   6.538  1.3705 -0.0994 -1.6164
  465MOL0     H62714  10.262  11.579   6.377  0.7438 -1.7493 -1.1510
  465MOL0     H62715  10.181  11.563   6.542  0.4093 -1.8094  0.7992
  465MOL0     H62716  10.248  11.310   6.354 -0.6307 -1.7822  1.3661
  465MOL0     H62717  10.146  11.316   6.493  1.6107  2.0760  2.4479
  465MOL0     H62718  10.092  11.511   6.249 -0.1600  1.0087 -1.6869
  465MOL0     H62719  10.057  11.348   6.226  1.1648  1.5878 -0.1300
  465MOL0     H62720   9.913  11.378   6.454  0.7084  0.6136 -0.3477
  465MOL0     H62721   9.935  11.549   6.424 -2.9677  2.3375 -2.8809
  465MOL0     H62722   9.775  11.358   6.251  0.3579  0.1000  0.3963
  465MOL0     H62723   9.830  11.504   6.177 -1.0617 -3.1054 -1.5703
  465MOL0     H62724   9.670  11.465   6.433  0.5221 -2.7363 -1.7450
  465MOL0     H62725   9.718  11.633   6.389 -0.1418 -0.5774  0.7280
  465MOL0     H62726   9.446  11.360   6.319 -0.2025 -0.9248 -2.6645
  465MOL0     H62727   9.225  11.468   6.063 -0.3232  2.8544 -0.3951
  465MOL0     H62728   9.226  11.362   6.198 -0.3449  0.1686  2.5165
  465MOL0     H62729   9.129  11.608   6.312 -0.8813 -0.9441  1.0840
  465MOL0     H62730   9.059  11.589   6.147  0.9287 -1.0194 -0.3100
  465MOL0     H62731   9.050  11.355   6.326 -2.1993 -1.4813 -0.4483
  465MOL0     H62732   8.926  11.392   6.205  0.7333 -0.6815  0.4361
  465MOL0     H62733   8.806  11.446   6.396  0.5346 -1.5111  1.3086
  465MOL0     H62734   8.835  11.598   6.336 -5.0410 -1.4211  1.9323
  465MOL0     H62735   9.096  11.509   6.715 -0.1662  2.6020  3.0738
  465MOL0     H62736   9.005  11.558   6.946 -0.2725  1.4347 -0.0182
  465MOL0     H62737   8.583  11.685   7.198  1.3765  0.3524 -0.3463
  465MOL0     H62738   8.504  11.713   7.438  0.5564  1.0658  0.2661
  465MOL0     H62739   8.814  11.675   7.752  2.1496  1.7160  0.8447
  465MOL0     H62740   8.760  11.835   7.727  3.5190 -0.8589  1.0145
  465MOL0     H62741   8.758  11.710   7.964 -0.2978  3.5068 -0.0530
  465MOL0     H62742   8.622  11.813   7.916  0.1135 -0.2998  0.4354
  465MOL0     H62743   8.472  11.652   7.857 -1.0492  0.9484  1.8776
  465MOL0     H62744   8.592  11.522   7.884  0.1711  0.3787  0.2582
  465MOL0     H62745   8.487  11.704   8.092 -3.3269  0.5993 -5.7081
  465MOL0     H62746   8.616  11.574   8.118  0.7867 -1.2241 -0.9100
  465MOL0     H62747   8.457  11.397   8.066 -1.2056 -0.4222  0.9510
  465MOL0     H62748   8.327  11.511   8.043 -1.1238 -0.7871  0.6012
  465MOL0     H62749   8.460  11.452   8.314  1.4356 -0.6190 -1.8500
  465MOL0     H62750   8.360  11.596   8.275 -0.5410  0.2171 -0.1395
  465MOL0     H62751   8.276  11.300   8.243  2.0940  0.4403 -0.6919
  465MOL0     H62752   8.177  11.447   8.225  1.8712  1.6263  0.0833
  465MOL0     H62753   8.235  11.515   8.458 -1.1414  0.3013 -0.6864
  465MOL0     H62754   8.142  11.354   8.450  1.0780 -2.3339  0.3141
  465MOL0     H62755   8.901  11.642   7.563 -0.9580  2.5632  0.4694
  465MOL0     H62756   8.967  11.573   7.325 -2.0069 -3.6607 -2.5906
  465MOL0     H62757   8.612  11.585   6.772  0.5848  0.9627  1.1771
  465MOL0     H62758   8.713  11.569   6.557  0.5051  0.6265  0.3124
  465MOL0     H62759  10.410  11.308   6.902  0.2479  0.1776 -0.5595
  465MOL0     H62760  10.377  11.269   7.162  4.1832  0.8793 -0.0493
  465MOL0     H62761  10.365  11.559   7.524 -3.3878  2.7795  1.2676
  465MOL0     H62762  10.410  11.600   7.777  3.6391 -1.0087 -3.3015
  465MOL0     H62763  10.427  11.309   8.052 -0.0329  0.7143  0.2652
  465MOL0     H62764  10.259  11.353   8.105 -1.3483  0.9304 -0.9434
  465MOL0     H62765  10.410  11.386   8.259  0.4805 -2.6562 -1.7842
  465MOL0     H62766  10.346  11.552   8.201  0.0332  0.1107  2.3657
  465MOL0     H62767  10.595  11.453   8.080  0.5338  3.5937 -2.0300
  465MOL0     H62768  10.621  11.506   8.241 -0.9412  0.9791  0.7534
  465MOL0     H62769  10.448  11.679   8.065 -0.3642  1.3718  0.3446
  465MOL0     H62770  10.522  11.732   8.205 -0.7051 -1.6814  1.6090
  465MOL0     H62771  10.813  11.807   7.907 -1.3494  0.5816 -2.3291
  465MOL0     H62772  10.216  11.256   7.888  1.6074 -0.3387  1.1784
  465MOL0     H62773  10.122  11.115   7.736 -1.8215  1.7623  0.3121
  465MOL0     H62774  10.097  11.144   7.571 -1.9770 -2.5596  2.0915
  465MOL0     H62775  10.254  11.068   7.608 -0.4199  1.0175 -1.2423
  466MOL0     O62776   0.955   1.901   1.669 -0.1475 -0.0842 -0.0861
  466MOL0     C62777   0.865   1.813   1.669 -0.0534 -0.8359  0.6709
  466MOL0     O62778   0.891   1.680   1.676 -0.5598 -0.6076 -0.4525
  466MOL0     C62779   1.020   1.643   1.656  0.5947 -0.0249 -0.7473
  466MOL0     C62780   1.085   1.567   1.754 -0.6328 -0.3773  0.6205
  466MOL0     C62781   1.208   1.498   1.716  1.3647 -0.3374 -0.0640
  466MOL0     C62782   1.265   1.501   1.592 -0.0549 -0.3390  0.4889
  466MOL0     O62783   1.387   1.434   1.584  0.0790  0.7929 -0.4815
  466MOL0     C62784   1.468   1.452   1.477 -0.1566 -1.3160 -0.3019
  466MOL0     C62785   1.607   1.386   1.498  0.5773 -0.3815  1.0600
  466MOL0     C62786   1.593   1.233   1.474  0.5073 -0.7027 -0.0504
  466MOL0     C62787   1.714   1.157   1.496 -0.4856 -0.6622 -0.6324
  466MOL0     C62788   1.701   1.019   1.429  0.0448 -0.3381 -0.2108
  466MOL0     C62789   1.831   0.934   1.444 -0.6631  0.2000 -0.4355
  466MOL0     C62790   1.795   0.783   1.448  0.2178  0.8748  0.3163
  466MOL0     C62791   1.854   0.700   1.338  0.1494  0.3061 -0.2936
  466MOL0     N62792   1.801   0.741   1.209 -0.4319 -0.0809 -0.7044
  466MOL0     C62793   1.837   0.854   1.143  0.4698  0.0496 -0.2827
  466MOL0     C62794   1.775   0.848   1.022  0.1615 -0.1133  0.1574
  466MOL0     C62795   1.798   0.927   0.896 -0.0108 -0.7210 -0.3615
  466MOL0     C62796   1.931   0.924   0.830 -0.1453  0.2359  0.1450
  466MOL0     C62797   1.967   1.050   0.761 -0.1513 -0.4784  0.8997
  466MOL0     C62798   1.890   1.089   0.631  0.2473  0.8634  0.1032
  466MOL0     O62799   1.806   1.203   0.632 -0.1148  0.4938 -0.4888
  466MOL0     C62800   1.836   1.300   0.535  0.3372  0.1683 -0.5478
  466MOL0     C62801   1.899   1.419   0.558 -0.1880  0.0614  0.3359
  466MOL0     C62802   1.913   1.513   0.451  0.4654 -0.6576 -0.3904
  466MOL0     C62803   1.866   1.479   0.323 -0.1347  0.2141  0.1234
  466MOL0     C62804   1.857   1.575   0.210 -0.9461  0.9472 -0.7734
  466MOL0     O62805   1.821   1.521   0.086 -0.0131 -0.0407 -0.2126
  466MOL0     C62806   1.789   1.607  -0.011  0.1379 -0.3971  0.4635
  466MOL0     C62807   1.845   1.600  -0.136  0.0544  0.5742 -1.1303
  466MOL0     C62808   1.809   1.676  -0.246 -0.0081 -1.0042 -0.2929
  466MOL0     C62809   1.718   1.778  -0.228 -0.1674  0.2341  0.1363
  466MOL0     O62810   1.706   1.857  -0.346  0.1228 -0.7755  0.1780
  466MOL0     C62811   1.571   1.908  -0.365 -0.4670 -0.0841  0.1528
  466MOL0     C62812   1.557   1.967  -0.500 -0.7217  0.2374  0.3242
  466MOL0     C62813   1.588   1.859  -0.608  0.2851 -0.3311 -0.6481
  466MOL0     C62814   1.666   1.905  -0.731  0.2253  0.2757  0.4113
  466MOL0     C62815   1.671   1.787  -0.828  0.0312  0.0491  1.0118
  466MOL0     C62816   1.715   1.826  -0.965  0.0936 -0.1679  0.3684
  466MOL0     C62817   1.727   1.707  -1.059 -0.1407  0.4753  0.1248
  466MOL0     C62818   1.806   1.724  -1.183 -0.7815  0.0305  0.1494
  466MOL0    Cl62819   1.798   1.577  -1.275  0.1350 -0.2131 -0.1137
  466MOL0     C62820   1.658   1.793  -0.104  0.8777  0.0388  1.2506
  466MOL0     C62821   1.693   1.706   0.009  0.1894 -0.6837  0.6652
  466MOL0     O62822   1.887   1.694   0.233 -0.3187 -0.8964 -0.9462
  466MOL0     C62823   1.807   1.353   0.306  0.2836  0.0104 -0.2034
  466MOL0     C62824   1.789   1.266   0.413  0.0876  0.4905  0.4862
  466MOL0     N62825   1.694   0.738   1.017 -0.8522  0.1171 -0.7661
  466MOL0     N62826   1.732   0.662   1.117  0.4534  0.5209 -0.2533
  466MOL0     C62827   1.201   1.580   1.492  0.6490 -0.6864  0.4788
  466MOL0     C62828   1.071   1.631   1.524 -0.5459 -0.2758  0.0205
  466MOL0     C62829   0.717   1.849   1.662 -0.4837 -0.8555 -0.6151
  466MOL0     C62830   0.647   1.806   1.778 -0.5538  0.2257 -0.3561
  466MOL0     C62831   0.511   1.836   1.798  0.1302  0.3533 -0.1131
  466MOL0     C62832   0.443   1.907   1.696  0.5111 -0.1116  0.9091
  466MOL0     O62833   0.305   1.920   1.700 -0.4886  0.1119 -0.0777
  466MOL0     C62834   0.223   1.991   1.603  0.6469  0.2351 -0.8291
  466MOL0     C62835   0.073   1.979   1.638 -1.2714 -0.0603  0.3939
  466MOL0     C62836   0.021   1.830   1.636 -0.0333 -0.4541 -0.1309
  466MOL0     C62837  -0.132   1.831   1.630  0.0730  0.6265 -0.4922
  466MOL0     C62838  -0.198   1.899   1.740  0.2593 -0.6768  0.2195
  466MOL0     C62839  -0.268   1.961   1.820 -0.1150  1.1999 -0.7699
  466MOL0     C62840   0.520   1.961   1.588 -0.0631  0.0371  0.3170
  466MOL0     C62841   0.659   1.926   1.567 -0.2683  0.1054 -0.7814
  466MOL0     C62842   0.743   1.959   1.451 -0.2235 -0.1713  0.2840
  466MOL0     H62843   1.048   1.563   1.856  1.0048  4.1526  1.6279
  466MOL0     H62844   1.256   1.449   1.800  1.1468  0.0621  0.3000
  466MOL0     H62845   1.418   1.414   1.387 -2.4836 -1.9576  1.1768
  466MOL0     H62846   1.489   1.559   1.476 -1.5014 -0.9402  2.6596
  466MOL0     H62847   1.630   1.415   1.601  0.9628  0.5683  0.7146
  466MOL0     H62848   1.673   1.422   1.419 -3.3360 -0.3648 -2.5818
  466MOL0     H62849   1.553   1.225   1.372  1.1601  0.5014 -0.4174
  466MOL0     H62850   1.514   1.192   1.538  1.1356  3.1161  3.5821
  466MOL0     H62851   1.802   1.200   1.449  0.5152 -2.0238 -0.0912
  466MOL0     H62852   1.736   1.153   1.604 -0.3473  0.2735 -0.6230
  466MOL0     H62853   1.621   0.959   1.472  1.0807 -0.3955  1.7627
  466MOL0     H62854   1.686   1.027   1.321  2.8431 -2.0808 -0.8431
  466MOL0     H62855   1.909   0.955   1.370  0.7229 -1.0801  0.5867
  466MOL0     H62856   1.879   0.958   1.539 -1.5187  1.8279 -0.3757
  466MOL0     H62857   1.691   0.752   1.451  0.7618 -1.1331  3.1789
  466MOL0     H62858   1.843   0.750   1.541  3.0344  0.7266 -1.0815
  466MOL0     H62859   1.961   0.722   1.341  0.6363 -1.8386 -0.4295
  466MOL0     H62860   1.833   0.593   1.354  3.4059 -1.0436 -3.6489
  466MOL0     H62861   1.903   0.931   1.180  1.7761  0.3045 -2.8678
  466MOL0     H62862   1.718   0.901   0.826 -2.9662 -0.4152  2.6441
  466MOL0     H62863   1.779   1.031   0.924 -1.7236  0.1746 -4.1777
  466MOL0     H62864   2.005   0.907   0.909 -0.1880  3.1065  0.9241
  466MOL0     H62865   1.927   0.830   0.774 -2.7800 -1.5160  2.9567
  466MOL0     H62866   2.071   1.047   0.728  0.2595 -1.7048  2.2395
  466MOL0     H62867   1.946   1.121   0.842  0.8176 -2.2108  2.7578
  466MOL0     H62868   1.835   1.005   0.589  0.4618  1.2748 -1.0540
  466MOL0     H62869   1.969   1.116   0.559 -0.9498  0.4495 -1.4251
  466MOL0     H62870   1.929   1.447   0.658  0.9311 -1.0320  0.3295
  466MOL0     H62871   1.960   1.607   0.477  3.3200 -1.3766 -2.4888
  466MOL0     H62872   1.919   1.521  -0.148 -0.4132 -0.0685  0.0348
  466MOL0     H62873   1.865   1.679  -0.339  1.3710 -0.6773  0.5209
  466MOL0     H62874   1.496   1.830  -0.353  0.6479 -1.4088 -1.1461
  466MOL0     H62875   1.540   1.984  -0.293 -2.8330 -3.3748  2.9456
  466MOL0     H62876   1.456   2.008  -0.510  0.2861  2.6170 -0.6666
  466MOL0     H62877   1.635   2.043  -0.509  3.0953 -3.4990 -2.8352
  466MOL0     H62878   1.643   1.772  -0.572 -2.3979 -2.5955 -1.7348
  466MOL0     H62879   1.493   1.814  -0.637  0.6945 -3.3549  2.1922
  466MOL0     H62880   1.765   1.941  -0.703 -1.3319  3.6678  2.1649
  466MOL0     H62881   1.611   1.988  -0.777  0.0847 -1.6244 -3.1607
  466MOL0     H62882   1.576   1.734  -0.843 -0.0309  0.4818 -0.2116
  466MOL0     H62883   1.750   1.723  -0.789  0.0172  1.1666  3.0593
  466MOL0     H62884   1.635   1.891  -1.000  1.4190  2.0845  1.3271
  466MOL0     H62885   1.807   1.885  -0.961  0.2794 -0.5356  2.1122
  466MOL0     H62886   1.625   1.674  -1.080 -0.1849 -2.0492  3.3662
  466MOL0     H62887   1.778   1.630  -1.000  2.5040  0.8925 -1.4475
  466MOL0     H62888   1.750   1.804  -1.233 -0.8686  1.4079  2.3274
  466MOL0     H62889   1.910   1.752  -1.163  1.0084 -4.7080 -1.0765
  466MOL0     H62890   1.588   1.873  -0.084  1.8483  0.6887  2.1655
  466MOL0     H62891   1.650   1.717   0.108  0.1422 -0.2848  0.6049
  466MOL0     H62892   1.770   1.326   0.207 -1.6059 -1.4738  0.8447
  466MOL0     H62893   1.756   1.163   0.403  0.2747  0.6440 -2.8257
  466MOL0     H62894   1.234   1.586   1.388  0.3698  6.5970  0.3244
  466MOL0     H62895   0.999   1.675   1.456 -1.5450  0.9380  1.7765
  466MOL0     H62896   0.696   1.735   1.844 -1.4134  0.7853  0.9275
  466MOL0     H62897   0.456   1.792   1.880  2.3975 -2.6517 -0.0295
  466MOL0     H62898   0.246   1.959   1.501 -0.8071 -0.8300 -0.8610
  466MOL0     H62899   0.253   2.096   1.600  0.9340  0.1353 -1.9188
  466MOL0     H62900   0.013   2.029   1.561  0.0855 -0.9900 -1.3212
  466MOL0     H62901   0.062   2.036   1.731  0.1002 -0.1450  0.6272
  466MOL0     H62902   0.063   1.785   1.727  1.4351 -2.2342 -1.6287
  466MOL0     H62903   0.063   1.776   1.551 -1.6292  1.0782 -1.9890
  466MOL0     H62904  -0.170   1.895   1.549 -3.6482 -1.8453 -0.9871
  466MOL0     H62905  -0.187   1.736   1.626 -5.4766  3.4347 -0.4504
  466MOL0     H62906  -0.315   2.029   1.887 -2.3090 -1.7469  0.8711
  466MOL0     H62907   0.465   2.019   1.514  0.9597  0.5413 -0.0552
  466MOL0     H62908   0.686   2.014   1.376  0.8550 -0.6265 -0.8970
  466MOL0     H62909   0.823   2.018   1.496  3.0077 -3.2994 -0.9402
  466MOL0     H62910   0.790   1.872   1.405  0.7430  0.0678  0.7947
  467MOL0     O62911   8.753   8.906   9.443  0.0926  0.6819  0.9634
  467MOL0     C62912   8.804   8.920   9.327 -0.4015  0.4884 -0.4279
  467MOL0     O62913   8.925   8.878   9.289  0.0490 -0.0146  0.3420
  467MOL0     C62914   9.003   8.786   9.374  0.6958 -1.5210  0.0192
  467MOL0     C62915   9.077   8.850   9.472  0.7331  0.3974 -0.4446
  467MOL0     C62916   9.168   8.773   9.555  0.2293  0.7911  0.8780
  467MOL0     C62917   9.168   8.632   9.537  0.0958  0.2191 -0.4517
  467MOL0     O62918   9.231   8.538   9.611 -1.3289 -0.3804  0.0670
  467MOL0     C62919   9.285   8.586   9.735 -0.9952 -0.3790 -0.4366
  467MOL0     C62920   9.171   8.595   9.838 -1.0097  0.5195  0.1540
  467MOL0     C62921   9.089   8.466   9.861  0.0215  0.4083 -0.3987
  467MOL0     C62922   9.166   8.372   9.959  0.5484  0.3799  0.9777
  467MOL0     C62923   9.204   8.437  10.092  0.4505  1.8277  0.3508
  467MOL0     C62924   9.263   8.323  10.186  0.3963 -0.2284  0.1177
  467MOL0     C62925   9.244   8.361  10.336 -0.0494 -0.0630 -0.5254
  467MOL0     C62926   9.127   8.304  10.409  0.8859  0.2274 -0.5070
  467MOL0     N62927   9.126   8.362  10.543 -0.0560 -0.8309  0.2831
  467MOL0     C62928   9.186   8.328  10.663 -0.3971 -0.2149  0.5509
  467MOL0     C62929   9.141   8.408  10.760 -0.5994  0.1870 -0.4005
  467MOL0     C62930   9.188   8.417  10.906 -0.3511 -0.0394 -0.5854
  467MOL0     C62931   9.242   8.286  10.961 -1.2102  1.1870  0.0781
  467MOL0     C62932   9.281   8.293  11.111 -0.6690  0.8902 -0.6543
  467MOL0     C62933   9.351   8.164  11.164 -0.0180 -1.1465 -1.2968
  467MOL0     O62934   9.253   8.098  11.251  0.3174  0.0008 -0.2669
  467MOL0     C62935   9.281   7.990  11.331 -0.0663 -0.8120  0.4058
  467MOL0     C62936   9.170   7.923  11.389  0.1776  0.0166 -0.5053
  467MOL0     C62937   9.190   7.831  11.492 -0.2767 -0.3254  0.7673
  467MOL0     C62938   9.320   7.784  11.518  0.7773  0.3173  0.2325
  467MOL0     C62939   9.344   7.663  11.609 -1.4591 -0.3039 -0.1844
  467MOL0     O62940   9.477   7.622  11.607 -0.4174 -0.2909 -0.0962
  467MOL0     C62941   9.526   7.515  11.689  0.2086 -0.1789 -0.0113
  467MOL0     C62942   9.452   7.451  11.792  0.8385 -0.0831 -0.2556
  467MOL0     C62943   9.501   7.341  11.869  0.6367 -0.4548 -0.6798
  467MOL0     C62944   9.631   7.285  11.835 -0.7793  0.8072 -0.3329
  467MOL0     O62945   9.696   7.186  11.908 -0.4446  0.3474  0.3909
  467MOL0     C62946   9.610   7.102  11.996 -0.8123 -0.4438  0.7440
  467MOL0     C62947   9.677   6.966  12.030  0.4789  0.4317  1.1996
  467MOL0     C62948   9.825   6.974  12.074  0.1505  0.5137 -0.1018
  467MOL0     C62949   9.834   6.892  12.203  0.4098 -0.6433  0.3793
  467MOL0     C62950   9.973   6.853  12.252  0.3636  1.2717  0.2554
  467MOL0     C62951  10.046   6.753  12.164  0.3465  0.1492  0.3557
  467MOL0     C62952   9.971   6.623  12.130  0.5567 -0.8980 -0.5339
  467MOL0     C62953  10.064   6.508  12.073  0.1321 -0.1651  0.2035
  467MOL0    Cl62954  10.193   6.457  12.198 -0.1532  0.3941 -0.3902
  467MOL0     C62955   9.706   7.362  11.740 -0.1490  0.6514  1.1423
  467MOL0     C62956   9.660   7.466  11.670  0.1283  0.0608  0.5756
  467MOL0     O62957   9.253   7.625  11.685 -0.3658 -0.1846 -0.0332
  467MOL0     C62958   9.429   7.837  11.439 -0.3790 -1.0093 -0.5246
  467MOL0     C62959   9.410   7.940  11.352  0.2772 -0.1343 -0.1973
  467MOL0     N62960   9.060   8.497  10.703  0.3476 -0.8756 -0.2083
  467MOL0     N62961   9.047   8.465  10.573 -0.4764 -0.1688  0.3548
  467MOL0     C62962   9.093   8.582   9.427 -0.8515  0.2176 -0.5014
  467MOL0     C62963   9.010   8.657   9.347  0.3552 -0.1425  0.8861
  467MOL0     C62964   8.727   8.999   9.220  0.6583  1.3943  0.6653
  467MOL0     C62965   8.795   9.084   9.130  0.0758 -0.4806 -0.0380
  467MOL0     C62966   8.722   9.166   9.042  0.1518  0.1437  0.4329
  467MOL0     C62967   8.587   9.155   9.027 -0.1954 -0.8021 -0.6140
  467MOL0     O62968   8.527   9.209   8.919 -0.6108 -0.4508 -0.0820
  467MOL0     C62969   8.596   9.200   8.795  0.3500 -0.2760  0.8407
  467MOL0     C62970   8.682   9.326   8.777 -0.2427  0.7378 -0.4612
  467MOL0     C62971   8.798   9.302   8.681 -0.0098 -0.9190 -1.1428
  467MOL0     C62972   8.746   9.297   8.533 -0.7235 -0.2130 -0.4442
  467MOL0     C62973   8.710   9.159   8.489 -0.4649 -0.3922 -1.1696
  467MOL0     C62974   8.659   9.056   8.473 -0.0251 -0.0545 -0.5072
  467MOL0     C62975   8.515   9.074   9.123  0.5203  0.3134 -0.7718
  467MOL0     C62976   8.582   9.009   9.223  0.1112 -0.2592  0.5113
  467MOL0     C62977   8.493   8.958   9.337  0.0611  0.9950  0.6940
  467MOL0     H62978   9.059   8.957   9.478  0.8460  0.3606  0.7726
  467MOL0     H62979   9.220   8.825   9.634 -3.4591  3.5111  1.8123
  467MOL0     H62980   9.352   8.506   9.769  0.7847  0.4765 -1.7920
  467MOL0     H62981   9.350   8.674   9.731 -0.0553 -1.0845 -1.3970
  467MOL0     H62982   9.103   8.672   9.799  2.6923  3.2563 -1.4300
  467MOL0     H62983   9.206   8.644   9.929  0.6941  1.8226 -1.1327
  467MOL0     H62984   9.058   8.422   9.765  3.0110 -2.4796 -0.2032
  467MOL0     H62985   8.993   8.496   9.905 -0.1504 -1.3649  0.5154
  467MOL0     H62986   9.115   8.276   9.966 -1.0367  0.8576 -2.2751
  467MOL0     H62987   9.262   8.343   9.914 -0.6894 -0.3993 -1.3097
  467MOL0     H62988   9.284   8.511  10.094  1.0372  1.3450 -2.1008
  467MOL0     H62989   9.116   8.479  10.143  0.5188 -0.2623  2.3584
  467MOL0     H62990   9.203   8.232  10.178 -1.3948  0.8340  0.8989
  467MOL0     H62991   9.369   8.302  10.171  0.4366 -2.1234  2.4245
  467MOL0     H62992   9.252   8.470  10.336 -1.1201  0.0358 -2.1709
  467MOL0     H62993   9.323   8.310  10.392  0.9818  1.5496 -0.4518
  467MOL0     H62994   9.034   8.328  10.355  1.0019  1.9577  0.0249
  467MOL0     H62995   9.122   8.195  10.410 -1.1281  0.2471 -1.7885
  467MOL0     H62996   9.275   8.265  10.668 -0.2928 -0.1623 -0.3124
  467MOL0     H62997   9.266   8.494  10.909 -0.9665  0.6150 -0.9823
  467MOL0     H62998   9.107   8.462  10.965  0.2038 -1.0455  1.0227
  467MOL0     H62999   9.172   8.206  10.933 -1.3290  1.6356 -0.9194
  467MOL0     H63000   9.337   8.255  10.917 -1.3558  0.4823  0.2411
  467MOL0     H63001   9.202   8.318  11.183  1.2869  1.8035  1.3108
  467MOL0     H63002   9.341   8.384  11.125  0.9973 -0.5255  2.3590
  467MOL0     H63003   9.441   8.186  11.223  0.6875  3.5659 -3.6460
  467MOL0     H63004   9.376   8.079  11.101  1.4448 -1.7959  0.0832
  467MOL0     H63005   9.071   7.961  11.366  0.6016  0.1083 -2.2695
  467MOL0     H63006   9.112   7.798  11.561 -0.4605  0.7148  1.0773
  467MOL0     H63007   9.354   7.478  11.830  2.2594  2.7593  1.6713
  467MOL0     H63008   9.434   7.300  11.944  1.2902  2.6089  1.7789
  467MOL0     H63009   9.598   7.155  12.091  0.2337 -1.3236  1.3891
  467MOL0     H63010   9.511   7.081  11.954 -0.7993 -1.4071  1.1677
  467MOL0     H63011   9.608   6.915  12.098 -3.5714  1.6446 -1.5455
  467MOL0     H63012   9.673   6.908  11.938  1.4914  1.7729  0.2630
  467MOL0     H63013   9.882   6.920  11.998 -3.7751 -0.6821 -2.5167
  467MOL0     H63014   9.859   7.077  12.077  0.2053  0.5334 -1.0590
  467MOL0     H63015   9.760   6.811  12.204 -0.3318  0.0245  0.8906
  467MOL0     H63016   9.796   6.959  12.281 -0.7281  0.1316 -0.7941
  467MOL0     H63017   9.954   6.797  12.343 -2.5969 -1.4012 -1.7874
  467MOL0     H63018  10.030   6.943  12.277 -1.6510  2.0742  2.3694
  467MOL0     H63019  10.067   6.803  12.069  1.1670  2.5101  1.6970
  467MOL0     H63020  10.141   6.722  12.207  0.4605 -0.0346 -0.0227
  467MOL0     H63021   9.889   6.648  12.063  0.3511  1.6364  0.5423
  467MOL0     H63022   9.925   6.583  12.221  0.9795 -1.0414 -0.3761
  467MOL0     H63023   9.993   6.429  12.048 -1.3504  0.9921  0.5744
  467MOL0     H63024  10.122   6.536  11.985  0.4436 -0.7164  0.2333
  467MOL0     H63025   9.811   7.336  11.728 -0.1094  0.9310  0.8728
  467MOL0     H63026   9.724   7.523  11.603  1.8834 -2.3258  0.0738
  467MOL0     H63027   9.532   7.808  11.460 -0.3120 -2.0792 -2.1430
  467MOL0     H63028   9.493   7.976  11.293  1.8630  0.0020  1.9954
  467MOL0     H63029   9.082   8.477   9.401  1.9803  0.0154 -1.1935
  467MOL0     H63030   8.943   8.608   9.277 -0.2687  0.1988  1.2365
  467MOL0     H63031   8.902   9.091   9.110  0.2531 -0.4908  0.8979
  467MOL0     H63032   8.791   9.221   8.979 -0.3212  0.2177 -0.0207
  467MOL0     H63033   8.529   9.199   8.709  3.9598 -1.6869 -2.2396
  467MOL0     H63034   8.651   9.105   8.792  3.3274  1.3310  1.0235
  467MOL0     H63035   8.713   9.357   8.877 -0.8875 -0.4380  0.1214
  467MOL0     H63036   8.625   9.412   8.742  0.3172  0.0031 -3.4657
  467MOL0     H63037   8.855   9.213   8.712  0.8398 -0.2976 -0.8692
  467MOL0     H63038   8.863   9.390   8.690  0.2108 -1.2622  1.3237
  467MOL0     H63039   8.665   9.369   8.517 -1.8725 -0.2377  3.8515
  467MOL0     H63040   8.827   9.327   8.466 -0.3048 -2.7564 -1.2005
  467MOL0     H63041   8.621   8.956   8.461  4.3822 -1.8408 -1.6899
  467MOL0     H63042   8.408   9.066   9.113  0.2119  3.4081 -1.0291
  467MOL0     H63043   8.502   9.025   9.423 -3.8044  2.4016  0.2256
  467MOL0     H63044   8.385   8.968   9.322  0.0444  1.5698  1.1826
  467MOL0     H63045   8.510   8.854   9.367  0.6364  0.6124 -0.8605
  468MOL0     O63046   8.019   5.437   3.198 -0.2376 -0.9392  0.0210
  468MOL0     C63047   7.976   5.342   3.264  0.8486 -0.9825 -0.3378
  468MOL0     O63048   7.973   5.331   3.399 -0.0293 -0.2161 -0.4764
  468MOL0     C63049   8.041   5.421   3.492  0.5285 -0.4970 -0.0717
  468MOL0     C63050   8.113   5.536   3.455  0.4416 -0.4954 -0.5534
  468MOL0     C63051   8.177   5.618   3.551 -0.2466  0.2547  0.1069
  468MOL0     C63052   8.147   5.595   3.683  0.5464  0.5638 -0.5989
  468MOL0     O63053   8.184   5.675   3.786  0.1071  0.0721  0.3596
  468MOL0     C63054   8.292   5.771   3.774  0.1507  0.2887  0.3418
  468MOL0     C63055   8.305   5.836   3.912 -0.5382 -0.5081  0.1463
  468MOL0     C63056   8.443   5.899   3.932  0.5046  0.4267 -0.2018
  468MOL0     C63057   8.448   5.987   4.058  0.9973 -0.0099 -0.4781
  468MOL0     C63058   8.578   6.070   4.092  0.3849  0.8786  0.0974
  468MOL0     C63059   8.598   6.178   3.975 -0.8022  0.5153 -0.0056
  468MOL0     C63060   8.478   6.263   3.950  0.4482  0.3028 -0.4739
  468MOL0     C63061   8.530   6.396   3.884 -0.4997  0.7093  1.3244
  468MOL0     N63062   8.412   6.474   3.851 -0.5660  0.0771 -0.3303
  468MOL0     C63063   8.366   6.480   3.727  0.5851 -0.9618  0.2024
  468MOL0     C63064   8.294   6.601   3.730  0.3577 -0.1897 -0.2042
  468MOL0     C63065   8.208   6.668   3.625  0.7132 -0.5098  0.2225
  468MOL0     C63066   8.199   6.602   3.486 -0.0214 -0.7706  0.3687
  468MOL0     C63067   8.295   6.665   3.385 -0.1266 -0.5069  0.4169
  468MOL0     C63068   8.422   6.577   3.380 -0.2472  0.4484 -0.1408
  468MOL0     O63069   8.526   6.617   3.481 -0.1413  0.4743  0.7325
  468MOL0     C63070   8.611   6.719   3.463  0.4526  0.5264 -0.2520
  468MOL0     C63071   8.669   6.756   3.578 -0.3837 -0.9675 -0.3684
  468MOL0     C63072   8.748   6.873   3.581  1.9148  0.8005 -0.3330
  468MOL0     C63073   8.760   6.947   3.461 -0.4903 -0.0443 -0.2374
  468MOL0     C63074   8.830   7.073   3.466 -1.3722 -0.4444  0.1111
  468MOL0     O63075   8.814   7.161   3.364  0.4596 -1.3384 -0.5343
  468MOL0     C63076   8.844   7.293   3.386  0.0257 -0.3003  0.9116
  468MOL0     C63077   8.799   7.367   3.500  0.3158 -1.4457  0.4658
  468MOL0     C63078   8.828   7.509   3.507  0.3941 -0.7216  0.4264
  468MOL0     C63079   8.878   7.578   3.395  1.7035  1.1467 -1.1155
  468MOL0     O63080   8.894   7.713   3.382 -0.1162  0.4017 -0.6118
  468MOL0     C63081   8.782   7.787   3.427  0.2412  1.3037 -0.1210
  468MOL0     C63082   8.786   7.832   3.568 -0.0089 -0.4645  0.6939
  468MOL0     C63083   8.674   7.940   3.597  0.1392 -0.1097 -0.6365
  468MOL0     C63084   8.537   7.913   3.539 -0.1742 -0.7714  0.2501
  468MOL0     C63085   8.438   8.042   3.554  0.6768 -0.3592 -0.0872
  468MOL0     C63086   8.298   8.017   3.481 -0.7195 -0.0900  0.0506
  468MOL0     C63087   8.187   8.126   3.481  0.5379  0.7881 -0.5764
  468MOL0     C63088   8.235   8.261   3.415 -0.1734  0.2168  0.2837
  468MOL0    Cl63089   8.246   8.219   3.246  0.2115 -0.5544  0.0139
  468MOL0     C63090   8.918   7.501   3.287  0.8343  0.1745 -0.5815
  468MOL0     C63091   8.902   7.363   3.277  0.2248 -0.0340  0.9142
  468MOL0     O63092   8.904   7.097   3.562 -0.0658 -0.6384 -0.6252
  468MOL0     C63093   8.686   6.913   3.345  0.4158 -0.5224  0.2671
  468MOL0     C63094   8.612   6.793   3.342  0.8970 -0.0488 -0.9252
  468MOL0     N63095   8.290   6.635   3.859 -0.2591 -0.3164  0.7396
  468MOL0     N63096   8.359   6.553   3.936  1.1460  0.1697  0.2121
  468MOL0     C63097   8.066   5.488   3.723  0.5272  0.9832 -0.0005
  468MOL0     C63098   8.009   5.405   3.630 -0.6824  0.9834 -0.5891
  468MOL0     C63099   7.914   5.227   3.183 -0.7347  0.0723 -0.0860
  468MOL0     C63100   7.894   5.108   3.253  0.1897 -0.4309 -0.3272
  468MOL0     C63101   7.843   4.998   3.186 -0.1781  0.3085 -0.6012
  468MOL0     C63102   7.821   4.993   3.049  0.2284 -0.4201  0.0279
  468MOL0     O63103   7.778   4.875   2.993  0.8641  0.5411  0.2714
  468MOL0     C63104   7.740   4.861   2.854 -0.7677 -0.7182 -0.3268
  468MOL0     C63105   7.657   4.739   2.835 -0.4516  1.1613 -1.2892
  468MOL0     C63106   7.649   4.678   2.696 -0.5732 -0.1700  0.7134
  468MOL0     C63107   7.540   4.571   2.688 -0.3653  0.1492  0.1007
  468MOL0     C63108   7.408   4.620   2.651  0.3850  0.4107 -0.2657
  468MOL0     C63109   7.303   4.662   2.613  0.0069 -0.1456 -0.4489
  468MOL0     C63110   7.839   5.111   2.977  0.9361 -0.5768 -0.1531
  468MOL0     C63111   7.885   5.239   3.041  0.0002  0.6367 -0.5990
  468MOL0     C63112   7.898   5.371   2.956  0.5762  0.6294 -0.2596
  468MOL0     H63113   8.141   5.558   3.353  2.7675  3.9017  0.7562
  468MOL0     H63114   8.237   5.701   3.516 -0.4837 -1.0971 -4.0751
  468MOL0     H63115   8.389   5.734   3.738  0.6552  0.0285  1.9145
  468MOL0     H63116   8.277   5.852   3.702  0.6830 -0.8777 -1.1523
  468MOL0     H63117   8.271   5.772   3.995  0.3399  0.8336  1.6011
  468MOL0     H63118   8.233   5.914   3.887 -0.6335 -1.5132 -3.1545
  468MOL0     H63119   8.467   5.965   3.848  1.7225 -1.4844 -1.4355
  468MOL0     H63120   8.529   5.831   3.938  1.1771  1.3172  4.7572
  468MOL0     H63121   8.362   6.055   4.048  1.2133  0.5267  1.0576
  468MOL0     H63122   8.418   5.927   4.144 -2.6704  2.9709  0.6017
  468MOL0     H63123   8.569   6.119   4.190  3.4245 -1.6776  1.8455
  468MOL0     H63124   8.667   6.008   4.107  0.8319  1.2008 -1.0490
  468MOL0     H63125   8.683   6.242   4.000 -3.6040  3.7667  2.1474
  468MOL0     H63126   8.603   6.122   3.881 -2.5235 -1.7969  1.1773
  468MOL0     H63127   8.429   6.291   4.044 -0.0151 -1.6750 -0.0778
  468MOL0     H63128   8.395   6.222   3.892 -1.7022  5.3507 -1.4961
  468MOL0     H63129   8.601   6.460   3.937  1.5910  0.5593 -1.0946
  468MOL0     H63130   8.591   6.371   3.797  1.6053  0.2255  2.8691
  468MOL0     H63131   8.387   6.421   3.638 -1.0227 -3.1386  1.1547
  468MOL0     H63132   8.106   6.646   3.656  0.6587  1.2200  1.4110
  468MOL0     H63133   8.214   6.778   3.630 -0.1262 -0.3474 -1.6850
  468MOL0     H63134   8.217   6.496   3.504 -0.1978 -1.0283 -0.8958
  468MOL0     H63135   8.097   6.605   3.447  0.9126  4.1817 -2.5265
  468MOL0     H63136   8.317   6.770   3.406 -4.3228  0.3987  1.1983
  468MOL0     H63137   8.247   6.658   3.287  1.9267  3.8719 -1.1411
  468MOL0     H63138   8.463   6.597   3.280 -0.5756  2.5367  0.1139
  468MOL0     H63139   8.397   6.471   3.388 -0.4635  0.3138 -2.0365
  468MOL0     H63140   8.663   6.700   3.671  1.7003  0.4942  0.7253
  468MOL0     H63141   8.807   6.900   3.668  0.8040 -2.1209  1.4538
  468MOL0     H63142   8.727   7.329   3.572 -0.5422 -1.1771 -0.2172
  468MOL0     H63143   8.806   7.551   3.605  1.2870 -0.5301  0.5527
  468MOL0     H63144   8.771   7.880   3.370  1.9840  2.5887  1.5526
  468MOL0     H63145   8.693   7.725   3.411  1.3909 -0.1545 -1.1098
  468MOL0     H63146   8.772   7.750   3.639  0.9165  0.0372  1.4861
  468MOL0     H63147   8.883   7.881   3.578  0.3669 -1.2925  1.1278
  468MOL0     H63148   8.667   7.947   3.706  1.4216 -0.1659 -0.5297
  468MOL0     H63149   8.694   8.041   3.561 -1.1628  0.4686  0.1859
  468MOL0     H63150   8.496   7.821   3.581 -0.0939 -0.3428  1.3050
  468MOL0     H63151   8.557   7.906   3.432  2.1153  2.4076  0.3122
  468MOL0     H63152   8.499   8.123   3.513  3.6805 -2.5215 -0.2248
  468MOL0     H63153   8.426   8.062   3.660 -0.0875 -2.7182  0.3386
  468MOL0     H63154   8.324   7.993   3.378  1.4114  2.1189 -0.0170
  468MOL0     H63155   8.262   7.929   3.536 -0.4076  0.4006  1.0625
  468MOL0     H63156   8.155   8.141   3.584 -2.6802  0.0711 -1.3657
  468MOL0     H63157   8.100   8.088   3.426  1.6545 -0.9496 -1.2240
  468MOL0     H63158   8.169   8.345   3.438  0.4858  0.8187  0.0137
  468MOL0     H63159   8.332   8.293   3.454  0.2183  1.4582 -1.5909
  468MOL0     H63160   8.967   7.552   3.205 -0.0955  0.1909 -1.1327
  468MOL0     H63161   8.935   7.296   3.199  1.2556 -1.5241  2.5509
  468MOL0     H63162   8.672   6.985   3.265  3.3602  0.0050  0.1131
  468MOL0     H63163   8.555   6.768   3.253  1.6549 -2.9477 -0.6958
  468MOL0     H63164   8.028   5.474   3.824 -2.9737  2.6881 -0.9043
  468MOL0     H63165   7.947   5.318   3.649  1.3136  0.3169  5.1900
  468MOL0     H63166   7.903   5.094   3.360 -2.5520  1.8587  0.3020
  468MOL0     H63167   7.831   4.900   3.231  1.6168  0.2462 -0.1757
  468MOL0     H63168   7.826   4.859   2.786 -0.7868 -1.2839 -0.3385
  468MOL0     H63169   7.684   4.950   2.824  2.4654  1.4379 -0.4293
  468MOL0     H63170   7.557   4.771   2.865 -0.0024  1.2806  0.1375
  468MOL0     H63171   7.699   4.668   2.906 -2.1659  1.3939  0.0286
  468MOL0     H63172   7.741   4.641   2.651 -1.2961 -1.4674  0.2498
  468MOL0     H63173   7.631   4.764   2.630  1.2079  0.6320  1.1992
  468MOL0     H63174   7.566   4.498   2.611  0.5739  0.9959 -0.4092
  468MOL0     H63175   7.536   4.504   2.775 -2.1418  1.2343  0.8943
  468MOL0     H63176   7.204   4.693   2.587  0.7529  0.2077 -3.2556
  468MOL0     H63177   7.809   5.120   2.873 -1.1250 -1.4388  0.3218
  468MOL0     H63178   7.854   5.457   3.007 -0.7292  1.1754 -2.2189
  468MOL0     H63179   8.001   5.398   2.930  0.0432  1.8281 -1.2428
  468MOL0     H63180   7.854   5.372   2.856  2.0169  1.2933 -0.9145
  469MOL0     O63181   6.696   4.837   6.748  0.0968 -1.1642  0.4951
  469MOL0     C63182   6.810   4.887   6.768 -0.4721  0.0108  0.4421
  469MOL0     O63183   6.844   5.021   6.752 -0.1437  0.3520  0.1477
  469MOL0     C63184   6.768   5.129   6.780 -0.4696 -0.0764  0.5857
  469MOL0     C63185   6.812   5.257   6.735  0.7611  0.0700  0.8075
  469MOL0     C63186   6.740   5.373   6.765 -0.2910 -0.1162  0.1168
  469MOL0     C63187   6.618   5.372   6.827 -0.1391  0.9904  0.2670
  469MOL0     O63188   6.552   5.487   6.838 -0.9395 -0.9188 -0.4321
  469MOL0     C63189   6.431   5.484   6.915  0.7740 -0.0458 -0.1135
  469MOL0     C63190   6.304   5.443   6.833 -0.5264  0.2059 -0.8913
  469MOL0     C63191   6.185   5.417   6.927  0.0722  1.0358 -0.1838
  469MOL0     C63192   6.179   5.276   6.959  0.0692  0.6242  0.9174
  469MOL0     C63193   6.046   5.241   7.040 -0.8099  0.8676 -0.0658
  469MOL0     C63194   6.034   5.095   7.056 -0.1892  0.3363  0.0525
  469MOL0     C63195   5.911   5.070   7.147 -0.1412  0.9221 -0.0976
  469MOL0     C63196   5.919   4.922   7.198 -0.2555 -0.1195  0.1631
  469MOL0     N63197   5.806   4.901   7.294 -0.6212  0.0793  0.0090
  469MOL0     C63198   5.785   4.973   7.408  0.6552 -0.3398 -0.1121
  469MOL0     C63199   5.675   4.909   7.460 -0.2023 -0.6533  0.0468
  469MOL0     C63200   5.631   4.953   7.599 -1.0380 -0.2181  0.7437
  469MOL0     C63201   5.532   5.072   7.589  0.6652  0.1093 -0.9708
  469MOL0     C63202   5.544   5.169   7.707  0.1826 -0.7310  0.2188
  469MOL0     C63203   5.443   5.283   7.683  0.2491 -0.8428 -0.1075
  469MOL0     O63204   5.429   5.352   7.806 -0.5781 -0.5300 -0.5376
  469MOL0     C63205   5.300   5.331   7.853 -0.0518  0.1187  1.0339
  469MOL0     C63206   5.288   5.237   7.959 -0.0077  0.3821  0.4668
  469MOL0     C63207   5.169   5.224   8.030  0.1253 -0.0148 -0.9175
  469MOL0     C63208   5.055   5.299   7.986 -0.0288 -0.3612 -0.4715
  469MOL0     C63209   4.924   5.272   8.053  0.2001 -1.0124  0.8732
  469MOL0     O63210   4.820   5.353   8.017 -0.0590 -0.9045 -0.6627
  469MOL0     C63211   4.715   5.373   8.108 -1.2895 -0.3421  0.1904
  469MOL0     C63212   4.725   5.432   8.235 -0.4952  0.1695  0.0761
  469MOL0     C63213   4.610   5.464   8.306  0.2740  0.2954 -0.0781
  469MOL0     C63214   4.494   5.395   8.260 -0.1199 -0.4291 -0.6061
  469MOL0     O63215   4.380   5.394   8.329 -0.0522  0.3832  0.1207
  469MOL0     C63216   4.375   5.427   8.467 -1.0587 -0.5115  0.3253
  469MOL0     C63217   4.246   5.373   8.526  1.1598  0.8078  0.5388
  469MOL0     C63218   4.248   5.217   8.534 -0.7055 -0.8018 -0.1038
  469MOL0     C63219   4.112   5.151   8.571 -0.1873  0.6021 -0.4157
  469MOL0     C63220   4.058   5.165   8.713 -0.1273 -0.0626 -0.5158
  469MOL0     C63221   4.004   5.044   8.779  0.2687 -0.4206  0.5963
  469MOL0     C63222   3.990   5.054   8.931  0.9048 -0.4695 -0.2699
  469MOL0     C63223   3.876   5.154   8.959  0.0691 -0.0061  1.1862
  469MOL0    Cl63224   3.859   5.175   9.134 -0.7808 -0.2900 -0.2329
  469MOL0     C63225   4.489   5.325   8.150  0.2379 -0.2520  0.6091
  469MOL0     C63226   4.594   5.318   8.069  0.6084 -0.7054 -0.3440
  469MOL0     O63227   4.917   5.189   8.146 -0.8477  0.3043  0.1106
  469MOL0     C63228   5.072   5.401   7.881  0.7022  0.4221  0.4914
  469MOL0     C63229   5.200   5.419   7.824 -0.0418 -1.5029 -0.0727
  469MOL0     N63230   5.632   4.811   7.381  0.1965  0.2323  0.4595
  469MOL0     N63231   5.705   4.812   7.277 -0.0191  0.2636  0.1888
  469MOL0     C63232   6.578   5.247   6.872  1.1154  0.7797  0.8482
  469MOL0     C63233   6.654   5.129   6.859 -0.5390  0.3949 -0.6738
  469MOL0     C63234   6.927   4.791   6.803 -0.2398  0.1981 -0.6079
  469MOL0     C63235   7.055   4.852   6.828  0.3622  0.0963  0.0928
  469MOL0     C63236   7.168   4.780   6.852 -0.5217  0.4401 -0.2303
  469MOL0     C63237   7.166   4.646   6.849 -0.3981  0.2605  0.7545
  469MOL0     O63238   7.294   4.591   6.879  0.3286 -0.9589  0.2471
  469MOL0     C63239   7.317   4.453   6.847 -0.1604  0.3087 -0.1950
  469MOL0     C63240   7.461   4.415   6.793 -0.8428 -0.6832 -0.0872
  469MOL0     C63241   7.521   4.538   6.705 -0.5381 -0.0247  0.5370
  469MOL0     C63242   7.658   4.506   6.635  0.5794 -0.4109  0.0049
  469MOL0     C63243   7.628   4.420   6.523  0.5677  0.7337  0.3884
  469MOL0     C63244   7.613   4.349   6.422  0.4183  0.3432 -0.3052
  469MOL0     C63245   7.042   4.584   6.830 -0.5974  0.6853  0.1068
  469MOL0     C63246   6.924   4.648   6.800 -0.9123  0.0445 -0.8809
  469MOL0     C63247   6.810   4.573   6.750 -0.3856 -0.0643 -0.7437
  469MOL0     H63248   6.901   5.258   6.673 -1.3934  0.2452 -2.5565
  469MOL0     H63249   6.769   5.466   6.717 -0.6248 -0.6161 -1.0894
  469MOL0     H63250   6.446   5.416   6.999 -2.5855 -0.5072  0.2506
  469MOL0     H63251   6.407   5.580   6.962  4.0618  1.1084 -0.5323
  469MOL0     H63252   6.328   5.355   6.773  2.6148  0.8997 -0.8491
  469MOL0     H63253   6.284   5.533   6.774  0.4266  1.0399  0.0239
  469MOL0     H63254   6.092   5.434   6.871  0.0131  4.2456  0.6996
  469MOL0     H63255   6.192   5.484   7.013  1.1405  1.2315 -0.4160
  469MOL0     H63256   6.179   5.215   6.868 -0.2116 -0.9812  1.9457
  469MOL0     H63257   6.266   5.254   7.021 -1.0262 -0.7791  2.0414
  469MOL0     H63258   6.043   5.299   7.133  0.4802 -0.5747  0.9190
  469MOL0     H63259   5.962   5.270   6.975  1.4545  3.6338 -1.9946
  469MOL0     H63260   6.014   5.050   6.958 -1.2262 -3.2984  1.7419
  469MOL0     H63261   6.123   5.057   7.107 -1.4126 -0.4164  1.7237
  469MOL0     H63262   5.819   5.100   7.097 -1.1988  0.2215  1.3384
  469MOL0     H63263   5.911   5.130   7.239 -2.2815 -0.3369  0.8038
  469MOL0     H63264   5.890   4.859   7.113 -0.8219 -1.5150  1.3577
  469MOL0     H63265   6.020   4.896   7.233  1.8670  5.4832 -0.7438
  469MOL0     H63266   5.848   5.054   7.443  1.5774 -0.9007 -0.4375
  469MOL0     H63267   5.590   4.860   7.641 -0.2515 -1.0641 -0.2917
  469MOL0     H63268   5.717   4.983   7.660 -1.7505  1.1924  1.0997
  469MOL0     H63269   5.542   5.122   7.492 -1.0314 -1.6996 -2.1573
  469MOL0     H63270   5.436   5.020   7.597 -0.2839  1.9329  0.0491
  469MOL0     H63271   5.646   5.209   7.713 -0.8239  1.8808  2.2098
  469MOL0     H63272   5.514   5.112   7.795 -1.7065  0.2914  0.2796
  469MOL0     H63273   5.348   5.234   7.659 -1.2247  1.8261  0.0171
  469MOL0     H63274   5.470   5.342   7.595 -0.5090 -0.0787  0.1646
  469MOL0     H63275   5.368   5.174   7.999 -3.7471 -4.0620  1.8911
  469MOL0     H63276   5.167   5.141   8.100 -1.5685 -1.4977 -2.5966
  469MOL0     H63277   4.822   5.459   8.274  0.0375 -2.7437  0.9898
  469MOL0     H63278   4.618   5.528   8.394  2.7906 -0.0503  0.0227
  469MOL0     H63279   4.464   5.387   8.516 -1.1094  0.1728  0.9939
  469MOL0     H63280   4.376   5.535   8.487  0.1332 -0.6957  1.3312
  469MOL0     H63281   4.217   5.406   8.626 -0.9368  0.0660  0.2255
  469MOL0     H63282   4.159   5.399   8.466  1.1612  0.4340  0.3657
  469MOL0     H63283   4.276   5.185   8.433 -1.0365  3.4739 -1.7801
  469MOL0     H63284   4.316   5.189   8.615  0.0535  0.8253 -0.1331
  469MOL0     H63285   4.127   5.045   8.548  1.9371  0.6097  0.7254
  469MOL0     H63286   4.030   5.181   8.505  2.9547 -0.6258 -5.3469
  469MOL0     H63287   3.994   5.253   8.715 -0.0299  0.0806 -2.1538
  469MOL0     H63288   4.136   5.201   8.781 -1.1057  0.7276  0.2227
  469MOL0     H63289   3.905   5.025   8.736 -0.2311  0.4303  1.3424
  469MOL0     H63290   4.064   4.954   8.761 -0.3561 -0.6293 -0.5378
  469MOL0     H63291   4.076   5.092   8.986 -0.4072  3.4491 -0.5751
  469MOL0     H63292   3.946   4.963   8.974 -1.4452 -0.6786 -2.7760
  469MOL0     H63293   3.899   5.254   8.921  4.1346 -1.9388 -2.1940
  469MOL0     H63294   3.782   5.117   8.919  1.6711 -1.0487 -1.8859
  469MOL0     H63295   4.394   5.283   8.118  1.2868 -1.6232 -0.7654
  469MOL0     H63296   4.576   5.286   7.967 -0.6575  1.8111 -0.9902
  469MOL0     H63297   4.988   5.465   7.854 -0.1005 -0.6057  0.5067
  469MOL0     H63298   5.218   5.487   7.741 -0.0450 -0.0992  1.0357
  469MOL0     H63299   6.479   5.237   6.915 -0.1097  0.1340 -1.8991
  469MOL0     H63300   6.604   5.040   6.896  2.7373 -1.1070  0.5286
  469MOL0     H63301   7.074   4.959   6.829  1.5168 -0.0946  0.2739
  469MOL0     H63302   7.270   4.815   6.870 -0.4622  0.4542 -0.5894
  469MOL0     H63303   7.245   4.402   6.782 -2.0864  0.7565  1.4937
  469MOL0     H63304   7.290   4.403   6.941  1.6169  2.0514  1.3448
  469MOL0     H63305   7.452   4.331   6.723  0.1803 -0.0635 -0.9931
  469MOL0     H63306   7.537   4.386   6.865 -0.1205  1.2133 -0.0154
  469MOL0     H63307   7.529   4.629   6.765  0.4145 -0.7905  1.5985
  469MOL0     H63308   7.457   4.552   6.616 -0.8266 -2.6358  0.2548
  469MOL0     H63309   7.703   4.595   6.590 -0.6812  0.7220  0.9031
  469MOL0     H63310   7.707   4.462   6.722  1.0209 -0.8163 -0.4432
  469MOL0     H63311   7.589   4.288   6.338 -3.2795  1.8811 -0.5731
  469MOL0     H63312   7.037   4.476   6.820 -2.2319  0.5938  1.5749
  469MOL0     H63313   6.710   4.602   6.785 -0.0450  1.8390 -1.2585
  469MOL0     H63314   6.807   4.581   6.641  0.7921 -1.5409 -0.9142
  469MOL0     H63315   6.825   4.467   6.774  2.8407  0.8491  1.9742
  470MOL0     O63316   0.603   1.551   7.799  0.0414  0.8415  0.0676
  470MOL0     C63317   0.505   1.508   7.854 -0.5087 -0.1347  0.4083
  470MOL0     O63318   0.400   1.437   7.790 -0.0299  0.2958 -0.1722
  470MOL0     C63319   0.418   1.385   7.662  0.9635 -0.0834  0.3205
  470MOL0     C63320   0.319   1.418   7.579  1.0173  0.5674  0.9407
  470MOL0     C63321   0.315   1.373   7.447 -1.0158  0.1587 -0.4773
  470MOL0     C63322   0.420   1.290   7.401 -0.3079  0.0458 -0.1360
  470MOL0     O63323   0.403   1.249   7.274 -1.2856  0.1175  0.7426
  470MOL0     C63324   0.499   1.153   7.227 -0.3072  0.4462 -0.1461
  470MOL0     C63325   0.474   1.104   7.086 -0.0220 -0.7404  0.1736
  470MOL0     C63326   0.347   1.017   7.066 -0.6574 -0.1663 -0.1686
  470MOL0     C63327   0.333   0.976   6.914 -0.1570 -0.0184 -0.2231
  470MOL0     C63328   0.232   0.864   6.883  0.5405 -0.2229 -0.6487
  470MOL0     C63329   0.243   0.827   6.739 -1.1316 -0.5832  0.3150
  470MOL0     C63330   0.128   0.743   6.705  0.0857 -0.1568 -1.2698
  470MOL0     C63331   0.112   0.738   6.553  1.1198  0.2479  0.2154
  470MOL0     N63332  -0.024   0.694   6.491  0.3159 -0.5695 -0.2419
  470MOL0     C63333  -0.130   0.775   6.456  0.3825  0.9220 -0.4192
  470MOL0     C63334  -0.217   0.697   6.387 -0.3411  0.9321 -0.2272
  470MOL0     C63335  -0.353   0.723   6.345 -0.4677  0.2131  0.6184
  470MOL0     C63336  -0.397   0.862   6.372 -0.3201  0.1108  0.9363
  470MOL0     C63337  -0.492   0.916   6.268 -0.6582  0.3559 -0.7079
  470MOL0     C63338  -0.580   1.021   6.321 -0.4366  0.5876  0.3438
  470MOL0     O63339  -0.498   1.132   6.360 -0.6459 -0.1415  0.3058
  470MOL0     C63340  -0.570   1.243   6.405 -0.0329  0.2658  0.3101
  470MOL0     C63341  -0.702   1.233   6.464 -0.7713  0.1390  1.3223
  470MOL0     C63342  -0.777   1.347   6.500 -0.6245 -1.2325  0.0141
  470MOL0     C63343  -0.715   1.471   6.485  0.8084 -0.4491 -0.0672
  470MOL0     C63344  -0.781   1.593   6.538 -0.4751 -0.2321  0.1733
  470MOL0     O63345  -0.706   1.699   6.523 -0.0383 -0.5875 -0.8952
  470MOL0     C63346  -0.712   1.818   6.599  0.1995  0.7673 -0.8321
  470MOL0     C63347  -0.817   1.904   6.583  0.4550  0.5910 -0.1204
  470MOL0     C63348  -0.821   2.019   6.671  0.5052 -0.2304 -0.3261
  470MOL0     C63349  -0.712   2.056   6.760 -0.5925  0.6408 -0.3269
  470MOL0     O63350  -0.722   2.161   6.854 -0.0297  0.7436  0.0162
  470MOL0     C63351  -0.841   2.134   6.929 -0.9650  0.3882 -0.8833
  470MOL0     C63352  -0.842   2.213   7.061  0.2076 -0.0546  0.2415
  470MOL0     C63353  -0.759   2.145   7.173 -0.0725  0.0356 -0.2117
  470MOL0     C63354  -0.775   2.224   7.305  0.5747  0.1266  0.2955
  470MOL0     C63355  -0.677   2.188   7.416  0.1093  0.7740 -0.2167
  470MOL0     C63356  -0.742   2.060   7.489  0.2088  0.0326  0.0213
  470MOL0     C63357  -0.668   2.016   7.615  0.4659 -0.0266  0.3008
  470MOL0     C63358  -0.753   1.936   7.715  0.1767  1.6212 -0.7201
  470MOL0    Cl63359  -0.847   2.047   7.805  0.9368 -0.0697 -0.0267
  470MOL0     C63360  -0.598   1.970   6.758 -0.4566  0.5985  0.5731
  470MOL0     C63361  -0.604   1.850   6.687  0.1003 -0.3598  0.9796
  470MOL0     O63362  -0.884   1.584   6.598  0.1965  0.1232  0.8140
  470MOL0     C63363  -0.577   1.476   6.448 -0.1583 -0.0477 -0.4235
  470MOL0     C63364  -0.506   1.367   6.405  0.1786 -0.7712  0.3468
  470MOL0     N63365  -0.161   0.566   6.369 -0.1129  0.0539 -0.1123
  470MOL0     N63366  -0.053   0.570   6.447  0.1601 -0.1956 -0.5129
  470MOL0     C63367   0.523   1.261   7.482 -0.1252  0.3546 -0.6563
  470MOL0     C63368   0.520   1.301   7.617  0.6555 -0.0552  0.3136
  470MOL0     C63369   0.496   1.534   8.004  0.3875 -0.4550  0.9608
  470MOL0     C63370   0.580   1.621   8.062 -0.5303  0.2904 -0.8875
  470MOL0     C63371   0.574   1.653   8.198  0.2352 -0.6295  1.2217
  470MOL0     C63372   0.470   1.608   8.279  0.0163 -0.0516  0.7234
  470MOL0     O63373   0.455   1.633   8.413 -0.3945 -0.8531  0.5010
  470MOL0     C63374   0.555   1.727   8.469 -0.4411  1.0984 -0.0104
  470MOL0     C63375   0.513   1.771   8.607 -0.1712  0.1108 -0.1743
  470MOL0     C63376   0.582   1.678   8.715  0.4858 -0.1472 -0.3884
  470MOL0     C63377   0.527   1.705   8.855 -0.2673  0.5387 -0.2042
  470MOL0     C63378   0.391   1.652   8.864 -0.8738  0.3217 -0.4033
  470MOL0     C63379   0.280   1.612   8.864  0.2631 -0.0503 -0.0360
  470MOL0     C63380   0.375   1.522   8.217  0.5285  0.0761  0.1971
  470MOL0     C63381   0.395   1.475   8.091 -0.2339  0.4206  0.2493
  470MOL0     C63382   0.298   1.360   8.041 -0.2041 -1.2657  0.0093
  470MOL0     H63383   0.232   1.477   7.607  2.2463  3.3084 -0.5884
  470MOL0     H63384   0.231   1.393   7.382 -0.1955  0.7318 -1.3848
  470MOL0     H63385   0.590   1.211   7.239 -0.0401 -0.3010  1.6996
  470MOL0     H63386   0.508   1.067   7.294 -1.3328 -1.0146 -1.7899
  470MOL0     H63387   0.565   1.049   7.061  0.8269  0.1526  1.1956
  470MOL0     H63388   0.480   1.187   7.015  2.2305  0.5741  1.7587
  470MOL0     H63389   0.261   1.079   7.094 -1.0703  0.1582 -2.0251
  470MOL0     H63390   0.342   0.929   7.130  1.1228 -0.2391 -0.0737
  470MOL0     H63391   0.286   1.063   6.866  1.9597 -0.4166 -3.3071
  470MOL0     H63392   0.432   0.952   6.875 -0.4011  0.1072 -0.9366
  470MOL0     H63393   0.240   0.772   6.942  3.4611 -0.3499 -1.1039
  470MOL0     H63394   0.141   0.922   6.905  2.4679  2.2926  1.4599
  470MOL0     H63395   0.236   0.924   6.689 -3.8031 -0.8771 -0.0299
  470MOL0     H63396   0.341   0.786   6.710 -0.6672  2.0459 -2.3526
  470MOL0     H63397   0.035   0.786   6.744 -1.6272 -1.6470 -3.4729
  470MOL0     H63398   0.141   0.645   6.751 -2.0023  1.4664  3.4711
  470MOL0     H63399   0.121   0.839   6.512  0.2677  1.1503  2.1443
  470MOL0     H63400   0.192   0.672   6.516  2.2023  1.3773  0.4941
  470MOL0     H63401  -0.133   0.879   6.487  2.1756  0.0486  3.3397
  470MOL0     H63402  -0.350   0.703   6.237  0.2920  4.6399 -0.3417
  470MOL0     H63403  -0.416   0.647   6.393  3.1788 -2.4536  1.6430
  470MOL0     H63404  -0.442   0.866   6.471  0.9603 -1.2838  1.6097
  470MOL0     H63405  -0.314   0.932   6.363 -1.6269  1.4941 -4.0378
  470MOL0     H63406  -0.550   0.835   6.222  1.7446 -1.1318 -1.3094
  470MOL0     H63407  -0.439   0.956   6.181  0.3866  0.3931 -0.0803
  470MOL0     H63408  -0.640   0.979   6.403 -2.6118 -0.7793 -1.8248
  470MOL0     H63409  -0.651   1.057   6.245  0.0502  2.1797  0.6097
  470MOL0     H63410  -0.754   1.140   6.485 -1.3811  0.5046  1.4762
  470MOL0     H63411  -0.881   1.341   6.533 -1.8088 -2.5295 -3.4536
  470MOL0     H63412  -0.908   1.871   6.532  1.6514 -3.1725 -0.1296
  470MOL0     H63413  -0.914   2.074   6.679  0.9922  0.8334 -1.5379
  470MOL0     H63414  -0.930   2.160   6.872 -1.5049 -1.9402 -1.2090
  470MOL0     H63415  -0.846   2.028   6.954 -2.2959  0.5954 -0.2040
  470MOL0     H63416  -0.802   2.315   7.062  1.6540 -0.6053  0.4116
  470MOL0     H63417  -0.946   2.216   7.096 -0.4894 -0.9538 -1.6033
  470MOL0     H63418  -0.789   2.043   7.197  0.7571 -0.2758 -0.4433
  470MOL0     H63419  -0.653   2.152   7.146  0.5439 -1.5202  1.5383
  470MOL0     H63420  -0.878   2.216   7.340  0.1814  0.3635 -0.7479
  470MOL0     H63421  -0.754   2.331   7.289  1.2547  0.0081  0.3563
  470MOL0     H63422  -0.646   2.267   7.485  1.3333  2.1029 -2.1643
  470MOL0     H63423  -0.582   2.158   7.370 -0.2034 -0.4053 -0.1206
  470MOL0     H63424  -0.839   2.100   7.522  1.6367  4.2609 -0.2799
  470MOL0     H63425  -0.750   1.975   7.420  1.1444 -1.1099  1.2890
  470MOL0     H63426  -0.626   2.107   7.659  0.7868 -1.2249  2.6570
  470MOL0     H63427  -0.585   1.961   7.569 -0.2395 -0.6614 -0.2284
  470MOL0     H63428  -0.816   1.863   7.664  3.7451 -0.4999 -2.4447
  470MOL0     H63429  -0.691   1.886   7.790  1.0665 -0.4911 -2.7241
  470MOL0     H63430  -0.511   1.990   6.820  2.1784  2.5632 -3.3314
  470MOL0     H63431  -0.518   1.785   6.697 -0.1460 -0.7001  0.9173
  470MOL0     H63432  -0.531   1.575   6.451  0.1073 -0.1974  1.2514
  470MOL0     H63433  -0.404   1.376   6.369 -0.2766  1.1115 -0.6292
  470MOL0     H63434   0.616   1.213   7.452  1.8925  0.4894  4.4514
  470MOL0     H63435   0.607   1.271   7.675  1.3552  0.1497 -0.6138
  470MOL0     H63436   0.657   1.669   8.002 -0.7518  1.5485 -0.1723
  470MOL0     H63437   0.653   1.717   8.236 -0.5384 -0.0713  1.9167
  470MOL0     H63438   0.561   1.821   8.413 -1.8788  1.0592 -0.2793
  470MOL0     H63439   0.656   1.689   8.456 -1.0080 -0.5019  0.0886
  470MOL0     H63440   0.407   1.754   8.625  0.6806 -6.0152  1.6125
  470MOL0     H63441   0.542   1.874   8.627 -3.2505  0.5958  2.6215
  470MOL0     H63442   0.691   1.689   8.717  0.5408 -0.0048 -2.1707
  470MOL0     H63443   0.551   1.576   8.692 -1.3734  0.2473  0.1978
  470MOL0     H63444   0.581   1.645   8.928 -2.4114  0.6632  1.5902
  470MOL0     H63445   0.531   1.805   8.900 -2.8084 -1.0792  4.3417
  470MOL0     H63446   0.185   1.563   8.860  0.5237 -0.5518 -0.2786
  470MOL0     H63447   0.298   1.480   8.282 -1.2973 -1.6540 -2.8713
  470MOL0     H63448   0.219   1.394   7.974  0.6298  1.9200  0.4746
  470MOL0     H63449   0.366   1.284   8.002 -0.9550 -0.3610 -3.3294
  470MOL0     H63450   0.239   1.318   8.124 -1.4939 -0.8932 -0.6878
  471MOL0     O63451   5.983   7.588   3.405  0.0318  0.5516 -0.5503
  471MOL0     C63452   6.068   7.554   3.487 -0.4225  0.4747  1.1297
  471MOL0     O63453   6.090   7.425   3.525 -0.2876 -0.4924  0.6358
  471MOL0     C63454   6.018   7.316   3.480  0.0905  0.3766 -0.1554
  471MOL0     C63455   5.882   7.297   3.488  0.3703 -0.0478 -0.5460
  471MOL0     C63456   5.813   7.179   3.460  1.0731  0.2077  0.2908
  471MOL0     C63457   5.882   7.074   3.404 -1.0046 -0.1349 -0.1557
  471MOL0     O63458   5.840   6.951   3.351 -0.1749  0.4101  0.2361
  471MOL0     C63459   5.705   6.930   3.320 -0.1341  0.7029 -0.6586
  471MOL0     C63460   5.629   6.843   3.428 -0.5124  0.4322 -0.6321
  471MOL0     C63461   5.484   6.863   3.426 -0.2562  0.0126 -0.7171
  471MOL0     C63462   5.409   6.777   3.528  0.6744 -0.3453  0.0903
  471MOL0     C63463   5.264   6.821   3.556  0.1097 -0.2733  0.6392
  471MOL0     C63464   5.161   6.839   3.435  0.0380 -0.6796  1.3335
  471MOL0     C63465   5.087   6.712   3.409  1.3721  0.1203  0.1011
  471MOL0     C63466   4.973   6.722   3.300 -0.7545 -0.2104 -1.0022
  471MOL0     N63467   4.866   6.814   3.353 -0.0758 -0.7338  0.5348
  471MOL0     C63468   4.848   6.954   3.319  0.7539  0.4553  0.2777
  471MOL0     C63469   4.728   6.979   3.359  0.8110 -0.5427  0.7840
  471MOL0     C63470   4.671   7.119   3.344 -0.2057  0.7884 -0.2183
  471MOL0     C63471   4.714   7.225   3.452 -0.2614 -0.7858 -0.9778
  471MOL0     C63472   4.854   7.284   3.432 -0.1959  0.3053 -0.0682
  471MOL0     C63473   4.892   7.394   3.521  0.3275  0.2722  0.8260
  471MOL0     O63474   4.984   7.478   3.440 -0.0283  0.0438  0.5238
  471MOL0     C63475   5.044   7.588   3.492 -0.4424  0.2971  0.1468
  471MOL0     C63476   5.025   7.620   3.624  0.1077 -0.7378 -0.4166
  471MOL0     C63477   5.086   7.729   3.687 -0.5156 -0.5158 -0.5184
  471MOL0     C63478   5.171   7.811   3.602 -0.4699 -0.1185  0.1418
  471MOL0     C63479   5.225   7.932   3.662 -0.8379  0.9408  0.4404
  471MOL0     O63480   5.232   8.040   3.581 -0.1545  0.3168  0.0883
  471MOL0     C63481   5.257   8.165   3.633 -1.1264 -0.6714  1.0303
  471MOL0     C63482   5.357   8.247   3.575  0.3792 -0.5954  0.2301
  471MOL0     C63483   5.394   8.371   3.634 -0.7966 -0.5218 -0.5499
  471MOL0     C63484   5.334   8.425   3.750 -0.4311  0.8677 -0.1471
  471MOL0     O63485   5.375   8.551   3.786  0.1986 -0.0832  0.2159
  471MOL0     C63486   5.440   8.548   3.911  0.8478 -0.4149 -0.2024
  471MOL0     C63487   5.579   8.502   3.894  0.2211 -0.2911  0.0217
  471MOL0     C63488   5.676   8.522   4.009  0.3348  0.6238 -0.1292
  471MOL0     C63489   5.703   8.669   4.028  0.4404 -0.1349 -0.3659
  471MOL0     C63490   5.796   8.691   4.146 -1.4028 -0.1742  0.8217
  471MOL0     C63491   5.948   8.721   4.107 -0.4520  1.0091 -0.3095
  471MOL0     C63492   6.020   8.594   4.046  0.8029 -0.4026 -0.1110
  471MOL0     C63493   6.173   8.607   4.070 -0.1776 -0.4998 -1.1029
  471MOL0    Cl63494   6.212   8.567   4.244  0.1504 -0.2263  0.0574
  471MOL0     C63495   5.235   8.349   3.803  0.3503 -0.1634 -1.4353
  471MOL0     C63496   5.201   8.221   3.756 -0.4147 -0.1016  0.3805
  471MOL0     O63497   5.252   7.931   3.780  0.3570  0.4930  0.4044
  471MOL0     C63498   5.192   7.775   3.466 -0.7553  0.2849 -0.7482
  471MOL0     C63499   5.133   7.667   3.416  1.1925  1.4632  1.6327
  471MOL0     N63500   4.676   6.873   3.428 -0.5611 -1.1703 -0.4196
  471MOL0     N63501   4.754   6.772   3.419  0.9657 -0.0373  0.5787
  471MOL0     C63502   6.024   7.088   3.381  0.8048 -0.6459 -0.1387
  471MOL0     C63503   6.088   7.213   3.424 -0.5735 -0.1355  0.3399
  471MOL0     C63504   6.153   7.655   3.542 -0.7778 -0.7998  0.0222
  471MOL0     C63505   6.093   7.775   3.565  0.5905 -0.8767  0.6611
  471MOL0     C63506   6.160   7.886   3.606 -0.6161 -0.7104 -0.2339
  471MOL0     C63507   6.293   7.875   3.640 -0.5956 -0.3925 -0.0057
  471MOL0     O63508   6.350   7.996   3.691  0.5203  0.1776 -0.0418
  471MOL0     C63509   6.490   8.007   3.703  0.9725  0.1176  0.1151
  471MOL0     C63510   6.534   8.156   3.715  0.0372 -0.4957  0.2914
  471MOL0     C63511   6.506   8.218   3.581  0.4711 -0.2348 -0.1880
  471MOL0     C63512   6.559   8.358   3.568 -0.8440 -0.1482  0.1573
  471MOL0     C63513   6.509   8.423   3.447 -0.7650  0.2522 -0.6279
  471MOL0     C63514   6.483   8.478   3.343 -0.3570 -0.0671 -0.5558
  471MOL0     C63515   6.355   7.754   3.632 -0.0618 -0.8365 -0.2165
  471MOL0     C63516   6.286   7.640   3.582  1.0200  0.2828 -0.5919
  471MOL0     C63517   6.365   7.507   3.606  0.7925 -0.9482  0.4328
  471MOL0     H63518   5.830   7.382   3.532 -1.2258 -2.2306  2.1834
  471MOL0     H63519   5.708   7.173   3.487  0.8069 -0.5072 -0.8441
  471MOL0     H63520   5.651   7.025   3.319  0.0563  0.8043 -1.3872
  471MOL0     H63521   5.693   6.880   3.224 -0.9274 -2.2354  0.8235
  471MOL0     H63522   5.664   6.876   3.526 -0.9636 -1.5393  0.2560
  471MOL0     H63523   5.657   6.737   3.423  0.9904  0.6542  1.6412
  471MOL0     H63524   5.440   6.838   3.329 -4.1730  1.6402  0.4785
  471MOL0     H63525   5.452   6.966   3.444  0.4756  0.2498 -0.7402
  471MOL0     H63526   5.410   6.675   3.487  0.8404 -0.9955  1.6701
  471MOL0     H63527   5.456   6.786   3.626 -3.8906  0.8637  2.4436
  471MOL0     H63528   5.227   6.755   3.635  2.3104 -0.5487  1.5021
  471MOL0     H63529   5.270   6.921   3.601  0.6006 -0.2056  0.4224
  471MOL0     H63530   5.091   6.922   3.449 -1.0854 -0.9306 -1.9281
  471MOL0     H63531   5.220   6.865   3.347  0.1798 -0.3606  1.5203
  471MOL0     H63532   5.025   6.700   3.499 -0.3020  4.4920 -0.2491
  471MOL0     H63533   5.152   6.625   3.405 -0.2537 -1.4454  3.4092
  471MOL0     H63534   5.016   6.753   3.204  0.7647 -2.2043 -1.0397
  471MOL0     H63535   4.934   6.622   3.279  1.8903 -1.7887  0.9759
  471MOL0     H63536   4.912   7.025   3.268  1.0735 -0.3438 -0.4808
  471MOL0     H63537   4.701   7.150   3.244  2.1245 -1.9570 -0.4854
  471MOL0     H63538   4.562   7.112   3.347 -0.1101 -1.8378 -0.6645
  471MOL0     H63539   4.637   7.301   3.442 -2.1719 -2.6143 -0.7823
  471MOL0     H63540   4.701   7.192   3.555 -1.2223  2.4585  0.0545
  471MOL0     H63541   4.860   7.315   3.327 -1.0432 -0.7659 -0.4499
  471MOL0     H63542   4.936   7.214   3.443  0.7372  1.6337  2.1243
  471MOL0     H63543   4.943   7.360   3.611  1.0657 -4.3982 -1.0820
  471MOL0     H63544   4.806   7.451   3.558  0.3608  0.3156  0.8375
  471MOL0     H63545   4.961   7.561   3.689  2.6675 -2.8521  0.3907
  471MOL0     H63546   5.069   7.749   3.792  1.7600 -0.0927 -0.1827
  471MOL0     H63547   5.394   8.221   3.476  0.1513 -2.3931  0.5730
  471MOL0     H63548   5.473   8.429   3.587 -1.0382  0.2283 -0.0524
  471MOL0     H63549   5.444   8.649   3.955 -0.9004  0.3770 -1.7410
  471MOL0     H63550   5.388   8.480   3.978  0.4798 -1.0476 -1.1185
  471MOL0     H63551   5.572   8.394   3.879 -1.7049 -0.3189  0.8684
  471MOL0     H63552   5.634   8.536   3.806  1.7845 -0.5094  0.8859
  471MOL0     H63553   5.624   8.491   4.101 -0.8922 -0.4209 -1.1371
  471MOL0     H63554   5.771   8.469   3.995 -0.2939 -2.0157  3.9020
  471MOL0     H63555   5.612   8.719   4.063  2.2176  1.5259  2.3803
  471MOL0     H63556   5.737   8.719   3.937  0.0895 -0.6877 -0.8078
  471MOL0     H63557   5.789   8.594   4.198 -2.0172 -3.9587 -5.3232
  471MOL0     H63558   5.759   8.776   4.204 -1.6255 -1.6338  2.9460
  471MOL0     H63559   5.958   8.805   4.037 -0.3952  2.0774  0.9367
  471MOL0     H63560   5.985   8.743   4.207 -0.8222 -1.2739  0.3899
  471MOL0     H63561   6.005   8.574   3.939 -1.0235  0.5958 -0.0932
  471MOL0     H63562   5.983   8.504   4.095 -1.7881  0.4518 -0.3488
  471MOL0     H63563   6.224   8.532   4.007  2.9926 -1.4922  2.2579
  471MOL0     H63564   6.210   8.707   4.047  4.1856 -1.1423  1.7808
  471MOL0     H63565   5.184   8.398   3.886  1.1268 -2.9702  0.8908
  471MOL0     H63566   5.122   8.164   3.803 -0.3821 -0.0747  0.4677
  471MOL0     H63567   5.262   7.841   3.415  1.0493 -1.9918 -1.3753
  471MOL0     H63568   5.147   7.635   3.313 -0.6887 -0.0849  1.7918
  471MOL0     H63569   6.076   7.001   3.341 -1.4455 -1.7242 -0.9030
  471MOL0     H63570   6.195   7.232   3.416 -0.9443  1.4455 -1.9500
  471MOL0     H63571   5.985   7.783   3.568  0.6034 -0.8364  3.8223
  471MOL0     H63572   6.117   7.983   3.623 -0.3961 -0.4076 -1.3008
  471MOL0     H63573   6.544   7.959   3.621  0.5185 -0.3681  0.0896
  471MOL0     H63574   6.517   7.956   3.796  1.3382 -1.6850 -0.9230
  471MOL0     H63575   6.643   8.159   3.724 -0.0118 -1.5159  1.7408
  471MOL0     H63576   6.496   8.202   3.807  1.4000  1.3777 -0.0223
  471MOL0     H63577   6.398   8.224   3.561  0.2864  2.2875  1.2642
  471MOL0     H63578   6.550   8.159   3.500  0.6610 -0.4821  0.0937
  471MOL0     H63579   6.541   8.420   3.656  1.2213 -0.7834  1.0888
  471MOL0     H63580   6.668   8.361   3.552 -1.2797 -0.4150 -4.0952
  471MOL0     H63581   6.474   8.543   3.258 -1.2266  2.5931  1.4484
  471MOL0     H63582   6.457   7.737   3.664 -0.6974 -0.9931  1.8811
  471MOL0     H63583   6.464   7.510   3.559  0.0009 -1.7780 -1.4296
  471MOL0     H63584   6.377   7.489   3.713  1.6007 -1.4648  0.2608
  471MOL0     H63585   6.305   7.421   3.575 -1.2151  1.0050 -1.5151
  472MOL0     O63586   7.947   7.497   5.765  0.2652 -0.9079  0.2951
  472MOL0     C63587   8.052   7.472   5.700  0.0598 -0.6776 -0.6448
  472MOL0     O63588   8.067   7.372   5.613 -0.4740  1.2223  0.3066
  472MOL0     C63589   7.974   7.267   5.610 -0.9132 -0.3668  0.7742
  472MOL0     C63590   7.856   7.285   5.536 -0.2636  0.2073  0.1996
  472MOL0     C63591   7.767   7.177   5.529 -0.4675 -1.5939  0.6744
  472MOL0     C63592   7.796   7.055   5.594  0.6251  0.8821  0.8478
  472MOL0     O63593   7.718   6.940   5.593 -0.0317  0.5058  0.3563
  472MOL0     C63594   7.585   6.942   5.552  0.4451 -0.5540 -0.4444
  472MOL0     C63595   7.539   6.796   5.569  0.2260 -0.0889  0.5171
  472MOL0     C63596   7.543   6.732   5.706 -0.0714 -0.3857 -0.3011
  472MOL0     C63597   7.470   6.797   5.825  0.7475  0.1469  0.3119
  472MOL0     C63598   7.316   6.813   5.787 -0.1923 -1.1336  0.4675
  472MOL0     C63599   7.243   6.887   5.905 -0.1426  0.0975 -0.9606
  472MOL0     C63600   7.262   7.041   5.916 -0.5359  0.0105  0.3229
  472MOL0     C63601   7.233   7.090   6.060  0.1454 -1.3227  0.1557
  472MOL0     N63602   7.250   7.238   6.075  0.1451  0.0544  0.1962
  472MOL0     C63603   7.283   7.284   6.195  0.0575 -0.2766 -0.7375
  472MOL0     C63604   7.326   7.411   6.179 -0.5808 -0.2708 -0.2938
  472MOL0     C63605   7.386   7.505   6.278  0.0038 -0.3241 -0.3182
  472MOL0     C63606   7.525   7.455   6.312  0.5660  0.3312 -0.4127
  472MOL0     C63607   7.599   7.551   6.411  0.2618  0.3060 -0.1891
  472MOL0     C63608   7.739   7.512   6.438  0.2296  0.0120 -0.8750
  472MOL0     O63609   7.739   7.389   6.518 -0.1959  0.9865  0.0332
  472MOL0     C63610   7.870   7.325   6.530  0.4530  0.2527  0.1332
  472MOL0     C63611   7.884   7.197   6.583 -0.4838  0.6013 -0.0824
  472MOL0     C63612   8.011   7.133   6.584 -1.5507  0.7209 -0.1753
  472MOL0     C63613   8.120   7.179   6.504 -1.2379 -0.2712 -0.5878
  472MOL0     C63614   8.247   7.103   6.500  1.2056 -0.6674  0.3700
  472MOL0     O63615   8.349   7.192   6.475 -0.1904  0.3801  0.8019
  472MOL0     C63616   8.469   7.137   6.479 -1.1219  0.3255  0.2289
  472MOL0     C63617   8.556   7.154   6.592  0.6663  0.5690  0.6776
  472MOL0     C63618   8.685   7.095   6.596  0.2965  0.0720  1.0823
  472MOL0     C63619   8.747   7.034   6.483 -0.8430 -0.3303  0.6277
  472MOL0     O63620   8.878   6.994   6.497 -0.0516  0.3095 -0.3365
  472MOL0     C63621   8.954   6.988   6.379  0.0019  0.6754  0.0661
  472MOL0     C63622   8.962   6.835   6.344 -0.4847 -0.1007  0.3200
  472MOL0     C63623   9.106   6.786   6.393  0.2089  0.0966 -0.0259
  472MOL0     C63624   9.128   6.777   6.541  0.5946  0.8890 -0.5575
  472MOL0     C63625   9.283   6.748   6.574 -0.5284 -0.0262 -0.2517
  472MOL0     C63626   9.346   6.629   6.519  0.2514 -0.2980  0.3875
  472MOL0     C63627   9.278   6.498   6.575 -0.1867 -0.5773  0.1926
  472MOL0     C63628   9.365   6.376   6.604 -0.2577  0.3012  0.8006
  472MOL0    Cl63629   9.488   6.412   6.729 -0.0728  0.0545 -0.2283
  472MOL0     C63630   8.660   7.024   6.368  0.4095  0.6527 -0.4679
  472MOL0     C63631   8.524   7.064   6.370  0.6751 -0.6983  0.5020
  472MOL0     O63632   8.240   6.988   6.503  0.0577  0.6564 -0.4858
  472MOL0     C63633   8.103   7.303   6.444  0.0840  0.2792  0.5661
  472MOL0     C63634   7.986   7.376   6.461 -0.1058 -0.4840  0.8743
  472MOL0     N63635   7.317   7.442   6.047 -0.4573 -0.2757  0.2446
  472MOL0     N63636   7.265   7.340   5.984 -0.8500 -0.1705  0.7509
  472MOL0     C63637   7.912   7.046   5.670  0.1391 -0.0850  0.5314
  472MOL0     C63638   8.000   7.148   5.675  0.2093  0.1621 -0.0017
  472MOL0     C63639   8.159   7.580   5.704 -0.0392 -0.9608 -0.6740
  472MOL0     C63640   8.290   7.522   5.684  1.1893 -0.7905  0.2718
  472MOL0     C63641   8.398   7.603   5.689  0.2778  0.2988 -0.1869
  472MOL0     C63642   8.382   7.748   5.717  0.6541 -0.1818  0.1278
  472MOL0     O63643   8.507   7.810   5.737 -0.4529 -0.3810  0.3441
  472MOL0     C63644   8.569   7.780   5.868 -0.1395  0.1058 -0.2682
  472MOL0     C63645   8.690   7.851   5.890 -0.3744 -0.5274 -0.2743
  472MOL0     C63646   8.757   7.806   6.025  0.5367  1.0746 -0.6175
  472MOL0     C63647   8.851   7.899   6.088 -0.0319  0.6181  0.1814
  472MOL0     C63648   8.959   7.927   5.998 -0.0313  0.0603  0.5566
  472MOL0     C63649   9.050   7.953   5.923  0.7330 -0.1063  0.1734
  472MOL0     C63650   8.255   7.797   5.740  0.5411  1.5568 -0.4034
  472MOL0     C63651   8.136   7.715   5.736 -0.0198 -0.0086  0.9651
  472MOL0     C63652   8.010   7.790   5.770 -0.2256  0.5775 -0.6793
  472MOL0     H63653   7.837   7.375   5.479 -0.8745 -0.6751 -1.0355
  472MOL0     H63654   7.674   7.188   5.474  1.1115  0.1282 -1.8417
  472MOL0     H63655   7.519   7.004   5.614  1.6494  1.0664 -0.7355
  472MOL0     H63656   7.575   6.992   5.455 -2.1297  0.9955  0.5082
  472MOL0     H63657   7.597   6.732   5.501 -1.4194 -0.9649 -0.1129
  472MOL0     H63658   7.438   6.791   5.527  0.0129  2.4730  0.5605
  472MOL0     H63659   7.649   6.724   5.732  0.4318  0.3876 -1.9511
  472MOL0     H63660   7.516   6.629   5.684  1.4422 -1.2144  1.4286
  472MOL0     H63661   7.498   6.749   5.919  1.3322  0.4228  0.2823
  472MOL0     H63662   7.522   6.891   5.846  2.4477 -0.3085 -1.5317
  472MOL0     H63663   7.304   6.874   5.698  1.2815 -1.3466  0.0905
  472MOL0     H63664   7.274   6.713   5.769 -2.4400  0.0911 -1.7029
  472MOL0     H63665   7.138   6.854   5.907 -0.4175  0.9797 -0.6794
  472MOL0     H63666   7.283   6.837   5.994 -1.4599  1.3135  0.3685
  472MOL0     H63667   7.208   7.096   5.838  1.4352  1.6695  0.0437
  472MOL0     H63668   7.369   7.062   5.910 -0.2413 -1.4311  0.3018
  472MOL0     H63669   7.131   7.069   6.093 -0.0685 -2.0079 -0.8765
  472MOL0     H63670   7.303   7.045   6.131  2.6055 -0.2783 -1.4613
  472MOL0     H63671   7.293   7.234   6.291  0.5874  2.5780  0.8282
  472MOL0     H63672   7.396   7.607   6.239  0.6711  1.2688  3.6058
  472MOL0     H63673   7.327   7.503   6.370  3.6073  4.1589  2.5555
  472MOL0     H63674   7.521   7.359   6.363  0.1212  0.7151  0.2855
  472MOL0     H63675   7.584   7.450   6.220  1.5593  2.6647  0.0172
  472MOL0     H63676   7.534   7.551   6.499 -1.7267  1.3079 -1.5826
  472MOL0     H63677   7.595   7.653   6.373 -1.7144  1.7967  3.5028
  472MOL0     H63678   7.793   7.591   6.490 -1.7641  1.0910 -0.3784
  472MOL0     H63679   7.784   7.489   6.341  0.9080  0.5207 -0.6917
  472MOL0     H63680   7.799   7.146   6.628 -0.5926 -0.9360 -1.8902
  472MOL0     H63681   8.019   7.043   6.645 -0.1366  0.5214 -0.6207
  472MOL0     H63682   8.517   7.210   6.677 -1.3533 -0.5634  0.5731
  472MOL0     H63683   8.751   7.123   6.677  1.8269  1.2346 -0.4859
  472MOL0     H63684   8.911   7.039   6.292 -1.2621  0.7726  0.7182
  472MOL0     H63685   9.055   7.023   6.400  0.4824  1.1708 -2.7298
  472MOL0     H63686   8.894   6.759   6.382  3.0677 -3.8576 -0.1496
  472MOL0     H63687   8.968   6.820   6.236  1.5841  1.7229  0.1015
  472MOL0     H63688   9.125   6.688   6.349  1.6546  0.1973  0.3128
  472MOL0     H63689   9.179   6.861   6.360 -0.1977 -0.1337 -1.5099
  472MOL0     H63690   9.081   6.690   6.586  0.2654  0.6689 -1.3005
  472MOL0     H63691   9.100   6.871   6.590  1.4980  1.0233 -0.2707
  472MOL0     H63692   9.299   6.755   6.682  0.0894  2.9451 -0.4551
  472MOL0     H63693   9.344   6.832   6.539  1.2579 -0.2296  2.0816
  472MOL0     H63694   9.332   6.625   6.411 -0.6479  3.8228  0.2177
  472MOL0     H63695   9.454   6.627   6.534  0.6997 -0.0567 -2.3418
  472MOL0     H63696   9.201   6.458   6.508 -1.3106  1.0085  0.4625
  472MOL0     H63697   9.230   6.513   6.672  1.1600  0.1351  0.7670
  472MOL0     H63698   9.299   6.294   6.634 -0.8610 -0.2471 -1.7940
  472MOL0     H63699   9.418   6.344   6.514  1.4623 -2.1925  2.5956
  472MOL0     H63700   8.701   6.980   6.278  2.1514 -0.1966  0.6919
  472MOL0     H63701   8.463   7.048   6.282 -1.1597  0.8859  1.3979
  472MOL0     H63702   8.184   7.350   6.388  1.7868 -2.4783  0.5297
  472MOL0     H63703   7.983   7.470   6.406  2.0370 -0.1164  1.2918
  472MOL0     H63704   7.944   6.958   5.725 -0.6871 -0.0656  1.0611
  472MOL0     H63705   8.099   7.143   5.720  1.5815 -0.1618 -2.8103
  472MOL0     H63706   8.306   7.418   5.657  1.2684 -0.5841 -0.5163
  472MOL0     H63707   8.500   7.570   5.668 -0.3587 -0.0311 -3.2072
  472MOL0     H63708   8.587   7.673   5.878 -1.0054  0.1243  2.0442
  472MOL0     H63709   8.493   7.799   5.945 -0.0287 -2.0809  0.4254
  472MOL0     H63710   8.661   7.956   5.904  0.6971 -0.5374  2.7658
  472MOL0     H63711   8.767   7.839   5.814  1.2376  1.4057  0.9641
  472MOL0     H63712   8.822   7.721   6.002 -0.2020  0.8957 -2.1538
  472MOL0     H63713   8.673   7.785   6.092  1.5212  0.4882  0.4706
  472MOL0     H63714   8.798   7.989   6.120  0.7651  0.4252  2.2003
  472MOL0     H63715   8.884   7.860   6.185 -0.2042 -0.0041 -0.0070
  472MOL0     H63716   9.139   7.958   5.864  0.7617  1.8844  0.3159
  472MOL0     H63717   8.251   7.900   5.775 -1.2020  1.8053 -1.1785
  472MOL0     H63718   8.000   7.771   5.877  2.7273 -1.7790 -0.6788
  472MOL0     H63719   8.025   7.898   5.761 -1.4002  0.5682 -5.2680
  472MOL0     H63720   7.924   7.757   5.711  0.1480 -1.2556 -0.2680
  473MOL0     O63721   3.980   6.968   4.132  0.0349 -0.1822 -0.8692
  473MOL0     C63722   4.044   6.865   4.106 -0.3483  0.1039  0.6834
  473MOL0     O63723   3.986   6.747   4.088  0.4068  0.6564 -0.6697
  473MOL0     C63724   3.853   6.738   4.055  0.2521  0.2351  0.7699
  473MOL0     C63725   3.773   6.656   4.126  0.1850  0.8303 -0.0989
  473MOL0     C63726   3.641   6.628   4.089 -0.1370 -0.1991  0.1384
  473MOL0     C63727   3.579   6.678   3.977  0.2683  0.6468  0.7857
  473MOL0     O63728   3.450   6.658   3.935  0.2164  0.3957 -0.1577
  473MOL0     C63729   3.366   6.593   4.030 -1.0875 -0.5122  0.0274
  473MOL0     C63730   3.235   6.601   3.947 -0.3175  1.6083 -0.2286
  473MOL0     C63731   3.130   6.500   3.989 -0.8693 -0.6095 -0.6148
  473MOL0     C63732   3.094   6.480   4.136  0.8614 -0.3862 -0.3431
  473MOL0     C63733   2.950   6.422   4.138 -0.0400 -0.4122 -0.5344
  473MOL0     C63734   2.878   6.481   4.263 -0.5684  0.4994 -0.7326
  473MOL0     C63735   2.753   6.393   4.307 -0.3962  0.4781 -0.3639
  473MOL0     C63736   2.685   6.459   4.429 -1.0419  0.6739  0.4731
  473MOL0     N63737   2.560   6.391   4.459  0.0691 -0.3405  0.4282
  473MOL0     C63738   2.446   6.414   4.382 -0.3519  0.5431 -0.2527
  473MOL0     C63739   2.346   6.346   4.436  0.5175 -0.1133 -0.0364
  473MOL0     C63740   2.212   6.330   4.386  0.8507  0.7589 -0.0481
  473MOL0     C63741   2.105   6.434   4.440 -0.8838 -0.3609 -0.6765
  473MOL0     C63742   1.962   6.428   4.375 -0.6216  0.0670  0.3809
  473MOL0     C63743   1.863   6.488   4.468  0.2481  0.0478  0.4291
  473MOL0     O63744   1.894   6.625   4.503  0.4519 -0.0916 -0.5952
  473MOL0     C63745   1.823   6.724   4.426 -1.2176  0.4245 -0.4652
  473MOL0     C63746   1.872   6.770   4.299 -1.0649 -0.6160  0.3399
  473MOL0     C63747   1.806   6.876   4.229 -0.6319  0.1129  0.4505
  473MOL0     C63748   1.708   6.946   4.290 -0.1060  0.0156 -0.0817
  473MOL0     C63749   1.655   7.072   4.216  0.3228  0.0736  0.2030
  473MOL0     O63750   1.735   7.131   4.127 -0.5955 -0.0374  0.4784
  473MOL0     C63751   1.711   7.264   4.086 -0.1481 -0.0165 -0.3562
  473MOL0     C63752   1.817   7.343   4.080 -0.1464 -1.1689  0.1236
  473MOL0     C63753   1.811   7.472   4.021  0.0441 -0.7256  0.5040
  473MOL0     C63754   1.688   7.516   3.967  0.0017 -1.6855  0.0902
  473MOL0     O63755   1.686   7.643   3.908 -0.5383  0.2227 -0.8595
  473MOL0     C63756   1.685   7.638   3.760  0.9340 -0.1994  0.2740
  473MOL0     C63757   1.707   7.772   3.706 -0.4619 -0.4267 -0.1211
  473MOL0     C63758   1.850   7.828   3.735  0.2568 -0.1679  0.8466
  473MOL0     C63759   1.864   7.974   3.703 -1.3050 -0.0776 -0.0844
  473MOL0     C63760   2.013   8.018   3.675 -0.1704  0.8139 -0.1807
  473MOL0     C63761   2.008   8.161   3.632  0.8664  1.2778 -0.3744
  473MOL0     C63762   2.150   8.204   3.603 -0.2089  0.5342 -0.7709
  473MOL0     C63763   2.173   8.329   3.518 -0.2092 -0.5841 -0.6185
  473MOL0    Cl63764   2.140   8.289   3.351 -0.2599 -0.0650 -0.1787
  473MOL0     C63765   1.576   7.439   3.983  0.4418 -0.2946 -0.0372
  473MOL0     C63766   1.591   7.320   4.047  0.6471  0.4471  0.3016
  473MOL0     O63767   1.548   7.112   4.258 -0.1875 -0.6754 -0.1136
  473MOL0     C63768   1.656   6.905   4.422 -0.0947  0.0885  0.9162
  473MOL0     C63769   1.716   6.799   4.488 -0.7121  1.1211  0.1493
  473MOL0     N63770   2.402   6.267   4.536  0.0862  0.0858  0.1491
  473MOL0     N63771   2.531   6.293   4.552 -0.6422 -0.6329 -0.8024
  473MOL0     C63772   3.665   6.768   3.910 -0.3690 -0.4995  0.2624
  473MOL0     C63773   3.795   6.806   3.952  0.6695  0.0940  0.7004
  473MOL0     C63774   4.193   6.886   4.086 -0.6354  0.1515 -0.6287
  473MOL0     C63775   4.259   6.786   4.018 -0.8772  0.6146 -0.0522
  473MOL0     C63776   4.390   6.791   3.991 -0.3593  0.6565 -0.5718
  473MOL0     C63777   4.468   6.907   4.033  0.8046 -0.5118 -0.4258
  473MOL0     O63778   4.600   6.929   3.991  0.7548 -0.5153 -0.3619
  473MOL0     C63779   4.682   6.825   3.952  0.4010 -0.6018 -1.1134
  473MOL0     C63780   4.672   6.825   3.803 -0.5373 -0.6012  0.0937
  473MOL0     C63781   4.752   6.954   3.764 -0.3857 -0.2253  0.1981
  473MOL0     C63782   4.904   6.916   3.757  0.7259 -0.4121  0.2817
  473MOL0     C63783   5.009   7.022   3.749  0.9772  0.3935  0.1427
  473MOL0     C63784   5.102   7.101   3.769  0.3603  0.6412  0.6413
  473MOL0     C63785   4.406   7.016   4.101 -0.7459  1.0157 -0.2750
  473MOL0     C63786   4.265   7.001   4.136 -0.0739 -0.2905  0.1627
  473MOL0     C63787   4.204   7.113   4.212  0.3775 -0.5655 -0.8871
  473MOL0     H63788   3.819   6.614   4.215 -1.6668  4.2640  2.7285
  473MOL0     H63789   3.594   6.552   4.150  0.6391 -0.5310  0.3358
  473MOL0     H63790   3.410   6.493   4.037  0.3624  0.1108 -0.0472
  473MOL0     H63791   3.359   6.635   4.131 -1.0441  1.8663 -0.8972
  473MOL0     H63792   3.273   6.568   3.850  2.6413 -1.7727  1.8155
  473MOL0     H63793   3.191   6.701   3.947 -3.4471  0.4113 -3.0854
  473MOL0     H63794   3.147   6.408   3.932 -4.8864 -1.9839  0.0523
  473MOL0     H63795   3.033   6.526   3.946 -0.6925  0.4470 -0.4096
  473MOL0     H63796   3.153   6.421   4.207 -3.3096 -2.0186  2.1120
  473MOL0     H63797   3.088   6.575   4.190  0.6737 -0.7412  0.2769
  473MOL0     H63798   2.881   6.454   4.059 -0.6032 -1.5062 -0.5072
  473MOL0     H63799   2.953   6.313   4.143 -1.3401 -0.7841 -4.4372
  473MOL0     H63800   2.946   6.480   4.348 -2.1296 -0.1813  0.5701
  473MOL0     H63801   2.846   6.584   4.245  1.1591  1.5915  1.9007
  473MOL0     H63802   2.783   6.294   4.344 -2.0408  0.1746  0.2261
  473MOL0     H63803   2.685   6.370   4.224 -0.1920 -2.6735  0.2206
  473MOL0     H63804   2.755   6.468   4.512  1.9884  1.6558 -2.0102
  473MOL0     H63805   2.667   6.561   4.396  2.4617  0.6695 -1.9336
  473MOL0     H63806   2.458   6.480   4.297 -1.9495  1.9100  0.5142
  473MOL0     H63807   2.213   6.338   4.276  2.4419  1.6386  0.0070
  473MOL0     H63808   2.175   6.232   4.416 -1.1087  1.5372  0.2600
  473MOL0     H63809   2.102   6.413   4.547  2.5446  1.9475  0.0261
  473MOL0     H63810   2.153   6.528   4.414  2.2765 -2.0727 -1.5787
  473MOL0     H63811   1.936   6.329   4.335  2.0135 -0.0085 -1.4253
  473MOL0     H63812   1.966   6.491   4.286 -0.1462 -0.0248  0.3348
  473MOL0     H63813   1.874   6.435   4.564 -0.1860  1.5211  1.3294
  473MOL0     H63814   1.759   6.475   4.436  1.1863 -0.4859 -2.7341
  473MOL0     H63815   1.961   6.728   4.255 -1.1796  2.4139 -3.3313
  473MOL0     H63816   1.839   6.910   4.131 -0.9841  0.1716  0.3501
  473MOL0     H63817   1.909   7.306   4.125 -0.0499  1.8023  2.8051
  473MOL0     H63818   1.894   7.543   4.023  0.1749 -0.8576  2.8921
  473MOL0     H63819   1.776   7.580   3.738  3.6161  2.8980  2.1437
  473MOL0     H63820   1.598   7.599   3.707  0.6185  0.5974  0.1912
  473MOL0     H63821   1.692   7.764   3.598 -4.1957  2.8318 -0.0845
  473MOL0     H63822   1.624   7.834   3.742 -2.3796 -1.9737 -1.6263
  473MOL0     H63823   1.871   7.822   3.842 -2.0997 -0.0153  1.3699
  473MOL0     H63824   1.917   7.766   3.675 -1.5440  0.9753 -2.5830
  473MOL0     H63825   1.826   8.032   3.788  0.5488  2.4324 -0.8579
  473MOL0     H63826   1.807   7.996   3.612  1.1224 -2.1875 -2.2547
  473MOL0     H63827   2.051   7.957   3.593  2.5298  2.4243 -0.2213
  473MOL0     H63828   2.063   8.001   3.771  2.2080  1.8041 -1.1720
  473MOL0     H63829   1.957   8.160   3.535  1.1752 -3.6829 -0.7317
  473MOL0     H63830   1.956   8.233   3.695 -4.0795 -2.0649 -0.1428
  473MOL0     H63831   2.205   8.123   3.553 -1.0919 -2.3524  2.4944
  473MOL0     H63832   2.190   8.223   3.702  0.3828 -0.1117 -0.8787
  473MOL0     H63833   2.121   8.422   3.542  4.2368  2.4070 -1.4803
  473MOL0     H63834   2.280   8.348   3.529 -0.8868  2.7750  1.5531
  473MOL0     H63835   1.487   7.456   3.923 -0.0967  0.3515  0.9154
  473MOL0     H63836   1.506   7.253   4.054 -0.4311  1.9612  4.6528
  473MOL0     H63837   1.576   6.960   4.470  1.1837  3.2324 -0.2558
  473MOL0     H63838   1.698   6.762   4.588  0.1187  0.6104  0.1160
  473MOL0     H63839   3.622   6.815   3.822  0.4258  1.2419  0.7736
  473MOL0     H63840   3.843   6.898   3.919  2.2959 -0.5747  1.1374
  473MOL0     H63841   4.205   6.699   3.981 -3.0756  1.8695  0.0205
  473MOL0     H63842   4.437   6.705   3.946 -1.3182 -0.0883 -0.1815
  473MOL0     H63843   4.661   6.731   4.005  0.6415  0.6341  1.2923
  473MOL0     H63844   4.783   6.853   3.984  0.6111 -0.9098 -1.4947
  473MOL0     H63845   4.569   6.814   3.769 -0.3841  0.1939 -0.6439
  473MOL0     H63846   4.722   6.737   3.761 -0.2474  0.7914 -2.7070
  473MOL0     H63847   4.733   7.041   3.828 -0.7849  2.0381 -2.7803
  473MOL0     H63848   4.707   6.967   3.665 -0.9449 -0.1868  0.4554
  473MOL0     H63849   4.931   6.862   3.849  1.0343 -0.5909  0.0878
  473MOL0     H63850   4.918   6.853   3.669 -2.4687  0.1775 -0.7912
  473MOL0     H63851   5.186   7.168   3.770  1.9911 -1.2203 -1.4770
  473MOL0     H63852   4.456   7.106   4.136 -1.5755  1.8999 -1.2558
  473MOL0     H63853   4.274   7.180   4.263 -1.1591 -1.3823  2.5624
  473MOL0     H63854   4.141   7.176   4.147  0.0413  1.2254  1.0601
  473MOL0     H63855   4.131   7.082   4.288 -0.5648  2.0363 -0.6182
  474MOL0     O63856   4.090   0.710   2.751 -0.3357  0.4460  0.1691
  474MOL0     C63857   4.039   0.804   2.810  0.8588  0.0401 -0.3868
  474MOL0     O63858   3.911   0.857   2.773  0.7804  0.4781  0.6141
  474MOL0     C63859   3.826   0.801   2.673 -0.0641  0.6027  0.0437
  474MOL0     C63860   3.861   0.752   2.553  0.4233  0.1652  0.0962
  474MOL0     C63861   3.769   0.686   2.470  0.3931 -1.0311  0.2627
  474MOL0     C63862   3.636   0.678   2.502  0.4312 -0.5546 -0.4291
  474MOL0     O63863   3.536   0.619   2.429  0.6603 -0.1623 -0.6813
  474MOL0     C63864   3.566   0.487   2.386 -0.0090 -0.2176  0.0209
  474MOL0     C63865   3.491   0.454   2.261  0.1167 -0.6562 -0.8843
  474MOL0     C63866   3.543   0.316   2.208  0.2201 -0.5619  0.1943
  474MOL0     C63867   3.502   0.268   2.072 -0.1800  0.5998  0.9898
  474MOL0     C63868   3.509   0.108   2.061  0.2492 -0.8477 -0.0721
  474MOL0     C63869   3.378   0.064   1.992  0.1034 -0.0048  0.0237
  474MOL0     C63870   3.380  -0.085   1.968  0.2647  0.0658 -0.1032
  474MOL0     C63871   3.258  -0.147   1.902  0.6335  0.5123 -0.6475
  474MOL0     N63872   3.253  -0.105   1.756  0.1624 -0.3160 -0.3321
  474MOL0     C63873   3.211   0.011   1.694  0.6184 -0.2754 -0.1313
  474MOL0     C63874   3.234  -0.017   1.560 -0.4507  0.0225 -0.6274
  474MOL0     C63875   3.206   0.074   1.437  0.1658 -0.0279 -0.6332
  474MOL0     C63876   3.114   0.191   1.462  0.9946 -0.0005 -0.5515
  474MOL0     C63877   3.068   0.249   1.321 -0.7561 -0.2261 -0.5085
  474MOL0     C63878   2.960   0.356   1.338  0.2440 -0.3786 -0.3871
  474MOL0     O63879   2.996   0.448   1.434 -0.0126  0.3246  0.0663
  474MOL0     C63880   2.911   0.542   1.470 -0.3762 -0.6077 -0.1157
  474MOL0     C63881   2.938   0.600   1.601 -0.0430  0.9770  0.7755
  474MOL0     C63882   2.849   0.690   1.655 -0.4742  0.4079 -1.0797
  474MOL0     C63883   2.728   0.723   1.585 -0.7917 -0.5916  0.2168
  474MOL0     C63884   2.630   0.815   1.654  0.0649 -0.6891 -0.5826
  474MOL0     O63885   2.670   0.878   1.763 -0.9199 -0.0860  0.8852
  474MOL0     C63886   2.588   0.947   1.842  0.7800 -0.5908  0.5324
  474MOL0     C63887   2.598   0.903   1.974  0.2094 -0.8773 -0.8553
  474MOL0     C63888   2.507   0.973   2.065 -0.3373  0.5798 -0.2159
  474MOL0     C63889   2.413   1.073   2.031 -0.9231 -0.7310  0.2740
  474MOL0     O63890   2.330   1.135   2.119 -1.2547 -0.1083 -0.0028
  474MOL0     C63891   2.376   1.271   2.142 -0.2402  0.4965  0.6515
  474MOL0     C63892   2.354   1.299   2.292  0.8275  0.0848 -0.7999
  474MOL0     C63893   2.447   1.410   2.348  0.0477  0.4896 -0.5556
  474MOL0     C63894   2.472   1.532   2.254  0.2239  1.2057 -0.0073
  474MOL0     C63895   2.351   1.621   2.219 -0.2153 -0.6184 -0.9170
  474MOL0     C63896   2.290   1.687   2.348  0.5254  0.6068  0.4004
  474MOL0     C63897   2.171   1.764   2.308  0.1118 -0.0020 -1.4212
  474MOL0     C63898   2.076   1.811   2.430  0.1091  0.1653  0.5151
  474MOL0    Cl63899   2.175   1.939   2.510  0.4512  0.1123 -0.2466
  474MOL0     C63900   2.425   1.117   1.901 -0.7583  0.2520  0.5059
  474MOL0     C63901   2.506   1.054   1.806 -0.8685 -0.8315  0.2599
  474MOL0     O63902   2.524   0.835   1.599 -0.4187 -0.0298 -0.0106
  474MOL0     C63903   2.697   0.668   1.453 -0.1868  0.2384  0.0539
  474MOL0     C63904   2.794   0.581   1.398 -0.1407 -0.1756 -0.7103
  474MOL0     N63905   3.312  -0.127   1.553 -0.8585 -0.4224 -0.1506
  474MOL0     N63906   3.309  -0.184   1.668  0.2241  0.2083 -0.2495
  474MOL0     C63907   3.595   0.739   2.626 -0.2738 -0.2988  0.4830
  474MOL0     C63908   3.693   0.800   2.704  1.0789 -0.5795 -1.2082
  474MOL0     C63909   4.104   0.861   2.929  1.0160 -0.3623 -0.7958
  474MOL0     C63910   4.245   0.840   2.945 -0.2984 -0.0739 -0.2544
  474MOL0     C63911   4.328   0.906   3.045  0.4614 -0.1999  0.8119
  474MOL0     C63912   4.268   1.002   3.124 -0.2224 -0.0839  0.2781
  474MOL0     O63913   4.325   1.077   3.223 -0.1628  0.1032  0.1705
  474MOL0     C63914   4.471   1.080   3.227  0.3023  0.1896  0.7190
  474MOL0     C63915   4.527   1.167   3.342  0.1877  0.3891  0.6412
  474MOL0     C63916   4.449   1.138   3.479 -0.9755 -0.0793 -0.4148
  474MOL0     C63917   4.501   1.237   3.585  0.8710  0.0654 -0.2648
  474MOL0     C63918   4.405   1.348   3.596 -0.2393 -0.0222 -0.5943
  474MOL0     C63919   4.334   1.453   3.604 -0.3486  0.1260 -0.0008
  474MOL0     C63920   4.127   1.024   3.112 -0.5054 -0.6522  0.6532
  474MOL0     C63921   4.042   0.964   3.013 -0.4322 -0.1762 -0.9918
  474MOL0     C63922   3.894   0.976   3.032  0.0664  0.1916 -0.8989
  474MOL0     H63923   3.961   0.754   2.511  0.4495  1.4073  0.1791
  474MOL0     H63924   3.799   0.661   2.369  0.1596 -0.6613  0.1009
  474MOL0     H63925   3.672   0.475   2.361 -0.5940 -1.5194 -1.9839
  474MOL0     H63926   3.554   0.411   2.464 -0.8752 -0.9639 -0.8265
  474MOL0     H63927   3.481   0.529   2.182 -1.0849 -0.8120 -0.8968
  474MOL0     H63928   3.389   0.439   2.298  0.2738 -0.5761 -0.4125
  474MOL0     H63929   3.477   0.251   2.266 -3.9540 -0.1482 -3.4967
  474MOL0     H63930   3.649   0.303   2.232  0.6607 -0.2777 -1.4425
  474MOL0     H63931   3.410   0.311   2.031  0.0328 -0.1935 -0.3780
  474MOL0     H63932   3.572   0.305   1.996 -0.0372 -1.7214 -0.1065
  474MOL0     H63933   3.599   0.077   2.008 -0.1939 -1.0314 -0.7264
  474MOL0     H63934   3.518   0.075   2.165  1.6099  2.3986  0.9625
  474MOL0     H63935   3.292   0.089   2.054  1.1381  1.5004  0.9258
  474MOL0     H63936   3.358   0.108   1.894 -2.2767 -2.8291 -0.8922
  474MOL0     H63937   3.398  -0.141   2.061 -1.9219 -2.3765 -1.0176
  474MOL0     H63938   3.462  -0.101   1.898  0.1297 -0.9708 -0.0497
  474MOL0     H63939   3.267  -0.254   1.924 -3.3472  0.7037  3.8039
  474MOL0     H63940   3.170  -0.109   1.956  0.0742  0.3397 -1.4286
  474MOL0     H63941   3.153   0.091   1.738  0.8978 -0.5702  0.7948
  474MOL0     H63942   3.291   0.097   1.371  0.1491 -1.2646 -1.1054
  474MOL0     H63943   3.144   0.013   1.370 -0.3920  1.0417 -1.1160
  474MOL0     H63944   3.023   0.163   1.516 -1.2930  3.7878 -2.0375
  474MOL0     H63945   3.162   0.268   1.523 -0.7567 -2.0692  3.8818
  474MOL0     H63946   3.039   0.171   1.251  1.9048 -3.7410  1.9399
  474MOL0     H63947   3.153   0.296   1.270  0.8005 -1.6392  0.6819
  474MOL0     H63948   2.880   0.295   1.382 -0.3430  0.4989 -0.2104
  474MOL0     H63949   2.930   0.405   1.245  0.1948  0.5020  0.0878
  474MOL0     H63950   3.027   0.564   1.651  1.1664 -2.6721 -3.4464
  474MOL0     H63951   2.843   0.730   1.755 -2.6564 -2.0568 -0.0971
  474MOL0     H63952   2.651   0.816   2.011  0.0911  0.4215  2.7792
  474MOL0     H63953   2.496   0.924   2.161  2.5618 -2.2357 -1.1671
  474MOL0     H63954   2.482   1.276   2.118 -0.6006 -1.1974 -1.6239
  474MOL0     H63955   2.326   1.355   2.092  0.5520  2.4245  2.8941
  474MOL0     H63956   2.251   1.325   2.317  1.6293 -1.0548  5.0371
  474MOL0     H63957   2.378   1.211   2.353  0.9566  0.2412 -0.6233
  474MOL0     H63958   2.407   1.443   2.445  0.0818  0.0899 -0.4032
  474MOL0     H63959   2.542   1.359   2.367 -0.8340 -1.6240 -1.4131
  474MOL0     H63960   2.511   1.500   2.157  0.5216 -0.6539  0.6787
  474MOL0     H63961   2.551   1.586   2.306 -0.9485  0.5159  2.6779
  474MOL0     H63962   2.279   1.555   2.170 -1.4293 -0.7707  0.9758
  474MOL0     H63963   2.382   1.696   2.145 -4.2619  1.5511 -0.7043
  474MOL0     H63964   2.261   1.613   2.423  1.7017 -1.8824 -1.4675
  474MOL0     H63965   2.372   1.746   2.390  1.0880 -0.9210  1.5551
  474MOL0     H63966   2.110   1.713   2.233 -1.6392  1.3682 -0.9996
  474MOL0     H63967   2.201   1.858   2.260  0.6519  1.2921  1.2869
  474MOL0     H63968   2.002   1.869   2.374  0.6758  0.5244  0.1152
  474MOL0     H63969   2.031   1.734   2.492 -0.6143  0.5145  0.4384
  474MOL0     H63970   2.369   1.203   1.866 -0.4620  0.4996  0.6308
  474MOL0     H63971   2.507   1.098   1.707 -2.6838 -0.4012  0.3921
  474MOL0     H63972   2.610   0.698   1.396  0.9701  1.2449 -1.2496
  474MOL0     H63973   2.789   0.541   1.297  3.9795 -1.8658 -0.4477
  474MOL0     H63974   3.492   0.733   2.660 -0.2693 -1.9848  0.2749
  474MOL0     H63975   3.645   0.852   2.786  1.3826  1.4003 -2.2304
  474MOL0     H63976   4.297   0.768   2.882 -2.8879 -2.3016 -0.0073
  474MOL0     H63977   4.436   0.900   3.040  0.4365  0.1121 -3.1106
  474MOL0     H63978   4.510   1.116   3.132 -1.9963 -0.3239 -0.5132
  474MOL0     H63979   4.503   0.975   3.228 -0.5541 -0.2335 -2.6145
  474MOL0     H63980   4.498   1.270   3.319  0.3490  0.2152 -0.4154
  474MOL0     H63981   4.633   1.142   3.351 -0.3123 -2.6901 -0.7677
  474MOL0     H63982   4.469   1.047   3.535  2.2533  0.5677 -0.2772
  474MOL0     H63983   4.342   1.154   3.470 -1.0293 -0.9771 -1.5685
  474MOL0     H63984   4.503   1.173   3.674  1.7311  3.6756  2.5871
  474MOL0     H63985   4.603   1.271   3.563  0.4036  0.8735 -1.2587
  474MOL0     H63986   4.277   1.543   3.607 -0.9277 -0.2220 -0.2521
  474MOL0     H63987   4.090   1.090   3.190  2.0206  0.0259  1.3418
  474MOL0     H63988   3.883   1.034   3.125  1.6020  1.4323 -1.4613
  474MOL0     H63989   3.845   1.044   2.961 -4.4180 -2.7889 -1.0799
  474MOL0     H63990   3.840   0.881   3.026 -0.3082  0.4239 -1.2337
  475MOL0     O63991   9.571   3.465   8.567 -0.9255 -0.0894  0.5071
  475MOL0     C63992   9.661   3.467   8.484  0.0982 -0.1965  0.2592
  475MOL0     O63993   9.792   3.440   8.507  0.1449 -0.3305 -0.1174
  475MOL0     C63994   9.819   3.368   8.621 -0.1628  0.2622  0.8047
  475MOL0     C63995   9.844   3.422   8.743 -0.1100  0.2454 -0.5977
  475MOL0     C63996   9.871   3.343   8.856 -0.5676  0.7421 -0.1747
  475MOL0     C63997   9.867   3.208   8.842  0.7150 -0.2726 -0.3210
  475MOL0     O63998   9.884   3.118   8.940  0.4422  0.6565 -0.1418
  475MOL0     C63999  10.014   3.117   9.010 -0.5981 -0.4128 -0.7765
  475MOL0     C64000   9.985   3.148   9.152  0.0693  0.1163  1.2819
  475MOL0     C64001  10.100   3.208   9.238 -0.9067  0.5161 -0.2510
  475MOL0     C64002  10.198   3.081   9.257 -0.1301 -0.7615  0.1940
  475MOL0     C64003  10.327   3.128   9.336  0.5050 -0.4039  0.1499
  475MOL0     C64004  10.443   3.025   9.336  0.6691 -0.5821  0.0296
  475MOL0     C64005  10.433   2.920   9.449 -0.1732  0.1321  0.6701
  475MOL0     C64006  10.473   2.975   9.587  0.1362 -0.6925 -0.0683
  475MOL0     N64007  10.426   2.882   9.688  0.2491 -0.1479  0.7271
  475MOL0     C64008  10.294   2.852   9.710  0.2096  0.1263  0.5839
  475MOL0     C64009  10.301   2.754   9.803  0.0914  0.0858 -0.7800
  475MOL0     C64010  10.184   2.687   9.861  0.1086  0.0545 -0.1026
  475MOL0     C64011  10.133   2.777   9.982 -0.3736  0.0867  0.2597
  475MOL0     C64012  10.009   2.719  10.057 -0.6268  0.9359  0.1902
  475MOL0     C64013  10.023   2.572  10.109  0.8494 -0.0396 -0.7683
  475MOL0     O64014  10.138   2.574  10.201  0.1272 -0.2938 -0.3074
  475MOL0     C64015  10.101   2.621  10.324 -0.5682  0.4117 -0.1755
  475MOL0     C64016  10.155   2.747  10.373  0.2080 -0.0151 -0.7372
  475MOL0     C64017  10.127   2.783  10.505 -0.1071 -1.0122 -0.4634
  475MOL0     C64018  10.058   2.699  10.595 -0.3149 -1.0990  0.2345
  475MOL0     C64019  10.020   2.756  10.731  0.7837  0.0648 -0.9166
  475MOL0     O64020   9.916   2.693  10.796  0.1003 -0.3861  0.3928
  475MOL0     C64021   9.858   2.748  10.907 -0.1014 -1.3719 -0.5338
  475MOL0     C64022   9.719   2.753  10.900 -0.9154 -0.0698 -0.2157
  475MOL0     C64023   9.644   2.813  11.008  0.0961  0.8100  0.0345
  475MOL0     C64024   9.708   2.862  11.121  0.3159  0.0823 -0.4298
  475MOL0     O64025   9.629   2.919  11.218  0.2653  0.3799 -0.0892
  475MOL0     C64026   9.691   2.993  11.327  0.2792  0.2668 -0.2543
  475MOL0     C64027   9.580   3.051  11.421  0.2503  0.1365 -0.8326
  475MOL0     C64028   9.511   2.933  11.494 -0.2244  0.8792 -0.9788
  475MOL0     C64029   9.458   2.977  11.636  0.4271  0.2149 -0.4264
  475MOL0     C64030   9.441   2.856  11.725  0.4114  0.2498 -0.2124
  475MOL0     C64031   9.424   2.893  11.869  0.3102 -0.4738 -0.0201
  475MOL0     C64032   9.285   2.950  11.886  0.3093  0.2275 -0.5538
  475MOL0     C64033   9.247   2.955  12.031 -0.0239  0.6415 -0.2978
  475MOL0    Cl64034   9.197   2.783  12.081  0.0803  0.2779  0.0630
  475MOL0     C64035   9.842   2.855  11.126 -0.1661  0.1264 -0.4836
  475MOL0     C64036   9.913   2.798  11.023  0.1375 -0.2100  0.8919
  475MOL0     O64037  10.069   2.869  10.765  0.3174  0.1070 -0.5780
  475MOL0     C64038  10.013   2.579  10.547 -0.3017  0.2357 -0.2804
  475MOL0     C64039  10.032   2.535  10.415 -0.1746  0.3348  0.2694
  475MOL0     N64040  10.432   2.722   9.828  0.2217 -0.0276 -0.0917
  475MOL0     N64041  10.509   2.798   9.755 -1.1323  0.1537 -0.4353
  475MOL0     C64042   9.833   3.147   8.726  0.8069  0.3625 -0.4211
  475MOL0     C64043   9.803   3.230   8.613  0.8563  0.5664  0.4075
  475MOL0     C64044   9.642   3.512   8.343  0.7623 -0.3892 -0.8728
  475MOL0     C64045   9.723   3.608   8.305 -0.8273  0.5679  1.1719
  475MOL0     C64046   9.713   3.670   8.177 -0.0749 -0.8786  0.3324
  475MOL0     C64047   9.622   3.623   8.086  1.1071  0.1420  0.6809
  475MOL0     O64048   9.607   3.670   7.960 -0.2671  0.1495  0.6798
  475MOL0     C64049   9.486   3.744   7.947  0.0031  0.1726 -0.3542
  475MOL0     C64050   9.477   3.880   8.019 -0.4748  0.5070 -0.1674
  475MOL0     C64051   9.356   3.964   7.996  0.4062 -0.2123 -0.4066
  475MOL0     C64052   9.351   4.090   8.085  0.2445  0.3151 -0.0240
  475MOL0     C64053   9.206   4.136   8.088  0.3438 -0.0385 -0.2272
  475MOL0     C64054   9.092   4.167   8.103 -0.8092 -0.6881  0.1349
  475MOL0     C64055   9.542   3.507   8.122  0.4630 -0.2380  0.6137
  475MOL0     C64056   9.546   3.454   8.257 -0.0841 -0.1703 -0.1163
  475MOL0     C64057   9.440   3.361   8.314  0.0976 -0.0403  0.8323
  475MOL0     H64058   9.827   3.529   8.737  0.3908  0.2257 -3.9159
  475MOL0     H64059   9.883   3.400   8.947  1.9852  0.5355 -0.3092
  475MOL0     H64060  10.069   3.023   8.997  0.6383  0.4289 -1.8890
  475MOL0     H64061  10.071   3.203   8.975  0.1397  0.9432  3.2427
  475MOL0     H64062   9.962   3.051   9.198  1.2000 -1.3974 -1.1233
  475MOL0     H64063   9.906   3.221   9.172 -0.0914  0.7250 -1.2464
  475MOL0     H64064  10.065   3.244   9.335 -0.8340 -2.5511  1.0146
  475MOL0     H64065  10.156   3.286   9.185  0.2312  0.9743  1.5481
  475MOL0     H64066  10.152   2.994   9.303 -1.0763 -0.4802 -0.1875
  475MOL0     H64067  10.229   3.053   9.157  1.6020  2.2850 -0.2453
  475MOL0     H64068  10.354   3.221   9.284 -1.5118  1.0118  1.5016
  475MOL0     H64069  10.299   3.162   9.436  0.3639  1.0187 -0.3475
  475MOL0     H64070  10.457   2.979   9.237  2.6082  1.6660 -0.8356
  475MOL0     H64071  10.529   3.087   9.360 -0.4766  0.3025  2.0473
  475MOL0     H64072  10.506   2.844   9.420 -1.4177 -0.3985 -1.2772
  475MOL0     H64073  10.337   2.867   9.450  0.8831 -1.9100  2.7959
  475MOL0     H64074  10.582   2.983   9.583  0.1456 -1.0923 -0.8353
  475MOL0     H64075  10.432   3.076   9.602  0.8237 -0.1884 -1.4536
  475MOL0     H64076  10.211   2.895   9.655  2.3195  0.7105 -2.3744
  475MOL0     H64077  10.110   2.666   9.783  0.1382 -0.1356 -0.0788
  475MOL0     H64078  10.211   2.590   9.904 -1.4897 -0.2173  0.3824
  475MOL0     H64079  10.213   2.786  10.055  2.1368  1.4093 -2.4264
  475MOL0     H64080  10.113   2.876   9.939  1.3744 -0.3689 -1.7466
  475MOL0     H64081   9.930   2.712   9.982  0.1878  0.0567 -0.6243
  475MOL0     H64082   9.968   2.789  10.130 -0.5367  1.3723 -0.1750
  475MOL0     H64083  10.034   2.502  10.026 -0.1200 -0.5801 -0.4560
  475MOL0     H64084   9.936   2.549  10.172  3.0106  1.7286  3.2454
  475MOL0     H64085  10.223   2.802  10.309 -0.3634 -2.4520 -3.6923
  475MOL0     H64086  10.173   2.876  10.538 -3.1116  0.5098 -0.1591
  475MOL0     H64087   9.664   2.725  10.810  0.7453  1.0875 -1.6662
  475MOL0     H64088   9.539   2.830  10.986 -0.3432 -1.8107 -0.2135
  475MOL0     H64089   9.757   2.923  11.380 -0.8950 -0.8307 -0.2073
  475MOL0     H64090   9.744   3.076  11.280 -3.3786  3.5584  0.9330
  475MOL0     H64091   9.620   3.125  11.491 -0.1945  0.5916 -1.0522
  475MOL0     H64092   9.505   3.101  11.358 -1.8690  0.9233  2.1055
  475MOL0     H64093   9.429   2.895  11.432 -3.2791  5.1038  0.0774
  475MOL0     H64094   9.580   2.849  11.511 -0.7595  0.9754  2.1667
  475MOL0     H64095   9.355   3.008  11.615  1.1980  2.0751 -1.7180
  475MOL0     H64096   9.516   3.059  11.679  0.8565  0.3158 -1.1818
  475MOL0     H64097   9.531   2.794  11.720 -0.5851 -1.4423  1.4776
  475MOL0     H64098   9.353   2.799  11.695  1.7587 -0.8540 -2.3260
  475MOL0     H64099   9.452   2.805  11.927  2.1173 -0.6009 -1.0145
  475MOL0     H64100   9.493   2.972  11.901  2.0737 -3.1059  3.2570
  475MOL0     H64101   9.211   2.887  11.837  2.2187 -2.2006 -0.4963
  475MOL0     H64102   9.286   3.055  11.857 -0.3977  0.5591  0.5285
  475MOL0     H64103   9.326   2.989  12.099 -0.2453 -1.8476  1.3408
  475MOL0     H64104   9.165   3.027  12.037  3.6725  5.4247 -0.8137
  475MOL0     H64105   9.902   2.878  11.214  2.7734 -0.4920 -2.1625
  475MOL0     H64106  10.021   2.800  11.018  0.1851 -0.4340 -5.0119
  475MOL0     H64107   9.956   2.507  10.604 -2.2759  3.6413  2.4327
  475MOL0     H64108  10.004   2.435  10.381 -1.8650  0.4046  1.3335
  475MOL0     H64109   9.829   3.040   8.741 -0.0287  0.3456 -0.6929
  475MOL0     H64110   9.774   3.189   8.517 -0.7876  3.2623 -0.3556
  475MOL0     H64111   9.800   3.650   8.369 -0.5955  1.0122  0.6112
  475MOL0     H64112   9.767   3.758   8.145  0.4813 -1.5875 -0.7625
  475MOL0     H64113   9.399   3.682   7.973  1.3321 -2.4209 -1.6223
  475MOL0     H64114   9.484   3.773   7.841  1.5633  2.4106  0.1558
  475MOL0     H64115   9.568   3.930   7.986 -1.1519  0.8777 -1.5921
  475MOL0     H64116   9.499   3.872   8.125  0.0255  5.4058  0.3075
  475MOL0     H64117   9.263   3.913   8.019 -1.5151  4.0762  2.5685
  475MOL0     H64118   9.363   3.984   7.888  1.0948  0.3742 -0.2585
  475MOL0     H64119   9.392   4.076   8.185  1.5647 -2.8176 -0.8960
  475MOL0     H64120   9.406   4.174   8.041 -1.2818  1.0768 -0.5614
  475MOL0     H64121   8.998   4.205   8.137 -2.1827 -2.5847 -1.3935
  475MOL0     H64122   9.465   3.469   8.055 -0.8923  2.2329  0.6265
  475MOL0     H64123   9.390   3.320   8.226 -0.4447  0.9608  0.6657
  475MOL0     H64124   9.493   3.275   8.356 -2.1450 -2.2401 -0.5696
  475MOL0     H64125   9.376   3.418   8.382 -1.7246  5.3969 -4.5841
  476MOL0     O64126   4.941   3.944   4.960  0.5311 -0.3453  0.9656
  476MOL0     C64127   4.972   3.883   5.063  0.3259  0.2124 -0.5584
  476MOL0     O64128   4.910   3.896   5.183  0.2034  0.3637 -0.3164
  476MOL0     C64129   4.795   3.968   5.202  0.0746  0.2679  0.5841
  476MOL0     C64130   4.721   3.922   5.313  0.6117 -0.2438 -0.4593
  476MOL0     C64131   4.616   4.000   5.364  0.1735 -0.2876 -0.7865
  476MOL0     C64132   4.577   4.124   5.310  0.5248  0.1744  0.8039
  476MOL0     O64133   4.480   4.204   5.381 -0.6388 -0.6240  0.4894
  476MOL0     C64134   4.353   4.145   5.407 -0.0147 -0.0480  0.4522
  476MOL0     C64135   4.276   4.119   5.282  0.0459  0.0789 -0.6106
  476MOL0     C64136   4.289   4.221   5.173  0.0677 -0.4767  0.2099
  476MOL0     C64137   4.254   4.366   5.209 -0.4053 -0.0765  0.2704
  476MOL0     C64138   4.376   4.460   5.185 -0.0945  0.4317  0.1393
  476MOL0     C64139   4.348   4.600   5.240  0.2090  0.5422 -0.5534
  476MOL0     C64140   4.459   4.707   5.194  0.4674 -0.1081 -0.2370
  476MOL0     C64141   4.428   4.852   5.239  1.0925 -0.1778  0.6570
  476MOL0     N64142   4.414   4.875   5.380  0.1641 -0.0553  0.0656
  476MOL0     C64143   4.512   4.866   5.474  0.3655 -0.4791 -0.0752
  476MOL0     C64144   4.449   4.878   5.595  0.9753 -0.2409  0.4583
  476MOL0     C64145   4.513   4.877   5.732  0.4568 -0.1024 -0.0460
  476MOL0     C64146   4.414   4.862   5.856 -1.2370 -1.1512  0.4195
  476MOL0     C64147   4.345   4.733   5.849  0.8178  0.5336 -0.0925
  476MOL0     C64148   4.259   4.708   5.975  0.0860  1.3456 -0.0210
  476MOL0     O64149   4.158   4.812   5.995 -0.1666 -0.4726 -0.3629
  476MOL0     C64150   4.034   4.807   5.941 -0.4269  0.3254 -0.8431
  476MOL0     C64151   3.927   4.807   6.034  0.2916  0.0069 -0.7903
  476MOL0     C64152   3.804   4.779   5.982  0.2624  0.0565  1.1473
  476MOL0     C64153   3.784   4.754   5.842  0.8599  0.0215  0.2827
  476MOL0     C64154   3.651   4.702   5.791  0.2480  0.5245 -0.2720
  476MOL0     O64155   3.637   4.652   5.667 -0.2724  0.7726  0.2973
  476MOL0     C64156   3.527   4.576   5.634 -0.4258  0.2463  0.2809
  476MOL0     C64157   3.515   4.441   5.650  0.2436  0.3386 -0.5721
  476MOL0     C64158   3.392   4.377   5.612 -0.3722  0.4469  0.2365
  476MOL0     C64159   3.278   4.448   5.564 -0.5673  0.1820 -0.4866
  476MOL0     O64160   3.156   4.394   5.548  0.1843  0.3594 -0.5396
  476MOL0     C64161   3.158   4.251   5.509  0.0402  0.1921 -0.5833
  476MOL0     C64162   3.028   4.214   5.443 -0.9804  0.6503 -0.9101
  476MOL0     C64163   2.908   4.225   5.547  0.5228 -0.7062  1.1550
  476MOL0     C64164   2.766   4.232   5.467 -0.2592 -0.0915 -0.5646
  476MOL0     C64165   2.652   4.201   5.561 -0.1106 -0.0958  0.6442
  476MOL0     C64166   2.621   4.312   5.654  0.1577  0.0370  0.1382
  476MOL0     C64167   2.523   4.270   5.764  0.4636 -0.0669 -0.3623
  476MOL0     C64168   2.407   4.376   5.782  1.2687  1.0561 -0.5146
  476MOL0    Cl64169   2.292   4.326   5.925  0.3751 -0.0744 -0.4144
  476MOL0     C64170   3.291   4.586   5.560 -0.4315  0.4140  0.0855
  476MOL0     C64171   3.412   4.650   5.585 -0.8825  0.5120 -0.0114
  476MOL0     O64172   3.558   4.692   5.873 -0.7832 -0.1814  0.2814
  476MOL0     C64173   3.886   4.765   5.750 -0.2174 -0.0565  0.1336
  476MOL0     C64174   4.021   4.787   5.796  0.4194  0.7453  0.2705
  476MOL0     N64175   4.310   4.899   5.570  0.2387 -0.8384  0.6939
  476MOL0     N64176   4.297   4.888   5.443  0.0931  0.8352 -0.5441
  476MOL0     C64177   4.649   4.167   5.194  0.4490  0.0419  0.4356
  476MOL0     C64178   4.760   4.093   5.140  0.4549  0.0615  0.3929
  476MOL0     C64179   5.086   3.799   5.046  0.7601  1.0247  0.4051
  476MOL0     C64180   5.152   3.806   4.929 -0.3614 -0.5642  0.4154
  476MOL0     C64181   5.261   3.727   4.904  0.2274  0.3929  0.3234
  476MOL0     C64182   5.317   3.647   4.998  0.7070 -0.0277  0.3315
  476MOL0     O64183   5.418   3.564   4.979  0.1579  0.1934 -0.1778
  476MOL0     C64184   5.400   3.420   4.977 -0.4739  0.1101  0.8454
  476MOL0     C64185   5.482   3.357   5.091 -1.3829 -0.1177  0.1979
  476MOL0     C64186   5.405   3.245   5.158 -0.1351  0.1533  0.0328
  476MOL0     C64187   5.475   3.177   5.270  0.3045  0.8143 -0.6435
  476MOL0     C64188   5.481   3.259   5.392  0.1181  0.2723 -0.3011
  476MOL0     C64189   5.480   3.338   5.487  0.1608 -0.7088 -0.3740
  476MOL0     C64190   5.251   3.622   5.117 -0.9757  0.5555  0.6029
  476MOL0     C64191   5.134   3.700   5.148 -0.3600 -0.0442  0.6297
  476MOL0     C64192   5.076   3.670   5.277  0.2351 -0.9953  0.1242
  476MOL0     H64193   4.757   3.834   5.366  0.3997  1.7420  3.2711
  476MOL0     H64194   4.572   3.962   5.456  3.2911 -0.2645  0.8708
  476MOL0     H64195   4.364   4.052   5.463 -2.4317  0.6333  2.2109
  476MOL0     H64196   4.291   4.206   5.473  0.7480 -0.0451  1.1824
  476MOL0     H64197   4.172   4.090   5.304  1.0698 -2.2512  1.7957
  476MOL0     H64198   4.333   4.034   5.243  2.0029  1.5717 -1.1752
  476MOL0     H64199   4.230   4.186   5.088  2.4239  0.2682 -1.8781
  476MOL0     H64200   4.390   4.217   5.129  0.1064  0.9730  0.1343
  476MOL0     H64201   4.178   4.409   5.143  1.6876  1.4112 -1.3232
  476MOL0     H64202   4.208   4.371   5.308 -3.0974  0.5113 -0.9326
  476MOL0     H64203   4.473   4.429   5.226 -0.0169  0.2562 -0.1755
  476MOL0     H64204   4.395   4.465   5.077  2.0348  2.6375  0.5182
  476MOL0     H64205   4.249   4.629   5.204  0.4670  0.1990 -1.5512
  476MOL0     H64206   4.346   4.595   5.350  1.1490 -2.8305 -0.5876
  476MOL0     H64207   4.476   4.706   5.086 -1.1048  1.5412 -0.5603
  476MOL0     H64208   4.547   4.676   5.250 -0.0804  3.1123  2.7585
  476MOL0     H64209   4.512   4.916   5.210  0.2858  2.1897  3.1294
  476MOL0     H64210   4.337   4.876   5.184  2.3574 -0.4578 -1.7058
  476MOL0     H64211   4.617   4.873   5.451  0.4689 -2.3122 -0.3000
  476MOL0     H64212   4.573   4.786   5.723  0.0733 -0.4499  0.7526
  476MOL0     H64213   4.577   4.965   5.745 -1.6547  1.4197  0.5684
  476MOL0     H64214   4.474   4.878   5.946  2.2515  0.7617 -2.0038
  476MOL0     H64215   4.342   4.944   5.844 -0.6088 -0.4269  1.4207
  476MOL0     H64216   4.431   4.665   5.849  0.9900  0.7205 -1.3767
  476MOL0     H64217   4.282   4.706   5.764 -0.7402  0.2720  1.0997
  476MOL0     H64218   4.323   4.706   6.064  1.8115  3.2783 -1.1471
  476MOL0     H64219   4.211   4.609   5.972  0.5049  1.1274 -3.3517
  476MOL0     H64220   3.951   4.832   6.137  3.0273  1.7183 -1.7274
  476MOL0     H64221   3.718   4.767   6.047  0.3434 -3.9247  0.7883
  476MOL0     H64222   3.598   4.383   5.688 -0.7264  1.1569  3.1642
  476MOL0     H64223   3.378   4.273   5.637 -3.6496  0.5507 -0.6898
  476MOL0     H64224   3.239   4.225   5.440 -0.5497 -0.3089 -1.1036
  476MOL0     H64225   3.157   4.186   5.596 -1.1035  2.0674  0.8833
  476MOL0     H64226   3.010   4.280   5.358  1.2497  2.4538 -0.0656
  476MOL0     H64227   3.027   4.112   5.403  0.2885  0.0778  0.4253
  476MOL0     H64228   2.901   4.156   5.631 -1.0282  1.8961  3.3119
  476MOL0     H64229   2.924   4.321   5.597  4.0475 -0.8726  0.6601
  476MOL0     H64230   2.775   4.155   5.391 -2.3294  2.6490 -3.9180
  476MOL0     H64231   2.748   4.325   5.412  0.2252 -0.3501 -1.1752
  476MOL0     H64232   2.674   4.102   5.602 -1.9075 -1.2603 -1.0333
  476MOL0     H64233   2.558   4.200   5.505 -0.1999  0.1750  0.7860
  476MOL0     H64234   2.710   4.345   5.709  0.3707  0.6854 -0.5812
  476MOL0     H64235   2.587   4.400   5.599  3.4947  0.1012 -2.1443
  476MOL0     H64236   2.574   4.254   5.859 -1.3130 -0.9474  0.5021
  476MOL0     H64237   2.480   4.170   5.751  2.8479 -1.8247  3.5071
  476MOL0     H64238   2.439   4.479   5.802 -1.2234  1.5030  1.8700
  476MOL0     H64239   2.350   4.363   5.689  2.4398  2.1327 -1.4165
  476MOL0     H64240   3.201   4.644   5.543  1.0441  2.8822  0.2694
  476MOL0     H64241   3.422   4.756   5.564  2.3556 -0.2792 -3.6963
  476MOL0     H64242   3.860   4.740   5.647 -1.7280  0.8437  0.2667
  476MOL0     H64243   4.101   4.821   5.731  0.5114 -1.8086 -1.0739
  476MOL0     H64244   4.632   4.263   5.145  1.7742  0.9320  1.6616
  476MOL0     H64245   4.810   4.134   5.053  0.3051 -1.3062 -0.3829
  476MOL0     H64246   5.145   3.889   4.858 -3.3837  0.0186  1.2628
  476MOL0     H64247   5.304   3.733   4.804  0.6749 -1.6808  0.3439
  476MOL0     H64248   5.450   3.385   4.887  0.6148  1.8021  0.7586
  476MOL0     H64249   5.298   3.380   4.969  1.0095 -4.0984  0.5467
  476MOL0     H64250   5.501   3.441   5.159 -1.4870 -0.3942  0.5671
  476MOL0     H64251   5.576   3.325   5.044 -0.5784  1.8473  0.3541
  476MOL0     H64252   5.373   3.169   5.086 -1.5425 -0.0638  0.8538
  476MOL0     H64253   5.319   3.293   5.205  0.9717  0.4077  1.8964
  476MOL0     H64254   5.415   3.091   5.300  1.2436  0.5046  0.4102
  476MOL0     H64255   5.579   3.156   5.243  0.8029  0.2287  1.5667
  476MOL0     H64256   5.487   3.386   5.582  0.2792 -1.9454  0.2731
  476MOL0     H64257   5.298   3.552   5.186 -2.8886  0.6009  2.0064
  476MOL0     H64258   5.068   3.767   5.327  3.3971  0.3912 -1.7613
  476MOL0     H64259   4.979   3.620   5.281 -0.5947  0.5361 -0.2149
  476MOL0     H64260   5.143   3.607   5.338 -2.4484 -3.7179  0.4865
  477MOL0     O64261  11.403   6.668   3.925  0.2627  0.0274  0.0708
  477MOL0     C64262  11.386   6.722   3.815 -0.3104 -0.7001 -0.5847
  477MOL0     O64263  11.412   6.652   3.695  1.3055 -0.5914  0.1290
  477MOL0     C64264  11.527   6.570   3.683 -0.0633  0.9563 -0.0693
  477MOL0     C64265  11.522   6.462   3.591 -0.2088  0.1616  0.0132
  477MOL0     C64266  11.642   6.387   3.564  0.7486 -0.2860 -0.0528
  477MOL0     C64267  11.756   6.411   3.629 -0.1611 -0.6236  0.2199
  477MOL0     O64268  11.862   6.326   3.596 -0.6026 -0.9569 -0.1662
  477MOL0     C64269  11.996   6.357   3.639  0.2322  0.2729 -1.3243
  477MOL0     C64270  12.113   6.263   3.604  1.0627 -0.6149  0.9083
  477MOL0     C64271  12.074   6.117   3.572  0.0330 -0.1558 -0.4140
  477MOL0     C64272  12.190   6.031   3.548 -1.0613  0.3949 -0.1143
  477MOL0     C64273  12.164   5.909   3.455  0.1676 -0.3860  0.0001
  477MOL0     C64274  12.279   5.813   3.440  0.2872  0.1320  0.1796
  477MOL0     C64275  12.259   5.710   3.327 -0.0879 -0.4715 -0.2847
  477MOL0     C64276  12.360   5.596   3.338 -0.0639  0.6491 -1.2462
  477MOL0     N64277  12.373   5.536   3.207 -0.5098  0.1319 -0.6632
  477MOL0     C64278  12.289   5.452   3.136 -0.3627 -0.6866  0.8820
  477MOL0     C64279  12.369   5.425   3.022  1.0872 -0.3228  0.8280
  477MOL0     C64280  12.311   5.347   2.909  0.0080  0.0036 -0.0452
  477MOL0     C64281  12.262   5.449   2.800 -0.1912 -0.6387 -0.0842
  477MOL0     C64282  12.129   5.513   2.838 -0.2402 -0.2199  0.2137
  477MOL0     C64283  12.157   5.657   2.907  0.3257  0.5836  0.4079
  477MOL0     O64284  12.065   5.665   3.015 -0.0044  0.0918  0.8539
  477MOL0     C64285  12.026   5.783   3.070  0.1653 -1.1217 -0.1668
  477MOL0     C64286  12.073   5.913   3.044  0.2570  0.8417  0.3986
  477MOL0     C64287  12.026   6.025   3.101 -0.0140  0.6060  0.1341
  477MOL0     C64288  11.926   6.016   3.197  0.1032  0.3447 -0.6671
  477MOL0     C64289  11.865   6.142   3.243 -0.0811  0.3744 -0.0752
  477MOL0     O64290  11.904   6.249   3.174 -0.3248  0.2856 -0.3491
  477MOL0     C64291  11.876   6.371   3.229 -0.3472 -0.1022 -0.4639
  477MOL0     C64292  11.979   6.455   3.272 -0.5615 -0.2377 -1.1471
  477MOL0     C64293  11.957   6.585   3.329  0.1465  0.2205 -0.2860
  477MOL0     C64294  11.820   6.632   3.339 -0.2774 -0.4871 -0.3325
  477MOL0     O64295  11.806   6.762   3.390 -0.5916 -0.0842  0.0193
  477MOL0     C64296  11.677   6.824   3.361 -0.1943  0.3074  0.1529
  477MOL0     C64297  11.680   6.953   3.446  0.0906  0.2148 -0.1678
  477MOL0     C64298  11.669   6.925   3.591 -1.5511  0.7970  0.5921
  477MOL0     C64299  11.677   7.058   3.673  0.0551 -0.3212 -0.0774
  477MOL0     C64300  11.690   7.017   3.825 -0.5557  0.4689 -0.0538
  477MOL0     C64301  11.754   7.115   3.911  0.1479 -0.8078 -0.0177
  477MOL0     C64302  11.784   7.058   4.055  0.4751 -0.0626 -0.6519
  477MOL0     C64303  11.706   7.122   4.169 -0.1780  0.6169  0.7313
  477MOL0    Cl64304  11.535   7.069   4.166  0.3586 -0.3665  0.3272
  477MOL0     C64305  11.721   6.544   3.303  0.7513  0.2382  0.6272
  477MOL0     C64306  11.747   6.419   3.243  0.3846 -0.6703 -0.0403
  477MOL0     O64307  11.785   6.141   3.338 -0.5530 -0.7286  0.1534
  477MOL0     C64308  11.876   5.889   3.233 -0.3035  0.6518 -0.5356
  477MOL0     C64309  11.926   5.776   3.167 -0.6977 -0.3616 -0.7808
  477MOL0     N64310  12.496   5.465   3.030 -0.7276 -0.1297  0.7551
  477MOL0     N64311  12.496   5.537   3.146  0.5477  0.0462  1.1548
  477MOL0     C64312  11.756   6.516   3.722 -0.5183 -1.3793  0.0756
  477MOL0     C64313  11.649   6.592   3.748 -0.6880  0.7627  0.1113
  477MOL0     C64314  11.325   6.853   3.813 -0.0332  0.4876 -0.3289
  477MOL0     C64315  11.328   6.927   3.941  0.6266 -0.3426 -0.3410
  477MOL0     C64316  11.259   7.048   3.959 -0.2708 -0.1204 -0.2017
  477MOL0     C64317  11.174   7.095   3.852 -0.1860  0.5169  0.3470
  477MOL0     O64318  11.080   7.202   3.854 -0.0371 -0.1431  0.2343
  477MOL0     C64319  11.136   7.327   3.803  0.5486  0.3632  0.3985
  477MOL0     C64320  11.153   7.423   3.921 -0.0192  0.2346 -0.0354
  477MOL0     C64321  11.304   7.424   3.964  0.2368 -0.7646 -0.1410
  477MOL0     C64322  11.327   7.485   4.095  0.0573 -0.5404  0.2855
  477MOL0     C64323  11.314   7.406   4.212 -1.0304 -0.6484 -0.7884
  477MOL0     C64324  11.344   7.345   4.312 -0.3751  0.9342  0.3942
  477MOL0     C64325  11.176   7.025   3.734 -0.1040 -1.5295  0.5395
  477MOL0     C64326  11.254   6.909   3.707  1.1291 -0.4884  1.4305
  477MOL0     C64327  11.260   6.858   3.558 -0.0748 -0.7075 -0.5260
  477MOL0     H64328  11.429   6.434   3.542  0.7535 -2.9219 -0.2546
  477MOL0     H64329  11.631   6.297   3.503 -0.4196 -1.4566  1.7864
  477MOL0     H64330  12.024   6.457   3.604  3.5643 -0.3699 -0.7952
  477MOL0     H64331  11.987   6.360   3.748 -1.6769  1.5258 -1.4617
  477MOL0     H64332  12.192   6.252   3.679  1.8137 -0.1817  0.2026
  477MOL0     H64333  12.150   6.304   3.510  1.9071 -1.1351  1.0005
  477MOL0     H64334  12.006   6.120   3.486  1.6500  0.4487 -1.7084
  477MOL0     H64335  12.003   6.067   3.639  2.6920 -2.4826  0.8920
  477MOL0     H64336  12.269   6.082   3.492  0.1965 -1.5837 -0.2451
  477MOL0     H64337  12.241   5.989   3.635  1.6249  0.9786 -1.2920
  477MOL0     H64338  12.077   5.850   3.484 -0.9142  0.9885 -0.3266
  477MOL0     H64339  12.150   5.953   3.355  1.0888 -1.2788 -0.5369
  477MOL0     H64340  12.371   5.871   3.430 -0.4633  1.7948  2.2398
  477MOL0     H64341  12.285   5.753   3.531 -4.4638 -1.4745 -0.2763
  477MOL0     H64342  12.274   5.765   3.234 -0.9948 -0.4585 -0.4286
  477MOL0     H64343  12.156   5.674   3.334  0.1279 -1.1721 -0.6752
  477MOL0     H64344  12.454   5.638   3.374 -0.2865  1.3304 -1.4281
  477MOL0     H64345  12.334   5.524   3.416 -1.4887  0.9035 -1.4537
  477MOL0     H64346  12.184   5.457   3.161 -0.1426  0.7305  1.6887
  477MOL0     H64347  12.385   5.279   2.865  0.8266 -0.0735  1.3844
  477MOL0     H64348  12.229   5.281   2.938 -1.7053  2.9302  2.1755
  477MOL0     H64349  12.329   5.529   2.764 -3.5929  2.1776 -0.7244
  477MOL0     H64350  12.230   5.395   2.711 -1.1320 -1.6335  0.8308
  477MOL0     H64351  12.084   5.455   2.919 -0.5361  2.0057  1.7094
  477MOL0     H64352  12.066   5.544   2.753 -1.8384 -0.4740  1.2535
  477MOL0     H64353  12.145   5.745   2.843 -3.6515 -0.6778 -0.9007
  477MOL0     H64354  12.262   5.656   2.939  0.4426 -3.6553  0.5101
  477MOL0     H64355  12.163   5.931   2.985 -0.4287  2.1212 -0.3045
  477MOL0     H64356  12.073   6.119   3.072 -0.9001  0.7985 -0.7302
  477MOL0     H64357  12.083   6.429   3.255 -0.5125 -2.5100  1.8320
  477MOL0     H64358  12.047   6.637   3.362  0.6713 -1.4188  1.0071
  477MOL0     H64359  11.672   6.849   3.255  0.3964  1.4080  0.3652
  477MOL0     H64360  11.586   6.771   3.391  1.2168 -1.8978  0.8150
  477MOL0     H64361  11.771   7.006   3.416 -0.3829 -0.3378 -2.8888
  477MOL0     H64362  11.593   7.016   3.426  0.5041  1.6394  2.1808
  477MOL0     H64363  11.572   6.882   3.616 -2.0069  1.9507  0.9180
  477MOL0     H64364  11.744   6.852   3.620 -1.2414 -0.6940 -3.4225
  477MOL0     H64365  11.589   7.119   3.650  0.4593  0.0551 -0.6459
  477MOL0     H64366  11.767   7.117   3.654 -0.7402  1.4185  1.2491
  477MOL0     H64367  11.740   6.921   3.836  1.0435  1.5307  2.9289
  477MOL0     H64368  11.594   6.996   3.872  0.0917  2.5173  2.3999
  477MOL0     H64369  11.844   7.168   3.877 -0.9782  1.6666  0.6308
  477MOL0     H64370  11.680   7.194   3.923  2.3690  1.9377 -2.7715
  477MOL0     H64371  11.891   7.068   4.076  0.4677 -0.0231 -0.6324
  477MOL0     H64372  11.769   6.951   4.040  0.7070 -0.4120  1.3042
  477MOL0     H64373  11.726   7.071   4.264 -1.7139 -2.2799 -0.3623
  477MOL0     H64374  11.724   7.229   4.179  2.8322  0.3093 -0.6159
  477MOL0     H64375  11.613   6.550   3.308  0.6044 -0.8746 -0.6408
  477MOL0     H64376  11.678   6.339   3.220  1.8900 -2.0558  0.0696
  477MOL0     H64377  11.792   5.883   3.301  0.7280  1.5391  0.8716
  477MOL0     H64378  11.881   5.680   3.187 -0.0601 -0.7682 -1.2490
  477MOL0     H64379  11.851   6.525   3.773  0.9714 -3.5251 -2.1274
  477MOL0     H64380  11.667   6.674   3.817 -0.0698 -0.0600  0.9503
  477MOL0     H64381  11.368   6.880   4.031 -0.6774 -2.0454 -0.6065
  477MOL0     H64382  11.267   7.118   4.042  0.6121 -1.9312  1.3289
  477MOL0     H64383  11.063   7.375   3.737  0.6008  2.6593  1.9013
  477MOL0     H64384  11.229   7.328   3.746  1.1121  1.8793  1.2718
  477MOL0     H64385  11.082   7.396   4.000 -2.6551  3.9833 -0.8265
  477MOL0     H64386  11.118   7.524   3.896 -1.4133 -0.2191  0.0090
  477MOL0     H64387  11.360   7.491   3.899  1.4884 -2.3579 -0.7811
  477MOL0     H64388  11.362   7.331   3.965  1.5178 -0.1352  3.7552
  477MOL0     H64389  11.432   7.518   4.098 -0.1290  0.0735  0.1809
  477MOL0     H64390  11.260   7.571   4.100 -1.5905 -1.8208  1.7831
  477MOL0     H64391  11.389   7.298   4.397  2.4620  1.9663 -0.4261
  477MOL0     H64392  11.108   7.066   3.659  1.7191 -0.1887 -0.4777
  477MOL0     H64393  11.213   6.759   3.560  0.2470 -0.8487  0.5080
  477MOL0     H64394  11.197   6.931   3.506 -3.6711 -1.6576  2.1281
  477MOL0     H64395  11.362   6.842   3.522 -0.5729 -3.1807 -1.0293
  478MOL0     O64396   3.938   8.756   6.812  0.6260  0.3310  0.4866
  478MOL0     C64397   3.927   8.725   6.929 -0.6772 -0.0794  0.3127
  478MOL0     O64398   3.951   8.604   6.979 -1.6403  0.8374  0.1411
  478MOL0     C64399   3.991   8.503   6.884 -0.4436 -0.5499 -0.2577
  478MOL0     C64400   4.116   8.488   6.822 -0.0334  0.1106 -1.0426
  478MOL0     C64401   4.135   8.374   6.738  0.1252  1.2557 -0.1968
  478MOL0     C64402   4.039   8.271   6.730 -0.9187  0.0592  0.0200
  478MOL0     O64403   4.078   8.159   6.668  0.0974  1.0644 -0.3040
  478MOL0     C64404   3.983   8.050   6.664  0.3393 -0.9044  0.5748
  478MOL0     C64405   4.053   7.933   6.598  0.3081 -0.0080 -0.0120
  478MOL0     C64406   4.146   7.867   6.704  0.3626  0.1937 -0.2613
  478MOL0     C64407   4.216   7.742   6.660  0.6126  0.4556 -0.1836
  478MOL0     C64408   4.319   7.677   6.757  0.6010  0.0225 -0.3656
  478MOL0     C64409   4.269   7.656   6.904 -1.4238  0.7001  0.7574
  478MOL0     C64410   4.391   7.603   6.983  0.4122  0.6278 -0.7220
  478MOL0     C64411   4.371   7.539   7.121  0.0368 -0.3024 -0.1660
  478MOL0     N64412   4.285   7.424   7.116 -0.4502 -0.1769  0.1745
  478MOL0     C64413   4.148   7.425   7.092  0.0972 -0.4626  0.6170
  478MOL0     C64414   4.115   7.296   7.060 -0.9022 -0.5096  1.5232
  478MOL0     C64415   3.978   7.234   7.046 -0.2017 -0.2003 -0.7628
  478MOL0     C64416   3.982   7.102   6.972  0.0439 -0.5613  0.1883
  478MOL0     C64417   3.845   7.048   6.949 -0.6012 -0.3148  0.9666
  478MOL0     C64418   3.856   6.939   6.852 -0.1971 -0.0067  0.4703
  478MOL0     O64419   3.956   6.836   6.864  0.0196 -0.7213 -0.3335
  478MOL0     C64420   3.968   6.765   6.980  0.2382 -0.7817  0.4818
  478MOL0     C64421   4.092   6.711   7.020 -0.1490 -0.5055  0.0924
  478MOL0     C64422   4.111   6.646   7.146 -1.0482  0.0748 -0.2764
  478MOL0     C64423   4.003   6.645   7.237  0.1202 -0.1001 -0.9719
  478MOL0     C64424   4.016   6.593   7.372 -0.2631 -0.7098  0.9355
  478MOL0     O64425   3.906   6.595   7.454  0.0696 -0.3579 -0.5644
  478MOL0     C64426   3.923   6.528   7.573 -0.8589 -0.3686  0.6936
  478MOL0     C64427   3.952   6.389   7.575 -0.0668 -0.0796  0.0530
  478MOL0     C64428   3.938   6.320   7.704 -0.4737 -1.1599  0.8727
  478MOL0     C64429   3.909   6.394   7.820 -0.1521 -0.5794 -0.4776
  478MOL0     O64430   3.901   6.319   7.940 -0.6379 -0.4061 -0.3114
  478MOL0     C64431   3.831   6.195   7.939 -0.1882  0.0887 -0.2739
  478MOL0     C64432   3.798   6.132   8.078  0.9903  0.5831  0.1776
  478MOL0     C64433   3.729   5.992   8.046  0.3223  0.0803  0.2237
  478MOL0     C64434   3.759   5.888   8.153  0.0118  0.4254 -0.0687
  478MOL0     C64435   3.686   5.764   8.117  0.7494 -0.8089 -0.7769
  478MOL0     C64436   3.698   5.664   8.225  0.5773 -0.5927 -0.2202
  478MOL0     C64437   3.621   5.538   8.184 -0.4926 -0.1939  0.0670
  478MOL0     C64438   3.627   5.441   8.300 -0.0282  0.2627  0.1769
  478MOL0    Cl64439   3.783   5.430   8.381 -0.2477 -0.2473 -0.0823
  478MOL0     C64440   3.891   6.529   7.814  0.0093 -0.2868  0.2268
  478MOL0     C64441   3.896   6.597   7.691 -0.1580  0.3009  0.4581
  478MOL0     O64442   4.126   6.555   7.400 -0.4661  1.1480 -0.3197
  478MOL0     C64443   3.878   6.698   7.200 -0.9591  0.0955 -0.6528
  478MOL0     C64444   3.860   6.751   7.070 -1.0716 -0.0270  0.0632
  478MOL0     N64445   4.229   7.225   7.055 -0.7146  0.1636 -0.2823
  478MOL0     N64446   4.329   7.298   7.092  0.0127  0.6349 -1.0062
  478MOL0     C64447   3.919   8.280   6.801  0.4180 -1.1491  0.9512
  478MOL0     C64448   3.891   8.406   6.864  0.5022 -0.8458  0.6805
  478MOL0     C64449   3.930   8.823   7.049 -0.0703 -0.2706  0.3388
  478MOL0     C64450   3.918   8.777   7.180  0.2514 -0.5756 -1.0264
  478MOL0     C64451   3.915   8.861   7.288 -0.3293  0.0532  0.6379
  478MOL0     C64452   3.919   9.004   7.274 -0.5113 -0.0551  0.1555
  478MOL0     O64453   3.893   9.095   7.373  0.1460  0.1147 -0.1047
  478MOL0     C64454   3.920   9.070   7.509  0.5008  0.3841  0.3045
  478MOL0     C64455   3.873   9.177   7.617 -0.3184  0.8683 -0.3838
  478MOL0     C64456   3.877   9.113   7.765 -0.3128 -0.0404 -0.0883
  478MOL0     C64457   3.828   9.206   7.879 -0.2772 -0.1251  0.0613
  478MOL0     C64458   3.947   9.290   7.905  0.5252  0.3396 -0.1531
  478MOL0     C64459   4.037   9.373   7.912  0.4403  1.3540 -0.1560
  478MOL0     C64460   3.926   9.050   7.140 -0.2182  0.5337 -0.5251
  478MOL0     C64461   3.939   8.968   7.030 -0.1132  0.0502  0.5208
  478MOL0     C64462   3.948   9.034   6.895 -0.5699 -0.3431 -0.3376
  478MOL0     H64463   4.197   8.560   6.828 -0.4910  0.7515 -2.1852
  478MOL0     H64464   4.225   8.362   6.678  0.9607  2.0218  0.8514
  478MOL0     H64465   3.954   8.028   6.767  3.5653 -0.3882  1.7343
  478MOL0     H64466   3.896   8.079   6.604 -0.1480 -2.3952  0.5437
  478MOL0     H64467   4.106   7.959   6.507  1.9977 -2.3967  0.1917
  478MOL0     H64468   3.970   7.867   6.571  0.6057  0.2324 -1.5906
  478MOL0     H64469   4.081   7.849   6.790 -3.0634  1.8247 -2.2704
  478MOL0     H64470   4.234   7.926   6.730  0.4035  1.1388 -2.3447
  478MOL0     H64471   4.154   7.654   6.641  2.1538 -0.9484  0.9462
  478MOL0     H64472   4.272   7.782   6.576  0.6290  1.4355  0.2865
  478MOL0     H64473   4.347   7.581   6.713 -0.5800 -0.7426  0.4901
  478MOL0     H64474   4.403   7.747   6.770 -0.1208  0.8298  0.0399
  478MOL0     H64475   4.238   7.746   6.958 -0.5421  1.3304  0.2314
  478MOL0     H64476   4.202   7.569   6.898 -0.0966 -0.5862  2.9178
  478MOL0     H64477   4.450   7.695   6.992  1.9483 -0.5136  3.0311
  478MOL0     H64478   4.449   7.528   6.927  1.2026 -2.0571  3.2358
  478MOL0     H64479   4.473   7.516   7.153  1.0428 -0.9549 -3.4466
  478MOL0     H64480   4.327   7.619   7.181  0.9543  0.4408 -0.4715
  478MOL0     H64481   4.077   7.499   7.128 -0.1094 -0.3051 -0.0880
  478MOL0     H64482   3.929   7.242   7.143  1.7742 -0.7330  0.3366
  478MOL0     H64483   3.935   7.307   6.977  0.5803  0.3915 -0.6399
  478MOL0     H64484   4.020   7.125   6.872 -0.0006  2.2722  0.7233
  478MOL0     H64485   4.049   7.037   7.029  1.4807 -0.9316 -1.8426
  478MOL0     H64486   3.791   7.129   6.900  0.9245  0.1676  0.0261
  478MOL0     H64487   3.790   7.015   7.038 -2.4198 -0.6651 -0.2465
  478MOL0     H64488   3.880   6.996   6.762  0.7544  1.6966  1.7303
  478MOL0     H64489   3.756   6.896   6.841  1.0717 -2.5811 -2.3484
  478MOL0     H64490   4.177   6.731   6.955  0.5472  0.9345  1.3746
  478MOL0     H64491   4.208   6.620   7.185 -1.3028 -0.1328  0.2285
  478MOL0     H64492   3.983   6.329   7.490  0.3087 -1.7427  1.2948
  478MOL0     H64493   3.947   6.212   7.695 -1.4142 -1.1368 -1.0958
  478MOL0     H64494   3.731   6.213   7.897 -0.4652  0.0198  0.3445
  478MOL0     H64495   3.888   6.121   7.882  0.8076  1.9004 -1.7311
  478MOL0     H64496   3.890   6.103   8.128  1.1007 -0.6669 -0.6981
  478MOL0     H64497   3.745   6.198   8.147 -0.1663 -1.4999  1.3856
  478MOL0     H64498   3.620   6.003   8.037  0.3722 -1.2160 -3.3379
  478MOL0     H64499   3.752   5.964   7.943 -0.7151 -1.1348  0.2939
  478MOL0     H64500   3.728   5.934   8.247 -1.0162 -1.1543  0.4005
  478MOL0     H64501   3.868   5.881   8.159  0.2100  0.7220 -2.4485
  478MOL0     H64502   3.720   5.728   8.020 -0.7057 -3.4516 -0.3921
  478MOL0     H64503   3.582   5.795   8.101  1.1889  1.4937  0.3000
  478MOL0     H64504   3.805   5.641   8.222  1.2777  2.4258 -1.9275
  478MOL0     H64505   3.662   5.707   8.318  0.3354 -0.0406 -0.5638
  478MOL0     H64506   3.685   5.493   8.108  2.6746 -0.1319  2.4829
  478MOL0     H64507   3.519   5.556   8.149 -0.5732 -2.4584 -1.0440
  478MOL0     H64508   3.556   5.478   8.374  0.4117  2.0530 -0.2380
  478MOL0     H64509   3.596   5.346   8.257  0.2071 -0.5027  1.6434
  478MOL0     H64510   3.862   6.590   7.899 -1.7359 -2.5407  1.3458
  478MOL0     H64511   3.883   6.705   7.685  2.2804  0.5683 -2.9184
  478MOL0     H64512   3.786   6.695   7.257 -0.4901  0.3749  0.1472
  478MOL0     H64513   3.761   6.779   7.035 -1.5753 -2.3403 -0.4983
  478MOL0     H64514   3.844   8.202   6.795  0.2506 -0.9182 -0.4804
  478MOL0     H64515   3.791   8.421   6.903  1.4377  1.5493  2.3775
  478MOL0     H64516   3.889   8.674   7.198  0.9736 -0.5220  0.5599
  478MOL0     H64517   3.883   8.827   7.386 -2.5227  1.7769  0.5991
  478MOL0     H64518   4.028   9.051   7.515  0.3504 -1.0980 -0.8383
  478MOL0     H64519   3.859   8.981   7.530  0.4735  0.4173  0.3651
  478MOL0     H64520   3.772   9.208   7.589 -0.5755 -0.4527 -1.0020
  478MOL0     H64521   3.936   9.266   7.610  0.3734  0.3873 -0.3838
  478MOL0     H64522   3.975   9.077   7.797  0.3548  0.3234 -1.6394
  478MOL0     H64523   3.803   9.033   7.778 -1.3014  1.1720  2.6192
  478MOL0     H64524   3.738   9.255   7.840 -2.8826 -2.8123  2.3138
  478MOL0     H64525   3.800   9.145   7.965  0.4416 -1.9991 -0.9748
  478MOL0     H64526   4.110   9.450   7.930 -0.9434  2.9677 -1.1404
  478MOL0     H64527   3.925   9.157   7.123  3.2381  0.7330 -0.2247
  478MOL0     H64528   3.864   9.011   6.828 -1.4762  1.9650 -0.1000
  478MOL0     H64529   3.957   9.143   6.900 -0.8379 -0.1261 -2.8384
  478MOL0     H64530   4.041   9.000   6.847 -0.4094 -2.7554  1.5120
  479MOL0     O64531   5.147   6.351   0.020 -0.2177 -0.6596  0.2847
  479MOL0     C64532   5.263   6.373  -0.001 -0.5450 -0.1942 -0.0784
  479MOL0     O64533   5.373   6.318   0.059  0.6924  0.5350 -0.1256
  479MOL0     C64534   5.364   6.195   0.129 -0.1103 -0.0873  0.7397
  479MOL0     C64535   5.472   6.180   0.211 -0.2646  0.2453  0.6687
  479MOL0     C64536   5.480   6.072   0.294 -0.3556 -0.1401 -0.3060
  479MOL0     C64537   5.378   5.978   0.299  0.1067  0.2149  0.2997
  479MOL0     O64538   5.376   5.866   0.388  0.2872  0.0252  0.4653
  479MOL0     C64539   5.498   5.787   0.373  0.1023  0.0688 -0.6605
  479MOL0     C64540   5.477   5.670   0.287 -0.4690  0.9202 -0.0343
  479MOL0     C64541   5.583   5.557   0.280  0.4907 -0.1441  0.5840
  479MOL0     C64542   5.560   5.468   0.151 -0.0017  0.7182 -0.4501
  479MOL0     C64543   5.592   5.316   0.201  0.7324  0.4420 -0.4807
  479MOL0     C64544   5.743   5.297   0.247 -0.0985 -0.4454 -0.6382
  479MOL0     C64545   5.779   5.149   0.239 -0.4383  0.0446 -0.5386
  479MOL0     C64546   5.920   5.126   0.211  0.3766 -0.2506 -0.5375
  479MOL0     N64547   5.959   4.982   0.212 -0.4917  0.0801  0.8476
  479MOL0     C64548   5.903   4.874   0.281 -0.1716  0.1231  1.1539
  479MOL0     C64549   5.978   4.763   0.246 -0.5000 -0.4576  0.5884
  479MOL0     C64550   5.960   4.622   0.315 -0.0207 -0.6478 -0.0182
  479MOL0     C64551   5.974   4.501   0.222 -0.3975 -1.2293 -0.7149
  479MOL0     C64552   6.112   4.478   0.154 -0.0923 -0.2629  0.6303
  479MOL0     C64553   6.219   4.452   0.257 -0.9700 -0.0281  0.0366
  479MOL0     O64554   6.339   4.425   0.189  0.5054  0.7927  0.1958
  479MOL0     C64555   6.401   4.526   0.125  1.3758 -0.3414  0.1287
  479MOL0     C64556   6.485   4.477   0.020  0.1937 -1.0713  0.3418
  479MOL0     C64557   6.544   4.564  -0.072 -0.2753  0.0362  0.1127
  479MOL0     C64558   6.532   4.703  -0.053 -0.2030  1.3612  0.5767
  479MOL0     C64559   6.596   4.798  -0.144 -0.2874  0.4796  1.0442
  479MOL0     O64560   6.687   4.744  -0.239 -0.3672 -0.8011  0.3796
  479MOL0     C64561   6.755   4.830  -0.319 -0.6270 -0.5064 -0.2936
  479MOL0     C64562   6.893   4.796  -0.329  1.0062  0.3178  0.4335
  479MOL0     C64563   6.981   4.870  -0.408  0.2215 -0.6723  0.3903
  479MOL0     C64564   6.929   4.980  -0.479  0.5844  0.2573  0.5499
  479MOL0     O64565   7.001   5.063  -0.552  0.4455 -1.0178 -0.3420
  479MOL0     C64566   7.098   5.012  -0.644  0.6541  0.1261  0.8808
  479MOL0     C64567   7.156   5.129  -0.724  0.1212  0.4261 -0.2574
  479MOL0     C64568   7.289   5.184  -0.680  1.1810 -0.9849 -0.8492
  479MOL0     C64569   7.409   5.148  -0.750 -0.4130 -0.2275  0.0882
  479MOL0     C64570   7.529   5.175  -0.663 -0.9081  0.3888  0.5626
  479MOL0     C64571   7.659   5.174  -0.739 -0.4990  0.3346  0.3978
  479MOL0     C64572   7.781   5.186  -0.642  0.0747 -0.7966  0.2561
  479MOL0     C64573   7.911   5.169  -0.721 -1.2141 -0.3836 -0.4430
  479MOL0    Cl64574   7.915   5.266  -0.868 -0.1207  0.0694 -0.0093
  479MOL0     C64575   6.787   5.018  -0.468 -0.0038 -0.2356  0.1663
  479MOL0     C64576   6.702   4.944  -0.396 -0.4659 -0.6563 -1.0578
  479MOL0     O64577   6.577   4.916  -0.124  0.1754 -0.3025 -0.1112
  479MOL0     C64578   6.448   4.751   0.052 -1.0745 -0.2380 -0.3042
  479MOL0     C64579   6.382   4.662   0.140 -1.0732 -0.5645  0.0251
  479MOL0     N64580   6.070   4.804   0.141  0.7310 -0.6871  0.5062
  479MOL0     N64581   6.056   4.932   0.120  0.1264 -0.3370  0.2960
  479MOL0     C64582   5.275   5.985   0.214  0.8352  0.3462 -0.4223
  479MOL0     C64583   5.262   6.095   0.128  0.6358 -0.4768  0.5933
  479MOL0     C64584   5.292   6.506  -0.070  0.9476 -0.5741 -0.4556
  479MOL0     C64585   5.417   6.562  -0.064  0.2026  0.4043  0.1072
  479MOL0     C64586   5.456   6.685  -0.123  0.4818 -0.6518  0.0502
  479MOL0     C64587   5.372   6.758  -0.203 -0.0910  0.8098 -0.2542
  479MOL0     O64588   5.424   6.882  -0.248 -0.5050 -0.4513 -0.7747
  479MOL0     C64589   5.350   6.976  -0.319  0.0726 -0.9540  0.0384
  479MOL0     C64590   5.429   7.061  -0.419 -0.3496 -0.6749  0.1279
  479MOL0     C64591   5.505   6.977  -0.512 -0.4581  0.7143  0.5639
  479MOL0     C64592   5.567   7.043  -0.626  1.1053 -0.1897 -0.1584
  479MOL0     C64593   5.617   6.935  -0.711 -0.6919 -0.0348  0.7870
  479MOL0     C64594   5.659   6.851  -0.795  0.6222  0.0720  0.1373
  479MOL0     C64595   5.244   6.710  -0.216  0.6865 -0.7878 -0.9831
  479MOL0     C64596   5.207   6.593  -0.155 -0.6119  0.3144 -0.5636
  479MOL0     C64597   5.075   6.537  -0.208  0.6286  0.3927  0.1156
  479MOL0     H64598   5.539   6.263   0.193  0.4383 -0.0947  1.6390
  479MOL0     H64599   5.560   6.077   0.367  0.5419  0.4540 -1.3031
  479MOL0     H64600   5.581   5.849   0.338  0.3167 -0.1689 -0.5764
  479MOL0     H64601   5.521   5.755   0.475 -3.8727  1.4173  0.8313
  479MOL0     H64602   5.466   5.709   0.185  0.8113  0.2715 -0.4465
  479MOL0     H64603   5.379   5.626   0.309  0.2077 -0.0109  1.1976
  479MOL0     H64604   5.571   5.494   0.369 -2.2265  2.5071  2.3092
  479MOL0     H64605   5.683   5.601   0.285  1.0015 -1.3333  1.4898
  479MOL0     H64606   5.456   5.478   0.120  0.0559 -0.2178 -0.9732
  479MOL0     H64607   5.626   5.500   0.069 -0.1595 -1.6893 -1.6199
  479MOL0     H64608   5.523   5.282   0.278 -0.4525 -3.6985 -3.0988
  479MOL0     H64609   5.567   5.257   0.112  1.0586  1.5663 -1.3566
  479MOL0     H64610   5.814   5.343   0.177  0.5328 -4.3004 -2.8550
  479MOL0     H64611   5.765   5.348   0.341  1.5954 -0.2610 -1.0927
  479MOL0     H64612   5.718   5.103   0.161 -0.9522 -3.2070  1.5813
  479MOL0     H64613   5.741   5.101   0.330  0.9186 -1.6306 -0.7941
  479MOL0     H64614   5.946   5.170   0.114  0.8499 -0.0028 -0.3014
  479MOL0     H64615   5.990   5.172   0.282 -0.4404  0.7277 -0.3473
  479MOL0     H64616   5.833   4.866   0.364 -0.1682 -3.0616  0.9809
  479MOL0     H64617   6.032   4.607   0.396  0.3040 -2.3489 -0.5822
  479MOL0     H64618   5.861   4.621   0.362 -0.3205  0.5761 -0.5831
  479MOL0     H64619   5.939   4.412   0.276 -3.0213 -1.8117 -3.1550
  479MOL0     H64620   5.899   4.521   0.146  0.3820 -1.0821 -1.4526
  479MOL0     H64621   6.138   4.563   0.091 -0.8648 -0.4538  0.0413
  479MOL0     H64622   6.112   4.393   0.085  0.2722 -0.1429  0.4787
  479MOL0     H64623   6.197   4.363   0.316  1.1381  0.3985  1.6063
  479MOL0     H64624   6.224   4.531   0.332 -0.3677 -1.8110  1.9761
  479MOL0     H64625   6.505   4.371   0.005  1.8903 -0.7672  0.2565
  479MOL0     H64626   6.608   4.537  -0.156 -1.7039  3.3037 -2.2780
  479MOL0     H64627   6.923   4.700  -0.288 -1.3136 -2.0630 -2.8226
  479MOL0     H64628   7.084   4.835  -0.403 -0.2236 -1.8455  2.4320
  479MOL0     H64629   7.171   4.942  -0.604 -1.4218 -3.4536 -1.0967
  479MOL0     H64630   7.045   4.963  -0.727  0.6900 -1.2638  1.6535
  479MOL0     H64631   7.166   5.110  -0.831 -2.4582  2.5055 -0.9743
  479MOL0     H64632   7.083   5.211  -0.718 -0.0929  0.3221 -1.2139
  479MOL0     H64633   7.288   5.294  -0.682  2.5056 -0.8860  1.1963
  479MOL0     H64634   7.297   5.152  -0.576 -2.0932  1.2103  0.2769
  479MOL0     H64635   7.412   5.209  -0.841  0.7159  0.4695  0.5606
  479MOL0     H64636   7.403   5.041  -0.770 -2.4646 -0.1611  0.1761
  479MOL0     H64637   7.542   5.096  -0.589  5.8390 -3.0866 -3.3573
  479MOL0     H64638   7.509   5.279  -0.635 -2.0458  0.8413 -1.6857
  479MOL0     H64639   7.669   5.077  -0.791 -1.4104  0.1963  0.4649
  479MOL0     H64640   7.658   5.256  -0.811  2.2660 -2.6523 -3.5461
  479MOL0     H64641   7.784   5.108  -0.565 -0.8245 -0.9435  0.1533
  479MOL0     H64642   7.779   5.282  -0.590 -0.7868 -0.2790 -0.7091
  479MOL0     H64643   7.991   5.184  -0.648 -2.9570 -1.8584  1.9420
  479MOL0     H64644   7.913   5.062  -0.747  1.7569 -0.1244 -1.7213
  479MOL0     H64645   6.745   5.093  -0.534 -0.4827 -1.7186 -1.2550
  479MOL0     H64646   6.596   4.964  -0.383 -0.1521 -0.1486  1.1034
  479MOL0     H64647   6.438   4.859   0.059 -0.0348 -0.0691 -1.1881
  479MOL0     H64648   6.311   4.697   0.214 -1.6202 -1.3937 -0.1018
  479MOL0     H64649   5.193   5.914   0.211 -1.5229  2.9440 -2.4446
  479MOL0     H64650   5.181   6.104   0.056  2.6172  0.8095 -1.5997
  479MOL0     H64651   5.495   6.501  -0.021  0.4386  1.4829  1.2757
  479MOL0     H64652   5.559   6.718  -0.114  0.6330 -0.6537 -1.4174
  479MOL0     H64653   5.309   7.052  -0.253 -0.4377 -0.9164 -0.3166
  479MOL0     H64654   5.277   6.926  -0.384  1.7206 -2.0017 -1.1117
  479MOL0     H64655   5.497   7.117  -0.354 -0.9776  2.3055 -1.6055
  479MOL0     H64656   5.360   7.122  -0.478 -1.5146 -0.2788  1.8196
  479MOL0     H64657   5.436   6.898  -0.545 -0.3597  0.6142  0.5984
  479MOL0     H64658   5.581   6.919  -0.460 -1.0815 -1.6424 -0.9603
  479MOL0     H64659   5.492   7.092  -0.689 -0.2660 -4.9418 -2.6626
  479MOL0     H64660   5.653   7.105  -0.596  2.6502 -2.3268  0.0510
  479MOL0     H64661   5.695   6.769  -0.852  1.0430  0.7296 -0.5634
  479MOL0     H64662   5.164   6.760  -0.270 -0.0848 -0.8002  0.1007
  479MOL0     H64663   4.987   6.596  -0.179  0.6772 -0.0186  1.1422
  479MOL0     H64664   5.064   6.541  -0.317 -2.2295 -0.4888  0.2904
  479MOL0     H64665   5.068   6.431  -0.183  2.5534 -0.1039 -1.2429
  480MOL0     O64666   2.385   7.157   8.798  0.1079 -0.7812 -0.3629
  480MOL0     C64667   2.395   7.036   8.838 -0.4378 -0.9288 -0.4689
  480MOL0     O64668   2.323   6.932   8.798 -0.5806  0.3367  0.3257
  480MOL0     C64669   2.225   6.943   8.698 -1.1210 -0.6111  0.0106
  480MOL0     C64670   2.268   6.926   8.566 -0.2977  0.1123  0.2695
  480MOL0     C64671   2.170   6.947   8.469 -0.6903  0.0638  0.2391
  480MOL0     C64672   2.035   6.971   8.494  0.9322  0.5392  0.2975
  480MOL0     O64673   1.946   6.982   8.387  0.7896 -0.3300 -0.3593
  480MOL0     C64674   1.804   7.013   8.404  0.3554 -0.8190  0.3213
  480MOL0     C64675   1.724   6.990   8.280  0.7387 -0.0221  0.7499
  480MOL0     C64676   1.576   6.987   8.310  0.4778  0.8135 -0.0902
  480MOL0     C64677   1.496   7.002   8.179 -1.2201  0.2990  0.2507
  480MOL0     C64678   1.356   7.025   8.218 -0.3771  0.4049 -0.4846
  480MOL0     C64679   1.263   6.981   8.098 -0.2463 -0.2978  0.5343
  480MOL0     C64680   1.105   7.001   8.117 -0.3188  0.3940  1.1472
  480MOL0     C64681   1.020   6.967   7.992  0.6972  0.0797 -0.5486
  480MOL0     N64682   1.001   6.826   7.974  0.7661  0.3666  0.3253
  480MOL0     C64683   0.886   6.760   8.013 -0.9701 -0.5513 -0.9744
  480MOL0     C64684   0.905   6.627   7.995 -0.4285 -0.2804  0.4718
  480MOL0     C64685   0.818   6.511   8.041 -0.5562  0.4646  0.6936
  480MOL0     C64686   0.892   6.445   8.159  0.1771 -0.5886  0.1567
  480MOL0     C64687   0.828   6.334   8.235  0.0184  0.0025 -0.4528
  480MOL0     C64688   0.782   6.213   8.143  0.4465  0.4808  0.4768
  480MOL0     O64689   0.686   6.249   8.047  0.5766 -0.2747  0.0299
  480MOL0     C64690   0.636   6.157   7.958 -1.3343 -0.2097  0.2444
  480MOL0     C64691   0.523   6.195   7.883 -0.1512 -0.0448 -0.8538
  480MOL0     C64692   0.465   6.107   7.796  0.9060  0.3713 -0.1460
  480MOL0     C64693   0.507   5.973   7.778 -0.0029  0.7403 -0.4153
  480MOL0     C64694   0.415   5.870   7.713  0.2970 -0.2209  0.0717
  480MOL0     O64695   0.435   5.746   7.752 -0.2707  0.5301  0.2395
  480MOL0     C64696   0.338   5.655   7.726  1.1693 -0.0463  0.8321
  480MOL0     C64697   0.364   5.550   7.633 -0.4824 -0.7387 -0.1867
  480MOL0     C64698   0.269   5.457   7.609 -0.1783 -0.1587  0.6549
  480MOL0     C64699   0.143   5.473   7.658  0.4928 -0.2933 -0.2185
  480MOL0     O64700   0.051   5.380   7.624 -0.0199  0.0807  0.3699
  480MOL0     C64701  -0.047   5.329   7.715  0.4941  0.3638  0.5200
  480MOL0     C64702   0.017   5.250   7.823  0.5307 -0.7178 -0.4267
  480MOL0     C64703  -0.083   5.164   7.903  0.2174  0.2178  0.3909
  480MOL0     C64704  -0.017   5.095   8.027 -0.5667 -0.3912  0.3876
  480MOL0     C64705  -0.110   5.012   8.117  0.9900 -0.7187 -0.1225
  480MOL0     C64706  -0.127   4.857   8.074  0.9701 -0.4311 -0.2963
  480MOL0     C64707  -0.018   4.758   8.104  1.1093  0.8398  0.5365
  480MOL0     C64708  -0.060   4.613   8.053  0.5888 -0.5434 -0.4014
  480MOL0    Cl64709   0.041   4.486   8.128  0.0668 -0.4495  0.5393
  480MOL0     C64710   0.107   5.576   7.741 -0.1771  0.1629 -0.4129
  480MOL0     C64711   0.211   5.663   7.779 -0.7137  0.3389  0.1880
  480MOL0     O64712   0.325   5.910   7.638  0.4394 -0.4129  0.7295
  480MOL0     C64713   0.619   5.941   7.857 -0.5535  0.4807  0.3824
  480MOL0     C64714   0.688   6.027   7.939 -0.1962 -0.0754  0.2713
  480MOL0     N64715   1.028   6.621   7.923 -0.9780 -0.4016  0.9796
  480MOL0     N64716   1.082   6.740   7.908 -0.5072 -0.4520  0.1745
  480MOL0     C64717   1.995   6.976   8.628 -0.8857  0.5911 -0.5143
  480MOL0     C64718   2.096   6.969   8.729  0.3246 -1.0831 -0.4918
  480MOL0     C64719   2.500   7.011   8.940 -0.6604  0.8084  0.1003
  480MOL0     C64720   2.521   7.092   9.055 -0.0277 -0.3419 -0.6170
  480MOL0     C64721   2.618   7.072   9.151 -0.0804 -0.2177 -0.0152
  480MOL0     C64722   2.705   6.967   9.137  0.0579  0.6650  0.2228
  480MOL0     O64723   2.799   6.964   9.232 -0.2831 -0.4911 -0.8638
  480MOL0     C64724   2.906   6.869   9.211  0.1135  0.0328  0.0346
  480MOL0     C64725   3.006   6.872   9.330 -0.6939  0.5976 -0.6469
  480MOL0     C64726   3.086   6.999   9.339 -0.5746  0.1262 -1.0468
  480MOL0     C64727   3.174   6.996   9.465  0.6200 -0.8302  0.2200
  480MOL0     C64728   3.270   7.101   9.469 -0.0332  0.3383 -0.5067
  480MOL0     C64729   3.353   7.188   9.485 -0.7465 -1.1190 -0.4439
  480MOL0     C64730   2.682   6.878   9.036  0.0207 -0.3009  0.8189
  480MOL0     C64731   2.591   6.898   8.922  0.0770 -0.3540  0.0206
  480MOL0     C64732   2.605   6.810   8.800  0.5107  0.3394  0.6970
  480MOL0     H64733   2.373   6.905   8.548 -0.0127  0.1250  1.8199
  480MOL0     H64734   2.191   6.951   8.363  1.6066  2.0432  0.6810
  480MOL0     H64735   1.769   6.947   8.483  0.9340  2.7716  3.9376
  480MOL0     H64736   1.803   7.114   8.447  2.3003  0.4171 -2.2791
  480MOL0     H64737   1.756   6.893   8.240  1.3860  0.6450 -0.4283
  480MOL0     H64738   1.736   7.061   8.197 -1.3577 -1.4821 -0.9189
  480MOL0     H64739   1.551   7.080   8.362 -1.2507 -1.5051  3.6446
  480MOL0     H64740   1.561   6.896   8.370 -4.5564  0.7344 -1.0143
  480MOL0     H64741   1.526   7.087   8.117 -1.5159  0.6571  0.6005
  480MOL0     H64742   1.512   6.915   8.114 -0.0670  0.7979 -0.1769
  480MOL0     H64743   1.319   6.971   8.306 -2.4936 -3.4913 -3.4430
  480MOL0     H64744   1.331   7.128   8.245 -0.3425  0.8113 -1.9176
  480MOL0     H64745   1.297   7.041   8.014  1.0039 -0.3587  0.9812
  480MOL0     H64746   1.288   6.880   8.064  1.8529 -0.3212  1.9439
  480MOL0     H64747   1.082   7.108   8.121 -1.5224  0.2493 -0.7942
  480MOL0     H64748   1.080   6.937   8.201  0.1867 -1.3598  0.0040
  480MOL0     H64749   0.923   7.018   7.992 -0.7277 -2.4453 -2.1636
  480MOL0     H64750   1.073   6.996   7.902 -1.0191 -0.8972 -1.9350
  480MOL0     H64751   0.813   6.806   8.079  0.6617 -2.0300  2.0802
  480MOL0     H64752   0.720   6.552   8.067 -1.8234  0.3150 -3.2638
  480MOL0     H64753   0.811   6.443   7.956  1.3606  4.1507 -2.7471
  480MOL0     H64754   0.987   6.406   8.121 -1.1882 -3.9253 -0.1851
  480MOL0     H64755   0.911   6.530   8.225 -1.8117  1.0627 -1.2327
  480MOL0     H64756   0.739   6.374   8.285 -0.6166  0.6039 -2.0059
  480MOL0     H64757   0.888   6.292   8.317 -3.1661 -1.6354  1.2423
  480MOL0     H64758   0.738   6.143   8.215  0.4681  1.7590  1.7816
  480MOL0     H64759   0.874   6.175   8.098 -1.0613  1.0280 -3.5382
  480MOL0     H64760   0.482   6.294   7.901 -3.9387 -1.7199  0.7222
  480MOL0     H64761   0.380   6.140   7.738  2.0712 -1.1358 -2.8976
  480MOL0     H64762   0.465   5.539   7.595  0.2272  2.8091  0.3538
  480MOL0     H64763   0.298   5.367   7.554 -1.4451 -1.5806  2.2036
  480MOL0     H64764  -0.116   5.408   7.747 -1.4800 -1.4317  0.9173
  480MOL0     H64765  -0.102   5.255   7.656 -1.1292  0.4360  1.8616
  480MOL0     H64766   0.093   5.181   7.785  1.1031  0.0793 -0.7754
  480MOL0     H64767   0.056   5.330   7.887 -2.2755  1.6024 -1.4032
  480MOL0     H64768  -0.159   5.226   7.952  0.0227 -2.1782  3.4464
  480MOL0     H64769  -0.126   5.092   7.834 -1.0912  1.2219  0.1048
  480MOL0     H64770   0.016   5.180   8.086 -1.6550  0.7812 -0.6450
  480MOL0     H64771   0.068   5.029   8.004 -1.0767 -1.6470  1.9024
  480MOL0     H64772  -0.205   5.062   8.141  0.9679  0.3683 -2.2363
  480MOL0     H64773  -0.060   5.017   8.214 -0.2918  2.0074  0.4909
  480MOL0     H64774  -0.213   4.817   8.127  1.3021 -1.5800 -0.5905
  480MOL0     H64775  -0.155   4.860   7.968 -1.6604 -2.9230  0.2102
  480MOL0     H64776   0.009   4.763   8.210  0.6014  2.1126  0.6263
  480MOL0     H64777   0.071   4.777   8.043 -0.4352 -1.6586 -2.7377
  480MOL0     H64778  -0.162   4.591   8.086  0.4323 -3.9822 -2.7010
  480MOL0     H64779  -0.063   4.610   7.944 -0.5150 -2.5599 -0.3738
  480MOL0     H64780   0.009   5.600   7.780 -0.2830 -0.5366 -0.2330
  480MOL0     H64781   0.180   5.753   7.831 -1.0504 -0.7562  1.9569
  480MOL0     H64782   0.647   5.836   7.858 -2.3251 -0.0256  0.1801
  480MOL0     H64783   0.776   5.987   7.990  0.5009 -0.7948 -1.4290
  480MOL0     H64784   1.888   6.989   8.646 -1.0710 -1.0168 -0.2735
  480MOL0     H64785   2.071   7.002   8.829  1.2607  0.2276 -0.6696
  480MOL0     H64786   2.454   7.174   9.079  1.0012 -0.3623  2.8846
  480MOL0     H64787   2.615   7.142   9.234  1.6988  3.6347 -2.9215
  480MOL0     H64788   2.965   6.889   9.122 -1.8525  0.8068 -1.1769
  480MOL0     H64789   2.857   6.771   9.217 -1.0606  0.6896  3.2812
  480MOL0     H64790   3.073   6.788   9.308  2.2783  1.7796  2.9288
  480MOL0     H64791   2.954   6.846   9.422 -0.4293  1.1960 -0.3278
  480MOL0     H64792   3.021   7.086   9.351  1.1654  1.4723 -0.8738
  480MOL0     H64793   3.148   6.992   9.250  2.5867 -0.9719  1.0599
  480MOL0     H64794   3.117   7.014   9.556 -2.1642  2.6933 -1.9354
  480MOL0     H64795   3.231   6.903   9.458  1.0980 -0.4166 -3.8461
  480MOL0     H64796   3.430   7.259   9.506 -0.9821 -0.3401 -2.0616
  480MOL0     H64797   2.755   6.803   9.008  0.3792  0.3761 -0.1238
  480MOL0     H64798   2.510   6.813   8.745 -0.6006  0.5331  2.5354
  480MOL0     H64799   2.679   6.852   8.731  0.8093 -0.6946  0.3760
  480MOL0     H64800   2.624   6.705   8.821 -1.7531  0.2157  2.5283
  481MOL0     O64801   8.287   9.306   9.703 -0.1576  0.2230  0.4897
  481MOL0     C64802   8.163   9.320   9.684 -1.0440  0.3952 -0.4234
  481MOL0     O64803   8.071   9.300   9.780  0.5304  0.1160 -0.0238
  481MOL0     C64804   8.103   9.249   9.897 -0.5796 -1.9996 -0.5815
  481MOL0     C64805   8.129   9.331  10.012  0.0930 -0.3421 -0.2865
  481MOL0     C64806   8.160   9.283  10.130 -0.9650  0.0993 -1.0377
  481MOL0     C64807   8.179   9.143  10.149  0.2554  0.2781 -1.3952
  481MOL0     O64808   8.222   9.114  10.272 -0.7419 -0.6500  0.2022
  481MOL0     C64809   8.255   8.974  10.292  0.7211 -0.0260  0.5339
  481MOL0     C64810   8.247   8.944  10.446  0.6277  0.5862  0.1524
  481MOL0     C64811   8.113   8.965  10.521 -0.7288 -1.0060  0.7896
  481MOL0     C64812   8.128   8.880  10.649 -0.4463 -0.0992  0.5219
  481MOL0     C64813   8.001   8.861  10.737  0.3049 -0.0931  0.2289
  481MOL0     C64814   7.943   8.991  10.803 -0.0419  0.4541  0.1626
  481MOL0     C64815   7.825   8.947  10.882 -0.2462  0.0160 -0.2863
  481MOL0     C64816   7.836   8.957  11.030  0.3265 -0.5104  0.2843
  481MOL0     N64817   7.728   8.891  11.106  0.3766 -0.2101 -0.5483
  481MOL0     C64818   7.656   8.783  11.069  0.3398  0.1304  0.1351
  481MOL0     C64819   7.565   8.763  11.167 -0.0107  0.0206 -0.1768
  481MOL0     C64820   7.443   8.673  11.159  0.3803 -0.3353  0.0994
  481MOL0     C64821   7.461   8.559  11.254  0.1760 -0.6712 -0.2768
  481MOL0     C64822   7.341   8.458  11.233  0.0569 -0.4939  0.1342
  481MOL0     C64823   7.360   8.326  11.313  0.1613 -0.8484 -0.3620
  481MOL0     O64824   7.493   8.269  11.294  1.0350  0.0165  0.1888
  481MOL0     C64825   7.501   8.193  11.166 -0.6200  0.0301 -0.4315
  481MOL0     C64826   7.407   8.154  11.081  0.9844  0.0221 -0.4852
  481MOL0     C64827   7.418   8.125  10.948 -0.1975  0.2906  0.7161
  481MOL0     C64828   7.544   8.112  10.897  0.6474  0.1723  0.2998
  481MOL0     C64829   7.561   8.076  10.752  0.3236  0.1461  0.2933
  481MOL0     O64830   7.456   8.066  10.665 -1.2229  0.9576 -0.6351
  481MOL0     C64831   7.468   7.988  10.554  0.2707 -0.8690  0.3625
  481MOL0     C64832   7.532   7.869  10.567  1.1726  0.6630 -0.7709
  481MOL0     C64833   7.515   7.767  10.467  0.8515  0.1155  0.8411
  481MOL0     C64834   7.445   7.800  10.348  0.1002 -0.3450 -0.4454
  481MOL0     O64835   7.424   7.687  10.273 -0.1906  0.2465 -0.5178
  481MOL0     C64836   7.358   7.689  10.142  0.4495  0.3798 -0.5251
  481MOL0     C64837   7.326   7.553  10.092  0.5376  0.7880 -0.1891
  481MOL0     C64838   7.397   7.501   9.961 -0.3191 -0.7439 -0.3723
  481MOL0     C64839   7.347   7.359   9.921  0.8780  0.6633 -0.2800
  481MOL0     C64840   7.368   7.336   9.769 -0.4652  0.8144 -0.1140
  481MOL0     C64841   7.287   7.424   9.670 -0.3322 -0.4728  0.1897
  481MOL0     C64842   7.320   7.384   9.526 -0.4781 -0.8616 -0.7800
  481MOL0     C64843   7.227   7.435   9.419  0.3852 -0.1907 -0.5091
  481MOL0    Cl64844   7.307   7.420   9.258 -0.1815 -0.2184 -0.2088
  481MOL0     C64845   7.398   7.933  10.322  0.0470 -0.1204  0.0556
  481MOL0     C64846   7.397   8.020  10.430  0.3544 -0.3444 -0.3702
  481MOL0     O64847   7.675   8.075  10.711 -0.0168 -0.5792  0.0381
  481MOL0     C64848   7.649   8.123  10.981  1.1497  0.0645 -0.7274
  481MOL0     C64849   7.630   8.158  11.123  0.1438 -0.2368 -0.3212
  481MOL0     N64850   7.582   8.860  11.256  1.2049 -0.2320 -0.8556
  481MOL0     N64851   7.677   8.932  11.229 -0.9688 -0.1487  0.7747
  481MOL0     C64852   8.170   9.057  10.036 -0.0492 -0.1069 -1.6032
  481MOL0     C64853   8.118   9.111   9.916 -0.0112 -0.5710  0.4944
  481MOL0     C64854   8.109   9.358   9.552 -0.2566  0.5818  0.5907
  481MOL0     C64855   7.979   9.408   9.546 -1.0512  0.3107  0.2185
  481MOL0     C64856   7.938   9.466   9.437 -0.0891  0.1014  0.9884
  481MOL0     C64857   8.011   9.475   9.319  0.6768  0.5218 -0.1883
  481MOL0     O64858   7.964   9.526   9.199 -0.7552 -0.2656 -0.1039
  481MOL0     C64859   7.825   9.501   9.164  0.2184  0.2938  0.1961
  481MOL0     C64860   7.798   9.547   9.022 -0.3336 -0.1366  0.1527
  481MOL0     C64861   7.839   9.695   8.998 -0.2248  0.5693  0.5061
  481MOL0     C64862   7.974   9.724   8.917  0.1005 -0.8724  0.1546
  481MOL0     C64863   7.996   9.864   8.882  0.1792 -0.3272 -1.3080
  481MOL0     C64864   8.013   9.987   8.874  0.3412  0.7774  0.4014
  481MOL0     C64865   8.136   9.426   9.318 -0.6651 -0.0363 -0.2519
  481MOL0     C64866   8.190   9.361   9.434  0.2065 -0.1701 -0.5983
  481MOL0     C64867   8.322   9.291   9.423 -0.7776  0.8932 -0.2907
  481MOL0     H64868   8.104   9.436   9.999 -3.4020 -0.7067  2.0774
  481MOL0     H64869   8.172   9.363  10.202  3.3399 -0.4107 -0.9314
  481MOL0     H64870   8.191   8.906  10.237  0.8454  2.2053 -2.6646
  481MOL0     H64871   8.354   8.959  10.248 -0.0378  0.8012 -1.6071
  481MOL0     H64872   8.328   9.005  10.487 -0.7374  3.1017 -0.7552
  481MOL0     H64873   8.278   8.839  10.457  0.4756  0.6515  1.4555
  481MOL0     H64874   8.029   8.923  10.466  1.4376 -0.9717 -2.8482
  481MOL0     H64875   8.087   9.068  10.549 -2.6453 -0.3536 -2.8117
  481MOL0     H64876   8.153   8.774  10.637 -2.5719 -0.8578  2.2247
  481MOL0     H64877   8.205   8.920  10.716 -2.1820 -0.7230  3.0267
  481MOL0     H64878   7.927   8.809  10.676 -1.5175 -3.2911  4.6378
  481MOL0     H64879   8.019   8.791  10.819 -0.1231 -0.2998  0.1529
  481MOL0     H64880   8.024   9.034  10.863  0.5866  0.6050 -0.7756
  481MOL0     H64881   7.914   9.052  10.717 -1.1775 -2.0970 -1.3728
  481MOL0     H64882   7.799   8.845  10.854 -0.5973 -0.5059  1.7810
  481MOL0     H64883   7.737   9.010  10.864  1.5464  2.8903  0.3078
  481MOL0     H64884   7.932   8.907  11.046  0.1200 -1.3048 -0.8383
  481MOL0     H64885   7.830   9.055  11.079 -2.6342 -1.1654  1.4229
  481MOL0     H64886   7.671   8.730  10.975 -2.4518 -0.7052  0.0538
  481MOL0     H64887   7.351   8.729  11.175  0.6034 -0.0718  0.4733
  481MOL0     H64888   7.458   8.630  11.060  1.3243 -1.1205  0.5570
  481MOL0     H64889   7.551   8.506  11.223  2.0469  2.6508 -0.9615
  481MOL0     H64890   7.458   8.575  11.362  1.0822 -2.1224 -0.0100
  481MOL0     H64891   7.325   8.440  11.127 -3.1220 -4.0801  1.0106
  481MOL0     H64892   7.249   8.510  11.261 -0.4327 -1.4046  0.2467
  481MOL0     H64893   7.277   8.264  11.279 -3.0398  1.5509  2.4532
  481MOL0     H64894   7.333   8.344  11.417 -0.7622  1.8594 -0.9844
  481MOL0     H64895   7.300   8.149  11.096  1.0866  1.9055  1.2651
  481MOL0     H64896   7.336   8.097  10.884  1.8754  0.4516 -2.2003
  481MOL0     H64897   7.591   7.839  10.653  1.2588 -0.5266 -1.2274
  481MOL0     H64898   7.555   7.667  10.479  1.4045  0.4273  1.6712
  481MOL0     H64899   7.273   7.757  10.138 -2.3901 -2.8371  0.0688
  481MOL0     H64900   7.431   7.716  10.064  0.3784  0.1262 -0.6808
  481MOL0     H64901   7.354   7.493  10.180 -0.3648  1.0587  0.2995
  481MOL0     H64902   7.217   7.547  10.088  0.3828  3.2312 -0.9872
  481MOL0     H64903   7.363   7.577   9.890  0.4498  1.2152  1.2775
  481MOL0     H64904   7.505   7.495   9.974  0.0076  1.1921 -1.7709
  481MOL0     H64905   7.245   7.349   9.959  0.8313 -0.1424 -0.5978
  481MOL0     H64906   7.416   7.298   9.980  0.7241  1.2748  0.5560
  481MOL0     H64907   7.355   7.228   9.756 -4.3772  1.0897  0.2488
  481MOL0     H64908   7.473   7.366   9.760 -0.4846  0.4525 -1.7418
  481MOL0     H64909   7.179   7.419   9.681 -0.9776 -0.0499 -4.1816
  481MOL0     H64910   7.316   7.528   9.691 -2.3526  0.1503  0.1209
  481MOL0     H64911   7.307   7.276   9.523 -0.8389 -0.8118 -1.0983
  481MOL0     H64912   7.420   7.418   9.496 -0.7587 -1.2741 -2.2474
  481MOL0     H64913   7.135   7.376   9.415  0.8101 -1.2357  2.8304
  481MOL0     H64914   7.183   7.532   9.446  0.0253 -1.0543  2.2573
  481MOL0     H64915   7.371   7.977  10.226 -0.2237  0.9854  0.6247
  481MOL0     H64916   7.337   8.111  10.429  2.6126  1.3369  2.1084
  481MOL0     H64917   7.747   8.111  10.937  0.9399 -1.1945 -0.8873
  481MOL0     H64918   7.705   8.178  11.199 -0.5645  0.3022  0.2571
  481MOL0     H64919   8.194   8.951  10.032 -3.1315 -0.8464 -3.9311
  481MOL0     H64920   8.100   9.038   9.838  2.3689  1.1141 -1.8358
  481MOL0     H64921   7.912   9.404   9.632  1.5266  0.8108  2.3651
  481MOL0     H64922   7.840   9.512   9.439 -0.7547 -1.2595  1.1335
  481MOL0     H64923   7.766   9.570   9.226 -0.0419 -0.1812  0.4809
  481MOL0     H64924   7.791   9.398   9.178  1.2557  0.2924  3.5416
  481MOL0     H64925   7.693   9.528   8.998  0.1034 -2.7435 -0.0459
  481MOL0     H64926   7.868   9.481   8.970 -1.9916 -2.3915  0.6385
  481MOL0     H64927   7.839   9.744   9.096  2.5162 -2.3730  2.1731
  481MOL0     H64928   7.756   9.739   8.941 -0.9248  0.3701  1.3311
  481MOL0     H64929   8.044   9.681   8.990 -0.1553 -1.0105  0.3209
  481MOL0     H64930   7.979   9.664   8.826 -1.4333  0.6889 -1.0326
  481MOL0     H64931   8.042  10.089   8.858  0.5322  0.8074  0.9127
  481MOL0     H64932   8.200   9.417   9.232  1.0746  0.4636  0.9307
  481MOL0     H64933   8.405   9.334   9.480 -0.3737  1.4361 -1.2539
  481MOL0     H64934   8.308   9.198   9.479  3.5526  0.9804  1.2960
  481MOL0     H64935   8.354   9.265   9.321  0.7303 -0.0168  0.3839
  482MOL0     O64936   3.105   1.569   2.937  0.1373 -0.5194  0.0213
  482MOL0     C64937   3.008   1.607   2.877  0.9265  0.4462 -0.7533
  482MOL0     O64938   2.971   1.575   2.748  0.0983  0.1793 -0.0406
  482MOL0     C64939   3.059   1.526   2.651  0.6491  0.0473 -0.5912
  482MOL0     C64940   3.009   1.465   2.539 -0.2832  0.1071  0.0893
  482MOL0     C64941   3.097   1.425   2.441  0.1269  0.8672  0.3774
  482MOL0     C64942   3.230   1.444   2.446 -0.7898  0.0137  0.0525
  482MOL0     O64943   3.304   1.410   2.335 -0.2830 -0.3937 -0.7830
  482MOL0     C64944   3.446   1.443   2.327 -0.0985  0.1865  0.5428
  482MOL0     C64945   3.535   1.358   2.429 -0.3777  0.4438  0.3379
  482MOL0     C64946   3.679   1.358   2.384  0.7081  0.6559  0.6408
  482MOL0     C64947   3.753   1.473   2.444  0.2350 -0.2897  0.3027
  482MOL0     C64948   3.905   1.458   2.433 -0.2225  0.6224 -0.2468
  482MOL0     C64949   3.978   1.456   2.292  0.5632  0.5714  0.5105
  482MOL0     C64950   4.122   1.422   2.319 -0.7712  0.2270 -0.4092
  482MOL0     C64951   4.188   1.553   2.358  1.5573  0.4459 -0.2063
  482MOL0     N64952   4.324   1.535   2.421 -0.7653 -0.2104 -0.4813
  482MOL0     C64953   4.435   1.490   2.354 -0.3157 -0.6938  0.1995
  482MOL0     C64954   4.540   1.475   2.446  1.0191  0.5181 -0.7701
  482MOL0     C64955   4.679   1.440   2.425 -0.4291  0.0832  0.1487
  482MOL0     C64956   4.751   1.541   2.341 -0.6955 -0.2313 -0.2920
  482MOL0     C64957   4.768   1.693   2.381  0.5248  0.4657 -0.0815
  482MOL0     C64958   4.840   1.722   2.509  0.2980  0.0684 -0.5336
  482MOL0     O64959   4.988   1.682   2.493 -0.0298  0.6919 -0.4402
  482MOL0     C64960   5.060   1.694   2.605  0.2034 -0.3932  0.4395
  482MOL0     C64961   5.158   1.781   2.597  0.9758 -0.3674 -0.7171
  482MOL0     C64962   5.245   1.787   2.707  0.9327 -0.3015 -0.7464
  482MOL0     C64963   5.217   1.719   2.832  0.9553 -0.6843 -0.5789
  482MOL0     C64964   5.301   1.740   2.948 -0.1852 -0.2840  0.6957
  482MOL0     O64965   5.378   1.855   2.954 -0.1451  0.5039  0.2284
  482MOL0     C64966   5.474   1.859   3.049 -0.3446  0.5868 -1.0209
  482MOL0     C64967   5.604   1.808   3.019  0.9454  0.0296  0.4463
  482MOL0     C64968   5.705   1.837   3.110 -0.2305  0.0207  0.3203
  482MOL0     C64969   5.681   1.895   3.231  0.0468 -0.6442 -0.0479
  482MOL0     O64970   5.779   1.919   3.332 -1.0784 -0.0092 -0.3305
  482MOL0     C64971   5.864   1.804   3.348 -0.0130 -1.0474  0.1614
  482MOL0     C64972   5.947   1.858   3.469  1.0446  0.2000 -0.2168
  482MOL0     C64973   6.056   1.767   3.518 -0.1389  0.0193 -0.0246
  482MOL0     C64974   6.101   1.813   3.655 -0.9641 -0.7400  0.7013
  482MOL0     C64975   6.200   1.943   3.650  0.5663  0.1070 -0.7773
  482MOL0     C64976   6.245   1.968   3.798 -0.2061  0.2454  0.4781
  482MOL0     C64977   6.386   2.011   3.796 -0.2631 -0.2784  0.5651
  482MOL0     C64978   6.436   2.065   3.925 -0.1835  0.3807 -0.3523
  482MOL0    Cl64979   6.383   2.237   3.966  0.0057  0.2348  0.0552
  482MOL0     C64980   5.559   1.957   3.259  0.9359  0.1889 -0.6277
  482MOL0     C64981   5.458   1.935   3.170 -0.2248  0.0328 -0.2605
  482MOL0     O64982   5.295   1.656   3.037 -0.1738  0.2211  1.1514
  482MOL0     C64983   5.110   1.622   2.829 -0.3536 -0.3509  0.3368
  482MOL0     C64984   5.039   1.608   2.713  0.4611  0.9473 -0.1680
  482MOL0     N64985   4.485   1.513   2.570  0.2118 -0.5558 -0.6878
  482MOL0     N64986   4.362   1.556   2.554 -1.0242 -0.4405 -0.3014
  482MOL0     C64987   3.282   1.505   2.553  0.0259 -0.3543 -0.3772
  482MOL0     C64988   3.191   1.548   2.652 -0.1658 -0.3674 -0.2223
  482MOL0     C64989   2.902   1.654   2.964  0.1841 -0.2715  0.2189
  482MOL0     C64990   2.804   1.729   2.898  0.2152  0.0109 -0.7909
  482MOL0     C64991   2.695   1.792   2.957  0.2251  0.4532 -0.3935
  482MOL0     C64992   2.683   1.792   3.098  0.1565 -0.2226  0.3850
  482MOL0     O64993   2.587   1.869   3.164 -0.3397 -0.0848  0.0479
  482MOL0     C64994   2.497   1.955   3.094 -0.3012  0.4079  0.4427
  482MOL0     C64995   2.394   2.024   3.195 -0.1692  0.0382 -0.0125
  482MOL0     C64996   2.459   2.059   3.335 -0.1635  0.0071 -0.1905
  482MOL0     C64997   2.573   2.152   3.311  0.8184  0.1797  0.8298
  482MOL0     C64998   2.539   2.296   3.311  0.5130  1.0542  0.1482
  482MOL0     C64999   2.493   2.409   3.321 -0.6800  0.2555 -0.2082
  482MOL0     C65000   2.780   1.716   3.169 -0.2806  1.0754  1.2047
  482MOL0     C65001   2.887   1.649   3.102 -0.0600 -0.4393  0.1433
  482MOL0     C65002   2.977   1.558   3.187  0.6396 -0.8790 -0.0801
  482MOL0     H65003   2.904   1.447   2.520 -0.5106  2.5179 -1.3589
  482MOL0     H65004   3.052   1.379   2.353 -0.8286  2.6767 -0.1279
  482MOL0     H65005   3.481   1.424   2.226 -1.7556  0.1786 -0.0572
  482MOL0     H65006   3.440   1.552   2.337  1.2621  0.2594  0.8143
  482MOL0     H65007   3.490   1.258   2.432  3.0832 -1.2948 -0.8097
  482MOL0     H65008   3.531   1.391   2.533  0.5025 -3.3862  1.7430
  482MOL0     H65009   3.699   1.343   2.278 -0.1633 -0.4889  0.6209
  482MOL0     H65010   3.720   1.268   2.430 -2.7853  0.0585  3.0221
  482MOL0     H65011   3.724   1.564   2.391 -1.1128 -0.6520  0.3894
  482MOL0     H65012   3.725   1.495   2.547 -2.7845  1.0319 -0.6862
  482MOL0     H65013   3.955   1.541   2.484 -0.6540  2.0100 -1.9589
  482MOL0     H65014   3.921   1.362   2.483 -1.3908  0.7029  0.3268
  482MOL0     H65015   3.924   1.386   2.228  0.8527  2.9482 -2.5281
  482MOL0     H65016   3.973   1.550   2.237  3.0633  1.2388  1.2957
  482MOL0     H65017   4.163   1.391   2.223  0.9538 -1.8404  0.8995
  482MOL0     H65018   4.151   1.336   2.380 -1.6561 -1.0266 -1.7005
  482MOL0     H65019   4.208   1.615   2.270  3.2937  1.0431  0.5616
  482MOL0     H65020   4.126   1.612   2.426  0.2002  0.1727 -1.1647
  482MOL0     H65021   4.439   1.467   2.248 -1.1348 -0.2371  0.0554
  482MOL0     H65022   4.740   1.430   2.515  2.0053  2.1560 -1.1690
  482MOL0     H65023   4.692   1.339   2.385 -1.4199 -0.1872  0.4729
  482MOL0     H65024   4.849   1.497   2.320 -0.7617 -0.4687 -0.1105
  482MOL0     H65025   4.719   1.533   2.237  3.8820 -2.1956 -1.8125
  482MOL0     H65026   4.669   1.741   2.386  0.0843 -0.5253  1.2797
  482MOL0     H65027   4.819   1.726   2.290 -2.8945 -1.7054 -3.0841
  482MOL0     H65028   4.795   1.671   2.595  1.8043  0.2073  0.3658
  482MOL0     H65029   4.847   1.828   2.535 -1.4448 -0.0543  0.5769
  482MOL0     H65030   5.184   1.839   2.509  2.1477 -0.4758 -0.4667
  482MOL0     H65031   5.321   1.863   2.693  1.0337  0.6726  3.6331
  482MOL0     H65032   5.629   1.745   2.934  1.3360  0.6124  0.1223
  482MOL0     H65033   5.806   1.802   3.093  0.3818  0.9196  1.9069
  482MOL0     H65034   5.806   1.713   3.362 -0.3099 -0.8725  0.0735
  482MOL0     H65035   5.925   1.797   3.258 -0.9661  1.0582 -0.7133
  482MOL0     H65036   5.983   1.959   3.446 -2.3967  1.4491 -0.6976
  482MOL0     H65037   5.873   1.868   3.549  2.2336  1.2566  0.8101
  482MOL0     H65038   6.021   1.664   3.519  1.2323 -0.4738 -0.4501
  482MOL0     H65039   6.146   1.775   3.457  1.5350  1.6418  2.4598
  482MOL0     H65040   6.138   1.718   3.694  0.4912 -0.9679 -1.0681
  482MOL0     H65041   6.012   1.846   3.708 -1.8231  1.6373 -1.9774
  482MOL0     H65042   6.146   2.025   3.603  4.3204  2.1904 -1.8363
  482MOL0     H65043   6.283   1.907   3.589  0.4829  1.2347 -1.5884
  482MOL0     H65044   6.178   2.039   3.847  0.7127  0.9598  0.7089
  482MOL0     H65045   6.240   1.880   3.864 -1.5952  1.2333  1.7475
  482MOL0     H65046   6.403   2.092   3.724  2.5473  1.3473  2.8184
  482MOL0     H65047   6.442   1.922   3.766 -1.9000 -0.5935 -1.8302
  482MOL0     H65048   6.422   1.988   4.002  1.3455 -0.4850 -0.8915
  482MOL0     H65049   6.544   2.081   3.919 -0.1438  2.4191  2.8340
  482MOL0     H65050   5.552   2.023   3.345  0.5038  2.3366 -2.2192
  482MOL0     H65051   5.354   1.967   3.174  0.0174  1.0196 -1.2602
  482MOL0     H65052   5.090   1.556   2.914  2.2479 -4.6038 -1.9707
  482MOL0     H65053   4.966   1.527   2.710  0.9201  0.3183  2.6713
  482MOL0     H65054   3.387   1.529   2.553 -0.6622  3.1266  0.2990
  482MOL0     H65055   3.219   1.612   2.735 -0.6922 -0.0828 -0.2610
  482MOL0     H65056   2.831   1.737   2.793  2.2617  1.1382 -0.2288
  482MOL0     H65057   2.628   1.854   2.899  0.2632  2.7806  1.8865
  482MOL0     H65058   2.455   1.896   3.012  2.4676 -0.4805 -0.4595
  482MOL0     H65059   2.560   2.033   3.051  2.2005 -0.8436  1.6426
  482MOL0     H65060   2.318   1.950   3.224 -0.9088  1.2902  1.4040
  482MOL0     H65061   2.344   2.098   3.132  0.9759  0.7052 -0.1552
  482MOL0     H65062   2.502   1.966   3.371  0.9230  0.6614  0.2398
  482MOL0     H65063   2.387   2.093   3.410 -1.7064 -2.7233 -0.3198
  482MOL0     H65064   2.648   2.133   3.389  0.6728 -2.4038  0.4244
  482MOL0     H65065   2.620   2.129   3.215 -0.5874 -2.0683  0.6136
  482MOL0     H65066   2.476   2.515   3.330 -0.3465  0.7072 -3.5828
  482MOL0     H65067   2.756   1.691   3.272 -1.4319 -1.3208  0.4376
  482MOL0     H65068   3.061   1.607   3.237 -1.6673 -0.0794  3.4251
  482MOL0     H65069   2.907   1.524   3.264 -2.3340  3.1173 -0.6723
  482MOL0     H65070   3.007   1.470   3.129  1.2890  0.2238 -1.4471
  483MOL0     O65071  10.595   6.210   3.686 -0.4367  0.2753  0.0628
  483MOL0     C65072  10.653   6.313   3.724  0.1750 -0.3948  0.4597
  483MOL0     O65073  10.771   6.322   3.801 -0.4805 -0.4471 -0.3530
  483MOL0     C65074  10.850   6.216   3.824  0.0937  0.3290 -0.3161
  483MOL0     C65075  10.904   6.203   3.948 -0.4250 -0.4226 -1.0875
  483MOL0     C65076  10.998   6.111   3.987  0.2681  0.2709 -0.4042
  483MOL0     C65077  11.024   6.011   3.892  0.6840 -0.1871  0.4006
  483MOL0     O65078  11.115   5.918   3.928 -0.0189  0.3105 -0.1793
  483MOL0     C65079  11.140   5.815   3.841 -0.2300 -0.0761 -0.2165
  483MOL0     C65080  11.252   5.728   3.903 -0.0468 -0.5000  0.1981
  483MOL0     C65081  11.237   5.578   3.857 -0.5605  0.5212 -0.8459
  483MOL0     C65082  11.294   5.567   3.717  0.1668  0.6572  0.6140
  483MOL0     C65083  11.319   5.412   3.673 -0.2179 -0.0536 -1.0563
  483MOL0     C65084  11.424   5.341   3.770 -0.0566  0.0614  0.6495
  483MOL0     C65085  11.447   5.198   3.709  0.3061  0.5679 -0.6209
  483MOL0     C65086  11.538   5.126   3.812  0.8179 -0.2414  0.3532
  483MOL0     N65087  11.675   5.187   3.819  0.0922 -0.1806 -0.8798
  483MOL0     C65088  11.742   5.224   3.703  0.3743 -0.0533  0.4279
  483MOL0     C65089  11.867   5.246   3.742  0.3416  0.0603  1.0026
  483MOL0     C65090  11.986   5.295   3.658  0.1848  0.5123  0.1130
  483MOL0     C65091  11.939   5.405   3.563 -0.5216  0.3424 -0.4791
  483MOL0     C65092  11.905   5.538   3.638  0.9259  0.5413  0.0410
  483MOL0     C65093  12.027   5.610   3.683 -0.5685 -0.4076  0.2088
  483MOL0     O65094  12.006   5.709   3.787  0.3210  0.1224 -0.3067
  483MOL0     C65095  11.937   5.674   3.896  0.1982 -0.2905 -0.1848
  483MOL0     C65096  11.829   5.748   3.935 -0.0747  0.7586 -1.4320
  483MOL0     C65097  11.738   5.701   4.025 -1.1587 -0.0454  0.5205
  483MOL0     C65098  11.756   5.574   4.086  0.1270  0.5814 -0.0846
  483MOL0     C65099  11.660   5.501   4.178 -0.3716  0.4509  0.1209
  483MOL0     O65100  11.714   5.445   4.292 -0.3203 -1.4626  0.1297
  483MOL0     C65101  11.633   5.375   4.378 -0.5186 -0.0749 -0.6497
  483MOL0     C65102  11.654   5.237   4.409  0.3415  0.5876  1.3329
  483MOL0     C65103  11.570   5.173   4.505 -0.9310  0.6635 -0.0010
  483MOL0     C65104  11.467   5.242   4.562 -0.0790  0.4502  0.0419
  483MOL0     O65105  11.369   5.179   4.642 -0.6097  0.1934  0.7359
  483MOL0     C65106  11.237   5.221   4.630  0.4906  0.1209 -1.0191
  483MOL0     C65107  11.145   5.112   4.685  0.5446  1.1098 -0.6190
  483MOL0     C65108  10.992   5.128   4.662  0.5027 -0.2702 -0.9661
  483MOL0     C65109  10.940   5.254   4.716 -0.4892 -0.1869  0.0408
  483MOL0     C65110  10.810   5.286   4.634 -0.9310 -0.3335  0.8008
  483MOL0     C65111  10.785   5.438   4.634  0.1487  0.2718  0.2821
  483MOL0     C65112  10.689   5.484   4.526 -0.4331 -0.3018 -0.2433
  483MOL0     C65113  10.632   5.626   4.545  0.5678 -0.3535  1.1438
  483MOL0    Cl65114  10.486   5.675   4.444  0.6900 -0.0890 -0.4869
  483MOL0     C65115  11.457   5.381   4.541 -0.6191 -0.2813  0.9315
  483MOL0     C65116  11.542   5.453   4.454 -0.3201 -0.3630  0.6771
  483MOL0     O65117  11.538   5.497   4.147  0.3200 -0.2591 -1.0034
  483MOL0     C65118  11.879   5.507   4.059 -0.3259 -0.2595 -0.3440
  483MOL0     C65119  11.965   5.555   3.963  0.6864 -0.0328 -0.5376
  483MOL0     N65120  11.871   5.225   3.880 -0.4533  0.5862  0.5164
  483MOL0     N65121  11.756   5.200   3.926  0.1138  0.5763  0.3186
  483MOL0     C65122  10.977   6.024   3.763  0.4035 -0.1650 -0.4339
  483MOL0     C65123  10.899   6.131   3.728  0.1427  0.2987  0.3354
  483MOL0     C65124  10.578   6.441   3.709  1.1523  0.2453 -1.0259
  483MOL0     C65125  10.586   6.536   3.814 -1.0089  0.2059 -0.2949
  483MOL0     C65126  10.528   6.657   3.800  0.0174 -1.2557  0.9093
  483MOL0     C65127  10.460   6.693   3.684 -0.6004 -0.9067 -0.0394
  483MOL0     O65128  10.409   6.817   3.687 -0.6435 -0.2036 -0.1608
  483MOL0     C65129  10.321   6.867   3.589  0.2668  0.4487 -0.4715
  483MOL0     C65130  10.303   7.019   3.620 -1.0971  0.7922 -0.1620
  483MOL0     C65131  10.187   7.081   3.537 -0.5812 -0.2137  0.2038
  483MOL0     C65132  10.151   7.221   3.584  0.2180 -0.2008  0.2773
  483MOL0     C65133  10.089   7.283   3.471  0.2536  0.0609  0.6365
  483MOL0     C65134  10.018   7.328   3.381 -0.3784 -0.8405 -0.0110
  483MOL0     C65135  10.447   6.597   3.582 -0.4728 -0.2425 -0.7341
  483MOL0     C65136  10.498   6.468   3.591  0.3596  0.0670  0.5341
  483MOL0     C65137  10.483   6.376   3.467  0.3236 -0.3060  0.1388
  483MOL0     H65138  10.854   6.266   4.022 -3.5126  1.8243 -4.7244
  483MOL0     H65139  11.044   6.112   4.085  0.6234  2.8519 -0.5326
  483MOL0     H65140  11.055   5.749   3.824  1.0527 -2.3544  1.6273
  483MOL0     H65141  11.181   5.844   3.744 -0.0997  1.4388  0.2704
  483MOL0     H65142  11.244   5.733   4.012 -1.4005  1.4693  0.0751
  483MOL0     H65143  11.346   5.773   3.871 -1.0905 -0.4144 -3.1688
  483MOL0     H65144  11.131   5.550   3.852 -0.8692  1.6456 -0.7448
  483MOL0     H65145  11.294   5.522   3.931 -4.3998  0.4324  2.3354
  483MOL0     H65146  11.218   5.608   3.650 -0.0960  2.1908  1.7956
  483MOL0     H65147  11.385   5.627   3.722 -0.9802  2.4365  1.1335
  483MOL0     H65148  11.223   5.359   3.666  0.1891 -0.7595 -1.3856
  483MOL0     H65149  11.357   5.406   3.571  2.7284  2.6060 -0.2667
  483MOL0     H65150  11.516   5.399   3.763  0.1129 -0.3294 -0.9642
  483MOL0     H65151  11.393   5.332   3.874  1.2656 -1.2818  0.9588
  483MOL0     H65152  11.484   5.199   3.606  1.2270  2.9860 -0.3229
  483MOL0     H65153  11.350   5.147   3.703 -0.5232  1.8016  1.2465
  483MOL0     H65154  11.488   5.137   3.909 -0.3865  1.8312 -0.4278
  483MOL0     H65155  11.555   5.024   3.779  1.6492 -0.1123  0.3568
  483MOL0     H65156  11.714   5.213   3.599  0.3673 -1.0699  0.5291
  483MOL0     H65157  12.069   5.322   3.723  0.1043  0.8572  0.0775
  483MOL0     H65158  12.024   5.208   3.603  2.0428  1.2247  0.2207
  483MOL0     H65159  12.011   5.426   3.484 -0.1725 -0.6667 -0.4509
  483MOL0     H65160  11.861   5.359   3.502  2.0353 -3.8234 -1.0192
  483MOL0     H65161  11.843   5.501   3.720  1.6617 -0.4247  0.1836
  483MOL0     H65162  11.840   5.594   3.571  1.7446  1.2628 -0.1712
  483MOL0     H65163  12.065   5.646   3.586 -0.7384 -1.6262 -0.3357
  483MOL0     H65164  12.102   5.546   3.731 -2.9440 -2.1721  1.7773
  483MOL0     H65165  11.811   5.845   3.892 -0.6587  2.2772  1.9390
  483MOL0     H65166  11.649   5.760   4.044  0.1199  2.3358 -0.4271
  483MOL0     H65167  11.719   5.190   4.335 -4.4960  2.1993 -4.8367
  483MOL0     H65168  11.580   5.067   4.525 -2.3051  0.7896  1.5123
  483MOL0     H65169  11.233   5.316   4.685 -0.5392  0.9590 -2.4876
  483MOL0     H65170  11.212   5.243   4.526  1.8378 -1.3150 -1.7043
  483MOL0     H65171  11.184   5.017   4.645  0.2155  1.2497 -1.2987
  483MOL0     H65172  11.171   5.112   4.791  2.0525 -1.0422 -0.9121
  483MOL0     H65173  10.970   5.110   4.557 -1.4902  0.2506 -0.6786
  483MOL0     H65174  10.937   5.051   4.716 -4.2819  2.6319 -1.1470
  483MOL0     H65175  11.018   5.330   4.709  1.1358 -1.7755  0.1041
  483MOL0     H65176  10.912   5.245   4.822 -3.3773  1.0580 -0.5280
  483MOL0     H65177  10.721   5.238   4.677 -1.1646  1.9140  3.0939
  483MOL0     H65178  10.835   5.252   4.533  0.6391  0.9372  0.7292
  483MOL0     H65179  10.739   5.452   4.732  2.6577 -0.8627  1.7156
  483MOL0     H65180  10.879   5.494   4.631 -0.7203  1.8030 -3.3558
  483MOL0     H65181  10.602   5.417   4.516 -0.4491 -0.3571  0.2312
  483MOL0     H65182  10.744   5.491   4.432  0.2662  1.9810  0.2978
  483MOL0     H65183  10.613   5.652   4.649  1.8623  1.0770  1.0644
  483MOL0     H65184  10.718   5.690   4.520  1.5444 -0.8194  3.1461
  483MOL0     H65185  11.377   5.443   4.579 -1.7281  1.4957 -3.7188
  483MOL0     H65186  11.547   5.557   4.424  1.6465 -0.3052  1.0911
  483MOL0     H65187  11.902   5.414   4.109  2.4947  0.3547 -0.3344
  483MOL0     H65188  12.056   5.503   3.933  0.2946  0.1854 -2.2576
  483MOL0     H65189  11.017   5.960   3.685 -1.1467 -0.7015 -0.8230
  483MOL0     H65190  10.858   6.158   3.631 -1.0094  2.3083  1.3194
  483MOL0     H65191  10.628   6.499   3.907 -2.2550 -3.6530 -1.0711
  483MOL0     H65192  10.550   6.732   3.875 -0.4349  0.9543 -1.0693
  483MOL0     H65193  10.227   6.813   3.594  0.6287 -0.0741  2.6158
  483MOL0     H65194  10.348   6.861   3.483 -3.5572  0.6386 -1.5820
  483MOL0     H65195  10.393   7.078   3.600 -2.1731  1.4691 -3.7752
  483MOL0     H65196  10.289   7.022   3.728 -2.4279  2.5587 -0.3287
  483MOL0     H65197  10.100   7.016   3.546 -2.6024  1.7753 -3.0734
  483MOL0     H65198  10.216   7.074   3.432 -0.0588 -0.5829  0.3645
  483MOL0     H65199  10.081   7.195   3.664 -0.2585 -0.0489 -0.0848
  483MOL0     H65200  10.233   7.283   3.623  0.1833 -0.9143  1.5496
  483MOL0     H65201   9.953   7.376   3.310  0.6862  3.3308  1.5122
  483MOL0     H65202  10.392   6.619   3.491 -1.7700 -0.9092 -0.1287
  483MOL0     H65203  10.446   6.433   3.382  0.4006 -0.4708 -0.0072
  483MOL0     H65204  10.581   6.330   3.446 -0.1351 -0.5260 -1.7539
  483MOL0     H65205  10.416   6.295   3.498 -0.1863  0.1778  0.2961
  484MOL0     O65206   8.788   4.117   7.410 -0.1551  0.7918 -0.7727
  484MOL0     C65207   8.703   4.114   7.314 -0.4486  0.4544 -1.5379
  484MOL0     O65208   8.569   4.105   7.321  0.0798  0.2522  0.3094
  484MOL0     C65209   8.512   4.135   7.442  0.3983 -0.5417  0.6053
  484MOL0     C65210   8.494   4.034   7.537  0.1817 -0.3021 -1.2306
  484MOL0     C65211   8.430   4.067   7.660 -0.0017 -0.9528 -0.7380
  484MOL0     C65212   8.371   4.197   7.679 -0.2249  0.5301 -0.2327
  484MOL0     O65213   8.334   4.246   7.806  0.2662  0.1363  0.5262
  484MOL0     C65214   8.246   4.359   7.824  0.3817  0.1618  0.1029
  484MOL0     C65215   8.180   4.346   7.956 -0.8283 -0.7286 -0.4270
  484MOL0     C65216   8.106   4.465   7.990  0.2604  0.3040  0.1379
  484MOL0     C65217   8.101   4.486   8.144 -0.2328  0.0056 -1.4147
  484MOL0     C65218   8.007   4.595   8.192  0.3701  0.7036  0.7915
  484MOL0     C65219   8.012   4.640   8.334  0.1068 -0.2490 -0.2924
  484MOL0     C65220   7.924   4.765   8.359 -0.3479 -0.0431 -0.3815
  484MOL0     C65221   7.796   4.743   8.452 -0.2575 -0.1472 -0.7081
  484MOL0     N65222   7.737   4.862   8.489 -0.9910 -0.2559 -0.3662
  484MOL0     C65223   7.648   4.883   8.584  0.1710  0.9897  0.8427
  484MOL0     C65224   7.590   5.006   8.552 -0.0526  0.1414  0.3753
  484MOL0     C65225   7.477   5.091   8.600 -0.2157  0.2479 -1.1241
  484MOL0     C65226   7.543   5.204   8.684  0.1724 -0.3729 -0.1793
  484MOL0     C65227   7.449   5.318   8.734  0.8325  0.4835 -0.1276
  484MOL0     C65228   7.520   5.434   8.800  0.6656 -0.4441  0.9235
  484MOL0     O65229   7.418   5.513   8.863  0.4947  0.5826 -0.3116
  484MOL0     C65230   7.448   5.571   8.981  0.9563 -0.4014  0.6722
  484MOL0     C65231   7.571   5.596   9.040 -0.1525 -0.1830 -0.1382
  484MOL0     C65232   7.583   5.675   9.154 -0.3506  0.2333  0.0394
  484MOL0     C65233   7.468   5.710   9.231  0.6037 -0.0151  0.4865
  484MOL0     C65234   7.477   5.758   9.375 -0.3469  0.2300  0.0503
  484MOL0     O65235   7.593   5.802   9.407 -0.3069  0.2982  0.4782
  484MOL0     C65236   7.599   5.902   9.500 -0.3378  0.5988  0.1639
  484MOL0     C65237   7.620   6.040   9.469 -0.7739  0.8371 -0.4214
  484MOL0     C65238   7.619   6.131   9.574  0.2177 -0.0383  0.6198
  484MOL0     C65239   7.609   6.094   9.710  0.8271 -1.0346 -0.9037
  484MOL0     O65240   7.625   6.192   9.809  0.0947 -0.1855 -0.0529
  484MOL0     C65241   7.647   6.151   9.943  0.3412  0.2123 -0.2189
  484MOL0     C65242   7.651   6.270  10.034  0.5130 -0.7380  0.2740
  484MOL0     C65243   7.707   6.222  10.169 -0.9821 -0.2731 -0.8771
  484MOL0     C65244   7.660   6.309  10.293 -0.4422 -0.6458 -0.6985
  484MOL0     C65245   7.727   6.260  10.430  0.5046 -0.1482 -0.0290
  484MOL0     C65246   7.661   6.321  10.549  0.2467  0.5683  0.4118
  484MOL0     C65247   7.697   6.256  10.685 -0.0249 -0.4194 -0.3415
  484MOL0     C65248   7.847   6.229  10.707 -0.1785  0.4591  0.1024
  484MOL0    Cl65249   7.936   6.373  10.763  0.1380 -0.0453 -0.3127
  484MOL0     C65250   7.602   5.957   9.741  0.2026 -0.2402 -0.2772
  484MOL0     C65251   7.591   5.868   9.634 -0.8442 -0.3885  0.0456
  484MOL0     O65252   7.371   5.760   9.448 -0.6668 -0.0722 -0.7470
  484MOL0     C65253   7.345   5.689   9.166 -0.3816 -0.1062  0.0797
  484MOL0     C65254   7.332   5.614   9.048 -0.1886  0.3051  0.3883
  484MOL0     N65255   7.653   5.057   8.440  0.0943 -0.5164 -0.2900
  484MOL0     N65256   7.733   4.973   8.402 -0.4817  0.6635  0.5741
  484MOL0     C65257   8.384   4.295   7.585 -0.1793  0.7077  0.7768
  484MOL0     C65258   8.451   4.266   7.467  0.0733  1.9267  0.6539
  484MOL0     C65259   8.761   4.093   7.179 -0.2972 -0.6927  0.7952
  484MOL0     C65260   8.696   3.994   7.106 -0.4849  1.2032 -0.3394
  484MOL0     C65261   8.764   3.963   6.986  1.3927  0.7868 -0.0184
  484MOL0     C65262   8.870   4.036   6.941  0.3844 -0.7049  1.0053
  484MOL0     O65263   8.921   4.001   6.820 -0.7558 -1.0549  0.2671
  484MOL0     C65264   8.834   4.014   6.707 -0.1928  0.1892 -0.0861
  484MOL0     C65265   8.807   4.164   6.688 -0.7423  0.7462 -0.4589
  484MOL0     C65266   8.841   4.209   6.543 -0.8689  0.5156 -0.5022
  484MOL0     C65267   8.830   4.354   6.509  0.6601  0.2562  0.0850
  484MOL0     C65268   8.942   4.441   6.551  0.1994  0.6188 -0.6653
  484MOL0     C65269   9.025   4.525   6.584  0.8374 -0.4861 -0.2316
  484MOL0     C65270   8.935   4.133   7.016 -0.4374  0.1232 -0.0844
  484MOL0     C65271   8.875   4.167   7.129  0.6366  0.0140 -0.0153
  484MOL0     C65272   8.918   4.284   7.203 -0.2601  0.1779 -0.5842
  484MOL0     H65273   8.524   3.931   7.521 -0.9183 -0.8042 -0.2211
  484MOL0     H65274   8.421   3.993   7.739  3.6283 -2.9635 -1.9435
  484MOL0     H65275   8.309   4.446   7.804  1.2493 -1.0862 -3.4686
  484MOL0     H65276   8.164   4.358   7.752  0.1465  0.2460  0.3685
  484MOL0     H65277   8.263   4.339   8.026  2.2742  2.7192 -3.3633
  484MOL0     H65278   8.110   4.262   7.970 -0.4869 -0.7785  1.2865
  484MOL0     H65279   8.001   4.450   7.962  0.2403  1.2375 -0.3326
  484MOL0     H65280   8.151   4.552   7.941  0.7220 -0.8523 -1.6092
  484MOL0     H65281   8.071   4.400   8.204  2.2131  1.8620  2.9463
  484MOL0     H65282   8.201   4.514   8.179  0.3522 -1.1595 -2.0658
  484MOL0     H65283   8.036   4.680   8.130  1.7744  0.0207  0.4651
  484MOL0     H65284   7.903   4.567   8.175  0.0460  2.6836 -0.9003
  484MOL0     H65285   7.976   4.557   8.396 -0.7825  0.9072  0.8182
  484MOL0     H65286   8.116   4.648   8.367  0.5542 -2.5455 -0.9616
  484MOL0     H65287   7.906   4.814   8.264  1.7881  2.3998  0.3747
  484MOL0     H65288   7.980   4.844   8.410 -2.6069  2.9408 -2.2377
  484MOL0     H65289   7.721   4.689   8.393 -0.5140 -0.1313 -0.3973
  484MOL0     H65290   7.807   4.688   8.545 -1.1909  1.9438  0.7359
  484MOL0     H65291   7.617   4.819   8.666  1.9157  1.2263  1.7212
  484MOL0     H65292   7.419   5.141   8.522  0.4301 -1.1862 -2.5787
  484MOL0     H65293   7.408   5.039   8.668  0.0086  0.4954 -0.6975
  484MOL0     H65294   7.600   5.153   8.762  0.9438  1.1959  0.3187
  484MOL0     H65295   7.609   5.250   8.611  0.0346 -0.1477 -0.1614
  484MOL0     H65296   7.387   5.268   8.808  1.1447 -2.2898 -1.6354
  484MOL0     H65297   7.390   5.366   8.656  1.2258 -0.0167 -0.7399
  484MOL0     H65298   7.569   5.500   8.728 -1.2598  2.0570  1.7799
  484MOL0     H65299   7.588   5.393   8.874  0.4294 -1.4018  0.6264
  484MOL0     H65300   7.662   5.580   8.983  1.7960  0.7871  2.5058
  484MOL0     H65301   7.674   5.727   9.180 -0.7367 -0.8711  4.1693
  484MOL0     H65302   7.638   6.067   9.366  1.3477  1.3599  0.0340
  484MOL0     H65303   7.643   6.235   9.554 -0.1291  0.1930  1.3631
  484MOL0     H65304   7.563   6.091   9.978 -0.2065  1.0581 -0.0569
  484MOL0     H65305   7.736   6.088   9.951 -0.1502 -0.4317  0.3054
  484MOL0     H65306   7.722   6.339   9.987  1.5003  0.1243  2.8925
  484MOL0     H65307   7.554   6.316  10.053 -0.1908 -2.5635  1.3999
  484MOL0     H65308   7.675   6.120  10.191  2.0358 -1.1564 -0.0716
  484MOL0     H65309   7.815   6.232  10.154 -0.8750  5.3771  1.1962
  484MOL0     H65310   7.551   6.303  10.303 -0.3350 -0.1268  0.8753
  484MOL0     H65311   7.695   6.411  10.277  1.0178 -1.1513 -0.8753
  484MOL0     H65312   7.828   6.301  10.418 -0.2064  2.8321  2.7419
  484MOL0     H65313   7.731   6.151  10.432 -0.4351 -0.1755  0.6561
  484MOL0     H65314   7.683   6.428  10.560  1.2315  0.3507  0.7001
  484MOL0     H65315   7.553   6.313  10.539  0.2409  0.5695  0.4698
  484MOL0     H65316   7.651   6.157  10.671 -3.9984  0.9415  1.5683
  484MOL0     H65317   7.650   6.304  10.771 -1.9517 -2.0027 -0.4070
  484MOL0     H65318   7.863   6.157  10.788  1.5084 -1.1267 -1.5303
  484MOL0     H65319   7.894   6.184  10.618 -2.2846 -1.2451 -0.2529
  484MOL0     H65320   7.599   5.916   9.842  0.1269 -0.5136 -0.3917
  484MOL0     H65321   7.570   5.765   9.662  1.3975 -1.0837 -0.5663
  484MOL0     H65322   7.256   5.693   9.227  0.8666  3.8467  1.9787
  484MOL0     H65323   7.236   5.578   9.012 -0.8977  2.0976  0.3487
  484MOL0     H65324   8.342   4.394   7.601 -0.1343  0.9122 -0.3551
  484MOL0     H65325   8.463   4.334   7.384  3.1834 -0.7190 -1.3020
  484MOL0     H65326   8.610   3.932   7.128  1.7326 -2.0616 -0.1584
  484MOL0     H65327   8.712   3.890   6.924 -1.6910 -0.6721  3.8538
  484MOL0     H65328   8.742   3.954   6.701 -0.7468  0.9140  0.8049
  484MOL0     H65329   8.889   3.971   6.623  1.0597 -3.5160  2.4151
  484MOL0     H65330   8.876   4.223   6.749 -1.3054 -1.0833  2.1044
  484MOL0     H65331   8.705   4.187   6.722 -0.5141  3.1055 -1.1866
  484MOL0     H65332   8.770   4.154   6.481 -0.3135 -0.8104 -0.0064
  484MOL0     H65333   8.942   4.194   6.503 -1.0755 -0.5212 -0.6676
  484MOL0     H65334   8.822   4.366   6.401  1.6191  1.8888  0.1597
  484MOL0     H65335   8.730   4.389   6.536 -0.4784 -2.8616  0.3450
  484MOL0     H65336   9.095   4.603   6.607  0.4256  1.1141 -3.7025
  484MOL0     H65337   9.029   4.172   6.978 -0.4776 -1.6519 -2.1908
  484MOL0     H65338   8.993   4.255   7.277 -4.4199  2.6026  5.4517
  484MOL0     H65339   8.963   4.358   7.137 -2.1012  0.3081 -1.7717
  484MOL0     H65340   8.833   4.333   7.253  0.6595  1.0818  0.1173
  485MOL0     O65341   8.568   9.754   1.107  0.4280  0.1775  0.5457
  485MOL0     C65342   8.501   9.853   1.072  0.1717 -0.7209  0.3486
  485MOL0     O65343   8.425   9.919   1.156 -0.5442  0.7124  0.7311
  485MOL0     C65344   8.355   9.848   1.247 -0.3994 -0.2874 -0.1765
  485MOL0     C65345   8.282   9.733   1.209 -0.3737  0.5965 -0.1692
  485MOL0     C65346   8.199   9.669   1.299  0.6743 -0.5538 -0.2344
  485MOL0     C65347   8.179   9.728   1.428 -0.2369 -0.4880  0.7275
  485MOL0     O65348   8.090   9.694   1.524  0.2130  0.2723  0.5754
  485MOL0     C65349   8.046   9.561   1.528  0.2421 -0.3489  0.0209
  485MOL0     C65350   7.913   9.558   1.603  0.7394  0.5001 -0.4923
  485MOL0     C65351   7.790   9.609   1.522 -0.8362  0.4363  0.8742
  485MOL0     C65352   7.760   9.516   1.404  0.1612  0.0575  0.3855
  485MOL0     C65353   7.628   9.544   1.336  1.2166 -0.2533  0.6927
  485MOL0     C65354   7.602   9.686   1.290 -0.2621  0.0064  0.8952
  485MOL0     C65355   7.686   9.726   1.163  0.1417 -0.6366 -0.0304
  485MOL0     C65356   7.676   9.868   1.145 -0.7317 -0.3953  0.0119
  485MOL0     N65357   7.752   9.910   1.028 -0.6618  0.3977  1.2066
  485MOL0     C65358   7.885   9.954   1.015  0.3339  0.3715 -0.6152
  485MOL0     C65359   7.893   9.996   0.894  0.0048  0.6210 -0.6981
  485MOL0     C65360   8.010  10.062   0.825 -0.0107 -0.9386 -0.6899
  485MOL0     C65361   8.026  10.205   0.882  0.3724 -0.5231 -0.0122
  485MOL0     C65362   8.114  10.299   0.802 -0.1221 -0.7644 -0.3334
  485MOL0     C65363   8.138  10.430   0.882 -0.2002 -0.3775  0.3801
  485MOL0     O65364   8.164  10.404   1.021 -1.1182 -0.9194 -0.1615
  485MOL0     C65365   8.289  10.352   1.052  0.6461  0.2602  0.0038
  485MOL0     C65366   8.306  10.320   1.190 -0.2592 -0.2620 -0.0831
  485MOL0     C65367   8.410  10.250   1.236 -0.2317  0.7374  0.1369
  485MOL0     C65368   8.514  10.208   1.148  0.2430 -0.1394 -0.0695
  485MOL0     C65369   8.644  10.128   1.199  0.4791 -0.1664  0.6701
  485MOL0     O65370   8.747  10.117   1.117  0.3923 -0.0711  0.6250
  485MOL0     C65371   8.850  10.034   1.147 -0.2292 -0.3077  0.0298
  485MOL0     C65372   8.847   9.906   1.218  0.2678 -0.1409  0.5654
  485MOL0     C65373   8.962   9.832   1.224  0.1445  1.4016  0.4206
  485MOL0     C65374   9.080   9.862   1.156  0.5881 -0.8582 -0.5341
  485MOL0     O65375   9.189   9.785   1.152  0.1428 -0.4329  0.5336
  485MOL0     C65376   9.210   9.689   1.251 -0.1625  0.2922  0.6789
  485MOL0     C65377   9.271   9.757   1.369 -0.5522  0.0369  0.4862
  485MOL0     C65378   9.268   9.650   1.483 -0.0599  0.7785  2.0962
  485MOL0     C65379   9.396   9.636   1.553 -1.0731  0.0759  0.4620
  485MOL0     C65380   9.407   9.520   1.651  0.2624 -0.1351 -0.6781
  485MOL0     C65381   9.404   9.379   1.601 -0.4694  0.6311  0.4614
  485MOL0     C65382   9.430   9.277   1.723  0.1785  0.1001  0.3225
  485MOL0     C65383   9.292   9.244   1.774  0.2716  0.2827 -0.5962
  485MOL0    Cl65384   9.209   9.133   1.650 -0.1295 -0.0330 -0.3333
  485MOL0     C65385   9.084   9.984   1.087  0.2231 -0.4134 -0.4579
  485MOL0     C65386   8.972  10.066   1.084  0.2535 -0.0163  0.3368
  485MOL0     O65387   8.629  10.087   1.307 -0.3997 -0.0001  0.4972
  485MOL0     C65388   8.511  10.258   1.011 -0.0900  0.1891 -0.6648
  485MOL0     C65389   8.397  10.320   0.966  0.6038  0.0475  0.1582
  485MOL0     N65390   7.773   9.992   0.833  0.5463 -0.1945  0.1141
  485MOL0     N65391   7.690   9.940   0.910  0.3018 -0.4285  0.1457
  485MOL0     C65392   8.255   9.849   1.464 -0.1223 -0.6676 -0.9523
  485MOL0     C65393   8.349   9.907   1.380 -0.6189  0.5103 -0.1430
  485MOL0     C65394   8.498   9.904   0.926 -0.7096 -0.1875 -0.7879
  485MOL0     C65395   8.396   9.991   0.883 -0.0099  0.0484 -0.2087
  485MOL0     C65396   8.379  10.027   0.747 -1.1775  0.3075  0.4875
  485MOL0     C65397   8.467   9.989   0.645 -0.7532 -1.4198  0.4477
  485MOL0     O65398   8.441  10.026   0.514 -0.4451 -0.0815 -0.0336
  485MOL0     C65399   8.526   9.996   0.401 -0.6987  0.3696 -0.2493
  485MOL0     C65400   8.543  10.127   0.312  0.3277 -0.2303  0.6491
  485MOL0     C65401   8.621  10.080   0.185  0.0239 -0.0362  0.7245
  485MOL0     C65402   8.767  10.064   0.204 -0.6931 -0.9763 -0.4975
  485MOL0     C65403   8.839  10.046   0.072 -0.5614 -1.1538  0.0342
  485MOL0     C65404   8.898  10.031  -0.030  0.0900  0.8610 -0.0504
  485MOL0     C65405   8.580   9.928   0.694 -0.2960 -0.3661  0.3284
  485MOL0     C65406   8.594   9.881   0.831 -0.4081  0.5736 -0.6323
  485MOL0     C65407   8.719   9.792   0.867 -0.0120 -0.9333  0.6553
  485MOL0     H65408   8.278   9.708   1.103 -0.7930  1.0199 -0.2588
  485MOL0     H65409   8.147   9.579   1.265  0.5625  0.0680 -1.7804
  485MOL0     H65410   8.044   9.510   1.431  2.1276 -1.2230  0.4074
  485MOL0     H65411   8.107   9.510   1.603 -2.0509  0.9415  2.9853
  485MOL0     H65412   7.920   9.628   1.686 -0.5053  0.3434 -0.2346
  485MOL0     H65413   7.898   9.459   1.647  1.2455  1.1215  1.1703
  485MOL0     H65414   7.821   9.711   1.497 -0.2089  0.3639  1.3394
  485MOL0     H65415   7.707   9.611   1.594  1.1192  1.0087  3.2346
  485MOL0     H65416   7.846   9.539   1.340 -0.0074  4.4647  1.4501
  485MOL0     H65417   7.760   9.411   1.434  0.7835 -0.3790 -1.0463
  485MOL0     H65418   7.606   9.484   1.247 -1.0442  0.1479  0.9262
  485MOL0     H65419   7.545   9.518   1.403 -0.1687  1.0011 -0.4753
  485MOL0     H65420   7.499   9.693   1.255  0.3563 -2.0505 -1.7219
  485MOL0     H65421   7.617   9.765   1.364  0.2024 -1.5499  2.5435
  485MOL0     H65422   7.646   9.671   1.077 -2.1512  0.4482  0.2636
  485MOL0     H65423   7.793   9.714   1.182  0.5199  2.1639 -0.0764
  485MOL0     H65424   7.576   9.909   1.134 -1.5219 -1.9325  1.0993
  485MOL0     H65425   7.725   9.917   1.229  1.4651 -0.6895 -1.0249
  485MOL0     H65426   7.964   9.944   1.089 -1.0708  0.1564  0.9166
  485MOL0     H65427   8.098   9.997   0.830 -1.1480 -2.6420 -1.7157
  485MOL0     H65428   7.982  10.070   0.719 -2.1921  1.3339 -0.0532
  485MOL0     H65429   7.926  10.248   0.871  1.0295  0.6031 -2.4272
  485MOL0     H65430   8.058  10.196   0.986  5.8979 -4.6296 -1.5798
  485MOL0     H65431   8.051  10.328   0.717 -0.0466 -2.0130 -0.8342
  485MOL0     H65432   8.214  10.261   0.780  0.4849  2.1202 -3.3179
  485MOL0     H65433   8.048  10.490   0.867  1.4895  2.5424  1.2179
  485MOL0     H65434   8.206  10.502   0.836 -0.6315  0.2176  0.6658
  485MOL0     H65435   8.221  10.330   1.257 -2.4133 -0.1557 -2.6531
  485MOL0     H65436   8.419  10.226   1.342  0.5113  3.2116  0.6973
  485MOL0     H65437   8.753   9.882   1.266 -0.3012  0.2666 -0.3032
  485MOL0     H65438   8.945   9.743   1.282 -0.2224  1.9295  1.1416
  485MOL0     H65439   9.118   9.632   1.268 -0.9135  0.7260 -1.5802
  485MOL0     H65440   9.281   9.611   1.224  1.0194  1.8583 -0.9021
  485MOL0     H65441   9.372   9.798   1.368 -0.2448 -0.6941  0.0740
  485MOL0     H65442   9.206   9.843   1.388  2.3598  2.0883  1.9058
  485MOL0     H65443   9.185   9.671   1.551 -2.6278 -0.8944 -0.3459
  485MOL0     H65444   9.252   9.551   1.439 -0.3720  2.7473 -2.7559
  485MOL0     H65445   9.408   9.726   1.613  1.6873  1.0001 -1.2400
  485MOL0     H65446   9.481   9.641   1.483 -0.9581  0.9656  0.6606
  485MOL0     H65447   9.330   9.546   1.725  0.8337  0.3257 -0.2414
  485MOL0     H65448   9.503   9.537   1.700 -1.5327 -0.1115  3.2866
  485MOL0     H65449   9.307   9.363   1.552 -0.0362 -1.1026  0.1058
  485MOL0     H65450   9.482   9.369   1.526 -1.5777  0.0002 -0.6372
  485MOL0     H65451   9.495   9.319   1.800 -1.6959  1.0854  1.4552
  485MOL0     H65452   9.473   9.180   1.697  1.8764  0.0426  2.9635
  485MOL0     H65453   9.317   9.188   1.864  0.7149  0.4614 -0.6037
  485MOL0     H65454   9.227   9.332   1.781  0.0132 -0.0069  0.9558
  485MOL0     H65455   9.173  10.011   1.031 -0.1659  0.6346 -0.6048
  485MOL0     H65456   8.963  10.159   1.029 -1.1966  1.6864  3.1813
  485MOL0     H65457   8.580  10.237   0.929 -0.9241 -2.3554 -0.7950
  485MOL0     H65458   8.397  10.321   0.858  3.0769 -1.4198  0.0709
  485MOL0     H65459   8.227   9.887   1.561  0.4850  0.4015 -1.1847
  485MOL0     H65460   8.419   9.984   1.411  1.5864 -0.7993 -1.6030
  485MOL0     H65461   8.308  10.000   0.945  0.2525  0.4981  0.1055
  485MOL0     H65462   8.293  10.086   0.717 -1.3285  0.0927  0.4951
  485MOL0     H65463   8.482   9.924   0.333  0.3513  0.1635 -0.7371
  485MOL0     H65464   8.626   9.958   0.426  0.1064  1.5709 -1.4755
  485MOL0     H65465   8.593  10.215   0.352 -0.4856  1.3834 -1.7264
  485MOL0     H65466   8.447  10.163   0.275  1.1932  1.3848 -0.1204
  485MOL0     H65467   8.615  10.156   0.106  2.4484 -1.2452 -0.7679
  485MOL0     H65468   8.579   9.991   0.137 -0.1331 -0.5319  1.7616
  485MOL0     H65469   8.792  10.155   0.260 -2.7333 -1.2642  1.0126
  485MOL0     H65470   8.789   9.980   0.270 -0.7670 -1.5341 -1.1705
  485MOL0     H65471   8.947  10.024  -0.124 -1.6214 -1.6233 -0.8405
  485MOL0     H65472   8.653   9.890   0.623 -0.9050  1.4117 -1.3279
  485MOL0     H65473   8.796   9.805   0.791  0.7688 -0.4697  1.5116
  485MOL0     H65474   8.763   9.827   0.961  0.1037  0.9631 -0.0617
  485MOL0     H65475   8.699   9.684   0.867 -0.0369 -1.0151 -2.4712
  486MOL0     O65476  11.078   7.992   3.705  0.2124  0.8187 -0.9037
  486MOL0     C65477  11.063   8.067   3.799  0.1322  0.2773  0.0400
  486MOL0     O65478  11.001   8.189   3.793  0.3028  0.1990  0.3301
  486MOL0     C65479  10.951   8.241   3.676 -0.0379  0.4207  0.8654
  486MOL0     C65480  10.851   8.173   3.602  0.1217  0.1462  1.2369
  486MOL0     C65481  10.786   8.228   3.494  0.3986 -1.6727 -0.1188
  486MOL0     C65482  10.803   8.362   3.466  0.1828  0.1755  0.5247
  486MOL0     O65483  10.753   8.424   3.355  0.2166 -0.6100 -0.0816
  486MOL0     C65484  10.656   8.378   3.273  0.0620 -0.6659  0.4960
  486MOL0     C65485  10.624   8.495   3.181 -0.4167  0.2868  0.0504
  486MOL0     C65486  10.474   8.473   3.148 -0.0645 -0.0609 -0.5063
  486MOL0     C65487  10.411   8.577   3.046  0.2921 -0.7878 -0.8079
  486MOL0     C65488  10.256   8.582   3.052  0.4315  0.5700  0.6671
  486MOL0     C65489  10.187   8.612   3.183 -0.5174  0.2864  0.4534
  486MOL0     C65490  10.234   8.728   3.273 -0.0383 -0.1936 -0.4403
  486MOL0     C65491  10.118   8.811   3.334 -0.3370  0.2649  0.5527
  486MOL0     N65492  10.171   8.929   3.405  0.3566 -0.2552  0.9750
  486MOL0     C65493  10.264   8.937   3.508 -1.0472  0.3469 -0.4373
  486MOL0     C65494  10.292   9.063   3.519 -0.1790 -0.2682 -1.1196
  486MOL0     C65495  10.355   9.132   3.636 -0.2859 -0.3184  0.4392
  486MOL0     C65496  10.479   9.052   3.681  1.1051  0.3148  1.0118
  486MOL0     C65497  10.550   9.105   3.802 -1.2652 -0.3876 -0.2266
  486MOL0     C65498  10.695   9.051   3.818 -0.8028 -0.5403 -0.2673
  486MOL0     O65499  10.685   8.912   3.847 -0.1284 -0.1865  0.5956
  486MOL0     C65500  10.765   8.850   3.941 -0.4830 -0.3371 -1.0690
  486MOL0     C65501  10.855   8.911   4.028 -0.3885  0.4735 -0.3278
  486MOL0     C65502  10.913   8.835   4.127  0.2059  0.5426  0.5274
  486MOL0     C65503  10.896   8.693   4.136 -0.1047 -0.1197  0.3741
  486MOL0     C65504  10.974   8.614   4.229  0.1579  1.0416  1.2927
  486MOL0     O65505  11.090   8.666   4.278 -0.1069  0.0572 -0.6004
  486MOL0     C65506  11.186   8.576   4.303 -0.2948  0.1490  0.1210
  486MOL0     C65507  11.242   8.578   4.427 -0.2009 -0.6163  0.2544
  486MOL0     C65508  11.347   8.482   4.461  0.5760  0.2934  1.4033
  486MOL0     C65509  11.399   8.401   4.366  0.4867 -0.0321  0.8104
  486MOL0     O65510  11.497   8.304   4.390 -0.0395  0.0959  0.2754
  486MOL0     C65511  11.524   8.260   4.530 -0.4563  0.7648  0.9333
  486MOL0     C65512  11.635   8.146   4.543  0.5557 -1.0377  0.0045
  486MOL0     C65513  11.672   8.114   4.689 -0.5752  0.7478 -0.4576
  486MOL0     C65514  11.746   8.234   4.753 -0.2809 -0.1033  0.3051
  486MOL0     C65515  11.807   8.203   4.894  0.2148 -0.1109  0.9965
  486MOL0     C65516  11.701   8.176   5.005  0.5657  0.5429 -0.2546
  486MOL0     C65517  11.623   8.305   5.045  0.2148  0.5987  0.2861
  486MOL0     C65518  11.480   8.269   5.072  0.3759 -0.1081  0.0444
  486MOL0    Cl65519  11.450   8.165   5.220 -0.8342  0.0079 -0.3241
  486MOL0     C65520  11.356   8.407   4.236 -0.4169  0.2789 -0.2781
  486MOL0     C65521  11.246   8.495   4.202  0.1937  0.1359 -0.1970
  486MOL0     O65522  10.936   8.491   4.234  0.1514 -0.3671 -0.6063
  486MOL0     C65523  10.800   8.641   4.049 -0.7512 -0.1514 -0.0577
  486MOL0     C65524  10.735   8.716   3.953  1.4361  0.2865  0.9788
  486MOL0     N65525  10.219   9.131   3.426 -0.2450 -0.9412 -0.0557
  486MOL0     N65526  10.150   9.056   3.359 -0.0205  0.0501  0.4813
  486MOL0     C65527  10.896   8.432   3.539  0.5161 -0.2067 -0.2800
  486MOL0     C65528  10.964   8.378   3.653  0.5089  0.8691 -0.5327
  486MOL0     C65529  11.135   8.030   3.930  0.7553  0.2005 -0.5998
  486MOL0     C65530  11.155   8.135   4.024 -0.1694  0.4792 -0.6798
  486MOL0     C65531  11.216   8.117   4.151  0.0968  0.4388 -0.0642
  486MOL0     C65532  11.272   7.989   4.181 -0.1372  0.0160 -0.1319
  486MOL0     O65533  11.346   7.986   4.296 -0.1949 -0.5304 -0.8909
  486MOL0     C65534  11.391   7.863   4.355  0.5142  0.3020  0.0083
  486MOL0     C65535  11.273   7.784   4.397 -0.4264 -0.1587 -0.2573
  486MOL0     C65536  11.323   7.669   4.498  0.5629 -0.1371  0.7861
  486MOL0     C65537  11.217   7.563   4.528  0.3995 -0.3619 -0.6566
  486MOL0     C65538  11.121   7.643   4.609  0.4955  0.5734  0.4684
  486MOL0     C65539  11.047   7.718   4.687 -0.5193  0.1839 -0.1187
  486MOL0     C65540  11.261   7.881   4.089  0.2670  0.9452 -0.0909
  486MOL0     C65541  11.191   7.905   3.959 -0.0517  0.2462 -0.5847
  486MOL0     C65542  11.211   7.799   3.857  0.0921  0.2625  0.4551
  486MOL0     H65543  10.817   8.071   3.617 -2.2360  0.3720 -1.5945
  486MOL0     H65544  10.721   8.170   3.429  0.9920 -1.6088 -0.7806
  486MOL0     H65545  10.708   8.301   3.215  1.5390  0.7088 -0.0649
  486MOL0     H65546  10.577   8.342   3.340  0.0087  3.1220  2.7444
  486MOL0     H65547  10.679   8.478   3.088 -0.4437 -1.2473  0.2897
  486MOL0     H65548  10.647   8.589   3.231 -0.7115 -0.4387  1.6090
  486MOL0     H65549  10.422   8.476   3.244  0.8482  2.3711 -0.0096
  486MOL0     H65550  10.453   8.378   3.098 -1.3480  1.8845 -4.0952
  486MOL0     H65551  10.437   8.680   3.070 -0.3641 -0.9528  0.7135
  486MOL0     H65552  10.454   8.545   2.951 -1.3130 -1.1902 -1.4315
  486MOL0     H65553  10.228   8.666   2.988 -0.9227  0.1194  0.6409
  486MOL0     H65554  10.220   8.486   3.015 -0.3609 -0.0659  2.9139
  486MOL0     H65555  10.081   8.629   3.162 -0.2745  1.6284  0.2178
  486MOL0     H65556  10.195   8.521   3.243 -0.6338 -0.2675 -0.3693
  486MOL0     H65557  10.284   8.793   3.201 -0.5188 -1.1698 -1.7086
  486MOL0     H65558  10.313   8.695   3.341 -0.7545 -0.2571  0.3761
  486MOL0     H65559  10.033   8.845   3.274  0.2275  0.6206 -0.0637
  486MOL0     H65560  10.062   8.745   3.400  1.7062 -0.2057  1.9002
  486MOL0     H65561  10.282   8.855   3.577  1.4193  0.8684 -0.3362
  486MOL0     H65562  10.390   9.231   3.604 -2.2446  0.6081  0.9853
  486MOL0     H65563  10.285   9.153   3.717 -0.6613  2.9230 -0.5716
  486MOL0     H65564  10.438   8.951   3.690  3.1243 -0.5317  1.2181
  486MOL0     H65565  10.549   9.055   3.597 -0.4904  2.7511 -0.3768
  486MOL0     H65566  10.495   9.075   3.892  0.1046 -2.0702  0.0944
  486MOL0     H65567  10.553   9.214   3.800 -1.3920 -0.3962 -0.9331
  486MOL0     H65568  10.731   9.109   3.903 -0.6776 -0.6728 -0.2308
  486MOL0     H65569  10.749   9.072   3.725 -1.1547 -2.8519 -1.0685
  486MOL0     H65570  10.881   9.016   4.017 -1.0028  0.5940 -0.6908
  486MOL0     H65571  10.989   8.887   4.183  0.2061  1.5341 -0.3710
  486MOL0     H65572  11.181   8.638   4.493 -4.4247 -1.5124 -2.4450
  486MOL0     H65573  11.374   8.482   4.566 -0.3037  1.8590  1.6616
  486MOL0     H65574  11.552   8.349   4.587 -1.7399  0.9289  1.3410
  486MOL0     H65575  11.439   8.218   4.584  0.9191 -0.6674  2.0774
  486MOL0     H65576  11.596   8.055   4.497  0.7693 -0.5421 -1.2029
  486MOL0     H65577  11.723   8.178   4.487 -1.6706  2.9927 -1.6556
  486MOL0     H65578  11.594   8.083   4.759  0.5354 -1.4786 -0.1038
  486MOL0     H65579  11.742   8.030   4.689 -2.4038 -0.8795 -1.7962
  486MOL0     H65580  11.672   8.315   4.754  1.5606  1.6918 -1.3383
  486MOL0     H65581  11.830   8.270   4.694  0.9979 -2.0640  0.8560
  486MOL0     H65582  11.859   8.289   4.937 -1.5076  2.0446 -1.0104
  486MOL0     H65583  11.884   8.126   4.887 -0.9209 -1.2680  0.8468
  486MOL0     H65584  11.639   8.091   4.975  0.2617  0.4958  0.4997
  486MOL0     H65585  11.765   8.144   5.087  0.7087 -0.7235 -0.8274
  486MOL0     H65586  11.614   8.381   4.967  1.0507  0.9929  0.5655
  486MOL0     H65587  11.673   8.352   5.130 -0.7930  1.5542  0.3750
  486MOL0     H65588  11.410   8.353   5.083  1.5422  0.7728  0.9345
  486MOL0     H65589  11.437   8.224   4.982 -1.5971  0.0725  0.8518
  486MOL0     H65590  11.386   8.360   4.143 -1.1396  1.4422 -1.1232
  486MOL0     H65591  11.210   8.492   4.100  0.5706  0.4456 -0.3436
  486MOL0     H65592  10.775   8.536   4.057 -1.7250 -0.0650 -1.5062
  486MOL0     H65593  10.660   8.673   3.887  0.5255  2.7076  0.3460
  486MOL0     H65594  10.907   8.536   3.512 -0.3228  0.2070  0.8946
  486MOL0     H65595  11.027   8.439   3.717  3.4943 -0.6604 -1.7981
  486MOL0     H65596  11.105   8.231   4.026 -0.9262  0.0801 -0.2524
  486MOL0     H65597  11.224   8.198   4.223 -1.2533 -0.0026  0.6256
  486MOL0     H65598  11.461   7.879   4.438  1.3079 -1.5421 -0.2491
  486MOL0     H65599  11.440   7.795   4.285  0.6102  1.6319 -1.2720
  486MOL0     H65600  11.221   7.735   4.314 -1.9221  1.0442 -0.0765
  486MOL0     H65601  11.203   7.859   4.435  0.8918 -0.4304  3.0181
  486MOL0     H65602  11.363   7.706   4.593  2.2097  2.4775 -0.7788
  486MOL0     H65603  11.407   7.616   4.452  0.4808 -2.5591  3.2072
  486MOL0     H65604  11.178   7.519   4.435  0.4938  0.6465 -1.1892
  486MOL0     H65605  11.270   7.497   4.597 -0.9532  0.0662  0.8520
  486MOL0     H65606  10.976   7.780   4.736 -2.6910 -2.6931  0.6160
  486MOL0     H65607  11.314   7.790   4.117  0.6971  1.0693 -0.4943
  486MOL0     H65608  11.269   7.825   3.768  0.2255  1.3100  0.8423
  486MOL0     H65609  11.262   7.715   3.905 -1.7415  0.5205  3.0926
  486MOL0     H65610  11.120   7.740   3.837  0.0822 -0.5246  2.5286
  487MOL0     O65611   1.739  11.377   8.690  0.1391 -0.1923  0.0358
  487MOL0     C65612   1.812  11.476   8.693 -0.3175  0.0266 -0.7428
  487MOL0     O65613   1.903  11.510   8.597 -0.0862 -0.1554  0.1283
  487MOL0     C65614   1.896  11.431   8.479 -0.6728  0.0713 -0.1632
  487MOL0     C65615   1.800  11.429   8.374  0.7807 -0.0939  0.6871
  487MOL0     C65616   1.813  11.341   8.261 -0.7766 -1.0483 -0.2226
  487MOL0     C65617   1.928  11.266   8.252  0.2998  1.2550  0.7454
  487MOL0     O65618   1.937  11.190   8.139 -0.1822 -0.5000 -0.2004
  487MOL0     C65619   2.022  11.072   8.141 -0.0471 -0.7096  0.4633
  487MOL0     C65620   2.017  10.977   8.030  0.7754  0.7016 -0.2511
  487MOL0     C65621   1.891  10.886   8.037 -0.1208 -0.2743  0.1925
  487MOL0     C65622   1.901  10.751   7.954  0.6709  0.2651 -0.1301
  487MOL0     C65623   1.774  10.660   7.997 -0.7090  1.2703  0.7133
  487MOL0     C65624   1.776  10.531   7.912  0.0492  0.9817  0.3429
  487MOL0     C65625   1.640  10.463   7.933  0.1860  1.2618 -0.3122
  487MOL0     C65626   1.606  10.357   7.821 -0.1295  0.7625  0.4731
  487MOL0     N65627   1.714  10.247   7.820  0.1348  0.6694 -0.5960
  487MOL0     C65628   1.824  10.249   7.741 -0.3290  0.2687 -0.7556
  487MOL0     C65629   1.897  10.140   7.790  0.2180  0.2687 -0.3021
  487MOL0     C65630   2.035  10.117   7.750  0.9199 -0.1654  0.1201
  487MOL0     C65631   2.139  10.170   7.846 -0.1792  0.3677  0.1980
  487MOL0     C65632   2.143  10.325   7.889 -0.3778  0.0604 -1.4861
  487MOL0     C65633   2.151  10.443   7.793 -0.4564  0.2006  0.6754
  487MOL0     O65634   2.269  10.527   7.811  0.6602 -0.4152  0.0251
  487MOL0     C65635   2.286  10.618   7.719 -0.6064  0.7805 -0.8692
  487MOL0     C65636   2.188  10.664   7.628 -0.0052 -1.3675 -0.2621
  487MOL0     C65637   2.214  10.779   7.544 -0.4973  0.0115 -0.3483
  487MOL0     C65638   2.341  10.839   7.534  0.4947  0.2295 -0.0661
  487MOL0     C65639   2.366  10.938   7.435 -0.6380 -0.0378  0.0983
  487MOL0     O65640   2.494  11.000   7.457  0.4120 -0.4868  0.5427
  487MOL0     C65641   2.517  11.111   7.379 -0.2560 -0.1251  0.5666
  487MOL0     C65642   2.551  11.104   7.246  0.1736  0.2975  0.3599
  487MOL0     C65643   2.604  11.210   7.175  0.5592 -0.8188  0.4765
  487MOL0     C65644   2.601  11.337   7.239  0.5449 -0.2079 -0.2638
  487MOL0     O65645   2.647  11.438   7.159 -0.1808 -0.2894  0.6185
  487MOL0     C65646   2.593  11.571   7.173  0.4625  0.4907  0.1052
  487MOL0     C65647   2.688  11.683   7.222  0.1765  0.3771 -0.5527
  487MOL0     C65648   2.671  11.811   7.135  0.2353  0.4008 -0.8698
  487MOL0     C65649   2.548  11.890   7.176  0.1270 -0.5035  0.4948
  487MOL0     C65650   2.502  12.003   7.077  0.3448 -0.1711  0.1930
  487MOL0     C65651   2.619  12.114   7.061 -0.0885 -0.0975  0.4406
  487MOL0     C65652   2.561  12.262   7.039 -0.6404 -0.4702  1.0154
  487MOL0     C65653   2.448  12.316   7.127  1.3121  0.1530 -0.3451
  487MOL0    Cl65654   2.280  12.286   7.065  0.2727 -0.9300  0.4672
  487MOL0     C65655   2.555  11.343   7.371 -0.3160  0.5246  0.9365
  487MOL0     C65656   2.518  11.236   7.448  0.4002  2.0013  0.8782
  487MOL0     O65657   2.279  10.982   7.361 -0.3236 -0.1019 -0.0973
  487MOL0     C65658   2.438  10.793   7.622 -0.8113 -0.9974 -0.0367
  487MOL0     C65659   2.412  10.685   7.706 -1.2655  0.3969 -0.7650
  487MOL0     N65660   1.832  10.075   7.888 -0.6646 -0.1458 -0.2156
  487MOL0     N65661   1.720  10.132   7.899  0.4840 -0.8029  0.0054
  487MOL0     C65662   2.030  11.269   8.351 -0.1997  0.1223 -0.1916
  487MOL0     C65663   2.005  11.340   8.469 -1.1240  0.7165 -0.3859
  487MOL0     C65664   1.825  11.562   8.814 -0.2896 -1.0081 -0.2047
  487MOL0     C65665   1.762  11.510   8.928 -0.3029 -0.1766  0.2877
  487MOL0     C65666   1.750  11.574   9.042  0.3262 -0.9661 -0.8067
  487MOL0     C65667   1.807  11.703   9.061 -0.3249 -0.1672  0.7065
  487MOL0     O65668   1.788  11.755   9.181 -0.0787  0.0718 -0.0996
  487MOL0     C65669   1.909  11.823   9.243 -0.9166  0.5866  0.1731
  487MOL0     C65670   1.861  11.889   9.365  0.2418 -0.0011 -0.3646
  487MOL0     C65671   1.778  12.011   9.330 -0.8430  0.1786  0.4838
  487MOL0     C65672   1.868  12.135   9.292  0.4392  0.4817 -0.3273
  487MOL0     C65673   1.982  12.152   9.380 -0.0681  0.0871  0.4305
  487MOL0     C65674   2.070  12.179   9.458 -0.0408 -1.2493  0.3570
  487MOL0     C65675   1.885  11.753   8.959 -0.2027  0.7710 -0.3957
  487MOL0     C65676   1.897  11.683   8.835 -0.5678  0.1129  1.0682
  487MOL0     C65677   1.968  11.760   8.725 -0.0831  0.4891  0.9291
  487MOL0     H65678   1.719  11.501   8.384 -0.1628 -0.7590 -1.6328
  487MOL0     H65679   1.738  11.340   8.183  0.1580  0.2310 -1.1912
  487MOL0     H65680   2.126  11.103   8.132  0.2940 -2.2818 -2.1575
  487MOL0     H65681   2.000  11.005   8.224 -1.3232  0.4445  1.0868
  487MOL0     H65682   2.099  10.907   8.043 -0.4916 -0.5501  1.5974
  487MOL0     H65683   2.032  11.038   7.940  2.9256  5.1985  2.7812
  487MOL0     H65684   1.805  10.945   8.004  1.7953  1.1010 -2.6938
  487MOL0     H65685   1.868  10.869   8.142 -0.7920  4.0328  0.8983
  487MOL0     H65686   1.893  10.767   7.846 -0.1360  1.6805  0.1209
  487MOL0     H65687   1.999  10.710   7.977  1.6737  1.7911 -1.4805
  487MOL0     H65688   1.792  10.636   8.102  1.8418 -1.0838 -0.1461
  487MOL0     H65689   1.680  10.714   7.981 -3.2986 -3.3447 -1.7736
  487MOL0     H65690   1.792  10.547   7.805 -1.1307 -0.4422 -0.0854
  487MOL0     H65691   1.862  10.476   7.952 -0.4005 -0.8991 -1.1221
  487MOL0     H65692   1.558  10.535   7.931  0.4939  1.6929  1.1208
  487MOL0     H65693   1.640  10.419   8.034  0.3273 -0.7970 -1.1620
  487MOL0     H65694   1.509  10.315   7.850  1.1631 -0.3259  3.6799
  487MOL0     H65695   1.607  10.404   7.722  0.4660 -1.6526 -0.7598
  487MOL0     H65696   1.858  10.324   7.670 -2.0255  1.0092 -0.8313
  487MOL0     H65697   2.052  10.009   7.741  1.8525 -0.1173  1.0975
  487MOL0     H65698   2.046  10.168   7.653  1.6521  2.9606  1.7144
  487MOL0     H65699   2.129  10.112   7.938  1.1941  1.0608  0.8108
  487MOL0     H65700   2.236  10.142   7.803 -0.2475 -0.8598  0.7982
  487MOL0     H65701   2.230  10.344   7.953 -0.4974 -1.8550 -0.7073
  487MOL0     H65702   2.049  10.351   7.939  0.4992  2.8027 -1.0725
  487MOL0     H65703   2.058  10.501   7.794 -2.9276 -3.2313 -2.2851
  487MOL0     H65704   2.166  10.397   7.695 -0.8691  0.8087  0.3264
  487MOL0     H65705   2.088  10.621   7.627 -0.7689  0.3163 -0.9518
  487MOL0     H65706   2.134  10.809   7.477 -2.5608 -1.9646  1.0723
  487MOL0     H65707   2.570  11.004   7.208  1.6977  0.5356  0.4163
  487MOL0     H65708   2.646  11.194   7.076  0.0360 -1.2961  0.3261
  487MOL0     H65709   2.565  11.588   7.069  0.0670 -1.0953 -0.0860
  487MOL0     H65710   2.496  11.575   7.224 -0.4060  0.9384 -1.5373
  487MOL0     H65711   2.665  11.699   7.328  2.7015 -0.0393  0.1442
  487MOL0     H65712   2.794  11.655   7.229  0.3027  0.4073 -1.9661
  487MOL0     H65713   2.757  11.879   7.144 -0.0405  1.4850 -4.6222
  487MOL0     H65714   2.671  11.783   7.029 -0.3237 -0.6196 -0.6103
  487MOL0     H65715   2.571  11.950   7.264 -3.7097  0.2965  1.1453
  487MOL0     H65716   2.465  11.828   7.210  0.8454 -0.2911  2.7694
  487MOL0     H65717   2.418  12.060   7.118  0.8863  0.4471  0.4640
  487MOL0     H65718   2.465  11.966   6.982 -0.2954  1.8385 -0.3783
  487MOL0     H65719   2.667  12.118   7.159  2.0127 -0.6257 -0.5128
  487MOL0     H65720   2.693  12.093   6.983  1.8867  0.4869  2.0807
  487MOL0     H65721   2.534  12.289   6.936 -2.5540  3.1424  2.2866
  487MOL0     H65722   2.645  12.326   7.067 -0.1667 -0.0639 -1.1109
  487MOL0     H65723   2.454  12.274   7.227  0.0416 -0.8900 -0.6789
  487MOL0     H65724   2.458  12.425   7.134 -1.4419  0.5497 -1.3341
  487MOL0     H65725   2.565  11.437   7.424  0.3342 -0.4456  2.6104
  487MOL0     H65726   2.494  11.234   7.554 -1.6701 -2.2997  0.5468
  487MOL0     H65727   2.534  10.843   7.632 -1.5587  0.2023  1.3797
  487MOL0     H65728   2.494  10.642   7.763 -3.9802 -2.2653  1.4822
  487MOL0     H65729   2.110  11.198   8.335  2.0835  1.9930  2.0793
  487MOL0     H65730   2.077  11.326   8.549 -1.6755  1.1613  0.1961
  487MOL0     H65731   1.704  11.418   8.928  0.6602 -0.8315  2.4874
  487MOL0     H65732   1.695  11.530   9.124  1.5510  1.2202  1.3088
  487MOL0     H65733   1.949  11.891   9.168 -2.3799  1.8359  0.4710
  487MOL0     H65734   1.979  11.742   9.263 -1.2759 -0.4147 -2.2820
  487MOL0     H65735   1.947  11.918   9.427 -0.8176  0.4211  0.9650
  487MOL0     H65736   1.791  11.826   9.420 -0.8471  0.8745 -0.7029
  487MOL0     H65737   1.712  12.030   9.415  1.2214  2.6578  1.6583
  487MOL0     H65738   1.713  11.991   9.244 -1.4259  1.6680  0.5489
  487MOL0     H65739   1.907  12.132   9.190 -0.3667  0.0645 -0.6329
  487MOL0     H65740   1.814  12.229   9.302  1.7833  1.5471 -2.3646
  487MOL0     H65741   2.146  12.226   9.517  0.0485  1.2151 -1.5314
  487MOL0     H65742   1.940  11.847   8.971 -0.3614  0.8804 -0.5233
  487MOL0     H65743   2.052  11.827   8.748 -0.8911  2.4446 -1.4569
  487MOL0     H65744   2.021  11.701   8.649 -0.9065  0.4242  0.3992
  487MOL0     H65745   1.896  11.819   8.668 -1.8744 -0.9803  1.5667
  488MOL0     O65746  11.285   4.822   6.682 -0.7315  0.8088  0.2185
  488MOL0     C65747  11.336   4.864   6.575  0.5073 -0.0811  0.5965
  488MOL0     O65748  11.416   4.975   6.574 -0.1701  0.7378  0.3347
  488MOL0     C65749  11.452   5.014   6.698 -0.8399  0.4516  0.4079
  488MOL0     C65750  11.391   5.121   6.762 -0.1034 -0.1023  0.2950
  488MOL0     C65751  11.428   5.162   6.888  0.4832 -0.7888  0.5003
  488MOL0     C65752  11.535   5.091   6.952  0.7852 -0.4577 -0.5830
  488MOL0     O65753  11.556   5.114   7.085 -0.0491  0.2422 -0.2272
  488MOL0     C65754  11.662   5.203   7.128 -0.6711  0.0638  0.3450
  488MOL0     C65755  11.594   5.335   7.168 -1.0672 -0.0527  0.1249
  488MOL0     C65756  11.695   5.441   7.215  0.1439 -0.6905 -0.2743
  488MOL0     C65757  11.637   5.585   7.199 -0.4871 -0.1673 -0.1642
  488MOL0     C65758  11.749   5.695   7.170  0.6578 -0.0171 -0.1166
  488MOL0     C65759  11.867   5.695   7.274 -0.1633  0.1874 -0.6500
  488MOL0     C65760  11.970   5.800   7.224 -0.4012  0.2299  0.1896
  488MOL0     C65761  12.079   5.820   7.332  0.7252 -0.4721 -0.5672
  488MOL0     N65762  12.152   5.694   7.332 -0.0539  0.0505  0.2628
  488MOL0     C65763  12.253   5.650   7.247 -0.5851 -0.1436 -0.0251
  488MOL0     C65764  12.320   5.559   7.324 -0.1645  0.2159 -0.7722
  488MOL0     C65765  12.457   5.493   7.301  0.8672  0.7420  0.6528
  488MOL0     C65766  12.507   5.507   7.150  0.8054  0.5322  0.1712
  488MOL0     C65767  12.632   5.430   7.128  0.0433 -0.5438 -0.2044
  488MOL0     C65768  12.748   5.496   7.205 -0.0313  0.5988  0.6712
  488MOL0     O65769  12.870   5.443   7.140  0.1081 -0.2800 -1.0646
  488MOL0     C65770  12.990   5.456   7.206 -0.5009  0.2884 -0.3105
  488MOL0     C65771  13.005   5.517   7.336  0.1927 -0.9662  0.4495
  488MOL0     C65772  13.131   5.528   7.400  0.4271 -0.9001  0.0603
  488MOL0     C65773  13.246   5.473   7.335 -0.4957 -0.0834 -0.6722
  488MOL0     C65774  13.383   5.475   7.405  0.1664  0.3018 -0.0829
  488MOL0     O65775  13.390   5.539   7.533  0.3439 -0.4906  0.6515
  488MOL0     C65776  13.513   5.539   7.593  0.5516 -0.8745  0.7020
  488MOL0     C65777  13.580   5.658   7.607  0.1997  0.6746 -0.5203
  488MOL0     C65778  13.687   5.666   7.699  0.3020 -0.3417  0.2145
  488MOL0     C65779  13.709   5.565   7.793  0.2472  0.2706  0.0432
  488MOL0     O65780  13.791   5.582   7.906 -0.7155  0.6465  0.0858
  488MOL0     C65781  13.914   5.646   7.885 -0.3717 -0.0884  0.2264
  488MOL0     C65782  13.988   5.645   8.012 -0.1273  0.5250  0.2496
  488MOL0     C65783  14.124   5.695   7.993  0.2618 -0.4515  0.2097
  488MOL0     C65784  14.208   5.625   7.888  0.1624 -0.1776  0.2059
  488MOL0     C65785  14.353   5.666   7.888 -0.6644  0.2508 -0.2914
  488MOL0     C65786  14.416   5.672   7.744 -0.0429  0.5709 -0.4684
  488MOL0     C65787  14.550   5.751   7.748  0.6762  0.2110  0.8818
  488MOL0     C65788  14.643   5.716   7.627 -0.5539 -0.3874  0.6580
  488MOL0    Cl65789  14.555   5.733   7.469 -0.6215  0.3803 -0.1438
  488MOL0     C65790  13.635   5.446   7.780  0.0795 -0.0094  0.2771
  488MOL0     C65791  13.549   5.429   7.670  1.2426 -0.2306  0.2812
  488MOL0     O65792  13.483   5.413   7.355  0.2820 -0.8711 -0.4562
  488MOL0     C65793  13.230   5.412   7.211 -0.0057 -0.1347  0.1350
  488MOL0     C65794  13.109   5.404   7.147 -0.6282 -0.6933  0.0726
  488MOL0     N65795  12.254   5.541   7.446 -0.0050 -0.6822 -0.0703
  488MOL0     N65796  12.160   5.629   7.453  0.2969 -0.1548  0.4969
  488MOL0     C65797  11.588   4.983   6.888 -0.2345 -0.5311  0.6658
  488MOL0     C65798  11.559   4.948   6.756 -0.3657 -0.0233  0.6723
  488MOL0     C65799  11.304   4.799   6.447  0.8017  0.4659  0.6741
  488MOL0     C65800  11.214   4.690   6.452  0.2952  0.4949  0.3091
  488MOL0     C65801  11.159   4.628   6.338 -1.0110  0.3523 -0.8683
  488MOL0     C65802  11.189   4.672   6.209 -0.1334  0.2653  0.5684
  488MOL0     O65803  11.153   4.611   6.092 -0.1486 -1.1353 -0.6705
  488MOL0     C65804  11.029   4.541   6.093 -0.4366  0.1702 -0.0738
  488MOL0     C65805  10.979   4.559   5.949 -0.0824  0.1950  0.6782
  488MOL0     C65806  10.848   4.484   5.938 -0.3450  0.4988  0.6740
  488MOL0     C65807  10.788   4.496   5.801  0.5193 -0.0353  0.5340
  488MOL0     C65808  10.733   4.629   5.798 -0.2406 -0.4876  0.7009
  488MOL0     C65809  10.690   4.733   5.805 -0.0776 -0.7813 -0.7009
  488MOL0     C65810  11.280   4.781   6.204 -0.4523  0.0919 -0.1110
  488MOL0     C65811  11.337   4.842   6.322  0.9670  0.5536  0.4073
  488MOL0     C65812  11.434   4.960   6.287 -0.0279  0.8575  0.5400
  488MOL0     H65813  11.305   5.165   6.713  1.5876 -0.6120 -3.4659
  488MOL0     H65814  11.358   5.231   6.934  1.0087  0.4856 -0.5374
  488MOL0     H65815  11.720   5.160   7.210 -1.2436  1.3452  1.4830
  488MOL0     H65816  11.736   5.213   7.049  0.1210  0.1079  1.0815
  488MOL0     H65817  11.511   5.325   7.238 -1.0453 -0.5844  0.0844
  488MOL0     H65818  11.542   5.367   7.078 -1.8366 -0.5304  0.3837
  488MOL0     H65819  11.785   5.434   7.154 -1.4502  1.2392 -3.1147
  488MOL0     H65820  11.715   5.438   7.322 -1.2669  1.9203  0.1612
  488MOL0     H65821  11.558   5.599   7.124 -2.5391  2.0906  2.2143
  488MOL0     H65822  11.591   5.620   7.292  0.7071 -0.8454  0.7079
  488MOL0     H65823  11.791   5.669   7.072 -1.7994 -1.7663 -0.8039
  488MOL0     H65824  11.695   5.790   7.160 -2.5816 -1.7195  0.0373
  488MOL0     H65825  11.826   5.707   7.374  0.1295 -3.0816 -0.0409
  488MOL0     H65826  11.910   5.595   7.269 -2.5119 -0.9755  0.9009
  488MOL0     H65827  11.920   5.889   7.185  0.7744  0.8241 -0.0276
  488MOL0     H65828  12.018   5.756   7.136  1.2790  2.0083  0.1384
  488MOL0     H65829  12.143   5.898   7.290 -0.5520 -0.0752 -1.8124
  488MOL0     H65830  12.052   5.849   7.434  1.4333  1.7319 -0.9644
  488MOL0     H65831  12.278   5.685   7.147  1.0754  0.8379  0.7010
  488MOL0     H65832  12.526   5.532   7.377 -1.2108  1.6705  2.1724
  488MOL0     H65833  12.451   5.386   7.326  0.4581  0.3685 -0.9584
  488MOL0     H65834  12.428   5.473   7.083 -1.3444  1.0267  2.3545
  488MOL0     H65835  12.524   5.612   7.124 -3.4569  1.1933 -0.6462
  488MOL0     H65836  12.652   5.440   7.021 -0.2913 -0.5097 -0.2644
  488MOL0     H65837  12.626   5.325   7.160 -3.9368 -0.8709 -1.4742
  488MOL0     H65838  12.742   5.456   7.306  1.8215  0.8961  0.9475
  488MOL0     H65839  12.750   5.606   7.204 -0.0085  0.6383 -1.8254
  488MOL0     H65840  12.919   5.556   7.389  2.1176  3.2911  0.9498
  488MOL0     H65841  13.142   5.587   7.491  1.6557 -0.9707 -0.0304
  488MOL0     H65842  13.561   5.742   7.540 -1.5276  0.5851 -0.1956
  488MOL0     H65843  13.729   5.765   7.711 -0.4100 -0.3172  3.5518
  488MOL0     H65844  13.965   5.591   7.806  0.9683 -0.4068  1.2677
  488MOL0     H65845  13.898   5.749   7.851 -0.8042 -0.4733 -0.7740
  488MOL0     H65846  13.933   5.701   8.088  0.7817  3.2862 -0.9860
  488MOL0     H65847  13.998   5.543   8.052  2.1027 -0.9962 -3.6223
  488MOL0     H65848  14.117   5.799   7.959 -0.8189 -0.6409 -0.1602
  488MOL0     H65849  14.168   5.698   8.093  1.6285  1.1138 -0.3889
  488MOL0     H65850  14.170   5.646   7.787  0.0632  0.6171  0.3981
  488MOL0     H65851  14.199   5.517   7.905  0.4170 -0.3109 -0.4652
  488MOL0     H65852  14.401   5.603   7.964  0.0072 -0.6649 -1.4356
  488MOL0     H65853  14.353   5.768   7.927  0.7867  0.2014 -0.1083
  488MOL0     H65854  14.441   5.572   7.708 -1.6414 -0.2354  0.5557
  488MOL0     H65855  14.339   5.721   7.684  0.0713 -0.6347 -1.6285
  488MOL0     H65856  14.608   5.717   7.835  0.4589 -1.3916  0.4410
  488MOL0     H65857  14.538   5.858   7.763  1.3780  0.1647  1.9151
  488MOL0     H65858  14.730   5.782   7.626 -0.3382 -0.5928  2.4628
  488MOL0     H65859  14.682   5.614   7.621 -0.5439 -0.3009 -3.4927
  488MOL0     H65860  13.668   5.357   7.832  0.8954 -0.5266 -1.0682
  488MOL0     H65861  13.481   5.345   7.670 -1.6780  1.7953  3.5962
  488MOL0     H65862  13.323   5.371   7.172  0.3266 -2.8618  3.3234
  488MOL0     H65863  13.094   5.357   7.050 -1.0875 -0.7944  0.1922
  488MOL0     H65864  11.663   4.923   6.938 -1.7386 -2.8718  0.2739
  488MOL0     H65865  11.615   4.873   6.701 -0.4871 -3.0170  4.2995
  488MOL0     H65866  11.189   4.651   6.550 -3.6875 -1.4906 -1.2417
  488MOL0     H65867  11.099   4.539   6.355  1.5072 -2.0957 -3.7267
  488MOL0     H65868  10.961   4.590   6.163  0.1276 -1.0598  1.3989
  488MOL0     H65869  11.050   4.437   6.120 -0.5052 -0.2690 -1.6083
  488MOL0     H65870  11.056   4.515   5.885 -0.5306 -0.3910  0.5319
  488MOL0     H65871  10.979   4.666   5.927 -1.1318  1.7136  6.3759
  488MOL0     H65872  10.778   4.517   6.015 -0.3806 -2.2212  1.9191
  488MOL0     H65873  10.876   4.379   5.948  0.9175  0.4469 -2.3954
  488MOL0     H65874  10.868   4.493   5.726  0.2168  1.4245  0.1068
  488MOL0     H65875  10.715   4.419   5.780 -0.7376  0.2877  3.2956
  488MOL0     H65876  10.640   4.826   5.824  2.5974  0.8410 -1.0735
  488MOL0     H65877  11.312   4.827   6.111 -0.6745 -1.7915 -1.1661
  488MOL0     H65878  11.511   4.963   6.364  0.1046  3.9185  0.3808
  488MOL0     H65879  11.482   4.956   6.188  1.8908  1.2422  1.4095
  488MOL0     H65880  11.374   5.050   6.305  1.6022  2.3829 -1.2711
  489MOL0     O65881   5.199   2.344   5.497  0.0507 -0.3259 -0.0969
  489MOL0     C65882   5.088   2.282   5.513  0.4534 -1.3941  0.7752
  489MOL0     O65883   5.063   2.188   5.616  0.6187 -0.1632  0.1818
  489MOL0     C65884   5.155   2.173   5.717 -0.7759  0.3266 -0.9711
  489MOL0     C65885   5.278   2.118   5.683 -0.4576 -0.4461 -0.0860
  489MOL0     C65886   5.368   2.120   5.791 -0.0329  0.1875 -0.0696
  489MOL0     C65887   5.339   2.166   5.916 -0.1148  0.5573 -0.8055
  489MOL0     O65888   5.434   2.167   6.008  0.1917 -0.4549 -0.0296
  489MOL0     C65889   5.454   2.286   6.085 -0.0114  0.1335 -0.3065
  489MOL0     C65890   5.504   2.260   6.228 -0.2199 -0.1486 -0.3050
  489MOL0     C65891   5.411   2.174   6.312 -0.7486 -0.2346  0.1688
  489MOL0     C65892   5.484   2.091   6.413  0.3840  0.9843 -1.1636
  489MOL0     C65893   5.399   1.987   6.488 -0.6010 -0.0188  0.0262
  489MOL0     C65894   5.465   1.908   6.607 -0.2322 -0.2139  0.4874
  489MOL0     C65895   5.582   1.827   6.552  0.5469  0.1447  0.6332
  489MOL0     C65896   5.611   1.708   6.651  0.2532 -0.1460 -0.2175
  489MOL0     N65897   5.632   1.746   6.790  0.5955 -0.6628 -0.1173
  489MOL0     C65898   5.717   1.680   6.879 -0.2273  0.3608 -0.0023
  489MOL0     C65899   5.692   1.747   6.995 -0.0750 -0.0246 -0.5553
  489MOL0     C65900   5.757   1.723   7.127  0.6254  0.3811  0.6508
  489MOL0     C65901   5.652   1.680   7.235  0.5693 -0.0700  1.0458
  489MOL0     C65902   5.714   1.645   7.370  0.6262  0.1517  1.0251
  489MOL0     C65903   5.762   1.772   7.444  0.1033  1.0035 -0.6911
  489MOL0     O65904   5.884   1.826   7.392  0.1114  0.5884  0.4028
  489MOL0     C65905   5.899   1.962   7.394  0.5675  0.1194  0.0935
  489MOL0     C65906   5.984   2.027   7.307  0.4486  0.2769 -0.1591
  489MOL0     C65907   6.018   2.162   7.315 -0.5045  1.5514 -0.1028
  489MOL0     C65908   5.965   2.244   7.423 -0.2549  0.0540 -0.1873
  489MOL0     C65909   6.006   2.388   7.438 -1.4262  0.5178 -0.2355
  489MOL0     O65910   6.099   2.425   7.345  1.1614  0.3335  0.2956
  489MOL0     C65911   6.193   2.524   7.354  0.8633  0.4472  0.2678
  489MOL0     C65912   6.196   2.623   7.455  0.4956  0.1634  0.0828
  489MOL0     C65913   6.304   2.717   7.451 -0.3730 -0.9435 -0.4393
  489MOL0     C65914   6.403   2.732   7.360 -0.3199 -0.9021 -0.3144
  489MOL0     O65915   6.499   2.828   7.382  0.4431 -0.7249 -0.5685
  489MOL0     C65916   6.537   2.904   7.266 -0.1714  0.2988 -0.5985
  489MOL0     C65917   6.650   3.001   7.301  0.0351  0.4214  1.0064
  489MOL0     C65918   6.661   3.113   7.201 -0.3859  0.2560 -0.0995
  489MOL0     C65919   6.697   3.068   7.059 -0.4071 -0.5008 -0.7050
  489MOL0     C65920   6.826   2.995   7.031 -0.5311  0.2684  0.9941
  489MOL0     C65921   6.886   3.002   6.889 -0.7374  0.3076 -0.1512
  489MOL0     C65922   6.970   3.131   6.867  0.3989 -0.3050 -0.1237
  489MOL0     C65923   6.992   3.158   6.716  0.1094 -0.8361 -0.2877
  489MOL0    Cl65924   7.124   3.277   6.700  0.1321  0.3262 -0.1153
  489MOL0     C65925   6.388   2.640   7.251 -0.9909  0.4294  0.0187
  489MOL0     C65926   6.287   2.535   7.248 -1.1008  0.4545 -0.1030
  489MOL0     O65927   5.977   2.450   7.541 -0.2494 -0.9112  0.5809
  489MOL0     C65928   5.879   2.170   7.517  0.2752 -0.4786 -0.1854
  489MOL0     C65929   5.842   2.039   7.499 -0.5316 -0.4424 -0.7707
  489MOL0     N65930   5.597   1.842   6.984  0.8752  0.0259  1.0043
  489MOL0     N65931   5.560   1.842   6.860  0.3194  0.5632 -0.6019
  489MOL0     C65932   5.219   2.218   5.945  0.0283 -0.1987  0.2371
  489MOL0     C65933   5.119   2.224   5.841  0.1659 -0.1526  0.0960
  489MOL0     C65934   4.973   2.309   5.417 -0.2138  0.1170  0.0554
  489MOL0     C65935   4.989   2.407   5.320  0.1348  0.7454  0.5090
  489MOL0     C65936   4.885   2.447   5.249 -0.0852 -0.4571 -0.1859
  489MOL0     C65937   4.763   2.379   5.251  0.4724 -0.0092 -0.5751
  489MOL0     O65938   4.663   2.395   5.153 -0.1269  0.4135 -1.0184
  489MOL0     C65939   4.646   2.523   5.099  0.3832  0.2201  0.0901
  489MOL0     C65940   4.519   2.512   5.022 -0.6044  0.7204 -0.3327
  489MOL0     C65941   4.485   2.649   4.965 -0.3965  0.0255  0.2851
  489MOL0     C65942   4.345   2.652   4.911 -0.9535  0.2121 -0.0695
  489MOL0     C65943   4.321   2.776   4.845  0.2681  0.1456  0.6596
  489MOL0     C65944   4.308   2.889   4.798  0.4967 -0.2607  0.1082
  489MOL0     C65945   4.743   2.273   5.347  0.4855  0.6882  0.1167
  489MOL0     C65946   4.849   2.241   5.427  0.1534  0.2579 -0.3031
  489MOL0     C65947   4.814   2.135   5.531 -0.2437 -0.1010  1.3311
  489MOL0     H65948   5.303   2.081   5.584  3.1819 -1.2207  0.9833
  489MOL0     H65949   5.466   2.076   5.773 -0.5415 -0.1200 -2.3503
  489MOL0     H65950   5.530   2.346   6.035 -2.9135  1.9913 -2.8169
  489MOL0     H65951   5.367   2.352   6.084  0.5344  0.8729  0.2113
  489MOL0     H65952   5.504   2.353   6.286 -1.5170 -1.5324  2.0498
  489MOL0     H65953   5.607   2.222   6.223  0.2864  1.0926  0.2882
  489MOL0     H65954   5.358   2.107   6.244  1.3181 -1.0056 -0.7717
  489MOL0     H65955   5.335   2.240   6.355  0.7467  0.9348  1.1301
  489MOL0     H65956   5.562   2.033   6.362  1.9339  1.1727  0.8816
  489MOL0     H65957   5.520   2.162   6.488 -1.0065 -2.5784  3.3295
  489MOL0     H65958   5.314   2.046   6.524 -0.3357 -0.6105  1.7156
  489MOL0     H65959   5.357   1.912   6.420 -0.0570 -0.1889 -0.1289
  489MOL0     H65960   5.504   1.976   6.684  2.0568 -2.8885  1.8578
  489MOL0     H65961   5.389   1.842   6.650 -1.8207  0.1805 -1.5656
  489MOL0     H65962   5.672   1.888   6.538 -0.6061  1.2500 -2.8232
  489MOL0     H65963   5.554   1.794   6.452 -1.4998 -0.9925  1.5168
  489MOL0     H65964   5.526   1.639   6.649  0.5942 -0.5773  0.0745
  489MOL0     H65965   5.698   1.652   6.616 -0.8695 -1.5031 -0.9464
  489MOL0     H65966   5.783   1.595   6.863 -1.4037 -0.2745 -1.6936
  489MOL0     H65967   5.836   1.648   7.122 -0.3490 -0.7188  1.1321
  489MOL0     H65968   5.798   1.821   7.150 -2.3208  2.3135 -1.5512
  489MOL0     H65969   5.573   1.755   7.244  1.4445  0.9791  0.1720
  489MOL0     H65970   5.600   1.594   7.191 -2.4138  1.1736  1.8509
  489MOL0     H65971   5.804   1.582   7.369 -0.5433 -1.9863  5.2690
  489MOL0     H65972   5.643   1.594   7.435  2.5091 -1.4772  1.9333
  489MOL0     H65973   5.772   1.758   7.552 -0.1976  0.1584 -0.7698
  489MOL0     H65974   5.678   1.842   7.435  0.2040  1.2505  0.1519
  489MOL0     H65975   6.020   1.962   7.229  0.2591  1.3013 -1.1257
  489MOL0     H65976   6.077   2.189   7.228  0.3621 -2.4737 -0.9773
  489MOL0     H65977   6.125   2.642   7.535 -1.1822  3.3536 -1.9323
  489MOL0     H65978   6.315   2.787   7.533  0.1579 -1.7328  0.1880
  489MOL0     H65979   6.560   2.834   7.186  0.7214  0.6524 -0.6630
  489MOL0     H65980   6.453   2.966   7.232 -1.3346 -1.4504 -1.0601
  489MOL0     H65981   6.640   3.046   7.400 -3.1594  2.6152 -0.1217
  489MOL0     H65982   6.751   2.959   7.295  0.5685  1.6970  0.5423
  489MOL0     H65983   6.572   3.177   7.202 -0.3223  0.3486  0.4340
  489MOL0     H65984   6.740   3.178   7.240  1.3586 -1.3125 -0.8943
  489MOL0     H65985   6.683   3.152   6.990  1.1081 -0.6852 -1.2790
  489MOL0     H65986   6.614   3.004   7.029 -0.5654 -0.4092 -0.4543
  489MOL0     H65987   6.811   2.888   7.043  0.2855 -0.2083 -1.6219
  489MOL0     H65988   6.900   3.025   7.105 -0.0116  1.0095  0.2026
  489MOL0     H65989   6.943   2.915   6.854 -1.1054 -0.6314  1.4604
  489MOL0     H65990   6.802   2.990   6.819  0.7537 -1.5845 -1.7203
  489MOL0     H65991   7.068   3.118   6.914 -0.9865  0.5354  3.3477
  489MOL0     H65992   6.921   3.216   6.916 -0.7294 -1.7733  1.4360
  489MOL0     H65993   7.000   3.065   6.660 -0.3180 -0.9821 -0.1128
  489MOL0     H65994   6.900   3.213   6.694  0.1745 -0.1040  1.1073
  489MOL0     H65995   6.457   2.645   7.168  0.3803 -2.5848  0.8351
  489MOL0     H65996   6.286   2.470   7.161  1.5726  0.3862 -0.1656
  489MOL0     H65997   5.833   2.221   7.601  1.3312  0.1999  0.0087
  489MOL0     H65998   5.787   2.001   7.585  1.2171 -1.1650  0.0876
  489MOL0     H65999   5.182   2.246   6.043 -0.3301 -1.3791  0.4453
  489MOL0     H66000   5.025   2.270   5.871  0.6941  1.3582 -0.4642
  489MOL0     H66001   5.070   2.478   5.310 -1.0075  2.0437  0.0761
  489MOL0     H66002   4.889   2.533   5.182  1.5326 -0.0959  0.3352
  489MOL0     H66003   4.725   2.566   5.036 -0.2302  3.4167  1.3372
  489MOL0     H66004   4.633   2.592   5.183 -0.7048 -0.7071  0.7019
  489MOL0     H66005   4.441   2.470   5.087  1.2737 -1.7994  0.4353
  489MOL0     H66006   4.532   2.448   4.935  1.5057  0.0455  0.4219
  489MOL0     H66007   4.553   2.672   4.883  1.3429 -3.2011  0.6621
  489MOL0     H66008   4.506   2.724   5.041 -0.2790  1.3883 -1.0523
  489MOL0     H66009   4.343   2.565   4.845  1.9305 -0.1609  0.1818
  489MOL0     H66010   4.282   2.637   4.999  2.4683  1.2418  2.8196
  489MOL0     H66011   4.271   2.978   4.752 -2.7708 -0.8623  1.2818
  489MOL0     H66012   4.643   2.230   5.349 -0.2152  2.1719 -1.0773
  489MOL0     H66013   4.811   2.187   5.627  2.5323 -3.4446  3.4410
  489MOL0     H66014   4.714   2.090   5.525 -0.9620  1.5837 -0.7612
  489MOL0     H66015   4.886   2.054   5.531  0.7027  0.6098 -1.6223
  490MOL0     O66016   4.987   2.376   3.057 -0.5438  0.4293 -0.1402
  490MOL0     C66017   5.059   2.288   3.103  0.6556 -0.1511  0.3013
  490MOL0     O66018   5.073   2.160   3.048 -0.5256  0.2989  0.5502
  490MOL0     C66019   4.971   2.080   3.000 -0.6017  0.3758  0.4735
  490MOL0     C66020   4.836   2.106   3.024  0.2683 -0.0475 -0.4358
  490MOL0     C66021   4.737   2.025   2.970  0.3333 -0.5879  0.3841
  490MOL0     C66022   4.763   1.919   2.885  0.0750  0.5948  0.9717
  490MOL0     O66023   4.677   1.824   2.835  0.3448 -0.4204 -0.3431
  490MOL0     C66024   4.539   1.864   2.814 -0.3929  0.1245  0.5091
  490MOL0     C66025   4.525   1.972   2.704  0.7245 -0.6761  0.7311
  490MOL0     C66026   4.383   1.993   2.645 -1.5087 -0.3733 -0.5150
  490MOL0     C66027   4.277   2.045   2.732 -1.0296  0.9429 -0.0874
  490MOL0     C66028   4.147   2.054   2.660 -0.9248 -0.1148  0.1741
  490MOL0     C66029   4.024   2.093   2.751  0.6118  0.5495 -0.3715
  490MOL0     C66030   3.898   2.082   2.670 -0.0774  0.6118 -0.0055
  490MOL0     C66031   3.775   2.103   2.747  0.6326  0.3793 -0.9214
  490MOL0     N66032   3.779   2.223   2.824 -0.7720  0.8482 -0.2912
  490MOL0     C66033   3.831   2.231   2.950  0.0351 -0.0702 -0.5347
  490MOL0     C66034   3.794   2.360   2.984  0.2974 -0.3680 -0.3129
  490MOL0     C66035   3.844   2.437   3.106  0.0128  0.4453  0.1727
  490MOL0     C66036   3.981   2.407   3.163  0.1372 -0.5301  0.5061
  490MOL0     C66037   4.090   2.473   3.086  0.4088  0.0586  0.8538
  490MOL0     C66038   4.232   2.471   3.137 -0.2201 -0.5769  0.4132
  490MOL0     O66039   4.263   2.339   3.140 -0.2937 -0.4557 -0.3082
  490MOL0     C66040   4.382   2.302   3.201  0.2027 -0.0085 -0.5401
  490MOL0     C66041   4.484   2.392   3.238 -0.4148  0.1742 -0.7006
  490MOL0     C66042   4.605   2.336   3.285  0.5283 -1.0680  0.5530
  490MOL0     C66043   4.626   2.194   3.289  0.8674 -1.0545 -0.0812
  490MOL0     C66044   4.761   2.151   3.331  0.0604 -0.0752 -0.0369
  490MOL0     O66045   4.779   2.008   3.334 -0.4456 -0.0340 -1.2755
  490MOL0     C66046   4.907   1.968   3.367 -0.2923 -0.3605 -0.3986
  490MOL0     C66047   4.981   1.888   3.288 -0.1280 -0.4557  0.4327
  490MOL0     C66048   5.106   1.834   3.325 -0.3302 -0.2216 -0.0181
  490MOL0     C66049   5.166   1.874   3.449 -0.1887 -0.4319 -0.1997
  490MOL0     O66050   5.294   1.833   3.481  0.3644  0.3270 -0.2737
  490MOL0     C66051   5.370   1.918   3.568 -0.2317 -0.8871 -0.3912
  490MOL0     C66052   5.516   1.884   3.585 -0.7435  0.4775 -0.1100
  490MOL0     C66053   5.592   1.973   3.681  0.6262  0.6157 -0.4464
  490MOL0     C66054   5.640   2.110   3.623 -0.3065 -0.8831 -0.4904
  490MOL0     C66055   5.693   2.206   3.734 -0.4181 -0.9552  0.2255
  490MOL0     C66056   5.815   2.162   3.824 -0.5562 -0.4956 -0.6633
  490MOL0     C66057   5.873   2.271   3.915  0.1200  0.3574 -0.3527
  490MOL0     C66058   6.014   2.239   3.972  1.0385 -0.1072  1.1132
  490MOL0    Cl66059   5.996   2.116   4.096  0.2737  0.1268  0.1917
  490MOL0     C66060   5.085   1.952   3.534 -0.2976  0.5403 -1.3542
  490MOL0     C66061   4.958   1.994   3.495  0.1443 -0.0676 -0.9177
  490MOL0     O66062   4.856   2.234   3.332 -0.7335  0.2523 -0.4144
  490MOL0     C66063   4.524   2.109   3.259  0.4496  0.8085  0.8062
  490MOL0     C66064   4.397   2.164   3.218 -0.8351 -0.9058  0.3657
  490MOL0     N66065   3.722   2.421   2.886  0.4505 -1.1180  0.0998
  490MOL0     N66066   3.712   2.332   2.794  0.7147 -0.1212  0.1933
  490MOL0     C66067   4.898   1.893   2.855  0.3522 -0.1517 -0.2519
  490MOL0     C66068   4.996   1.974   2.913 -0.8647 -0.1204  0.4256
  490MOL0     C66069   5.159   2.322   3.211  0.4890  0.1142 -0.2921
  490MOL0     C66070   5.252   2.223   3.247  1.2300  1.1073 -0.4524
  490MOL0     C66071   5.345   2.237   3.346  0.3094 -0.0197  0.3963
  490MOL0     C66072   5.347   2.361   3.420  0.9298  0.4371  0.6351
  490MOL0     O66073   5.457   2.383   3.500 -0.0538  0.0223 -0.8077
  490MOL0     C66074   5.456   2.503   3.593  0.3070  0.9961 -0.6901
  490MOL0     C66075   5.363   2.478   3.714  0.4191  0.6672  0.7812
  490MOL0     C66076   5.359   2.592   3.819 -0.0301  0.3318  0.2898
  490MOL0     C66077   5.478   2.584   3.914 -0.8840 -0.2006 -0.4668
  490MOL0     C66078   5.478   2.705   3.999 -0.2371  0.6072  0.5848
  490MOL0     C66079   5.459   2.796   4.077 -0.0682  0.8217 -0.7263
  490MOL0     C66080   5.257   2.456   3.385 -0.2548  0.7829  0.3019
  490MOL0     C66081   5.165   2.442   3.286 -0.8204 -0.1984 -0.2572
  490MOL0     C66082   5.070   2.560   3.253 -0.2495  0.1562  0.1591
  490MOL0     H66083   4.805   2.198   3.071  1.1897  0.0898 -0.0850
  490MOL0     H66084   4.630   2.044   2.973  0.1384 -0.4353 -3.1171
  490MOL0     H66085   4.486   1.778   2.771  2.0005 -0.4295 -1.5625
  490MOL0     H66086   4.497   1.907   2.905  0.5451  0.7128  0.6735
  490MOL0     H66087   4.599   1.953   2.626 -0.7831 -0.4568 -0.7941
  490MOL0     H66088   4.546   2.071   2.747  1.7821 -0.6609  0.2133
  490MOL0     H66089   4.335   1.902   2.608 -2.0357 -1.2899  2.2403
  490MOL0     H66090   4.388   2.069   2.567 -0.1357  0.5621  0.4340
  490MOL0     H66091   4.264   1.978   2.818  2.3655  0.5513  0.2494
  490MOL0     H66092   4.306   2.147   2.758  2.6190  0.7231 -2.5669
  490MOL0     H66093   4.155   2.127   2.578  5.0902  0.4356  0.7853
  490MOL0     H66094   4.133   1.956   2.614 -1.2364  0.1242 -0.2552
  490MOL0     H66095   4.016   2.027   2.838  0.3191  3.3455  1.9071
  490MOL0     H66096   4.030   2.199   2.778  3.9888  0.5491 -0.6860
  490MOL0     H66097   3.894   1.980   2.630  1.8149 -0.6034  2.6072
  490MOL0     H66098   3.916   2.160   2.595  4.4004  1.8635  2.0343
  490MOL0     H66099   3.688   2.115   2.682 -0.8985 -1.5209  0.6381
  490MOL0     H66100   3.746   2.014   2.804  0.1709  0.4992 -0.9658
  490MOL0     H66101   3.906   2.173   3.004 -1.4513  0.0149  1.7473
  490MOL0     H66102   3.835   2.541   3.073  2.7664 -0.5375 -4.5046
  490MOL0     H66103   3.772   2.420   3.187  0.7444 -0.1126  0.7238
  490MOL0     H66104   3.981   2.440   3.267  1.6153  0.1215  0.3157
  490MOL0     H66105   3.989   2.298   3.161 -0.3269 -0.6251  2.2727
  490MOL0     H66106   4.068   2.578   3.066 -0.0324  0.2423  2.2244
  490MOL0     H66107   4.077   2.419   2.992  0.2762 -1.5308  1.7455
  490MOL0     H66108   4.237   2.517   3.236  1.2503 -0.1661  0.1567
  490MOL0     H66109   4.297   2.526   3.069 -2.9144  2.5903  0.1129
  490MOL0     H66110   4.488   2.499   3.225  2.7738  0.1614 -0.5699
  490MOL0     H66111   4.685   2.398   3.321 -1.2704  1.4677  0.4348
  490MOL0     H66112   4.944   1.852   3.193 -1.0814  5.4944 -1.8701
  490MOL0     H66113   5.155   1.768   3.255  1.3154 -0.2671  1.1280
  490MOL0     H66114   5.363   2.022   3.535 -0.0850 -0.0207  2.0841
  490MOL0     H66115   5.317   1.917   3.663 -2.4690 -1.1728 -1.5846
  490MOL0     H66116   5.519   1.781   3.623  4.5343  0.5426  0.4215
  490MOL0     H66117   5.577   1.879   3.495  0.9508 -1.8231  1.0382
  490MOL0     H66118   5.522   1.995   3.761 -0.6242 -1.6539 -0.8263
  490MOL0     H66119   5.681   1.919   3.716  1.7167  1.1901 -2.1751
  490MOL0     H66120   5.557   2.159   3.571  1.0054 -0.2842 -2.1141
  490MOL0     H66121   5.720   2.107   3.549  1.0672 -2.0599  0.9781
  490MOL0     H66122   5.611   2.230   3.802  0.3065 -0.5033  0.9670
  490MOL0     H66123   5.729   2.300   3.690 -1.1407 -0.0577  1.4892
  490MOL0     H66124   5.778   2.079   3.884 -3.4892  1.1345  0.0129
  490MOL0     H66125   5.890   2.126   3.754 -1.1074 -3.4200  0.1461
  490MOL0     H66126   5.800   2.273   3.996 -0.3971 -2.3306 -0.6754
  490MOL0     H66127   5.875   2.371   3.871 -0.4325  0.1776 -0.7948
  490MOL0     H66128   6.083   2.220   3.889  0.6325  1.6940  0.3160
  490MOL0     H66129   6.048   2.334   4.014  1.8878  0.4296 -0.6850
  490MOL0     H66130   5.128   1.992   3.625  2.1929 -2.3474 -1.1224
  490MOL0     H66131   4.892   2.061   3.548  1.2673  1.6857 -1.6592
  490MOL0     H66132   4.540   2.003   3.275 -1.3741  0.1519 -1.1883
  490MOL0     H66133   4.308   2.105   3.196 -0.9324 -1.1752  1.4104
  490MOL0     H66134   4.923   1.811   2.789 -3.7620 -1.9852  0.1713
  490MOL0     H66135   5.098   1.948   2.889 -0.4820  0.4146  1.4214
  490MOL0     H66136   5.248   2.134   3.185 -2.1589  0.8308 -0.0205
  490MOL0     H66137   5.420   2.160   3.360 -1.1177 -1.4214  0.7380
  490MOL0     H66138   5.415   2.589   3.540 -4.4096 -1.0458 -0.8406
  490MOL0     H66139   5.554   2.514   3.642 -0.1566 -2.0904  1.2162
  490MOL0     H66140   5.386   2.385   3.766 -1.9147 -0.7854 -0.6100
  490MOL0     H66141   5.264   2.467   3.670  0.6606  0.4824  0.2722
  490MOL0     H66142   5.263   2.580   3.870  0.1049 -4.5129 -0.1108
  490MOL0     H66143   5.349   2.688   3.769  0.3418 -0.9712 -2.4976
  490MOL0     H66144   5.480   2.493   3.976 -0.0562  0.4711  0.5203
  490MOL0     H66145   5.573   2.585   3.860  1.2627  1.1372  2.9997
  490MOL0     H66146   5.432   2.857   4.161  0.8201  0.1000  0.1141
  490MOL0     H66147   5.247   2.541   3.453 -1.2381 -0.2651  1.5177
  490MOL0     H66148   5.084   2.599   3.152 -1.1383  1.7326  0.6124
  490MOL0     H66149   4.965   2.530   3.258 -0.0550 -0.7412 -0.8127
  490MOL0     H66150   5.084   2.651   3.312  2.4291 -0.4125  0.5384
  491MOL0     O66151   3.281  10.180   7.325 -0.3816  0.1055  0.3611
  491MOL0     C66152   3.332  10.293   7.344 -0.7028  0.5588  0.3652
  491MOL0     O66153   3.261  10.405   7.370  0.3306  0.1817 -0.0902
  491MOL0     C66154   3.127  10.382   7.401  0.5248  0.1784  0.0086
  491MOL0     C66155   3.064  10.436   7.506  0.4418 -0.2759 -0.3604
  491MOL0     C66156   2.931  10.432   7.525 -0.6911 -0.1809 -0.0971
  491MOL0     C66157   2.844  10.373   7.431  0.4628 -0.3295  0.6463
  491MOL0     O66158   2.707  10.347   7.444  0.0039  0.2039  0.8300
  491MOL0     C66159   2.657  10.358   7.577  0.9074  0.0397 -0.6342
  491MOL0     C66160   2.506  10.350   7.569  1.3080 -0.4620 -0.6404
  491MOL0     C66161   2.462  10.209   7.529 -0.3889  0.1943  0.1544
  491MOL0     C66162   2.430  10.218   7.375  0.8036 -0.5552  0.7816
  491MOL0     C66163   2.384  10.081   7.327  0.1395  0.2366 -0.1161
  491MOL0     C66164   2.361  10.068   7.173  1.2013 -0.6438 -0.9174
  491MOL0     C66165   2.250  10.168   7.132  0.4854 -0.4233  0.4817
  491MOL0     C66166   2.293  10.310   7.088 -0.4065 -0.3333  0.0419
  491MOL0     N66167   2.316  10.302   6.940 -0.3906 -0.5413  0.1985
  491MOL0     C66168   2.436  10.296   6.882 -0.5932  0.2172  0.2437
  491MOL0     C66169   2.405  10.295   6.746 -0.5133 -0.4785  0.2619
  491MOL0     C66170   2.504  10.311   6.636 -0.5725 -0.4107 -0.3475
  491MOL0     C66171   2.518  10.460   6.599  0.7460  0.0983  0.5488
  491MOL0     C66172   2.596  10.460   6.471 -0.5130  0.9653  0.5157
  491MOL0     C66173   2.629  10.602   6.423  0.5899 -0.1354  0.7523
  491MOL0     O66174   2.693  10.678   6.522 -0.5593  0.7995  0.0204
  491MOL0     C66175   2.783  10.780   6.478  0.9093 -0.0806 -0.4539
  491MOL0     C66176   2.890  10.807   6.559 -0.3437 -1.0178  0.0167
  491MOL0     C66177   2.965  10.916   6.528  0.8331 -0.3768 -1.0483
  491MOL0     C66178   2.947  10.994   6.408 -0.0252  0.7065 -0.5088
  491MOL0     C66179   3.040  11.093   6.361  0.0175 -0.4149 -1.0984
  491MOL0     O66180   3.110  11.172   6.447  0.5114  0.3829  0.0159
  491MOL0     C66181   3.165  11.297   6.410 -0.3868  0.4442  0.5028
  491MOL0     C66182   3.259  11.353   6.497  0.9417  0.2941 -0.1885
  491MOL0     C66183   3.330  11.475   6.477  0.9170 -0.6542  0.1174
  491MOL0     C66184   3.302  11.552   6.363 -0.5484 -0.4794 -0.1003
  491MOL0     O66185   3.365  11.668   6.321 -0.2392 -0.4393 -0.0823
  491MOL0     C66186   3.464  11.737   6.397 -0.7601  0.4944  1.5361
  491MOL0     C66187   3.423  11.839   6.488 -0.1096 -0.5312  0.0224
  491MOL0     C66188   3.549  11.883   6.574 -0.2676 -0.4098  0.5737
  491MOL0     C66189   3.507  11.984   6.682  0.5036  1.3568 -0.4231
  491MOL0     C66190   3.610  12.020   6.792  0.3000  0.3461 -0.0478
  491MOL0     C66191   3.559  12.131   6.885  0.3430 -0.3703 -0.0966
  491MOL0     C66192   3.652  12.138   7.016  0.2470 -0.3505  0.0729
  491MOL0     C66193   3.577  12.215   7.123 -0.0399 -0.6503  0.1101
  491MOL0    Cl66194   3.533  12.383   7.079  0.0236 -0.4670 -0.5338
  491MOL0     C66195   3.204  11.500   6.275 -1.0011  0.0022  0.0196
  491MOL0     C66196   3.133  11.377   6.300  0.2403 -0.3473  0.8442
  491MOL0     O66197   3.041  11.097   6.241  0.0883  0.5679 -0.0045
  491MOL0     C66198   2.834  10.959   6.326 -0.2366  0.3077 -0.2257
  491MOL0     C66199   2.757  10.849   6.361 -0.7402  0.8078 -0.0829
  491MOL0     N66200   2.265  10.287   6.727 -0.0554 -1.1981  0.1258
  491MOL0     N66201   2.216  10.301   6.845 -0.4832 -0.4733  0.3617
  491MOL0     C66202   2.900  10.325   7.316 -0.6511 -0.2798  0.2295
  491MOL0     C66203   3.044  10.328   7.304  0.3611 -1.3744  0.7783
  491MOL0     C66204   3.485  10.303   7.339  0.7130 -0.0841  0.6102
  491MOL0     C66205   3.563  10.192   7.358  0.2414  0.3361  0.3195
  491MOL0     C66206   3.704  10.193   7.336 -0.2420 -0.6030  0.6506
  491MOL0     C66207   3.777  10.313   7.310 -0.4049  0.8723 -0.6907
  491MOL0     O66208   3.920  10.322   7.294  0.7261 -0.6172  0.6938
  491MOL0     C66209   3.979  10.217   7.228  0.3236  0.5578  0.4778
  491MOL0     C66210   4.074  10.135   7.319  0.2078  0.7439 -0.6670
  491MOL0     C66211   4.157  10.035   7.234  0.1251 -0.5815 -0.0099
  491MOL0     C66212   4.296  10.079   7.197 -0.1659  1.0613 -0.6225
  491MOL0     C66213   4.293  10.196   7.109  0.2792  0.2043 -0.3786
  491MOL0     C66214   4.297  10.285   7.025  0.2989  0.3354 -0.2016
  491MOL0     C66215   3.704  10.425   7.298  0.7285 -0.1266  0.2681
  491MOL0     C66216   3.558  10.422   7.307  0.2715  0.1396 -0.2103
  491MOL0     C66217   3.504  10.570   7.278  0.0378 -0.4944 -0.1606
  491MOL0     H66218   3.119  10.503   7.571 -0.5138  1.1156 -0.9514
  491MOL0     H66219   2.904  10.481   7.618  2.2452 -2.2239  2.0286
  491MOL0     H66220   2.689  10.273   7.638 -1.2159 -1.3491 -1.3400
  491MOL0     H66221   2.694  10.453   7.617  0.3603  0.0416 -0.1162
  491MOL0     H66222   2.476  10.432   7.502  3.9502  1.3350  0.2479
  491MOL0     H66223   2.463  10.383   7.664  2.6906  0.4529 -0.3035
  491MOL0     H66224   2.378  10.179   7.593  0.1884  0.8371  1.2456
  491MOL0     H66225   2.545  10.140   7.545  1.1880  1.7283 -1.0504
  491MOL0     H66226   2.342  10.282   7.363  0.9262 -0.8144 -2.5046
  491MOL0     H66227   2.510  10.246   7.306 -2.0983  0.5009 -2.4581
  491MOL0     H66228   2.456  10.004   7.357  1.0105  0.3414 -1.8427
  491MOL0     H66229   2.288  10.073   7.379  0.1363  1.7859  0.1640
  491MOL0     H66230   2.447  10.095   7.111 -0.5847  3.9914 -1.7678
  491MOL0     H66231   2.334   9.964   7.152 -0.3977 -0.6829  1.0421
  491MOL0     H66232   2.179  10.168   7.216  1.0898 -4.6904  1.2270
  491MOL0     H66233   2.190  10.128   7.050  1.1931 -0.8377  0.1556
  491MOL0     H66234   2.214  10.378   7.120 -1.3193 -0.0449 -2.5851
  491MOL0     H66235   2.390  10.338   7.131 -0.3204  0.3814 -0.6013
  491MOL0     H66236   2.525  10.313   6.941 -2.2408  4.0832  2.0045
  491MOL0     H66237   2.596  10.263   6.672 -0.2435 -0.7147 -1.5461
  491MOL0     H66238   2.484  10.244   6.552  2.4405 -0.1549 -1.3929
  491MOL0     H66239   2.422  10.506   6.573  2.3539  1.6166 -3.6813
  491MOL0     H66240   2.564  10.523   6.676 -0.7076  2.3642 -0.3341
  491MOL0     H66241   2.542  10.410   6.390 -0.3817  3.0756 -0.9539
  491MOL0     H66242   2.686  10.399   6.486 -1.3360  0.3836  3.8091
  491MOL0     H66243   2.538  10.654   6.394  1.9024  1.6654 -0.3251
  491MOL0     H66244   2.699  10.591   6.340  2.6726  0.4252  2.3494
  491MOL0     H66245   2.910  10.751   6.650 -0.6955 -1.8183 -0.3948
  491MOL0     H66246   3.044  10.955   6.591  0.9320  1.9713 -2.5150
  491MOL0     H66247   3.292  11.291   6.581 -0.6157  3.7298  3.2370
  491MOL0     H66248   3.407  11.512   6.543 -0.5996 -0.9786  2.1741
  491MOL0     H66249   3.548  11.672   6.424  1.7826  2.9992  0.1515
  491MOL0     H66250   3.515  11.793   6.318 -0.6769 -1.9124 -0.2175
  491MOL0     H66251   3.382  11.928   6.438  1.1264 -0.8497 -1.6343
  491MOL0     H66252   3.350  11.798   6.558 -0.0864 -1.6238 -0.5888
  491MOL0     H66253   3.586  11.800   6.635 -2.4701 -0.1047  2.4464
  491MOL0     H66254   3.623  11.908   6.497  0.0843 -1.7835  0.4380
  491MOL0     H66255   3.418  11.949   6.734 -1.6219  3.1717 -2.6070
  491MOL0     H66256   3.486  12.081   6.636 -1.5819  2.4526  2.5347
  491MOL0     H66257   3.707  12.042   6.748  0.3310 -0.3099 -0.3188
  491MOL0     H66258   3.617  11.931   6.854  0.6482  0.6291  0.3270
  491MOL0     H66259   3.553  12.224   6.828  0.1872 -1.2095 -1.4936
  491MOL0     H66260   3.457  12.104   6.916 -0.1158  1.4235  0.0428
  491MOL0     H66261   3.743  12.188   6.983 -0.2574  0.6297  0.1162
  491MOL0     H66262   3.682  12.039   7.052  1.5399 -0.4490 -1.1863
  491MOL0     H66263   3.495  12.150   7.153  1.3853 -2.4422  0.2793
  491MOL0     H66264   3.646  12.218   7.208 -0.9712  1.4683  0.8429
  491MOL0     H66265   3.180  11.553   6.184 -1.9488  1.7763  1.2356
  491MOL0     H66266   3.054  11.344   6.232  0.8606  1.6604 -0.9838
  491MOL0     H66267   2.811  11.013   6.234 -1.2311  1.5104  0.6891
  491MOL0     H66268   2.684  10.814   6.289 -1.7954 -0.2379  1.4442
  491MOL0     H66269   2.841  10.279   7.237 -0.0323  1.4024 -1.2968
  491MOL0     H66270   3.087  10.299   7.209 -3.2805 -0.4688 -1.3245
  491MOL0     H66271   3.508  10.101   7.378  1.7632 -0.6459  0.2194
  491MOL0     H66272   3.766  10.106   7.354 -0.1390 -0.4182  1.1873
  491MOL0     H66273   4.042  10.263   7.151  0.4824  1.1296  0.9459
  491MOL0     H66274   3.922  10.153   7.160  2.0869 -1.5785  0.8818
  491MOL0     H66275   4.027  10.091   7.407  2.8532  0.3245  0.6378
  491MOL0     H66276   4.144  10.199   7.373  0.1570 -1.5752  2.4407
  491MOL0     H66277   4.110  10.026   7.135  4.0937 -0.8867 -2.0558
  491MOL0     H66278   4.167   9.938   7.283  4.4364 -0.3966 -0.1466
  491MOL0     H66279   4.346  10.098   7.293  1.6312  0.4168 -1.3878
  491MOL0     H66280   4.353  10.002   7.143 -0.1203  0.5380  0.1568
  491MOL0     H66281   4.299  10.359   6.948  3.5716  1.1556  0.5257
  491MOL0     H66282   3.748  10.519   7.267 -1.6103 -0.5010 -5.4513
  491MOL0     H66283   3.561  10.618   7.198 -1.6820 -0.2000 -1.2677
  491MOL0     H66284   3.398  10.580   7.256 -0.3162  2.3248  2.0758
  491MOL0     H66285   3.531  10.648   7.351  0.3123  0.1811 -0.9666
  492MOL0     O66286   2.999   5.016   1.496 -0.1119 -0.3066 -0.0521
  492MOL0     C66287   3.052   5.124   1.487  0.8880  0.2070  0.0495
  492MOL0     O66288   3.173   5.140   1.432 -0.1593 -0.4842 -0.4153
  492MOL0     C66289   3.241   5.046   1.357 -0.6079  0.5952  0.0177
  492MOL0     C66290   3.266   5.064   1.221  0.5343 -0.1539  0.0588
  492MOL0     C66291   3.314   4.963   1.147  0.2162 -0.4203 -0.1799
  492MOL0     C66292   3.382   4.853   1.210  0.9231 -0.2415 -0.2672
  492MOL0     O66293   3.446   4.776   1.118  0.1025  0.0336  0.4481
  492MOL0     C66294   3.550   4.681   1.167 -0.5831  0.6694  0.1947
  492MOL0     C66295   3.671   4.769   1.193 -0.3283 -0.2080  0.3963
  492MOL0     C66296   3.719   4.835   1.072  0.4268 -0.3157  0.7660
  492MOL0     C66297   3.849   4.927   1.084  0.0264 -0.2316  0.0328
  492MOL0     C66298   3.875   5.011   0.951  0.9073  0.1465  0.1123
  492MOL0     C66299   3.968   5.131   0.973 -0.6404 -0.6481 -0.1800
  492MOL0     C66300   3.894   5.241   1.045  0.2877  0.0214  0.3903
  492MOL0     C66301   4.004   5.335   1.091  0.5754 -0.4710  0.3959
  492MOL0     N66302   4.101   5.384   0.996  0.1006  0.1937  0.8735
  492MOL0     C66303   4.077   5.492   0.918  0.4494  0.1443  0.9354
  492MOL0     C66304   4.182   5.514   0.837 -0.0355 -1.4318 -0.0740
  492MOL0     C66305   4.204   5.623   0.737  0.3485  0.9531 -0.2566
  492MOL0     C66306   4.161   5.759   0.796 -0.6701  0.0518 -1.3371
  492MOL0     C66307   4.270   5.810   0.889  0.2176  0.3384 -0.7082
  492MOL0     C66308   4.412   5.825   0.833 -0.7829  0.8402  0.9050
  492MOL0     O66309   4.415   5.864   0.698 -0.2408  0.6418  0.1888
  492MOL0     C66310   4.393   5.995   0.655 -0.2145  0.6852 -0.1130
  492MOL0     C66311   4.382   6.016   0.522  1.1559 -0.7256  0.0999
  492MOL0     C66312   4.364   6.141   0.471 -0.3056 -0.6075  0.1681
  492MOL0     C66313   4.364   6.259   0.557  0.2205 -0.6789 -1.5208
  492MOL0     C66314   4.377   6.400   0.516  0.4426 -0.2460 -0.0124
  492MOL0     O66315   4.378   6.415   0.379  0.9296  0.1558 -0.5163
  492MOL0     C66316   4.427   6.528   0.324  0.2874  0.0534  0.0280
  492MOL0     C66317   4.548   6.581   0.366  0.1290 -0.2632  0.0837
  492MOL0     C66318   4.594   6.700   0.309  0.4489  0.3374 -0.4590
  492MOL0     C66319   4.517   6.760   0.210 -0.1759 -0.3974  0.1706
  492MOL0     O66320   4.576   6.863   0.146 -0.3522 -0.4110 -0.2367
  492MOL0     C66321   4.581   6.857  -0.002 -0.1240  1.1374 -0.6161
  492MOL0     C66322   4.681   6.750  -0.056 -0.8665 -0.4850  0.1340
  492MOL0     C66323   4.661   6.736  -0.206  0.3943  0.6650 -0.2448
  492MOL0     C66324   4.698   6.858  -0.293  0.6623  0.5783  0.3523
  492MOL0     C66325   4.718   6.808  -0.442 -0.0682  0.1521 -0.3796
  492MOL0     C66326   4.781   6.925  -0.514  0.5742 -0.1443  0.4430
  492MOL0     C66327   4.681   7.049  -0.514 -0.2601  0.3353 -0.0252
  492MOL0     C66328   4.725   7.148  -0.612 -0.5127  0.4493  0.2050
  492MOL0    Cl66329   4.713   7.091  -0.778  0.0467  0.1598  0.2916
  492MOL0     C66330   4.392   6.708   0.177 -0.8010  0.7066  0.1191
  492MOL0     C66331   4.340   6.596   0.238 -0.2301 -0.1821  0.1099
  492MOL0     O66332   4.386   6.488   0.599  0.0260 -0.1504 -0.6563
  492MOL0     C66333   4.385   6.233   0.687 -1.2306 -0.4280  0.0069
  492MOL0     C66334   4.410   6.106   0.734  0.3571  0.6493 -0.4076
  492MOL0     N66335   4.274   5.423   0.886 -0.5522 -0.7018 -0.4528
  492MOL0     N66336   4.230   5.359   0.984 -0.3309  0.3808  0.4890
  492MOL0     C66337   3.382   4.847   1.351 -0.2752  0.5343 -0.4443
  492MOL0     C66338   3.305   4.935   1.419 -0.1293 -0.5992 -0.1998
  492MOL0     C66339   2.989   5.209   1.592 -0.3669  0.3084 -0.3898
  492MOL0     C66340   2.860   5.264   1.574 -0.1522  0.6127 -0.1952
  492MOL0     C66341   2.793   5.321   1.684 -0.3080 -1.2954  0.8206
  492MOL0     C66342   2.861   5.347   1.804 -0.3606  0.3078 -0.2088
  492MOL0     O66343   2.807   5.417   1.906  0.1933  0.5445 -0.1399
  492MOL0     C66344   2.895   5.494   1.976 -0.6936 -0.2537 -0.0292
  492MOL0     C66345   3.003   5.581   1.902 -0.0994  0.9930 -0.2349
  492MOL0     C66346   3.097   5.652   2.003 -0.0331  0.3111  0.4060
  492MOL0     C66347   3.039   5.763   2.076 -0.3541 -0.5674 -0.2009
  492MOL0     C66348   2.972   5.877   1.999 -0.1874 -0.4068 -0.8836
  492MOL0     C66349   2.926   5.966   1.938  0.3097 -1.1480  0.7971
  492MOL0     C66350   2.986   5.286   1.818 -0.3099  1.1728 -0.1574
  492MOL0     C66351   3.045   5.211   1.718 -0.6990 -0.8639  0.3194
  492MOL0     C66352   3.169   5.124   1.754  0.3363 -0.0639  0.0704
  492MOL0     H66353   3.235   5.156   1.172  1.6565  0.6115  0.7460
  492MOL0     H66354   3.321   4.987   1.041  0.6765  1.1795  0.1929
  492MOL0     H66355   3.518   4.631   1.259 -1.6599  0.0481 -0.4910
  492MOL0     H66356   3.581   4.617   1.083 -0.2369  0.5641  0.4033
  492MOL0     H66357   3.745   4.702   1.237 -0.7798 -0.2750  1.0672
  492MOL0     H66358   3.652   4.843   1.271  0.1453  0.0613  0.2597
  492MOL0     H66359   3.639   4.902   1.040  1.2785  2.2372  3.5114
  492MOL0     H66360   3.733   4.766   0.989 -0.7609  0.6245 -0.2563
  492MOL0     H66361   3.840   4.992   1.171  1.3373 -1.9458  1.5217
  492MOL0     H66362   3.930   4.859   1.113  2.0830  1.5912 -1.1474
  492MOL0     H66363   3.921   4.938   0.883 -0.5721 -1.0290  0.3014
  492MOL0     H66364   3.775   5.033   0.912  1.3375 -0.2870 -1.3328
  492MOL0     H66365   4.061   5.108   1.026 -2.3687 -0.4261  3.1630
  492MOL0     H66366   4.009   5.158   0.875  5.2033 -1.7632  1.5558
  492MOL0     H66367   3.841   5.206   1.134  1.4966  1.7725  1.8757
  492MOL0     H66368   3.831   5.304   0.981 -1.8001  0.7572  2.9623
  492MOL0     H66369   3.951   5.421   1.135  2.2300 -0.6881  3.0261
  492MOL0     H66370   4.062   5.296   1.175 -0.1414  2.1345  2.2436
  492MOL0     H66371   3.984   5.548   0.916  0.8975  0.8815  0.5718
  492MOL0     H66372   4.304   5.622   0.693 -0.6140  0.1616 -2.5750
  492MOL0     H66373   4.138   5.589   0.656 -0.7887 -0.3603  1.1598
  492MOL0     H66374   4.158   5.826   0.709  4.3982 -2.3541 -3.7996
  492MOL0     H66375   4.059   5.770   0.832 -0.0141  0.3419  0.5399
  492MOL0     H66376   4.270   5.740   0.973 -0.7758  0.5464 -0.5140
  492MOL0     H66377   4.249   5.909   0.931  0.7887 -0.4695  1.6832
  492MOL0     H66378   4.450   5.723   0.824 -2.8500 -0.1231  2.1657
  492MOL0     H66379   4.473   5.896   0.890 -2.2259  2.8444  0.0931
  492MOL0     H66380   4.359   5.936   0.452  0.1487  1.3908 -2.1443
  492MOL0     H66381   4.370   6.152   0.364  0.8698  0.5709  0.3338
  492MOL0     H66382   4.605   6.513   0.428 -2.2174 -0.3411  2.3296
  492MOL0     H66383   4.694   6.733   0.331  1.3033 -3.1036  1.4679
  492MOL0     H66384   4.479   6.846  -0.039 -0.1945  2.7299 -0.9475
  492MOL0     H66385   4.605   6.961  -0.026 -1.6466  1.7338  0.3101
  492MOL0     H66386   4.780   6.794  -0.036 -2.7863  3.5248  1.9415
  492MOL0     H66387   4.671   6.657   0.001 -2.0665 -1.1984 -1.1863
  492MOL0     H66388   4.726   6.657  -0.244  0.6102  1.4975 -1.6785
  492MOL0     H66389   4.555   6.717  -0.227  0.6488 -2.6951  1.0123
  492MOL0     H66390   4.792   6.901  -0.256  0.5387 -0.2951  1.7512
  492MOL0     H66391   4.623   6.938  -0.287 -2.8199 -1.9176 -3.9760
  492MOL0     H66392   4.630   6.767  -0.492 -0.5875  0.2787  0.4191
  492MOL0     H66393   4.797   6.732  -0.436  1.9581  2.0850 -1.3233
  492MOL0     H66394   4.877   6.959  -0.476 -0.4324  0.1561  2.8605
  492MOL0     H66395   4.798   6.913  -0.622  1.8950  3.4024  0.1164
  492MOL0     H66396   4.667   7.098  -0.417  0.0328 -2.3795  1.4689
  492MOL0     H66397   4.583   7.014  -0.548 -0.6971  3.0868 -2.0008
  492MOL0     H66398   4.657   7.231  -0.589  1.0841  1.3375  1.9873
  492MOL0     H66399   4.831   7.171  -0.598  0.1639 -0.6084 -2.4672
  492MOL0     H66400   4.320   6.753   0.109 -0.4661  3.2852  1.3366
  492MOL0     H66401   4.233   6.581   0.244 -0.1975 -0.6278 -0.2867
  492MOL0     H66402   4.384   6.308   0.766 -1.9088  2.1658 -2.3235
  492MOL0     H66403   4.425   6.095   0.841 -0.0851 -2.5579 -0.5811
  492MOL0     H66404   3.435   4.770   1.406 -4.2126 -1.4935  0.8668
  492MOL0     H66405   3.301   4.936   1.527 -0.4198 -5.2687  0.0005
  492MOL0     H66406   2.814   5.258   1.477 -1.9045  0.5297  0.6126
  492MOL0     H66407   2.695   5.359   1.658  0.9563  0.6884 -1.5234
  492MOL0     H66408   2.945   5.426   2.046  1.9573 -0.5569 -2.0617
  492MOL0     H66409   2.845   5.567   2.040 -0.0409 -0.2453  0.4707
  492MOL0     H66410   2.963   5.663   1.842 -0.4894  1.2795  0.4077
  492MOL0     H66411   3.066   5.517   1.840  0.3747  0.2157  1.0228
  492MOL0     H66412   3.168   5.694   1.931  1.2774 -0.7582  1.0366
  492MOL0     H66413   3.146   5.581   2.070 -1.9223 -1.6880 -0.2107
  492MOL0     H66414   2.969   5.731   2.154 -2.6088  2.0037 -0.9915
  492MOL0     H66415   3.117   5.803   2.142 -1.2444  0.1767  0.4448
  492MOL0     H66416   2.891   6.045   1.875 -1.3322 -2.3000  0.1895
  492MOL0     H66417   3.037   5.278   1.914  1.9138 -0.6569 -1.3888
  492MOL0     H66418   3.137   5.021   1.734 -0.2056  0.5663 -2.6630
  492MOL0     H66419   3.251   5.154   1.687 -0.2878  0.7803 -0.3349
  492MOL0     H66420   3.202   5.117   1.858 -0.6412  3.4258  0.7237
  493MOL0     O66421   2.338   3.140   4.467 -0.2286 -1.1495  0.5838
  493MOL0     C66422   2.232   3.076   4.438 -0.1062 -0.4536  0.1433
  493MOL0     O66423   2.238   2.951   4.380  0.3613  1.2312  0.0163
  493MOL0     C66424   2.356   2.895   4.337 -0.1171  0.3010  0.6425
  493MOL0     C66425   2.453   2.975   4.265  0.3129 -0.6116 -1.2220
  493MOL0     C66426   2.561   2.924   4.209 -0.7072 -0.1688  0.4127
  493MOL0     C66427   2.586   2.789   4.234 -0.3833 -0.9946  0.3378
  493MOL0     O66428   2.706   2.746   4.184 -0.5857 -0.8096  0.3289
  493MOL0     C66429   2.728   2.605   4.159  0.6129  0.1757 -0.4718
  493MOL0     C66430   2.853   2.580   4.080 -0.3996 -0.4472 -0.3084
  493MOL0     C66431   2.883   2.432   4.054  0.2646 -0.9197  0.3214
  493MOL0     C66432   3.013   2.406   3.973  0.2369 -0.8926 -0.1430
  493MOL0     C66433   3.027   2.251   3.957  0.0388 -0.3602 -0.7721
  493MOL0     C66434   3.178   2.216   3.942 -0.1224 -0.0169 -0.0803
  493MOL0     C66435   3.195   2.071   3.903  0.3231 -0.0944  0.5475
  493MOL0     C66436   3.338   2.021   3.937  0.3733  0.5913 -0.5968
  493MOL0     N66437   3.437   2.082   3.855 -0.6470 -0.0350 -0.4383
  493MOL0     C66438   3.429   2.078   3.720  0.5337 -0.1099 -1.2202
  493MOL0     C66439   3.539   2.135   3.677 -0.2746  0.4975  0.0408
  493MOL0     C66440   3.581   2.134   3.530 -0.8388  0.4066  0.0972
  493MOL0     C66441   3.487   2.219   3.438 -0.3400  0.9509 -0.0353
  493MOL0     C66442   3.568   2.247   3.313 -0.0154 -0.2060 -0.1591
  493MOL0     C66443   3.505   2.335   3.197  0.4809  0.6647 -0.4081
  493MOL0     O66444   3.360   2.340   3.202 -0.6673 -0.3909  0.2086
  493MOL0     C66445   3.296   2.398   3.095 -0.9556 -0.4237  1.0678
  493MOL0     C66446   3.175   2.459   3.135 -0.6786 -0.0933 -1.2122
  493MOL0     C66447   3.090   2.529   3.048 -0.8491  0.0974 -0.3253
  493MOL0     C66448   3.141   2.541   2.914 -0.1158 -0.8771  0.2997
  493MOL0     C66449   3.071   2.623   2.821  0.1520  0.3361  0.4736
  493MOL0     O66450   2.934   2.632   2.827 -0.0636  0.3477 -0.2300
  493MOL0     C66451   2.870   2.705   2.731  0.7118  0.4092  0.2158
  493MOL0     C66452   2.896   2.842   2.699 -0.0693 -0.4457  0.0487
  493MOL0     C66453   2.804   2.899   2.612 -0.0357  0.3215  0.3824
  493MOL0     C66454   2.702   2.825   2.547  0.3543 -0.4552 -0.9834
  493MOL0     O66455   2.626   2.874   2.444 -0.5145  0.0374 -0.0078
  493MOL0     C66456   2.479   2.843   2.450 -0.2742  0.4144 -0.2289
  493MOL0     C66457   2.389   2.958   2.404 -0.1664  1.1889 -0.4277
  493MOL0     C66458   2.237   2.936   2.435  0.3208 -0.1117 -0.2075
  493MOL0     C66459   2.187   2.816   2.363 -0.3332 -1.2357  0.5748
  493MOL0     C66460   2.035   2.781   2.389  0.1653  0.1248 -0.2285
  493MOL0     C66461   2.013   2.737   2.549  0.3790 -0.0074  0.1653
  493MOL0     C66462   1.867   2.680   2.566 -0.6386 -0.5975  0.8104
  493MOL0     C66463   1.854   2.552   2.491 -0.1493 -0.7925  0.1254
  493MOL0    Cl66464   1.733   2.446   2.561  0.2433 -0.1810  0.2604
  493MOL0     C66465   2.693   2.696   2.578 -0.8071  0.8973  0.9127
  493MOL0     C66466   2.776   2.634   2.663 -0.3198 -0.4388  0.4060
  493MOL0     O66467   3.137   2.669   2.728 -0.3913 -0.3791 -0.3837
  493MOL0     C66468   3.264   2.479   2.872  0.1399  0.1262 -0.2660
  493MOL0     C66469   3.341   2.401   2.960  0.1652  0.6653  0.1709
  493MOL0     N66470   3.613   2.182   3.789  0.4465  0.1649 -0.2673
  493MOL0     N66471   3.555   2.139   3.898  0.1431 -0.6688 -0.1582
  493MOL0     C66472   2.503   2.711   4.306  0.6060 -0.1479 -0.0172
  493MOL0     C66473   2.384   2.762   4.364 -0.7112  0.6623  0.8822
  493MOL0     C66474   2.100   3.122   4.492  1.0502  0.8153 -0.1997
  493MOL0     C66475   2.102   3.238   4.564 -0.5574  0.0449 -0.0361
  493MOL0     C66476   1.981   3.299   4.594  0.0555 -0.1037 -0.7063
  493MOL0     C66477   1.861   3.241   4.571  0.5391 -0.5862  0.5626
  493MOL0     O66478   1.751   3.322   4.598  0.5153 -0.9343  0.9100
  493MOL0     C66479   1.622   3.302   4.549 -0.2056 -0.0569 -0.7007
  493MOL0     C66480   1.545   3.206   4.634  0.2869  0.2234  0.7147
  493MOL0     C66481   1.413   3.161   4.562  0.1419  0.1300  0.3611
  493MOL0     C66482   1.290   3.254   4.569 -0.6424 -0.2835  0.2156
  493MOL0     C66483   1.233   3.290   4.706 -0.7288  0.5391 -0.0492
  493MOL0     C66484   1.170   3.326   4.807 -0.4966  0.1422 -0.2683
  493MOL0     C66485   1.856   3.112   4.520 -0.2909  1.1581  0.1172
  493MOL0     C66486   1.974   3.056   4.478 -0.3808 -0.0396 -0.3015
  493MOL0     C66487   1.967   2.922   4.419  0.2091 -0.0144  0.4296
  493MOL0     H66488   2.416   3.076   4.248  1.4565  0.4499  1.8818
  493MOL0     H66489   2.623   2.988   4.147 -0.0694 -0.0415  1.1613
  493MOL0     H66490   2.737   2.552   4.254 -1.2546  1.3148  0.4184
  493MOL0     H66491   2.641   2.565   4.105 -0.0478  3.7400 -2.3068
  493MOL0     H66492   2.943   2.619   4.128 -1.4403  1.2265  0.3618
  493MOL0     H66493   2.844   2.630   3.983 -0.7847  1.0197  0.4694
  493MOL0     H66494   2.802   2.391   3.994  0.5282 -0.7202 -0.1791
  493MOL0     H66495   2.886   2.374   4.147  0.3823 -3.3068 -1.0849
  493MOL0     H66496   3.001   2.457   3.877 -2.5343 -1.0879 -0.0040
  493MOL0     H66497   3.099   2.439   4.031  1.3877 -3.1063 -0.5065
  493MOL0     H66498   2.993   2.193   4.043 -1.0342 -1.6126 -1.9752
  493MOL0     H66499   2.973   2.206   3.872  0.4380  1.2097 -1.8914
  493MOL0     H66500   3.221   2.281   3.865 -0.9293  1.4043  0.6189
  493MOL0     H66501   3.215   2.233   4.044  0.5625 -1.7277 -0.0135
  493MOL0     H66502   3.168   2.056   3.798 -0.2586 -0.6041  0.7659
  493MOL0     H66503   3.113   2.016   3.950  0.2962 -1.0402 -0.5646
  493MOL0     H66504   3.346   2.046   4.043 -1.6883 -0.4069 -0.1601
  493MOL0     H66505   3.345   1.912   3.929  0.8358  0.5695  0.0346
  493MOL0     H66506   3.351   2.024   3.668  1.1403 -1.8426 -0.3904
  493MOL0     H66507   3.682   2.175   3.531 -0.9565  0.7007  0.9996
  493MOL0     H66508   3.574   2.033   3.489 -0.9694  1.5252 -2.8686
  493MOL0     H66509   3.396   2.168   3.406 -2.9811  4.1307  1.8352
  493MOL0     H66510   3.450   2.309   3.487  0.2693  1.7030 -0.9222
  493MOL0     H66511   3.600   2.149   3.278 -0.2216 -1.2967  2.4935
  493MOL0     H66512   3.657   2.307   3.334 -0.2699  0.1074  0.0343
  493MOL0     H66513   3.548   2.317   3.099  0.6292  0.9711 -0.3992
  493MOL0     H66514   3.550   2.433   3.212  1.1405  0.2595  0.3329
  493MOL0     H66515   3.162   2.456   3.243 -1.2545 -2.8432 -1.2973
  493MOL0     H66516   2.996   2.573   3.078 -0.1776 -0.2173  2.4472
  493MOL0     H66517   2.981   2.886   2.750  0.3173 -2.4240  1.2216
  493MOL0     H66518   2.829   2.998   2.575  0.4873  0.3629  0.8354
  493MOL0     H66519   2.465   2.758   2.382  4.8079 -0.8300 -0.1664
  493MOL0     H66520   2.451   2.820   2.553  0.2498 -3.1874 -0.7358
  493MOL0     H66521   2.416   3.046   2.463  0.7626  0.0923  0.8531
  493MOL0     H66522   2.405   2.977   2.297  0.3960  3.5832  0.0251
  493MOL0     H66523   2.224   2.929   2.543  0.9058  3.0229  0.1614
  493MOL0     H66524   2.180   3.025   2.409 -0.8965 -0.0428  2.4200
  493MOL0     H66525   2.245   2.727   2.390 -1.6044 -2.6080 -0.9330
  493MOL0     H66526   2.194   2.840   2.257  2.3765  1.8814  1.3028
  493MOL0     H66527   2.001   2.698   2.327  2.2813 -0.8652 -0.1673
  493MOL0     H66528   1.968   2.864   2.365 -2.1290 -1.5710  0.0557
  493MOL0     H66529   2.088   2.662   2.576  0.6120 -0.9807 -2.7884
  493MOL0     H66530   2.020   2.823   2.617 -2.8008  0.1256  0.5057
  493MOL0     H66531   1.780   2.740   2.537 -1.4036 -2.4824 -1.0510
  493MOL0     H66532   1.866   2.650   2.671  1.1926  0.3900  1.1571
  493MOL0     H66533   1.827   2.571   2.387  1.5755 -1.3338 -0.4686
  493MOL0     H66534   1.948   2.496   2.485 -0.1590 -0.7309 -0.8260
  493MOL0     H66535   2.619   2.628   2.537  0.0250  0.8775 -0.6214
  493MOL0     H66536   2.767   2.528   2.683  1.3288 -0.0481  4.1145
  493MOL0     H66537   3.302   2.494   2.771 -0.7468  0.6954 -0.5181
  493MOL0     H66538   3.429   2.346   2.928 -0.0499  0.3564  0.1064
  493MOL0     H66539   2.527   2.607   4.322  1.1233 -0.1353 -0.6890
  493MOL0     H66540   2.314   2.705   4.424 -2.0470  2.8494  1.5033
  493MOL0     H66541   2.190   3.298   4.582 -1.4337  1.0136  1.1703
  493MOL0     H66542   1.993   3.400   4.633  1.5583 -0.8312  0.8713
  493MOL0     H66543   1.625   3.294   4.440  2.1218  2.2972 -0.9224
  493MOL0     H66544   1.570   3.394   4.579 -1.4198 -2.3320  5.6794
  493MOL0     H66545   1.527   3.259   4.728  0.3045  2.2864 -0.4023
  493MOL0     H66546   1.598   3.112   4.654 -1.7179 -0.9085  0.8935
  493MOL0     H66547   1.369   3.074   4.612  0.8501  0.8639  2.3783
  493MOL0     H66548   1.446   3.130   4.463  0.2250  2.4330 -0.3857
  493MOL0     H66549   1.326   3.351   4.536 -0.0065  0.0737  1.9013
  493MOL0     H66550   1.200   3.223   4.514 -1.7877  1.0943  1.2670
  493MOL0     H66551   1.112   3.361   4.890  0.4560 -1.5500  1.1789
  493MOL0     H66552   1.762   3.057   4.508  0.4883 -0.8555  2.4428
  493MOL0     H66553   2.010   2.931   4.318  1.4354  0.1040  0.9420
  493MOL0     H66554   2.034   2.846   4.461  1.6083  0.3021 -1.0975
  493MOL0     H66555   1.864   2.886   4.430  0.8160 -1.5150  1.6485
  494MOL0     O66556   4.164   2.125   8.198 -0.0569 -0.2173  0.4555
  494MOL0     C66557   4.261   2.184   8.244  0.7098  1.0863  0.5070
  494MOL0     O66558   4.300   2.182   8.374 -0.1707 -0.0253  0.0242
  494MOL0     C66559   4.228   2.110   8.464  0.4708  0.0252 -0.2116
  494MOL0     C66560   4.287   2.118   8.595  0.0324 -0.6182  0.2766
  494MOL0     C66561   4.214   2.069   8.707  0.1759  0.3479  0.7130
  494MOL0     C66562   4.098   1.990   8.686 -0.0455  1.0394 -0.2847
  494MOL0     O66563   4.049   1.934   8.798 -0.3511  0.8221  0.1162
  494MOL0     C66564   3.920   1.876   8.788 -0.1560  0.5945  0.3083
  494MOL0     C66565   3.887   1.824   8.931  0.7194  0.0518  0.3727
  494MOL0     C66566   3.743   1.808   8.961  0.9936  0.7285  0.1584
  494MOL0     C66567   3.678   1.730   8.846 -0.4190 -0.6233  0.9151
  494MOL0     C66568   3.543   1.677   8.874 -0.0134  0.4972  0.0508
  494MOL0     C66569   3.442   1.775   8.935 -0.0770  0.3669  0.2883
  494MOL0     C66570   3.305   1.712   8.920  0.1349 -0.0135  0.3457
  494MOL0     C66571   3.206   1.822   8.960  0.4665  0.5499 -0.1267
  494MOL0     N66572   3.192   1.925   8.860  0.2253 -0.5655  0.5321
  494MOL0     C66573   3.129   1.899   8.742 -0.0244  0.1331 -0.4031
  494MOL0     C66574   3.123   2.025   8.689  0.3694 -1.1635 -0.0561
  494MOL0     C66575   3.064   2.063   8.556  0.2085  0.2345  0.6359
  494MOL0     C66576   3.168   2.065   8.438  0.1150  0.5748  0.8568
  494MOL0     C66577   3.196   1.929   8.368  0.3806  1.1284  0.1625
  494MOL0     C66578   3.306   1.942   8.265  0.2308 -0.1078  0.0784
  494MOL0     O66579   3.280   2.037   8.162 -0.1736 -0.4634  0.1712
  494MOL0     C66580   3.360   2.046   8.055 -0.1596  0.1514 -0.5311
  494MOL0     C66581   3.484   1.977   8.023 -0.2680  0.0787 -0.3250
  494MOL0     C66582   3.568   2.016   7.920  0.2082 -0.3077 -0.2437
  494MOL0     C66583   3.523   2.118   7.827 -0.1882  0.7084  0.6554
  494MOL0     C66584   3.618   2.166   7.721  1.6791  0.1172  0.0471
  494MOL0     O66585   3.708   2.075   7.691 -0.0364 -0.2134 -0.2048
  494MOL0     C66586   3.833   2.114   7.653 -0.3688 -0.6295  0.2466
  494MOL0     C66587   3.932   2.054   7.730  0.1803  0.1978  0.2576
  494MOL0     C66588   4.064   2.092   7.705 -1.2174 -0.0245  0.0765
  494MOL0     C66589   4.103   2.162   7.598 -0.3134 -0.6537  0.1809
  494MOL0     O66590   4.243   2.170   7.599  0.1490  0.4148  0.4767
  494MOL0     C66591   4.304   2.226   7.483  0.5654  0.0598 -1.3904
  494MOL0     C66592   4.454   2.263   7.509  0.4387 -0.9158  0.5142
  494MOL0     C66593   4.530   2.148   7.581  0.2209 -0.0162 -0.2179
  494MOL0     C66594   4.677   2.166   7.573 -1.1935  0.4367 -0.5171
  494MOL0     C66595   4.750   2.082   7.683 -0.7305 -1.1436  0.0969
  494MOL0     C66596   4.739   1.934   7.671 -0.2640 -0.2785  0.1090
  494MOL0     C66597   4.835   1.864   7.774  0.0910  0.8279  0.2794
  494MOL0     C66598   4.817   1.713   7.748  0.4738 -0.7544  0.4226
  494MOL0    Cl66599   4.920   1.682   7.609  0.7305  0.4506  0.4557
  494MOL0     C66600   4.012   2.220   7.507  0.4765 -0.7163 -0.7354
  494MOL0     C66601   3.874   2.195   7.538 -0.1434  0.1837  0.0354
  494MOL0     O66602   3.594   2.278   7.672 -0.3447  0.8079  0.2673
  494MOL0     C66603   3.401   2.174   7.853  0.4701  0.5382 -1.0822
  494MOL0     C66604   3.322   2.141   7.965 -1.1833 -1.0305 -0.2254
  494MOL0     N66605   3.186   2.115   8.765  0.1621 -0.6256 -1.0407
  494MOL0     N66606   3.243   2.052   8.868 -0.7039 -0.0627 -0.0783
  494MOL0     C66607   4.040   1.973   8.562 -0.2371 -0.0823  0.3084
  494MOL0     C66608   4.110   2.032   8.448 -0.5446  0.3164 -0.4690
  494MOL0     C66609   4.338   2.294   8.166  0.8177 -0.6320 -0.3856
  494MOL0     C66610   4.354   2.418   8.222 -0.3667  0.2622 -0.4922
  494MOL0     C66611   4.418   2.521   8.149 -0.5862  0.3182  0.3788
  494MOL0     C66612   4.483   2.500   8.017  0.3485 -0.5807 -0.0365
  494MOL0     O66613   4.549   2.596   7.942  0.4008 -0.8588  0.2793
  494MOL0     C66614   4.610   2.706   8.014  0.0980 -0.0662  0.6124
  494MOL0     C66615   4.708   2.784   7.917  0.1906  0.8520  0.0209
  494MOL0     C66616   4.738   2.925   7.954  0.3240 -0.5796  0.1079
  494MOL0     C66617   4.836   2.980   7.844  0.4181  0.5428  0.1631
  494MOL0     C66618   4.969   2.944   7.893 -0.2656 -0.6300 -0.2303
  494MOL0     C66619   5.074   2.909   7.940 -0.9113 -0.5268  0.0843
  494MOL0     C66620   4.444   2.378   7.962  0.0849 -1.0091 -0.4368
  494MOL0     C66621   4.378   2.270   8.037 -0.5133 -0.9215  0.0384
  494MOL0     C66622   4.379   2.125   7.988 -0.1607 -0.1565 -0.7237
  494MOL0     H66623   4.377   2.178   8.607  0.8586 -1.4058 -1.6518
  494MOL0     H66624   4.250   2.075   8.809  1.0875  1.4837  0.3510
  494MOL0     H66625   3.853   1.959   8.765  1.4010  1.6970 -0.4219
  494MOL0     H66626   3.907   1.800   8.711 -0.0662 -0.2938  1.1471
  494MOL0     H66627   3.935   1.883   9.010  2.5764 -0.3692 -0.3996
  494MOL0     H66628   3.937   1.727   8.931 -0.0164 -0.3357  0.1436
  494MOL0     H66629   3.687   1.898   8.988 -0.3502  0.8718 -2.7158
  494MOL0     H66630   3.731   1.741   9.046  0.0387 -3.6746 -3.1119
  494MOL0     H66631   3.684   1.794   8.757 -1.2835 -1.5095  0.1892
  494MOL0     H66632   3.745   1.646   8.827  1.7282  1.2657 -0.3373
  494MOL0     H66633   3.507   1.617   8.790  0.2184 -1.4074  1.2493
  494MOL0     H66634   3.553   1.604   8.955 -0.6708 -0.6171 -0.8320
  494MOL0     H66635   3.470   1.801   9.037  0.1807  0.1161  0.2823
  494MOL0     H66636   3.438   1.870   8.881 -1.5537 -0.6991 -1.6275
  494MOL0     H66637   3.287   1.617   8.972 -2.8430 -0.5495 -1.3975
  494MOL0     H66638   3.281   1.686   8.816 -3.0344  2.4984  0.3082
  494MOL0     H66639   3.104   1.784   8.962 -0.3223  2.5359 -0.4854
  494MOL0     H66640   3.237   1.872   9.052  1.4934  0.2354 -0.2861
  494MOL0     H66641   3.091   1.809   8.696 -1.8928  1.2100 -1.0444
  494MOL0     H66642   2.974   2.007   8.532 -1.0404 -0.2014  5.2834
  494MOL0     H66643   3.030   2.167   8.570 -0.4437 -0.0790  1.5151
  494MOL0     H66644   3.115   2.127   8.366 -3.3442 -0.9754  1.8532
  494MOL0     H66645   3.254   2.122   8.474  1.7885  0.8990 -3.2171
  494MOL0     H66646   3.102   1.900   8.321  1.3263  0.9908 -1.7774
  494MOL0     H66647   3.214   1.843   8.434 -1.1765 -1.2919 -2.3652
  494MOL0     H66648   3.325   1.848   8.212  0.6618  1.0649 -1.9276
  494MOL0     H66649   3.397   1.966   8.322  0.3999 -1.2982  0.3488
  494MOL0     H66650   3.534   1.903   8.084  2.6039  0.6590 -1.8144
  494MOL0     H66651   3.669   1.977   7.915  1.0846  1.9764 -3.3327
  494MOL0     H66652   3.903   1.991   7.814 -4.2150 -0.1909 -1.3316
  494MOL0     H66653   4.141   2.067   7.778 -0.0961  0.4370 -0.9072
  494MOL0     H66654   4.298   2.167   7.391 -0.0793 -1.6885 -0.2783
  494MOL0     H66655   4.258   2.321   7.452 -0.7072 -0.7070 -1.9220
  494MOL0     H66656   4.503   2.290   7.415 -2.5812 -0.2296 -0.9790
  494MOL0     H66657   4.460   2.352   7.571  0.0279  0.6581 -1.5846
  494MOL0     H66658   4.493   2.141   7.683 -0.0481  0.9866 -0.2340
  494MOL0     H66659   4.505   2.053   7.533  0.3688 -0.2873  0.2362
  494MOL0     H66660   4.689   2.268   7.609  0.2786  0.9095 -2.2557
  494MOL0     H66661   4.714   2.159   7.471  0.5857 -0.7734  0.1628
  494MOL0     H66662   4.719   2.114   7.783  3.7786 -0.5496  1.4962
  494MOL0     H66663   4.854   2.115   7.677 -1.3723  1.0466  0.2072
  494MOL0     H66664   4.638   1.905   7.703 -1.3954  3.9749  1.0668
  494MOL0     H66665   4.753   1.912   7.565  2.5007  1.0170  0.1138
  494MOL0     H66666   4.787   1.872   7.872 -1.5471 -3.9228  0.1136
  494MOL0     H66667   4.943   1.883   7.775 -0.2284  2.8567  1.4722
  494MOL0     H66668   4.837   1.650   7.835  0.1551 -1.0808  0.2614
  494MOL0     H66669   4.711   1.694   7.731  0.1923  0.7879  0.3255
  494MOL0     H66670   4.035   2.271   7.414 -1.1862  2.3401  0.3895
  494MOL0     H66671   3.796   2.244   7.481 -1.7534 -0.0221  1.9430
  494MOL0     H66672   3.361   2.244   7.781  0.9726  0.6661 -1.2393
  494MOL0     H66673   3.231   2.201   7.959 -0.2948  0.4070  0.2547
  494MOL0     H66674   3.942   1.928   8.550 -0.8573 -0.1750  4.3643
  494MOL0     H66675   4.061   2.003   8.355  1.5249 -0.6822 -1.3101
  494MOL0     H66676   4.324   2.439   8.324  1.1350 -3.1240  0.7806
  494MOL0     H66677   4.427   2.618   8.197  0.9935 -0.3356  1.5150
  494MOL0     H66678   4.664   2.664   8.100 -0.9585  0.6447  1.6591
  494MOL0     H66679   4.529   2.776   8.037 -0.9178 -0.2193 -2.1361
  494MOL0     H66680   4.657   2.797   7.821 -1.3992  0.4573  0.7786
  494MOL0     H66681   4.800   2.725   7.919  0.7396  1.7008  0.8570
  494MOL0     H66682   4.776   2.923   8.057  2.1728 -1.9914 -0.5538
  494MOL0     H66683   4.646   2.985   7.960  1.0152  0.6873 -1.2255
  494MOL0     H66684   4.821   2.954   7.739  4.0053  0.2774 -0.3883
  494MOL0     H66685   4.817   3.088   7.852 -1.8706  0.2350 -0.4073
  494MOL0     H66686   5.168   2.876   7.981 -1.8158 -0.8241  2.0562
  494MOL0     H66687   4.473   2.354   7.860 -4.1344 -1.2025 -1.7750
  494MOL0     H66688   4.471   2.072   8.016  0.3544 -0.1939 -2.3367
  494MOL0     H66689   4.297   2.061   8.020 -1.7186  0.9281 -2.3606
  494MOL0     H66690   4.376   2.128   7.878  0.9115 -0.5366 -0.7797
  495MOL0     O66691   0.805   3.874   1.250 -0.3299  0.9419  0.4619
  495MOL0     C66692   0.885   3.803   1.316 -0.9757  0.0098 -0.4876
  495MOL0     O66693   0.842   3.716   1.416  0.2353 -0.0211 -0.4433
  495MOL0     C66694   0.704   3.725   1.444 -0.3303 -0.2864 -0.1708
  495MOL0     C66695   0.656   3.842   1.517  0.6001  0.5049 -0.8302
  495MOL0     C66696   0.520   3.869   1.534  0.3792  0.4326  0.4312
  495MOL0     C66697   0.421   3.770   1.490  0.1522 -0.3086  0.0035
  495MOL0     O66698   0.290   3.774   1.516 -0.3971 -0.1312 -1.3100
  495MOL0     C66699   0.209   3.875   1.453 -0.0462  0.9808  0.6122
  495MOL0     C66700   0.089   3.815   1.382 -0.1838  0.9431 -0.2741
  495MOL0     C66701   0.001   3.936   1.328  0.3921  0.2827  0.0947
  495MOL0     C66702  -0.146   3.899   1.323  0.5976  0.0900 -0.1420
  495MOL0     C66703  -0.226   4.029   1.318 -0.2396 -0.2120 -0.5382
  495MOL0     C66704  -0.365   3.978   1.344  0.2952  0.0651 -0.1225
  495MOL0     C66705  -0.455   4.104   1.366  0.2305  0.1857  0.0619
  495MOL0     C66706  -0.599   4.056   1.375  0.3101 -0.5922  1.3154
  495MOL0     N66707  -0.695   4.157   1.319  0.4064 -0.1446  0.7619
  495MOL0     C66708  -0.764   4.144   1.197 -0.1179  0.4533  0.0003
  495MOL0     C66709  -0.849   4.246   1.186  0.0855 -1.0442  0.0068
  495MOL0     C66710  -0.946   4.252   1.076  0.2349 -0.8957  1.1937
  495MOL0     C66711  -0.929   4.377   1.003  0.1745  0.1308 -0.2798
  495MOL0     C66712  -1.030   4.379   0.880 -0.2476  0.0132 -0.0097
  495MOL0     C66713  -1.172   4.389   0.926 -0.1956  1.0766 -0.7320
  495MOL0     O66714  -1.187   4.491   1.017  0.4991  1.1143  0.8435
  495MOL0     C66715  -1.263   4.471   1.125 -0.5258 -0.5078 -0.1238
  495MOL0     C66716  -1.400   4.450   1.123 -0.1521 -0.4289 -0.4461
  495MOL0     C66717  -1.466   4.417   1.240  0.5405  0.7896  0.2894
  495MOL0     C66718  -1.396   4.426   1.367 -0.7630 -0.7731  0.0504
  495MOL0     C66719  -1.466   4.422   1.499  0.0386  0.8786 -0.5960
  495MOL0     O66720  -1.400   4.450   1.613 -0.0667  0.2388 -0.0358
  495MOL0     C66721  -1.469   4.466   1.728  0.3788  0.0531 -0.5225
  495MOL0     C66722  -1.573   4.563   1.733  0.3638 -1.2346 -0.0378
  495MOL0     C66723  -1.647   4.581   1.846 -0.4590 -0.3757  0.1018
  495MOL0     C66724  -1.633   4.492   1.959  0.4907  0.3949 -0.3084
  495MOL0     O66725  -1.710   4.498   2.073  0.2046  0.0380  0.5396
  495MOL0     C66726  -1.840   4.560   2.056  0.3171 -0.5596  0.4930
  495MOL0     C66727  -1.919   4.516   2.183  0.0885 -0.4177  0.3119
  495MOL0     C66728  -1.925   4.368   2.210 -0.0839  1.0243  0.0157
  495MOL0     C66729  -2.046   4.329   2.294  0.2711 -0.1543  1.3907
  495MOL0     C66730  -2.078   4.182   2.289 -0.7230  0.0749  0.0058
  495MOL0     C66731  -1.971   4.088   2.350 -0.2410 -0.8032 -1.1067
  495MOL0     C66732  -1.919   4.121   2.489  0.2564 -0.4288  0.3941
  495MOL0     C66733  -2.030   4.101   2.596  0.8001 -0.6363  0.0921
  495MOL0    Cl66734  -1.949   4.099   2.758 -0.6864  0.2845  0.5903
  495MOL0     C66735  -1.530   4.403   1.954  0.7295  0.2293 -0.7232
  495MOL0     C66736  -1.446   4.390   1.841  0.4844 -0.6914  0.2939
  495MOL0     O66737  -1.575   4.376   1.490  0.3056  0.2661 -0.8754
  495MOL0     C66738  -1.254   4.437   1.366 -0.6464 -0.2814  0.0149
  495MOL0     C66739  -1.188   4.450   1.242 -0.0478  0.2732  0.4265
  495MOL0     N66740  -0.827   4.321   1.294 -0.0962 -0.2562  0.4497
  495MOL0     N66741  -0.736   4.273   1.372  0.0566 -0.5241 -0.5985
  495MOL0     C66742   0.474   3.665   1.406  0.7299 -0.8316  0.1911
  495MOL0     C66743   0.606   3.645   1.387  0.2737 -0.8768  0.0781
  495MOL0     C66744   1.031   3.825   1.293 -0.8389 -0.3643 -0.5135
  495MOL0     C66745   1.117   3.804   1.403  0.5163 -0.3026 -0.0275
  495MOL0     C66746   1.252   3.810   1.399  0.1547 -0.0074  0.2192
  495MOL0     C66747   1.317   3.838   1.283 -0.6229  0.2117 -0.5013
  495MOL0     O66748   1.455   3.858   1.280 -0.5328  0.1264 -0.3081
  495MOL0     C66749   1.528   3.736   1.286  0.3389  0.7100 -1.3135
  495MOL0     C66750   1.675   3.758   1.316  0.0453 -0.6643 -0.1610
  495MOL0     C66751   1.689   3.824   1.447  0.1506  0.2808  0.5893
  495MOL0     C66752   1.832   3.804   1.505  0.6080 -0.6404  0.2821
  495MOL0     C66753   1.944   3.894   1.457  0.4418  0.0356 -0.1359
  495MOL0     C66754   2.044   3.960   1.432 -0.1020  0.4975 -0.2614
  495MOL0     C66755   1.237   3.864   1.173  0.6374  0.6446  0.2759
  495MOL0     C66756   1.093   3.858   1.175  0.0607  0.5056 -0.1267
  495MOL0     C66757   1.024   3.846   1.045  0.6732  0.3202 -0.6712
  495MOL0     H66758   0.732   3.912   1.551 -1.2987  1.1452  2.5140
  495MOL0     H66759   0.497   3.961   1.587 -2.1450  1.0665 -1.5398
  495MOL0     H66760   0.160   3.935   1.530 -1.1883 -1.8005  2.2051
  495MOL0     H66761   0.264   3.929   1.376  0.2922 -3.2436 -2.4269
  495MOL0     H66762   0.032   3.764   1.461  0.2613  1.2582  0.2640
  495MOL0     H66763   0.127   3.745   1.308 -0.9234 -0.7045  0.8425
  495MOL0     H66764   0.044   3.971   1.234  2.9933  0.0406  1.1162
  495MOL0     H66765   0.009   4.012   1.407  0.4050 -1.4565  1.8324
  495MOL0     H66766  -0.168   3.827   1.243 -1.2222 -1.1237  1.3628
  495MOL0     H66767  -0.171   3.838   1.411 -1.0865 -0.5592 -1.0314
  495MOL0     H66768  -0.201   4.109   1.388 -2.1769 -1.2547  1.4973
  495MOL0     H66769  -0.213   4.072   1.219 -2.6415 -0.9005 -1.2335
  495MOL0     H66770  -0.396   3.917   1.259 -0.6884  2.3054 -1.4889
  495MOL0     H66771  -0.352   3.917   1.433  0.6929  0.2261 -0.0642
  495MOL0     H66772  -0.440   4.180   1.289  0.9193 -1.7581 -1.8293
  495MOL0     H66773  -0.426   4.138   1.466 -1.4710 -2.9654  1.7935
  495MOL0     H66774  -0.616   3.960   1.326  0.6838 -0.8307  1.6535
  495MOL0     H66775  -0.631   4.038   1.478 -1.4326 -0.6560  0.8033
  495MOL0     H66776  -0.764   4.059   1.130 -0.6044  1.8666 -1.8990
  495MOL0     H66777  -0.925   4.169   1.009  0.5945 -0.7774  1.1589
  495MOL0     H66778  -1.050   4.233   1.104 -0.1839 -0.3214  0.1121
  495MOL0     H66779  -0.944   4.465   1.066 -0.9926 -0.2514  0.0212
  495MOL0     H66780  -0.829   4.385   0.960 -0.5263  2.3475 -1.6464
  495MOL0     H66781  -1.014   4.294   0.813 -1.7567 -3.2694  3.3985
  495MOL0     H66782  -1.004   4.463   0.815  3.9856 -0.7563  0.3936
  495MOL0     H66783  -1.195   4.292   0.971 -0.0752  2.0221  1.5027
  495MOL0     H66784  -1.251   4.398   0.851 -1.7527  0.7093  0.7840
  495MOL0     H66785  -1.451   4.460   1.028  0.2625  1.6745 -0.5118
  495MOL0     H66786  -1.573   4.403   1.230  0.6621  0.6934 -1.0795
  495MOL0     H66787  -1.611   4.620   1.650 -1.7349 -3.6184 -0.8475
  495MOL0     H66788  -1.710   4.667   1.865  1.3688  1.1483 -0.4823
  495MOL0     H66789  -1.840   4.670   2.057 -1.0358 -0.3608 -3.7165
  495MOL0     H66790  -1.880   4.540   1.957  1.3739 -1.7459  0.2755
  495MOL0     H66791  -1.874   4.560   2.272  0.9816 -0.1560 -0.2548
  495MOL0     H66792  -2.023   4.548   2.176  0.6766  1.9414  1.3216
  495MOL0     H66793  -1.937   4.312   2.117  0.4984 -2.3045  1.7688
  495MOL0     H66794  -1.838   4.332   2.265 -0.6180 -4.8147 -2.1848
  495MOL0     H66795  -2.133   4.376   2.248 -0.0406 -0.8014  1.3008
  495MOL0     H66796  -2.032   4.364   2.397  1.4113 -1.7974  1.8477
  495MOL0     H66797  -2.094   4.146   2.187  1.8778 -1.9480  0.2003
  495MOL0     H66798  -2.174   4.162   2.336 -0.4422 -1.5031 -0.0361
  495MOL0     H66799  -2.020   3.990   2.343  0.7060 -1.2012 -2.6858
  495MOL0     H66800  -1.883   4.089   2.285  0.6091  3.3911 -0.2160
  495MOL0     H66801  -1.872   4.219   2.479  3.8583 -1.9255  0.9160
  495MOL0     H66802  -1.837   4.052   2.512  1.5406  1.4468  1.7816
  495MOL0     H66803  -2.097   4.187   2.607 -1.5075 -2.5318  2.1838
  495MOL0     H66804  -2.086   4.007   2.593  0.3734 -0.4306  1.0907
  495MOL0     H66805  -1.531   4.335   2.038  2.0485 -0.9616 -1.6120
  495MOL0     H66806  -1.371   4.312   1.845 -2.2154 -3.4024  2.2004
  495MOL0     H66807  -1.194   4.429   1.456 -1.9171  1.7271  1.1131
  495MOL0     H66808  -1.081   4.451   1.230 -0.0886  1.9830 -0.1004
  495MOL0     H66809   0.400   3.593   1.372  0.5922 -0.1475 -0.9776
  495MOL0     H66810   0.630   3.564   1.318 -1.6252 -0.1909 -1.4787
  495MOL0     H66811   1.076   3.772   1.498  1.2388 -0.2950  0.2965
  495MOL0     H66812   1.310   3.793   1.489 -0.7019 -2.5897  0.3665
  495MOL0     H66813   1.506   3.669   1.203 -2.1093 -0.3335  0.0604
  495MOL0     H66814   1.484   3.682   1.370 -2.2932  4.0582 -0.3171
  495MOL0     H66815   1.718   3.819   1.236 -1.7146  1.2660  0.2876
  495MOL0     H66816   1.723   3.659   1.321  0.2537 -0.7155 -2.3199
  495MOL0     H66817   1.612   3.779   1.510  1.7097 -1.6687  1.1648
  495MOL0     H66818   1.662   3.930   1.434 -1.9382 -0.3911 -1.3244
  495MOL0     H66819   1.833   3.822   1.612  0.9727  0.0795  0.1644
  495MOL0     H66820   1.873   3.704   1.490  0.8234 -0.9636  2.6557
  495MOL0     H66821   2.133   4.011   1.400  1.5244 -2.4228 -0.7540
  495MOL0     H66822   1.295   3.885   1.084  0.7712 -1.2164 -0.1130
  495MOL0     H66823   1.101   3.804   0.979  0.0659 -0.5095 -0.8759
  495MOL0     H66824   0.940   3.780   1.066 -0.5927  2.2261  0.5478
  495MOL0     H66825   0.983   3.936   0.999 -0.2831 -1.3048 -3.2031
  496MOL0     O66826   8.872   2.363   9.808  0.1703  0.3516  0.2695
  496MOL0     C66827   8.796   2.279   9.852 -0.5992  0.6745 -0.2077
  496MOL0     O66828   8.777   2.145   9.796 -0.1545 -1.1378 -0.7576
  496MOL0     C66829   8.851   2.122   9.677 -0.1392  0.0390 -0.6664
  496MOL0     C66830   8.768   2.113   9.564  0.2917 -1.0328  0.3581
  496MOL0     C66831   8.826   2.081   9.441 -0.1357 -1.0148 -0.1262
  496MOL0     C66832   8.967   2.077   9.421 -0.6956 -0.0321  0.2139
  496MOL0     O66833   8.999   2.047   9.294  0.3506 -0.6242 -0.1291
  496MOL0     C66834   9.124   2.098   9.247  0.3364 -0.2189 -0.7719
  496MOL0     C66835   9.226   1.986   9.247  0.0250  0.3954 -0.9722
  496MOL0     C66836   9.261   1.946   9.100  0.0786  0.4556 -0.0807
  496MOL0     C66837   9.378   2.028   9.054  0.6316  0.4316 -0.2976
  496MOL0     C66838   9.451   1.966   8.933 -0.3144 -0.2444  0.6326
  496MOL0     C66839   9.381   2.000   8.799  0.2251  0.4955  0.6862
  496MOL0     C66840   9.463   1.945   8.677  0.4608 -0.0961  0.2357
  496MOL0     C66841   9.439   1.788   8.669  0.2227  0.5393  0.5114
  496MOL0     N66842   9.490   1.733   8.544 -0.4625  0.4863  0.7835
  496MOL0     C66843   9.491   1.594   8.506  0.5403  0.2775  1.2199
  496MOL0     C66844   9.551   1.588   8.385 -0.4169 -0.5644  1.1231
  496MOL0     C66845   9.576   1.458   8.307  0.3101  0.9948 -0.2766
  496MOL0     C66846   9.620   1.483   8.162 -0.1559 -0.5273 -2.1002
  496MOL0     C66847   9.759   1.537   8.146 -0.3045 -0.2445  0.1834
  496MOL0     C66848   9.767   1.624   8.017 -0.3223  0.7610 -1.0133
  496MOL0     O66849   9.760   1.553   7.893  0.6872  0.6516  0.2835
  496MOL0     C66850   9.741   1.634   7.779 -0.5472 -0.3200  0.1427
  496MOL0     C66851   9.792   1.764   7.761 -0.1780 -0.4267  0.1047
  496MOL0     C66852   9.759   1.838   7.643  0.7491  0.5123 -0.2779
  496MOL0     C66853   9.672   1.780   7.544 -0.3284 -0.6075  0.3340
  496MOL0     C66854   9.651   1.855   7.424  0.1788 -0.6714  0.2313
  496MOL0     O66855   9.588   1.792   7.322  0.1163 -0.0067 -0.0990
  496MOL0     C66856   9.525   1.886   7.237 -0.9289  1.0154  0.8196
  496MOL0     C66857   9.582   1.936   7.123 -0.2546 -0.3007  0.0963
  496MOL0     C66858   9.504   2.011   7.035 -0.7780 -1.1943 -0.1045
  496MOL0     C66859   9.372   2.041   7.064  0.7483 -0.0658  0.4118
  496MOL0     O66860   9.289   2.130   7.000 -0.3069 -0.3404 -0.8405
  496MOL0     C66861   9.347   2.198   6.888 -0.5294  0.1242  0.8428
  496MOL0     C66862   9.239   2.300   6.839  0.8356  0.5402 -0.2736
  496MOL0     C66863   9.285   2.418   6.741 -0.0648 -0.0059  0.3518
  496MOL0     C66864   9.201   2.547   6.743 -0.0935 -0.0202 -0.3021
  496MOL0     C66865   9.207   2.616   6.877  1.3087 -0.3989 -0.3413
  496MOL0     C66866   9.337   2.655   6.931  0.6997 -0.1958  0.8230
  496MOL0     C66867   9.415   2.736   6.819  0.5284 -0.5240  0.2077
  496MOL0     C66868   9.543   2.800   6.872  0.0802 -0.3872 -0.2040
  496MOL0    Cl66869   9.496   2.958   6.928  0.7716 -0.3351 -0.5961
  496MOL0     C66870   9.313   1.992   7.181  0.9813 -0.6813  0.2347
  496MOL0     C66871   9.390   1.916   7.273  0.0459  0.0122 -0.3961
  496MOL0     O66872   9.688   1.975   7.427  0.4513 -0.0721 -0.3322
  496MOL0     C66873   9.634   1.645   7.559 -0.2241  0.1197  0.1952
  496MOL0     C66874   9.671   1.574   7.673 -0.0877 -0.4150  0.3048
  496MOL0     N66875   9.584   1.713   8.351  1.1888  0.1081  1.0581
  496MOL0     N66876   9.539   1.800   8.440  0.4631  0.0436 -0.9612
  496MOL0     C66877   9.042   2.079   9.539 -0.3512 -0.4870  1.0292
  496MOL0     C66878   8.990   2.106   9.666  0.2209  0.0754 -0.3676
  496MOL0     C66879   8.721   2.314   9.969  0.7263 -0.2154 -0.2473
  496MOL0     C66880   8.637   2.211  10.014  0.6189 -0.5896 -0.7315
  496MOL0     C66881   8.559   2.233  10.135  0.0890 -0.3114  0.6380
  496MOL0     C66882   8.578   2.353  10.213 -0.4972  0.5418 -0.6958
  496MOL0     O66883   8.506   2.387  10.324  0.3575  0.7752 -0.8836
  496MOL0     C66884   8.396   2.306  10.366  0.5328  0.7841  0.1134
  496MOL0     C66885   8.335   2.373  10.488  0.1790 -0.5140  0.7806
  496MOL0     C66886   8.387   2.315  10.628  1.0438 -1.0417  0.4595
  496MOL0     C66887   8.362   2.409  10.738  0.2999 -0.1658 -0.8254
  496MOL0     C66888   8.435   2.351  10.846 -0.1648 -0.1012 -0.5229
  496MOL0     C66889   8.500   2.291  10.926 -0.2578 -0.0179  0.6360
  496MOL0     C66890   8.663   2.441  10.165  0.2774 -0.3093  1.1093
  496MOL0     C66891   8.733   2.433  10.047 -0.5905  0.2046  0.4310
  496MOL0     C66892   8.815   2.555  10.007 -0.1785  0.6527  0.7321
  496MOL0     H66893   8.663   2.133   9.584  0.2064 -2.4593  1.4659
  496MOL0     H66894   8.764   2.070   9.352  0.8742 -0.0033 -0.9866
  496MOL0     H66895   9.108   2.133   9.144 -0.9690  0.6953 -0.2857
  496MOL0     H66896   9.141   2.195   9.293 -4.0044 -0.0219  0.8453
  496MOL0     H66897   9.191   1.906   9.314 -1.7552  1.0481 -1.0692
  496MOL0     H66898   9.315   2.032   9.290 -0.8354  3.5732 -2.2820
  496MOL0     H66899   9.174   1.952   9.034 -0.9608 -0.4073  1.1752
  496MOL0     H66900   9.286   1.840   9.108  0.5496  0.7206  3.6480
  496MOL0     H66901   9.347   2.130   9.030  0.7899  0.1505 -1.7849
  496MOL0     H66902   9.445   2.045   9.139  2.7837 -0.0881 -1.8120
  496MOL0     H66903   9.548   2.016   8.925 -1.2800  1.4512 -1.7290
  496MOL0     H66904   9.454   1.857   8.942  1.2224 -0.2714  0.0062
  496MOL0     H66905   9.284   1.949   8.806  1.0083 -0.9684  1.4200
  496MOL0     H66906   9.369   2.108   8.786  1.0900  0.2652 -2.9971
  496MOL0     H66907   9.569   1.972   8.682  0.3672  0.5803 -1.0147
  496MOL0     H66908   9.414   1.983   8.587 -1.2693  1.0931  1.5993
  496MOL0     H66909   9.500   1.739   8.746 -1.8520 -0.9935  1.2903
  496MOL0     H66910   9.337   1.748   8.675  0.1962  0.7666  1.7479
  496MOL0     H66911   9.453   1.511   8.564 -1.0028 -0.5730 -0.8753
  496MOL0     H66912   9.658   1.402   8.351 -0.6510 -1.6931 -1.6756
  496MOL0     H66913   9.487   1.394   8.316  1.6868 -0.8879  0.6206
  496MOL0     H66914   9.631   1.388   8.109  4.3011 -1.6358  0.2724
  496MOL0     H66915   9.534   1.541   8.128 -1.5700  0.4629  2.4540
  496MOL0     H66916   9.831   1.455   8.155 -0.1378 -0.3231 -1.6178
  496MOL0     H66917   9.782   1.613   8.221 -0.7801  0.6483 -0.5489
  496MOL0     H66918   9.853   1.691   8.026 -0.1542  0.6823 -1.9391
  496MOL0     H66919   9.683   1.692   8.036 -0.7164 -0.4794  2.3317
  496MOL0     H66920   9.855   1.813   7.834  0.3692 -1.6293  0.4712
  496MOL0     H66921   9.804   1.936   7.653 -2.9049  2.3065  0.2363
  496MOL0     H66922   9.689   1.933   7.107 -0.0497  1.8633  0.7762
  496MOL0     H66923   9.554   2.047   6.945  0.5810 -1.0928  0.6606
  496MOL0     H66924   9.441   2.242   6.924 -0.1256  1.9377 -2.1373
  496MOL0     H66925   9.353   2.127   6.806 -3.4216  0.4397  0.2342
  496MOL0     H66926   9.166   2.237   6.787  1.1351 -0.2354  0.2126
  496MOL0     H66927   9.187   2.331   6.931 -1.6782  0.9421 -1.7406
  496MOL0     H66928   9.391   2.443   6.755  0.2963 -1.7581  0.9182
  496MOL0     H66929   9.272   2.375   6.641 -2.1408  2.4777 -0.5567
  496MOL0     H66930   9.099   2.517   6.716 -0.4915  0.4538  0.6539
  496MOL0     H66931   9.234   2.614   6.664  0.0540  2.6265  1.8538
  496MOL0     H66932   9.171   2.536   6.940 -2.6293 -0.0773 -1.9275
  496MOL0     H66933   9.142   2.704   6.873  0.1628 -1.2460 -0.9196
  496MOL0     H66934   9.329   2.714   7.023 -4.3445  0.8825 -0.0485
  496MOL0     H66935   9.398   2.565   6.946  2.4453  1.0258  1.4019
  496MOL0     H66936   9.347   2.817   6.790  1.0491  0.0018  0.4444
  496MOL0     H66937   9.434   2.667   6.737 -2.6744 -3.6392  1.8626
  496MOL0     H66938   9.589   2.747   6.956 -0.7076 -0.9171 -0.0862
  496MOL0     H66939   9.619   2.811   6.794  1.0481 -0.7472  0.6788
  496MOL0     H66940   9.211   2.022   7.203  1.1984  1.1496 -1.0579
  496MOL0     H66941   9.355   1.875   7.367  1.1342 -0.2693 -0.1028
  496MOL0     H66942   9.580   1.587   7.485  0.1892 -0.7114  0.5323
  496MOL0     H66943   9.638   1.471   7.677 -1.4481 -0.0083  0.0752
  496MOL0     H66944   9.151   2.074   9.539 -0.3594 -0.8891  0.2488
  496MOL0     H66945   9.049   2.082   9.754 -0.0149 -0.1999 -0.2815
  496MOL0     H66946   8.627   2.111   9.974  0.3037 -0.0646 -2.0218
  496MOL0     H66947   8.493   2.160  10.180  0.6343 -2.1237 -1.3507
  496MOL0     H66948   8.425   2.204  10.393 -1.5849 -0.0277 -0.5231
  496MOL0     H66949   8.326   2.297  10.283  0.3792  3.0118 -0.0555
  496MOL0     H66950   8.228   2.355  10.490  0.2198 -0.8848 -0.1097
  496MOL0     H66951   8.351   2.481  10.479  0.9291 -0.6487  0.4352
  496MOL0     H66952   8.486   2.270  10.619  0.4051 -2.3754 -0.3211
  496MOL0     H66953   8.325   2.226  10.644  0.1590 -0.9254 -1.9201
  496MOL0     H66954   8.409   2.502  10.706  3.1114 -0.8818  0.8637
  496MOL0     H66955   8.254   2.411  10.755  0.4588  2.8107  0.3565
  496MOL0     H66956   8.575   2.246  10.988  0.8761  1.2728  0.2560
  496MOL0     H66957   8.676   2.535  10.219 -1.3468  1.0370 -0.7110
  496MOL0     H66958   8.914   2.534  10.049  0.0522 -2.0481 -0.8588
  496MOL0     H66959   8.826   2.566   9.898 -1.1481  2.2569  0.7670
  496MOL0     H66960   8.786   2.654  10.042 -0.0459  0.4745  1.3619
  497MOL0     O66961   6.394   6.040   9.876  0.3725 -0.2701  0.5199
  497MOL0     C66962   6.453   6.138   9.936  0.8847  0.0509  0.2869
  497MOL0     O66963   6.580   6.178   9.913  0.7655 -0.2856 -0.4074
  497MOL0     C66964   6.642   6.090   9.829  0.6425 -0.4147  0.1022
  497MOL0     C66965   6.702   5.970   9.880 -0.1660 -0.0185  0.2063
  497MOL0     C66966   6.788   5.896   9.796 -0.2076 -0.1924  0.3438
  497MOL0     C66967   6.800   5.941   9.659 -0.5165 -0.3289 -0.3699
  497MOL0     O66968   6.878   5.849   9.585  0.3872  0.4707  0.2104
  497MOL0     C66969   6.924   5.908   9.461  0.5068  0.1757 -0.1234
  497MOL0     C66970   6.846   5.832   9.344 -0.8342  0.0224 -0.0536
  497MOL0     C66971   6.901   5.686   9.322 -0.0070  0.3477 -0.5634
  497MOL0     C66972   6.876   5.612   9.195 -0.5989  0.4410  0.3905
  497MOL0     C66973   6.935   5.471   9.208 -0.6969  0.1487 -1.3609
  497MOL0     C66974   6.848   5.374   9.290 -0.0464  0.0603  0.2521
  497MOL0     C66975   6.908   5.237   9.312  0.0491 -0.1748  0.1965
  497MOL0     C66976   6.800   5.136   9.361 -0.2818 -0.4299 -1.1913
  497MOL0     N66977   6.748   5.164   9.501  0.6487  0.1399 -0.3590
  497MOL0     C66978   6.814   5.166   9.617  0.8108  0.6267  0.2127
  497MOL0     C66979   6.739   5.231   9.704 -0.1520 -0.9996  0.1888
  497MOL0     C66980   6.786   5.279   9.848 -0.2398  0.3570  0.8350
  497MOL0     C66981   6.683   5.244   9.966 -0.0456 -0.5624  0.0441
  497MOL0     C66982   6.570   5.336   9.989  0.3700 -0.7424 -0.2417
  497MOL0     C66983   6.475   5.285  10.094 -1.0953  1.2172  1.0908
  497MOL0     O66984   6.373   5.371  10.124 -0.4320 -0.6321  0.1875
  497MOL0     C66985   6.398   5.479  10.216 -0.9455  0.4134  0.7986
  497MOL0     C66986   6.290   5.556  10.260  0.2255  0.4586  0.2334
  497MOL0     C66987   6.311   5.636  10.377  0.2338  0.1890  0.3196
  497MOL0     C66988   6.436   5.663  10.439  0.5752 -0.5257 -0.0090
  497MOL0     C66989   6.454   5.748  10.551 -0.6427  0.8970 -0.1392
  497MOL0     O66990   6.585   5.775  10.597  0.0585  0.1039 -0.7539
  497MOL0     C66991   6.597   5.869  10.695 -0.1039  0.9269  0.0106
  497MOL0     C66992   6.641   5.833  10.821  0.8342  0.8329  1.0717
  497MOL0     C66993   6.668   5.930  10.918 -0.5621  0.3388  0.4877
  497MOL0     C66994   6.653   6.067  10.880 -0.9180 -0.2354 -0.5001
  497MOL0     O66995   6.709   6.163  10.965  0.9028 -0.6499  0.0335
  497MOL0     C66996   6.788   6.275  10.921 -0.3417 -0.2125 -0.0367
  497MOL0     C66997   6.904   6.235  10.841 -0.2458  0.0936  0.3870
  497MOL0     C66998   7.000   6.154  10.921  0.1747  1.0319 -0.3899
  497MOL0     C66999   7.113   6.109  10.819 -0.2235  0.7216  0.5873
  497MOL0     C67000   7.234   6.048  10.885 -0.4057  0.4309 -0.7102
  497MOL0     C67001   7.312   6.135  10.988 -0.4446 -1.0194 -0.0519
  497MOL0     C67002   7.459   6.089  11.007 -0.3996 -0.2943 -0.0301
  497MOL0     C67003   7.547   6.174  11.105  0.1968  0.0243  0.9565
  497MOL0    Cl67004   7.472   6.200  11.265  0.1458  0.3976 -0.0975
  497MOL0     C67005   6.608   6.107  10.756  0.4134 -0.9125  0.1855
  497MOL0     C67006   6.579   6.007  10.668  0.3123 -0.3224  0.4668
  497MOL0     O67007   6.356   5.806  10.591  0.7667 -0.0894  0.5985
  497MOL0     C67008   6.546   5.600  10.377 -0.2175 -0.1705  0.6614
  497MOL0     C67009   6.526   5.505  10.272  0.8022  0.4956  0.2645
  497MOL0     N67010   6.615   5.248   9.648 -0.3794 -0.0645 -0.0464
  497MOL0     N67011   6.626   5.215   9.523 -1.0572  0.5867  1.0919
  497MOL0     C67012   6.727   6.058   9.610 -0.4264 -0.8608 -0.4261
  497MOL0     C67013   6.657   6.132   9.698  0.4269 -0.2701 -0.1536
  497MOL0     C67014   6.376   6.219  10.043  0.7666 -0.3062 -0.8415
  497MOL0     C67015   6.451   6.306  10.118 -0.1316 -0.1949 -0.8836
  497MOL0     C67016   6.417   6.354  10.249  0.2489  1.1197  0.9418
  497MOL0     C67017   6.292   6.322  10.291 -0.4916 -1.1720  0.1497
  497MOL0     O67018   6.253   6.358  10.417 -0.5254  0.4328 -0.7742
  497MOL0     C67019   6.312   6.273  10.518 -0.7508 -0.7889 -0.2576
  497MOL0     C67020   6.304   6.342  10.657 -0.9931 -0.4905  0.0486
  497MOL0     C67021   6.400   6.461  10.663  0.5143 -0.4572  1.1393
  497MOL0     C67022   6.384   6.548  10.785 -0.5409 -0.4611 -0.8131
  497MOL0     C67023   6.444   6.490  10.904  0.9509  0.6179 -0.1786
  497MOL0     C67024   6.498   6.459  11.013 -0.3070  0.7830 -0.0894
  497MOL0     C67025   6.211   6.233  10.220  0.3209  0.1653 -0.6762
  497MOL0     C67026   6.249   6.188  10.096  0.3570 -0.3924 -0.4669
  497MOL0     C67027   6.152   6.091  10.026  0.0781  1.0725  0.0320
  497MOL0     H67028   6.683   5.931   9.979 -1.6257  1.1929  0.4403
  497MOL0     H67029   6.851   5.808   9.805  1.3366  0.5293 -2.2610
  497MOL0     H67030   6.921   6.016   9.450 -0.5538 -0.1233 -4.4624
  497MOL0     H67031   7.026   5.869   9.463  0.2167 -0.5971  0.8358
  497MOL0     H67032   6.869   5.882   9.249 -1.8980 -0.0547 -0.3665
  497MOL0     H67033   6.737   5.834   9.352 -1.1519 -1.2989 -2.7494
  497MOL0     H67034   6.860   5.632   9.408  1.3971  1.6835  1.0243
  497MOL0     H67035   7.010   5.695   9.334 -0.1790  2.4475 -0.1646
  497MOL0     H67036   6.772   5.618   9.162 -0.1220  1.9043 -0.9851
  497MOL0     H67037   6.938   5.666   9.123  0.1955  0.3066  0.9610
  497MOL0     H67038   6.959   5.440   9.106 -0.0846  1.1526 -1.5367
  497MOL0     H67039   7.032   5.481   9.257 -0.6975 -1.9989 -0.8203
  497MOL0     H67040   6.841   5.422   9.387  0.3433  0.2233  0.2032
  497MOL0     H67041   6.751   5.361   9.241  0.9551 -0.3473 -1.7600
  497MOL0     H67042   6.987   5.244   9.387 -0.1655  3.6241  0.2640
  497MOL0     H67043   6.941   5.200   9.214 -0.2757 -1.4274  0.5441
  497MOL0     H67044   6.723   5.130   9.285 -3.4816  2.7889  1.4430
  497MOL0     H67045   6.848   5.037   9.360 -1.3829 -0.9709 -1.2087
  497MOL0     H67046   6.917   5.136   9.634 -0.3743 -2.5469  2.7568
  497MOL0     H67047   6.886   5.236   9.858 -0.0794 -0.5872 -3.2072
  497MOL0     H67048   6.797   5.387   9.842 -0.0178  0.4646  2.5602
  497MOL0     H67049   6.648   5.144   9.942  1.1138 -0.4315 -2.4861
  497MOL0     H67050   6.754   5.245  10.050 -0.5757  1.9017  0.5421
  497MOL0     H67051   6.517   5.350   9.894  1.3819  1.0107 -0.5845
  497MOL0     H67052   6.618   5.427  10.026 -3.7601  1.4276  0.5126
  497MOL0     H67053   6.524   5.247  10.184 -1.6404 -0.5297  0.6901
  497MOL0     H67054   6.429   5.190  10.064 -1.7739  0.6124  3.7341
  497MOL0     H67055   6.195   5.541  10.210 -2.0038  2.1694  3.5709
  497MOL0     H67056   6.223   5.688  10.414  0.1237  0.5201 -0.3997
  497MOL0     H67057   6.666   5.727  10.830 -2.5135 -0.2671 -0.7535
  497MOL0     H67058   6.705   5.903  11.016 -3.5886  0.1932  1.6889
  497MOL0     H67059   6.727   6.346  10.865 -0.6722 -2.0943 -2.2464
  497MOL0     H67060   6.818   6.314  11.019  3.9034  0.1946 -1.2821
  497MOL0     H67061   6.865   6.181  10.754 -2.0530  1.6902  0.1478
  497MOL0     H67062   6.951   6.327  10.805 -1.8787  1.3189  1.2679
  497MOL0     H67063   7.043   6.215  11.001 -2.1688 -0.2003  1.9204
  497MOL0     H67064   6.956   6.066  10.968 -0.0390  0.6163 -1.3471
  497MOL0     H67065   7.149   6.197  10.765  4.1611 -1.0663  0.1945
  497MOL0     H67066   7.068   6.047  10.740 -1.8069  3.9826 -1.3090
  497MOL0     H67067   7.306   6.031  10.804 -0.7827  1.5118 -1.3027
  497MOL0     H67068   7.201   5.954  10.931  1.0602 -0.5104 -1.4827
  497MOL0     H67069   7.314   6.239  10.955  0.6873 -1.7473 -2.5220
  497MOL0     H67070   7.268   6.130  11.088 -3.8039  2.9678 -1.1004
  497MOL0     H67071   7.513   6.086  10.911 -0.4382 -2.2017 -0.0275
  497MOL0     H67072   7.463   5.985  11.040 -1.4387 -0.4674 -0.4103
  497MOL0     H67073   7.648   6.132  11.108 -0.4630 -1.7585 -0.3003
  497MOL0     H67074   7.558   6.274  11.060  1.5379 -1.0078 -1.1971
  497MOL0     H67075   6.582   6.208  10.726 -2.4853 -1.8484 -0.7256
  497MOL0     H67076   6.566   6.031  10.563 -1.4329  3.0655  1.3097
  497MOL0     H67077   6.648   5.617  10.412  1.4932 -3.6846 -1.9573
  497MOL0     H67078   6.613   5.462  10.225 -0.6995 -1.5190 -0.8241
  497MOL0     H67079   6.725   6.090   9.506 -0.8651 -2.4187 -0.9285
  497MOL0     H67080   6.611   6.222   9.657  0.3420  0.6702  1.9185
  497MOL0     H67081   6.553   6.326  10.086  0.1345  0.5682  0.3625
  497MOL0     H67082   6.491   6.403  10.312 -2.2782  2.8930  2.7202
  497MOL0     H67083   6.413   6.240  10.491  0.2902  1.0684  1.1007
  497MOL0     H67084   6.249   6.184  10.522  1.1846 -2.1985  2.0423
  497MOL0     H67085   6.324   6.266  10.733 -1.8624  1.2638  2.1578
  497MOL0     H67086   6.201   6.375  10.675 -0.6600 -0.1052  1.3470
  497MOL0     H67087   6.390   6.510  10.566  0.3309  0.4196  1.5961
  497MOL0     H67088   6.497   6.411  10.656 -0.2475 -2.4731  3.5370
  497MOL0     H67089   6.434   6.645  10.777 -4.2925  1.8152  0.6326
  497MOL0     H67090   6.279   6.573  10.803 -0.2466  0.8277 -0.7524
  497MOL0     H67091   6.559   6.450  11.101 -1.3634 -2.1976  0.4437
  497MOL0     H67092   6.113   6.208  10.261 -0.0915 -1.6389 -2.5870
  497MOL0     H67093   6.058   6.090  10.082 -1.1763 -1.4518 -1.9215
  497MOL0     H67094   6.138   6.112   9.919  2.0579 -5.3763 -1.9467
  497MOL0     H67095   6.178   5.985  10.019 -1.2614  0.7077  0.3279
  498MOL0     O67096   4.859   3.790   2.365 -0.1406 -0.8632 -0.0099
  498MOL0     C67097   4.937   3.778   2.272  0.7016  0.4157  0.3714
  498MOL0     O67098   5.064   3.741   2.275 -0.1171  0.6291  0.4534
  498MOL0     C67099   5.128   3.703   2.386  0.3781  0.6101  0.6917
  498MOL0     C67100   5.072   3.666   2.511 -0.2949 -0.1976  0.3904
  498MOL0     C67101   5.155   3.606   2.611  0.0580 -0.0556  0.2856
  498MOL0     C67102   5.295   3.590   2.591  0.9085  0.8734 -0.5022
  498MOL0     O67103   5.363   3.543   2.699 -0.2066 -0.6306 -0.0569
  498MOL0     C67104   5.507   3.563   2.689 -0.1507 -0.5910 -0.4658
  498MOL0     C67105   5.560   3.504   2.821  0.2425  0.0841 -0.7597
  498MOL0     C67106   5.496   3.583   2.933  0.1838  0.3549 -0.5966
  498MOL0     C67107   5.536   3.523   3.075 -0.1901  0.3148 -0.6983
  498MOL0     C67108   5.466   3.611   3.186 -0.0385  0.9125  0.3143
  498MOL0     C67109   5.481   3.759   3.175  0.4556 -0.4856  0.2520
  498MOL0     C67110   5.439   3.841   3.296  0.7176  0.6913  0.4371
  498MOL0     C67111   5.421   3.981   3.252 -0.5562 -0.2646 -0.0165
  498MOL0     N67112   5.548   4.037   3.229  0.2969 -1.1857 -1.4703
  498MOL0     C67113   5.614   4.125   3.325 -0.4835  0.6165  0.5783
  498MOL0     C67114   5.727   4.160   3.253  0.2097  0.7047 -0.2452
  498MOL0     C67115   5.831   4.257   3.293 -0.2439 -0.2178  0.3226
  498MOL0     C67116   5.851   4.366   3.173  0.6884  0.0323  0.7869
  498MOL0     C67117   5.892   4.499   3.232 -0.3333 -0.7577 -0.1625
  498MOL0     C67118   6.035   4.485   3.277  0.4180  0.6487  0.3687
  498MOL0     O67119   6.079   4.614   3.337  0.1135  0.0303 -0.2769
  498MOL0     C67120   6.123   4.710   3.253  0.5974 -0.2121  0.1609
  498MOL0     C67121   6.103   4.839   3.299  0.3680 -0.0981  0.3603
  498MOL0     C67122   6.152   4.950   3.221  0.3359  0.3354 -0.1768
  498MOL0     C67123   6.223   4.932   3.104 -0.0871 -0.3148  0.5329
  498MOL0     C67124   6.270   5.041   3.016 -0.2906  0.3869 -0.9471
  498MOL0     O67125   6.210   5.165   3.040 -0.2404  0.3127 -0.4840
  498MOL0     C67126   6.257   5.279   2.970 -0.4574 -0.2099 -0.6579
  498MOL0     C67127   6.278   5.397   3.050  0.3033  0.2403  0.2991
  498MOL0     C67128   6.323   5.512   2.990 -0.0456 -0.2308  0.4247
  498MOL0     C67129   6.321   5.521   2.844 -0.3231 -0.2885 -0.5489
  498MOL0     O67130   6.342   5.640   2.776 -0.2924 -0.0073  0.2288
  498MOL0     C67131   6.231   5.682   2.699  1.2416  0.3505 -0.0451
  498MOL0     C67132   6.229   5.826   2.655 -0.0111 -0.0709 -0.9822
  498MOL0     C67133   6.317   5.856   2.537 -0.5005  0.5064  0.1648
  498MOL0     C67134   6.328   5.996   2.472 -1.1077 -0.0703  0.6513
  498MOL0     C67135   6.414   6.000   2.340 -0.7236  0.7150 -0.6397
  498MOL0     C67136   6.408   6.138   2.272 -0.2393  0.1338  0.5520
  498MOL0     C67137   6.472   6.144   2.133 -0.3333  0.2817 -0.2537
  498MOL0     C67138   6.393   6.221   2.030  0.0623  0.4067 -0.8704
  498MOL0    Cl67139   6.222   6.169   2.022  0.2048 -0.3028 -0.2033
  498MOL0     C67140   6.289   5.410   2.771 -0.5803  0.3894 -0.5432
  498MOL0     C67141   6.265   5.290   2.834  0.2331 -0.6149  0.3050
  498MOL0     O67142   6.359   5.017   2.937  0.0180 -0.2166  0.6179
  498MOL0     C67143   6.248   4.800   3.071  0.7526 -0.6412  0.6101
  498MOL0     C67144   6.190   4.687   3.135 -1.0968 -0.7481 -0.1623
  498MOL0     N67145   5.717   4.113   3.127 -0.0471 -0.3025 -0.5914
  498MOL0     N67146   5.610   4.041   3.111  0.4966 -0.0833  0.7553
  498MOL0     C67147   5.351   3.640   2.474 -0.0920  1.8076 -0.0315
  498MOL0     C67148   5.271   3.689   2.375  0.5877  0.6004  0.5280
  498MOL0     C67149   4.872   3.786   2.126  0.2496  1.3213 -0.8120
  498MOL0     C67150   4.899   3.677   2.044 -0.2113 -0.6428  0.3274
  498MOL0     C67151   4.847   3.676   1.914 -0.4103 -0.2138  0.8209
  498MOL0     C67152   4.765   3.782   1.868 -0.4897  0.1386  0.4560
  498MOL0     O67153   4.733   3.787   1.733  0.1739  0.1803 -0.8284
  498MOL0     C67154   4.726   3.917   1.667  0.3964  0.2628  0.0156
  498MOL0     C67155   4.732   3.903   1.515  0.2012 -0.4281  0.6928
  498MOL0     C67156   4.843   3.824   1.456  0.7001  0.3797  0.5064
  498MOL0     C67157   4.832   3.798   1.305  1.0347  0.4077 -0.6840
  498MOL0     C67158   4.722   3.709   1.258 -0.7281 -0.7053  0.2680
  498MOL0     C67159   4.636   3.632   1.225  0.3423  0.3545 -0.3289
  498MOL0     C67160   4.739   3.892   1.952  0.9203 -0.2745 -0.2185
  498MOL0     C67161   4.791   3.887   2.084 -0.5363  0.2930 -0.4147
  498MOL0     C67162   4.773   4.005   2.177 -0.1297 -1.1566  0.2256
  498MOL0     H67163   4.970   3.682   2.545  0.1834  4.4755  0.2042
  498MOL0     H67164   5.118   3.572   2.707 -1.0113 -3.8879 -1.3361
  498MOL0     H67165   5.554   3.509   2.607 -0.0937 -0.2023 -0.6931
  498MOL0     H67166   5.518   3.672   2.687 -1.0055 -0.5108 -1.2499
  498MOL0     H67167   5.669   3.510   2.827  0.1574  2.4291 -0.6382
  498MOL0     H67168   5.524   3.400   2.822 -0.0988  0.2031  0.1072
  498MOL0     H67169   5.387   3.587   2.922 -0.1845 -2.9487  0.9360
  498MOL0     H67170   5.542   3.683   2.928 -0.9166  0.9589  0.6566
  498MOL0     H67171   5.516   3.416   3.081  1.4451  0.0316  0.5229
  498MOL0     H67172   5.645   3.517   3.074 -0.2638 -3.6274 -1.7901
  498MOL0     H67173   5.360   3.588   3.182  0.2999 -0.5508 -1.0379
  498MOL0     H67174   5.511   3.576   3.279  1.0502 -0.8949 -0.8312
  498MOL0     H67175   5.587   3.783   3.165  0.6782 -1.1341  0.9104
  498MOL0     H67176   5.425   3.792   3.087  2.0119 -1.8031 -1.3430
  498MOL0     H67177   5.505   3.830   3.383  1.2518  1.2409  0.1040
  498MOL0     H67178   5.341   3.812   3.335  0.3472  0.2517 -0.7798
  498MOL0     H67179   5.358   3.995   3.163  2.0546  4.0415 -1.4925
  498MOL0     H67180   5.365   4.036   3.328  1.1259 -0.1464  1.1779
  498MOL0     H67181   5.590   4.130   3.430  2.5857 -0.4420  1.4445
  498MOL0     H67182   5.804   4.308   3.386 -4.4383 -0.8768 -0.3331
  498MOL0     H67183   5.929   4.208   3.304  1.2577  2.3716 -0.7133
  498MOL0     H67184   5.925   4.338   3.097 -0.3115 -0.3050 -0.0884
  498MOL0     H67185   5.760   4.374   3.113 -1.4214 -2.9617  3.2720
  498MOL0     H67186   5.834   4.537   3.316  0.2074 -0.1603 -0.0456
  498MOL0     H67187   5.889   4.578   3.156  1.0977  0.3595  0.8910
  498MOL0     H67188   6.106   4.452   3.200  0.4641  1.4188  0.0700
  498MOL0     H67189   6.033   4.405   3.351 -0.5842 -1.0069 -1.3789
  498MOL0     H67190   6.061   4.862   3.397  0.1647  0.7917  0.0758
  498MOL0     H67191   6.137   5.047   3.267 -0.4628 -0.3957  1.1763
  498MOL0     H67192   6.258   5.390   3.156  1.3069  0.4734  0.5126
  498MOL0     H67193   6.356   5.592   3.055 -1.7717 -0.9997  2.3787
  498MOL0     H67194   6.225   5.629   2.603  1.8138  0.7849 -0.3267
  498MOL0     H67195   6.135   5.670   2.749 -0.3518  1.0715 -2.7240
  498MOL0     H67196   6.129   5.867   2.643 -0.0395 -0.1189 -0.9098
  498MOL0     H67197   6.286   5.878   2.733  1.3434 -1.5634 -0.9140
  498MOL0     H67198   6.419   5.824   2.560 -1.2049 -2.7285 -0.6112
  498MOL0     H67199   6.291   5.775   2.468  0.2081 -1.4547  2.0644
  498MOL0     H67200   6.360   6.074   2.541 -3.4591  1.3928  0.1940
  498MOL0     H67201   6.225   6.030   2.454 -0.3360  1.8993 -0.2484
  498MOL0     H67202   6.360   5.933   2.272 -2.6190  1.9138 -0.3972
  498MOL0     H67203   6.518   5.972   2.360 -0.0774  0.5070 -3.6965
  498MOL0     H67204   6.307   6.179   2.274  0.3109  1.6045 -0.3906
  498MOL0     H67205   6.470   6.203   2.334  1.3378 -2.7875  2.2697
  498MOL0     H67206   6.502   6.045   2.096 -0.7759 -0.1177  0.4469
  498MOL0     H67207   6.567   6.196   2.145  0.6132 -1.3042 -0.5468
  498MOL0     H67208   6.388   6.328   2.052 -0.1021  0.8372 -2.8632
  498MOL0     H67209   6.444   6.204   1.935 -1.7791 -2.0120 -1.5277
  498MOL0     H67210   6.280   5.418   2.663 -1.1978  3.1958 -0.3571
  498MOL0     H67211   6.243   5.206   2.768 -2.5722  0.5620 -0.4285
  498MOL0     H67212   6.304   4.776   2.981 -1.2552  2.1097 -1.5521
  498MOL0     H67213   6.214   4.588   3.098 -0.5294  0.3670 -3.0284
  498MOL0     H67214   5.455   3.635   2.444 -0.3936 -1.7706 -0.9100
  498MOL0     H67215   5.318   3.711   2.280 -0.9460  1.9101  0.0273
  498MOL0     H67216   4.967   3.600   2.081  0.9914 -1.1930 -2.7418
  498MOL0     H67217   4.864   3.589   1.852 -2.3814 -0.5434  0.6891
  498MOL0     H67218   4.813   3.977   1.696  1.8126 -1.5076 -0.3491
  498MOL0     H67219   4.637   3.969   1.701 -0.3695 -1.6760  1.1499
  498MOL0     H67220   4.750   3.999   1.467  0.8827 -1.9428 -2.3572
  498MOL0     H67221   4.630   3.871   1.489 -1.4356 -0.6257  6.0851
  498MOL0     H67222   4.867   3.728   1.503  2.7705 -0.5854 -2.1948
  498MOL0     H67223   4.937   3.878   1.474 -0.1602  1.3054  2.4671
  498MOL0     H67224   4.836   3.897   1.258  0.8861  1.9298  2.2243
  498MOL0     H67225   4.923   3.746   1.274  0.8840  1.2608 -2.7186
  498MOL0     H67226   4.564   3.554   1.208  1.9465 -0.6587 -3.5078
  498MOL0     H67227   4.671   3.971   1.921  2.5923  2.2792  2.2071
  498MOL0     H67228   4.797   4.096   2.121 -2.4361 -1.0708 -0.7482
  498MOL0     H67229   4.666   4.004   2.201 -1.2191  0.4174 -3.7935
  498MOL0     H67230   4.827   4.010   2.272 -1.2993  0.1109  0.8713
  499MOL0     O67231   8.609   8.047   2.525  0.1638  0.3582 -0.3735
  499MOL0     C67232   8.687   7.988   2.450 -0.3245  0.5520  0.1795
  499MOL0     O67233   8.692   8.001   2.317  1.1126  1.1260  0.0666
  499MOL0     C67234   8.593   8.059   2.235  0.0366 -0.1715  0.2540
  499MOL0     C67235   8.632   8.087   2.101 -0.7815 -0.5765  0.3694
  499MOL0     C67236   8.545   8.140   2.014 -0.7639 -0.5347 -0.4912
  499MOL0     C67237   8.415   8.177   2.046  0.4394 -0.6681 -0.9131
  499MOL0     O67238   8.332   8.249   1.955 -0.3585 -0.6352  0.5505
  499MOL0     C67239   8.204   8.202   1.926 -0.8083  0.2501  0.0783
  499MOL0     C67240   8.126   8.292   1.833 -0.0691  0.5024 -0.3016
  499MOL0     C67241   8.228   8.340   1.728 -0.2183  0.4103  0.5716
  499MOL0     C67242   8.150   8.416   1.619 -0.0988  0.9337 -0.2258
  499MOL0     C67243   8.234   8.489   1.517  0.2696  1.3669  0.0710
  499MOL0     C67244   8.146   8.540   1.403 -0.2544 -0.8876  0.1286
  499MOL0     C67245   8.216   8.606   1.276  0.0902  0.0623  0.8611
  499MOL0     C67246   8.100   8.669   1.191 -0.6225 -0.2005  0.2906
  499MOL0     N67247   8.156   8.767   1.089  0.4043 -0.1398  0.2403
  499MOL0     C67248   8.276   8.756   1.033  0.0401  0.4795  0.2477
  499MOL0     C67249   8.292   8.860   0.951 -0.8145  0.2839 -0.5089
  499MOL0     C67250   8.421   8.903   0.882  0.1179 -0.0936  0.6855
  499MOL0     C67251   8.462   8.808   0.762  0.9990 -0.5625  0.2539
  499MOL0     C67252   8.498   8.667   0.811  0.6490  1.0063  0.3455
  499MOL0     C67253   8.582   8.594   0.699  0.0144 -0.2607  0.0206
  499MOL0     O67254   8.731   8.604   0.696  0.0709 -0.3462 -0.1275
  499MOL0     C67255   8.809   8.524   0.779 -0.1033  0.9891 -0.0883
  499MOL0     C67256   8.758   8.471   0.900 -0.2619 -1.4501  1.7415
  499MOL0     C67257   8.844   8.406   0.989  0.7737 -0.0783 -0.0072
  499MOL0     C67258   8.980   8.373   0.967  0.1571 -1.7721  0.4921
  499MOL0     C67259   9.060   8.304   1.068 -1.6412  0.6527  0.8299
  499MOL0     O67260   9.030   8.337   1.204 -0.1543  0.2046 -0.4381
  499MOL0     C67261   9.111   8.282   1.306 -0.3163  0.0097 -0.3102
  499MOL0     C67262   9.250   8.297   1.308 -0.5056 -0.0782  0.3815
  499MOL0     C67263   9.328   8.240   1.402 -0.8137 -0.3764 -0.5522
  499MOL0     C67264   9.263   8.148   1.491  0.0856 -0.3265  0.3331
  499MOL0     O67265   9.337   8.073   1.583  0.1636 -0.0153 -0.2561
  499MOL0     C67266   9.442   7.994   1.536 -0.1404 -0.2058 -0.3374
  499MOL0     C67267   9.566   8.005   1.634 -0.2644 -0.1334  0.4307
  499MOL0     C67268   9.688   7.934   1.600  0.0652 -0.5078  0.0596
  499MOL0     C67269   9.777   7.984   1.483  0.0154  0.1588 -1.1232
  499MOL0     C67270   9.843   8.120   1.526 -0.0132  0.3074 -0.7846
  499MOL0     C67271   9.764   8.251   1.493 -0.0457  0.4739 -0.8907
  499MOL0     C67272   9.743   8.272   1.337  0.3656  0.6103 -0.2017
  499MOL0     C67273   9.704   8.415   1.300 -0.8223  0.7609  0.4826
  499MOL0    Cl67274   9.645   8.430   1.129 -0.1569 -0.0310 -0.4544
  499MOL0     C67275   9.124   8.140   1.499  0.3688  0.3058  0.1550
  499MOL0     C67276   9.050   8.210   1.409  0.3025  0.3317  0.2957
  499MOL0     O67277   9.150   8.222   1.031  0.5191 -0.3245  0.0753
  499MOL0     C67278   9.027   8.409   0.840  0.4184 -0.1475  0.3491
  499MOL0     C67279   8.942   8.492   0.751 -1.1878 -0.2183  0.4269
  499MOL0     N67280   8.173   8.936   0.962 -0.7178  0.3530 -0.5643
  499MOL0     N67281   8.096   8.878   1.046 -0.4228  0.3594 -0.7430
  499MOL0     C67282   8.373   8.151   2.180 -0.5652  0.4476  0.3486
  499MOL0     C67283   8.462   8.091   2.270 -0.1218 -0.3421 -0.4401
  499MOL0     C67284   8.807   7.928   2.520  0.6676  0.5202  0.2129
  499MOL0     C67285   8.801   7.888   2.653  0.4627  0.4191 -0.1288
  499MOL0     C67286   8.887   7.807   2.710 -1.0822 -0.8000  0.1618
  499MOL0     C67287   9.011   7.783   2.647  0.0277  0.3478  0.1505
  499MOL0     O67288   9.089   7.701   2.715  0.4280 -0.3007 -0.3773
  499MOL0     C67289   9.211   7.646   2.653 -0.1579  0.1091  0.0624
  499MOL0     C67290   9.308   7.575   2.751 -0.6730  0.1556 -0.5437
  499MOL0     C67291   9.245   7.458   2.835 -0.9994 -0.3640  0.1135
  499MOL0     C67292   9.342   7.414   2.943  0.6526 -0.0495  0.7096
  499MOL0     C67293   9.259   7.313   3.020  0.3737 -0.2206  0.2613
  499MOL0     C67294   9.192   7.241   3.086 -0.1150  1.1826 -0.1443
  499MOL0     C67295   9.025   7.813   2.513 -0.0854 -0.2895 -1.0550
  499MOL0     C67296   8.921   7.878   2.446 -0.9717  0.1595 -0.5136
  499MOL0     C67297   8.946   7.910   2.308 -0.0906 -0.8610  1.0750
  499MOL0     H67298   8.733   8.067   2.066 -0.9405 -1.1542  0.2366
  499MOL0     H67299   8.566   8.167   1.911 -4.3724  0.3133 -1.1435
  499MOL0     H67300   8.227   8.120   1.857  0.0046  1.4556 -1.1127
  499MOL0     H67301   8.151   8.180   2.019  1.8679 -0.2248  1.5855
  499MOL0     H67302   8.084   8.370   1.896 -2.4021  0.0062 -1.1332
  499MOL0     H67303   8.046   8.236   1.784 -0.8725  0.6327  0.8216
  499MOL0     H67304   8.272   8.256   1.674 -1.0769  0.7456 -0.6942
  499MOL0     H67305   8.304   8.405   1.774 -1.7752  1.0893  2.2604
  499MOL0     H67306   8.082   8.341   1.578 -1.6391  1.0150  2.0263
  499MOL0     H67307   8.097   8.498   1.666  0.5039  1.7242 -0.8922
  499MOL0     H67308   8.291   8.565   1.571  2.0340 -0.7213  1.2965
  499MOL0     H67309   8.291   8.408   1.471 -1.6604  0.4745 -0.8890
  499MOL0     H67310   8.064   8.473   1.379 -0.8996  0.5941 -2.2384
  499MOL0     H67311   8.108   8.635   1.442  1.7794  0.2360 -0.4653
  499MOL0     H67312   8.254   8.524   1.216 -2.7874 -1.2115  0.6139
  499MOL0     H67313   8.295   8.678   1.299 -0.1355  0.3270  0.8196
  499MOL0     H67314   8.055   8.590   1.130 -2.2997  1.4205 -0.6713
  499MOL0     H67315   8.015   8.715   1.243 -1.8171  3.9359 -4.5059
  499MOL0     H67316   8.351   8.680   1.049  2.7785  1.6289 -4.8726
  499MOL0     H67317   8.391   9.004   0.851  0.1828 -0.3826 -0.3158
  499MOL0     H67318   8.496   8.925   0.959 -0.5785  0.6807  1.1626
  499MOL0     H67319   8.379   8.815   0.692  2.7060  0.5952 -1.7491
  499MOL0     H67320   8.547   8.850   0.708 -0.3388  1.3244 -0.4699
  499MOL0     H67321   8.404   8.614   0.821 -0.2742  2.9346  2.9293
  499MOL0     H67322   8.553   8.671   0.906 -2.4635  1.2287  2.2497
  499MOL0     H67323   8.556   8.632   0.600 -3.5686 -0.3485  0.8204
  499MOL0     H67324   8.558   8.488   0.709 -0.8983 -0.0112  0.4959
  499MOL0     H67325   8.654   8.467   0.932 -0.9340 -1.0405 -0.2542
  499MOL0     H67326   8.790   8.380   1.080 -0.9187 -0.0746 -0.9779
  499MOL0     H67327   9.289   8.365   1.233 -1.3998  0.0549  0.0384
  499MOL0     H67328   9.437   8.238   1.405 -0.8094 -2.5267 -0.7247
  499MOL0     H67329   9.406   7.891   1.544  0.2250 -0.4097 -1.1897
  499MOL0     H67330   9.465   8.007   1.429 -2.6642  2.9387 -0.6674
  499MOL0     H67331   9.590   8.111   1.650 -0.4914  0.1284 -0.8554
  499MOL0     H67332   9.543   7.979   1.737  2.7676 -0.2920  1.1591
  499MOL0     H67333   9.754   7.939   1.687  2.6967 -0.2955 -1.8560
  499MOL0     H67334   9.664   7.831   1.573  1.5385 -0.4722 -1.5667
  499MOL0     H67335   9.723   7.986   1.389  0.4484 -1.1237 -1.4210
  499MOL0     H67336   9.855   7.908   1.472  0.4543  0.4027  0.1399
  499MOL0     H67337   9.936   8.130   1.469 -0.0882  1.8639 -0.6969
  499MOL0     H67338   9.884   8.112   1.627 -1.4107 -0.0657 -0.2226
  499MOL0     H67339   9.675   8.249   1.557  2.1245 -2.8247  2.5026
  499MOL0     H67340   9.820   8.337   1.532  1.2031 -0.9620  0.6241
  499MOL0     H67341   9.662   8.207   1.302 -1.9750  1.3601  3.3159
  499MOL0     H67342   9.832   8.252   1.277 -0.3993 -3.0309 -0.3280
  499MOL0     H67343   9.624   8.445   1.368 -0.2842  0.1791  1.4061
  499MOL0     H67344   9.783   8.485   1.328 -0.5407  0.7012 -0.1492
  499MOL0     H67345   9.076   8.069   1.566  1.0678 -1.8734 -1.5439
  499MOL0     H67346   8.945   8.184   1.417  0.2803  0.9428  2.6275
  499MOL0     H67347   9.126   8.373   0.815  1.3638  2.8193 -0.5744
  499MOL0     H67348   8.983   8.531   0.658 -0.7414 -1.6927 -0.0210
  499MOL0     H67349   8.272   8.183   2.203  0.0941  0.8415  2.9527
  499MOL0     H67350   8.431   8.072   2.372 -0.9001 -0.8956 -0.7738
  499MOL0     H67351   8.713   7.902   2.715 -0.7522  0.5028 -1.7928
  499MOL0     H67352   8.877   7.776   2.814 -0.5281  3.8382  1.8765
  499MOL0     H67353   9.265   7.727   2.604 -0.0749  0.2844  0.4408
  499MOL0     H67354   9.158   7.583   2.581 -1.0259  1.2460 -0.3298
  499MOL0     H67355   9.347   7.639   2.831  0.0344 -3.2091  2.0586
  499MOL0     H67356   9.396   7.553   2.690  1.6090  2.4260  1.6926
  499MOL0     H67357   9.229   7.373   2.768  2.2673  0.9053 -2.5466
  499MOL0     H67358   9.151   7.486   2.883 -1.5951  0.8914 -1.7081
  499MOL0     H67359   9.434   7.376   2.898 -1.5349 -2.3270 -2.2692
  499MOL0     H67360   9.372   7.489   3.016  0.5834 -1.0620  1.8027
  499MOL0     H67361   9.141   7.174   3.152 -1.8071  0.6489 -1.9118
  499MOL0     H67362   9.111   7.768   2.464  0.0895 -1.5166  0.3121
  499MOL0     H67363   8.871   7.876   2.235  0.2507  0.2404  0.1839
  499MOL0     H67364   8.954   8.019   2.308  0.3845 -0.8954  1.4862
  499MOL0     H67365   9.031   7.862   2.259  0.6019  0.0694  1.3393
  500MOL0     O67366   6.437   8.229   9.343  0.6181  0.1469 -0.5593
  500MOL0     C67367   6.479   8.124   9.381 -0.1353  0.0202 -0.1918
  500MOL0     O67368   6.602   8.077   9.353 -0.5290 -0.0532 -0.6192
  500MOL0     C67369   6.669   8.148   9.251 -0.0390 -0.1649 -0.2482
  500MOL0     C67370   6.788   8.221   9.275  0.2093  1.3047 -0.7722
  500MOL0     C67371   6.858   8.280   9.171  0.4194  0.5253  0.5219
  500MOL0     C67372   6.817   8.263   9.034  0.2725  0.1087  0.0198
  500MOL0     O67373   6.883   8.312   8.927  0.7281  0.0222 -0.3221
  500MOL0     C67374   6.972   8.214   8.873 -0.0342 -0.3903 -0.2301
  500MOL0     C67375   7.009   8.238   8.722 -0.4696 -0.1003 -0.0254
  500MOL0     C67376   7.107   8.362   8.710 -1.0117  0.7339 -0.8434
  500MOL0     C67377   7.028   8.491   8.731 -0.7359  0.0744 -0.2836
  500MOL0     C67378   7.116   8.603   8.682 -0.3956  0.3195 -0.0255
  500MOL0     C67379   7.047   8.734   8.716  0.5657  0.4889  0.1832
  500MOL0     C67380   7.123   8.865   8.676 -0.5936  0.2990  0.1469
  500MOL0     C67381   7.135   8.889   8.525  0.7614 -0.4647  0.9652
  500MOL0     N67382   7.155   9.036   8.513  0.2350  0.2790  0.5936
  500MOL0     C67383   7.268   9.098   8.539 -0.3438  0.0120 -0.6682
  500MOL0     C67384   7.231   9.228   8.550 -0.1494  0.4699  0.2090
  500MOL0     C67385   7.328   9.334   8.592  0.9460  1.1990  1.1998
  500MOL0     C67386   7.398   9.290   8.721  0.5445 -0.0737  0.5491
  500MOL0     C67387   7.488   9.411   8.762 -0.1353 -0.8143 -1.1010
  500MOL0     C67388   7.605   9.440   8.678  0.7138  0.4338 -0.2116
  500MOL0     O67389   7.688   9.554   8.725  0.2659  0.9305  0.0945
  500MOL0     C67390   7.782   9.601   8.641  0.8746 -0.4306  0.5298
  500MOL0     C67391   7.896   9.525   8.596  1.7657 -0.7979  1.1114
  500MOL0     C67392   7.988   9.576   8.502  0.2012  0.5240 -0.6135
  500MOL0     C67393   7.974   9.709   8.460 -0.5084 -0.2063 -0.0551
  500MOL0     C67394   8.056   9.769   8.350  0.2082  0.5260 -0.8037
  500MOL0     O67395   8.052   9.904   8.333 -0.6213 -0.4550  0.1321
  500MOL0     C67396   8.122   9.964   8.233  0.1229  0.3079 -0.3652
  500MOL0     C67397   8.042  10.037   8.141 -0.8163  0.0778  0.4425
  500MOL0     C67398   8.095  10.102   8.026  0.2257  0.4653 -0.4927
  500MOL0     C67399   8.229  10.094   7.995  1.2227  0.1920  0.9020
  500MOL0     O67400   8.280  10.177   7.895 -0.0771  0.2705  0.3244
  500MOL0     C67401   8.412  10.133   7.853  0.2429  0.1511 -0.2810
  500MOL0     C67402   8.411   9.992   7.786  1.1282  0.4430 -0.3789
  500MOL0     C67403   8.367   9.983   7.641 -0.7458  0.1661 -0.2036
  500MOL0     C67404   8.395   9.842   7.585 -0.1460  0.0262 -0.5284
  500MOL0     C67405   8.387   9.837   7.428 -0.9822 -0.3111 -0.6275
  500MOL0     C67406   8.247   9.850   7.372 -0.1608  0.5814 -0.4003
  500MOL0     C67407   8.138   9.762   7.432  0.4466  0.6417 -0.2165
  500MOL0     C67408   8.017   9.730   7.344 -0.0110  0.2987 -0.4605
  500MOL0    Cl67409   7.888   9.658   7.451 -0.2209  0.0055  0.0885
  500MOL0     C67410   8.306  10.014   8.089  0.2663 -0.6122  0.5278
  500MOL0     C67411   8.255   9.948   8.201 -0.2687 -0.7670 -0.8657
  500MOL0     O67412   8.126   9.692   8.284 -0.6149  0.5199 -0.2369
  500MOL0     C67413   7.868   9.789   8.513 -1.6229 -0.1699  0.0668
  500MOL0     C67414   7.767   9.730   8.596 -0.7126 -0.3907  0.0708
  500MOL0     N67415   7.101   9.238   8.526  0.4714 -0.5642  0.4188
  500MOL0     N67416   7.057   9.123   8.487 -0.2399 -0.2806 -0.5014
  500MOL0     C67417   6.712   8.174   9.011  0.6238  0.4255 -0.2366
  500MOL0     C67418   6.628   8.127   9.114  0.1103  0.0631  0.1897
  500MOL0     C67419   6.400   8.022   9.442  0.3360  0.6551  0.1349
  500MOL0     C67420   6.423   7.883   9.401 -0.0339 -1.5130 -0.8207
  500MOL0     C67421   6.358   7.790   9.476  0.2863 -0.0118 -1.1084
  500MOL0     C67422   6.268   7.822   9.576 -0.7420  1.0112 -0.1123
  500MOL0     O67423   6.198   7.730   9.663  0.3395 -0.2439 -0.0984
  500MOL0     C67424   6.215   7.596   9.629 -0.6362  0.4828 -0.3696
  500MOL0     C67425   6.164   7.509   9.747  1.1658 -0.2321  0.7401
  500MOL0     C67426   6.015   7.477   9.748  0.4561  0.0811 -0.4748
  500MOL0     C67427   5.960   7.403   9.868 -0.6669 -0.0541 -0.3441
  500MOL0     C67428   6.026   7.277   9.907  1.3936 -0.0465 -0.2636
  500MOL0     C67429   6.063   7.162   9.930  0.5734 -0.5470  0.5007
  500MOL0     C67430   6.246   7.948   9.610  0.0326 -0.9389 -0.5197
  500MOL0     C67431   6.312   8.052   9.551 -0.0939 -0.3047 -0.3040
  500MOL0     C67432   6.266   8.197   9.600  0.2685  0.8832  0.2876
  500MOL0     H67433   6.826   8.220   9.377 -0.8582 -5.2479  0.0035
  500MOL0     H67434   6.943   8.345   9.187  1.7739 -0.7698 -1.0912
  500MOL0     H67435   7.058   8.224   8.939  0.1671  0.4031 -0.6003
  500MOL0     H67436   6.932   8.112   8.878  2.2038 -1.3048  0.4689
  500MOL0     H67437   6.914   8.251   8.670 -2.8450 -4.3164  2.6294
  500MOL0     H67438   7.054   8.145   8.686 -1.3240 -0.7528  0.5369
  500MOL0     H67439   7.154   8.377   8.612  0.0749 -1.1517 -0.6618
  500MOL0     H67440   7.187   8.355   8.784 -1.9759  2.9295  0.5057
  500MOL0     H67441   6.931   8.489   8.681 -0.9033 -0.6838  0.0596
  500MOL0     H67442   7.007   8.497   8.838 -0.7536 -1.4267 -0.1747
  500MOL0     H67443   7.214   8.597   8.731  1.4433  2.1182 -3.1515
  500MOL0     H67444   7.122   8.598   8.573 -2.6334 -0.0369 -0.1642
  500MOL0     H67445   6.953   8.738   8.659  0.5826  3.2277  0.2358
  500MOL0     H67446   7.019   8.736   8.822 -1.1776 -0.7359 -0.2041
  500MOL0     H67447   7.224   8.874   8.718  0.2288 -0.7075 -1.5212
  500MOL0     H67448   7.072   8.956   8.710 -0.1819  1.0539 -1.1633
  500MOL0     H67449   7.214   8.834   8.473 -1.5791 -1.5017 -1.7654
  500MOL0     H67450   7.041   8.877   8.470  1.3899  0.2150 -0.3021
  500MOL0     H67451   7.355   9.037   8.561 -1.8692 -1.6574  1.2170
  500MOL0     H67452   7.400   9.330   8.510 -1.6941 -2.7072 -1.2553
  500MOL0     H67453   7.272   9.427   8.605  0.0520  0.7800  0.4352
  500MOL0     H67454   7.317   9.279   8.794 -2.2980 -0.1895 -2.4173
  500MOL0     H67455   7.451   9.198   8.694 -1.1282 -0.9491  0.1364
  500MOL0     H67456   7.528   9.377   8.858 -1.0036  3.3564  0.9843
  500MOL0     H67457   7.441   9.504   8.795  2.6478  0.8033 -1.3728
  500MOL0     H67458   7.571   9.436   8.575  1.3949  2.2392 -0.5349
  500MOL0     H67459   7.662   9.346   8.681  1.5418  0.8942 -1.0062
  500MOL0     H67460   7.919   9.428   8.639  1.7638 -1.7104 -0.8496
  500MOL0     H67461   8.082   9.528   8.477 -1.1990 -1.3947 -2.4152
  500MOL0     H67462   7.936  10.037   8.164 -1.4209 -0.6076 -2.0157
  500MOL0     H67463   8.039  10.157   7.951 -1.1555 -2.0968 -1.4241
  500MOL0     H67464   8.445  10.214   7.787 -1.7499  2.7729  1.7127
  500MOL0     H67465   8.482  10.139   7.937  0.8388  0.7287 -0.8078
  500MOL0     H67466   8.514   9.956   7.791  1.1583  0.6140  0.3122
  500MOL0     H67467   8.349   9.918   7.836 -1.1732  0.7757 -2.5464
  500MOL0     H67468   8.261  10.011   7.647 -0.8876  0.1233 -1.8913
  500MOL0     H67469   8.426  10.054   7.582  0.5144 -2.7531 -2.7447
  500MOL0     H67470   8.327   9.767   7.628  0.2892 -0.5588 -0.8481
  500MOL0     H67471   8.496   9.821   7.621  0.5379  1.4111 -1.5625
  500MOL0     H67472   8.425   9.741   7.392  0.8501 -0.2034  0.8430
  500MOL0     H67473   8.447   9.918   7.385  1.6310 -1.7190  0.1370
  500MOL0     H67474   8.221   9.955   7.386  1.9826  1.1734 -0.5597
  500MOL0     H67475   8.263   9.819   7.268 -4.9775 -0.6813 -1.0089
  500MOL0     H67476   8.095   9.800   7.525 -0.1802 -2.6085  0.9804
  500MOL0     H67477   8.194   9.676   7.472  2.4598  2.9895  2.4611
  500MOL0     H67478   7.974   9.823   7.306  0.2742 -0.5201 -2.9117
  500MOL0     H67479   8.033   9.661   7.261  0.0671 -0.3997  0.1229
  500MOL0     H67480   8.411  10.000   8.065  0.1654  0.5923 -0.7602
  500MOL0     H67481   8.327   9.901   8.267  0.2116 -1.9640 -2.2025
  500MOL0     H67482   7.854   9.891   8.479  2.2526 -0.1538 -2.0015
  500MOL0     H67483   7.672   9.778   8.615 -1.1610  0.6849 -4.0563
  500MOL0     H67484   6.682   8.133   8.915  3.2814  1.9753 -1.8617
  500MOL0     H67485   6.544   8.065   9.085 -0.5874 -0.2422  2.6419
  500MOL0     H67486   6.501   7.848   9.334  0.7872 -0.1978 -0.5765
  500MOL0     H67487   6.385   7.689   9.445 -0.4690 -0.0606 -1.6352
  500MOL0     H67488   6.322   7.576   9.633 -0.9039 -0.9458  0.3568
  500MOL0     H67489   6.176   7.565   9.532 -1.8151  0.6404  0.0413
  500MOL0     H67490   6.188   7.560   9.841  0.3053 -2.3237  2.1686
  500MOL0     H67491   6.208   7.410   9.739  1.3548 -0.3828  2.9212
  500MOL0     H67492   5.984   7.421   9.660 -0.9391 -1.5586  0.9806
  500MOL0     H67493   5.973   7.578   9.748 -1.7657 -0.6858  2.3393
  500MOL0     H67494   5.958   7.460   9.962  0.1004  0.1181 -0.4219
  500MOL0     H67495   5.864   7.364   9.834 -0.2692 -0.1264 -1.4327
  500MOL0     H67496   6.059   7.061   9.967 -1.0309  0.3540  3.0825
  500MOL0     H67497   6.170   7.978   9.681  0.3040  1.6106 -1.2047
  500MOL0     H67498   6.213   8.181   9.694  0.2441 -0.1202  0.1164
  500MOL0     H67499   6.358   8.252   9.623  0.3859 -0.4867  3.6317
  500MOL0     H67500   6.207   8.263   9.536 -2.1896 -0.6439  0.8534
  501MOL0     O67501   7.752   4.487   5.257 -0.1801 -0.1602 -0.1421
  501MOL0     C67502   7.652   4.415   5.239 -0.3468 -0.1294 -0.8343
  501MOL0     O67503   7.571   4.417   5.129  0.5473 -0.1218  0.2464
  501MOL0     C67504   7.608   4.509   5.040  1.1445  0.3216 -0.1579
  501MOL0     C67505   7.706   4.479   4.951  0.1782  0.5210 -0.3007
  501MOL0     C67506   7.740   4.571   4.856  0.3501  0.9230  0.0310
  501MOL0     C67507   7.670   4.690   4.844  0.6384  0.0177  0.6132
  501MOL0     O67508   7.723   4.765   4.742 -0.4006 -0.8088 -0.3078
  501MOL0     C67509   7.791   4.883   4.783  0.2532  0.3674 -0.3534
  501MOL0     C67510   7.801   4.981   4.666  0.1741  0.2180 -0.1366
  501MOL0     C67511   7.847   4.927   4.530 -0.7726  0.0598  0.1940
  501MOL0     C67512   7.845   5.034   4.418 -0.1689 -0.0415  0.7961
  501MOL0     C67513   7.876   4.959   4.279  0.5744  0.1564  0.1886
  501MOL0     C67514   7.915   5.045   4.162 -0.0994  0.2331  0.6923
  501MOL0     C67515   7.814   5.151   4.125  0.3844 -0.5566  0.3942
  501MOL0     C67516   7.866   5.236   4.004 -0.2292  0.1028 -0.2418
  501MOL0     N67517   7.842   5.153   3.882 -0.2017  0.0557  0.2325
  501MOL0     C67518   7.724   5.136   3.823 -0.7999 -1.5901  0.5633
  501MOL0     C67519   7.749   5.086   3.707  0.7835 -0.4463  0.1215
  501MOL0     C67520   7.621   5.051   3.628  1.1465 -0.7030 -0.4366
  501MOL0     C67521   7.552   5.170   3.548  0.4375  0.1408  0.0579
  501MOL0     C67522   7.645   5.254   3.450  0.4117  0.4748 -0.2499
  501MOL0     C67523   7.566   5.376   3.395 -1.3196 -0.2009  0.2682
  501MOL0     O67524   7.647   5.448   3.302 -0.1800 -0.1195 -0.4899
  501MOL0     C67525   7.578   5.498   3.192  0.3268 -0.1243 -0.2557
  501MOL0     C67526   7.507   5.613   3.193  0.1617  0.5198  0.3152
  501MOL0     C67527   7.432   5.647   3.085  0.3932  1.2235  1.2573
  501MOL0     C67528   7.434   5.574   2.963  0.4719 -0.4001  0.4757
  501MOL0     C67529   7.375   5.629   2.837  0.2449 -0.7981 -0.3200
  501MOL0     O67530   7.356   5.760   2.845  0.1643 -0.3768 -0.3782
  501MOL0     C67531   7.257   5.814   2.767 -0.3332  0.1681  0.1295
  501MOL0     C67532   7.292   5.905   2.673  0.7217  1.0695  0.5238
  501MOL0     C67533   7.198   5.976   2.594  1.1838  0.7093  0.4332
  501MOL0     C67534   7.066   5.942   2.606  0.0516 -0.1272  0.6786
  501MOL0     O67535   6.985   6.021   2.522  0.2721  0.1538 -0.3173
  501MOL0     C67536   6.843   6.021   2.561 -0.3015 -0.4341 -0.9338
  501MOL0     C67537   6.776   6.150   2.517 -0.5138  0.0844  0.1272
  501MOL0     C67538   6.855   6.281   2.554 -0.7984  0.7254  0.0579
  501MOL0     C67539   6.844   6.305   2.703  0.2779  1.0895 -0.2957
  501MOL0     C67540   6.866   6.452   2.754 -0.3676 -0.3752  0.6670
  501MOL0     C67541   7.002   6.517   2.719  0.0133 -0.0622 -0.0313
  501MOL0     C67542   7.138   6.439   2.746 -0.3657  0.2634  0.0814
  501MOL0     C67543   7.240   6.457   2.635  0.0161  0.6084  0.7596
  501MOL0    Cl67544   7.266   6.635   2.613 -0.0170  0.0163  0.0538
  501MOL0     C67545   7.025   5.839   2.691  0.5990  0.0688  0.1145
  501MOL0     C67546   7.120   5.782   2.775 -0.2798 -0.1424 -0.1478
  501MOL0     O67547   7.337   5.557   2.746 -1.0461  0.0353 -0.5222
  501MOL0     C67548   7.503   5.455   2.963  1.6479  0.2867 -1.1396
  501MOL0     C67549   7.577   5.415   3.080 -0.9896  0.4053  0.0254
  501MOL0     N67550   7.885   5.064   3.688  0.7516 -0.5123 -0.0233
  501MOL0     N67551   7.938   5.105   3.800 -0.4432  0.6540 -0.4034
  501MOL0     C67552   7.570   4.728   4.939 -0.2845 -0.7823  0.1559
  501MOL0     C67553   7.540   4.632   5.033  0.3389  0.8803 -0.0669
  501MOL0     C67554   7.623   4.311   5.348  0.4213 -0.1556 -0.6126
  501MOL0     C67555   7.537   4.210   5.312  0.1480  0.3685  0.5143
  501MOL0     C67556   7.485   4.124   5.409  0.2320  0.1300  0.0315
  501MOL0     C67557   7.532   4.121   5.540  0.7756  0.6312 -0.5273
  501MOL0     O67558   7.509   4.022   5.636  0.2539 -0.0830  0.2703
  501MOL0     C67559   7.443   3.897   5.594 -0.1962  0.5127  0.0017
  501MOL0     C67560   7.561   3.807   5.551  0.7118  0.1709  0.6695
  501MOL0     C67561   7.640   3.742   5.666  0.3664  0.4871 -0.1082
  501MOL0     C67562   7.714   3.607   5.632 -0.1866 -0.0668 -0.1217
  501MOL0     C67563   7.808   3.625   5.521  0.0250  0.4584  0.1897
  501MOL0     C67564   7.890   3.645   5.434 -0.0047 -0.0033  0.3078
  501MOL0     C67565   7.627   4.219   5.583 -0.9021  0.9086 -0.0675
  501MOL0     C67566   7.666   4.315   5.485 -0.0634 -0.6161 -0.2033
  501MOL0     C67567   7.756   4.423   5.542 -0.2522 -0.4451  0.3078
  501MOL0     H67568   7.753   4.384   4.973  2.7045  0.7586 -3.8176
  501MOL0     H67569   7.801   4.546   4.770 -2.2285 -0.3893 -1.5010
  501MOL0     H67570   7.749   4.927   4.874  2.9697 -1.0613  1.7185
  501MOL0     H67571   7.891   4.846   4.807  0.0068 -0.0059  0.1151
  501MOL0     H67572   7.877   5.056   4.687 -0.1464  0.6454 -0.4762
  501MOL0     H67573   7.699   5.015   4.650 -0.0788 -0.6062 -0.3486
  501MOL0     H67574   7.778   4.846   4.502  0.6009 -1.3752  0.8121
  501MOL0     H67575   7.946   4.881   4.531 -0.5758  0.1714 -3.1963
  501MOL0     H67576   7.745   5.078   4.412 -0.5268 -1.0123 -0.7503
  501MOL0     H67577   7.923   5.111   4.426 -0.7622  0.6138  0.3806
  501MOL0     H67578   7.965   4.900   4.301 -1.4247 -2.1710  2.8738
  501MOL0     H67579   7.793   4.904   4.234  0.5319  1.9607 -2.1472
  501MOL0     H67580   8.012   5.086   4.191  1.0347 -2.5389  1.1286
  501MOL0     H67581   7.934   4.982   4.074 -2.0212  0.6604 -0.0842
  501MOL0     H67582   7.820   5.221   4.210  0.3847 -1.1560  0.8932
  501MOL0     H67583   7.711   5.117   4.117  0.2742 -0.0209 -0.6179
  501MOL0     H67584   7.802   5.324   3.989 -1.0619 -0.6040 -1.0004
  501MOL0     H67585   7.969   5.265   4.023  0.3755 -2.2622  0.3384
  501MOL0     H67586   7.626   5.167   3.856  0.9677  2.6104  2.7176
  501MOL0     H67587   7.647   4.971   3.558  2.5077 -0.1038 -0.6377
  501MOL0     H67588   7.549   5.014   3.701 -0.3121  2.8431  0.1491
  501MOL0     H67589   7.465   5.139   3.490  2.2837 -2.1936 -1.6902
  501MOL0     H67590   7.506   5.229   3.628  0.0163  1.2563 -0.9797
  501MOL0     H67591   7.684   5.190   3.370  0.5382  0.2803 -0.0360
  501MOL0     H67592   7.730   5.295   3.505  3.1529 -3.3280 -1.1755
  501MOL0     H67593   7.533   5.450   3.469 -1.8242 -0.7777  0.6321
  501MOL0     H67594   7.478   5.337   3.342  0.1941 -2.7024 -0.5741
  501MOL0     H67595   7.503   5.678   3.280  0.2350 -1.3548  1.7795
  501MOL0     H67596   7.368   5.735   3.090 -3.0859 -0.9795 -0.8337
  501MOL0     H67597   7.400   5.915   2.674  1.5002 -4.2269  1.7890
  501MOL0     H67598   7.232   6.041   2.514 -2.0446  0.4084 -1.3776
  501MOL0     H67599   6.803   5.924   2.529  3.7794 -3.1134  1.1392
  501MOL0     H67600   6.837   6.020   2.670 -1.0734 -1.0567 -0.9736
  501MOL0     H67601   6.762   6.152   2.409  0.6903  1.1205 -0.0286
  501MOL0     H67602   6.675   6.157   2.560  0.1991  1.1411  1.7324
  501MOL0     H67603   6.960   6.274   2.524 -1.1351  1.4081 -1.3884
  501MOL0     H67604   6.818   6.368   2.498 -0.9355  2.1286  2.1968
  501MOL0     H67605   6.920   6.237   2.744  0.4999  0.0356 -2.3086
  501MOL0     H67606   6.747   6.268   2.739 -0.2960  1.3274 -1.5390
  501MOL0     H67607   6.863   6.461   2.863  1.3170  0.1307  0.6960
  501MOL0     H67608   6.784   6.511   2.712 -0.0550  0.0751  0.6805
  501MOL0     H67609   7.002   6.546   2.613  2.3941  0.1151 -0.0402
  501MOL0     H67610   7.008   6.607   2.782 -0.4930  0.5468 -0.8303
  501MOL0     H67611   7.127   6.331   2.755  2.8875  0.0348  3.1740
  501MOL0     H67612   7.178   6.459   2.845  0.7489  0.8440 -0.4693
  501MOL0     H67613   7.340   6.411   2.637  0.5756  1.2397 -3.0753
  501MOL0     H67614   7.193   6.420   2.543  1.1840 -1.3135  0.8670
  501MOL0     H67615   6.919   5.820   2.707  0.3317  1.6813  0.5025
  501MOL0     H67616   7.085   5.710   2.848  0.6211  1.9981  2.5560
  501MOL0     H67617   7.496   5.396   2.872  0.3228  2.0860 -2.3008
  501MOL0     H67618   7.623   5.317   3.074  0.3094  0.9560  0.5986
  501MOL0     H67619   7.520   4.824   4.943 -0.8858 -1.0515 -0.7416
  501MOL0     H67620   7.476   4.671   5.112  0.6816  0.9404  0.1866
  501MOL0     H67621   7.508   4.198   5.208 -1.8631 -1.1919  1.1747
  501MOL0     H67622   7.422   4.045   5.371  1.4594 -1.3265  0.9352
  501MOL0     H67623   7.371   3.903   5.512  0.7259 -0.9183 -0.9592
  501MOL0     H67624   7.390   3.851   5.679  0.1590  0.6481  0.2979
  501MOL0     H67625   7.629   3.862   5.486  3.0999 -4.8830 -1.7158
  501MOL0     H67626   7.533   3.722   5.487  1.9878  0.6601 -0.5727
  501MOL0     H67627   7.569   3.709   5.743 -1.2672  0.6236 -1.4980
  501MOL0     H67628   7.698   3.823   5.711  0.6506  0.8843 -1.1755
  501MOL0     H67629   7.774   3.573   5.717 -0.0393  0.9603  0.2092
  501MOL0     H67630   7.646   3.524   5.610 -1.0668  0.9635 -1.4605
  501MOL0     H67631   7.950   3.668   5.348 -1.1613 -1.7991 -1.0440
  501MOL0     H67632   7.655   4.222   5.688 -0.9158  1.6700 -0.0762
  501MOL0     H67633   7.851   4.407   5.491 -0.8975 -1.6644 -0.5633
  501MOL0     H67634   7.721   4.526   5.533  2.2125  0.3929 -0.4787
  501MOL0     H67635   7.772   4.410   5.650  3.3404 -1.4445 -0.2048
  502MOL0     O67636   9.580   0.760   5.584  0.4676 -0.4282 -0.0329
  502MOL0     C67637   9.548   0.685   5.670  0.4918  0.1222 -0.6977
  502MOL0     O67638   9.459   0.584   5.652  0.7100  0.2912  0.2497
  502MOL0     C67639   9.379   0.567   5.538 -0.6402 -0.1968 -0.4839
  502MOL0     C67640   9.339   0.444   5.500  0.6431 -0.4860  0.0977
  502MOL0     C67641   9.263   0.426   5.384 -0.4130  0.1138 -0.1734
  502MOL0     C67642   9.206   0.533   5.316  0.3325 -0.3315  0.4505
  502MOL0     O67643   9.124   0.513   5.205  0.4580  0.4163 -0.1807
  502MOL0     C67644   8.996   0.569   5.212  0.7381  0.6007  0.4603
  502MOL0     C67645   8.979   0.670   5.101  1.2327  0.4719  0.1411
  502MOL0     C67646   8.841   0.739   5.100 -0.4988 -0.4166 -0.8217
  502MOL0     C67647   8.719   0.649   5.076  0.2827  0.2591  0.3744
  502MOL0     C67648   8.592   0.716   5.065 -0.0832  0.1930  0.9377
  502MOL0     C67649   8.543   0.803   5.187 -0.3365 -0.4221 -0.4540
  502MOL0     C67650   8.391   0.835   5.198 -0.5283 -0.7446 -0.5341
  502MOL0     C67651   8.329   0.907   5.084  0.3811 -0.2795  0.0671
  502MOL0     N67652   8.396   1.046   5.070 -0.1586  1.0138 -0.4290
  502MOL0     C67653   8.375   1.154   5.157 -0.0669 -0.3522  0.3412
  502MOL0     C67654   8.463   1.256   5.104  0.3761  0.3680  0.9205
  502MOL0     C67655   8.478   1.396   5.147 -0.6323  0.8609 -0.1124
  502MOL0     C67656   8.438   1.414   5.291  0.1309  0.3610  0.5904
  502MOL0     C67657   8.286   1.454   5.300  0.4165  0.3410  0.4083
  502MOL0     C67658   8.221   1.421   5.428 -0.8136 -0.3566  0.4017
  502MOL0     O67659   8.243   1.499   5.545 -0.5818  0.7698 -0.3881
  502MOL0     C67660   8.174   1.617   5.567  0.7989  0.0367 -1.1128
  502MOL0     C67661   8.035   1.625   5.534  0.3771 -0.0461 -0.5201
  502MOL0     C67662   7.962   1.738   5.580  0.4773 -1.1498  1.0528
  502MOL0     C67663   8.020   1.845   5.645  0.4151 -0.5983  0.8933
  502MOL0     C67664   7.940   1.950   5.719  0.3371 -0.5067  1.2647
  502MOL0     O67665   7.985   2.000   5.839  0.8939  0.1476 -0.3710
  502MOL0     C67666   7.885   2.063   5.916 -0.2539 -0.1765 -0.7420
  502MOL0     C67667   7.854   2.198   5.892  0.0965 -0.6017  0.4691
  502MOL0     C67668   7.751   2.249   5.962  0.5517  0.5894 -0.3609
  502MOL0     C67669   7.687   2.182   6.063  0.3585  0.1824 -0.0126
  502MOL0     O67670   7.577   2.243   6.129 -0.2626  0.3042  0.1046
  502MOL0     C67671   7.563   2.227   6.274  0.3541  0.7547 -0.2318
  502MOL0     C67672   7.659   2.341   6.320 -0.3973 -0.0339 -0.6398
  502MOL0     C67673   7.577   2.463   6.368  0.4710 -0.2293 -0.0304
  502MOL0     C67674   7.649   2.597   6.369 -0.5693  0.1502  0.6565
  502MOL0     C67675   7.599   2.688   6.493 -0.2624  0.4295  0.2893
  502MOL0     C67676   7.448   2.721   6.476  0.2145 -0.2767  0.1371
  502MOL0     C67677   7.393   2.812   6.588  0.5654  0.9420  0.9887
  502MOL0     C67678   7.282   2.905   6.535 -0.5620 -0.4702 -0.7189
  502MOL0    Cl67679   7.118   2.839   6.577  0.1337  0.1842 -0.0388
  502MOL0     C67680   7.718   2.049   6.095 -0.6475  0.4102  0.3036
  502MOL0     C67681   7.813   1.998   6.017  0.0385 -0.1628 -0.2684
  502MOL0     O67682   7.832   1.985   5.660 -0.2944  0.0392  0.1792
  502MOL0     C67683   8.163   1.837   5.664 -0.7165  0.3393 -0.7063
  502MOL0     C67684   8.231   1.721   5.627  1.1978 -0.0203  0.7737
  502MOL0     N67685   8.530   1.204   4.995  0.3390  0.2311 -0.5988
  502MOL0     N67686   8.498   1.074   4.985  0.3999 -0.2026 -0.3998
  502MOL0     C67687   9.223   0.658   5.373  0.3738  0.1526 -0.3093
  502MOL0     C67688   9.313   0.682   5.479 -0.0663  0.7949  0.2431
  502MOL0     C67689   9.616   0.704   5.803  0.0336  1.6740 -0.2716
  502MOL0     C67690   9.549   0.653   5.920 -0.0835  0.9527  0.4063
  502MOL0     C67691   9.597   0.659   6.048  0.3306 -0.0091 -0.2084
  502MOL0     C67692   9.717   0.731   6.071  0.1416 -0.0291 -0.1937
  502MOL0     O67693   9.765   0.750   6.198 -0.3949 -0.4524 -0.1039
  502MOL0     C67694   9.730   0.884   6.241 -0.0951  0.5478 -0.5977
  502MOL0     C67695   9.821   0.910   6.369 -0.4669 -0.2941 -0.2669
  502MOL0     C67696   9.806   0.813   6.496 -0.4810 -0.0615 -0.1362
  502MOL0     C67697   9.921   0.838   6.599  0.0574 -0.3424 -0.4237
  502MOL0     C67698  10.053   0.781   6.550  0.0040  0.4425 -0.6550
  502MOL0     C67699  10.164   0.745   6.525  0.5587  0.1802  0.4234
  502MOL0     C67700   9.785   0.787   5.968  0.6460 -0.9284 -0.4278
  502MOL0     C67701   9.742   0.763   5.827 -0.3370 -1.2403 -0.9573
  502MOL0     C67702   9.827   0.810   5.715  0.2082  0.3768  0.4293
  502MOL0     H67703   9.384   0.360   5.552  1.9746  0.9211  1.3258
  502MOL0     H67704   9.252   0.326   5.343  1.4127  0.3273 -1.2932
  502MOL0     H67705   8.911   0.502   5.206 -0.4837  2.2224 -2.8395
  502MOL0     H67706   8.990   0.621   5.308  3.6702 -1.7797  2.1234
  502MOL0     H67707   8.986   0.613   5.007  1.1037 -1.6672  1.3570
  502MOL0     H67708   9.069   0.732   5.103  0.3781  1.7331  2.1026
  502MOL0     H67709   8.837   0.806   5.014  1.6645  2.2320  0.9806
  502MOL0     H67710   8.817   0.800   5.187  0.2098  1.4987 -1.9131
  502MOL0     H67711   8.734   0.589   4.986  2.8730 -1.2477  1.6892
  502MOL0     H67712   8.699   0.577   5.156  0.1729  0.5354  0.5994
  502MOL0     H67713   8.598   0.781   4.977 -0.9292  1.4897  1.7893
  502MOL0     H67714   8.514   0.642   5.046  0.8706 -0.1027 -2.3706
  502MOL0     H67715   8.564   0.742   5.275  1.0858 -2.3563 -2.0574
  502MOL0     H67716   8.589   0.902   5.184 -1.6092  0.3563  2.2156
  502MOL0     H67717   8.363   0.888   5.290 -2.1649  2.6151 -2.7514
  502MOL0     H67718   8.337   0.740   5.194 -1.9043  0.0167 -0.6097
  502MOL0     H67719   8.349   0.850   4.993 -1.7687 -0.7095 -0.1776
  502MOL0     H67720   8.222   0.916   5.102  0.2612 -1.7066  0.1216
  502MOL0     H67721   8.299   1.176   5.231 -0.3321  1.2775 -0.3661
  502MOL0     H67722   8.579   1.433   5.127 -0.5296 -0.8788 -3.6999
  502MOL0     H67723   8.418   1.452   5.074 -1.1765 -0.5937 -0.8314
  502MOL0     H67724   8.459   1.327   5.355 -1.4374 -3.0146 -3.0774
  502MOL0     H67725   8.497   1.496   5.334  1.1242  0.3029 -0.6353
  502MOL0     H67726   8.223   1.407   5.224 -2.3382 -0.0612  2.7546
  502MOL0     H67727   8.281   1.561   5.279 -2.9916  0.2962  0.3512
  502MOL0     H67728   8.247   1.317   5.451  3.9480  1.1029  2.9366
  502MOL0     H67729   8.118   1.424   5.392 -0.8227  3.0180  0.4151
  502MOL0     H67730   7.977   1.544   5.490  0.8304  1.1657 -3.5104
  502MOL0     H67731   7.855   1.749   5.564  1.0114  3.1741 -0.7686
  502MOL0     H67732   7.909   2.254   5.817 -2.2806  1.1024 -0.1213
  502MOL0     H67733   7.726   2.354   5.950 -1.0202  0.9982  4.2670
  502MOL0     H67734   7.460   2.249   6.302 -0.3061 -2.9932  0.7169
  502MOL0     H67735   7.597   2.126   6.297 -0.6545 -0.2561 -2.8220
  502MOL0     H67736   7.718   2.296   6.401  1.2249  2.1778 -0.4791
  502MOL0     H67737   7.740   2.370   6.252  0.7433 -3.1918 -0.8008
  502MOL0     H67738   7.485   2.475   6.310 -0.0576 -3.1605  0.0816
  502MOL0     H67739   7.541   2.445   6.469  3.5318 -2.9272  0.7466
  502MOL0     H67740   7.628   2.656   6.279  0.4409  1.0327  0.9756
  502MOL0     H67741   7.756   2.577   6.381 -0.9276 -1.0906  2.0600
  502MOL0     H67742   7.656   2.781   6.499  1.5920 -0.6234 -0.3213
  502MOL0     H67743   7.611   2.637   6.589 -0.0630  1.8627  1.0488
  502MOL0     H67744   7.452   2.783   6.386 -1.0731 -0.3944 -0.0319
  502MOL0     H67745   7.388   2.629   6.475  2.2531 -1.7109  1.4318
  502MOL0     H67746   7.466   2.869   6.646 -0.6567  0.7871  2.7760
  502MOL0     H67747   7.336   2.750   6.658 -1.5256  0.2824 -1.1530
  502MOL0     H67748   7.295   3.001   6.588 -1.2583 -1.3226  1.0802
  502MOL0     H67749   7.289   2.920   6.427  0.2960  0.9174 -0.5109
  502MOL0     H67750   7.673   1.995   6.177  0.2242 -0.0777  0.4728
  502MOL0     H67751   7.836   1.892   6.025 -0.5036 -0.3431 -0.9685
  502MOL0     H67752   8.219   1.912   5.720 -0.0681 -0.6890  0.0390
  502MOL0     H67753   8.336   1.712   5.655  1.5485  2.5447  0.4913
  502MOL0     H67754   9.164   0.743   5.339 -0.8788 -1.1170 -1.4679
  502MOL0     H67755   9.319   0.778   5.528  1.2270  1.4028 -1.0422
  502MOL0     H67756   9.452   0.605   5.913  0.6421 -0.3070 -2.4565
  502MOL0     H67757   9.539   0.602   6.120 -1.6731 -0.7393 -2.2960
  502MOL0     H67758   9.626   0.877   6.274  0.2626  0.0575  0.4659
  502MOL0     H67759   9.739   0.958   6.161 -0.1853  1.2721  0.0521
  502MOL0     H67760   9.795   1.012   6.401  1.0605  1.4190 -3.9308
  502MOL0     H67761   9.928   0.916   6.346 -0.1135  1.3210  1.4465
  502MOL0     H67762   9.799   0.710   6.459 -3.1952 -0.3226  0.8771
  502MOL0     H67763   9.703   0.826   6.532 -0.7109 -0.6851 -0.5369
  502MOL0     H67764   9.929   0.946   6.613 -0.6064 -0.2875 -0.4226
  502MOL0     H67765   9.888   0.793   6.693  0.3161  0.2342 -0.0557
  502MOL0     H67766  10.267   0.722   6.506  0.9892 -0.7526  3.3814
  502MOL0     H67767   9.880   0.835   5.991 -0.0740  0.5404 -0.4099
  502MOL0     H67768   9.863   0.737   5.642  1.7737  1.7247 -0.2472
  502MOL0     H67769   9.784   0.896   5.662 -1.7865 -1.6148 -1.3347
  502MOL0     H67770   9.920   0.845   5.762  2.2897  0.6311 -3.3863
  503MOL0     O67771   0.046   5.413  10.907  0.6711 -0.2840 -0.4878
  503MOL0     C67772   0.092   5.328  10.830  0.0649  0.1395 -0.6775
  503MOL0     O67773   0.018   5.213  10.785  0.3390 -0.2640 -0.0078
  503MOL0     C67774  -0.114   5.206  10.779  0.1237 -0.0519  0.7929
  503MOL0     C67775  -0.204   5.307  10.749 -0.6431 -0.8712  0.0583
  503MOL0     C67776  -0.346   5.300  10.752  0.3018  0.3176 -0.5190
  503MOL0     C67777  -0.397   5.174  10.763 -0.3551  0.6872  0.2801
  503MOL0     O67778  -0.533   5.164  10.741 -0.1338  0.3993  0.7311
  503MOL0     C67779  -0.603   5.053  10.799 -0.0559 -0.3564  0.0625
  503MOL0     C67780  -0.753   5.100  10.810 -0.6684  0.2374  0.8648
  503MOL0     C67781  -0.841   5.001  10.885 -0.5211 -0.5882  0.0790
  503MOL0     C67782  -0.991   5.032  10.853  0.4172 -0.1050 -0.9371
  503MOL0     C67783  -1.047   5.008  10.714  0.1893 -0.6238  0.4702
  503MOL0     C67784  -1.196   5.006  10.709  0.6902  0.2287 -0.3291
  503MOL0     C67785  -1.250   5.060  10.578 -0.0154 -0.3224 -0.1500
  503MOL0     C67786  -1.397   5.026  10.547  0.3043  0.6406 -0.1202
  503MOL0     N67787  -1.451   4.894  10.529 -0.0968 -0.0908 -0.5330
  503MOL0     C67788  -1.498   4.818  10.635 -0.1142 -1.1046  0.2023
  503MOL0     C67789  -1.533   4.702  10.571 -0.0411 -0.2903 -1.0680
  503MOL0     C67790  -1.606   4.591  10.639  0.5055 -0.1025 -0.0027
  503MOL0     C67791  -1.538   4.527  10.754  0.2171 -0.9288  0.4316
  503MOL0     C67792  -1.623   4.412  10.812 -0.2933  0.3827 -0.9399
  503MOL0     C67793  -1.536   4.346  10.920  0.4216  0.8574  0.4416
  503MOL0     O67794  -1.456   4.237  10.861 -0.3313 -0.3353 -0.3017
  503MOL0     C67795  -1.421   4.138  10.957 -0.6985  0.3357 -0.6080
  503MOL0     C67796  -1.340   4.041  10.905 -0.8107  0.0453 -0.0069
  503MOL0     C67797  -1.302   3.932  10.987 -0.4033  0.7311  0.1662
  503MOL0     C67798  -1.340   3.934  11.125  0.1057  0.4151  0.2491
  503MOL0     C67799  -1.299   3.829  11.230 -0.2437  0.6691  0.5785
  503MOL0     O67800  -1.325   3.847  11.359  0.1603 -0.7127 -0.5788
  503MOL0     C67801  -1.298   3.748  11.455  0.1806 -0.1087 -0.3409
  503MOL0     C67802  -1.392   3.733  11.555 -0.4662  0.5222  0.7704
  503MOL0     C67803  -1.371   3.624  11.644 -0.1533 -1.3082  0.3767
  503MOL0     C67804  -1.264   3.539  11.642 -0.0755  0.1873 -0.2225
  503MOL0     O67805  -1.245   3.452  11.750  1.0032  0.3760 -0.6666
  503MOL0     C67806  -1.208   3.312  11.744 -0.3332 -0.3170  0.6270
  503MOL0     C67807  -1.217   3.244  11.877 -0.3670 -0.7506 -0.4885
  503MOL0     C67808  -1.148   3.104  11.879  0.2017 -0.3272  0.6143
  503MOL0     C67809  -1.163   3.034  12.006  0.3115  0.5836 -0.2014
  503MOL0     C67810  -1.105   3.113  12.124 -0.2753  0.7469  0.4582
  503MOL0     C67811  -1.099   3.048  12.268  0.0199  0.6868  0.0278
  503MOL0     C67812  -1.242   3.058  12.330 -0.4066 -0.1398 -1.3286
  503MOL0     C67813  -1.243   2.988  12.469 -0.2233 -1.2677  0.1342
  503MOL0    Cl67814  -1.407   3.022  12.540 -0.1233  0.4621  0.5855
  503MOL0     C67815  -1.165   3.557  11.545 -0.1696 -0.1258 -0.1141
  503MOL0     C67816  -1.184   3.672  11.454 -0.8288  0.5062  0.0541
  503MOL0     O67817  -1.244   3.728  11.182  0.0635 -0.2240 -0.1565
  503MOL0     C67818  -1.406   4.047  11.182  0.0524  1.0855 -0.5916
  503MOL0     C67819  -1.442   4.148  11.099 -0.0393  0.0977  0.5445
  503MOL0     N67820  -1.526   4.724  10.440  0.2937  0.7281  1.0448
  503MOL0     N67821  -1.466   4.836  10.410 -0.0676 -0.3597 -0.5268
  503MOL0     C67822  -0.316   5.067  10.797  0.4973 -0.2432  0.3007
  503MOL0     C67823  -0.172   5.081  10.799  1.0723 -0.0388 -0.3626
  503MOL0     C67824   0.240   5.325  10.806 -1.0867  0.1938  0.6068
  503MOL0     C67825   0.292   5.260  10.690  0.2541  0.4333 -0.8105
  503MOL0     C67826   0.427   5.272  10.653  0.3087  0.2201 -0.3585
  503MOL0     C67827   0.522   5.333  10.732 -0.5799  0.0608  0.0096
  503MOL0     O67828   0.648   5.327  10.679 -0.6196  0.5086  0.7926
  503MOL0     C67829   0.766   5.358  10.761  0.2474 -1.1979  0.8254
  503MOL0     C67830   0.821   5.503  10.740 -0.2222  0.5531  0.0656
  503MOL0     C67831   0.716   5.608  10.711  0.3072  1.1174 -0.1682
  503MOL0     C67832   0.789   5.745  10.679 -0.2443  0.3079 -0.4535
  503MOL0     C67833   0.710   5.817  10.585  0.2719 -0.0438  1.1094
  503MOL0     C67834   0.666   5.884  10.487  0.1742  0.3243 -0.2904
  503MOL0     C67835   0.477   5.399  10.838 -0.3306  0.9401  0.4521
  503MOL0     C67836   0.344   5.391  10.884 -0.5037  0.8283 -0.0232
  503MOL0     C67837   0.327   5.444  11.021  1.6103 -0.4135  0.1705
  503MOL0     H67838  -0.167   5.407  10.727 -0.2557 -0.7804  1.0450
  503MOL0     H67839  -0.408   5.383  10.721 -0.0467 -1.0831 -4.1243
  503MOL0     H67840  -0.599   4.960  10.741 -0.3287  2.3303 -4.8199
  503MOL0     H67841  -0.564   5.025  10.898 -0.2034  1.2905  0.6095
  503MOL0     H67842  -0.785   5.092  10.706  2.6007 -2.1611 -0.1510
  503MOL0     H67843  -0.752   5.197  10.859  0.6521 -1.1138  3.7537
  503MOL0     H67844  -0.827   5.033  10.989 -1.0058  1.3776 -0.4115
  503MOL0     H67845  -0.808   4.899  10.864  1.6736  0.5072 -2.3198
  503MOL0     H67846  -1.047   4.959  10.911  1.2830  0.4416  0.6310
  503MOL0     H67847  -1.026   5.131  10.884 -1.9450 -1.1731  0.0012
  503MOL0     H67848  -1.005   5.076  10.640 -0.7092 -0.1023  0.4312
  503MOL0     H67849  -1.019   4.906  10.685 -0.4712 -0.9410  0.9203
  503MOL0     H67850  -1.238   4.906  10.726  0.5176  0.4646  0.6896
  503MOL0     H67851  -1.238   5.067  10.790  1.4452  1.0750 -0.5629
  503MOL0     H67852  -1.189   5.032  10.492 -3.3304 -0.9291 -2.5457
  503MOL0     H67853  -1.245   5.168  10.591 -1.1054 -0.5352  2.8039
  503MOL0     H67854  -1.454   5.073  10.627  0.3953  0.3952  0.0901
  503MOL0     H67855  -1.423   5.086  10.459 -1.7019 -0.4390 -0.3361
  503MOL0     H67856  -1.496   4.844  10.741 -1.7870  0.4129 -0.0806
  503MOL0     H67857  -1.707   4.627  10.660  0.6947  0.3947  0.0815
  503MOL0     H67858  -1.615   4.517  10.559  2.2294 -1.8048  1.2843
  503MOL0     H67859  -1.435   4.495  10.733  0.7187 -0.9053  2.5370
  503MOL0     H67860  -1.544   4.611  10.824 -4.4549 -0.6448 -0.0067
  503MOL0     H67861  -1.648   4.340  10.733  0.7969  1.4866 -2.3644
  503MOL0     H67862  -1.716   4.454  10.850 -1.1584 -1.9587 -0.3808
  503MOL0     H67863  -1.616   4.297  10.976 -1.3387  2.3537 -0.6526
  503MOL0     H67864  -1.491   4.426  10.980 -0.9627  1.5458  0.6137
  503MOL0     H67865  -1.328   4.042  10.797 -0.3144  0.3910  0.0495
  503MOL0     H67866  -1.253   3.839  10.961  1.0830  2.0143 -1.9331
  503MOL0     H67867  -1.476   3.802  11.561 -1.5535 -0.6244 -0.5197
  503MOL0     H67868  -1.437   3.609  11.730  0.3055 -0.2525  0.9328
  503MOL0     H67869  -1.281   3.278  11.671 -0.3859 -1.7905  1.3385
  503MOL0     H67870  -1.104   3.314  11.712 -0.4249  1.6358  0.3135
  503MOL0     H67871  -1.177   3.313  11.952 -1.6361 -1.0304  0.4888
  503MOL0     H67872  -1.323   3.237  11.904  0.0101  0.0055  1.3933
  503MOL0     H67873  -1.189   3.046  11.795 -0.0985  3.7652 -2.3829
  503MOL0     H67874  -1.042   3.110  11.852  0.6447 -3.5685  1.1562
  503MOL0     H67875  -1.117   2.934  12.008  0.5656  0.5745  5.0104
  503MOL0     H67876  -1.271   3.018  12.020  0.7139 -0.0806  2.5678
  503MOL0     H67877  -1.158   3.209  12.128  2.0407  2.0518  2.9965
  503MOL0     H67878  -1.005   3.142  12.090 -0.9972  0.2916 -2.3667
  503MOL0     H67879  -1.067   2.943  12.271  0.2385  0.7764  1.8381
  503MOL0     H67880  -1.035   3.110  12.331  1.2768  0.1973 -0.7325
  503MOL0     H67881  -1.308   3.009  12.258 -1.2652  0.3389 -0.8707
  503MOL0     H67882  -1.265   3.164  12.339  0.1978 -0.1741  1.3075
  503MOL0     H67883  -1.231   2.880  12.458 -1.4531 -1.4040 -0.0007
  503MOL0     H67884  -1.161   3.018  12.535 -0.2805  2.1368 -1.1465
  503MOL0     H67885  -1.064   3.522  11.563  0.2330  1.9531  2.2482
  503MOL0     H67886  -1.098   3.689  11.390 -0.5443 -0.6821  0.0854
  503MOL0     H67887  -1.431   4.050  11.287 -0.1310 -1.1971 -0.5230
  503MOL0     H67888  -1.506   4.222  11.146  2.5335  2.0078  1.3037
  503MOL0     H67889  -0.351   4.964  10.803 -1.6942  0.4555  0.3329
  503MOL0     H67890  -0.112   4.992  10.814 -3.5443 -3.2495  1.4259
  503MOL0     H67891   0.221   5.210  10.625 -0.5243  0.5383 -0.0448
  503MOL0     H67892   0.460   5.216  10.566  1.8515 -0.5571  0.6997
  503MOL0     H67893   0.845   5.284  10.742  4.3033  3.1558 -1.2833
  503MOL0     H67894   0.756   5.332  10.866  3.2501  0.3857  1.6228
  503MOL0     H67895   0.881   5.479  10.652  0.9744 -2.4535  1.5364
  503MOL0     H67896   0.895   5.530  10.816 -1.2384  0.4572  1.1207
  503MOL0     H67897   0.642   5.622  10.790  1.9680 -0.3051  1.7769
  503MOL0     H67898   0.654   5.575  10.628 -1.9010 -0.0365  1.8237
  503MOL0     H67899   0.818   5.802  10.768  1.1987  0.6156 -1.1033
  503MOL0     H67900   0.880   5.726  10.621  0.3501 -1.9748  1.0862
  503MOL0     H67901   0.630   5.949  10.410  2.8635  0.1006 -1.8941
  503MOL0     H67902   0.558   5.419  10.907  0.1558 -0.3065  0.2705
  503MOL0     H67903   0.413   5.470  11.083  0.6784 -1.6443  2.0732
  503MOL0     H67904   0.258   5.529  11.018 -0.3564 -1.8507  2.0599
  503MOL0     H67905   0.265   5.378  11.082 -0.3867  2.0497  1.0231
  504MOL0     O67906   0.241  11.405   9.576 -0.2544 -0.7984 -0.1903
  504MOL0     C67907   0.287  11.342   9.481 -0.1230  0.2185  0.8284
  504MOL0     O67908   0.310  11.395   9.355 -0.0339  0.0899 -0.0081
  504MOL0     C67909   0.284  11.529   9.349  0.2402  0.0701 -0.0884
  504MOL0     C67910   0.395  11.608   9.329  0.7172  0.5131  0.2324
  504MOL0     C67911   0.398  11.747   9.319  0.7305 -0.7097 -0.3884
  504MOL0     C67912   0.262  11.805   9.325 -0.6485  0.4434  0.2936
  504MOL0     O67913   0.219  11.935   9.289 -0.3134 -0.6947  0.6565
  504MOL0     C67914   0.318  12.024   9.226  0.0070  0.1379 -0.1471
  504MOL0     C67915   0.277  12.172   9.217  0.2561  0.2617  0.5856
  504MOL0     C67916   0.168  12.183   9.107  0.4926  0.2620  0.1735
  504MOL0     C67917   0.151  12.326   9.064  0.6396 -0.1873 -0.0245
  504MOL0     C67918   0.060  12.401   9.159  0.9912 -0.1084 -0.3308
  504MOL0     C67919   0.046  12.552   9.125  0.9162  0.1633 -0.4824
  504MOL0     C67920  -0.080  12.614   9.194  0.0152 -0.7158  0.1367
  504MOL0     C67921  -0.089  12.759   9.150  1.2887 -0.4121 -0.5590
  504MOL0     N67922  -0.138  12.797   9.020 -0.5565  0.3515 -0.0909
  504MOL0     C67923  -0.258  12.766   8.966  1.0814 -0.2251  0.7211
  504MOL0     C67924  -0.258  12.837   8.847 -1.0995 -0.1300  0.9481
  504MOL0     C67925  -0.374  12.834   8.752 -0.0492 -0.8430  1.2593
  504MOL0     C67926  -0.370  12.743   8.635  0.1931  0.0708  0.2089
  504MOL0     C67927  -0.471  12.790   8.526 -1.0330 -0.0529 -0.6836
  504MOL0     C67928  -0.475  12.708   8.405  0.2710 -0.0691  0.0211
  504MOL0     O67929  -0.547  12.587   8.428 -0.3801  0.1584  0.0706
  504MOL0     C67930  -0.491  12.465   8.437  0.6179  0.6134 -0.7863
  504MOL0     C67931  -0.357  12.427   8.431  0.1510 -0.0989  0.5433
  504MOL0     C67932  -0.318  12.294   8.451 -0.7199 -0.8584 -0.3306
  504MOL0     C67933  -0.410  12.195   8.493 -0.8789  0.8331  1.0577
  504MOL0     C67934  -0.366  12.059   8.512  0.0713  1.3623 -0.1191
  504MOL0     O67935  -0.261  12.008   8.435 -0.1540 -1.3092  0.5506
  504MOL0     C67936  -0.224  11.873   8.442  0.7029  0.4596  0.0693
  504MOL0     C67937  -0.119  11.839   8.526 -0.2274 -0.4724  0.0378
  504MOL0     C67938  -0.073  11.713   8.529 -0.0277 -0.2569 -0.2015
  504MOL0     C67939  -0.112  11.618   8.432 -0.1330 -0.1312  0.6683
  504MOL0     O67940  -0.046  11.504   8.410 -0.8957  0.0184  0.4298
  504MOL0     C67941   0.000  11.424   8.526 -0.0823  1.1678 -0.0244
  504MOL0     C67942   0.009  11.265   8.485  0.1098  0.2253 -1.0356
  504MOL0     C67943   0.071  11.187   8.609 -0.2087 -0.9065  0.2306
  504MOL0     C67944   0.151  11.065   8.559  0.8761 -0.0707  0.0246
  504MOL0     C67945   0.211  10.983   8.666  0.4466  0.1324 -0.0569
  504MOL0     C67946   0.311  10.887   8.593  0.1386 -0.1001 -0.1784
  504MOL0     C67947   0.417  10.839   8.688 -0.3972 -0.4548 -0.5216
  504MOL0     C67948   0.512  10.726   8.621 -0.4084 -0.2741  0.4173
  504MOL0    Cl67949   0.681  10.730   8.721  0.4298 -0.2675 -0.3196
  504MOL0     C67950  -0.211  11.651   8.346  0.3997 -0.0787 -0.3544
  504MOL0     C67951  -0.272  11.782   8.343 -0.8486 -0.0342 -0.5114
  504MOL0     O67952  -0.430  11.990   8.589 -0.0530 -0.0946 -0.0983
  504MOL0     C67953  -0.538  12.239   8.506  0.2568  0.1863 -0.0387
  504MOL0     C67954  -0.586  12.361   8.473 -1.0159 -0.3378 -0.3672
  504MOL0     N67955  -0.133  12.908   8.830  0.2456 -0.5103 -0.7034
  504MOL0     N67956  -0.070  12.878   8.935  0.1092 -0.3607 -0.9159
  504MOL0     C67957   0.149  11.728   9.348  0.2169 -0.1996  0.1774
  504MOL0     C67958   0.158  11.594   9.366 -0.4475  0.7592  0.6128
  504MOL0     C67959   0.319  11.200   9.487 -0.1774  0.4165 -0.6128
  504MOL0     C67960   0.383  11.141   9.375  1.3030 -0.4118 -0.1538
  504MOL0     C67961   0.430  11.010   9.375 -0.2249 -0.4253  0.2156
  504MOL0     C67962   0.436  10.937   9.492  0.0362 -0.7611 -0.7596
  504MOL0     O67963   0.478  10.806   9.488  0.0945  0.1595  0.0805
  504MOL0     C67964   0.468  10.733   9.612 -0.0394  0.0058  0.3863
  504MOL0     C67965   0.568  10.617   9.616  0.2206  0.1124  0.2171
  504MOL0     C67966   0.559  10.534   9.746  0.6352 -0.1262 -0.8567
  504MOL0     C67967   0.422  10.459   9.782  0.4368  0.4626 -0.0296
  504MOL0     C67968   0.422  10.348   9.687  0.7573 -0.1491 -0.9255
  504MOL0     C67969   0.424  10.254   9.611 -0.6144  0.2942 -0.4425
  504MOL0     C67970   0.376  11.003   9.602 -0.4136 -0.3727 -0.5405
  504MOL0     C67971   0.317  11.122   9.604 -0.6611 -0.1427 -0.0841
  504MOL0     C67972   0.258  11.157   9.743  0.3332  0.3339  0.9589
  504MOL0     H67973   0.490  11.555   9.319  2.5646  3.0090  2.7129
  504MOL0     H67974   0.478  11.809   9.279 -2.6647  3.9679 -0.8189
  504MOL0     H67975   0.400  12.020   9.299 -0.9170  0.5746  0.9498
  504MOL0     H67976   0.349  11.988   9.128  0.4699  2.1991 -0.8157
  504MOL0     H67977   0.366  12.235   9.203  0.3972  0.6062  2.7182
  504MOL0     H67978   0.223  12.193   9.310 -3.6035 -0.4797 -1.3093
  504MOL0     H67979   0.073  12.138   9.137 -0.0109  1.3818  0.2822
  504MOL0     H67980   0.203  12.121   9.023 -0.5841  0.5644 -0.5109
  504MOL0     H67981   0.246  12.380   9.057 -0.1470  1.0932 -1.4715
  504MOL0     H67982   0.100  12.334   8.968  1.2223  1.7704 -0.2155
  504MOL0     H67983  -0.033  12.344   9.155 -0.0089  1.4723 -0.3361
  504MOL0     H67984   0.102  12.397   9.260 -1.8377  0.8059  0.9666
  504MOL0     H67985   0.129  12.607   9.170  1.7386 -1.6782  0.3632
  504MOL0     H67986   0.025  12.555   9.017 -0.5860 -0.2365 -0.2104
  504MOL0     H67987  -0.069  12.609   9.302 -1.2189 -2.6348  0.2222
  504MOL0     H67988  -0.172  12.564   9.162  0.3169 -0.4211 -1.2648
  504MOL0     H67989  -0.162  12.801   9.220  1.5184  0.8067 -1.0210
  504MOL0     H67990  -0.004  12.824   9.174 -1.2373  2.9707 -0.0136
  504MOL0     H67991  -0.345  12.712   9.002  0.1172  0.5732 -0.3257
  504MOL0     H67992  -0.469  12.822   8.805 -1.5428 -0.0706 -1.0938
  504MOL0     H67993  -0.395  12.937   8.721  4.2356 -0.3690 -0.7039
  504MOL0     H67994  -0.272  12.746   8.586 -1.8570  3.5121 -4.5683
  504MOL0     H67995  -0.402  12.643   8.665  1.0166 -0.3150 -0.1622
  504MOL0     H67996  -0.458  12.895   8.497 -1.1736 -0.2957 -1.6671
  504MOL0     H67997  -0.567  12.773   8.575 -0.3064 -3.7710 -0.2215
  504MOL0     H67998  -0.380  12.685   8.355  0.6299  0.1443  0.6039
  504MOL0     H67999  -0.531  12.762   8.328  1.6911  1.6546  0.1309
  504MOL0     H68000  -0.279  12.502   8.420 -0.1684  0.4442  1.8344
  504MOL0     H68001  -0.214  12.275   8.427 -0.9297 -0.4340 -1.7059
  504MOL0     H68002  -0.067  11.915   8.584  2.3843 -1.2054 -1.2094
  504MOL0     H68003   0.022  11.693   8.577  0.1447  2.1200  0.5462
  504MOL0     H68004   0.093  11.457   8.573 -0.7217  2.7694  0.1659
  504MOL0     H68005  -0.073  11.420   8.607  0.5871  0.5295  0.5631
  504MOL0     H68006  -0.087  11.226   8.450  0.6586 -1.2122 -0.9722
  504MOL0     H68007   0.082  11.259   8.404 -0.5626 -0.7741 -1.5966
  504MOL0     H68008   0.142  11.260   8.651 -0.7296  1.2404 -2.3238
  504MOL0     H68009  -0.008  11.153   8.677 -0.6071 -1.4880 -0.5163
  504MOL0     H68010   0.225  11.100   8.487  0.8413 -3.7649 -2.0759
  504MOL0     H68011   0.079  11.007   8.501  0.5707  2.3699 -2.1986
  504MOL0     H68012   0.132  10.932   8.723  1.8056 -0.3483  1.4780
  504MOL0     H68013   0.255  11.054   8.736 -0.9453 -1.2464  2.3882
  504MOL0     H68014   0.260  10.797   8.557 -0.1455  0.1043 -0.2912
  504MOL0     H68015   0.342  10.926   8.496 -1.3616 -1.7455 -1.3869
  504MOL0     H68016   0.367  10.796   8.775 -1.5681 -0.3589 -1.1304
  504MOL0     H68017   0.471  10.924   8.729  1.5897 -1.6954 -0.4588
  504MOL0     H68018   0.481  10.621   8.624 -3.0506  0.4553  1.2223
  504MOL0     H68019   0.533  10.744   8.515  0.7007 -0.8594  0.5176
  504MOL0     H68020  -0.238  11.564   8.287 -0.0139 -0.0884 -0.1595
  504MOL0     H68021  -0.348  11.802   8.268 -1.3309  1.2688  0.2937
  504MOL0     H68022  -0.611  12.175   8.555  0.0722  0.8702  0.5963
  504MOL0     H68023  -0.688  12.393   8.491 -0.6936  1.5439 -1.6766
  504MOL0     H68024   0.050  11.772   9.363  0.2870  0.9154 -2.1918
  504MOL0     H68025   0.070  11.533   9.380 -2.5180  1.9933 -4.5592
  504MOL0     H68026   0.372  11.188   9.278 -3.1195  1.0928  0.8474
  504MOL0     H68027   0.458  10.956   9.285 -2.7324 -0.3404 -0.6947
  504MOL0     H68028   0.367  10.691   9.610 -0.0520  0.0188 -1.4392
  504MOL0     H68029   0.500  10.788   9.701  1.2764 -1.7408  1.0518
  504MOL0     H68030   0.674  10.639   9.603  1.1649 -3.5105  0.8977
  504MOL0     H68031   0.557  10.549   9.531  1.6277  0.6564 -0.4382
  504MOL0     H68032   0.576  10.600   9.832  4.8446 -2.1695  0.1333
  504MOL0     H68033   0.637  10.458   9.751  0.4302 -0.3830 -1.5329
  504MOL0     H68034   0.397  10.419   9.880 -4.2925 -1.5668 -1.7509
  504MOL0     H68035   0.336  10.523   9.757 -0.5459 -0.5649  0.6259
  504MOL0     H68036   0.426  10.178   9.535 -3.7479  1.7671 -2.1946
  504MOL0     H68037   0.375  10.950   9.697 -1.8346 -1.0697 -0.9155
  504MOL0     H68038   0.338  11.159   9.818  1.7516 -1.1642 -0.4408
  504MOL0     H68039   0.223  11.257   9.768  0.0618 -0.0433  2.1634
  504MOL0     H68040   0.183  11.084   9.772  1.1088 -0.9576 -0.1582
  505MOL0     O68041   5.785   9.224   7.791 -0.5084  0.4423  0.3614
  505MOL0     C68042   5.853   9.123   7.790  0.4039  0.3131 -0.8777
  505MOL0     O68043   5.913   9.069   7.674 -0.0522  0.5661 -0.0861
  505MOL0     C68044   5.941   9.138   7.560  0.5494  0.7937 -0.5113
  505MOL0     C68045   6.063   9.114   7.499  1.3692 -0.3324  0.4627
  505MOL0     C68046   6.088   9.176   7.383 -0.8626  0.6397  0.2489
  505MOL0     C68047   6.014   9.281   7.337 -0.9103 -0.2044  0.2497
  505MOL0     O68048   6.066   9.341   7.224 -0.0229 -0.7506 -0.3186
  505MOL0     C68049   6.063   9.483   7.232  0.4774  0.3542 -0.6055
  505MOL0     C68050   6.118   9.552   7.116 -0.0850  0.4148  0.1333
  505MOL0     C68051   6.020   9.551   7.008  0.4717 -0.4376 -0.6547
  505MOL0     C68052   6.040   9.616   6.871 -0.1787  0.2722 -0.6620
  505MOL0     C68053   6.085   9.517   6.760 -0.1190  0.4733  0.6118
  505MOL0     C68054   6.105   9.591   6.625 -0.7558  0.3549  0.4360
  505MOL0     C68055   6.178   9.726   6.627  0.9114 -0.2667  0.5204
  505MOL0     C68056   6.202   9.785   6.486 -0.2523  0.0370  0.7122
  505MOL0     N68057   6.296   9.693   6.415  0.7639  0.2196 -0.5298
  505MOL0     C68058   6.266   9.614   6.307  0.5299  0.1171 -0.4947
  505MOL0     C68059   6.380   9.543   6.278 -0.5961 -0.0121  0.1250
  505MOL0     C68060   6.406   9.458   6.157  0.2187  0.1318 -0.7593
  505MOL0     C68061   6.453   9.313   6.199  0.2491  0.3757  0.2195
  505MOL0     C68062   6.481   9.215   6.082  0.3457 -0.5090 -0.2590
  505MOL0     C68063   6.452   9.072   6.112 -0.1883 -0.0376  0.1832
  505MOL0     O68064   6.568   8.995   6.154 -0.3430 -0.2755  0.9060
  505MOL0     C68065   6.622   9.014   6.279 -0.1669  0.3302 -0.5950
  505MOL0     C68066   6.755   8.993   6.287 -0.4522 -0.5713 -0.6459
  505MOL0     C68067   6.837   8.999   6.409  0.9430 -0.2483  0.4221
  505MOL0     C68068   6.759   9.020   6.523 -0.3976 -0.8539  0.0366
  505MOL0     C68069   6.816   9.034   6.655  0.0590 -1.2372 -0.8434
  505MOL0     O68070   6.740   8.996   6.761 -0.8027 -0.3596 -0.3479
  505MOL0     C68071   6.793   9.011   6.887  0.6315 -0.8232 -0.2380
  505MOL0     C68072   6.852   8.906   6.952 -0.3686  0.4929  0.3958
  505MOL0     C68073   6.916   8.936   7.074 -0.2952 -0.3466  0.1600
  505MOL0     C68074   6.924   9.075   7.119 -0.7310  0.6172 -0.2262
  505MOL0     O68075   6.989   9.099   7.238 -0.1803 -0.3722  0.1596
  505MOL0     C68076   7.013   9.232   7.279  0.7818 -0.3614  0.0704
  505MOL0     C68077   7.125   9.239   7.384  0.1622  0.1310  0.1076
  505MOL0     C68078   7.251   9.160   7.331  0.3623 -0.2822  0.2246
  505MOL0     C68079   7.349   9.135   7.454  0.6546 -0.6562 -0.1438
  505MOL0     C68080   7.290   9.015   7.536  0.1715 -0.9538 -0.1849
  505MOL0     C68081   7.401   8.971   7.637  0.2224  0.4174  0.5577
  505MOL0     C68082   7.450   9.072   7.731  0.2208 -0.2506 -0.1394
  505MOL0     C68083   7.574   9.008   7.816 -0.3382  0.3801  0.8270
  505MOL0    Cl68084   7.555   8.852   7.897 -0.4953 -0.2008 -0.2365
  505MOL0     C68085   6.861   9.175   7.049 -0.1755 -0.2177  0.3007
  505MOL0     C68086   6.793   9.142   6.937  0.5541  0.8385 -1.0470
  505MOL0     O68087   6.934   9.063   6.660 -0.9128  0.2940  0.6440
  505MOL0     C68088   6.619   9.053   6.518 -0.1027 -0.1492  1.0196
  505MOL0     C68089   6.551   9.041   6.396 -1.1232 -0.1890  0.5918
  505MOL0     N68090   6.469   9.572   6.373  0.1398 -0.2331  0.3304
  505MOL0     N68091   6.419   9.658   6.446  0.0275 -0.5130 -0.1288
  505MOL0     C68092   5.899   9.317   7.399 -0.7586 -0.0892 -0.1070
  505MOL0     C68093   5.855   9.243   7.517 -0.3769  0.5759 -0.2766
  505MOL0     C68094   5.883   9.059   7.921  0.2387  0.5514 -0.2045
  505MOL0     C68095   5.775   9.034   8.016 -0.0552 -0.2195  0.7370
  505MOL0     C68096   5.810   8.965   8.138  0.1348 -0.0882  1.1950
  505MOL0     C68097   5.947   8.930   8.167  0.4165 -0.0536  0.8197
  505MOL0     O68098   5.986   8.874   8.281  0.1195  0.1304  0.1904
  505MOL0     C68099   5.892   8.840   8.384 -0.3432  0.0886  0.3279
  505MOL0     C68100   5.950   8.765   8.499  0.2974 -1.1066 -0.0854
  505MOL0     C68101   6.075   8.829   8.567  0.3423  0.1001 -0.2254
  505MOL0     C68102   6.113   8.749   8.685  0.8590  0.7129  0.5871
  505MOL0     C68103   6.252   8.789   8.715  0.0078 -0.4051 -0.4486
  505MOL0     C68104   6.360   8.835   8.748 -0.5803  0.6125 -0.1084
  505MOL0     C68105   6.041   8.961   8.075 -0.2257 -0.2384 -0.4329
  505MOL0     C68106   6.018   9.015   7.950  0.3746  0.3805 -0.5482
  505MOL0     C68107   6.129   9.024   7.850 -0.6231 -0.8050  0.5331
  505MOL0     H68108   6.123   9.027   7.523  1.2886 -0.5615 -0.1717
  505MOL0     H68109   6.178   9.147   7.330  0.1030  0.3266  1.9774
  505MOL0     H68110   5.960   9.517   7.244  0.6728  0.8662 -0.3066
  505MOL0     H68111   6.126   9.504   7.319  0.6223 -0.3460 -0.5348
  505MOL0     H68112   6.202   9.489   7.086  1.5679  2.1888  0.8312
  505MOL0     H68113   6.176   9.644   7.128 -0.0052  0.9800 -3.5902
  505MOL0     H68114   5.938   9.605   7.058  0.9454 -1.7424  1.6625
  505MOL0     H68115   5.982   9.449   6.993 -0.2534 -0.5725  1.6034
  505MOL0     H68116   5.954   9.674   6.834 -2.6686 -1.7924  1.5344
  505MOL0     H68117   6.118   9.691   6.888  0.7292 -0.9945  0.9801
  505MOL0     H68118   6.183   9.473   6.778  1.1377  2.1903 -1.6456
  505MOL0     H68119   6.010   9.439   6.744 -2.2573  2.0805  2.1979
  505MOL0     H68120   6.162   9.523   6.562  1.6183  3.2212 -0.7220
  505MOL0     H68121   6.009   9.603   6.573 -2.5854  1.6918  3.8414
  505MOL0     H68122   6.275   9.717   6.676  2.4780  0.6911 -2.1691
  505MOL0     H68123   6.117   9.800   6.680  1.4897  0.6246 -0.0349
  505MOL0     H68124   6.107   9.797   6.433  1.2370  0.1112 -2.1552
  505MOL0     H68125   6.259   9.878   6.484  1.3644 -0.8973  1.1187
  505MOL0     H68126   6.180   9.618   6.240 -0.3089 -2.8026  0.2705
  505MOL0     H68127   6.315   9.455   6.096 -0.5179  0.3269  0.3036
  505MOL0     H68128   6.489   9.511   6.108  2.1852  0.1173  2.2577
  505MOL0     H68129   6.553   9.323   6.243  0.2601  1.9411 -0.0814
  505MOL0     H68130   6.371   9.272   6.258 -0.6976  1.3405 -0.4062
  505MOL0     H68131   6.588   9.223   6.061  0.6390 -0.9214  0.9911
  505MOL0     H68132   6.416   9.251   6.001 -2.3985  2.4142  2.9047
  505MOL0     H68133   6.423   9.032   6.015 -0.7417  4.0761 -1.5337
  505MOL0     H68134   6.370   9.061   6.183  2.1054  1.9998  3.4518
  505MOL0     H68135   6.808   8.957   6.200  0.3733  1.1639 -0.9141
  505MOL0     H68136   6.946   8.993   6.406  1.0043  1.0949 -1.1427
  505MOL0     H68137   6.858   8.806   6.910  0.7261  0.7825 -0.1856
  505MOL0     H68138   6.973   8.857   7.121 -0.2712  0.2378  1.1300
  505MOL0     H68139   7.040   9.283   7.186  1.1111 -0.4369  0.1259
  505MOL0     H68140   6.919   9.276   7.315 -1.0385 -2.6536 -1.5263
  505MOL0     H68141   7.164   9.340   7.397 -1.9881  0.9560  0.5685
  505MOL0     H68142   7.101   9.192   7.480  1.9937 -0.0629  0.5035
  505MOL0     H68143   7.243   9.063   7.281 -1.4043  0.2029 -0.5590
  505MOL0     H68144   7.306   9.214   7.254  1.4285 -1.3334  0.2232
  505MOL0     H68145   7.343   9.223   7.519  0.0828 -2.0293  1.7554
  505MOL0     H68146   7.452   9.106   7.429  0.5180 -1.8489  0.5994
  505MOL0     H68147   7.260   8.943   7.459 -2.4384  0.7199 -0.8800
  505MOL0     H68148   7.201   9.030   7.598  0.6330 -1.6690  0.6768
  505MOL0     H68149   7.359   8.880   7.681 -2.3068  1.2969  0.1492
  505MOL0     H68150   7.491   8.938   7.585 -0.4007 -3.2048  1.4906
  505MOL0     H68151   7.369   9.094   7.801 -2.0067 -0.0834 -2.6219
  505MOL0     H68152   7.478   9.169   7.689 -2.2823  0.2061 -0.9396
  505MOL0     H68153   7.652   9.011   7.739 -0.0884  1.6101  1.1001
  505MOL0     H68154   7.596   9.083   7.892 -0.4885 -0.2699  1.5194
  505MOL0     H68155   6.840   9.266   7.105  0.5992 -0.9107  1.7886
  505MOL0     H68156   6.730   9.217   6.891  1.1506  1.0903 -1.4653
  505MOL0     H68157   6.567   9.067   6.613 -1.2972 -3.8862  1.0754
  505MOL0     H68158   6.447   9.069   6.399 -0.6978  1.6054 -0.1466
  505MOL0     H68159   5.834   9.395   7.360 -0.0349  1.3786  1.5107
  505MOL0     H68160   5.761   9.270   7.564 -1.0808 -0.6961 -0.9237
  505MOL0     H68161   5.678   9.082   8.013  0.5880  1.0467 -0.7072
  505MOL0     H68162   5.728   8.945   8.207  0.4214  1.5203  2.0438
  505MOL0     H68163   5.814   8.770   8.352 -1.4314  0.5628  1.8677
  505MOL0     H68164   5.842   8.930   8.420 -0.1817 -0.9321  3.3700
  505MOL0     H68165   5.991   8.673   8.457 -0.2140 -0.0923 -3.0661
  505MOL0     H68166   5.877   8.748   8.578  2.1981  1.2005  2.3377
  505MOL0     H68167   6.052   8.931   8.599 -0.9465 -0.5591  1.0783
  505MOL0     H68168   6.149   8.845   8.488 -1.3612  2.5158 -1.4890
  505MOL0     H68169   6.053   8.764   8.775  0.1924 -0.0081  0.2772
  505MOL0     H68170   6.107   8.643   8.659 -1.3075  0.7675  0.7300
  505MOL0     H68171   6.453   8.865   8.791 -1.0992  3.2841 -0.6883
  505MOL0     H68172   6.145   8.935   8.091  0.0143  0.3348 -1.0388
  505MOL0     H68173   6.150   9.127   7.822 -1.2410 -0.9075 -0.3318
  505MOL0     H68174   6.232   9.000   7.881  0.0919  3.6657  2.4142
  505MOL0     H68175   6.102   8.963   7.763 -1.2936 -0.7667  0.7150
  506MOL0     O68176   8.651   5.156   3.334 -0.3651  0.8506 -0.2419
  506MOL0     C68177   8.702   5.260   3.284 -0.5177  0.2170  0.1958
  506MOL0     O68178   8.839   5.274   3.270  0.4157  0.7146 -0.0560
  506MOL0     C68179   8.935   5.169   3.283 -0.1534  0.4194 -0.1034
  506MOL0     C68180   9.064   5.219   3.280  0.4540 -0.6877  0.2098
  506MOL0     C68181   9.176   5.134   3.297  0.0943 -0.0494 -0.5179
  506MOL0     C68182   9.153   4.991   3.315 -0.2555 -1.0203 -0.2510
  506MOL0     O68183   9.270   4.909   3.317 -0.5819 -0.3660  0.6223
  506MOL0     C68184   9.247   4.771   3.346  0.8816  0.6593  0.4639
  506MOL0     C68185   9.385   4.713   3.321  0.4277  0.2127 -0.5089
  506MOL0     C68186   9.492   4.726   3.424  0.6332 -0.1818 -0.5588
  506MOL0     C68187   9.450   4.636   3.549  0.1533  0.1348  1.5259
  506MOL0     C68188   9.497   4.488   3.520 -0.3922 -0.7135 -0.6626
  506MOL0     C68189   9.463   4.386   3.625 -0.1506  0.0269 -0.6810
  506MOL0     C68190   9.536   4.408   3.766 -0.4649  0.7305  0.1142
  506MOL0     C68191   9.551   4.285   3.862 -0.0228 -0.0957  0.4740
  506MOL0     N68192   9.624   4.337   3.975  0.0167 -0.1402  0.3235
  506MOL0     C68193   9.584   4.371   4.099  0.5924  1.2135 -1.0160
  506MOL0     C68194   9.692   4.407   4.168 -0.7721 -0.0628 -0.1203
  506MOL0     C68195   9.711   4.439   4.305  0.5231  0.2305 -0.0522
  506MOL0     C68196   9.671   4.321   4.397 -0.1642 -0.6642  0.5058
  506MOL0     C68197   9.560   4.361   4.487  0.2105 -0.2970  0.0766
  506MOL0     C68198   9.481   4.236   4.547 -0.1106  0.5458 -0.3748
  506MOL0     O68199   9.369   4.296   4.619  0.3857 -0.6083 -0.9395
  506MOL0     C68200   9.352   4.271   4.753  0.0783  0.8889  0.7784
  506MOL0     C68201   9.224   4.287   4.795 -0.0950  0.3548 -0.0592
  506MOL0     C68202   9.193   4.278   4.930 -0.0977 -0.7108  0.4519
  506MOL0     C68203   9.301   4.268   5.028 -0.0124  0.4413 -0.5795
  506MOL0     C68204   9.257   4.272   5.174 -0.9046  0.2780  0.9543
  506MOL0     O68205   9.336   4.205   5.259 -0.1549  0.7034 -0.0717
  506MOL0     C68206   9.307   4.195   5.392  0.0345 -1.4069  0.0570
  506MOL0     C68207   9.340   4.308   5.468 -0.2860 -0.0195 -0.1274
  506MOL0     C68208   9.333   4.312   5.613 -0.1017 -0.3453  0.3445
  506MOL0     C68209   9.292   4.194   5.679 -0.0736 -0.1909 -0.4706
  506MOL0     O68210   9.298   4.208   5.822 -0.3250  0.3687  0.5891
  506MOL0     C68211   9.229   4.111   5.892  0.0535  1.0863 -0.7154
  506MOL0     C68212   9.193   4.156   6.031  0.6006 -0.7483  0.0151
  506MOL0     C68213   9.101   4.278   6.018  0.2313 -1.1066  0.3170
  506MOL0     C68214   9.042   4.313   6.151 -0.0243  0.1147 -0.0322
  506MOL0     C68215   9.006   4.457   6.171  0.0239 -0.3963 -0.6897
  506MOL0     C68216   9.125   4.559   6.179 -0.0544 -0.1265 -0.0555
  506MOL0     C68217   9.071   4.697   6.236  0.9879  0.3544  0.5427
  506MOL0     C68218   8.958   4.750   6.146  0.2458 -0.4497  0.0735
  506MOL0    Cl68219   9.014   4.786   5.976  0.0357 -0.2678 -0.7219
  506MOL0     C68220   9.273   4.065   5.600 -1.0524  0.0983  0.4501
  506MOL0     C68221   9.277   4.078   5.460  0.8879  0.8267  0.7546
  506MOL0     O68222   9.172   4.353   5.207 -0.1373  0.1061  0.1249
  506MOL0     C68223   9.431   4.232   4.988 -0.7465  0.4500  0.6730
  506MOL0     C68224   9.455   4.235   4.849 -0.0424 -1.1392 -0.1398
  506MOL0     N68225   9.800   4.396   4.084  0.4765  0.1354 -0.5025
  506MOL0     N68226   9.755   4.357   3.972  0.2672 -0.0588  0.5077
  506MOL0     C68227   9.022   4.948   3.315  0.4819  0.2294 -0.0961
  506MOL0     C68228   8.918   5.033   3.297 -0.1756  0.1407 -0.9852
  506MOL0     C68229   8.617   5.372   3.232  0.4440  0.8703  0.9683
  506MOL0     C68230   8.677   5.449   3.128  0.3624 -0.0780 -0.5087
  506MOL0     C68231   8.600   5.539   3.059 -0.2975 -0.5952 -1.6310
  506MOL0     C68232   8.463   5.556   3.101 -0.2381 -0.1011 -0.0024
  506MOL0     O68233   8.393   5.668   3.044  0.5586  0.0701  0.4182
  506MOL0     C68234   8.250   5.664   3.050  0.2477  0.5451  0.5801
  506MOL0     C68235   8.183   5.763   2.969  0.6330  0.9052  0.0840
  506MOL0     C68236   8.218   5.765   2.822 -0.3475 -0.2391  0.7422
  506MOL0     C68237   8.122   5.851   2.738  0.3331  0.4405 -0.3842
  506MOL0     C68238   8.176   5.978   2.730 -0.8120 -0.9076  0.2957
  506MOL0     C68239   8.234   6.086   2.707 -0.0994 -0.4954 -0.7126
  506MOL0     C68240   8.410   5.479   3.202 -0.4473 -0.1702 -0.6235
  506MOL0     C68241   8.484   5.397   3.275  0.4572 -0.0154  0.6993
  506MOL0     C68242   8.416   5.326   3.386 -0.1156  0.4243 -0.8825
  506MOL0     H68243   9.076   5.322   3.247  0.3799 -0.8667 -0.3802
  506MOL0     H68244   9.271   5.183   3.315 -0.0139  0.1716 -0.5385
  506MOL0     H68245   9.212   4.768   3.450  2.3714  1.9116  1.0413
  506MOL0     H68246   9.177   4.729   3.274 -0.2455  1.1373  1.2514
  506MOL0     H68247   9.426   4.768   3.236  4.2385 -1.9972 -0.3171
  506MOL0     H68248   9.365   4.614   3.281 -2.7655  0.3664  0.4288
  506MOL0     H68249   9.487   4.827   3.464  2.7480 -0.8032  1.4457
  506MOL0     H68250   9.593   4.713   3.384 -0.7601 -1.8861 -3.9502
  506MOL0     H68251   9.507   4.674   3.634 -1.8340  4.0057  1.3595
  506MOL0     H68252   9.342   4.629   3.566  0.5358 -1.5068  3.6063
  506MOL0     H68253   9.443   4.450   3.432  0.7532  0.0410 -1.7094
  506MOL0     H68254   9.605   4.474   3.514 -0.1601  1.1575 -1.5047
  506MOL0     H68255   9.355   4.397   3.643 -0.1194  1.3275 -1.1829
  506MOL0     H68256   9.490   4.286   3.589  0.9666  0.7312 -1.8808
  506MOL0     H68257   9.493   4.488   3.827  1.4956  1.9257  0.0073
  506MOL0     H68258   9.637   4.436   3.736 -0.1409 -1.6013 -1.2686
  506MOL0     H68259   9.447   4.260   3.885 -0.1287  2.0932  2.6931
  506MOL0     H68260   9.606   4.202   3.816 -2.9598 -0.7583 -2.2121
  506MOL0     H68261   9.484   4.358   4.140  0.9807 -3.9465 -1.0347
  506MOL0     H68262   9.812   4.468   4.334 -0.2632 -0.7704  4.4760
  506MOL0     H68263   9.653   4.528   4.333  2.8511  1.0085  2.7509
  506MOL0     H68264   9.641   4.239   4.331  0.2798 -0.3784 -0.0674
  506MOL0     H68265   9.762   4.296   4.452  0.0944 -0.8803 -0.0072
  506MOL0     H68266   9.486   4.430   4.445 -2.0742 -0.7791  3.0148
  506MOL0     H68267   9.601   4.415   4.572  1.6164  1.6381 -1.7350
  506MOL0     H68268   9.538   4.166   4.608 -1.5152  1.4457  2.1210
  506MOL0     H68269   9.432   4.180   4.467 -1.9643  0.3489  0.8243
  506MOL0     H68270   9.142   4.303   4.726 -1.5166  0.3325  1.5573
  506MOL0     H68271   9.090   4.303   4.954 -1.0111 -0.6361 -2.9952
  506MOL0     H68272   9.357   4.409   5.435 -3.1633  1.1449  1.5804
  506MOL0     H68273   9.357   4.402   5.668 -0.7957 -1.2086  2.1381
  506MOL0     H68274   9.145   4.077   5.831 -0.5865  2.0537 -0.4048
  506MOL0     H68275   9.294   4.025   5.908  0.8223  2.1511  2.9982
  506MOL0     H68276   9.156   4.082   6.104 -1.0448 -0.3193 -0.3441
  506MOL0     H68277   9.290   4.177   6.076 -1.1328  1.1506  3.2987
  506MOL0     H68278   9.164   4.362   5.990  1.6240 -1.8838  0.9802
  506MOL0     H68279   9.025   4.261   5.942  1.4835 -2.2570 -0.7269
  506MOL0     H68280   9.119   4.283   6.222  1.2511 -1.2085 -1.8588
  506MOL0     H68281   8.952   4.251   6.156  0.1385 -0.2851 -1.4804
  506MOL0     H68282   8.954   4.463   6.267  1.4348 -2.3048  0.2647
  506MOL0     H68283   8.949   4.479   6.080  0.5643  1.1149 -0.6919
  506MOL0     H68284   9.206   4.525   6.244  0.3615  2.6322  0.9749
  506MOL0     H68285   9.165   4.573   6.078  1.8647 -1.0925  0.5228
  506MOL0     H68286   9.152   4.767   6.217  0.0556  1.0272 -1.2535
  506MOL0     H68287   9.046   4.697   6.342 -1.1971  4.2162  0.2408
  506MOL0     H68288   8.865   4.692   6.151  0.9365 -1.5214  3.4940
  506MOL0     H68289   8.928   4.849   6.184  1.7136  0.3621 -0.7973
  506MOL0     H68290   9.252   3.971   5.650 -1.1234  1.4060  3.1209
  506MOL0     H68291   9.256   3.988   5.403 -3.3781  2.0897 -0.0691
  506MOL0     H68292   9.512   4.212   5.057  0.0351  1.4801  0.0814
  506MOL0     H68293   9.548   4.201   4.804 -0.3727 -1.4078 -0.6311
  506MOL0     H68294   9.010   4.840   3.315  1.1776  0.1477  0.3795
  506MOL0     H68295   8.821   4.984   3.301  1.1245 -2.5861 -0.5307
  506MOL0     H68296   8.780   5.443   3.095  0.8143 -0.4253  0.9037
  506MOL0     H68297   8.635   5.602   2.977 -0.3505 -0.9796 -1.9509
  506MOL0     H68298   8.218   5.689   3.151 -0.1423  4.8633 -0.4148
  506MOL0     H68299   8.205   5.568   3.024 -0.6747  0.4917  2.2692
  506MOL0     H68300   8.212   5.858   3.014  0.3281  1.0758 -0.0760
  506MOL0     H68301   8.075   5.745   2.978  0.3763 -2.2962 -5.2429
  506MOL0     H68302   8.206   5.664   2.781  1.5342  0.0606 -0.6549
  506MOL0     H68303   8.317   5.808   2.805 -0.5574 -0.3219 -0.8353
  506MOL0     H68304   8.110   5.816   2.635 -0.5365  3.1228 -1.2788
  506MOL0     H68305   8.023   5.841   2.783 -0.4017  0.7368 -1.8565
  506MOL0     H68306   8.259   6.182   2.666  1.9998 -0.3374  0.8133
  506MOL0     H68307   8.304   5.477   3.226 -0.6997 -2.6098 -1.5265
  506MOL0     H68308   8.474   5.314   3.478  1.2960  2.3751 -1.4516
  506MOL0     H68309   8.321   5.371   3.413 -0.6653 -1.9560  1.6306
  506MOL0     H68310   8.396   5.223   3.355 -3.9001  1.1471 -1.2283
  507MOL0     O68311   5.320   7.677   8.323  0.5539 -0.5449  0.2365
  507MOL0     C68312   5.217   7.717   8.387 -0.3620 -0.3459 -0.5725
  507MOL0     O68313   5.080   7.721   8.345  0.0601  0.3860 -0.1305
  507MOL0     C68314   5.052   7.694   8.213 -0.0736  0.4479 -0.7692
  507MOL0     C68315   5.119   7.740   8.092  0.3892  0.0024 -0.2290
  507MOL0     C68316   5.071   7.724   7.964 -0.2600  1.8885  0.1495
  507MOL0     C68317   4.930   7.681   7.948  0.2847 -0.1718  0.3155
  507MOL0     O68318   4.880   7.685   7.818  0.1216  0.1215 -0.2533
  507MOL0     C68319   4.744   7.632   7.798 -0.4956 -0.4457  0.1801
  507MOL0     C68320   4.725   7.656   7.648  0.0712 -0.7002 -0.7512
  507MOL0     C68321   4.580   7.623   7.589  0.6356 -0.2252  0.0518
  507MOL0     C68322   4.542   7.473   7.581 -0.3252 -0.6774 -0.1050
  507MOL0     C68323   4.413   7.443   7.510  0.3274 -0.3146  0.2352
  507MOL0     C68324   4.398   7.293   7.504 -0.1712  1.0751  0.6305
  507MOL0     C68325   4.262   7.270   7.426 -0.6260  0.6007  0.0685
  507MOL0     C68326   4.244   7.133   7.372  0.5474  0.4528  0.8187
  507MOL0     N68327   4.199   7.034   7.471  0.7067  0.9468 -0.6436
  507MOL0     C68328   4.276   6.929   7.520 -0.1503 -0.6308  0.0283
  507MOL0     C68329   4.203   6.878   7.625  0.3263  0.3229 -0.1281
  507MOL0     C68330   4.220   6.744   7.704 -0.3177 -0.3217 -0.2357
  507MOL0     C68331   4.340   6.739   7.798  1.5482  0.1728 -0.2756
  507MOL0     C68332   4.389   6.604   7.844 -0.0106 -0.3217  0.0876
  507MOL0     C68333   4.294   6.523   7.937 -0.0760 -0.1231  0.2225
  507MOL0     O68334   4.249   6.599   8.048  0.3176  0.1627  0.5368
  507MOL0     C68335   4.151   6.546   8.130  0.0832 -0.1720  0.2824
  507MOL0     C68336   4.162   6.426   8.185 -0.9103 -1.0172  0.3118
  507MOL0     C68337   4.068   6.372   8.270  0.0373  0.2254 -0.1139
  507MOL0     C68338   3.954   6.445   8.313 -0.8165 -0.3970  0.3403
  507MOL0     C68339   3.857   6.385   8.404 -0.2767 -0.6844  0.3351
  507MOL0     O68340   3.905   6.261   8.463  0.3052  0.3567  0.1075
  507MOL0     C68341   3.814   6.204   8.547 -0.7350 -0.4037 -0.3117
  507MOL0     C68342   3.691   6.163   8.509 -0.5269  0.4096  0.1246
  507MOL0     C68343   3.599   6.121   8.612  0.5632  0.1093 -0.5413
  507MOL0     C68344   3.638   6.109   8.747  0.2378  0.0270 -0.2592
  507MOL0     O68345   3.548   6.071   8.839  0.4102  0.0325  0.1881
  507MOL0     C68346   3.448   6.168   8.861 -0.5166  0.0942  0.9669
  507MOL0     C68347   3.412   6.213   8.999 -1.2346  0.1945 -0.2270
  507MOL0     C68348   3.336   6.112   9.079  0.8095  0.2513  0.4230
  507MOL0     C68349   3.428   6.037   9.180 -0.0343  1.0207  0.2741
  507MOL0     C68350   3.379   5.895   9.189 -0.0963 -0.5401 -0.3749
  507MOL0     C68351   3.239   5.875   9.255  0.3083  0.0196  0.9500
  507MOL0     C68352   3.234   5.919   9.400 -0.4217  0.6293  0.4207
  507MOL0     C68353   3.350   5.872   9.487 -0.2346 -0.2359  0.6072
  507MOL0    Cl68354   3.292   5.879   9.663  0.0949 -0.2556 -0.1814
  507MOL0     C68355   3.776   6.122   8.781  0.1646 -0.5157 -0.2749
  507MOL0     C68356   3.858   6.177   8.683 -0.0112  0.4711  0.6018
  507MOL0     O68357   3.746   6.440   8.416  0.4729  0.5014 -0.3921
  507MOL0     C68358   3.929   6.571   8.246  0.2979  0.3422  0.4101
  507MOL0     C68359   4.032   6.613   8.146  0.2650  0.0065  0.2337
  507MOL0     N68360   4.095   6.959   7.642  0.6868 -0.0857 -0.1886
  507MOL0     N68361   4.096   7.050   7.557  1.2158  0.1492 -0.0349
  507MOL0     C68362   4.866   7.638   8.064 -1.5576 -0.2905  0.0461
  507MOL0     C68363   4.925   7.652   8.189  0.4300  0.5811 -0.6597
  507MOL0     C68364   5.241   7.760   8.518  0.2598  1.3127  0.3992
  507MOL0     C68365   5.228   7.899   8.535 -0.1578 -0.2971  0.2684
  507MOL0     C68366   5.233   7.947   8.660  0.5060  0.0229 -0.2878
  507MOL0     C68367   5.236   7.858   8.773  0.1588 -0.8318 -0.7610
  507MOL0     O68368   5.243   7.930   8.894  0.4000  0.3298  0.1141
  507MOL0     C68369   5.202   7.842   9.005  0.1393  0.1369  0.0792
  507MOL0     C68370   5.196   7.907   9.142  1.1516 -0.8631 -0.8344
  507MOL0     C68371   5.055   7.957   9.174  0.1205 -0.0877  0.6105
  507MOL0     C68372   5.023   7.963   9.327 -0.3379  1.0609 -0.1263
  507MOL0     C68373   5.030   7.822   9.385  0.3031  0.5788 -0.6052
  507MOL0     C68374   5.045   7.717   9.443  0.3650  0.6204  0.4903
  507MOL0     C68375   5.236   7.719   8.753 -0.5220 -0.1818  0.2994
  507MOL0     C68376   5.244   7.667   8.624  0.6697 -0.7378 -0.0357
  507MOL0     C68377   5.236   7.525   8.610  0.2873  0.6599 -0.2375
  507MOL0     H68378   5.223   7.773   8.095  0.0310  1.6840 -2.8884
  507MOL0     H68379   5.131   7.749   7.876  1.9818  0.1962  1.1002
  507MOL0     H68380   4.738   7.525   7.822  2.1470 -0.6790  0.1543
  507MOL0     H68381   4.662   7.682   7.849 -0.8669 -1.2259  0.3641
  507MOL0     H68382   4.807   7.602   7.598  2.6549  0.0873  2.3130
  507MOL0     H68383   4.750   7.758   7.618  1.1758 -0.7893 -0.1722
  507MOL0     H68384   4.559   7.678   7.497 -3.9495  3.0294  2.6167
  507MOL0     H68385   4.519   7.674   7.664  2.8106  1.2580  0.8995
  507MOL0     H68386   4.623   7.415   7.536  1.2661  0.2689  1.4031
  507MOL0     H68387   4.534   7.427   7.680 -2.2831 -1.9682 -0.7965
  507MOL0     H68388   4.328   7.475   7.570  0.3427 -0.9309  0.5957
  507MOL0     H68389   4.401   7.487   7.411 -0.9425 -1.9741 -0.3797
  507MOL0     H68390   4.484   7.250   7.454  0.8235  0.7480  2.5164
  507MOL0     H68391   4.391   7.246   7.603 -3.1118 -2.6824 -1.1214
  507MOL0     H68392   4.251   7.350   7.352 -0.3479  0.8044  0.2443
  507MOL0     H68393   4.179   7.279   7.497 -2.1428  0.1382 -1.5625
  507MOL0     H68394   4.159   7.132   7.303  1.1350 -1.0676  0.0597
  507MOL0     H68395   4.330   7.094   7.317 -1.0839 -0.9716 -0.8692
  507MOL0     H68396   4.369   6.891   7.480 -0.4505 -3.7194  1.9387
  507MOL0     H68397   4.137   6.727   7.774 -0.3440 -0.5319 -0.3180
  507MOL0     H68398   4.212   6.667   7.627  0.5797  0.8342 -1.5291
  507MOL0     H68399   4.422   6.781   7.740 -0.6613  0.7584 -3.2437
  507MOL0     H68400   4.308   6.798   7.884 -1.1464 -0.6242 -0.6131
  507MOL0     H68401   4.484   6.607   7.898  0.0325  1.5946 -0.0383
  507MOL0     H68402   4.411   6.541   7.757 -1.0916 -1.1831  0.4159
  507MOL0     H68403   4.331   6.422   7.956 -1.7885 -1.4523 -2.7321
  507MOL0     H68404   4.211   6.496   7.872  1.5785  2.0572 -3.0948
  507MOL0     H68405   4.252   6.381   8.146 -1.4459 -0.2186 -2.0546
  507MOL0     H68406   4.089   6.271   8.305  1.5931  1.0368  1.4600
  507MOL0     H68407   3.658   6.162   8.405 -0.9187 -0.3345  0.2556
  507MOL0     H68408   3.500   6.090   8.581  0.4521  0.7372 -0.8140
  507MOL0     H68409   3.478   6.258   8.807 -3.2108  0.0162 -0.8631
  507MOL0     H68410   3.357   6.130   8.814 -1.1622  2.1927  0.4619
  507MOL0     H68411   3.494   6.246   9.062 -4.5346  1.2157  3.9549
  507MOL0     H68412   3.347   6.298   8.977 -0.9401  0.8022  1.1743
  507MOL0     H68413   3.269   6.177   9.137  1.4991  1.3190  0.0534
  507MOL0     H68414   3.287   6.052   9.002 -1.2352  0.8967  1.1665
  507MOL0     H68415   3.416   6.079   9.280 -3.6277  0.9508  0.0078
  507MOL0     H68416   3.535   6.054   9.162 -0.3336  2.2220 -0.4748
  507MOL0     H68417   3.454   5.828   9.232  0.7596 -0.4192 -1.6368
  507MOL0     H68418   3.385   5.857   9.087  2.1501 -0.0920 -0.4691
  507MOL0     H68419   3.160   5.930   9.203  0.9545 -0.2654 -0.3871
  507MOL0     H68420   3.198   5.774   9.251  0.4600 -0.1207  2.5493
  507MOL0     H68421   3.148   5.869   9.446  1.4006 -2.5217  0.7244
  507MOL0     H68422   3.223   6.027   9.410  0.5629  0.8539 -0.6665
  507MOL0     H68423   3.378   5.772   9.453  1.0251  0.9569 -2.1994
  507MOL0     H68424   3.442   5.928   9.474  0.5377 -1.0262  2.3625
  507MOL0     H68425   3.817   6.107   8.880 -3.2538  3.1080  1.9857
  507MOL0     H68426   3.961   6.205   8.705  0.2192 -0.7570  1.1999
  507MOL0     H68427   3.829   6.611   8.264 -1.7769 -2.4182 -3.4971
  507MOL0     H68428   4.025   6.704   8.086 -0.0328 -0.0991  0.1059
  507MOL0     H68429   4.768   7.593   8.047 -1.2072 -0.0791 -3.1749
  507MOL0     H68430   4.862   7.627   8.274  0.8748  1.0102 -0.2005
  507MOL0     H68431   5.212   7.962   8.448  0.8614  0.0130  0.3006
  507MOL0     H68432   5.214   8.052   8.679  2.9087 -0.0939  3.6111
  507MOL0     H68433   5.269   7.758   9.028 -2.4903 -2.9740 -2.6173
  507MOL0     H68434   5.109   7.790   8.981 -0.1934  0.4136  0.7315
  507MOL0     H68435   5.268   7.987   9.160  0.2283 -0.0095 -0.8590
  507MOL0     H68436   5.226   7.831   9.214 -2.1931 -2.9816 -1.4420
  507MOL0     H68437   4.980   7.892   9.128 -1.3305  1.7006  0.3110
  507MOL0     H68438   5.039   8.054   9.125 -1.1218 -1.0231 -0.9155
  507MOL0     H68439   5.109   8.014   9.370  0.5999  0.7865 -1.6146
  507MOL0     H68440   4.928   8.010   9.354 -0.4114  0.3345  0.9718
  507MOL0     H68441   5.072   7.631   9.500  1.7186  0.2331 -0.6658
  507MOL0     H68442   5.259   7.653   8.837  1.8032  2.2331  1.7060
  507MOL0     H68443   5.207   7.474   8.702  3.4946 -1.6047 -0.3213
  507MOL0     H68444   5.170   7.498   8.527 -0.8506  1.7341  0.2997
  507MOL0     H68445   5.338   7.488   8.596  1.9693  4.0143  1.8510
  508MOL0     O68446   5.106   4.825   4.671 -0.4443 -0.8921  0.3232
  508MOL0     C68447   5.089   4.861   4.556  0.0229  0.6119  0.0891
  508MOL0     O68448   5.057   4.985   4.521  0.2166 -0.3780 -0.8010
  508MOL0     C68449   5.069   5.077   4.630 -0.2212  0.1108  0.6926
  508MOL0     C68450   4.955   5.119   4.693 -0.0975  0.4154 -0.1937
  508MOL0     C68451   4.954   5.219   4.792 -0.4304  0.1568  0.2944
  508MOL0     C68452   5.074   5.283   4.822  1.2275 -0.9268  0.4662
  508MOL0     O68453   5.073   5.392   4.910  0.1032 -0.0002 -0.0121
  508MOL0     C68454   5.102   5.517   4.853 -0.4501 -0.2753 -0.0033
  508MOL0     C68455   5.061   5.623   4.956 -0.0461 -0.7254 -0.0071
  508MOL0     C68456   4.913   5.665   4.940  0.1249 -0.1537 -0.4578
  508MOL0     C68457   4.851   5.701   5.082  0.9354  0.2714 -0.2328
  508MOL0     C68458   4.696   5.681   5.078  1.6280  0.2308 -0.4539
  508MOL0     C68459   4.615   5.728   5.207  0.0719 -0.2099 -0.8021
  508MOL0     C68460   4.617   5.876   5.236  0.1922  0.0081 -0.4767
  508MOL0     C68461   4.494   5.944   5.174  0.6197  0.0006 -0.4110
  508MOL0     N68462   4.480   5.951   5.035  0.1928 -0.3083  0.7838
  508MOL0     C68463   4.399   5.866   4.959  0.7238 -0.2042  0.0221
  508MOL0     C68464   4.427   5.912   4.835 -0.2242  0.2733 -1.5120
  508MOL0     C68465   4.394   5.850   4.703 -1.1337  0.1265 -0.3306
  508MOL0     C68466   4.467   5.719   4.686 -1.0856 -0.2351  0.3659
  508MOL0     C68467   4.443   5.666   4.548  0.0080 -0.2357  1.1881
  508MOL0     C68468   4.479   5.523   4.515 -0.3397 -0.1526 -0.3438
  508MOL0     O68469   4.621   5.523   4.545 -0.0718  1.0390 -0.1523
  508MOL0     C68470   4.713   5.447   4.479 -1.4271  0.4825  0.1566
  508MOL0     C68471   4.850   5.469   4.512  0.1454  0.2425 -0.9056
  508MOL0     C68472   4.955   5.399   4.466 -0.1450  0.5135  0.5337
  508MOL0     C68473   4.926   5.300   4.364 -0.0954  0.6093 -0.9691
  508MOL0     C68474   5.044   5.236   4.285  0.8104 -0.9007  0.1508
  508MOL0     O68475   5.002   5.139   4.204 -0.7381  0.1195 -0.1366
  508MOL0     C68476   5.078   5.077   4.108 -0.1145 -0.0036 -0.8106
  508MOL0     C68477   5.214   5.102   4.089  0.8687 -0.0763 -0.5055
  508MOL0     C68478   5.278   5.024   3.995 -0.6927  0.4511  0.3800
  508MOL0     C68479   5.222   4.913   3.929  0.0838 -0.8226 -0.0384
  508MOL0     O68480   5.287   4.829   3.847 -0.0780  0.0058 -0.2775
  508MOL0     C68481   5.412   4.870   3.785  0.4015  1.1115 -0.0527
  508MOL0     C68482   5.440   4.797   3.648 -0.4097  0.1001 -0.8095
  508MOL0     C68483   5.409   4.649   3.661  0.2993 -0.3840 -0.3059
  508MOL0     C68484   5.480   4.553   3.562 -0.4666  0.0256 -0.2059
  508MOL0     C68485   5.372   4.533   3.453  0.1122  0.5738  0.1853
  508MOL0     C68486   5.416   4.427   3.344  0.1621 -0.2363  0.2157
  508MOL0     C68487   5.313   4.415   3.226 -0.7698 -0.8166  0.7888
  508MOL0     C68488   5.362   4.334   3.111  0.2554  0.1445  0.8680
  508MOL0    Cl68489   5.235   4.312   2.985  0.1980 -0.2316 -0.6712
  508MOL0     C68490   5.083   4.903   3.945  0.4965  0.1537 -0.3653
  508MOL0     C68491   5.017   4.976   4.039 -0.2840  0.4189 -0.4361
  508MOL0     O68492   5.154   5.285   4.300  0.1538  0.3522 -0.4240
  508MOL0     C68493   4.796   5.278   4.332 -0.4050 -0.1104  0.5441
  508MOL0     C68494   4.691   5.342   4.387 -0.2797  0.4891  0.1332
  508MOL0     N68495   4.493   6.029   4.833 -0.5908  0.0238 -0.5823
  508MOL0     N68496   4.526   6.059   4.960 -0.1116  0.8022  0.3916
  508MOL0     C68497   5.195   5.235   4.764  0.0195 -0.0042 -0.5916
  508MOL0     C68498   5.192   5.130   4.663 -0.0580  0.3666  0.7129
  508MOL0     C68499   5.114   4.758   4.451  0.1874  0.1628 -0.0843
  508MOL0     C68500   5.178   4.789   4.332  0.4620  0.4124 -0.2373
  508MOL0     C68501   5.190   4.703   4.230  0.2815  0.1548 -1.0400
  508MOL0     C68502   5.159   4.567   4.258 -0.0857  1.1250  0.8177
  508MOL0     O68503   5.168   4.459   4.165 -0.4528 -0.5887 -0.2584
  508MOL0     C68504   5.233   4.482   4.042  0.0240 -0.0172 -0.7058
  508MOL0     C68505   5.375   4.451   4.049 -0.5693  0.6483 -0.5114
  508MOL0     C68506   5.419   4.303   4.085  0.2752 -0.5184 -0.3119
  508MOL0     C68507   5.571   4.286   4.095  0.4033  0.7230  0.4075
  508MOL0     C68508   5.616   4.146   4.100 -0.4523 -0.6015 -0.8890
  508MOL0     C68509   5.641   4.025   4.126 -0.3061 -0.9856 -0.4429
  508MOL0     C68510   5.084   4.533   4.371 -0.2510  0.3262  0.1490
  508MOL0     C68511   5.068   4.627   4.471 -0.0347 -0.6693 -0.9019
  508MOL0     C68512   4.981   4.586   4.587 -0.5858 -0.3448  0.1751
  508MOL0     H68513   4.860   5.083   4.656  0.4994 -3.0040  1.2084
  508MOL0     H68514   4.860   5.248   4.839  0.4639 -0.0682  2.3390
  508MOL0     H68515   5.209   5.522   4.831  0.1278 -3.1841  1.6325
  508MOL0     H68516   5.048   5.528   4.758  1.0322  0.1332 -0.8306
  508MOL0     H68517   5.115   5.718   4.955 -2.5742  0.8396  1.4963
  508MOL0     H68518   5.070   5.576   5.055 -0.6773 -0.3961  0.2143
  508MOL0     H68519   4.850   5.586   4.897 -0.9891  0.8719 -0.7494
  508MOL0     H68520   4.898   5.746   4.868 -3.0312  0.0543  0.2885
  508MOL0     H68521   4.879   5.628   5.159 -3.8280 -2.2339 -0.5385
  508MOL0     H68522   4.875   5.804   5.111 -0.0202 -0.1836  2.5206
  508MOL0     H68523   4.651   5.738   4.997 -0.5703 -0.6191  0.1105
  508MOL0     H68524   4.675   5.574   5.068 -1.4859  0.2678  3.3990
  508MOL0     H68525   4.513   5.689   5.212 -0.4613  1.2792  0.6403
  508MOL0     H68526   4.681   5.677   5.279 -1.3131 -1.7517 -0.5585
  508MOL0     H68527   4.706   5.923   5.193 -0.0247  0.7523 -0.1272
  508MOL0     H68528   4.634   5.908   5.339  1.2719  1.0310 -0.9517
  508MOL0     H68529   4.407   5.887   5.209  1.6858 -1.1557  0.4160
  508MOL0     H68530   4.483   6.041   5.223 -0.5334 -1.4261  2.3982
  508MOL0     H68531   4.344   5.781   4.997 -0.0061 -1.0371 -2.6929
  508MOL0     H68532   4.290   5.839   4.673 -0.8827 -1.0225 -0.8376
  508MOL0     H68533   4.435   5.916   4.626 -1.5036  1.0090  0.2114
  508MOL0     H68534   4.574   5.740   4.700 -1.4616  0.2370  2.9665
  508MOL0     H68535   4.440   5.643   4.759  1.4877  0.7228  2.4915
  508MOL0     H68536   4.480   5.725   4.464 -2.3624 -0.1859  0.1025
  508MOL0     H68537   4.337   5.686   4.531 -0.1206 -1.6509  0.1334
  508MOL0     H68538   4.445   5.501   4.414 -0.7444 -2.3804  0.2252
  508MOL0     H68539   4.425   5.447   4.572 -0.5385  1.3723  1.6125
  508MOL0     H68540   4.867   5.555   4.576 -1.0862  0.0617 -0.3214
  508MOL0     H68541   5.058   5.414   4.498  0.1282 -1.5079  0.7038
  508MOL0     H68542   5.281   5.183   4.118  0.9643 -0.5564  0.6331
  508MOL0     H68543   5.384   5.043   3.979 -0.9043 -0.0591 -1.9931
  508MOL0     H68544   5.401   4.978   3.766 -0.5913  0.7936 -1.4746
  508MOL0     H68545   5.501   4.839   3.841  0.2058  2.0035  0.7857
  508MOL0     H68546   5.381   4.839   3.566  2.8514 -0.3193 -3.5838
  508MOL0     H68547   5.544   4.808   3.617 -0.3914  0.0213 -0.7768
  508MOL0     H68548   5.469   4.621   3.748  0.5856 -0.4478 -0.5215
  508MOL0     H68549   5.301   4.636   3.653  0.5770 -2.3187 -1.3328
  508MOL0     H68550   5.496   4.458   3.613 -3.1778 -0.4815 -0.1105
  508MOL0     H68551   5.573   4.590   3.518 -0.0467 -2.9960 -2.1491
  508MOL0     H68552   5.350   4.629   3.405 -0.8251 -0.9304 -2.5596
  508MOL0     H68553   5.279   4.498   3.497 -0.0200  1.4057  0.5959
  508MOL0     H68554   5.514   4.451   3.300 -1.5875  0.0606 -3.9612
  508MOL0     H68555   5.423   4.330   3.394 -2.0917  0.6309  2.4319
  508MOL0     H68556   5.275   4.513   3.197 -0.4501 -0.4854  1.4728
  508MOL0     H68557   5.240   4.350   3.275 -0.5572 -1.6379  0.0365
  508MOL0     H68558   5.452   4.376   3.066 -1.4794  2.9989 -0.2481
  508MOL0     H68559   5.381   4.231   3.141 -0.7717  0.0434  1.2094
  508MOL0     H68560   5.022   4.826   3.899  0.4614 -1.2350  1.8442
  508MOL0     H68561   4.914   4.978   4.072  0.0390  3.9116  0.8024
  508MOL0     H68562   4.784   5.206   4.252  1.3097 -2.2087  2.0692
  508MOL0     H68563   4.589   5.312   4.365  0.3797 -1.0790 -1.0007
  508MOL0     H68564   5.293   5.270   4.795  0.3107 -1.7438  0.6078
  508MOL0     H68565   5.287   5.107   4.616  1.0541  1.2627  2.3985
  508MOL0     H68566   5.214   4.891   4.326  0.5098  1.0970  5.6892
  508MOL0     H68567   5.230   4.734   4.135  1.5470  1.2251 -0.1956
  508MOL0     H68568   5.221   4.579   3.993 -0.9287 -0.6555 -1.7943
  508MOL0     H68569   5.183   4.408   3.978  2.1125 -2.2346  0.1015
  508MOL0     H68570   5.411   4.521   4.125 -0.6575 -0.3514  0.4796
  508MOL0     H68571   5.417   4.458   3.948 -1.0660 -1.2605 -0.9067
  508MOL0     H68572   5.359   4.241   4.019 -0.9491 -1.1392  1.3358
  508MOL0     H68573   5.386   4.274   4.185  3.4274 -1.3759  0.6204
  508MOL0     H68574   5.618   4.351   4.021  0.3570  2.5894  1.9231
  508MOL0     H68575   5.608   4.327   4.190 -0.7228  2.7053  0.0268
  508MOL0     H68576   5.651   3.921   4.150  3.2446 -0.7511 -0.3205
  508MOL0     H68577   5.069   4.426   4.385 -0.9064  0.5341  1.1021
  508MOL0     H68578   4.917   4.672   4.605 -0.6941 -0.4812  0.4423
  508MOL0     H68579   4.922   4.498   4.558 -0.1847 -1.4375  2.4690
  508MOL0     H68580   5.038   4.568   4.679 -0.4957  1.3913  0.4802
  509MOL0     O68581   0.814   4.645   9.438 -0.7588 -0.2844 -0.3209
  509MOL0     C68582   0.871   4.563   9.368 -0.1235  0.7665  0.1949
  509MOL0     O68583   0.830   4.519   9.252 -0.5842  0.1575  0.9993
  509MOL0     C68584   0.696   4.543   9.201  0.7688 -0.2364  0.2014
  509MOL0     C68585   0.636   4.439   9.134  0.3278 -0.4473 -0.6137
  509MOL0     C68586   0.504   4.461   9.087  1.0164 -0.5240  0.9421
  509MOL0     C68587   0.439   4.586   9.092  0.0547  0.2372  0.1946
  509MOL0     O68588   0.312   4.618   9.048  0.2460  0.6552  0.4700
  509MOL0     C68589   0.254   4.521   8.964 -0.2154 -0.2644 -0.9494
  509MOL0     C68590   0.113   4.553   8.911  1.0850  0.4124  0.1597
  509MOL0     C68591   0.001   4.509   9.014 -0.6642  0.3248 -0.0275
  509MOL0     C68592   0.016   4.585   9.139 -0.0444 -0.0417 -0.2058
  509MOL0     C68593  -0.118   4.562   9.215 -0.0331  0.6280 -0.3776
  509MOL0     C68594  -0.090   4.589   9.365  0.0162  0.6497  1.0138
  509MOL0     C68595  -0.213   4.536   9.445  0.2574 -0.7541 -0.7426
  509MOL0     C68596  -0.346   4.584   9.411  0.1212 -0.6996 -0.0922
  509MOL0     N68597  -0.456   4.501   9.462 -0.3008 -0.4856  0.2574
  509MOL0     C68598  -0.548   4.542   9.552  0.0883  0.3764 -0.7387
  509MOL0     C68599  -0.609   4.423   9.589 -0.7228  0.3628  0.1559
  509MOL0     C68600  -0.728   4.401   9.677 -0.4765 -0.4176  0.1627
  509MOL0     C68601  -0.761   4.503   9.787 -0.6745  0.0848  0.6023
  509MOL0     C68602  -0.856   4.445   9.896 -0.6937 -0.3214  0.0641
  509MOL0     C68603  -0.878   4.538  10.014  0.2360  0.4274 -0.0416
  509MOL0     O68604  -0.771   4.560  10.106 -0.7506  0.7292  0.3448
  509MOL0     C68605  -0.727   4.455  10.185 -0.0970 -0.0767  1.0807
  509MOL0     C68606  -0.797   4.335  10.212  0.6083 -0.4960  0.5823
  509MOL0     C68607  -0.739   4.233  10.291  0.0581 -0.2060 -1.1788
  509MOL0     C68608  -0.614   4.253  10.353 -0.9238 -0.6863  0.0010
  509MOL0     C68609  -0.547   4.155  10.452 -0.3641  0.3396  0.8668
  509MOL0     O68610  -0.628   4.052  10.492  0.5116 -0.2275 -0.4394
  509MOL0     C68611  -0.582   3.943  10.572  0.1652 -0.1936  0.3580
  509MOL0     C68612  -0.665   3.832  10.575  0.7736  0.1368 -0.1208
  509MOL0     C68613  -0.620   3.708  10.629 -0.8543  0.5735 -0.0394
  509MOL0     C68614  -0.501   3.699  10.695 -0.2794 -0.0507 -0.1539
  509MOL0     O68615  -0.449   3.584  10.742 -0.0047  0.3495  0.8873
  509MOL0     C68616  -0.496   3.455  10.682  0.2984  0.1612  0.9857
  509MOL0     C68617  -0.448   3.325  10.747 -0.1803 -0.1934  0.0308
  509MOL0     C68618  -0.540   3.203  10.727  0.0931 -0.7198  0.2603
  509MOL0     C68619  -0.475   3.077  10.746 -0.7365  0.1599 -0.8347
  509MOL0     C68620  -0.556   2.957  10.749 -0.4753  0.8056  0.1471
  509MOL0     C68621  -0.650   2.917  10.867  0.5014  0.2012 -0.1276
  509MOL0     C68622  -0.561   2.843  10.976  0.9954 -0.3113  0.2927
  509MOL0     C68623  -0.649   2.772  11.077 -0.5132 -0.0346 -0.2802
  509MOL0    Cl68624  -0.785   2.671  11.003  0.1511  0.2967  0.7825
  509MOL0     C68625  -0.420   3.809  10.702 -0.6272 -0.4795 -0.1307
  509MOL0     C68626  -0.462   3.938  10.652 -0.6631  0.1605  0.4957
  509MOL0     O68627  -0.427   4.162  10.483 -0.6585 -0.6172  0.0067
  509MOL0     C68628  -0.547   4.378  10.338  1.0343 -0.2846  1.1396
  509MOL0     C68629  -0.604   4.475  10.243 -0.3867  0.4664  0.6168
  509MOL0     N68630  -0.543   4.325   9.508  0.4131  0.4163 -0.0650
  509MOL0     N68631  -0.460   4.369   9.434  0.0724 -0.3092  0.2371
  509MOL0     C68632   0.503   4.688   9.147 -0.4100 -0.3024 -0.2237
  509MOL0     C68633   0.634   4.674   9.202 -0.0303  0.1347 -0.1878
  509MOL0     C68634   0.999   4.504   9.413  0.0208 -0.0403 -0.5092
  509MOL0     C68635   1.066   4.574   9.514  0.0400 -0.1179  0.0136
  509MOL0     C68636   1.186   4.541   9.566  0.0048 -0.6073 -1.2101
  509MOL0     C68637   1.252   4.433   9.516  0.3348  0.4193  0.7380
  509MOL0     O68638   1.378   4.398   9.559  0.1437  0.6497  0.0191
  509MOL0     C68639   1.489   4.451   9.484  0.7498  0.1785  0.8394
  509MOL0     C68640   1.521   4.372   9.347 -0.0968 -0.0790 -0.4433
  509MOL0     C68641   1.569   4.231   9.388  0.0373 -0.2843 -0.5020
  509MOL0     C68642   1.603   4.141   9.263  0.8028  0.6491 -0.8381
  509MOL0     C68643   1.497   4.114   9.163  0.2836 -0.2328 -0.8523
  509MOL0     C68644   1.414   4.098   9.074  0.0160 -0.1535  0.2672
  509MOL0     C68645   1.191   4.366   9.404 -0.3356 -0.8993 -0.5062
  509MOL0     C68646   1.061   4.392   9.362 -0.9189  0.0027  0.8532
  509MOL0     C68647   1.004   4.296   9.252 -0.7105 -0.9745  0.3987
  509MOL0     H68648   0.675   4.340   9.112  3.0460 -0.1103  2.0614
  509MOL0     H68649   0.461   4.376   9.034  0.8492  0.1785 -0.0638
  509MOL0     H68650   0.327   4.503   8.884  0.0367 -0.3128 -0.7114
  509MOL0     H68651   0.242   4.428   9.021  0.3152  0.5354  0.5329
  509MOL0     H68652   0.094   4.493   8.822 -0.4249  3.0214 -1.3991
  509MOL0     H68653   0.108   4.660   8.891 -2.8312  0.2271 -0.5373
  509MOL0     H68654   0.001   4.402   9.037  1.0337  0.8438  3.0374
  509MOL0     H68655  -0.096   4.529   8.968  0.0301  1.5635 -1.0103
  509MOL0     H68656   0.113   4.561   9.183  2.0815 -0.4579 -4.5654
  509MOL0     H68657   0.026   4.691   9.115  2.0473 -0.0440  0.4540
  509MOL0     H68658  -0.193   4.633   9.181 -0.9670 -0.2858 -0.2958
  509MOL0     H68659  -0.156   4.462   9.188  2.3273 -0.4118 -0.1170
  509MOL0     H68660  -0.001   4.538   9.402  0.6864 -2.6513 -4.1299
  509MOL0     H68661  -0.069   4.696   9.372 -1.6755  1.2767 -1.6452
  509MOL0     H68662  -0.194   4.562   9.549 -1.5027 -1.7271 -0.1478
  509MOL0     H68663  -0.216   4.427   9.435 -2.6004 -0.7786 -0.3816
  509MOL0     H68664  -0.355   4.686   9.450 -0.7156 -0.5072 -0.7592
  509MOL0     H68665  -0.363   4.599   9.304 -0.7060  1.5056  0.2874
  509MOL0     H68666  -0.572   4.642   9.585 -1.4646  0.0180 -0.7352
  509MOL0     H68667  -0.809   4.386   9.604  2.1338  2.0921 -3.6225
  509MOL0     H68668  -0.705   4.307   9.729 -0.5799 -0.0416  0.9008
  509MOL0     H68669  -0.666   4.535   9.832  0.8760 -0.9620 -1.7419
  509MOL0     H68670  -0.797   4.591   9.734  2.2039  1.2190  0.3160
  509MOL0     H68671  -0.820   4.351   9.940  0.1134  1.0659  2.5412
  509MOL0     H68672  -0.953   4.428   9.848 -0.1493 -1.9852 -0.5374
  509MOL0     H68673  -0.966   4.506  10.071  0.9020  0.7835  1.2495
  509MOL0     H68674  -0.903   4.636   9.974  1.2550  0.2604 -1.1234
  509MOL0     H68675  -0.899   4.312  10.184  1.5244 -1.9876 -1.9056
  509MOL0     H68676  -0.795   4.145  10.322 -1.4089  1.0680 -0.0017
  509MOL0     H68677  -0.746   3.820  10.504  2.9312 -2.5752 -2.3723
  509MOL0     H68678  -0.679   3.620  10.604 -1.8036  1.0892  0.3429
  509MOL0     H68679  -0.603   3.438  10.698 -0.0557  0.9226 -0.3513
  509MOL0     H68680  -0.483   3.455  10.573  1.7962 -0.8933  1.1406
  509MOL0     H68681  -0.350   3.300  10.704 -0.8550 -2.6245 -0.2003
  509MOL0     H68682  -0.446   3.345  10.855  1.1141  1.0760 -0.1885
  509MOL0     H68683  -0.621   3.216  10.800 -0.2618 -0.5439 -0.1608
  509MOL0     H68684  -0.575   3.195  10.624  0.6232 -0.6608  0.0745
  509MOL0     H68685  -0.423   3.092  10.841  0.6901  3.8775 -2.0315
  509MOL0     H68686  -0.400   3.071  10.667 -2.3834  2.5735 -2.6859
  509MOL0     H68687  -0.497   2.875  10.708 -3.7817 -1.4287 -0.5302
  509MOL0     H68688  -0.619   2.979  10.662  0.8778 -0.0790 -1.1057
  509MOL0     H68689  -0.676   3.014  10.910  2.9094 -0.0323  2.1566
  509MOL0     H68690  -0.736   2.856  10.841  1.1690  0.2743 -2.7587
  509MOL0     H68691  -0.486   2.908  11.023 -0.1437  0.2675  1.3859
  509MOL0     H68692  -0.504   2.769  10.920  2.0645  1.5849 -1.2761
  509MOL0     H68693  -0.579   2.716  11.140  0.0279 -0.5414 -1.2972
  509MOL0     H68694  -0.699   2.850  11.135  2.8779  0.9968  1.4871
  509MOL0     H68695  -0.323   3.805  10.749 -0.7606  0.2396  0.2199
  509MOL0     H68696  -0.398   4.024  10.672 -0.1500  0.4513 -2.1047
  509MOL0     H68697  -0.460   4.404  10.397 -0.1835  1.5078  2.2507
  509MOL0     H68698  -0.555   4.572  10.240 -0.0245  0.2655 -0.6035
  509MOL0     H68699   0.445   4.779   9.164 -3.8729 -2.4661  0.6380
  509MOL0     H68700   0.688   4.762   9.233  1.7099 -1.1919  0.7071
  509MOL0     H68701   1.017   4.666   9.544  0.4824 -0.1667  0.9123
  509MOL0     H68702   1.251   4.595   9.635 -0.2336  0.8884 -2.0998
  509MOL0     H68703   1.578   4.467   9.545 -0.4273  2.1821  2.1573
  509MOL0     H68704   1.458   4.547   9.441  2.9098  0.2443 -0.7523
  509MOL0     H68705   1.600   4.423   9.290  0.5475  0.5446  0.9389
  509MOL0     H68706   1.430   4.365   9.288 -0.5567 -0.4520  0.2990
  509MOL0     H68707   1.496   4.171   9.443  1.1700 -2.5828 -1.3408
  509MOL0     H68708   1.656   4.249   9.451  0.3081  1.7715 -1.3903
  509MOL0     H68709   1.690   4.183   9.211 -0.4814  2.5449 -1.5765
  509MOL0     H68710   1.615   4.041   9.305 -1.0630  0.9336  0.5040
  509MOL0     H68711   1.337   4.093   9.000  0.4876 -0.3778 -0.2128
  509MOL0     H68712   1.232   4.269   9.377  0.6914 -1.0101  1.2966
  509MOL0     H68713   1.047   4.197   9.271 -0.7045 -0.9834  0.3393
  509MOL0     H68714   0.895   4.291   9.246 -0.8852  0.8752  1.4472
  509MOL0     H68715   1.043   4.328   9.155 -1.2014 -0.7830  0.2613
  510MOL0     O68716   0.951   9.123   0.515  0.3627  0.5004 -0.0933
  510MOL0     C68717   0.831   9.089   0.537  0.6421 -0.6112 -0.4586
  510MOL0     O68718   0.726   9.176   0.559 -0.1153  0.1155  0.8171
  510MOL0     C68719   0.739   9.311   0.562  0.2561  0.5935 -0.2951
  510MOL0     C68720   0.848   9.379   0.620  0.3000 -0.0610 -0.1993
  510MOL0     C68721   0.848   9.519   0.637  0.0336  0.5138 -0.2636
  510MOL0     C68722   0.735   9.598   0.600  0.3826  0.3911 -0.2269
  510MOL0     O68723   0.739   9.733   0.627  0.3670 -0.7251  0.0876
  510MOL0     C68724   0.628   9.812   0.595 -0.0903  0.5670  0.4437
  510MOL0     C68725   0.674   9.957   0.609 -0.3917 -0.6886  0.0086
  510MOL0     C68726   0.637  10.036   0.736  0.3007  0.2177 -0.1957
  510MOL0     C68727   0.524   9.966   0.812  0.5912 -0.4749 -0.1548
  510MOL0     C68728   0.480  10.064   0.916  0.6147  0.2169  0.1960
  510MOL0     C68729   0.360  10.031   1.007 -0.4505 -0.0660  0.4010
  510MOL0     C68730   0.230  10.059   0.938  0.7733  0.8259 -0.0254
  510MOL0     C68731   0.105  10.033   1.022  0.1662  0.6235 -0.3749
  510MOL0     N68732  -0.010  10.113   0.974  0.6590  0.4140  0.9088
  510MOL0     C68733  -0.013  10.246   1.005  0.4228 -0.7771 -0.0611
  510MOL0     C68734  -0.136  10.283   0.951  0.5329  0.0642 -0.1074
  510MOL0     C68735  -0.177  10.429   0.957  0.1903 -1.1112 -0.0236
  510MOL0     C68736  -0.068  10.523   0.907  0.0782 -0.3927 -0.4463
  510MOL0     C68737  -0.103  10.669   0.917 -0.0176 -0.7908  0.1324
  510MOL0     C68738   0.010  10.762   0.885  0.1220 -0.6367 -0.0512
  510MOL0     O68739   0.129  10.729   0.956  0.0978  0.3787  0.0756
  510MOL0     C68740   0.235  10.812   0.930  0.3287 -0.2429 -0.4981
  510MOL0     C68741   0.244  10.908   0.825  0.1453  0.2745  0.0715
  510MOL0     C68742   0.367  10.972   0.803  0.3027 -0.0955 -1.1915
  510MOL0     C68743   0.481  10.920   0.862  1.0002  0.4783 -0.0695
  510MOL0     C68744   0.621  10.973   0.835 -0.1915  0.8284 -0.2633
  510MOL0     O68745   0.641  11.043   0.714 -0.2608  0.3059  0.3889
  510MOL0     C68746   0.745  11.131   0.688 -0.2868  0.7046  0.2674
  510MOL0     C68747   0.748  11.204   0.567 -0.0123  0.6322  0.2132
  510MOL0     C68748   0.847  11.306   0.552 -0.4201  0.1670  0.2150
  510MOL0     C68749   0.951  11.327   0.636 -0.1757  0.3539 -0.1269
  510MOL0     O68750   1.053  11.411   0.604 -0.5407 -0.3306 -0.2150
  510MOL0     C68751   1.185  11.352   0.603 -0.9951 -0.7476 -0.7285
  510MOL0     C68752   1.259  11.413   0.488 -0.1497  0.9848 -0.4678
  510MOL0     C68753   1.351  11.530   0.534  0.0213 -0.2001  0.3005
  510MOL0     C68754   1.477  11.473   0.592 -1.1681 -0.1016 -0.8292
  510MOL0     C68755   1.578  11.575   0.645  0.2398  0.2799 -0.3092
  510MOL0     C68756   1.526  11.630   0.768  0.1326 -0.2917 -1.5392
  510MOL0     C68757   1.636  11.659   0.872 -0.4085  0.0763  0.3202
  510MOL0     C68758   1.606  11.776   0.969  0.1224 -0.7344  0.8541
  510MOL0    Cl68759   1.477  11.724   1.076 -0.0407 -0.8104  0.2450
  510MOL0     C68760   0.946  11.256   0.752  0.3105  0.8917 -0.9509
  510MOL0     C68761   0.845  11.162   0.779 -0.0361 -0.3395 -0.3558
  510MOL0     O68762   0.704  10.945   0.918 -0.0414 -0.5695 -0.2267
  510MOL0     C68763   0.474  10.816   0.962  0.6020 -0.5906 -0.5164
  510MOL0     C68764   0.345  10.766   0.998 -0.6909 -0.8721  0.0834
  510MOL0     N68765  -0.195  10.171   0.898 -0.4179  0.7814  0.0724
  510MOL0     N68766  -0.120  10.068   0.918  0.4070  0.3142 -0.1384
  510MOL0     C68767   0.631   9.530   0.531  0.4719 -0.1595 -0.0160
  510MOL0     C68768   0.643   9.391   0.501  0.1298  0.3159 -0.0018
  510MOL0     C68769   0.801   8.943   0.545  0.9355 -0.2661  0.1946
  510MOL0     C68770   0.658   8.912   0.511  0.5927  0.3926 -0.4361
  510MOL0     C68771   0.621   8.777   0.517  0.3758 -0.8549 -0.5012
  510MOL0     C68772   0.705   8.680   0.559 -0.1083  1.2835 -0.8376
  510MOL0     O68773   0.671   8.545   0.570  0.4262  1.1296 -0.2132
  510MOL0     C68774   0.547   8.486   0.528  0.4563 -0.3764  0.2416
  510MOL0     C68775   0.552   8.340   0.511 -0.2643  0.2354 -0.2584
  510MOL0     C68776   0.522   8.268   0.648 -1.1209 -0.1302 -0.2081
  510MOL0     C68777   0.545   8.122   0.632  0.8093  0.8371 -0.4473
  510MOL0     C68778   0.494   8.052   0.519  0.5645 -0.4794 -0.6193
  510MOL0     C68779   0.454   7.989   0.422 -0.4022  0.3542  0.6123
  510MOL0     C68780   0.834   8.711   0.599  0.3237  1.0439  0.0658
  510MOL0     C68781   0.884   8.842   0.590 -0.5673 -0.7488  0.2837
  510MOL0     C68782   1.027   8.875   0.649  0.3035  1.2715 -0.0631
  510MOL0     H68783   0.931   9.325   0.665 -0.5066  0.0851  1.5634
  510MOL0     H68784   0.944   9.558   0.669 -0.3036  1.2793 -0.1430
  510MOL0     H68785   0.598   9.797   0.491  0.5985 -1.0130  0.4559
  510MOL0     H68786   0.545   9.789   0.663 -0.5588  1.5375  0.2248
  510MOL0     H68787   0.630  10.022   0.533 -0.8912  1.8935  2.3502
  510MOL0     H68788   0.779   9.968   0.580 -0.6277 -0.3650 -0.7743
  510MOL0     H68789   0.610  10.140   0.715 -0.3680 -0.0058 -0.4722
  510MOL0     H68790   0.723  10.034   0.805  2.2165 -2.6589 -2.4155
  510MOL0     H68791   0.435   9.939   0.754 -1.6689  1.0424  2.3669
  510MOL0     H68792   0.560   9.879   0.867 -1.4662 -0.6143  1.0874
  510MOL0     H68793   0.558  10.075   0.992 -1.1672  0.3191  2.1232
  510MOL0     H68794   0.462  10.164   0.877 -1.5995  0.2801  1.2148
  510MOL0     H68795   0.368   9.927   1.040  4.4916 -0.3398 -0.8579
  510MOL0     H68796   0.377  10.097   1.092  1.8107 -0.5436  0.3789
  510MOL0     H68797   0.211   9.996   0.850  1.5159  2.1006 -1.1315
  510MOL0     H68798   0.231  10.161   0.899 -0.6051 -0.0372 -2.6152
  510MOL0     H68799   0.070   9.930   1.007 -4.9892  2.2070 -1.3237
  510MOL0     H68800   0.130  10.054   1.126 -0.6242 -0.4008  0.0408
  510MOL0     H68801   0.059  10.311   1.055 -2.0220 -0.1334  2.9190
  510MOL0     H68802  -0.263  10.436   0.890  0.7483 -2.1953 -0.8894
  510MOL0     H68803  -0.198  10.449   1.062  1.1432 -2.0486  0.3696
  510MOL0     H68804   0.017  10.512   0.976  1.2018  2.5835 -1.2029
  510MOL0     H68805  -0.038  10.494   0.805  1.5824  1.6768 -0.6569
  510MOL0     H68806  -0.141  10.696   1.016  0.4241  5.0265 -0.9192
  510MOL0     H68807  -0.171  10.689   0.833 -1.3563 -1.2388  1.0807
  510MOL0     H68808  -0.023  10.863   0.912 -0.1620 -1.1021  1.4187
  510MOL0     H68809   0.033  10.754   0.778 -0.4796 -1.2080 -0.1432
  510MOL0     H68810   0.162  10.943   0.763  0.0514 -1.1842 -0.6808
  510MOL0     H68811   0.368  11.052   0.729 -1.6671  0.8014 -0.3294
  510MOL0     H68812   0.671  11.194   0.492  0.6722  4.0484 -1.1134
  510MOL0     H68813   0.857  11.360   0.458  0.6982  1.4144  0.9993
  510MOL0     H68814   1.235  11.365   0.699  2.6098  1.1300 -2.6386
  510MOL0     H68815   1.185  11.247   0.572  2.1776 -1.0825  0.0720
  510MOL0     H68816   1.327  11.346   0.434 -1.1031 -0.6393  0.2879
  510MOL0     H68817   1.181  11.454   0.423 -0.5565  3.8050  1.6090
  510MOL0     H68818   1.352  11.600   0.451 -1.5305 -0.0935  0.3245
  510MOL0     H68819   1.307  11.594   0.612  1.0396  0.4782  0.3287
  510MOL0     H68820   1.530  11.411   0.519  1.9302  0.9998  0.3079
  510MOL0     H68821   1.443  11.411   0.675 -0.4014 -1.0082 -1.1768
  510MOL0     H68822   1.585  11.644   0.560  2.8617 -1.2135 -1.4400
  510MOL0     H68823   1.674  11.530   0.670 -0.9524 -3.4003 -1.5660
  510MOL0     H68824   1.453  11.710   0.750 -1.8962 -2.0189 -1.2746
  510MOL0     H68825   1.452  11.570   0.821  1.3396 -0.4006  0.1162
  510MOL0     H68826   1.735  11.673   0.828  0.2762 -1.1827  1.3817
  510MOL0     H68827   1.657  11.572   0.934 -0.9867 -0.9175 -0.8371
  510MOL0     H68828   1.698  11.786   1.027  0.5821  0.6211 -0.0546
  510MOL0     H68829   1.578  11.870   0.920 -3.0534 -2.0614 -0.1809
  510MOL0     H68830   1.024  11.273   0.824 -0.9490  1.2177  0.3892
  510MOL0     H68831   0.859  11.106   0.871 -1.5745  0.5023  0.4277
  510MOL0     H68832   0.561  10.791   1.022 -0.9454  0.3312  2.3206
  510MOL0     H68833   0.335  10.695   1.079 -0.8686 -0.2752  0.5945
  510MOL0     H68834   0.548   9.578   0.480  0.1740 -0.5924  0.0571
  510MOL0     H68835   0.560   9.356   0.439  2.4643 -1.1132 -2.5162
  510MOL0     H68836   0.585   8.986   0.481 -1.1335 -1.3368 -0.7444
  510MOL0     H68837   0.523   8.741   0.487 -0.2648 -0.0472  0.5622
  510MOL0     H68838   0.521   8.525   0.429 -2.6204 -1.2943  0.6031
  510MOL0     H68839   0.457   8.513   0.584 -0.1168 -0.0860 -0.7993
  510MOL0     H68840   0.636   8.304   0.452  0.5219  3.1285 -1.0531
  510MOL0     H68841   0.472   8.314   0.441  1.1297 -1.3782 -1.3433
  510MOL0     H68842   0.424   8.306   0.679 -1.1872 -0.4918  0.0374
  510MOL0     H68843   0.590   8.294   0.729 -0.0764  0.6666 -1.3124
  510MOL0     H68844   0.653   8.106   0.633  0.6781 -0.4022  2.1928
  510MOL0     H68845   0.513   8.077   0.726  2.1462  0.4733 -0.1438
  510MOL0     H68846   0.403   7.924   0.354 -1.9337  0.2635  1.7639
  510MOL0     H68847   0.894   8.628   0.633  1.4236  0.5776 -2.7407
  510MOL0     H68848   1.017   8.950   0.728 -1.2016  1.1032 -0.0674
  510MOL0     H68849   1.073   8.795   0.707 -1.6623  0.9722  1.1438
  510MOL0     H68850   1.097   8.912   0.573  1.4854 -2.7850 -1.2057
  511MOL0     O68851  11.234   9.272  10.321  0.5842 -0.5200  0.2542
  511MOL0     C68852  11.328   9.331  10.381  0.1744  0.9866  0.0334
  511MOL0     O68853  11.349   9.329  10.516 -0.1346  0.0993  0.0339
  511MOL0     C68854  11.258   9.260  10.597 -0.7750  0.1478  0.0005
  511MOL0     C68855  11.313   9.195  10.710 -0.0843 -0.3886 -0.6817
  511MOL0     C68856  11.233   9.127  10.800 -0.1015 -0.1025  0.1654
  511MOL0     C68857  11.098   9.111  10.784  0.0376 -0.2248  0.3949
  511MOL0     O68858  11.026   9.034  10.875  0.4256  0.2286  0.1885
  511MOL0     C68859  10.882   9.029  10.860  0.2190  0.5138  0.7768
  511MOL0     C68860  10.842   8.933  10.747 -0.1639  0.1521  0.9236
  511MOL0     C68861  10.692   8.949  10.709 -0.8419 -0.6381 -0.1577
  511MOL0     C68862  10.628   8.833  10.652 -0.1002  0.3094 -0.5231
  511MOL0     C68863  10.477   8.859  10.615 -0.8097 -0.4669 -0.0303
  511MOL0     C68864  10.467   8.942  10.488 -0.1749 -0.1433 -0.1816
  511MOL0     C68865  10.325   8.955  10.451  0.6961 -0.1348 -0.0960
  511MOL0     C68866  10.301   9.067  10.352  0.5098  0.0958 -0.6574
  511MOL0     N68867  10.173   9.075  10.276 -0.0426 -0.0235  0.1403
  511MOL0     C68868  10.056   9.127  10.320 -0.2383 -0.1246  0.1278
  511MOL0     C68869   9.966   9.103  10.214  0.1508 -0.1943 -0.0713
  511MOL0     C68870   9.824   9.135  10.205 -0.3837 -1.2328  0.0269
  511MOL0     C68871   9.760   8.992  10.235  0.4576 -0.1871  0.9343
  511MOL0     C68872   9.611   8.999  10.216  0.0540 -0.3005 -0.6400
  511MOL0     C68873   9.551   9.059  10.342 -0.2857 -0.2387  0.5340
  511MOL0     O68874   9.545   8.962  10.435  0.3793  0.5329  0.2919
  511MOL0     C68875   9.486   8.983  10.557 -0.1898  0.8491 -0.3922
  511MOL0     C68876   9.439   9.112  10.599  0.9061 -0.4548  0.2758
  511MOL0     C68877   9.396   9.131  10.730  0.7872  0.5384  0.2208
  511MOL0     C68878   9.433   9.038  10.835  0.0043 -0.5384  0.6115
  511MOL0     C68879   9.416   9.071  10.969 -0.3468 -0.4223 -0.7193
  511MOL0     O68880   9.427   9.201  11.012 -0.2426  0.0215  0.5792
  511MOL0     C68881   9.460   9.227  11.141  0.6586  1.2178 -0.5087
  511MOL0     C68882   9.378   9.312  11.211  0.2388  0.2331 -0.8994
  511MOL0     C68883   9.408   9.336  11.340 -0.1582 -0.7716  0.1822
  511MOL0     C68884   9.519   9.287  11.399  0.4371  0.8249 -1.0632
  511MOL0     O68885   9.536   9.315  11.532 -0.0334  0.5144  0.1603
  511MOL0     C68886   9.635   9.418  11.553 -0.3036 -1.2071 -0.3116
  511MOL0     C68887   9.597   9.566  11.507 -0.1437 -0.4405  0.8729
  511MOL0     C68888   9.666   9.613  11.372  0.7569 -0.2812  0.0611
  511MOL0     C68889   9.643   9.758  11.339  0.3497 -0.2260 -0.1446
  511MOL0     C68890   9.748   9.816  11.242  0.2313 -0.5505 -0.2617
  511MOL0     C68891   9.780   9.953  11.264 -0.2157  0.4552  1.3794
  511MOL0     C68892   9.866  10.002  11.140 -0.4297 -0.2580  0.0517
  511MOL0     C68893   9.923  10.143  11.169  0.6084  0.3742  0.2506
  511MOL0    Cl68894  10.019  10.204  11.033  0.0894 -0.3458  0.1911
  511MOL0     C68895   9.603   9.200  11.336 -0.7973  0.3589 -0.9839
  511MOL0     C68896   9.571   9.177  11.202 -0.6615  0.2903 -0.2467
  511MOL0     O68897   9.392   8.973  11.043 -0.5685  0.1852  0.6934
  511MOL0     C68898   9.463   8.909  10.795 -0.2248  0.1752 -0.8002
  511MOL0     C68899   9.487   8.877  10.657 -1.2718 -0.0228  0.6286
  511MOL0     N68900  10.034   9.025  10.124  0.5457  0.7034  0.8117
  511MOL0     N68901  10.152   9.015  10.158 -0.4681  0.0513  0.3159
  511MOL0     C68902  11.043   9.187  10.677  0.6017  0.1575  0.0345
  511MOL0     C68903  11.117   9.250  10.585  0.5366 -0.0401  0.1747
  511MOL0     C68904  11.421   9.405  10.294 -0.6090 -1.2593  1.1970
  511MOL0     C68905  11.559   9.411  10.324 -0.3552  0.5794  0.3182
  511MOL0     C68906  11.656   9.483  10.251  0.3599  0.0799 -1.2030
  511MOL0     C68907  11.617   9.554  10.144 -0.3452  1.5782  1.4622
  511MOL0     O68908  11.705   9.620  10.064 -0.3398  0.3007 -0.1694
  511MOL0     C68909  11.845   9.587  10.073 -0.8316  0.0182  0.4194
  511MOL0     C68910  11.928   9.631   9.952  0.0411  0.0943 -0.3577
  511MOL0     C68911  12.082   9.622   9.956 -0.8729 -0.6353  0.3577
  511MOL0     C68912  12.145   9.647  10.090  0.2410 -0.3358 -0.2288
  511MOL0     C68913  12.286   9.618  10.077  0.2367  0.2194  0.7464
  511MOL0     C68914  12.401   9.587  10.066  0.1742  0.5304 -0.8095
  511MOL0     C68915  11.485   9.542  10.106  0.2078  0.3997  0.2984
  511MOL0     C68916  11.387   9.479  10.182  0.3226  0.8885  0.9603
  511MOL0     C68917  11.243   9.518  10.155  0.3264 -0.4840  1.1827
  511MOL0     H68918  11.415   9.201  10.746  0.3955 -3.4917 -1.2363
  511MOL0     H68919  11.269   9.077  10.889  2.5661 -0.3198 -0.9554
  511MOL0     H68920  10.838   8.977  10.946  3.3630 -3.4932  0.2362
  511MOL0     H68921  10.834   9.126  10.840 -0.7517 -0.2175 -0.5948
  511MOL0     H68922  10.855   8.834  10.791 -1.4711 -0.8356 -0.7898
  511MOL0     H68923  10.899   8.937  10.653 -0.6753  0.6088  0.6267
  511MOL0     H68924  10.687   9.036  10.642  1.9668 -0.0406  0.2750
  511MOL0     H68925  10.642   8.986  10.798 -0.0329 -0.2105  0.1341
  511MOL0     H68926  10.679   8.812  10.557  0.5571 -0.3578 -0.0324
  511MOL0     H68927  10.618   8.747  10.719  1.5293 -1.3560 -2.2908
  511MOL0     H68928  10.424   8.765  10.595  0.8395 -1.8286  1.6847
  511MOL0     H68929  10.429   8.911  10.698 -2.0391 -2.0364  0.3068
  511MOL0     H68930  10.514   9.041  10.498 -0.9537  0.1443  0.8302
  511MOL0     H68931  10.524   8.889  10.412 -1.1353 -1.7049  0.1450
  511MOL0     H68932  10.268   8.970  10.544  1.2184 -1.1557  0.4091
  511MOL0     H68933  10.284   8.865  10.404 -1.7559  1.1700 -0.5966
  511MOL0     H68934  10.331   9.165  10.390 -1.1807 -0.2240  1.7270
  511MOL0     H68935  10.377   9.053  10.275  0.3681 -0.7299 -0.6566
  511MOL0     H68936  10.029   9.171  10.415 -2.8074 -1.9320  0.3459
  511MOL0     H68937   9.803   9.217  10.274  2.3582  0.9150 -1.4784
  511MOL0     H68938   9.784   9.164  10.107 -0.0544  1.0896  0.5251
  511MOL0     H68939   9.806   8.913  10.174 -0.0220 -0.6641  1.1813
  511MOL0     H68940   9.787   8.981  10.340  1.1786  1.3863  0.9394
  511MOL0     H68941   9.560   8.902  10.209 -1.9770  0.6630 -0.1119
  511MOL0     H68942   9.578   9.063  10.133 -2.5829  2.0156  2.0009
  511MOL0     H68943   9.448   9.090  10.321  0.4179  1.4675 -0.5654
  511MOL0     H68944   9.602   9.144  10.387 -1.1256  1.2032 -1.1181
  511MOL0     H68945   9.431   9.194  10.528  0.7342  0.4398  1.3089
  511MOL0     H68946   9.345   9.224  10.751 -0.1034 -0.4641  2.7861
  511MOL0     H68947   9.287   9.357  11.173  0.4573  3.0782  1.6211
  511MOL0     H68948   9.330   9.381  11.401  1.7428 -1.7149  3.5938
  511MOL0     H68949   9.628   9.425  11.661  1.0769  2.7415 -0.3220
  511MOL0     H68950   9.729   9.378  11.514  0.8958  1.6893 -0.6512
  511MOL0     H68951   9.488   9.577  11.496 -0.0893 -0.6415  0.0556
  511MOL0     H68952   9.619   9.639  11.585  2.4162 -0.8262  0.5921
  511MOL0     H68953   9.771   9.583  11.384  1.0768  1.3991  2.0591
  511MOL0     H68954   9.612   9.558  11.294 -0.6743  0.4353  0.5211
  511MOL0     H68955   9.637   9.812  11.434 -2.5918 -1.0826  0.2400
  511MOL0     H68956   9.542   9.770  11.300  0.6654  1.3593 -0.5330
  511MOL0     H68957   9.737   9.806  11.133  2.3847  0.3511 -0.6259
  511MOL0     H68958   9.837   9.754  11.260 -0.8499 -1.6810  1.4644
  511MOL0     H68959   9.692  10.018  11.260 -0.9481 -0.5635 -2.5149
  511MOL0     H68960   9.832   9.967  11.359  0.7851  1.2522  0.7388
  511MOL0     H68961   9.807   9.994  11.047  1.7905  0.4409 -1.4886
  511MOL0     H68962   9.954   9.938  11.125 -1.8877 -2.3137 -0.3113
  511MOL0     H68963   9.836  10.208  11.184 -1.0772 -1.9624  1.2705
  511MOL0     H68964   9.990  10.148  11.255 -1.9089  2.6599  2.2861
  511MOL0     H68965   9.690   9.157  11.385 -1.1780  2.8747  2.3309
  511MOL0     H68966   9.630   9.103  11.148  0.3829  1.3666 -0.6257
  511MOL0     H68967   9.470   8.828  10.867 -2.7909 -0.4128 -1.1039
  511MOL0     H68968   9.519   8.775  10.638  0.9148  0.0175  3.3937
  511MOL0     H68969  10.938   9.200  10.653  1.3081  3.2856 -1.9936
  511MOL0     H68970  11.070   9.301  10.502 -1.2190 -2.5508 -0.4982
  511MOL0     H68971  11.593   9.352  10.409  2.7724 -3.3069 -3.2123
  511MOL0     H68972  11.755   9.479  10.296 -0.1439 -0.4492 -0.0950
  511MOL0     H68973  11.853   9.478  10.070  3.0787  0.1794  0.2064
  511MOL0     H68974  11.890   9.622  10.166  1.2124 -0.3646 -0.3748
  511MOL0     H68975  11.906   9.738   9.943  1.2410  0.5189  1.1926
  511MOL0     H68976  11.897   9.588   9.857  0.1422 -0.1656 -0.2753
  511MOL0     H68977  12.123   9.692   9.883 -2.1004  1.1242  1.2767
  511MOL0     H68978  12.106   9.522   9.917 -0.0207  0.5957 -2.5168
  511MOL0     H68979  12.117   9.749  10.118 -0.1100 -0.4708 -0.0852
  511MOL0     H68980  12.107   9.575  10.163  1.8715 -0.1876  0.8286
  511MOL0     H68981  12.506   9.569  10.054  0.0202 -1.8282  0.6553
  511MOL0     H68982  11.458   9.585  10.010 -1.1447  0.0185  0.4828
  511MOL0     H68983  11.189   9.460  10.081 -2.2910  1.2219  1.6191
  511MOL0     H68984  11.178   9.521  10.243 -1.4627 -5.6652  0.3246
  511MOL0     H68985  11.240   9.619  10.112 -0.9736 -0.3280  1.5947
  512MOL0     O68986  10.919   3.699   2.559  0.2331  0.5706 -0.4261
  512MOL0     C68987  10.983   3.597   2.562 -0.0825  0.4249  0.1371
  512MOL0     O68988  10.936   3.475   2.512 -0.4785 -0.2831 -0.5028
  512MOL0     C68989  10.811   3.471   2.455  0.2490  1.2828 -0.5347
  512MOL0     C68990  10.692   3.543   2.481 -0.6315  0.2953 -0.0268
  512MOL0     C68991  10.576   3.516   2.413 -0.3365  0.2864  1.1796
  512MOL0     C68992  10.568   3.422   2.313 -0.1575 -0.8109 -0.2335
  512MOL0     O68993  10.460   3.399   2.231 -0.2400 -0.6312  0.2724
  512MOL0     C68994  10.356   3.497   2.240  0.0975  0.8235 -0.2929
  512MOL0     C68995  10.249   3.469   2.343 -0.6451  0.4271 -0.5332
  512MOL0     C68996  10.181   3.340   2.305 -0.6560 -0.0232  0.1004
  512MOL0     C68997  10.070   3.328   2.408  0.1436 -0.0496  0.8067
  512MOL0     C68998  10.012   3.186   2.400 -0.5838  0.1559 -0.5418
  512MOL0     C68999   9.881   3.185   2.481 -0.0788  0.7921  0.1713
  512MOL0     C69000   9.755   3.259   2.414 -0.8173 -0.4303  0.1842
  512MOL0     C69001   9.615   3.217   2.448 -0.1902 -0.0856  0.7687
  512MOL0     N69002   9.534   3.271   2.340  0.7565 -0.0822 -0.5724
  512MOL0     C69003   9.536   3.404   2.292  0.2691  0.1885  0.1250
  512MOL0     C69004   9.491   3.390   2.166 -1.3828  0.3917 -0.3274
  512MOL0     C69005   9.498   3.494   2.062 -0.7770 -0.2964  0.3661
  512MOL0     C69006   9.626   3.463   1.987 -1.0344  0.3488  0.7498
  512MOL0     C69007   9.701   3.581   1.933 -0.1165 -0.5882  0.0834
  512MOL0     C69008   9.623   3.652   1.823  1.3310 -0.6669 -0.0690
  512MOL0     O69009   9.505   3.727   1.863  0.1602  0.3008  0.1074
  512MOL0     C69010   9.486   3.844   1.788  0.3347  0.5813  0.3984
  512MOL0     C69011   9.517   3.867   1.655  0.0114  0.1731  0.7251
  512MOL0     C69012   9.490   3.986   1.580 -0.4232  0.4002  0.4236
  512MOL0     C69013   9.431   4.090   1.647  1.2572  0.6884  0.0393
  512MOL0     C69014   9.417   4.218   1.578 -0.0259 -0.8803 -0.2304
  512MOL0     O69015   9.390   4.325   1.660  0.0825  0.1576  0.3958
  512MOL0     C69016   9.423   4.456   1.638  0.9452 -0.1889  0.5527
  512MOL0     C69017   9.344   4.550   1.706  0.8931 -0.2525  0.2311
  512MOL0     C69018   9.364   4.689   1.702  0.1902 -0.5186  0.4099
  512MOL0     C69019   9.481   4.740   1.642  0.7495  0.6961 -0.4198
  512MOL0     O69020   9.509   4.874   1.661 -0.6665  0.1219 -0.5001
  512MOL0     C69021   9.638   4.916   1.618 -0.3646 -0.0386  0.7746
  512MOL0     C69022   9.662   5.070   1.647  0.5345  0.4201  0.3841
  512MOL0     C69023   9.821   5.099   1.632  0.0581  0.8998  0.0497
  512MOL0     C69024   9.848   5.233   1.689  0.4259  0.2182 -0.1606
  512MOL0     C69025   9.995   5.255   1.673 -0.1701  0.3635  1.6766
  512MOL0     C69026  10.050   5.370   1.761 -1.0950  0.1580 -0.8477
  512MOL0     C69027  10.081   5.336   1.911  0.0854 -0.4415  0.5514
  512MOL0     C69028  10.063   5.449   1.997 -0.4420  0.6025  0.6153
  512MOL0    Cl69029  10.111   5.422   2.174 -0.2588  0.0874 -0.3676
  512MOL0     C69030   9.559   4.643   1.574  0.1694  0.3740  0.3866
  512MOL0     C69031   9.533   4.503   1.561 -0.1770 -0.1660 -1.4871
  512MOL0     O69032   9.455   4.228   1.459 -0.9179  0.6428 -0.1318
  512MOL0     C69033   9.405   4.070   1.783 -0.1198  0.9378 -0.1730
  512MOL0     C69034   9.425   3.954   1.845  0.3893  0.5898 -1.1747
  512MOL0     N69035   9.458   3.259   2.138  0.0654 -1.0186 -0.1067
  512MOL0     N69036   9.476   3.192   2.243 -0.1931  0.4227 -0.6150
  512MOL0     C69037  10.683   3.350   2.285  0.8581  0.3492 -0.8819
  512MOL0     C69038  10.796   3.365   2.360  0.0854 -0.4532 -0.0733
  512MOL0     C69039  11.126   3.600   2.619 -0.5765 -0.6841  0.4248
  512MOL0     C69040  11.181   3.474   2.658 -0.6456  0.2005 -0.6845
  512MOL0     C69041  11.299   3.456   2.733 -0.4637  0.3383 -0.0915
  512MOL0     C69042  11.360   3.576   2.769  0.2455  0.0451 -0.0350
  512MOL0     O69043  11.480   3.575   2.846 -0.1633 -0.1663  0.0580
  512MOL0     C69044  11.593   3.660   2.793 -0.9750 -0.3689 -0.6293
  512MOL0     C69045  11.727   3.591   2.780 -0.5268  0.3472 -1.0018
  512MOL0     C69046  11.847   3.690   2.786 -1.1448  0.1493 -0.0478
  512MOL0     C69047  11.892   3.716   2.928 -0.6339  1.0820  0.1844
  512MOL0     C69048  11.997   3.812   2.936  0.5210 -1.3847 -0.7127
  512MOL0     C69049  12.092   3.891   2.946 -0.1618  0.0149 -0.5573
  512MOL0     C69050  11.304   3.700   2.725 -0.7940 -0.6713 -0.2219
  512MOL0     C69051  11.192   3.716   2.654  0.8006 -1.1372 -0.7958
  512MOL0     C69052  11.162   3.863   2.626  0.1046  0.2159  0.0054
  512MOL0     H69053  10.690   3.615   2.562  2.4559 -0.0995  0.4933
  512MOL0     H69054  10.487   3.578   2.426 -1.9666 -1.1781 -2.0288
  512MOL0     H69055  10.403   3.595   2.249  1.4978 -0.0382  3.1929
  512MOL0     H69056  10.300   3.492   2.146 -0.9131 -0.1303  0.3231
  512MOL0     H69057  10.188   3.561   2.344  1.3554  1.8291 -0.8052
  512MOL0     H69058  10.290   3.460   2.444 -2.5106  0.5639  0.2760
  512MOL0     H69059  10.246   3.252   2.314  2.0201  1.8914  0.2845
  512MOL0     H69060  10.147   3.360   2.203  0.9881  1.0161 -0.2665
  512MOL0     H69061  10.117   3.341   2.506 -0.9597 -0.7126  1.4549
  512MOL0     H69062   9.988   3.400   2.398  0.7014  0.4346 -0.5223
  512MOL0     H69063   9.998   3.165   2.294  1.2624 -0.5224 -0.7017
  512MOL0     H69064  10.082   3.111   2.440 -0.2625  0.1689 -1.0764
  512MOL0     H69065   9.849   3.083   2.505 -0.5579  1.6363  3.5487
  512MOL0     H69066   9.906   3.220   2.581 -1.3168  0.4317  0.6326
  512MOL0     H69067   9.780   3.247   2.309 -0.7646  0.2951  0.1093
  512MOL0     H69068   9.763   3.365   2.438  0.0447 -0.6698  1.0303
  512MOL0     H69069   9.616   3.108   2.439 -0.1944 -0.4013  3.7673
  512MOL0     H69070   9.573   3.243   2.545 -0.6381  0.4024  0.4543
  512MOL0     H69071   9.576   3.490   2.344 -1.5331  0.2193  1.5508
  512MOL0     H69072   9.406   3.475   2.005 -0.8829  1.1196  0.0424
  512MOL0     H69073   9.497   3.599   2.090  0.4193  0.1638 -1.1920
  512MOL0     H69074   9.704   3.414   2.045  0.5444  1.1294 -0.6292
  512MOL0     H69075   9.595   3.385   1.916 -0.4650  0.5748  0.2461
  512MOL0     H69076   9.797   3.552   1.889 -0.3034 -0.4009 -0.4533
  512MOL0     H69077   9.735   3.648   2.012  1.2598 -0.2350 -0.7712
  512MOL0     H69078   9.586   3.573   1.756 -0.8856  0.7068 -0.5811
  512MOL0     H69079   9.690   3.717   1.766 -2.8617 -0.1416 -5.1008
  512MOL0     H69080   9.543   3.780   1.596 -0.3652 -1.2547  2.5913
  512MOL0     H69081   9.508   3.987   1.473  2.9664 -0.8052  0.8789
  512MOL0     H69082   9.259   4.516   1.765 -1.0108 -0.9865 -2.7142
  512MOL0     H69083   9.288   4.745   1.755  1.0520 -0.6891  1.8693
  512MOL0     H69084   9.705   4.851   1.674  0.3774 -1.7870 -1.9882
  512MOL0     H69085   9.646   4.889   1.512  0.9567  0.6434  0.6769
  512MOL0     H69086   9.614   5.126   1.566 -0.3225 -1.6095 -0.6014
  512MOL0     H69087   9.633   5.093   1.750  2.6651 -1.6666  1.5387
  512MOL0     H69088   9.874   5.017   1.681  2.6858  1.7279 -1.2115
  512MOL0     H69089   9.855   5.099   1.528  0.2335  0.1749  0.1053
  512MOL0     H69090   9.816   5.240   1.793 -0.8360 -0.3118 -0.4924
  512MOL0     H69091   9.794   5.312   1.636 -0.4290 -1.9700 -2.7694
  512MOL0     H69092  10.034   5.279   1.573 -0.4722  3.5125  2.2297
  512MOL0     H69093  10.050   5.166   1.707  1.5665  0.1385 -1.3082
  512MOL0     H69094  10.142   5.413   1.722 -1.2936 -0.3724 -1.9430
  512MOL0     H69095   9.977   5.452   1.753 -1.3419 -0.0621 -0.8799
  512MOL0     H69096  10.184   5.303   1.899  0.3115  0.5432 -0.3342
  512MOL0     H69097  10.017   5.250   1.937 -0.2669 -0.4729 -0.3519
  512MOL0     H69098  10.139   5.510   1.948 -1.1331  1.0427  0.0771
  512MOL0     H69099   9.962   5.489   1.986 -0.2632  1.0867  0.7323
  512MOL0     H69100   9.647   4.676   1.519 -1.0944 -0.8226 -2.5999
  512MOL0     H69101   9.604   4.441   1.507 -0.2848  0.1345 -1.9831
  512MOL0     H69102   9.356   4.153   1.833 -1.8589 -0.1111 -0.0366
  512MOL0     H69103   9.401   3.937   1.950  4.1666 -2.0302 -0.5182
  512MOL0     H69104  10.669   3.275   2.208  0.8753  1.5902 -2.1402
  512MOL0     H69105  10.877   3.297   2.335  0.8446 -0.1589  1.4666
  512MOL0     H69106  11.128   3.387   2.623 -0.8889  0.2877 -0.5307
  512MOL0     H69107  11.330   3.355   2.758 -1.1306 -0.1320 -1.0479
  512MOL0     H69108  11.611   3.754   2.845 -0.7960  0.1573 -1.6166
  512MOL0     H69109  11.564   3.693   2.693  1.8985 -0.0360 -1.4181
  512MOL0     H69110  11.724   3.535   2.687 -0.4812  1.0850 -1.4551
  512MOL0     H69111  11.749   3.523   2.863  0.7421  2.2149  0.2994
  512MOL0     H69112  11.806   3.782   2.743  0.3619 -0.3454 -2.7448
  512MOL0     H69113  11.928   3.649   2.725 -1.1689  1.0222 -0.6872
  512MOL0     H69114  11.810   3.739   2.996 -1.5829 -0.0798 -0.5294
  512MOL0     H69115  11.946   3.629   2.967  1.7690  2.1826 -0.4982
  512MOL0     H69116  12.180   3.948   2.965  1.5208 -3.0818  1.9937
  512MOL0     H69117  11.355   3.791   2.755 -4.4986  0.9632  1.7484
  512MOL0     H69118  11.142   3.922   2.716  0.2327 -1.2652  1.0479
  512MOL0     H69119  11.240   3.900   2.559 -1.5187 -0.0687 -2.1774
  512MOL0     H69120  11.080   3.875   2.554 -1.0080  2.7007  1.5708
  513MOL0     O69121   9.908   7.591   6.686 -0.2603 -0.3902  0.3320
  513MOL0     C69122   9.824   7.599   6.596  0.1506  0.2786 -0.1642
  513MOL0     O69123   9.815   7.506   6.498 -0.2865  0.8450 -0.1133
  513MOL0     C69124   9.903   7.402   6.518  0.8698  0.6083  0.9736
  513MOL0     C69125  10.043   7.419   6.498  0.6864 -0.1478  0.9432
  513MOL0     C69126  10.129   7.312   6.496 -0.0247 -0.6708  0.1847
  513MOL0     C69127  10.082   7.179   6.506 -0.5336 -0.5265 -0.2113
  513MOL0     O69128  10.178   7.086   6.537  0.1796 -0.5815  0.3169
  513MOL0     C69129  10.143   6.943   6.508 -0.4992 -0.1355  0.6680
  513MOL0     C69130  10.135   6.933   6.360  0.4270 -0.7451  0.6814
  513MOL0     C69131  10.112   6.793   6.315 -0.8775 -0.7146  0.4292
  513MOL0     C69132  10.086   6.784   6.163  0.4379  1.4714 -0.7190
  513MOL0     C69133  10.216   6.754   6.093 -0.3840  0.4692  0.2500
  513MOL0     C69134  10.203   6.748   5.931 -0.1638 -0.5611 -0.4717
  513MOL0     C69135  10.186   6.889   5.867  0.2288  0.2909 -0.2834
  513MOL0     C69136  10.194   6.860   5.722  0.6667 -0.2605  0.2324
  513MOL0     N69137  10.161   6.983   5.644 -0.3370 -0.1366  0.4929
  513MOL0     C69138  10.033   7.031   5.631 -0.1569  1.0596 -0.5951
  513MOL0     C69139  10.042   7.118   5.532 -0.5664 -0.2845 -1.2344
  513MOL0     C69140   9.940   7.220   5.484  0.1130  0.6457  0.3299
  513MOL0     C69141   9.835   7.281   5.579 -0.1419 -0.2896 -0.2964
  513MOL0     C69142   9.894   7.334   5.714  0.7632  0.8497  0.5263
  513MOL0     C69143  10.019   7.417   5.721  0.3290 -0.5026  0.3769
  513MOL0     O69144  10.021   7.550   5.662  0.4609 -0.2332 -0.7802
  513MOL0     C69145  10.123   7.633   5.698 -0.4195 -0.5823 -0.4703
  513MOL0     C69146  10.252   7.580   5.749  0.2468  0.2555 -0.0394
  513MOL0     C69147  10.356   7.662   5.770 -0.0891 -0.8537 -0.2113
  513MOL0     C69148  10.352   7.800   5.735  0.1241 -0.6567  0.3262
  513MOL0     C69149  10.482   7.881   5.736  0.4536 -0.5846 -0.4077
  513MOL0     O69150  10.595   7.815   5.766  0.5581 -0.2925 -0.4751
  513MOL0     C69151  10.725   7.866   5.750 -0.0728 -0.1009 -0.1041
  513MOL0     C69152  10.766   7.982   5.676 -0.9826 -0.1919  1.0642
  513MOL0     C69153  10.909   8.018   5.668  0.0558 -0.0705 -0.8049
  513MOL0     C69154  11.004   7.933   5.718 -0.0173 -0.0195  0.0168
  513MOL0     O69155  11.139   7.959   5.681  0.7207  0.2046  0.0116
  513MOL0     C69156  11.247   7.859   5.700  0.5977 -0.2502  0.1371
  513MOL0     C69157  11.285   7.775   5.579  0.1245  0.8572  0.4900
  513MOL0     C69158  11.342   7.843   5.454  0.2579  0.6148 -0.4404
  513MOL0     C69159  11.315   7.753   5.334  0.3949 -0.5648  0.5636
  513MOL0     C69160  11.378   7.811   5.204  0.1566  0.7887 -0.2783
  513MOL0     C69161  11.336   7.730   5.086 -0.3072 -0.3621 -0.2046
  513MOL0     C69162  11.365   7.811   4.958 -0.5272 -0.1160 -1.1646
  513MOL0     C69163  11.278   7.937   4.950 -0.7730 -0.4177 -0.6567
  513MOL0    Cl69164  11.097   7.898   4.982  0.4096 -0.1439  0.1451
  513MOL0     C69165  10.964   7.816   5.784  0.4378 -0.9053 -0.1268
  513MOL0     C69166  10.826   7.795   5.810 -0.9332  0.0472 -0.1459
  513MOL0     O69167  10.468   8.005   5.725  0.8004  1.1010 -0.7350
  513MOL0     C69168  10.233   7.853   5.675 -0.6525 -0.8225  0.3090
  513MOL0     C69169  10.120   7.769   5.666  0.0514 -0.2685  0.1897
  513MOL0     N69170  10.178   7.123   5.490  0.8768 -0.5399  0.2996
  513MOL0     N69171  10.239   7.033   5.553 -0.0146 -1.2543  0.6968
  513MOL0     C69172   9.937   7.163   6.525  0.0158 -0.0244  0.2833
  513MOL0     C69173   9.853   7.273   6.514 -0.4450 -0.1001  0.9178
  513MOL0     C69174   9.737   7.716   6.595 -0.1968 -0.1835  0.0602
  513MOL0     C69175   9.697   7.788   6.473  1.0407 -0.4863 -0.1461
  513MOL0     C69176   9.616   7.906   6.481  0.4764  0.7294  0.4599
  513MOL0     C69177   9.578   7.962   6.597  0.8054 -0.6254 -0.8146
  513MOL0     O69178   9.504   8.081   6.590  0.2080  0.0446  0.7261
  513MOL0     C69179   9.543   8.190   6.674 -0.6464  0.3138  0.2187
  513MOL0     C69180   9.509   8.324   6.618 -0.5664 -0.3563 -0.1539
  513MOL0     C69181   9.354   8.320   6.610 -0.1684 -0.0861 -0.6299
  513MOL0     C69182   9.288   8.450   6.562  0.7148  0.0062  0.6796
  513MOL0     C69183   9.334   8.514   6.432 -0.1312  0.2558 -0.4238
  513MOL0     C69184   9.364   8.591   6.343  0.4175  0.5598  0.2335
  513MOL0     C69185   9.610   7.892   6.722  0.2940 -0.0718  0.5436
  513MOL0     C69186   9.683   7.771   6.722 -0.4738 -0.3265 -0.3341
  513MOL0     C69187   9.693   7.694   6.853 -0.7131 -0.4856 -0.1553
  513MOL0     H69188  10.084   7.517   6.475 -2.0451  0.8440 -0.1290
  513MOL0     H69189  10.236   7.330   6.499  0.5748 -3.7011  3.2527
  513MOL0     H69190  10.208   6.870   6.558 -1.8198 -2.1085 -0.3467
  513MOL0     H69191  10.050   6.913   6.557 -0.1950 -1.3082  0.5682
  513MOL0     H69192  10.226   6.979   6.321 -0.7646 -0.6017 -2.1716
  513MOL0     H69193  10.052   6.996   6.329  1.9927  1.8216  1.4532
  513MOL0     H69194  10.036   6.747   6.379 -1.4592 -0.1750  0.1470
  513MOL0     H69195  10.207   6.743   6.338 -1.7625 -2.7994 -0.1994
  513MOL0     H69196  10.014   6.701   6.159  1.0485  0.8614  0.3524
  513MOL0     H69197  10.041   6.871   6.115  3.7378  6.2237  3.6996
  513MOL0     H69198  10.295   6.825   6.118  1.0473 -0.7709 -0.5668
  513MOL0     H69199  10.248   6.654   6.124 -1.2575 -0.3901 -1.5079
  513MOL0     H69200  10.282   6.693   5.879  0.4433  0.3171 -0.4952
  513MOL0     H69201  10.111   6.692   5.912  0.1406 -1.1237 -0.3006
  513MOL0     H69202  10.269   6.950   5.905  1.4251 -1.3177 -0.2089
  513MOL0     H69203  10.088   6.927   5.896 -0.6370  0.7483 -3.4222
  513MOL0     H69204  10.296   6.827   5.700  0.9279  2.1148 -2.6547
  513MOL0     H69205  10.129   6.774   5.700 -1.3013  0.5048  2.6798
  513MOL0     H69206   9.949   7.004   5.695  0.7822  0.8541  0.5804
  513MOL0     H69207   9.984   7.314   5.449 -1.9153  0.8390 -1.9162
  513MOL0     H69208   9.893   7.186   5.392 -0.9967  0.2774  1.0217
  513MOL0     H69209   9.794   7.364   5.521 -0.1749  1.9536  2.6738
  513MOL0     H69210   9.755   7.208   5.598 -0.6495 -0.1274 -1.7036
  513MOL0     H69211   9.911   7.254   5.786  0.6382  2.5778  2.5700
  513MOL0     H69212   9.812   7.388   5.762  0.6604  1.5120 -0.3648
  513MOL0     H69213  10.089   7.349   5.672  0.7758 -1.1086  1.8258
  513MOL0     H69214  10.048   7.424   5.826  3.3946 -1.5800 -0.3010
  513MOL0     H69215  10.275   7.477   5.775 -2.4264 -0.1269  1.2198
  513MOL0     H69216  10.448   7.612   5.796 -0.0317  0.3546  2.1332
  513MOL0     H69217  10.695   8.052   5.634 -1.0139 -0.6811  0.2730
  513MOL0     H69218  10.949   8.109   5.623 -0.2345 -0.0100 -0.9452
  513MOL0     H69219  11.331   7.926   5.717 -0.9181  1.6799  0.3026
  513MOL0     H69220  11.229   7.793   5.786  3.5484 -3.1716 -1.2734
  513MOL0     H69221  11.356   7.700   5.614 -1.7971 -1.8706 -1.0959
  513MOL0     H69222  11.199   7.714   5.549  0.7363 -0.0913  0.6352
  513MOL0     H69223  11.297   7.940   5.430 -1.6225  0.0247  0.4921
  513MOL0     H69224  11.448   7.866   5.463 -0.1215  2.2469  0.2161
  513MOL0     H69225  11.206   7.743   5.334  0.5545 -2.7975  1.3538
  513MOL0     H69226  11.340   7.648   5.352 -4.2829 -2.3505 -1.6180
  513MOL0     H69227  11.485   7.791   5.215 -0.2169  0.0901  3.0489
  513MOL0     H69228  11.352   7.918   5.202  1.7045  1.3474  3.2553
  513MOL0     H69229  11.386   7.633   5.089 -1.6873 -1.0744  0.8451
  513MOL0     H69230  11.227   7.716   5.089 -0.5343  0.9543 -1.4338
  513MOL0     H69231  11.331   7.746   4.877  1.2976 -3.9266  0.8431
  513MOL0     H69232  11.471   7.837   4.951  0.6305 -4.0364 -0.6064
  513MOL0     H69233  11.319   8.016   5.014  0.4244  1.1038 -3.1788
  513MOL0     H69234  11.287   7.985   4.852  0.6984 -0.4632 -0.5598
  513MOL0     H69235  11.038   7.753   5.833  0.7385 -1.9960 -1.8762
  513MOL0     H69236  10.796   7.705   5.861 -1.8438 -0.0774 -0.8756
  513MOL0     H69237  10.239   7.954   5.636 -0.1409 -0.8377  0.3371
  513MOL0     H69238  10.028   7.801   5.618 -2.2694 -0.4725  4.1276
  513MOL0     H69239   9.896   7.064   6.539 -2.2404  1.1151  2.7448
  513MOL0     H69240   9.746   7.253   6.513 -0.4679 -1.2155 -4.5342
  513MOL0     H69241   9.719   7.745   6.376 -0.3137  1.6121 -1.4778
  513MOL0     H69242   9.553   7.939   6.399 -1.5979  0.4573  1.8676
  513MOL0     H69243   9.652   8.192   6.680 -0.3758 -3.3522 -0.7552
  513MOL0     H69244   9.509   8.176   6.777 -2.4706  0.8265 -0.2788
  513MOL0     H69245   9.552   8.327   6.517  0.7714 -1.0879  0.3763
  513MOL0     H69246   9.550   8.398   6.688 -0.2733 -2.3679  1.8974
  513MOL0     H69247   9.309   8.289   6.704 -1.8555 -0.8233 -1.6287
  513MOL0     H69248   9.321   8.243   6.539 -0.5498 -0.3145 -0.2151
  513MOL0     H69249   9.180   8.436   6.549  0.9550 -3.4986  1.4384
  513MOL0     H69250   9.296   8.524   6.642 -4.0117  4.5317 -2.3819
  513MOL0     H69251   9.386   8.659   6.263  0.2954  1.2832  0.8066
  513MOL0     H69252   9.580   7.940   6.814  2.2630  0.8962  0.7276
  513MOL0     H69253   9.673   7.588   6.837  3.0855 -1.7445  2.3341
  513MOL0     H69254   9.793   7.705   6.896 -0.8612  0.1186  0.0439
  513MOL0     H69255   9.623   7.734   6.927  0.3745  3.0810 -0.8552
  514MOL0     O69256   7.340   6.165   1.479  0.0853  0.1305  0.3569
  514MOL0     C69257   7.336   6.172   1.603 -0.2802  0.3506  0.0613
  514MOL0     O69258   7.369   6.281   1.687 -0.3526 -0.0403  0.4332
  514MOL0     C69259   7.318   6.403   1.663  0.3302 -0.7676 -0.1021
  514MOL0     C69260   7.384   6.504   1.730  0.3642 -0.0756  0.0156
  514MOL0     C69261   7.323   6.632   1.754  0.4806 -0.5154  0.4416
  514MOL0     C69262   7.207   6.665   1.691 -0.2279 -0.0096 -0.1390
  514MOL0     O69263   7.154   6.788   1.727 -0.0081  0.5003  0.6454
  514MOL0     C69264   7.034   6.819   1.664 -0.5170 -0.7864  0.5214
  514MOL0     C69265   7.037   6.974   1.673  0.9289 -0.6729 -0.0183
  514MOL0     C69266   6.985   7.009   1.815 -0.1960 -0.3229  0.4997
  514MOL0     C69267   7.043   7.146   1.862 -0.0176  0.8765 -0.1476
  514MOL0     C69268   6.998   7.172   1.998 -0.5721 -1.1137  1.1624
  514MOL0     C69269   7.055   7.313   2.029 -0.0368  0.4590  0.4599
  514MOL0     C69270   7.059   7.361   2.175 -0.9197  0.2115 -0.1365
  514MOL0     C69271   7.204   7.344   2.238  0.2251  0.3177 -0.2774
  514MOL0     N69272   7.264   7.206   2.223 -0.1472  0.3036  0.6322
  514MOL0     C69273   7.218   7.107   2.301  0.8153  0.0218  0.6730
  514MOL0     C69274   7.315   7.005   2.291  0.3627 -0.0065 -0.3314
  514MOL0     C69275   7.295   6.867   2.357  0.4386 -0.3646  0.2657
  514MOL0     C69276   7.172   6.796   2.301 -0.3860  0.1875 -0.4739
  514MOL0     C69277   7.183   6.743   2.148 -0.9488 -0.1601 -0.0246
  514MOL0     C69278   7.045   6.710   2.076  0.7507 -0.2532  0.4337
  514MOL0     O69279   6.977   6.600   2.135  0.0359  0.1470 -0.4588
  514MOL0     C69280   7.046   6.484   2.146 -0.4005 -0.0673  1.0842
  514MOL0     C69281   7.105   6.438   2.025  0.5300  0.1930 -0.2036
  514MOL0     C69282   7.193   6.330   2.021  0.4222 -0.2156 -0.4649
  514MOL0     C69283   7.199   6.248   2.136 -0.1428  0.8560  0.3016
  514MOL0     C69284   7.278   6.128   2.134 -0.1772 -0.2467 -0.4292
  514MOL0     O69285   7.244   6.034   2.231 -0.8197 -0.0493 -0.1081
  514MOL0     C69286   7.307   5.914   2.219  0.5646  0.5696  0.4494
  514MOL0     C69287   7.441   5.895   2.270  0.4559 -0.6542 -0.2726
  514MOL0     C69288   7.498   5.764   2.281 -0.4513  0.0565 -0.1858
  514MOL0     C69289   7.421   5.659   2.231  0.0043  0.4710  0.5045
  514MOL0     O69290   7.471   5.529   2.238 -0.1693 -0.5152 -0.0082
  514MOL0     C69291   7.429   5.475   2.363 -0.6963  0.1323 -0.3537
  514MOL0     C69292   7.490   5.336   2.380 -0.4689 -0.6441  1.0706
  514MOL0     C69293   7.412   5.247   2.476  0.3949  0.5178 -0.1230
  514MOL0     C69294   7.493   5.114   2.506 -0.0672  0.7339  0.1584
  514MOL0     C69295   7.423   5.026   2.607  0.6177  0.1023  0.2840
  514MOL0     C69296   7.416   5.085   2.744  0.0488 -1.1047 -0.4602
  514MOL0     C69297   7.350   5.001   2.851 -0.1644 -0.1965  0.0336
  514MOL0     C69298   7.309   5.074   2.972  0.7259  0.2832  0.5050
  514MOL0    Cl69299   7.157   5.008   3.053 -0.4674  0.1434 -0.1559
  514MOL0     C69300   7.293   5.678   2.172 -0.8038  0.5351  0.2881
  514MOL0     C69301   7.236   5.801   2.166 -0.0764  0.2587  0.0430
  514MOL0     O69302   7.372   6.126   2.062 -0.8207 -0.4187  0.0034
  514MOL0     C69303   7.133   6.287   2.250  0.1605  0.6297 -0.0873
  514MOL0     C69304   7.072   6.411   2.258 -0.8543 -0.2209  0.7714
  514MOL0     N69305   7.406   7.044   2.187 -0.0471  1.2752  0.2701
  514MOL0     N69306   7.384   7.171   2.161 -0.1180 -0.1082  0.2382
  514MOL0     C69307   7.150   6.568   1.614  0.3436 -0.2512 -0.4313
  514MOL0     C69308   7.211   6.443   1.587 -0.1977 -0.1113 -0.4518
  514MOL0     C69309   7.328   6.044   1.672  0.1193 -0.8835 -0.5955
  514MOL0     C69310   7.421   6.021   1.768 -0.3966 -1.2813 -0.4745
  514MOL0     C69311   7.431   5.901   1.824  0.2380 -0.3958  0.2668
  514MOL0     C69312   7.356   5.784   1.790 -0.2776 -0.5011 -0.7980
  514MOL0     O69313   7.390   5.664   1.850 -0.5870 -0.0905  0.7031
  514MOL0     C69314   7.358   5.541   1.783 -0.6392 -0.3003 -0.5798
  514MOL0     C69315   7.241   5.479   1.856  0.5688 -0.3474 -0.5315
  514MOL0     C69316   7.147   5.391   1.764  0.2231 -1.2753 -0.1673
  514MOL0     C69317   7.023   5.344   1.849  0.4779 -0.8283  0.3369
  514MOL0     C69318   6.956   5.237   1.770  0.6186  0.8349  0.6183
  514MOL0     C69319   6.897   5.155   1.699  0.4457 -0.7679  0.3674
  514MOL0     C69320   7.262   5.804   1.690 -0.5318 -0.3304  1.2239
  514MOL0     C69321   7.247   5.934   1.635  0.2609  0.4070  0.0348
  514MOL0     C69322   7.132   5.942   1.531  0.5679 -0.1366  0.8742
  514MOL0     H69323   7.475   6.465   1.775  2.0057  1.5669 -1.6848
  514MOL0     H69324   7.383   6.700   1.814  2.6991 -2.4455  0.5503
  514MOL0     H69325   7.033   6.801   1.557 -0.5478 -1.8152  0.6897
  514MOL0     H69326   6.955   6.760   1.712  1.1036 -2.3626  1.3503
  514MOL0     H69327   6.972   7.027   1.604 -1.8284 -1.6042  1.6670
  514MOL0     H69328   7.140   7.010   1.670  0.3317  1.0096 -1.2170
  514MOL0     H69329   7.022   6.929   1.879  1.1090 -0.4495 -0.3527
  514MOL0     H69330   6.876   7.018   1.811 -0.0746  2.3279  1.2395
  514MOL0     H69331   7.151   7.162   1.850  0.5157 -1.2047  1.4492
  514MOL0     H69332   7.006   7.222   1.792  0.7025  1.0985 -0.2983
  514MOL0     H69333   6.888   7.172   2.000 -0.6733  2.1640  2.2547
  514MOL0     H69334   7.027   7.095   2.070  2.7706 -2.4760 -1.3957
  514MOL0     H69335   7.153   7.328   1.984 -0.4875 -1.6889 -1.4299
  514MOL0     H69336   6.982   7.375   1.976  0.5940 -0.3834 -1.4486
  514MOL0     H69337   6.988   7.298   2.230  0.6999 -0.1463  1.6301
  514MOL0     H69338   7.042   7.469   2.186  0.3684  0.3737  0.4649
  514MOL0     H69339   7.276   7.410   2.189  1.3664 -2.4205 -2.5384
  514MOL0     H69340   7.212   7.372   2.344  1.9249 -0.6863 -0.0879
  514MOL0     H69341   7.125   7.108   2.356 -0.0684 -0.9859 -0.7370
  514MOL0     H69342   7.382   6.802   2.353  1.5066  1.0566 -2.4725
  514MOL0     H69343   7.271   6.900   2.458 -2.4878  1.5905 -0.9065
  514MOL0     H69344   7.161   6.708   2.365 -1.5265 -0.2342 -1.2129
  514MOL0     H69345   7.085   6.863   2.308  0.0785  0.6606  1.0254
  514MOL0     H69346   7.244   6.652   2.141 -2.0974 -1.0779  1.2187
  514MOL0     H69347   7.228   6.828   2.097  3.8269 -0.9274  2.3183
  514MOL0     H69348   7.066   6.698   1.969 -0.0380  0.2397  0.2144
  514MOL0     H69349   6.985   6.801   2.082  2.0873  0.6571  0.6292
  514MOL0     H69350   7.070   6.471   1.927 -2.9387 -2.2113  0.0478
  514MOL0     H69351   7.243   6.292   1.933  1.0620 -1.5566  0.4497
  514MOL0     H69352   7.499   5.981   2.303 -0.0100 -0.1097 -0.8392
  514MOL0     H69353   7.596   5.741   2.322 -0.4921  1.4481  0.7554
  514MOL0     H69354   7.458   5.542   2.444 -3.0489  0.0795  0.6265
  514MOL0     H69355   7.321   5.456   2.363 -0.5500 -0.8462  0.9779
  514MOL0     H69356   7.513   5.275   2.292  1.6037 -1.3056  2.0010
  514MOL0     H69357   7.589   5.356   2.421  0.3013  0.4491 -1.1694
  514MOL0     H69358   7.419   5.305   2.569  0.8229 -1.1150  0.9199
  514MOL0     H69359   7.310   5.235   2.441  0.2301  2.5513 -0.4273
  514MOL0     H69360   7.594   5.129   2.545 -1.3666  0.3722  4.0734
  514MOL0     H69361   7.500   5.057   2.413  1.0231 -0.9304  1.1981
  514MOL0     H69362   7.470   4.927   2.606 -0.1255 -0.4014 -3.7539
  514MOL0     H69363   7.322   5.017   2.566  0.7963 -1.6099  0.1162
  514MOL0     H69364   7.516   5.112   2.779 -0.5352 -0.6223  0.8801
  514MOL0     H69365   7.357   5.176   2.732  1.7191 -0.1424 -1.8211
  514MOL0     H69366   7.404   4.911   2.882 -2.9382 -1.8879  0.3766
  514MOL0     H69367   7.261   4.967   2.798  1.8817 -0.1593 -3.7237
  514MOL0     H69368   7.382   5.097   3.050 -0.6264  0.5154  1.7526
  514MOL0     H69369   7.274   5.175   2.946 -2.9353 -0.7945  0.7101
  514MOL0     H69370   7.236   5.594   2.133 -0.1066  0.2847 -0.2064
  514MOL0     H69371   7.152   5.830   2.104 -0.5353 -1.0954 -0.0136
  514MOL0     H69372   7.127   6.232   2.344 -2.5776  0.7442 -0.1129
  514MOL0     H69373   7.037   6.445   2.355 -4.8072 -1.7937  0.0954
  514MOL0     H69374   7.054   6.586   1.568  0.7586  0.6767 -0.9644
  514MOL0     H69375   7.159   6.369   1.528  2.6674  0.2309 -3.7965
  514MOL0     H69376   7.501   6.089   1.793 -1.8269 -0.2300  1.5470
  514MOL0     H69377   7.521   5.894   1.883  0.7851  3.0518 -0.0010
  514MOL0     H69378   7.435   5.464   1.796 -1.9673 -1.4488  0.9497
  514MOL0     H69379   7.350   5.552   1.674 -1.2956  1.3508 -0.3853
  514MOL0     H69380   7.176   5.559   1.891  0.1863 -1.4389  1.4095
  514MOL0     H69381   7.274   5.426   1.946  0.3037  2.4910  1.3615
  514MOL0     H69382   7.216   5.311   1.736  0.5675 -0.5282 -1.5099
  514MOL0     H69383   7.115   5.448   1.677 -0.8080 -1.8501 -0.1832
  514MOL0     H69384   7.050   5.301   1.946 -0.7913  1.3823  1.7421
  514MOL0     H69385   6.949   5.423   1.859  1.1761 -0.0448 -0.4239
  514MOL0     H69386   6.852   5.075   1.644  3.1926 -1.5208 -0.9828
  514MOL0     H69387   7.202   5.723   1.651 -2.7260  1.7544 -0.0345
  514MOL0     H69388   7.053   5.996   1.584  0.5263 -1.2913  2.0520
  514MOL0     H69389   7.153   5.993   1.437 -0.0157 -4.1668 -1.7173
  514MOL0     H69390   7.105   5.842   1.494  0.8019  0.0579  0.1688
  515MOL0     O69391   0.248   3.376   5.282  0.3027  0.5939  0.0184
  515MOL0     C69392   0.318   3.319   5.365 -0.3725  0.4493 -0.5645
  515MOL0     O69393   0.273   3.252   5.470 -0.3432 -0.1367 -0.3306
  515MOL0     C69394   0.150   3.197   5.470  0.2350  0.0772 -0.2546
  515MOL0     C69395   0.126   3.090   5.384  0.1776  0.7995  0.8957
  515MOL0     C69396  -0.007   3.030   5.386 -0.3749  0.3243  0.1715
  515MOL0     C69397  -0.104   3.071   5.479  0.5468  0.1383 -0.0538
  515MOL0     O69398  -0.219   2.995   5.469 -0.0613  0.2902  0.1833
  515MOL0     C69399  -0.320   2.995   5.567 -0.7068  0.9905 -0.1720
  515MOL0     C69400  -0.257   2.896   5.676  0.0565 -0.1923  1.2111
  515MOL0     C69401  -0.321   2.755   5.689 -0.4196  0.1750  0.7273
  515MOL0     C69402  -0.348   2.683   5.557  0.3619  0.6619 -0.6281
  515MOL0     C69403  -0.404   2.538   5.572  0.1255 -0.0916 -0.2929
  515MOL0     C69404  -0.488   2.504   5.440  0.1948  0.5942  0.1299
  515MOL0     C69405  -0.532   2.359   5.440 -0.3099  0.7593  0.3418
  515MOL0     C69406  -0.557   2.316   5.300  0.5804  0.5967 -0.7865
  515MOL0     N69407  -0.604   2.179   5.301 -0.1071  0.2725  0.2011
  515MOL0     C69408  -0.532   2.069   5.270  0.9737 -0.0138 -0.5633
  515MOL0     C69409  -0.636   1.967   5.288 -1.2611  0.1074  0.8755
  515MOL0     C69410  -0.597   1.827   5.235 -0.2872 -0.4689 -0.6524
  515MOL0     C69411  -0.722   1.759   5.177 -0.4896 -0.7149  0.5258
  515MOL0     C69412  -0.782   1.855   5.069  0.8592  0.5928 -0.3462
  515MOL0     C69413  -0.702   1.914   4.966 -0.2086  0.3355  0.3177
  515MOL0     O69414  -0.624   1.824   4.889 -0.0028 -0.2675 -0.2626
  515MOL0     C69415  -0.664   1.786   4.762 -0.0063  0.3460  0.2169
  515MOL0     C69416  -0.567   1.710   4.680  0.3123 -0.1779  0.3522
  515MOL0     C69417  -0.607   1.658   4.547  0.9760 -0.3578 -0.9581
  515MOL0     C69418  -0.736   1.693   4.496  0.4925  1.2019 -0.1466
  515MOL0     C69419  -0.780   1.653   4.353 -0.2748 -0.6765 -0.0985
  515MOL0     O69420  -0.906   1.681   4.315 -0.0976  0.1045  0.4324
  515MOL0     C69421  -0.981   1.621   4.214  1.0463  0.0989  0.0658
  515MOL0     C69422  -1.122   1.612   4.224 -0.2647 -0.2751 -0.0555
  515MOL0     C69423  -1.197   1.562   4.120  1.1138  0.5970  1.5156
  515MOL0     C69424  -1.149   1.516   3.994 -0.1526 -0.0273 -0.0532
  515MOL0     O69425  -1.240   1.512   3.895  0.7450 -0.6521  0.1996
  515MOL0     C69426  -1.194   1.483   3.766  0.1139 -0.8945 -0.3282
  515MOL0     C69427  -1.310   1.510   3.672  0.6779 -0.2648 -0.1578
  515MOL0     C69428  -1.385   1.643   3.674 -0.8520 -0.8490 -0.8876
  515MOL0     C69429  -1.302   1.769   3.675  0.0232  0.5758 -0.4669
  515MOL0     C69430  -1.241   1.794   3.541 -0.6447 -1.2219  0.7785
  515MOL0     C69431  -1.168   1.927   3.551 -0.8918 -0.2920  0.7606
  515MOL0     C69432  -1.195   2.017   3.432 -0.3170 -0.0806  0.8365
  515MOL0     C69433  -1.118   2.147   3.458 -0.9029 -0.2912 -0.3942
  515MOL0    Cl69434  -1.127   2.234   3.615  0.4887 -0.0337 -0.1833
  515MOL0     C69435  -1.012   1.518   3.985  0.1175 -0.2550 -0.8843
  515MOL0     C69436  -0.929   1.579   4.088  0.2512  0.2143 -0.1067
  515MOL0     O69437  -0.701   1.589   4.284  0.5546 -0.4860  0.1978
  515MOL0     C69438  -0.829   1.759   4.576 -0.2795  0.3655 -0.7627
  515MOL0     C69439  -0.789   1.803   4.706  0.0714  0.6507  0.6160
  515MOL0     N69440  -0.753   2.024   5.329  0.9598 -0.1772  0.3948
  515MOL0     N69441  -0.734   2.147   5.327 -0.3682 -0.8930  0.3847
  515MOL0     C69442  -0.079   3.178   5.561 -0.6310 -0.9242  0.1818
  515MOL0     C69443   0.051   3.242   5.555 -0.7788  0.2755 -0.0392
  515MOL0     C69444   0.466   3.302   5.333 -0.1424 -0.8304 -0.0319
  515MOL0     C69445   0.517   3.175   5.324  0.5300 -0.4183 -0.6105
  515MOL0     C69446   0.650   3.157   5.277 -0.8379  0.2158 -0.4855
  515MOL0     C69447   0.722   3.257   5.226  0.3293  0.5519  0.0447
  515MOL0     O69448   0.843   3.222   5.164 -0.2551  0.1960  0.2013
  515MOL0     C69449   0.946   3.324   5.130  0.3318  0.9168  0.0392
  515MOL0     C69450   1.005   3.402   5.252  0.4412 -0.7447  0.8564
  515MOL0     C69451   1.085   3.317   5.336 -0.4648 -0.0827 -0.5842
  515MOL0     C69452   1.152   3.399   5.453 -0.1324 -0.0822 -0.1459
  515MOL0     C69453   1.047   3.473   5.538 -1.6083 -0.2268 -0.3383
  515MOL0     C69454   0.970   3.539   5.609  0.2368  0.3609 -0.2420
  515MOL0     C69455   0.660   3.381   5.218  0.0583 -0.8624 -0.1563
  515MOL0     C69456   0.547   3.407   5.286  0.5966  0.0725  0.1932
  515MOL0     C69457   0.490   3.546   5.284  0.1011 -0.2350 -0.4233
  515MOL0     H69458   0.216   3.057   5.333  0.6018  0.9780  1.5153
  515MOL0     H69459  -0.024   2.937   5.332 -0.0918  0.2451  0.2202
  515MOL0     H69460  -0.350   3.087   5.619 -2.7442 -0.1700  0.8191
  515MOL0     H69461  -0.410   2.967   5.512  1.3652  0.3359 -3.5342
  515MOL0     H69462  -0.291   2.941   5.770 -2.9966 -1.7118  0.9606
  515MOL0     H69463  -0.148   2.902   5.674  0.0355  1.6055  2.8042
  515MOL0     H69464  -0.415   2.759   5.745  0.2339 -2.0118  2.1140
  515MOL0     H69465  -0.257   2.700   5.759 -1.4581 -2.8213 -0.5202
  515MOL0     H69466  -0.411   2.741   5.488  0.5837  0.5848 -0.8992
  515MOL0     H69467  -0.251   2.676   5.508  2.2407 -2.9211  3.0110
  515MOL0     H69468  -0.316   2.476   5.588  1.6758  1.9178 -0.5628
  515MOL0     H69469  -0.472   2.530   5.657 -0.1027  1.0498 -0.3508
  515MOL0     H69470  -0.568   2.576   5.419  2.1129  2.7788 -0.0021
  515MOL0     H69471  -0.407   2.513   5.367  1.8134 -0.1741  1.7725
  515MOL0     H69472  -0.621   2.353   5.503 -0.4520 -2.0204 -0.0128
  515MOL0     H69473  -0.459   2.289   5.480 -0.0508  0.8599  0.0512
  515MOL0     H69474  -0.639   2.379   5.264 -2.5689 -3.6379 -1.8568
  515MOL0     H69475  -0.469   2.334   5.238  1.6682  0.0348  0.5347
  515MOL0     H69476  -0.432   2.061   5.229  1.8012  1.2853  1.1193
  515MOL0     H69477  -0.512   1.841   5.168  0.8701  2.1263  1.1979
  515MOL0     H69478  -0.559   1.778   5.325  0.8514  4.1376  1.7083
  515MOL0     H69479  -0.687   1.670   5.124  1.5216  0.1085  0.3687
  515MOL0     H69480  -0.791   1.732   5.257 -2.2340  0.9037 -0.3753
  515MOL0     H69481  -0.849   1.931   5.111 -1.7673 -0.5979 -2.1183
  515MOL0     H69482  -0.846   1.786   5.014  1.3289  0.7097 -1.0651
  515MOL0     H69483  -0.649   2.002   5.005 -0.7435  0.0227  1.7924
  515MOL0     H69484  -0.774   1.962   4.898 -0.6527 -0.6061  0.1129
  515MOL0     H69485  -0.472   1.671   4.714 -0.4015 -1.1136  1.3690
  515MOL0     H69486  -0.542   1.594   4.487 -0.3913 -0.7263 -2.1206
  515MOL0     H69487  -1.167   1.660   4.310  3.0849 -0.0680  1.7142
  515MOL0     H69488  -1.305   1.563   4.124  1.1113 -0.0049  1.7345
  515MOL0     H69489  -1.122   1.558   3.733 -1.5657  0.8809 -0.1225
  515MOL0     H69490  -1.154   1.382   3.755 -1.9800 -1.8606  0.4023
  515MOL0     H69491  -1.284   1.477   3.571  0.8426 -1.3535  0.2296
  515MOL0     H69492  -1.382   1.437   3.709  1.8261  0.1881  3.3505
  515MOL0     H69493  -1.441   1.660   3.581  0.4249  0.4901 -1.4537
  515MOL0     H69494  -1.449   1.639   3.763  0.3660 -1.5338 -0.0139
  515MOL0     H69495  -1.222   1.753   3.748 -1.6893 -1.5778  1.0972
  515MOL0     H69496  -1.361   1.854   3.711 -1.4244 -1.2819  1.7997
  515MOL0     H69497  -1.315   1.802   3.461  1.9827  0.5193 -1.6910
  515MOL0     H69498  -1.184   1.710   3.499  1.1251  0.8292 -1.1877
  515MOL0     H69499  -1.206   1.977   3.641 -0.8331 -0.2582  0.7668
  515MOL0     H69500  -1.061   1.910   3.564 -0.9600 -0.9843  0.4209
  515MOL0     H69501  -1.302   2.033   3.421 -0.1770  0.5102  0.3168
  515MOL0     H69502  -1.159   1.972   3.339 -2.9526 -0.9760  0.1636
  515MOL0     H69503  -1.009   2.138   3.453 -0.9508 -0.5044 -4.2733
  515MOL0     H69504  -1.144   2.223   3.383  3.9532 -0.4163 -2.5886
  515MOL0     H69505  -0.957   1.495   3.894  0.6537  0.5387 -0.7752
  515MOL0     H69506  -0.824   1.604   4.076  0.2207  1.0709  1.2280
  515MOL0     H69507  -0.923   1.801   4.541  0.1231 -0.2141 -2.6331
  515MOL0     H69508  -0.869   1.845   4.766 -0.0987  0.5831  0.4375
  515MOL0     H69509  -0.154   3.225   5.624 -0.1156  0.3014 -0.0879
  515MOL0     H69510   0.088   3.322   5.618 -0.8773  1.6303 -1.6172
  515MOL0     H69511   0.453   3.089   5.338  1.0808 -1.2292 -2.6506
  515MOL0     H69512   0.701   3.062   5.268 -0.0504  0.2450  2.4947
  515MOL0     H69513   0.896   3.394   5.062 -0.0955 -1.2949 -2.0637
  515MOL0     H69514   1.016   3.265   5.070 -0.2623 -0.0403  0.2694
  515MOL0     H69515   0.917   3.441   5.304 -0.3560  1.2174 -1.7461
  515MOL0     H69516   1.069   3.482   5.214  0.0023 -0.1568  1.3495
  515MOL0     H69517   1.159   3.256   5.283 -2.5863 -1.2124 -2.4079
  515MOL0     H69518   1.018   3.244   5.381  1.0379 -0.3864  1.2961
  515MOL0     H69519   1.209   3.339   5.524 -1.4822 -0.4931  0.6097
  515MOL0     H69520   1.221   3.474   5.413  0.4697  2.2445  4.5599
  515MOL0     H69521   0.905   3.608   5.658 -1.5159 -1.5341  0.2332
  515MOL0     H69522   0.717   3.453   5.160  1.0058 -1.3272  0.1876
  515MOL0     H69523   0.398   3.549   5.224  0.4742 -1.9633 -1.1288
  515MOL0     H69524   0.456   3.561   5.387 -0.2175 -1.7053 -0.2945
  515MOL0     H69525   0.567   3.616   5.250  2.1456  0.5659  4.9632
  516MOL0     O69526   2.796   4.384   8.183 -0.1993  0.3825  0.2788
  516MOL0     C69527   2.709   4.433   8.108  0.8194 -0.5329 -0.9851
  516MOL0     O69528   2.624   4.368   8.031  0.4984  0.1293 -0.2076
  516MOL0     C69529   2.620   4.229   8.063  0.1477 -0.4998  0.6460
  516MOL0     C69530   2.714   4.140   8.006  0.4985  0.0125  1.1069
  516MOL0     C69531   2.713   4.004   8.047  0.2214 -0.1657 -1.3542
  516MOL0     C69532   2.613   3.953   8.139 -0.6650 -0.8940 -0.4559
  516MOL0     O69533   2.590   3.817   8.156 -0.4244  0.1868  0.1905
  516MOL0     C69534   2.688   3.720   8.126 -0.0134 -0.3910  0.4964
  516MOL0     C69535   2.712   3.619   8.232  0.1059 -0.4372 -0.1010
  516MOL0     C69536   2.783   3.667   8.362  0.5690  0.6190  0.2370
  516MOL0     C69537   2.710   3.778   8.440 -0.2706 -0.2369  0.2767
  516MOL0     C69538   2.755   3.799   8.585 -0.3194 -0.0353  0.2466
  516MOL0     C69539   2.658   3.882   8.672  0.6030  1.0376  0.6501
  516MOL0     C69540   2.728   3.925   8.804 -0.5504  0.2805 -0.1247
  516MOL0     C69541   2.744   3.807   8.905  0.3400 -0.1556  0.3240
  516MOL0     N69542   2.616   3.759   8.959 -0.5522  0.6497  1.0339
  516MOL0     C69543   2.547   3.646   8.913 -0.6842 -0.6439  0.1607
  516MOL0     C69544   2.454   3.615   9.001 -0.7467 -0.2882 -0.1077
  516MOL0     C69545   2.365   3.499   9.001  0.4057 -0.9293  0.4419
  516MOL0     C69546   2.259   3.526   8.898 -0.3282 -0.0955 -0.2745
  516MOL0     C69547   2.146   3.422   8.892 -0.3826  0.2932 -0.0190
  516MOL0     C69548   2.183   3.277   8.953 -0.9289 -0.6510 -1.0712
  516MOL0     O69549   2.066   3.191   8.941  0.6249 -0.2477 -0.8982
  516MOL0     C69550   2.082   3.058   8.920  0.3689 -0.1652 -0.2337
  516MOL0     C69551   2.196   2.987   8.976  0.4468 -0.4491  0.2902
  516MOL0     C69552   2.211   2.860   8.949  0.2315 -0.7098 -0.2016
  516MOL0     C69553   2.121   2.781   8.870 -0.4090  0.8725  0.0680
  516MOL0     C69554   2.150   2.642   8.816  0.2497  0.3206  0.2746
  516MOL0     O69555   2.070   2.588   8.719 -0.0980 -0.6705  0.0457
  516MOL0     C69556   2.075   2.455   8.693  0.3447  0.3511 -0.4538
  516MOL0     C69557   2.159   2.393   8.599  0.1617  0.8997 -0.5657
  516MOL0     C69558   2.164   2.255   8.584 -0.3928  0.5230  0.3240
  516MOL0     C69559   2.078   2.175   8.647  0.3294  0.2806 -0.2193
  516MOL0     O69560   2.091   2.045   8.599  0.6772 -0.7906 -0.4096
  516MOL0     C69561   2.046   1.931   8.674 -0.7927 -0.4940  0.5882
  516MOL0     C69562   2.081   1.807   8.590  0.7517  0.6354 -0.1396
  516MOL0     C69563   1.995   1.810   8.459  0.7724  0.0264  0.3985
  516MOL0     C69564   1.977   1.671   8.387  0.7953 -0.1552 -0.1993
  516MOL0     C69565   1.968   1.683   8.232  0.0338 -0.5034  0.6485
  516MOL0     C69566   1.952   1.543   8.170 -0.6611 -0.2539  0.4760
  516MOL0     C69567   1.997   1.534   8.020  0.0179  0.0834 -0.7406
  516MOL0     C69568   2.012   1.392   7.979 -0.0039  0.1225 -0.3309
  516MOL0    Cl69569   2.148   1.326   8.087 -0.3732 -0.2455  0.2014
  516MOL0     C69570   1.985   2.227   8.734  0.7180 -0.6631  0.2638
  516MOL0     C69571   1.985   2.367   8.751 -1.2118  0.3109 -0.1807
  516MOL0     O69572   2.247   2.585   8.863  0.0560 -1.4300  0.1923
  516MOL0     C69573   1.999   2.848   8.837 -0.3292 -0.1863  0.8360
  516MOL0     C69574   1.981   2.986   8.871  0.4893  0.1144 -0.4183
  516MOL0     N69575   2.463   3.716   9.108  0.2982  0.2614 -0.2296
  516MOL0     N69576   2.558   3.801   9.078 -0.0010  0.8921  0.1128
  516MOL0     C69577   2.525   4.047   8.205  0.4805  0.0982  1.7172
  516MOL0     C69578   2.533   4.181   8.167  0.3996 -0.2200  0.0502
  516MOL0     C69579   2.694   4.592   8.097 -0.1578  1.3102  0.0382
  516MOL0     C69580   2.625   4.651   7.991  0.0182 -0.2699  0.8016
  516MOL0     C69581   2.627   4.787   7.968 -0.1465 -0.1638 -0.0083
  516MOL0     C69582   2.666   4.878   8.074  0.8763 -0.3314 -0.7111
  516MOL0     O69583   2.640   5.022   8.064 -1.0353 -0.8341 -0.0132
  516MOL0     C69584   2.535   5.082   7.981  0.4679 -0.7191 -0.2019
  516MOL0     C69585   2.459   5.193   8.056 -0.3787  0.0029  0.4796
  516MOL0     C69586   2.398   5.145   8.184  0.6672  0.5655  0.1266
  516MOL0     C69587   2.292   5.041   8.165  0.5316 -0.6758  0.4559
  516MOL0     C69588   2.346   4.903   8.180 -0.2574  0.2438  0.0509
  516MOL0     C69589   2.364   4.795   8.220 -0.3498 -0.3596 -0.3802
  516MOL0     C69590   2.728   4.812   8.181  0.0352 -0.1277  0.2627
  516MOL0     C69591   2.740   4.682   8.196 -0.1180  0.4295  1.0319
  516MOL0     C69592   2.811   4.627   8.324  0.0739  0.1121 -0.2959
  516MOL0     H69593   2.793   4.173   7.939 -1.4536 -0.1782 -1.4189
  516MOL0     H69594   2.793   3.950   7.999  1.1427  2.8900 -3.5902
  516MOL0     H69595   2.655   3.666   8.037 -1.3321 -0.1143  0.7921
  516MOL0     H69596   2.785   3.769   8.114 -0.3051  0.7665  2.3854
  516MOL0     H69597   2.767   3.542   8.179 -1.9856 -0.7429 -1.9621
  516MOL0     H69598   2.620   3.572   8.269  0.5481  1.6292  4.3277
  516MOL0     H69599   2.880   3.707   8.330  0.4725 -0.3231 -1.3449
  516MOL0     H69600   2.796   3.589   8.437 -0.7267  1.4657  1.3914
  516MOL0     H69601   2.702   3.878   8.397  0.5694  0.0140  0.6781
  516MOL0     H69602   2.606   3.744   8.442 -0.1373 -0.8646 -1.7666
  516MOL0     H69603   2.769   3.697   8.621  3.7500 -0.7623 -2.5609
  516MOL0     H69604   2.855   3.843   8.582 -0.6920  0.8295 -2.1070
  516MOL0     H69605   2.632   3.969   8.612  1.5006 -1.4697 -3.8664
  516MOL0     H69606   2.568   3.823   8.692  1.1875  0.3475  1.3246
  516MOL0     H69607   2.658   3.994   8.852  1.1572  1.7886  0.2841
  516MOL0     H69608   2.819   3.984   8.794 -0.5343  0.5925  1.6944
  516MOL0     H69609   2.807   3.725   8.868  0.7103  0.0526  0.4855
  516MOL0     H69610   2.800   3.847   8.990 -2.0021 -1.4590  2.6231
  516MOL0     H69611   2.571   3.607   8.815  1.4362  1.8528 -0.4408
  516MOL0     H69612   2.415   3.404   8.982 -0.3732 -1.4346  0.8723
  516MOL0     H69613   2.314   3.493   9.098 -3.0267  1.5832 -1.0363
  516MOL0     H69614   2.230   3.630   8.916  0.2902 -0.1021  0.8203
  516MOL0     H69615   2.309   3.522   8.800  1.0555 -0.6699  0.4274
  516MOL0     H69616   2.125   3.415   8.785  1.4648 -0.1362 -0.3897
  516MOL0     H69617   2.060   3.464   8.945 -1.2408  1.2035 -2.0357
  516MOL0     H69618   2.207   3.293   9.058 -0.4445 -0.1645 -1.2526
  516MOL0     H69619   2.270   3.240   8.899  0.1737 -0.7414  0.6975
  516MOL0     H69620   2.265   3.037   9.044  0.7941  1.3040 -1.2645
  516MOL0     H69621   2.289   2.797   8.990 -1.2503 -2.6339 -0.1496
  516MOL0     H69622   2.234   2.458   8.555  0.5112 -0.0343 -1.3923
  516MOL0     H69623   2.227   2.209   8.509 -2.5749  3.0631 -3.3644
  516MOL0     H69624   2.101   1.933   8.769  0.2469  0.6020  0.0008
  516MOL0     H69625   1.938   1.920   8.687 -1.1201  0.3495 -1.2353
  516MOL0     H69626   2.181   1.828   8.553 -0.3440  0.7885 -3.3175
  516MOL0     H69627   2.069   1.714   8.646  1.7427  0.4870 -0.1555
  516MOL0     H69628   1.897   1.848   8.486  0.5934  0.4889 -0.8143
  516MOL0     H69629   2.043   1.878   8.388 -2.5177  1.9281 -0.2197
  516MOL0     H69630   1.890   1.617   8.425  1.6193 -2.2087 -1.0734
  516MOL0     H69631   2.067   1.619   8.420 -0.2971 -0.4843  2.4850
  516MOL0     H69632   2.064   1.721   8.196  0.6799  0.0573  2.8218
  516MOL0     H69633   1.884   1.747   8.204  0.7346  0.7060  1.2781
  516MOL0     H69634   2.011   1.474   8.231 -0.5915 -1.6808 -1.1236
  516MOL0     H69635   1.846   1.516   8.172 -1.0281  1.1327  2.0761
  516MOL0     H69636   2.098   1.576   8.009  0.8121 -1.3064  0.7568
  516MOL0     H69637   1.938   1.598   7.954 -1.6172  1.1723  1.6516
  516MOL0     H69638   1.928   1.323   7.991  0.4986 -0.3830  0.3894
  516MOL0     H69639   2.047   1.392   7.876 -1.1804  3.3754 -0.8284
  516MOL0     H69640   1.928   2.154   8.792 -1.3472  1.2322  0.7772
  516MOL0     H69641   1.933   2.413   8.835 -2.4794  0.3985 -0.9892
  516MOL0     H69642   1.914   2.799   8.791 -1.7066  2.5503  0.2742
  516MOL0     H69643   1.889   3.035   8.840  1.4538  1.3739 -1.3690
  516MOL0     H69644   2.445   4.014   8.271 -3.1456  3.8736 -0.3758
  516MOL0     H69645   2.457   4.244   8.212  0.9007  2.0268 -2.0523
  516MOL0     H69646   2.574   4.590   7.916  0.0839 -0.0972  0.6168
  516MOL0     H69647   2.576   4.830   7.881  1.3332 -0.7082 -1.1796
  516MOL0     H69648   2.466   5.002   7.950  0.4352  0.1732 -2.6090
  516MOL0     H69649   2.571   5.132   7.890  0.2088  1.0527  0.6385
  516MOL0     H69650   2.399   5.255   7.989  0.0672 -2.1679 -2.0700
  516MOL0     H69651   2.540   5.258   8.089 -0.9729 -0.4960  3.2366
  516MOL0     H69652   2.336   5.230   8.215  2.1406  2.6617 -2.2980
  516MOL0     H69653   2.471   5.129   8.263 -0.8943 -1.2470  1.2884
  516MOL0     H69654   2.221   5.061   8.245  0.6489  0.7704  0.2279
  516MOL0     H69655   2.238   5.060   8.072 -0.4133 -0.2720  1.0684
  516MOL0     H69656   2.391   4.701   8.263 -0.3411 -0.1651  0.0543
  516MOL0     H69657   2.752   4.876   8.265  1.8284 -1.3886  0.7647
  516MOL0     H69658   2.831   4.716   8.385  0.3491 -0.6957  0.8377
  516MOL0     H69659   2.743   4.563   8.381  0.1549 -1.5291 -1.9560
  516MOL0     H69660   2.907   4.580   8.303  0.1497  0.0670  0.1328
  517MOL0     O69661   3.796   7.492   0.686  0.4222  0.5942  0.2463
  517MOL0     C69662   3.684   7.539   0.699 -0.4042 -0.0139 -0.3813
  517MOL0     O69663   3.570   7.467   0.674 -0.1996 -0.2346  0.4498
  517MOL0     C69664   3.588   7.330   0.659  0.5912 -1.0586  0.1707
  517MOL0     C69665   3.605   7.243   0.766  1.0446 -0.2975 -0.6169
  517MOL0     C69666   3.642   7.111   0.741 -0.0527 -0.5717 -0.8237
  517MOL0     C69667   3.660   7.054   0.613 -0.7755 -0.4245 -0.5693
  517MOL0     O69668   3.706   6.922   0.590 -0.4837 -0.3577 -0.5230
  517MOL0     C69669   3.716   6.827   0.706 -0.3378 -0.0069 -0.2292
  517MOL0     C69670   3.816   6.728   0.665 -1.2055  0.3497 -0.1131
  517MOL0     C69671   3.874   6.630   0.776  0.4015  0.7410 -0.2457
  517MOL0     C69672   3.996   6.557   0.725  0.8499 -0.3803 -0.3844
  517MOL0     C69673   4.066   6.476   0.836  0.6021 -0.3958 -0.5292
  517MOL0     C69674   3.969   6.371   0.896  0.3989  0.3762 -0.0519
  517MOL0     C69675   4.037   6.256   0.972  0.6338 -1.8559  0.6428
  517MOL0     C69676   4.117   6.295   1.096 -0.0462 -0.3302  0.0534
  517MOL0     N69677   4.164   6.175   1.165  0.1562 -0.9685  0.1956
  517MOL0     C69678   4.098   6.107   1.267  0.1050  0.8578 -0.3178
  517MOL0     C69679   4.164   5.983   1.277 -0.4605  0.9401 -1.3059
  517MOL0     C69680   4.094   5.863   1.345 -0.4633  0.6308  0.2772
  517MOL0     C69681   4.049   5.762   1.236 -0.8686 -0.3971 -0.1237
  517MOL0     C69682   3.937   5.803   1.136  0.6179  0.0504 -0.8701
  517MOL0     C69683   3.802   5.819   1.201  0.3529 -0.4090 -1.2064
  517MOL0     O69684   3.797   5.933   1.291  0.2751  0.0934  0.3396
  517MOL0     C69685   3.754   6.058   1.246 -0.5820 -0.3764  0.1378
  517MOL0     C69686   3.692   6.090   1.120 -0.7415 -0.8181  0.0750
  517MOL0     C69687   3.667   6.224   1.094 -1.3204 -0.0823 -0.6793
  517MOL0     C69688   3.686   6.326   1.191  0.5558 -1.4003  0.4783
  517MOL0     C69689   3.672   6.471   1.167  1.3452  0.2055 -0.4518
  517MOL0     O69690   3.693   6.552   1.269  0.7134  0.1522 -0.5779
  517MOL0     C69691   3.654   6.674   1.247  0.7162 -0.6076  0.1900
  517MOL0     C69692   3.707   6.761   1.146  0.2026  0.9882  0.1292
  517MOL0     C69693   3.663   6.884   1.117 -0.2102 -0.6238  0.3986
  517MOL0     C69694   3.561   6.939   1.201 -0.4941  0.0940  0.5205
  517MOL0     O69695   3.527   7.061   1.166 -0.1315  0.1349  0.4095
  517MOL0     C69696   3.514   7.152   1.278 -0.8873  0.1312 -1.1685
  517MOL0     C69697   3.621   7.259   1.266  0.7302  0.2075  0.1304
  517MOL0     C69698   3.609   7.347   1.146 -0.7828  0.3575  0.5013
  517MOL0     C69699   3.611   7.491   1.195  0.9575 -0.6013  0.0369
  517MOL0     C69700   3.585   7.598   1.073 -0.3279  0.6170 -0.0210
  517MOL0     C69701   3.610   7.742   1.117 -0.6577  0.4018 -0.5004
  517MOL0     C69702   3.527   7.790   1.240 -0.8281  0.6927  0.4909
  517MOL0     C69703   3.387   7.789   1.189  1.0656  0.1740 -0.4660
  517MOL0    Cl69704   3.268   7.861   1.303 -0.2280 -0.6246  0.1895
  517MOL0     C69705   3.497   6.858   1.305 -0.5641  1.1021 -0.2675
  517MOL0     C69706   3.552   6.731   1.329  0.3594  0.2321 -0.2526
  517MOL0     O69707   3.621   6.497   1.055  0.0187 -0.2851 -0.5533
  517MOL0     C69708   3.725   6.285   1.314  0.3749 -0.5606  0.9530
  517MOL0     C69709   3.755   6.164   1.342  1.1436 -0.4341  0.4413
  517MOL0     N69710   4.273   5.997   1.192  0.4234 -0.1355 -0.6356
  517MOL0     N69711   4.281   6.110   1.133 -0.3297 -0.4540  0.9094
  517MOL0     C69712   3.647   7.144   0.510 -0.2943  0.1570 -0.4153
  517MOL0     C69713   3.612   7.274   0.529  0.0980  0.4400  0.2876
  517MOL0     C69714   3.677   7.686   0.718  0.5113  0.2658 -0.1091
  517MOL0     C69715   3.560   7.748   0.665  0.6771  0.0743 -0.1532
  517MOL0     C69716   3.527   7.887   0.685  0.3144  0.1553 -0.2222
  517MOL0     C69717   3.616   7.965   0.749  0.2816 -1.0665 -0.2670
  517MOL0     O69718   3.569   8.101   0.776  0.2827  0.2621 -0.2443
  517MOL0     C69719   3.645   8.171   0.881  0.6006 -0.1020  0.3596
  517MOL0     C69720   3.609   8.123   1.029 -0.2201  0.2952  0.0472
  517MOL0     C69721   3.597   8.230   1.145 -0.5921  0.4628  0.7084
  517MOL0     C69722   3.487   8.328   1.134  1.2601 -0.8955  0.0104
  517MOL0     C69723   3.358   8.262   1.152 -0.1177  0.6575 -0.1596
  517MOL0     C69724   3.261   8.182   1.157 -0.0091 -0.1297  0.9385
  517MOL0     C69725   3.735   7.914   0.793 -0.8355  0.5424  0.2384
  517MOL0     C69726   3.766   7.777   0.777 -0.0394 -1.3408  0.0458
  517MOL0     C69727   3.896   7.718   0.829  0.3270  1.3289 -0.7436
  517MOL0     H69728   3.606   7.284   0.867  1.5983 -1.2945 -0.2018
  517MOL0     H69729   3.671   7.054   0.829 -1.2325  0.3205  0.1772
  517MOL0     H69730   3.736   6.871   0.805 -1.9291  2.5163 -0.9342
  517MOL0     H69731   3.620   6.774   0.719 -0.0166  0.0362  3.3684
  517MOL0     H69732   3.896   6.796   0.635  0.6588 -0.4264  2.7736
  517MOL0     H69733   3.784   6.679   0.572  2.7622  0.7410 -1.8467
  517MOL0     H69734   3.791   6.559   0.788  0.6660  0.6330  1.1070
  517MOL0     H69735   3.903   6.674   0.871 -2.6229  3.0982 -0.2697
  517MOL0     H69736   3.963   6.496   0.641  0.8956 -0.0627 -0.6374
  517MOL0     H69737   4.076   6.621   0.686  2.0899  0.3182  2.9679
  517MOL0     H69738   4.157   6.434   0.793  0.8447  1.0834 -1.5794
  517MOL0     H69739   4.085   6.549   0.915 -1.4146 -0.5152  0.1094
  517MOL0     H69740   3.898   6.422   0.962 -0.1102  2.9603 -2.4164
  517MOL0     H69741   3.910   6.320   0.819 -0.3080 -1.1631  1.4335
  517MOL0     H69742   4.105   6.211   0.899  0.0094 -0.7583 -0.6526
  517MOL0     H69743   3.959   6.186   1.000 -1.1803 -0.3291 -0.3740
  517MOL0     H69744   4.200   6.358   1.063 -1.7772  0.9826 -2.1869
  517MOL0     H69745   4.059   6.352   1.169  1.1831  1.3495 -0.2167
  517MOL0     H69746   4.005   6.126   1.318  1.8796  2.9997  2.3830
  517MOL0     H69747   4.160   5.817   1.419  1.2471  2.2664 -0.1500
  517MOL0     H69748   4.009   5.901   1.401 -0.1697 -0.5167  1.5507
  517MOL0     H69749   4.142   5.736   1.184  0.5545  2.5309  0.7127
  517MOL0     H69750   4.002   5.672   1.276  0.6461 -1.1651  0.0069
  517MOL0     H69751   3.933   5.723   1.062  0.3227 -0.4237 -0.3431
  517MOL0     H69752   3.953   5.901   1.090 -2.6815  1.4798  0.6918
  517MOL0     H69753   3.771   5.740   1.270  0.9283  1.4855  1.3758
  517MOL0     H69754   3.735   5.819   1.115  1.0193 -0.3214 -1.7318
  517MOL0     H69755   3.696   6.009   1.047 -0.7618 -4.0231  3.3239
  517MOL0     H69756   3.644   6.245   0.990  0.3562 -2.1046 -1.5390
  517MOL0     H69757   3.767   6.712   1.070  1.8166 -1.5315  2.8404
  517MOL0     H69758   3.709   6.957   1.051 -1.0063  1.5557  2.1245
  517MOL0     H69759   3.415   7.197   1.277 -2.1132 -2.1583  1.6908
  517MOL0     H69760   3.537   7.101   1.372  0.9885 -0.7623 -2.0648
  517MOL0     H69761   3.606   7.316   1.358  0.1059 -1.4173  1.0595
  517MOL0     H69762   3.712   7.200   1.272 -0.2900 -1.4344 -0.0410
  517MOL0     H69763   3.699   7.332   1.085  0.0400  2.3019  1.1427
  517MOL0     H69764   3.520   7.330   1.085 -1.4008  1.2362  1.1302
  517MOL0     H69765   3.704   7.513   1.248 -0.0123  0.4905  1.3386
  517MOL0     H69766   3.523   7.495   1.259  2.2341 -1.2512  1.8987
  517MOL0     H69767   3.489   7.576   1.025  0.6031 -1.6500 -0.9589
  517MOL0     H69768   3.653   7.569   0.992 -0.2646  0.8635 -0.0584
  517MOL0     H69769   3.717   7.739   1.138 -0.5351 -0.0060 -1.1466
  517MOL0     H69770   3.594   7.814   1.035  1.8755  0.1117 -1.3347
  517MOL0     H69771   3.542   7.892   1.275 -0.1426  1.4409 -1.7789
  517MOL0     H69772   3.543   7.723   1.325 -1.0230  0.5833  0.4418
  517MOL0     H69773   3.374   7.840   1.093  0.3469 -0.5476 -0.7615
  517MOL0     H69774   3.360   7.684   1.171 -0.9657  0.6127 -0.1574
  517MOL0     H69775   3.417   6.903   1.364  1.8032  3.4056  1.3980
  517MOL0     H69776   3.504   6.677   1.410 -1.2098  0.7246 -0.8067
  517MOL0     H69777   3.756   6.356   1.390 -0.1501  0.0536  0.5997
  517MOL0     H69778   3.774   6.142   1.447 -3.5999 -0.1962  1.6146
  517MOL0     H69779   3.653   7.128   0.402  0.3437 -1.9421 -0.1115
  517MOL0     H69780   3.624   7.333   0.439  2.9438 -1.5698 -0.7818
  517MOL0     H69781   3.482   7.700   0.606 -1.0571  2.7772 -0.2442
  517MOL0     H69782   3.433   7.918   0.640 -1.9491 -1.5600  2.9340
  517MOL0     H69783   3.613   8.275   0.880 -1.4762 -0.5889  3.4032
  517MOL0     H69784   3.752   8.163   0.859  0.3840 -2.5962 -0.1514
  517MOL0     H69785   3.684   8.044   1.041 -0.8222 -0.5983 -1.6321
  517MOL0     H69786   3.515   8.068   1.038  0.0623  0.1827  3.4303
  517MOL0     H69787   3.687   8.290   1.158 -1.0435  1.0878  1.0390
  517MOL0     H69788   3.593   8.190   1.247  0.1436  3.5072  2.0492
  517MOL0     H69789   3.506   8.397   1.217  1.2579  0.9823 -1.5019
  517MOL0     H69790   3.484   8.390   1.044 -1.7853 -1.4262 -0.3511
  517MOL0     H69791   3.191   8.102   1.142  1.2384 -1.0671 -0.1867
  517MOL0     H69792   3.805   7.966   0.859 -1.0482 -0.3626  1.2071
  517MOL0     H69793   3.955   7.711   0.737 -0.1628  1.0505 -1.0407
  517MOL0     H69794   3.941   7.783   0.905  2.2772 -1.5273  0.6859
  517MOL0     H69795   3.888   7.619   0.875  0.9284  2.4144  1.8729
  518MOL0     O69796   4.057   0.898   2.296 -0.4724  1.1545 -0.7894
  518MOL0     C69797   4.035   0.994   2.368 -0.3739  0.5751 -0.7146
  518MOL0     O69798   3.916   1.065   2.371 -0.4792 -0.0950 -0.1570
  518MOL0     C69799   3.826   1.023   2.275  0.8637 -0.2925 -0.1624
  518MOL0     C69800   3.697   0.995   2.332  0.5273 -0.0798  0.5973
  518MOL0     C69801   3.600   0.934   2.249 -1.0754 -0.6655  0.2941
  518MOL0     C69802   3.621   0.925   2.118 -0.3429  0.7330 -0.6371
  518MOL0     O69803   3.529   0.880   2.038 -0.2241 -0.5970  0.4886
  518MOL0     C69804   3.409   0.951   2.046  0.6138  0.0938  0.3024
  518MOL0     C69805   3.355   0.980   1.903  0.1668  0.8227 -0.0807
  518MOL0     C69806   3.209   1.017   1.912  0.0148 -0.2194 -0.0854
  518MOL0     C69807   3.162   1.063   1.773 -0.1722 -0.4627  0.2746
  518MOL0     C69808   3.035   1.145   1.786 -0.0433 -0.0848  0.8636
  518MOL0     C69809   2.978   1.214   1.655 -0.5687  0.5551 -0.0281
  518MOL0     C69810   2.886   1.102   1.580 -0.1237 -0.0999 -0.0620
  518MOL0     C69811   2.852   1.138   1.428 -0.3009 -0.3106 -0.2601
  518MOL0     N69812   2.760   1.251   1.416 -0.9505  0.0240  0.8542
  518MOL0     C69813   2.803   1.373   1.377 -0.2200  0.0478 -1.0943
  518MOL0     C69814   2.695   1.456   1.400 -0.4448 -0.7296 -0.3273
  518MOL0     C69815   2.691   1.603   1.375  0.3103 -0.3529 -0.3256
  518MOL0     C69816   2.695   1.626   1.230 -0.0793 -0.9354 -0.5613
  518MOL0     C69817   2.696   1.773   1.204  0.1825  0.4081  0.1789
  518MOL0     C69818   2.765   1.808   1.071 -0.1198  0.1279  0.2754
  518MOL0     O69819   2.695   1.746   0.965 -0.4414  0.7404  0.0550
  518MOL0     C69820   2.766   1.697   0.864 -0.2071  1.1563 -0.6461
  518MOL0     C69821   2.739   1.570   0.808 -0.1162  0.0827 -0.0907
  518MOL0     C69822   2.805   1.526   0.695 -0.9205  0.3920  0.2844
  518MOL0     C69823   2.900   1.606   0.629 -0.8664 -0.6878 -0.7377
  518MOL0     C69824   2.980   1.559   0.517 -0.2869  1.0941 -0.1391
  518MOL0     O69825   2.958   1.634   0.407 -0.3365  0.1774  0.3710
  518MOL0     C69826   3.020   1.607   0.283 -0.2196 -0.0636  0.1187
  518MOL0     C69827   3.117   1.702   0.233  0.7346  1.0336 -0.5665
  518MOL0     C69828   3.177   1.671   0.117  0.1645  0.0046 -1.4453
  518MOL0     C69829   3.136   1.564   0.041  0.8222  0.5854  0.7319
  518MOL0     O69830   3.202   1.533  -0.075 -0.6629  0.3786  0.2721
  518MOL0     C69831   3.156   1.614  -0.184 -0.3041 -0.1528  0.1868
  518MOL0     C69832   3.152   1.519  -0.309 -0.3222 -0.7067 -0.1906
  518MOL0     C69833   3.298   1.484  -0.348  0.6459  0.5112  0.6704
  518MOL0     C69834   3.297   1.476  -0.499 -0.4078 -0.3943  0.0328
  518MOL0     C69835   3.445   1.487  -0.552 -0.0525  0.1786  0.7525
  518MOL0     C69836   3.445   1.484  -0.700 -0.2382  0.3017  0.9486
  518MOL0     C69837   3.581   1.551  -0.740  0.6787 -0.2934 -0.4831
  518MOL0     C69838   3.579   1.693  -0.789  0.0334 -0.8291  0.3251
  518MOL0    Cl69839   3.474   1.715  -0.933  0.5665 -0.7080  0.0067
  518MOL0     C69840   3.047   1.470   0.093  0.6352 -0.9004  0.3912
  518MOL0     C69841   2.984   1.493   0.217  0.7955 -0.3544  0.0989
  518MOL0     O69842   3.048   1.448   0.520 -0.1263 -0.8645 -0.1331
  518MOL0     C69843   2.922   1.738   0.679 -0.2174  0.8247  0.5764
  518MOL0     C69844   2.846   1.783   0.794  0.0858 -0.1732  0.5543
  518MOL0     N69845   2.594   1.376   1.437 -0.2893  0.2912 -0.6371
  518MOL0     N69846   2.634   1.257   1.461  0.2671  0.3661 -0.2418
  518MOL0     C69847   3.740   0.953   2.064  0.3976 -0.3055  0.3431
  518MOL0     C69848   3.845   1.010   2.136 -0.8989  0.6353 -0.2365
  518MOL0     C69849   4.133   1.037   2.467  0.3339  1.2258 -0.1518
  518MOL0     C69850   4.087   1.086   2.595 -0.1401 -0.7387 -0.1626
  518MOL0     C69851   4.179   1.129   2.687  0.3418 -0.3091 -0.8347
  518MOL0     C69852   4.311   1.119   2.667 -0.1984 -0.2413 -0.0310
  518MOL0     O69853   4.397   1.144   2.774 -0.1448  0.2221 -0.5210
  518MOL0     C69854   4.395   1.285   2.820  0.0245  0.1136 -0.0993
  518MOL0     C69855   4.523   1.318   2.903 -0.4511  0.1452  0.3168
  518MOL0     C69856   4.635   1.330   2.807  0.1534 -0.6874 -0.8483
  518MOL0     C69857   4.771   1.292   2.879 -0.4695  0.6489  0.7427
  518MOL0     C69858   4.763   1.148   2.923 -0.5365  0.8039  0.7190
  518MOL0     C69859   4.756   1.034   2.961  0.2710  0.4156  0.8668
  518MOL0     C69860   4.356   1.074   2.540  0.5885 -1.0341  0.1017
  518MOL0     C69861   4.271   1.037   2.436  0.1211 -0.1340  0.3210
  518MOL0     C69862   4.332   1.007   2.298  0.4127 -0.0199  0.4535
  518MOL0     H69863   3.679   1.008   2.438 -0.1453  0.4901  0.4225
  518MOL0     H69864   3.501   0.902   2.279 -1.9127  1.1846 -0.3649
  518MOL0     H69865   3.331   0.903   2.105  0.2969  1.4384  1.0171
  518MOL0     H69866   3.425   1.047   2.095 -1.1896  0.1360  0.8818
  518MOL0     H69867   3.365   0.891   1.840 -0.1470  0.9170 -0.2699
  518MOL0     H69868   3.410   1.065   1.861  0.4368 -0.4406 -2.4811
  518MOL0     H69869   3.189   1.102   1.978  0.0460  0.5649 -1.0518
  518MOL0     H69870   3.151   0.929   1.942  0.3671 -0.7994 -1.0461
  518MOL0     H69871   3.233   1.132   1.725  0.6730  0.3329  2.5185
  518MOL0     H69872   3.135   0.982   1.705 -0.7046  0.2542 -0.3919
  518MOL0     H69873   2.957   1.082   1.830  1.0023 -2.4318 -0.4246
  518MOL0     H69874   3.057   1.227   1.855  1.1909 -0.3408  0.8086
  518MOL0     H69875   2.915   1.298   1.687 -3.4134 -0.7802 -1.7257
  518MOL0     H69876   3.050   1.260   1.587 -1.1596  1.5190 -0.0179
  518MOL0     H69877   2.797   1.085   1.642  0.2325  1.4305  0.9333
  518MOL0     H69878   2.948   1.012   1.584  2.5399  1.5199 -1.8734
  518MOL0     H69879   2.940   1.164   1.370  0.4907  0.2376  1.1367
  518MOL0     H69880   2.813   1.047   1.381  1.6941 -1.1149 -0.4480
  518MOL0     H69881   2.905   1.405   1.359 -0.1387  1.8141  1.8016
  518MOL0     H69882   2.602   1.646   1.422  1.9716  4.0014 -0.6919
  518MOL0     H69883   2.776   1.650   1.427 -0.3527 -3.7605  4.4820
  518MOL0     H69884   2.776   1.569   1.184  0.5765  1.4474 -2.5700
  518MOL0     H69885   2.607   1.575   1.188 -0.9448  1.5198 -1.9080
  518MOL0     H69886   2.739   1.828   1.288  1.7591 -0.8769  0.2692
  518MOL0     H69887   2.592   1.805   1.197  0.9384  2.6669 -1.6119
  518MOL0     H69888   2.873   1.789   1.064  0.2435  2.3257 -0.7040
  518MOL0     H69889   2.768   1.917   1.064 -3.8666  0.2977 -0.9193
  518MOL0     H69890   2.659   1.514   0.857 -0.7557  1.4881  0.5225
  518MOL0     H69891   2.779   1.437   0.639  1.5796  0.2245 -0.7265
  518MOL0     H69892   3.142   1.789   0.294 -1.1694  0.8029  0.6375
  518MOL0     H69893   3.246   1.742   0.072  0.5900  0.5007 -0.0447
  518MOL0     H69894   3.060   1.664  -0.170  0.7873  2.6430 -1.3471
  518MOL0     H69895   3.229   1.693  -0.205 -0.0261 -0.4610 -0.0174
  518MOL0     H69896   3.083   1.436  -0.292 -1.4065  0.1928 -0.0415
  518MOL0     H69897   3.101   1.575  -0.388  0.3705  1.1471  0.6121
  518MOL0     H69898   3.358   1.571  -0.320  0.2937  1.1138 -0.3822
  518MOL0     H69899   3.340   1.396  -0.297 -2.3155 -0.6450  1.3713
  518MOL0     H69900   3.228   1.547  -0.545 -3.8496 -3.3127  0.3084
  518MOL0     H69901   3.254   1.383  -0.537 -3.7387  0.9325  0.3047
  518MOL0     H69902   3.519   1.416  -0.514  0.3943 -0.0245 -0.4626
  518MOL0     H69903   3.471   1.588  -0.518  0.1769 -0.0532  1.2701
  518MOL0     H69904   3.455   1.381  -0.736  0.3559  1.4565 -2.5518
  518MOL0     H69905   3.355   1.528  -0.744 -3.1557 -3.6514  2.3608
  518MOL0     H69906   3.633   1.481  -0.807 -0.0643 -1.6009  0.2833
  518MOL0     H69907   3.641   1.556  -0.649 -0.3318  1.4531  0.1298
  518MOL0     H69908   3.537   1.758  -0.711  2.7135 -0.4722  1.5847
  518MOL0     H69909   3.684   1.722  -0.794  0.3258 -1.5078  1.8044
  518MOL0     H69910   3.025   1.386   0.028 -1.2218 -0.4724  0.4232
  518MOL0     H69911   2.910   1.426   0.260  2.4540 -2.1416  0.2905
  518MOL0     H69912   2.994   1.806   0.636 -0.7158  1.3392  0.5383
  518MOL0     H69913   2.877   1.881   0.828  0.5540 -0.8122  2.0627
  518MOL0     H69914   3.764   0.938   1.959 -0.8182  0.1167 -0.0143
  518MOL0     H69915   3.939   1.041   2.092  1.1133 -1.0758  2.5137
  518MOL0     H69916   3.981   1.100   2.615  0.1739 -0.2219  1.2488
  518MOL0     H69917   4.141   1.170   2.781 -0.6414  2.2934 -2.2621
  518MOL0     H69918   4.311   1.302   2.887 -0.3376  2.3965 -1.0530
  518MOL0     H69919   4.376   1.355   2.738 -2.4383 -0.1715  0.1546
  518MOL0     H69920   4.539   1.244   2.983 -2.9960 -1.4265 -0.4941
  518MOL0     H69921   4.505   1.416   2.948 -0.3041  0.0477  0.5932
  518MOL0     H69922   4.650   1.437   2.789 -1.3278 -0.0021  1.6055
  518MOL0     H69923   4.617   1.273   2.715 -3.4026 -1.4291  0.1774
  518MOL0     H69924   4.858   1.301   2.813 -1.0510 -1.4245 -0.4066
  518MOL0     H69925   4.791   1.360   2.962  0.0446  1.4152  0.0122
  518MOL0     H69926   4.752   0.937   3.006 -0.6199  0.2185  0.3885
  518MOL0     H69927   4.461   1.077   2.513  0.3388  1.6143 -0.8043
  518MOL0     H69928   4.258   1.043   2.226  0.3945 -3.1153 -1.2500
  518MOL0     H69929   4.421   1.065   2.271 -0.1092 -0.2827 -2.1126
  518MOL0     H69930   4.352   0.901   2.284 -0.6937 -0.0592 -1.1490
  519MOL0     O69931   5.153  10.906   3.356 -0.5989 -0.3908  0.6392
  519MOL0     C69932   5.209  10.859   3.254 -0.4825  0.2422 -0.0981
  519MOL0     O69933   5.295  10.922   3.175 -0.0507 -0.5588  0.3669
  519MOL0     C69934   5.359  11.037   3.218 -1.1983  1.2222 -1.1808
  519MOL0     C69935   5.398  11.059   3.359 -0.3494  0.5890 -0.1268
  519MOL0     C69936   5.440  11.180   3.400 -0.9386 -0.6006  0.2799
  519MOL0     C69937   5.446  11.292   3.315  0.5188 -2.2093 -0.0885
  519MOL0     O69938   5.492  11.416   3.373 -0.2776  0.4211 -0.1881
  519MOL0     C69939   5.439  11.535   3.314  0.9452 -0.5667  0.7858
  519MOL0     C69940   5.427  11.654   3.408 -0.7581 -0.3880 -0.1035
  519MOL0     C69941   5.567  11.678   3.464  0.4944 -0.0951 -0.8666
  519MOL0     C69942   5.586  11.826   3.514 -0.5934  0.9180  0.0044
  519MOL0     C69943   5.736  11.856   3.553 -0.3347 -0.9068  0.3992
  519MOL0     C69944   5.760  11.995   3.609  0.6512  0.3226 -0.4184
  519MOL0     C69945   5.721  12.119   3.520 -0.0470  0.9372  0.7648
  519MOL0     C69946   5.788  12.257   3.558 -0.4694  0.0234  0.1776
  519MOL0     N69947   5.934  12.246   3.554 -0.0755 -0.6278 -0.1364
  519MOL0     C69948   6.001  12.258   3.432  0.6810  0.0509 -0.4931
  519MOL0     C69949   6.130  12.265   3.464 -0.0638  0.5618  0.5004
  519MOL0     C69950   6.245  12.275   3.371 -0.1010 -0.8533  1.2195
  519MOL0     C69951   6.373  12.190   3.412  0.4665  0.7022  1.2833
  519MOL0     C69952   6.488  12.204   3.307 -0.4720  0.1847  0.7637
  519MOL0     C69953   6.601  12.103   3.346 -0.2615  0.4752  0.2064
  519MOL0     O69954   6.717  12.151   3.279 -0.0443 -0.6315  0.4234
  519MOL0     C69955   6.835  12.088   3.303  0.2357 -0.5143  0.5256
  519MOL0     C69956   6.949  12.166   3.298  1.1039 -0.6271  0.8801
  519MOL0     C69957   7.080  12.114   3.305 -0.9201 -0.5182 -0.1480
  519MOL0     C69958   7.095  11.970   3.328  0.8061 -0.8543  0.3823
  519MOL0     C69959   7.227  11.905   3.315 -0.0702  0.2672  0.0027
  519MOL0     O69960   7.221  11.779   3.357  0.0319  0.1269 -1.0427
  519MOL0     C69961   7.315  11.685   3.321  0.1749  0.1044  0.3617
  519MOL0     C69962   7.326  11.586   3.424 -0.8861 -0.0398  0.3456
  519MOL0     C69963   7.418  11.479   3.409  0.4881  0.4454 -0.3188
  519MOL0     C69964   7.494  11.478   3.290  0.5356 -0.8877  0.0934
  519MOL0     O69965   7.572  11.370   3.281  0.1426 -0.2971  0.3771
  519MOL0     C69966   7.643  11.348   3.161 -0.9656 -0.0266  0.2237
  519MOL0     C69967   7.773  11.431   3.170  0.8177  0.7809 -0.0590
  519MOL0     C69968   7.815  11.455   3.033 -0.8248  0.1188  0.2943
  519MOL0     C69969   7.937  11.546   3.037  0.4794 -1.3548  0.2163
  519MOL0     C69970   7.985  11.593   2.900  0.3293 -0.7228  1.3242
  519MOL0     C69971   8.033  11.494   2.800  0.1764  0.4559  0.8944
  519MOL0     C69972   8.126  11.551   2.695 -1.1388 -0.4094  0.3355
  519MOL0     C69973   8.057  11.617   2.579  0.0158  0.2153 -0.1191
  519MOL0    Cl69974   8.192  11.707   2.486 -0.1548  0.1948  0.1985
  519MOL0     C69975   7.478  11.569   3.190  0.9569 -0.5403 -0.6046
  519MOL0     C69976   7.390  11.674   3.202  0.3836 -0.3017 -0.4826
  519MOL0     O69977   7.323  11.966   3.264 -0.1944  0.4603 -0.3064
  519MOL0     C69978   6.979  11.888   3.343  0.5381 -0.1028 -0.7208
  519MOL0     C69979   6.853  11.947   3.320  1.1062 -1.1847  0.1787
  519MOL0     N69980   6.144  12.253   3.601 -0.8153  0.1326 -0.0707
  519MOL0     N69981   6.022  12.233   3.655 -1.7191  0.0065  0.1964
  519MOL0     C69982   5.407  11.277   3.175 -0.1530 -0.1486 -0.8581
  519MOL0     C69983   5.376  11.143   3.135  0.0550  0.8000 -0.0547
  519MOL0     C69984   5.171  10.725   3.217  0.8305  0.2358 -0.7481
  519MOL0     C69985   5.043  10.701   3.159 -0.3101 -0.3875  0.1678
  519MOL0     C69986   4.999  10.566   3.163 -0.1642  0.0367  0.2156
  519MOL0     C69987   5.071  10.461   3.215  0.1057  0.3643  1.0343
  519MOL0     O69988   5.011  10.340   3.220 -0.3913  0.3309  0.4045
  519MOL0     C69989   5.095  10.221   3.241  0.1828  0.1535 -0.7431
  519MOL0     C69990   4.987  10.109   3.232  0.1566 -0.6454 -0.4645
  519MOL0     C69991   4.916  10.077   3.364 -0.1571 -0.8756  0.0268
  519MOL0     C69992   4.891  10.203   3.451  0.6872 -0.0593  1.1061
  519MOL0     C69993   4.822  10.168   3.578  0.0924  0.4404  0.0188
  519MOL0     C69994   4.786  10.133   3.687 -0.2543 -0.0264 -0.2985
  519MOL0     C69995   5.198  10.479   3.253  1.1309 -0.2813  0.8920
  519MOL0     C69996   5.254  10.608   3.254  0.3282  0.3161  0.3347
  519MOL0     C69997   5.396  10.634   3.292 -0.6828 -0.0284  0.3545
  519MOL0     H69998   5.392  10.988   3.440 -2.5836  2.4571  1.4576
  519MOL0     H69999   5.470  11.189   3.504  1.3432  1.7032 -0.4747
  519MOL0     H70000   5.502  11.558   3.228 -2.5166  2.1130 -1.3057
  519MOL0     H70001   5.338  11.517   3.277  1.1223  3.5168 -2.4216
  519MOL0     H70002   5.364  11.619   3.490  0.2073  0.1961  0.9103
  519MOL0     H70003   5.379  11.742   3.364 -1.8138  0.0484  1.8128
  519MOL0     H70004   5.642  11.657   3.387  3.0531 -1.0887  1.7266
  519MOL0     H70005   5.594  11.612   3.547  0.0081 -2.0406 -2.2024
  519MOL0     H70006   5.550  11.893   3.435  1.0447  0.3461 -1.3036
  519MOL0     H70007   5.530  11.842   3.606 -2.3398 -2.8268 -0.2188
  519MOL0     H70008   5.772  11.780   3.624 -1.7255 -1.7518  0.2235
  519MOL0     H70009   5.816  11.846   3.478  2.2157  1.8284  2.4959
  519MOL0     H70010   5.705  12.003   3.703  1.1207 -2.2400  0.1644
  519MOL0     H70011   5.865  12.004   3.638  0.3566  0.3915  0.6400
  519MOL0     H70012   5.613  12.119   3.505  0.3466  0.9693 -3.2524
  519MOL0     H70013   5.754  12.090   3.419  1.4394 -1.4957  1.8507
  519MOL0     H70014   5.745  12.334   3.493 -0.0590 -0.9225 -1.2634
  519MOL0     H70015   5.764  12.282   3.661 -0.6714  4.7678 -0.8082
  519MOL0     H70016   5.961  12.267   3.332 -1.6482 -1.2136  0.2347
  519MOL0     H70017   6.212  12.244   3.272  0.7621  1.2935  0.2149
  519MOL0     H70018   6.272  12.379   3.352 -1.1055 -1.1455 -2.6378
  519MOL0     H70019   6.419  12.214   3.508  1.5167  2.4123  0.3820
  519MOL0     H70020   6.344  12.084   3.406  2.7953  0.1011 -1.7738
  519MOL0     H70021   6.549  12.293   3.325  0.5777  0.4363 -3.2569
  519MOL0     H70022   6.461  12.189   3.202  2.0890 -0.6660  0.1567
  519MOL0     H70023   6.563  12.005   3.315 -1.3908  0.8033  0.5143
  519MOL0     H70024   6.613  12.090   3.454 -1.9474 -1.4662  0.2357
  519MOL0     H70025   6.941  12.273   3.278  1.8522 -0.3886  1.7845
  519MOL0     H70026   7.162  12.181   3.281 -0.8852  0.4860  2.4730
  519MOL0     H70027   7.270  11.605   3.515 -1.4461 -0.7004  0.1478
  519MOL0     H70028   7.445  11.410   3.488 -2.1516  2.5798  2.7070
  519MOL0     H70029   7.661  11.242   3.143 -0.6254 -0.4795  2.8507
  519MOL0     H70030   7.575  11.379   3.081  1.4437  1.3452 -1.4277
  519MOL0     H70031   7.757  11.527   3.220 -0.7318  1.4888 -1.7901
  519MOL0     H70032   7.855  11.373   3.213  1.1358  0.5863 -0.8982
  519MOL0     H70033   7.836  11.360   2.982 -0.2225  1.2552 -1.6619
  519MOL0     H70034   7.732  11.504   2.982 -0.9239 -0.5568 -0.2117
  519MOL0     H70035   8.018  11.493   3.087  2.6653  1.5041 -0.0151
  519MOL0     H70036   7.916  11.641   3.087 -0.1319 -1.2468 -0.2233
  519MOL0     H70037   8.058  11.674   2.907 -0.5330  0.5790 -2.3325
  519MOL0     H70038   7.900  11.645   2.855  0.4864 -1.0418  0.6465
  519MOL0     H70039   8.083  11.414   2.856  2.6709  2.2095  1.3010
  519MOL0     H70040   7.945  11.452   2.750 -1.0923  2.3983  1.3711
  519MOL0     H70041   8.190  11.465   2.670 -2.5165 -0.7342 -2.5027
  519MOL0     H70042   8.194  11.622   2.743 -1.0325  1.0610 -1.8637
  519MOL0     H70043   8.023  11.531   2.520 -2.8983  2.1405 -1.4583
  519MOL0     H70044   7.976  11.687   2.599 -0.0850 -0.0322  0.3682
  519MOL0     H70045   7.537  11.576   3.099  0.3479 -0.1451 -0.9743
  519MOL0     H70046   7.395  11.748   3.123  0.0802  0.4173  0.1648
  519MOL0     H70047   6.978  11.780   3.354 -0.9511 -0.2308 -1.7982
  519MOL0     H70048   6.768  11.882   3.341  2.2330 -2.1436  2.0021
  519MOL0     H70049   5.410  11.363   3.110  3.1676 -0.1664 -0.8751
  519MOL0     H70050   5.329  11.130   3.038 -1.4987  4.7741 -0.0200
  519MOL0     H70051   4.989  10.791   3.130  0.4623 -0.0355 -0.2139
  519MOL0     H70052   4.905  10.540   3.115  0.3190 -3.8865  1.0718
  519MOL0     H70053   5.151  10.206   3.333 -1.5645 -0.2234  0.2938
  519MOL0     H70054   5.170  10.214   3.162  0.1075  0.4571 -0.8468
  519MOL0     H70055   5.033  10.017   3.193 -0.7966 -1.3334  0.0193
  519MOL0     H70056   4.915  10.143   3.157  0.3519  3.1793  0.8548
  519MOL0     H70057   4.959   9.995   3.422  0.3246 -1.1079 -0.6376
  519MOL0     H70058   4.814  10.044   3.343 -1.3257  2.3180  0.0567
  519MOL0     H70059   4.981  10.261   3.476 -0.1871  2.9374 -1.8975
  519MOL0     H70060   4.833  10.275   3.392 -0.4898 -2.3946 -0.7189
  519MOL0     H70061   4.759  10.099   3.785 -0.8433  1.5103  0.0975
  519MOL0     H70062   5.274  10.410   3.289 -0.0341 -1.6446  0.8258
  519MOL0     H70063   5.446  10.666   3.200 -4.4627 -0.7170 -2.1655
  519MOL0     H70064   5.419  10.703   3.373  0.4200  0.6933 -0.5328
  519MOL0     H70065   5.441  10.539   3.324  1.9463 -0.6484 -4.1921
  520MOL0     O70066   3.202   6.324   0.145 -0.0364 -0.1323 -0.6673
  520MOL0     C70067   3.128   6.402   0.200 -0.3732 -0.5242 -0.3793
  520MOL0     O70068   3.037   6.362   0.296 -0.2184  0.4747  0.7151
  520MOL0     C70069   3.042   6.234   0.325 -0.2789  0.6074 -0.8241
  520MOL0     C70070   2.945   6.149   0.270  0.0537  0.7148  0.2967
  520MOL0     C70071   2.948   6.007   0.305  0.1176 -0.4013 -0.6557
  520MOL0     C70072   3.032   5.962   0.405  0.1279  0.0273  0.8165
  520MOL0     O70073   3.050   5.831   0.442 -0.4784 -0.0497 -0.2787
  520MOL0     C70074   3.008   5.725   0.365 -0.6284  0.0787 -0.5571
  520MOL0     C70075   3.086   5.589   0.384  0.2298 -0.1804  0.3550
  520MOL0     C70076   3.081   5.537   0.528  0.3208  0.3685 -0.3875
  520MOL0     C70077   3.172   5.410   0.526 -0.0647 -0.2703 -0.2820
  520MOL0     C70078   3.148   5.333   0.654  0.4007  0.6244  0.0970
  520MOL0     C70079   3.171   5.406   0.788  0.2517  0.1771  0.0885
  520MOL0     C70080   3.175   5.309   0.911 -1.2639  0.1801  0.5456
  520MOL0     C70081   3.174   5.401   1.038 -0.0285 -0.2874 -0.4833
  520MOL0     N70082   3.043   5.374   1.102  0.0102  0.9613  0.0526
  520MOL0     C70083   2.912   5.412   1.057  0.2501 -1.2145  0.1133
  520MOL0     C70084   2.829   5.363   1.156 -0.2046  0.0253  0.2429
  520MOL0     C70085   2.680   5.370   1.145 -0.1906 -0.0334  0.3056
  520MOL0     C70086   2.619   5.448   1.260  0.0842  0.1419 -0.4215
  520MOL0     C70087   2.497   5.535   1.221  0.3412 -0.0562 -0.8399
  520MOL0     C70088   2.437   5.596   1.346 -0.2358 -0.7121  0.8376
  520MOL0     O70089   2.352   5.500   1.414  0.6569  0.7420 -0.8106
  520MOL0     C70090   2.328   5.525   1.543  0.0325  0.1186 -0.2031
  520MOL0     C70091   2.385   5.440   1.640  0.8179  0.1368  0.5786
  520MOL0     C70092   2.362   5.466   1.770 -0.6766  0.0388  0.3159
  520MOL0     C70093   2.271   5.562   1.816  0.7746  0.3914 -0.3239
  520MOL0     C70094   2.234   5.579   1.963 -0.1647 -0.3652  0.2749
  520MOL0     O70095   2.138   5.674   1.990 -0.8464 -0.1070 -1.4382
  520MOL0     C70096   2.099   5.685   2.121 -0.8633 -0.2861 -0.0146
  520MOL0     C70097   2.200   5.717   2.218 -1.4514  0.0089  0.2398
  520MOL0     C70098   2.161   5.722   2.349 -0.3715 -1.3101 -1.0667
  520MOL0     C70099   2.029   5.700   2.385 -0.1959 -0.1543 -0.9266
  520MOL0     O70100   1.997   5.721   2.518 -0.3277  0.3248  0.1856
  520MOL0     C70101   1.857   5.714   2.560  0.3894  0.4834  0.0320
  520MOL0     C70102   1.819   5.804   2.666 -0.5143 -0.5413 -0.8399
  520MOL0     C70103   1.850   5.949   2.634 -0.4774  0.8006  0.5127
  520MOL0     C70104   1.829   6.041   2.748  0.4970  0.4785  0.4303
  520MOL0     C70105   1.824   6.186   2.696  1.2166  0.6569 -0.2496
  520MOL0     C70106   1.811   6.296   2.806 -1.3655 -0.0504 -0.6959
  520MOL0     C70107   1.686   6.286   2.880 -0.5919 -1.0935  0.0077
  520MOL0     C70108   1.669   6.396   2.983  0.7127  0.3182 -0.1105
  520MOL0    Cl70109   1.635   6.566   2.926 -0.3992 -0.3885 -0.0948
  520MOL0     C70110   1.938   5.659   2.292 -0.4512 -0.4331  0.8251
  520MOL0     C70111   1.971   5.639   2.157  0.1928 -1.0118 -0.5204
  520MOL0     O70112   2.307   5.523   2.045 -0.1324  0.3534 -0.1984
  520MOL0     C70113   2.210   5.650   1.715  0.3814  0.4919  0.2985
  520MOL0     C70114   2.244   5.627   1.583 -0.7110 -0.2339  0.1440
  520MOL0     N70115   2.901   5.303   1.259 -0.3899 -0.3238 -0.1260
  520MOL0     N70116   3.023   5.300   1.220 -0.3107 -0.7319 -0.3565
  520MOL0     C70117   3.115   6.057   0.472  0.2117 -0.7770  0.4505
  520MOL0     C70118   3.134   6.188   0.419  0.9339 -0.2726  0.2390
  520MOL0     C70119   3.118   6.546   0.167  0.0817 -1.5116 -0.0752
  520MOL0     C70120   3.006   6.608   0.229 -0.1987 -0.1594  0.2679
  520MOL0     C70121   2.973   6.745   0.199  0.4775  0.8344  0.4865
  520MOL0     C70122   3.039   6.804   0.083 -0.5587 -0.8426 -0.9830
  520MOL0     O70123   3.027   6.933   0.045  0.2716  0.2618  0.4541
  520MOL0     C70124   2.944   7.010   0.118  0.9815 -0.2635 -0.0699
  520MOL0     C70125   2.942   7.151   0.063  0.1625  0.1074  0.1548
  520MOL0     C70126   3.076   7.225   0.073 -0.7234  0.6181 -0.3707
  520MOL0     C70127   3.085   7.362  -0.005  0.3147  0.6612 -0.7069
  520MOL0     C70128   3.040   7.471   0.076  0.7153  0.3974 -0.7536
  520MOL0     C70129   2.979   7.555   0.145 -0.3134  0.1991 -0.3739
  520MOL0     C70130   3.161   6.751   0.033  0.4975  0.1161 -0.3022
  520MOL0     C70131   3.195   6.618   0.071  0.5228  0.1311  0.6798
  520MOL0     C70132   3.316   6.551   0.002  0.0469 -0.4538 -0.4902
  520MOL0     H70133   2.887   6.184   0.185  2.0942 -0.5285 -1.7274
  520MOL0     H70134   2.890   5.939   0.245 -2.6078  1.2657 -0.1007
  520MOL0     H70135   2.903   5.709   0.392 -0.2246 -0.1766  0.9298
  520MOL0     H70136   3.008   5.740   0.257 -1.0720 -4.3585 -1.3362
  520MOL0     H70137   3.190   5.596   0.351  0.4728 -0.0858  1.1163
  520MOL0     H70138   3.034   5.512   0.326  1.4186 -0.1831 -0.7412
  520MOL0     H70139   2.975   5.514   0.542  0.5296 -0.5823 -0.2594
  520MOL0     H70140   3.119   5.604   0.606 -4.4511  2.2239  0.6678
  520MOL0     H70141   3.144   5.352   0.438 -0.9265  0.9609 -0.8531
  520MOL0     H70142   3.275   5.446   0.514 -0.4373  0.7545 -0.5466
  520MOL0     H70143   3.048   5.288   0.644 -0.3654  2.0556  0.9797
  520MOL0     H70144   3.217   5.248   0.652  0.0972  0.3755  0.1536
  520MOL0     H70145   3.268   5.457   0.777  0.6858 -1.0200 -2.2526
  520MOL0     H70146   3.089   5.476   0.806  0.6638  0.2718  1.8463
  520MOL0     H70147   3.266   5.248   0.915 -1.3699  0.0201  0.5271
  520MOL0     H70148   3.096   5.234   0.917  0.3884 -1.5716  1.6184
  520MOL0     H70149   3.256   5.379   1.107  2.2220  1.3806 -2.4552
  520MOL0     H70150   3.192   5.508   1.021 -0.3653  0.7044  4.0462
  520MOL0     H70151   2.881   5.465   0.967 -1.3292 -0.9881  0.7586
  520MOL0     H70152   2.644   5.402   1.047 -0.0735 -1.6914 -0.3133
  520MOL0     H70153   2.656   5.263   1.143  3.5003 -0.9816 -1.5327
  520MOL0     H70154   2.580   5.376   1.333 -1.8738  1.2011 -0.3492
  520MOL0     H70155   2.702   5.499   1.310  0.5512 -0.9741 -0.0125
  520MOL0     H70156   2.439   5.454   1.175  2.9099 -2.5775  0.0891
  520MOL0     H70157   2.523   5.615   1.151 -1.7862  1.8761  0.4436
  520MOL0     H70158   2.376   5.683   1.321  2.4105  1.7115  2.2794
  520MOL0     H70159   2.520   5.639   1.403 -0.2178 -0.7719  0.8576
  520MOL0     H70160   2.459   5.370   1.603  1.6492  0.9341  0.7004
  520MOL0     H70161   2.405   5.404   1.848  0.8583  0.9546  0.2327
  520MOL0     H70162   2.301   5.742   2.188 -2.3898  2.6413 -1.0247
  520MOL0     H70163   2.214   5.746   2.441 -0.8026  1.5406 -1.4847
  520MOL0     H70164   1.781   5.740   2.485 -0.1028  0.7032  0.6036
  520MOL0     H70165   1.839   5.609   2.585 -0.2575  0.4869 -0.3889
  520MOL0     H70166   1.712   5.796   2.686 -0.3222 -1.9574 -0.2655
  520MOL0     H70167   1.879   5.780   2.753 -0.5715  3.4405  0.4640
  520MOL0     H70168   1.954   5.945   2.598 -1.6086  1.5954 -3.3319
  520MOL0     H70169   1.791   5.980   2.547  1.4291 -0.5789 -1.3834
  520MOL0     H70170   1.919   6.031   2.809  2.2799  1.7217 -1.8505
  520MOL0     H70171   1.744   6.006   2.809  1.4059 -1.6669  0.5596
  520MOL0     H70172   1.750   6.211   2.619  0.9203  0.8180  0.0815
  520MOL0     H70173   1.917   6.200   2.640  1.3448 -1.6766 -0.7238
  520MOL0     H70174   1.899   6.305   2.871 -1.9279  0.9381 -0.0473
  520MOL0     H70175   1.805   6.388   2.748  1.9777 -0.8870 -2.6741
  520MOL0     H70176   1.697   6.188   2.928  1.6836 -1.5669 -1.3334
  520MOL0     H70177   1.598   6.294   2.816 -0.1163 -0.4642 -0.5728
  520MOL0     H70178   1.579   6.363   3.036  0.0680 -2.3482 -2.6087
  520MOL0     H70179   1.753   6.405   3.052  0.5456 -0.1227  0.1568
  520MOL0     H70180   1.835   5.639   2.318 -1.0322 -0.1040 -1.0358
  520MOL0     H70181   1.898   5.604   2.085  0.6159  1.4103 -2.2675
  520MOL0     H70182   2.148   5.733   1.749  0.0580 -0.4927  2.2286
  520MOL0     H70183   2.199   5.686   1.504 -0.3458 -1.9539 -1.4317
  520MOL0     H70184   3.177   6.019   0.553 -0.6218  0.4692  1.7282
  520MOL0     H70185   3.204   6.252   0.471  1.3679  0.4301 -1.1594
  520MOL0     H70186   2.933   6.560   0.293  2.8013 -0.8026  3.5565
  520MOL0     H70187   2.884   6.783   0.247  0.1587  2.3981 -1.2172
  520MOL0     H70188   2.977   7.015   0.222  1.5452 -0.9950 -0.1997
  520MOL0     H70189   2.843   6.970   0.107  0.6774 -0.2777  2.2733
  520MOL0     H70190   2.859   7.210   0.103  0.2002 -1.4728  2.7799
  520MOL0     H70191   2.916   7.135  -0.042 -0.8676  0.1031  0.4015
  520MOL0     H70192   3.159   7.161   0.040 -0.8753 -0.2335  0.8553
  520MOL0     H70193   3.087   7.240   0.180 -0.9503 -0.8538 -0.1178
  520MOL0     H70194   3.190   7.384  -0.027 -0.2325  0.4448 -4.1402
  520MOL0     H70195   3.033   7.349  -0.100 -0.9054 -0.9720  0.1356
  520MOL0     H70196   2.924   7.634   0.191  1.3451 -0.0293  2.2180
  520MOL0     H70197   3.225   6.807  -0.033  0.0260  0.1001 -0.7828
  520MOL0     H70198   3.395   6.623  -0.023  0.5142 -0.3409  1.1577
  520MOL0     H70199   3.368   6.483   0.070  1.3815  1.9381  1.0378
  520MOL0     H70200   3.269   6.496  -0.080  0.1499  0.3070 -1.0610
  521MOL0     O70201   5.076   9.789   5.117 -0.2197  0.4341 -0.3236
  521MOL0     C70202   5.186   9.841   5.102 -0.2596 -0.2495  1.3061
  521MOL0     O70203   5.262   9.897   5.202 -0.2289  0.5213 -0.5389
  521MOL0     C70204   5.214   9.902   5.326  0.2429  0.3761 -0.8988
  521MOL0     C70205   5.206  10.027   5.387  0.1649 -0.5277  0.0542
  521MOL0     C70206   5.157  10.046   5.513  0.2911  0.2594  0.2758
  521MOL0     C70207   5.117   9.934   5.595 -1.1583 -0.2762 -0.0235
  521MOL0     O70208   5.085   9.964   5.721 -0.2728  0.4168 -0.4775
  521MOL0     C70209   4.952  10.021   5.740 -0.0763 -0.4941 -0.9865
  521MOL0     C70210   4.831   9.923   5.770  0.1191  1.0623 -0.6043
  521MOL0     C70211   4.867   9.819   5.880 -1.0469 -0.1927 -1.1088
  521MOL0     C70212   4.856   9.884   6.020 -0.0030 -0.4277  0.4549
  521MOL0     C70213   4.871   9.773   6.125 -0.7902  0.1616 -0.1354
  521MOL0     C70214   4.736   9.699   6.164  0.2851 -0.2065 -0.5506
  521MOL0     C70215   4.753   9.546   6.205  0.1345 -0.1747 -0.6035
  521MOL0     C70216   4.829   9.455   6.114  0.2992  0.9286 -0.1039
  521MOL0     N70217   4.804   9.315   6.156 -0.2116  0.4549  0.2828
  521MOL0     C70218   4.841   9.276   6.281 -0.8665  0.0560 -0.1842
  521MOL0     C70219   4.739   9.180   6.308 -1.1583  0.4175  0.9647
  521MOL0     C70220   4.732   9.076   6.420  0.2175  0.8528  0.6346
  521MOL0     C70221   4.750   9.147   6.562 -0.5279 -0.2498 -1.2084
  521MOL0     C70222   4.631   9.247   6.579  0.1538  0.0615  0.2455
  521MOL0     C70223   4.602   9.287   6.726 -0.0857 -0.3298 -1.0890
  521MOL0     O70224   4.713   9.373   6.757  0.3246  0.2258 -0.7444
  521MOL0     C70225   4.714   9.434   6.879 -0.9280 -0.5819 -0.3750
  521MOL0     C70226   4.820   9.517   6.913  0.0885  0.4442  0.6729
  521MOL0     C70227   4.832   9.567   7.044 -1.7395  1.2820  0.3452
  521MOL0     C70228   4.752   9.524   7.148 -0.4569  0.7207 -0.8630
  521MOL0     C70229   4.777   9.586   7.285  0.3496 -0.1520 -0.2983
  521MOL0     O70230   4.909   9.601   7.319 -0.6744  0.3877  0.0096
  521MOL0     C70231   4.957   9.652   7.434  0.8952  0.0011  0.2061
  521MOL0     C70232   5.102   9.647   7.453 -0.0154  0.1272 -0.2280
  521MOL0     C70233   5.158   9.697   7.572 -0.2663 -0.2625  0.6333
  521MOL0     C70234   5.080   9.772   7.658 -0.2011 -0.2282  0.0408
  521MOL0     O70235   5.129   9.822   7.781 -0.0585  0.3029 -0.0780
  521MOL0     C70236   5.139   9.711   7.877 -0.7399 -0.6782 -0.0760
  521MOL0     C70237   5.201   9.761   8.013  0.4241  0.1190  0.1096
  521MOL0     C70238   5.133   9.875   8.093 -0.8979 -0.1726 -0.2724
  521MOL0     C70239   5.198   9.918   8.221  0.0664 -0.5501  0.6596
  521MOL0     C70240   5.123  10.039   8.280  0.2029  0.0238 -0.3757
  521MOL0     C70241   5.138  10.048   8.433 -0.1793 -0.4191  0.8456
  521MOL0     C70242   5.043  10.147   8.509  1.0096  0.6997 -0.0621
  521MOL0     C70243   5.116  10.196   8.636 -0.0426  0.1678 -0.1151
  521MOL0    Cl70244   5.149  10.065   8.748 -0.3433 -0.2485 -0.2150
  521MOL0     C70245   4.943   9.780   7.636 -0.0456  0.4347 -0.1880
  521MOL0     C70246   4.885   9.718   7.530 -0.2482 -0.4411  1.2115
  521MOL0     O70247   4.675   9.613   7.352 -0.7381 -0.9428 -0.1008
  521MOL0     C70248   4.641   9.444   7.123 -0.0716 -0.2256  0.0775
  521MOL0     C70249   4.630   9.398   6.990 -0.2600 -0.4871  0.6918
  521MOL0     N70250   4.653   9.169   6.199 -0.1377  0.8736  0.6634
  521MOL0     N70251   4.708   9.241   6.104  0.1318 -0.3969 -0.0168
  521MOL0     C70252   5.130   9.803   5.537 -0.2404 -0.3386  0.3024
  521MOL0     C70253   5.182   9.794   5.409 -0.2277  0.4438  0.6193
  521MOL0     C70254   5.228   9.839   4.955 -0.1610  1.1512 -0.4336
  521MOL0     C70255   5.136   9.817   4.845  0.4339 -0.3989  0.5635
  521MOL0     C70256   5.178   9.819   4.716  0.1240  0.2847  0.3532
  521MOL0     C70257   5.310   9.830   4.681 -0.7399  0.1099  0.7209
  521MOL0     O70258   5.357   9.861   4.556  0.2047 -0.8461 -0.4516
  521MOL0     C70259   5.286   9.823   4.435 -0.1989 -0.5234  1.0894
  521MOL0     C70260   5.323   9.680   4.398 -0.2806  0.8393 -0.2425
  521MOL0     C70261   5.476   9.643   4.408 -0.4210  0.3752  0.3874
  521MOL0     C70262   5.520   9.531   4.311 -0.4470  0.1204  0.1167
  521MOL0     C70263   5.669   9.504   4.316 -0.6477  0.0957 -0.2299
  521MOL0     C70264   5.780   9.483   4.349  1.2479 -0.3734 -0.4343
  521MOL0     C70265   5.403   9.842   4.782 -0.3447  1.0008 -1.4080
  521MOL0     C70266   5.363   9.839   4.919  0.8011  0.0213  0.1814
  521MOL0     C70267   5.468   9.841   5.016 -0.5016 -0.3457  0.1440
  521MOL0     H70268   5.230  10.110   5.321 -0.1876 -1.3861 -1.1966
  521MOL0     H70269   5.139  10.146   5.549  1.5469  0.5707  0.0875
  521MOL0     H70270   4.958  10.100   5.814 -0.6733  0.7279 -2.1918
  521MOL0     H70271   4.933  10.064   5.641 -0.4210  1.7533  0.0106
  521MOL0     H70272   4.802   9.866   5.681 -1.5922  0.2219  0.4251
  521MOL0     H70273   4.745   9.979   5.810  0.5815 -1.1842  4.3466
  521MOL0     H70274   4.965   9.777   5.857 -0.6827 -0.0618  0.1351
  521MOL0     H70275   4.796   9.737   5.869 -0.7138 -0.6907  0.3133
  521MOL0     H70276   4.925   9.969   6.027  1.1965 -1.4788  1.9305
  521MOL0     H70277   4.751   9.914   6.029 -0.2967 -0.9320 -1.0517
  521MOL0     H70278   4.950   9.705   6.094  1.0919  1.2464  2.0171
  521MOL0     H70279   4.911   9.816   6.217 -0.6794 -1.8446  0.7878
  521MOL0     H70280   4.677   9.748   6.242  0.4548  1.1186 -1.2287
  521MOL0     H70281   4.669   9.704   6.077  0.2270 -0.9472 -0.5561
  521MOL0     H70282   4.648   9.516   6.209 -0.2130  0.7429 -2.1097
  521MOL0     H70283   4.800   9.536   6.303  1.1382  1.1001 -0.9297
  521MOL0     H70284   4.797   9.465   6.009  0.4952 -2.1767 -0.5488
  521MOL0     H70285   4.936   9.473   6.109  0.3093  0.9349  0.1441
  521MOL0     H70286   4.915   9.320   6.346 -0.0016  1.2079 -1.8641
  521MOL0     H70287   4.633   9.029   6.410  1.9320 -2.7051 -1.3461
  521MOL0     H70288   4.806   8.996   6.413 -1.1140 -0.3121 -0.7192
  521MOL0     H70289   4.750   9.070   6.640 -2.3372  1.8609  1.0495
  521MOL0     H70290   4.850   9.191   6.562 -0.1497 -1.0924 -0.7721
  521MOL0     H70291   4.539   9.200   6.544 -0.2747 -0.0914  1.5322
  521MOL0     H70292   4.643   9.336   6.518  0.1338  1.7068  2.5159
  521MOL0     H70293   4.616   9.191   6.776  0.1338 -0.7296 -1.9054
  521MOL0     H70294   4.508   9.340   6.747  1.5371  1.4059  2.9253
  521MOL0     H70295   4.893   9.540   6.836 -1.9027  2.1173 -0.8447
  521MOL0     H70296   4.915   9.636   7.055 -1.2691  0.4188  3.0804
  521MOL0     H70297   5.167   9.599   7.381  1.4758 -1.3061  1.9373
  521MOL0     H70298   5.263   9.677   7.591  0.9943  3.2790 -1.6320
  521MOL0     H70299   5.046   9.654   7.884 -1.3739  0.3776  0.3879
  521MOL0     H70300   5.203   9.634   7.833 -1.3147  0.4824 -3.2141
  521MOL0     H70301   5.229   9.667   8.061  0.1762 -1.2239 -2.1953
  521MOL0     H70302   5.294   9.810   7.984  0.8846 -0.5184  0.4854
  521MOL0     H70303   5.139   9.968   8.036 -1.2229 -1.1972 -2.0527
  521MOL0     H70304   5.028   9.846   8.096 -1.2934  1.2037 -0.0545
  521MOL0     H70305   5.302   9.952   8.207  0.9114 -1.9784  2.9167
  521MOL0     H70306   5.210   9.827   8.281  1.2359 -1.3436 -0.6969
  521MOL0     H70307   5.016  10.023   8.269  0.0888  0.4968  0.0345
  521MOL0     H70308   5.162  10.123   8.222 -0.4931 -1.0258 -2.4789
  521MOL0     H70309   5.124   9.946   8.472  0.1626 -0.4880  0.7920
  521MOL0     H70310   5.238  10.090   8.447  0.7593 -0.9231 -3.2436
  521MOL0     H70311   4.959  10.084   8.537  2.7426 -1.9392 -0.3958
  521MOL0     H70312   5.018  10.233   8.446 -1.0296 -0.2854 -0.6595
  521MOL0     H70313   5.210  10.242   8.605 -1.7961  3.1514 -1.4671
  521MOL0     H70314   5.054  10.272   8.684  0.0462  1.2666 -1.6831
  521MOL0     H70315   4.871   9.831   7.700 -2.7809 -1.4027 -1.5791
  521MOL0     H70316   4.777   9.723   7.543 -0.0925  1.9102  1.9655
  521MOL0     H70317   4.570   9.429   7.204  0.8965  0.5401  1.0856
  521MOL0     H70318   4.541   9.345   6.956 -0.9477 -0.7163  2.7578
  521MOL0     H70319   5.105   9.713   5.592 -1.4203 -0.7597 -0.8788
  521MOL0     H70320   5.191   9.698   5.361  1.6831  0.9420 -0.1010
  521MOL0     H70321   5.029   9.808   4.860  0.7344 -0.9888  2.5905
  521MOL0     H70322   5.092   9.813   4.650 -2.1051  0.2686  3.0594
  521MOL0     H70323   5.321   9.889   4.356 -0.0388  0.1006  1.6778
  521MOL0     H70324   5.177   9.829   4.446 -0.2956  0.9286 -0.2222
  521MOL0     H70325   5.317   9.677   4.289  0.7124 -2.3348 -0.3200
  521MOL0     H70326   5.263   9.597   4.439  0.3659  0.0778 -0.8007
  521MOL0     H70327   5.504   9.620   4.511  1.2674 -3.8362 -0.7906
  521MOL0     H70328   5.538   9.730   4.383 -0.0293  0.2584  0.9438
  521MOL0     H70329   5.452   9.447   4.326  0.9870 -1.0134  0.5111
  521MOL0     H70330   5.505   9.571   4.210  0.4946 -2.3456 -1.1053
  521MOL0     H70331   5.875   9.466   4.394  0.1809 -0.9989  1.7240
  521MOL0     H70332   5.503   9.866   4.749  0.0142  3.5704  1.0985
  521MOL0     H70333   5.481   9.945   5.047  1.6962 -1.1572  2.3239
  521MOL0     H70334   5.449   9.776   5.102 -0.7709 -0.4078  0.0371
  521MOL0     H70335   5.564   9.808   4.976 -0.5927  1.2576 -1.5280
  522MOL0     O70336   3.102   1.866   6.951  0.3781  0.0584  0.3852
  522MOL0     C70337   3.109   1.957   7.032 -0.2382 -0.1144  1.0983
  522MOL0     O70338   3.229   2.019   7.079 -0.0660  0.1995 -0.3866
  522MOL0     C70339   3.344   1.959   7.040 -0.3966 -0.7083  0.1779
  522MOL0     C70340   3.407   1.986   6.911 -1.1878  0.1473  0.7188
  522MOL0     C70341   3.529   1.915   6.882  0.8451  0.0155  0.7044
  522MOL0     C70342   3.569   1.813   6.965  0.0896  0.1857  0.4406
  522MOL0     O70343   3.676   1.727   6.923 -0.3675  0.7977 -0.3445
  522MOL0     C70344   3.742   1.744   6.790  0.5020  0.1548 -0.2109
  522MOL0     C70345   3.816   1.624   6.742  0.6782  0.4495 -0.6494
  522MOL0     C70346   3.963   1.615   6.799 -0.1480  0.0102  0.3142
  522MOL0     C70347   4.049   1.522   6.713  0.1641  0.7770  0.7017
  522MOL0     C70348   4.186   1.507   6.777 -0.1389  0.8380  0.7894
  522MOL0     C70349   4.282   1.437   6.677  0.0332  0.3246 -0.1798
  522MOL0     C70350   4.418   1.400   6.741  0.2162  0.2383 -0.3256
  522MOL0     C70351   4.504   1.315   6.645 -0.7489 -0.1468  0.0854
  522MOL0     N70352   4.504   1.368   6.508  0.1169 -0.5084  0.3995
  522MOL0     C70353   4.581   1.476   6.475 -0.1645  0.3858 -0.0143
  522MOL0     C70354   4.538   1.512   6.348  0.2715  0.7268 -1.2809
  522MOL0     C70355   4.604   1.611   6.267  0.4814  0.6464 -0.3082
  522MOL0     C70356   4.666   1.526   6.160  0.9470 -0.4184  0.8952
  522MOL0     C70357   4.732   1.632   6.066  0.2048  0.7482  0.3500
  522MOL0     C70358   4.770   1.574   5.929  0.3572 -0.3674  0.1492
  522MOL0     O70359   4.869   1.469   5.957  1.0100  0.2097  0.2394
  522MOL0     C70360   4.867   1.367   5.865  0.1555 -0.0401 -0.6440
  522MOL0     C70361   4.792   1.367   5.744  0.6166  0.0042 -0.0455
  522MOL0     C70362   4.794   1.251   5.658  0.3721 -0.2630  1.0125
  522MOL0     C70363   4.893   1.155   5.674 -0.2972  0.6074 -1.0337
  522MOL0     C70364   4.922   1.037   5.578 -0.8821  0.8022  0.2133
  522MOL0     O70365   4.850   1.036   5.467  0.3934 -0.0284  0.5844
  522MOL0     C70366   4.834   0.918   5.382 -1.0022  0.2733 -0.6299
  522MOL0     C70367   4.891   0.786   5.396  0.1255  0.1885 -0.9310
  522MOL0     C70368   4.881   0.690   5.295 -0.2399 -0.5049  0.5013
  522MOL0     C70369   4.807   0.707   5.182  0.1339 -0.1300  0.5513
  522MOL0     O70370   4.781   0.595   5.107  0.5256  1.0811  0.0841
  522MOL0     C70371   4.724   0.620   4.984 -0.2907 -0.7156  0.9440
  522MOL0     C70372   4.699   0.482   4.907  0.0655  1.2732  0.1226
  522MOL0     C70373   4.824   0.405   4.876 -0.6923 -0.4156  0.2419
  522MOL0     C70374   4.813   0.284   4.788  0.3599  0.0266 -0.1493
  522MOL0     C70375   4.930   0.194   4.785 -0.1749  0.9869 -0.2246
  522MOL0     C70376   4.902   0.053   4.742  0.6062  0.7732 -0.1461
  522MOL0     C70377   4.825   0.036   4.597 -0.2222 -0.7384  0.0805
  522MOL0     C70378   4.842  -0.100   4.528  0.1107  0.4319 -0.5717
  522MOL0    Cl70379   5.017  -0.124   4.490 -0.1600  0.3104 -0.2295
  522MOL0     C70380   4.748   0.838   5.161 -0.3319 -0.0767 -0.6710
  522MOL0     C70381   4.766   0.941   5.263 -0.0504 -0.8022 -0.4498
  522MOL0     O70382   5.001   0.950   5.615 -0.1348  0.2200  0.7212
  522MOL0     C70383   4.975   1.168   5.787 -0.5375  0.8021  0.3285
  522MOL0     C70384   4.958   1.263   5.881  0.7690 -0.1469  0.5061
  522MOL0     N70385   4.435   1.426   6.317 -0.1424 -0.3271  0.6236
  522MOL0     N70386   4.423   1.328   6.405 -0.1374 -0.0424  0.1585
  522MOL0     C70387   3.499   1.788   7.089 -0.4436  0.8411 -0.3557
  522MOL0     C70388   3.375   1.854   7.116 -0.7972  0.5533  0.6190
  522MOL0     C70389   2.985   2.021   7.078 -0.1332  0.0505 -0.2678
  522MOL0     C70390   3.001   2.103   7.193  0.0176 -0.4194  0.2472
  522MOL0     C70391   2.890   2.162   7.259  0.3521  0.3863 -0.0859
  522MOL0     C70392   2.764   2.149   7.208 -0.5202  0.5721 -0.2953
  522MOL0     O70393   2.675   2.219   7.275 -0.0644 -0.9066 -0.5391
  522MOL0     C70394   2.540   2.246   7.225 -0.9034  0.4218  1.0382
  522MOL0     C70395   2.462   2.338   7.317 -0.0241 -0.2001 -0.3264
  522MOL0     C70396   2.455   2.282   7.454  0.2224 -0.7226  0.7904
  522MOL0     C70397   2.375   2.379   7.544 -0.1647 -0.3393 -0.2995
  522MOL0     C70398   2.441   2.507   7.574  0.5566 -0.1492  0.0147
  522MOL0     C70399   2.481   2.617   7.607 -0.2156  0.2973 -1.3800
  522MOL0     C70400   2.749   2.075   7.081 -1.1238 -0.5846  0.7128
  522MOL0     C70401   2.858   2.008   7.016 -0.1933  0.6758  0.1888
  522MOL0     C70402   2.838   1.931   6.889 -0.3028 -0.1599  0.4315
  522MOL0     H70403   3.354   2.055   6.847 -0.4778 -0.5412 -0.6357
  522MOL0     H70404   3.564   1.938   6.782 -2.1211 -0.8332 -0.6644
  522MOL0     H70405   3.657   1.761   6.724 -0.9720  1.8942  1.9622
  522MOL0     H70406   3.810   1.830   6.787 -0.1866  0.7887  1.0746
  522MOL0     H70407   3.808   1.618   6.633 -0.3209 -3.0799 -0.5168
  522MOL0     H70408   3.774   1.527   6.772 -2.0826  0.3658 -4.1074
  522MOL0     H70409   3.966   1.577   6.902  1.0684 -0.2606  0.1819
  522MOL0     H70410   4.020   1.707   6.783  1.4889 -1.4339 -3.2062
  522MOL0     H70411   4.001   1.426   6.695  1.6080  0.1593 -0.0951
  522MOL0     H70412   4.080   1.574   6.622 -0.3985 -2.0585 -1.2400
  522MOL0     H70413   4.220   1.610   6.794  1.6261  0.5459 -0.6434
  522MOL0     H70414   4.175   1.442   6.864 -3.3260  0.3039  0.1023
  522MOL0     H70415   4.232   1.347   6.640 -0.0671 -1.0185  2.9253
  522MOL0     H70416   4.301   1.507   6.595  1.3310  0.3147  0.0847
  522MOL0     H70417   4.396   1.341   6.830 -3.1840 -1.4290 -2.0714
  522MOL0     H70418   4.476   1.489   6.766 -2.2195  1.2641  2.2280
  522MOL0     H70419   4.603   1.333   6.688 -1.8933  3.0202  1.7063
  522MOL0     H70420   4.463   1.214   6.647 -1.8431  0.3001  1.3008
  522MOL0     H70421   4.653   1.514   6.546 -0.5210 -1.4791  1.4337
  522MOL0     H70422   4.520   1.667   6.226 -1.2258 -2.7497 -1.8188
  522MOL0     H70423   4.673   1.664   6.334 -0.9397  2.1124  0.0677
  522MOL0     H70424   4.750   1.470   6.202  0.7348 -0.0098  1.8925
  522MOL0     H70425   4.598   1.459   6.105 -1.9327  1.6414  1.7218
  522MOL0     H70426   4.822   1.665   6.119  0.2987  1.0498  0.0089
  522MOL0     H70427   4.672   1.722   6.052 -0.0602  0.9127  2.2325
  522MOL0     H70428   4.814   1.654   5.868  3.3397 -1.6792  0.3988
  522MOL0     H70429   4.669   1.551   5.894  0.7460 -0.1285 -1.1668
  522MOL0     H70430   4.714   1.441   5.729  1.4565  1.0727  0.6661
  522MOL0     H70431   4.721   1.254   5.578  1.7617 -0.8795 -0.3289
  522MOL0     H70432   4.943   0.759   5.487 -2.7068  0.5656  0.9231
  522MOL0     H70433   4.912   0.589   5.317 -2.1876 -1.2870 -0.1304
  522MOL0     H70434   4.633   0.679   4.994  0.2516  0.2748  0.2095
  522MOL0     H70435   4.799   0.677   4.927 -2.1650  1.4616  0.5224
  522MOL0     H70436   4.636   0.430   4.980 -1.2303 -2.5900 -3.3608
  522MOL0     H70437   4.640   0.476   4.815  0.0560 -2.4096  0.2225
  522MOL0     H70438   4.898   0.475   4.837  0.6687 -1.5033  0.7796
  522MOL0     H70439   4.866   0.371   4.971  2.6388 -1.1565 -1.3480
  522MOL0     H70440   4.802   0.330   4.690 -2.6063  1.7019  0.8336
  522MOL0     H70441   4.730   0.216   4.808 -1.6098  1.1489 -3.7061
  522MOL0     H70442   4.997   0.189   4.871 -0.2140 -1.0560 -0.2776
  522MOL0     H70443   5.004   0.239   4.717  0.4343  2.1943  1.1830
  522MOL0     H70444   4.991  -0.009   4.731 -2.1550 -3.2023 -2.7406
  522MOL0     H70445   4.851  -0.001   4.821  0.5657 -1.0661 -1.3750
  522MOL0     H70446   4.872   0.111   4.533 -1.0715 -2.1433 -2.2818
  522MOL0     H70447   4.721   0.069   4.607 -0.2272 -0.4349 -0.9002
  522MOL0     H70448   4.802  -0.187   4.582  2.2997 -1.1874 -1.3757
  522MOL0     H70449   4.782  -0.090   4.438  1.7996 -2.8705 -2.2336
  522MOL0     H70450   4.671   0.847   5.085 -2.2798 -3.7152  0.6513
  522MOL0     H70451   4.727   1.041   5.248 -3.1760 -1.5049  1.8593
  522MOL0     H70452   5.048   1.092   5.815 -2.4875 -2.0443 -1.6799
  522MOL0     H70453   5.028   1.259   5.964 -0.5246  1.2369  1.7182
  522MOL0     H70454   3.523   1.699   7.147  0.2776  0.9812 -0.4325
  522MOL0     H70455   3.309   1.816   7.194 -3.0677  0.7567 -1.0845
  522MOL0     H70456   3.102   2.122   7.227  0.4891 -0.5870 -0.9930
  522MOL0     H70457   2.897   2.220   7.350  0.8813 -0.0103  0.1360
  522MOL0     H70458   2.472   2.164   7.197 -0.3263  0.6903 -1.4211
  522MOL0     H70459   2.560   2.283   7.124  2.3875 -2.4275  0.4372
  522MOL0     H70460   2.358   2.346   7.284 -0.0055  0.6712 -0.1867
  522MOL0     H70461   2.504   2.438   7.315 -1.5777  0.4562 -1.6117
  522MOL0     H70462   2.558   2.273   7.492  1.4439 -1.9121 -2.4566
  522MOL0     H70463   2.407   2.184   7.461  2.2067 -1.9298 -1.2061
  522MOL0     H70464   2.277   2.403   7.502 -0.8448  1.2291  1.9571
  522MOL0     H70465   2.353   2.319   7.633 -3.4010  1.7756  0.4679
  522MOL0     H70466   2.529   2.710   7.630 -0.1468  0.5613 -2.5474
  522MOL0     H70467   2.657   2.089   7.025  0.2411  2.3350 -1.0768
  522MOL0     H70468   2.842   1.822   6.897  1.3713 -0.1869 -0.3333
  522MOL0     H70469   2.736   1.957   6.858 -1.0418 -1.2997  1.7812
  522MOL0     H70470   2.907   1.963   6.810  2.0763 -0.7895  2.1446
  523MOL0     O70471   5.699  11.137   2.421 -0.7543 -0.0714 -0.0566
  523MOL0     C70472   5.586  11.165   2.459 -0.3471 -0.4979 -0.0496
  523MOL0     O70473   5.516  11.279   2.426  0.0831 -0.1031 -0.1083
  523MOL0     C70474   5.583  11.369   2.351  0.3778 -0.0189  0.7524
  523MOL0     C70475   5.657  11.332   2.233  0.2671  0.6147  0.0276
  523MOL0     C70476   5.720  11.434   2.153 -0.1399 -1.2462  1.5654
  523MOL0     C70477   5.716  11.567   2.200  0.8141  0.9233  0.4642
  523MOL0     O70478   5.796  11.654   2.131 -0.2029  0.7133  0.3751
  523MOL0     C70479   5.819  11.774   2.206  0.2721 -0.2653 -0.5088
  523MOL0     C70480   5.925  11.869   2.141 -0.1210 -0.9883 -0.4925
  523MOL0     C70481   6.078  11.834   2.147  0.4814  0.2848 -0.0169
  523MOL0     C70482   6.146  11.958   2.099  0.2520  0.3830  0.2443
  523MOL0     C70483   6.247  11.921   1.995  0.4881  0.2785  0.3958
  523MOL0     C70484   6.308  12.049   1.930 -0.0110 -0.4552 -0.7226
  523MOL0     C70485   6.378  12.143   2.033  0.0736  0.9972 -0.1522
  523MOL0     C70486   6.422  12.274   1.960 -0.4196  0.7487  0.6087
  523MOL0     N70487   6.523  12.251   1.861  0.4888  0.7058 -0.3541
  523MOL0     C70488   6.504  12.198   1.737 -0.6450  0.0249  0.7748
  523MOL0     C70489   6.635  12.154   1.709  0.2034 -0.3612 -0.2675
  523MOL0     C70490   6.664  12.072   1.581  0.3010  0.6155 -0.2279
  523MOL0     C70491   6.816  12.064   1.547  0.2723 -0.5779 -0.1510
  523MOL0     C70492   6.842  11.979   1.425 -0.5837  0.0731 -0.5751
  523MOL0     C70493   6.993  11.959   1.393 -0.7700  0.4583  0.5526
  523MOL0     O70494   7.028  11.842   1.315 -0.0368 -0.8628  0.3363
  523MOL0     C70495   6.976  11.828   1.189 -0.2267 -0.5383 -0.6314
  523MOL0     C70496   6.941  11.700   1.162  0.3325 -0.1081 -0.6551
  523MOL0     C70497   6.888  11.660   1.037  0.1425  0.1926  0.3389
  523MOL0     C70498   6.858  11.752   0.940 -0.6003  0.2046 -0.4780
  523MOL0     C70499   6.802  11.701   0.813  0.1154 -1.4662 -0.0015
  523MOL0     O70500   6.836  11.767   0.696  0.8264 -0.1776 -0.2111
  523MOL0     C70501   6.786  11.721   0.579  0.3439 -0.3385  0.3358
  523MOL0     C70502   6.857  11.640   0.493  0.1427 -0.1271 -0.1282
  523MOL0     C70503   6.795  11.592   0.381  0.8134 -0.2681  0.7618
  523MOL0     C70504   6.671  11.636   0.337 -0.5558  0.2204  0.2883
  523MOL0     O70505   6.613  11.599   0.217  0.3422 -0.2841 -0.6639
  523MOL0     C70506   6.681  11.547   0.095 -0.0297 -0.4284 -0.0110
  523MOL0     C70507   6.577  11.525  -0.012 -0.3275 -0.1078  0.3905
  523MOL0     C70508   6.641  11.470  -0.144 -0.5639 -0.2185 -0.9697
  523MOL0     C70509   6.595  11.532  -0.272 -0.0138 -0.1977 -0.9871
  523MOL0     C70510   6.672  11.480  -0.385  0.0656  0.0729 -1.4482
  523MOL0     C70511   6.657  11.560  -0.521  0.4316 -0.8451 -0.6034
  523MOL0     C70512   6.507  11.566  -0.567  0.1713 -0.3821 -0.5067
  523MOL0     C70513   6.492  11.670  -0.683  0.6498  0.2565 -0.0702
  523MOL0    Cl70514   6.548  11.837  -0.627 -0.0221 -0.1269 -0.1593
  523MOL0     C70515   6.600  11.723   0.426 -0.3518 -0.2397 -0.5667
  523MOL0     C70516   6.661  11.765   0.550 -0.5549 -0.0714  0.2766
  523MOL0     O70517   6.741  11.595   0.822  0.3093 -0.2585 -0.8065
  523MOL0     C70518   6.904  11.885   0.976 -0.1436  0.2216 -0.3306
  523MOL0     C70519   6.960  11.930   1.096  0.7173  0.7342 -0.3441
  523MOL0     N70520   6.723  12.195   1.800  0.1443 -0.4777  0.9806
  523MOL0     N70521   6.656  12.258   1.889  0.0711  0.5752  0.2692
  523MOL0     C70522   5.630  11.604   2.308 -0.1209 -0.0569 -0.3698
  523MOL0     C70523   5.566  11.502   2.384 -1.2346 -0.4282 -0.0176
  523MOL0     C70524   5.515  11.065   2.543 -0.4311  0.2007  0.0198
  523MOL0     C70525   5.376  11.025   2.507 -0.2593 -0.6116 -0.0565
  523MOL0     C70526   5.306  10.930   2.585 -0.2779  0.2085  0.4483
  523MOL0     C70527   5.367  10.873   2.695 -0.7269  0.0904 -0.3125
  523MOL0     O70528   5.293  10.779   2.759 -0.1459  0.5532 -0.1033
  523MOL0     C70529   5.350  10.699   2.873 -0.8727 -0.0183 -0.4750
  523MOL0     C70530   5.287  10.560   2.898  0.0380  0.2742 -0.4729
  523MOL0     C70531   5.252  10.478   2.769  0.0016 -0.4052  0.6448
  523MOL0     C70532   5.151  10.537   2.673 -0.6091 -0.7875 -0.5938
  523MOL0     C70533   5.039  10.605   2.747 -0.4205 -0.9395  1.2573
  523MOL0     C70534   4.954  10.677   2.783 -0.4926  0.3351  0.0791
  523MOL0     C70535   5.493  10.921   2.739 -0.0364  0.1189 -0.0215
  523MOL0     C70536   5.562  11.022   2.669  0.5703 -0.7657  0.8658
  523MOL0     C70537   5.700  11.056   2.724 -0.0724  0.0507 -0.9622
  523MOL0     H70538   5.664  11.228   2.204  1.8406  1.0176 -1.1626
  523MOL0     H70539   5.782  11.405   2.069  0.8196  2.3956  0.8629
  523MOL0     H70540   5.726  11.832   2.208 -0.7625 -1.8063 -1.5303
  523MOL0     H70541   5.856  11.740   2.303  4.8274 -0.5614 -2.0942
  523MOL0     H70542   5.919  11.961   2.199 -0.3142 -0.8852 -0.6753
  523MOL0     H70543   5.894  11.890   2.038  3.0546 -0.0430 -1.3664
  523MOL0     H70544   6.095  11.738   2.097 -2.6058  0.3970 -1.5420
  523MOL0     H70545   6.085  11.831   2.256 -0.8991  1.2577  0.1272
  523MOL0     H70546   6.078  12.015   2.036  0.8342  0.4954 -0.2921
  523MOL0     H70547   6.178  12.018   2.184 -2.1361  1.7875  0.2461
  523MOL0     H70548   6.321  11.854   2.039 -0.3927 -0.6676  0.4774
  523MOL0     H70549   6.193  11.858   1.924  0.4120 -1.8585  2.2314
  523MOL0     H70550   6.382  12.017   1.855  2.4657  2.7326  0.1456
  523MOL0     H70551   6.227  12.105   1.883 -0.9616  0.3883  1.7595
  523MOL0     H70552   6.464  12.096   2.082  0.1533  1.3694  0.0672
  523MOL0     H70553   6.301  12.167   2.107 -2.4890 -1.9788 -1.6402
  523MOL0     H70554   6.340  12.333   1.917 -0.8624  0.2843  0.8026
  523MOL0     H70555   6.453  12.340   2.041 -0.6130 -0.9673  2.1600
  523MOL0     H70556   6.417  12.180   1.675 -0.9097  0.3481  1.0519
  523MOL0     H70557   6.625  11.974   1.609  0.4021  1.1528  1.9199
  523MOL0     H70558   6.611  12.106   1.491  0.4126  0.5429 -0.3199
  523MOL0     H70559   6.841  12.167   1.520 -3.0841  0.1314 -0.9740
  523MOL0     H70560   6.875  12.034   1.634  0.4659  3.2681  1.2087
  523MOL0     H70561   6.789  12.020   1.339 -3.5860 -0.9428  0.6480
  523MOL0     H70562   6.800  11.883   1.459  1.4416 -1.0852 -1.1516
  523MOL0     H70563   7.044  11.946   1.489  1.9100 -0.4445 -0.8878
  523MOL0     H70564   7.034  12.043   1.335 -0.1574 -3.1582 -4.9882
  523MOL0     H70565   6.946  11.625   1.241 -1.2584  1.3030  0.8628
  523MOL0     H70566   6.868  11.553   1.033  0.2162  0.1945 -0.2144
  523MOL0     H70567   6.955  11.606   0.522 -0.7550 -2.2634  0.6239
  523MOL0     H70568   6.862  11.525   0.328  1.1695  0.5761  0.1214
  523MOL0     H70569   6.745  11.629   0.060  1.7521 -0.9549  1.8114
  523MOL0     H70570   6.742  11.456   0.106  2.8414  1.3589 -0.1023
  523MOL0     H70571   6.504  11.452   0.023  2.7189 -2.5651  2.1864
  523MOL0     H70572   6.526  11.620  -0.026  0.7165  0.4311  0.1636
  523MOL0     H70573   6.750  11.461  -0.134 -0.6440  1.3245  2.9509
  523MOL0     H70574   6.606  11.367  -0.158 -1.2430  0.3775 -5.0223
  523MOL0     H70575   6.612  11.639  -0.261 -0.2059 -0.3718  1.4124
  523MOL0     H70576   6.487  11.516  -0.282 -0.3518  2.2870 -2.0839
  523MOL0     H70577   6.647  11.374  -0.393  2.0218 -0.4216 -1.4660
  523MOL0     H70578   6.780  11.492  -0.382  0.1388 -0.3445 -2.0946
  523MOL0     H70579   6.699  11.660  -0.518 -5.4529  2.1656  4.0014
  523MOL0     H70580   6.703  11.499  -0.600  2.4278 -1.2568  0.8110
  523MOL0     H70581   6.443  11.606  -0.488  2.2308  1.6039  0.2516
  523MOL0     H70582   6.469  11.467  -0.594 -3.4278 -0.1146  2.6834
  523MOL0     H70583   6.555  11.629  -0.762 -1.1270 -1.1453 -0.8255
  523MOL0     H70584   6.388  11.664  -0.717  0.2586 -3.6569  1.2605
  523MOL0     H70585   6.500  11.750   0.392 -1.1724 -1.4274  0.7565
  523MOL0     H70586   6.611  11.841   0.609  0.0859  1.0540 -0.5913
  523MOL0     H70587   6.875  11.967   0.911  0.4193 -0.3642 -1.3389
  523MOL0     H70588   6.981  12.033   1.126  0.1445  0.2741  1.8175
  523MOL0     H70589   5.604  11.706   2.332 -2.0819  0.0100 -2.4372
  523MOL0     H70590   5.504  11.543   2.462 -0.4628  1.9950 -0.5874
  523MOL0     H70591   5.339  11.061   2.412  0.9113  1.4127  0.2048
  523MOL0     H70592   5.204  10.899   2.566 -0.4147  1.5603 -1.2393
  523MOL0     H70593   5.343  10.754   2.967  0.9429  1.8664 -1.3734
  523MOL0     H70594   5.457  10.687   2.858  0.0592  2.0690  3.1649
  523MOL0     H70595   5.197  10.553   2.961  2.0022 -1.7174  2.3813
  523MOL0     H70596   5.367  10.516   2.959 -0.3435 -1.9450 -1.4811
  523MOL0     H70597   5.217  10.382   2.808 -1.3438 -1.8498 -3.6022
  523MOL0     H70598   5.340  10.451   2.709  0.7585  0.5748  1.2718
  523MOL0     H70599   5.197  10.607   2.602 -0.5520 -0.8874 -0.6543
  523MOL0     H70600   5.118  10.454   2.610 -1.3330 -1.5069  0.7078
  523MOL0     H70601   4.871  10.743   2.797 -1.8536 -0.8873 -1.7619
  523MOL0     H70602   5.540  10.880   2.828  1.4784  0.0424 -0.8284
  523MOL0     H70603   5.726  10.987   2.805 -0.5041 -0.9388 -1.6368
  523MOL0     H70604   5.774  11.034   2.645  0.8383  3.0843 -1.0706
  523MOL0     H70605   5.715  11.159   2.757 -0.6765 -0.7202  1.9857
  524MOL0     O70606   4.574   0.391   4.499 -0.7217 -0.5505  0.1568
  524MOL0     C70607   4.541   0.495   4.554 -0.2896  0.0206 -0.6968
  524MOL0     O70608   4.597   0.619   4.541  0.3868  0.6299  0.6481
  524MOL0     C70609   4.686   0.631   4.434  0.2110 -0.1007 -0.2301
  524MOL0     C70610   4.796   0.721   4.457  0.1229 -0.4800 -0.4273
  524MOL0     C70611   4.877   0.762   4.352 -0.4302  0.0785  1.0931
  524MOL0     C70612   4.858   0.702   4.220 -0.0054 -0.4446 -0.3433
  524MOL0     O70613   4.939   0.724   4.114 -0.2360 -0.0503 -0.5109
  524MOL0     C70614   5.071   0.781   4.122 -0.2748  0.5577 -0.4234
  524MOL0     C70615   5.121   0.827   3.983 -0.5503  0.0853  0.5133
  524MOL0     C70616   5.097   0.969   3.938 -0.0644 -1.1950  0.3516
  524MOL0     C70617   4.951   1.012   3.928  0.2450  0.2257 -0.4044
  524MOL0     C70618   4.935   1.159   3.889 -0.4008 -0.5888  0.0148
  524MOL0     C70619   4.792   1.203   3.871 -0.4999 -0.0381 -0.0176
  524MOL0     C70620   4.798   1.354   3.843  0.7658  0.1703 -1.0792
  524MOL0     C70621   4.665   1.427   3.870  0.3974  0.9602 -0.0417
  524MOL0     N70622   4.637   1.437   4.019  0.6690 -0.3074  0.0150
  524MOL0     C70623   4.679   1.533   4.114  0.0858  0.4331 -0.1256
  524MOL0     C70624   4.608   1.503   4.222 -0.3960 -0.5734 -0.4131
  524MOL0     C70625   4.613   1.583   4.347 -0.4731 -0.2242  0.2343
  524MOL0     C70626   4.467   1.604   4.402 -0.2895 -0.7216  0.4997
  524MOL0     C70627   4.413   1.722   4.323  0.7694 -0.0625 -0.3513
  524MOL0     C70628   4.267   1.755   4.355 -0.2354 -0.2544 -0.3630
  524MOL0     O70629   4.184   1.647   4.308 -0.7713 -0.7778 -0.0217
  524MOL0     C70630   4.092   1.580   4.393 -0.6646 -0.3563  0.7989
  524MOL0     C70631   3.979   1.513   4.331 -0.0955  0.6875 -0.5961
  524MOL0     C70632   3.891   1.437   4.412  0.1823 -0.0885  0.2612
  524MOL0     C70633   3.906   1.433   4.553 -0.4885 -0.3612  0.9691
  524MOL0     C70634   3.794   1.374   4.632  0.8047 -0.4642 -0.5479
  524MOL0     O70635   3.674   1.354   4.566  0.2427  0.1287 -0.0540
  524MOL0     C70636   3.586   1.285   4.636  1.2855  0.5676 -0.6066
  524MOL0     C70637   3.589   1.148   4.646 -0.5605  0.2519  0.4122
  524MOL0     C70638   3.483   1.085   4.711  0.5062  0.5660 -0.5560
  524MOL0     C70639   3.384   1.164   4.777 -0.6123  0.0301 -0.1611
  524MOL0     O70640   3.285   1.099   4.824  0.0165  0.4018 -0.4323
  524MOL0     C70641   3.265   1.131   4.965  0.9973  0.0377  0.2393
  524MOL0     C70642   3.182   1.029   5.036 -0.3686  0.6936 -0.4490
  524MOL0     C70643   3.196   1.042   5.193  0.7978  0.1529  0.9753
  524MOL0     C70644   3.076   0.965   5.254 -0.4718  0.0602 -0.5719
  524MOL0     C70645   3.055   0.987   5.405  0.6388  0.5847 -0.3189
  524MOL0     C70646   3.121   0.877   5.491  0.1032  0.4070  0.1969
  524MOL0     C70647   3.137   0.944   5.628  0.5977  0.2017  0.0602
  524MOL0     C70648   3.276   0.997   5.669 -0.2670  0.3040 -0.5172
  524MOL0    Cl70649   3.401   0.873   5.659  0.1764 -0.2953  0.4560
  524MOL0     C70650   3.389   1.303   4.764  0.0420 -0.2099 -0.1010
  524MOL0     C70651   3.486   1.352   4.696  0.6258 -0.0623 -1.2385
  524MOL0     O70652   3.814   1.339   4.750  0.1576 -0.6392  0.2228
  524MOL0     C70653   4.018   1.496   4.608  0.6533 -0.2505  0.2013
  524MOL0     C70654   4.114   1.572   4.531  0.5536  0.6754  0.6051
  524MOL0     N70655   4.527   1.389   4.202  0.7004 -0.3074  0.7281
  524MOL0     N70656   4.540   1.363   4.074  0.7541 -0.1032 -0.0565
  524MOL0     C70657   4.756   0.609   4.206  0.8620  0.8948  0.5394
  524MOL0     C70658   4.666   0.578   4.307 -0.4457 -0.1825 -0.7532
  524MOL0     C70659   4.418   0.483   4.646 -0.2185  0.2105  0.5523
  524MOL0     C70660   4.361   0.596   4.694  0.2724 -0.6164  0.7607
  524MOL0     C70661   4.248   0.591   4.765  0.6885 -0.3446  0.1374
  524MOL0     C70662   4.193   0.474   4.821  0.3410 -0.2666  0.5468
  524MOL0     O70663   4.067   0.491   4.887 -1.3462  0.2385 -0.2351
  524MOL0     C70664   4.014   0.382   4.962  0.0309 -0.6430  0.2811
  524MOL0     C70665   3.935   0.283   4.890 -0.5346 -0.4288 -0.8018
  524MOL0     C70666   3.868   0.177   4.971  0.0121  0.4941 -0.0505
  524MOL0     C70667   3.801   0.057   4.900  0.3343  0.1606 -0.0666
  524MOL0     C70668   3.902  -0.030   4.829 -0.4547  0.0204 -0.1727
  524MOL0     C70669   3.975  -0.102   4.769 -0.2127  0.6221  0.6540
  524MOL0     C70670   4.254   0.357   4.775  0.4014  0.2005  0.1227
  524MOL0     C70671   4.357   0.358   4.688  0.7718  0.5690  0.0713
  524MOL0     C70672   4.422   0.226   4.668 -0.1926  0.2430  0.2658
  524MOL0     H70673   4.808   0.769   4.553  1.4843 -1.7360  0.0705
  524MOL0     H70674   4.943   0.847   4.368 -3.2222  2.7537 -0.5627
  524MOL0     H70675   5.067   0.869   4.188  3.8095 -0.1892  1.0907
  524MOL0     H70676   5.141   0.707   4.160 -0.2692 -0.2762 -1.9974
  524MOL0     H70677   5.070   0.769   3.906  1.5104  1.4646 -2.0249
  524MOL0     H70678   5.230   0.820   3.986 -0.4802  1.2176  1.6036
  524MOL0     H70679   5.140   0.983   3.838 -3.2661 -1.1201 -1.1215
  524MOL0     H70680   5.154   1.032   4.008  1.2006 -3.8741  1.8799
  524MOL0     H70681   4.906   0.962   3.842 -0.3232 -0.5183  0.3159
  524MOL0     H70682   4.902   0.978   4.020  1.7133  0.0736  0.3435
  524MOL0     H70683   4.994   1.212   3.966 -3.3311  1.8956  0.7513
  524MOL0     H70684   4.980   1.170   3.790  1.3550  0.2732  0.8649
  524MOL0     H70685   4.743   1.146   3.793  2.8145 -3.1610 -0.0960
  524MOL0     H70686   4.744   1.184   3.968 -0.3133  0.5850  0.2031
  524MOL0     H70687   4.817   1.355   3.735  0.7172  0.8184 -1.0838
  524MOL0     H70688   4.862   1.412   3.909  1.0168  0.1220 -1.2782
  524MOL0     H70689   4.680   1.523   3.819  1.6802  0.1656 -1.2102
  524MOL0     H70690   4.582   1.380   3.818 -0.1627 -2.4365  3.5048
  524MOL0     H70691   4.743   1.620   4.102  1.8516 -0.9531 -1.1548
  524MOL0     H70692   4.678   1.535   4.421 -0.0932 -2.8510 -1.6701
  524MOL0     H70693   4.652   1.684   4.327  0.6055  0.0582  3.1793
  524MOL0     H70694   4.408   1.512   4.405 -2.3426  0.5653  2.5213
  524MOL0     H70695   4.486   1.640   4.504  2.6057 -0.4106 -0.0570
  524MOL0     H70696   4.412   1.697   4.216  0.5841  1.8864 -0.8439
  524MOL0     H70697   4.478   1.807   4.346 -1.3322  2.1550 -2.0995
  524MOL0     H70698   4.241   1.851   4.309 -2.5073 -0.5907  0.1009
  524MOL0     H70699   4.248   1.760   4.462 -3.4518 -0.3772 -0.8404
  524MOL0     H70700   3.961   1.548   4.230  1.4194  3.3383 -0.0376
  524MOL0     H70701   3.800   1.408   4.361  0.8407 -1.5618 -0.1469
  524MOL0     H70702   3.661   1.082   4.598 -0.0268  0.1716  1.3034
  524MOL0     H70703   3.467   0.977   4.714  0.9002  0.5019  2.0999
  524MOL0     H70704   3.359   1.127   5.020  0.5705 -0.0620  0.9837
  524MOL0     H70705   3.230   1.234   4.980 -0.6570 -0.7271  2.1928
  524MOL0     H70706   3.082   1.053   5.001  0.2804  1.6764 -1.7485
  524MOL0     H70707   3.206   0.932   4.992 -0.0849 -0.0400  1.2218
  524MOL0     H70708   3.296   1.010   5.221  1.5101  1.2033 -0.2484
  524MOL0     H70709   3.177   1.145   5.224 -4.3517 -0.6598  1.3535
  524MOL0     H70710   3.071   0.862   5.217 -3.4342  0.9472 -3.0931
  524MOL0     H70711   2.993   1.024   5.214 -0.4987 -0.9551 -2.1134
  524MOL0     H70712   2.949   0.992   5.429  0.2350 -1.9244 -1.2787
  524MOL0     H70713   3.102   1.084   5.427  2.3966  0.3695 -2.6606
  524MOL0     H70714   3.074   0.778   5.490  0.7858 -0.0227 -3.4974
  524MOL0     H70715   3.217   0.854   5.444 -0.8811 -2.9996 -0.4164
  524MOL0     H70716   3.097   0.875   5.702  0.8488  2.3692  2.3246
  524MOL0     H70717   3.064   1.025   5.632  0.1744  0.0248 -2.2795
  524MOL0     H70718   3.304   1.086   5.612  1.1851  0.1913 -0.0103
  524MOL0     H70719   3.270   1.031   5.772  1.1357 -0.4101 -0.1790
  524MOL0     H70720   3.309   1.366   4.802 -0.0018  0.6961 -1.6388
  524MOL0     H70721   3.492   1.460   4.686 -2.3500  0.5912  1.8511
  524MOL0     H70722   4.028   1.497   4.716  4.8772 -1.0407 -0.0216
  524MOL0     H70723   4.190   1.622   4.589  1.3801 -2.4386  2.4550
  524MOL0     H70724   4.745   0.580   4.102  3.9319  0.6487  0.1844
  524MOL0     H70725   4.588   0.509   4.276 -2.1138  2.6436 -3.5341
  524MOL0     H70726   4.399   0.692   4.662 -0.3339 -0.2904  1.0084
  524MOL0     H70727   4.197   0.686   4.777 -2.2021 -1.1603 -3.6635
  524MOL0     H70728   3.955   0.420   5.047  0.6677 -0.2018  0.5309
  524MOL0     H70729   4.099   0.340   5.017  1.9287  0.2017 -1.8630
  524MOL0     H70730   4.003   0.228   4.824 -0.0279 -2.3080  1.1775
  524MOL0     H70731   3.860   0.328   4.824 -1.9397 -2.9063 -1.0316
  524MOL0     H70732   3.798   0.232   5.035  2.1695  0.3169  2.6506
  524MOL0     H70733   3.940   0.134   5.041 -1.0518  2.5662  2.4810
  524MOL0     H70734   3.746  -0.002   4.974  0.5108 -1.3891 -1.1323
  524MOL0     H70735   3.733   0.101   4.828 -0.6796 -2.4286 -0.7998
  524MOL0     H70736   4.035  -0.163   4.705  2.0863  2.9432  0.4424
  524MOL0     H70737   4.210   0.264   4.810 -1.0893  1.5169  1.9405
  524MOL0     H70738   4.397   0.160   4.750 -2.0629  0.4400 -0.1110
  524MOL0     H70739   4.386   0.186   4.573  0.0567  2.4162 -0.8115
  524MOL0     H70740   4.531   0.230   4.679 -0.1889 -1.1327  0.8427
  525MOL0     O70741   2.276   2.212   0.381  0.2129  0.0275  0.3079
  525MOL0     C70742   2.267   2.275   0.489  0.8320  0.1127  0.2996
  525MOL0     O70743   2.181   2.250   0.588 -0.0310 -0.9173 -0.7608
  525MOL0     C70744   2.087   2.160   0.590 -1.3326  0.3300  0.2069
  525MOL0     C70745   2.078   2.043   0.511 -0.5244  0.3435 -0.1285
  525MOL0     C70746   1.971   1.950   0.527  0.3695  0.3063 -0.5773
  525MOL0     C70747   1.882   1.964   0.633 -0.5837 -0.5026  0.0449
  525MOL0     O70748   1.782   1.875   0.659  0.0082  0.0610  0.0233
  525MOL0     C70749   1.722   1.816   0.548  0.4336  0.9574  0.7474
  525MOL0     C70750   1.631   1.691   0.592  0.1677 -0.2877 -0.0101
  525MOL0     C70751   1.495   1.742   0.635 -0.7473 -0.7945  0.3370
  525MOL0     C70752   1.512   1.779   0.782 -0.7468 -0.3991 -0.7300
  525MOL0     C70753   1.375   1.779   0.846  0.1723  0.5815 -0.8581
  525MOL0     C70754   1.318   1.634   0.877 -0.6208 -0.8939  0.4855
  525MOL0     C70755   1.192   1.636   0.970 -0.1142 -0.6589 -0.0567
  525MOL0     C70756   1.083   1.713   0.903 -0.0618  1.2057  0.2490
  525MOL0     N70757   0.967   1.692   0.995 -0.2039 -0.1167 -0.4388
  525MOL0     C70758   0.838   1.642   0.976 -0.0229  0.3910 -0.3708
  525MOL0     C70759   0.770   1.685   1.080  0.1170 -0.1593  0.4943
  525MOL0     C70760   0.629   1.659   1.113  0.0689  0.8157  0.2687
  525MOL0     C70761   0.556   1.768   1.189  0.1359  0.3435 -0.0101
  525MOL0     C70762   0.400   1.741   1.184 -0.0830  0.1130  0.1730
  525MOL0     C70763   0.310   1.827   1.272 -0.3741  1.0187 -0.1401
  525MOL0     O70764   0.327   1.967   1.251  0.1597  0.9662  0.3275
  525MOL0     C70765   0.252   2.018   1.142 -0.3762 -0.3045 -0.6164
  525MOL0     C70766   0.162   1.958   1.061  0.6686  0.0292  0.1286
  525MOL0     C70767   0.114   2.014   0.943 -0.0858  0.4125  0.1466
  525MOL0     C70768   0.142   2.151   0.919 -0.4174 -1.2244  0.6435
  525MOL0     C70769   0.098   2.206   0.788 -0.1028 -0.4467 -0.5146
  525MOL0     O70770   0.083   2.341   0.787 -0.0772 -0.1656  0.6159
  525MOL0     C70771   0.083   2.397   0.659  0.4989 -0.2819  0.1492
  525MOL0     C70772  -0.030   2.409   0.583  0.9613  0.0199 -0.2141
  525MOL0     C70773  -0.034   2.466   0.451 -0.5061 -0.2976 -0.3750
  525MOL0     C70774   0.098   2.503   0.397  0.3792 -0.4622 -0.1171
  525MOL0     O70775   0.114   2.555   0.266 -0.2361 -0.4331  0.9546
  525MOL0     C70776   0.003   2.631   0.203  0.0959  0.7566 -0.5689
  525MOL0     C70777   0.009   2.771   0.250  0.1298 -0.3028 -0.4696
  525MOL0     C70778   0.103   2.854   0.152 -0.8779  0.6442  0.8576
  525MOL0     C70779   0.027   2.940   0.054 -1.1271  0.6987 -0.3815
  525MOL0     C70780   0.115   3.042  -0.007  0.1614 -0.1713  0.0742
  525MOL0     C70781   0.032   3.118  -0.119 -0.2255 -0.1301 -0.4269
  525MOL0     C70782   0.108   3.234  -0.198  0.9835 -0.4093 -1.1498
  525MOL0     C70783   0.015   3.346  -0.251 -0.1690 -0.5633 -0.3496
  525MOL0    Cl70784  -0.028   3.452  -0.106 -0.1414  0.0960  0.0383
  525MOL0     C70785   0.208   2.477   0.471 -0.6418 -0.8664  0.3578
  525MOL0     C70786   0.205   2.426   0.601 -0.5761 -0.3295  0.1256
  525MOL0     O70787   0.099   2.136   0.690 -0.6407 -0.2214  0.0373
  525MOL0     C70788   0.229   2.225   1.006  0.3757  0.0000 -0.1666
  525MOL0     C70789   0.293   2.151   1.110 -0.4936 -0.4816  0.7384
  525MOL0     N70790   0.853   1.751   1.170 -0.0092  0.8344 -0.4396
  525MOL0     N70791   0.970   1.754   1.122 -0.3045  0.8798 -0.5932
  525MOL0     C70792   1.898   2.068   0.720 -0.2197  0.0354 -0.4073
  525MOL0     C70793   1.997   2.165   0.694  0.2025 -0.0354 -0.7298
  525MOL0     C70794   2.368   2.372   0.520 -0.1891 -0.4379  1.1703
  525MOL0     C70795   2.427   2.368   0.647 -0.1876 -0.0659  0.1534
  525MOL0     C70796   2.546   2.441   0.668 -0.3200 -0.4943  0.1094
  525MOL0     C70797   2.604   2.523   0.575  0.3701  0.1691 -0.0670
  525MOL0     O70798   2.717   2.582   0.617  0.4792 -0.0593 -0.7657
  525MOL0     C70799   2.766   2.691   0.540 -0.4525 -0.3507 -0.0785
  525MOL0     C70800   2.886   2.752   0.606 -0.5218  0.1194 -0.0596
  525MOL0     C70801   2.993   2.646   0.643 -0.2845  0.0830 -0.1446
  525MOL0     C70802   3.126   2.731   0.656  0.3861  0.5750  0.0286
  525MOL0     C70803   3.149   2.787   0.789  0.7054  0.4610  0.6722
  525MOL0     C70804   3.150   2.841   0.902 -0.3380  0.9382  0.6498
  525MOL0     C70805   2.538   2.540   0.449  0.3950 -0.7016  0.1837
  525MOL0     C70806   2.420   2.469   0.417  0.7402  0.2057  0.5814
  525MOL0     C70807   2.362   2.485   0.278 -0.3587 -0.0032 -0.1814
  525MOL0     H70808   2.153   2.014   0.438 -0.8710  0.0637 -0.3739
  525MOL0     H70809   1.981   1.865   0.461  2.6254  1.1970 -1.4796
  525MOL0     H70810   1.661   1.890   0.494  0.3632 -0.5659 -1.4193
  525MOL0     H70811   1.799   1.765   0.490 -0.4126 -1.1096  1.3557
  525MOL0     H70812   1.678   1.632   0.671  2.0302 -0.8509 -1.4582
  525MOL0     H70813   1.614   1.620   0.510 -1.7747  1.2277 -1.0053
  525MOL0     H70814   1.410   1.674   0.626 -1.5630  0.1394  0.7548
  525MOL0     H70815   1.478   1.831   0.574  0.6883 -0.1472  0.8453
  525MOL0     H70816   1.575   1.700   0.823  0.3865  1.6719  1.8087
  525MOL0     H70817   1.562   1.876   0.786  2.1546 -1.8100 -0.1527
  525MOL0     H70818   1.384   1.825   0.945 -4.4468  0.5845 -0.2045
  525MOL0     H70819   1.317   1.841   0.777 -0.9335  0.4571 -0.0716
  525MOL0     H70820   1.290   1.582   0.785  0.5888 -1.9823  0.7037
  525MOL0     H70821   1.400   1.584   0.929 -0.4591 -0.8151  0.3046
  525MOL0     H70822   1.222   1.696   1.056 -1.3715  0.1145 -0.1358
  525MOL0     H70823   1.154   1.546   1.019  0.5563 -0.7460  0.3155
  525MOL0     H70824   1.113   1.818   0.904  2.1471  0.7116  3.7674
  525MOL0     H70825   1.066   1.673   0.803  1.3372 -0.4290  0.6101
  525MOL0     H70826   0.791   1.593   0.892 -1.1860 -1.1396  1.1086
  525MOL0     H70827   0.569   1.658   1.021 -0.4890  2.4769  0.5895
  525MOL0     H70828   0.617   1.557   1.150  0.4092  0.6860  0.0264
  525MOL0     H70829   0.591   1.774   1.293  1.1363  0.8916 -0.3641
  525MOL0     H70830   0.580   1.866   1.146 -0.7439  1.0207  0.9985
  525MOL0     H70831   0.385   1.642   1.228  0.6633  0.3356  0.9461
  525MOL0     H70832   0.366   1.734   1.080 -1.3964 -3.2618  0.7048
  525MOL0     H70833   0.338   1.814   1.377  0.4493  0.3317 -0.4254
  525MOL0     H70834   0.204   1.800   1.277  0.0805 -0.6900  2.3547
  525MOL0     H70835   0.132   1.855   1.075  1.1224 -0.0180  0.8410
  525MOL0     H70836   0.045   1.953   0.886 -1.6344 -0.4414  2.7565
  525MOL0     H70837  -0.122   2.372   0.627  0.9916 -0.1560 -0.2952
  525MOL0     H70838  -0.125   2.444   0.396 -1.5962 -3.2092  2.2967
  525MOL0     H70839   0.018   2.619   0.095  1.9512  1.4802 -0.4349
  525MOL0     H70840  -0.095   2.594   0.235  0.4968  0.2926  0.1587
  525MOL0     H70841  -0.094   2.806   0.259  0.3790 -0.1277  3.5131
  525MOL0     H70842   0.060   2.768   0.347  0.1612  0.5266 -0.4535
  525MOL0     H70843   0.174   2.916   0.208  0.9472 -1.6775  1.2375
  525MOL0     H70844   0.162   2.790   0.086 -5.3492 -1.0321 -1.9717
  525MOL0     H70845  -0.053   2.994   0.106 -1.1258  0.7706 -0.4543
  525MOL0     H70846  -0.025   2.883  -0.024 -1.9030  0.6003  0.1899
  525MOL0     H70847   0.213   3.015  -0.045  0.0389  1.3450 -1.4236
  525MOL0     H70848   0.133   3.122   0.065  2.1553 -2.3958  2.2307
  525MOL0     H70849  -0.014   3.052  -0.192  2.6668 -0.3675 -2.1916
  525MOL0     H70850  -0.050   3.170  -0.067  3.4054  2.1590  3.7433
  525MOL0     H70851   0.147   3.179  -0.284 -0.0185 -2.2712 -0.4512
  525MOL0     H70852   0.189   3.272  -0.136 -0.8587 -2.1690  2.6552
  525MOL0     H70853   0.080   3.394  -0.324 -0.2030  1.6870  1.0281
  525MOL0     H70854  -0.073   3.307  -0.303 -1.1854 -0.9802  1.5830
  525MOL0     H70855   0.305   2.499   0.427 -1.3545 -3.5417 -2.9352
  525MOL0     H70856   0.297   2.406   0.655 -1.6282 -2.6599  1.2081
  525MOL0     H70857   0.262   2.327   0.992  2.3151 -0.0127  3.1757
  525MOL0     H70858   0.359   2.202   1.179  1.0788 -1.2337 -0.1683
  525MOL0     H70859   1.857   2.064   0.821  0.5698 -0.3399 -0.0921
  525MOL0     H70860   2.028   2.244   0.762  0.6484  2.1663 -3.3140
  525MOL0     H70861   2.399   2.298   0.725  1.3465 -1.0745 -0.1384
  525MOL0     H70862   2.609   2.433   0.756  1.7185  0.4522 -1.1772
  525MOL0     H70863   2.692   2.771   0.536  0.9033  0.9843  0.6894
  525MOL0     H70864   2.806   2.657   0.444 -0.3321 -1.1887  0.2524
  525MOL0     H70865   2.848   2.805   0.693 -1.7036  0.5160 -0.7824
  525MOL0     H70866   2.926   2.826   0.536 -2.2865  1.4657  0.2901
  525MOL0     H70867   3.002   2.589   0.550  0.8653  2.7483 -1.7877
  525MOL0     H70868   2.972   2.587   0.732  0.9306  1.9865  1.4751
  525MOL0     H70869   3.216   2.672   0.634  0.7062  1.1010 -0.0978
  525MOL0     H70870   3.136   2.811   0.582  0.4341  4.2432  3.6713
  525MOL0     H70871   3.162   2.875   1.003  0.3701 -1.3691  1.4020
  525MOL0     H70872   2.577   2.605   0.371  0.6201 -0.7552  0.2491
  525MOL0     H70873   2.277   2.553   0.289  2.1244  3.3410 -0.0641
  525MOL0     H70874   2.429   2.519   0.199 -0.9404  1.5782 -0.0306
  525MOL0     H70875   2.316   2.398   0.232  0.0042  0.3574 -1.2589
  526MOL0     O70876   5.809   6.476  11.156  0.4889 -0.8632  0.2933
  526MOL0     C70877   5.925   6.500  11.182  0.5625  1.0311 -0.1476
  526MOL0     O70878   6.015   6.550  11.093 -0.1644 -0.5525  0.3033
  526MOL0     C70879   5.980   6.569  10.960 -0.4983  0.2496  0.6440
  526MOL0     C70880   6.020   6.683  10.890  0.4305  0.0382 -0.4205
  526MOL0     C70881   5.986   6.694  10.755 -0.5699 -0.1734 -1.0562
  526MOL0     C70882   5.919   6.589  10.687  0.0089  0.3196  0.5629
  526MOL0     O70883   5.882   6.606  10.552 -0.0821  0.3722 -0.4834
  526MOL0     C70884   5.790   6.502  10.492 -0.3520 -0.1097  0.1344
  526MOL0     C70885   5.751   6.550  10.350  0.0042 -0.7086 -0.1880
  526MOL0     C70886   5.719   6.704  10.329  0.0660  0.0211  0.1025
  526MOL0     C70887   5.678   6.757  10.189 -1.1449  0.7852 -0.4496
  526MOL0     C70888   5.668   6.906  10.191 -0.4537  0.5712 -0.8254
  526MOL0     C70889   5.565   6.972  10.096 -0.7874  0.4297 -0.8677
  526MOL0     C70890   5.451   7.040  10.158 -0.5140  0.0791 -0.0511
  526MOL0     C70891   5.316   7.051  10.070 -0.1522 -0.6925  1.0876
  526MOL0     N70892   5.323   7.163   9.982 -0.1276  0.4706  0.0817
  526MOL0     C70893   5.350   7.288  10.021 -0.4888 -0.3698 -0.4159
  526MOL0     C70894   5.372   7.355   9.901 -0.3372 -0.3305  0.1878
  526MOL0     C70895   5.367   7.498   9.888  0.4471  0.0177 -0.4663
  526MOL0     C70896   5.516   7.560   9.892 -0.2821  0.4306  0.5816
  526MOL0     C70897   5.510   7.712   9.877 -0.9332 -0.1686  0.4107
  526MOL0     C70898   5.636   7.795   9.849  1.1638 -0.9375 -0.9305
  526MOL0     O70899   5.750   7.725   9.891 -0.0404 -0.5882 -0.2148
  526MOL0     C70900   5.858   7.804   9.931  0.0773 -0.7656  0.3340
  526MOL0     C70901   5.930   7.756  10.032  0.2792 -0.5740 -0.5526
  526MOL0     C70902   6.033   7.837  10.089  0.0134  0.0722 -0.1804
  526MOL0     C70903   6.066   7.969  10.038  0.4204 -0.0186 -0.3829
  526MOL0     C70904   6.184   8.048  10.096 -0.1671 -0.1361 -0.3236
  526MOL0     O70905   6.189   8.185  10.059 -0.0466 -0.4587  0.6140
  526MOL0     C70906   6.307   8.252  10.101 -0.1487 -0.2800 -0.1182
  526MOL0     C70907   6.428   8.259  10.019  0.3177 -0.6656 -0.6451
  526MOL0     C70908   6.533   8.344  10.053 -0.7898 -0.6232 -0.0720
  526MOL0     C70909   6.520   8.418  10.176  0.1226 -0.5622  0.5426
  526MOL0     O70910   6.608   8.513  10.222  0.7184 -0.7883  0.5044
  526MOL0     C70911   6.692   8.597  10.135  0.5596 -0.1682 -0.4615
  526MOL0     C70912   6.836   8.555  10.158  0.6185 -0.9297 -0.1581
  526MOL0     C70913   6.935   8.672  10.109 -0.5186  0.3822 -0.1790
  526MOL0     C70914   7.081   8.621  10.130 -0.1498 -0.6950 -0.4905
  526MOL0     C70915   7.182   8.732  10.091  0.1500 -0.0763 -0.2961
  526MOL0     C70916   7.192   8.755   9.937  0.1697  0.2256 -0.6986
  526MOL0     C70917   7.284   8.874   9.904  0.5314  0.0713 -0.0187
  526MOL0     C70918   7.346   8.860   9.769 -1.2005 -0.0330 -0.0339
  526MOL0    Cl70919   7.458   8.714   9.761  0.0539  0.3989 -0.3150
  526MOL0     C70920   6.408   8.399  10.259 -0.6727  0.3796 -0.1533
  526MOL0     C70921   6.299   8.320  10.219 -0.2631  0.6464 -0.6984
  526MOL0     O70922   6.265   7.993  10.174 -0.0100  0.7673  0.2264
  526MOL0     C70923   5.985   8.013   9.934  0.7287 -0.2344  0.7960
  526MOL0     C70924   5.888   7.929   9.874  0.2629 -0.4431  0.4520
  526MOL0     N70925   5.371   7.265   9.802 -0.0279  0.0645  0.4839
  526MOL0     N70926   5.341   7.142   9.848  0.0025 -1.2629  0.9079
  526MOL0     C70927   5.887   6.479  10.763 -0.0320  0.6177 -0.7881
  526MOL0     C70928   5.912   6.468  10.898 -0.9177  0.4773 -0.4335
  526MOL0     C70929   5.965   6.477  11.316 -0.2707  0.5354  0.5180
  526MOL0     C70930   6.075   6.542  11.354 -0.6454  0.1329 -0.8751
  526MOL0     C70931   6.125   6.534  11.490  0.3761  0.2497  1.0928
  526MOL0     C70932   6.066   6.452  11.582  0.1094 -0.0265  0.3746
  526MOL0     O70933   6.104   6.433  11.715 -0.3688  0.8426 -0.0834
  526MOL0     C70934   6.240   6.458  11.749 -0.1945 -0.0687  0.4209
  526MOL0     C70935   6.286   6.392  11.887 -0.4630 -0.2391 -1.2860
  526MOL0     C70936   6.272   6.240  11.887 -0.2721 -0.0978 -0.0202
  526MOL0     C70937   6.332   6.182  12.017  0.0857  1.4493 -0.4496
  526MOL0     C70938   6.270   6.209  12.143  0.3714  0.3646 -0.6319
  526MOL0     C70939   6.218   6.251  12.244 -0.3215 -0.2082  0.6270
  526MOL0     C70940   5.961   6.375  11.535 -0.6219 -0.1107 -0.4573
  526MOL0     C70941   5.902   6.390  11.413 -0.1131 -0.2527  0.6788
  526MOL0     C70942   5.766   6.320  11.394  0.5910  0.5901  0.0712
  526MOL0     H70943   6.074   6.760  10.945  0.9109 -1.2399  0.9868
  526MOL0     H70944   6.027   6.771  10.691 -2.0199  2.2791  0.8118
  526MOL0     H70945   5.844   6.407  10.492 -0.7609 -0.3491 -0.1523
  526MOL0     H70946   5.695   6.493  10.547  0.1629 -2.6214  0.7738
  526MOL0     H70947   5.662   6.500  10.311 -1.7072  1.5662  0.6598
  526MOL0     H70948   5.825   6.525  10.273 -1.2678  2.0696 -2.4903
  526MOL0     H70949   5.817   6.750  10.347 -0.4221  1.6862 -1.3116
  526MOL0     H70950   5.646   6.739  10.402  1.5643  2.8836  0.3554
  526MOL0     H70951   5.762   6.734  10.123  1.7530  0.9313  2.8770
  526MOL0     H70952   5.585   6.709  10.157 -1.1238  0.0579  0.5428
  526MOL0     H70953   5.646   6.934  10.294  0.8816 -0.7415 -0.1429
  526MOL0     H70954   5.766   6.943  10.161  0.5993 -2.1790 -1.0386
  526MOL0     H70955   5.610   7.049  10.032  3.3340 -1.8185 -0.9899
  526MOL0     H70956   5.543   6.899  10.018 -0.1088 -1.4863  0.6669
  526MOL0     H70957   5.468   7.143  10.191 -1.6038 -0.3456  1.9947
  526MOL0     H70958   5.421   6.988  10.250  1.1427  0.7222  0.8917
  526MOL0     H70959   5.307   6.959  10.011 -0.7150  0.8655 -1.4150
  526MOL0     H70960   5.226   7.062  10.131 -0.7114 -1.5185  0.4464
  526MOL0     H70961   5.340   7.335  10.118  2.3020  0.0055 -0.2124
  526MOL0     H70962   5.306   7.536   9.806  0.5582 -0.1189 -0.6160
  526MOL0     H70963   5.318   7.541   9.975 -1.7895 -0.6501 -1.3348
  526MOL0     H70964   5.556   7.540   9.992 -0.2430 -2.0718  0.1145
  526MOL0     H70965   5.570   7.526   9.804 -3.0849  1.7006 -1.8063
  526MOL0     H70966   5.471   7.746   9.973  0.2700  2.6655  0.0082
  526MOL0     H70967   5.432   7.724   9.802  0.8349  0.5489 -1.4253
  526MOL0     H70968   5.624   7.890   9.902  0.1469 -2.1705  1.1960
  526MOL0     H70969   5.641   7.806   9.740 -0.3603  2.3957 -0.8069
  526MOL0     H70970   5.895   7.661  10.072 -0.0396 -0.3682 -0.3454
  526MOL0     H70971   6.072   7.804  10.185  0.6874  2.4449  0.4263
  526MOL0     H70972   6.434   8.201   9.928  2.4194 -1.1145 -0.2634
  526MOL0     H70973   6.621   8.343   9.989 -0.3739 -1.0901  0.4980
  526MOL0     H70974   6.663   8.595  10.030 -3.9239 -3.0022  0.5701
  526MOL0     H70975   6.683   8.695  10.183 -3.6044 -1.3934  1.7317
  526MOL0     H70976   6.854   8.539  10.264 -1.3212 -3.5221 -0.1230
  526MOL0     H70977   6.853   8.460  10.106  2.1622 -1.0797  0.5756
  526MOL0     H70978   6.918   8.716  10.010  1.5874  2.4713  0.2873
  526MOL0     H70979   6.916   8.750  10.184 -1.2935  1.2370 -1.2317
  526MOL0     H70980   7.095   8.523  10.084 -1.6558 -1.1572 -0.0239
  526MOL0     H70981   7.101   8.610  10.237  0.5088 -0.1899 -0.5600
  526MOL0     H70982   7.283   8.696  10.110 -0.1530 -0.8131 -0.0595
  526MOL0     H70983   7.167   8.829  10.140 -2.1726 -1.9342  3.0837
  526MOL0     H70984   7.230   8.657   9.906 -3.4296 -1.6730  0.3479
  526MOL0     H70985   7.099   8.772   9.882 -0.9659  1.4764  1.4836
  526MOL0     H70986   7.360   8.895   9.981  0.5248 -0.5839  0.1708
  526MOL0     H70987   7.217   8.960   9.895 -0.9020 -1.0291 -0.0726
  526MOL0     H70988   7.271   8.865   9.690 -0.4846  3.3351 -0.6594
  526MOL0     H70989   7.406   8.950   9.754 -2.6985  1.0904  0.5136
  526MOL0     H70990   6.404   8.443  10.359 -4.2042  3.5539 -1.4487
  526MOL0     H70991   6.212   8.304  10.282  1.2101  0.7796  1.4777
  526MOL0     H70992   6.018   8.107   9.890 -1.6944 -0.6224 -2.1717
  526MOL0     H70993   5.838   7.975   9.789 -0.0113  1.1170  1.4163
  526MOL0     H70994   5.831   6.398  10.718 -2.0926  0.2277  2.2001
  526MOL0     H70995   5.896   6.375  10.953  0.9282  1.1187  1.2909
  526MOL0     H70996   6.126   6.608  11.285  2.6743  0.0745  1.3016
  526MOL0     H70997   6.215   6.594  11.498  1.1115 -0.1224 -2.5701
  526MOL0     H70998   6.257   6.565  11.758  2.7109 -0.4639  0.4874
  526MOL0     H70999   6.315   6.428  11.675 -0.0234  0.2403  0.4694
  526MOL0     H71000   6.237   6.437  11.973  0.8560  0.5594 -0.9236
  526MOL0     H71001   6.392   6.420  11.897 -1.3468  3.3816 -0.5382
  526MOL0     H71002   6.335   6.198  11.809  2.8239  0.6000  1.9284
  526MOL0     H71003   6.169   6.210  11.863 -0.9162  0.1591  2.1577
  526MOL0     H71004   6.352   6.076  12.000  2.0260  2.0529 -2.3808
  526MOL0     H71005   6.436   6.214  12.029  0.3205  0.1785  1.1324
  526MOL0     H71006   6.181   6.310  12.326  0.1048 -0.0217  0.6906
  526MOL0     H71007   5.922   6.305  11.607  1.0523 -1.2798 -0.6328
  526MOL0     H71008   5.733   6.264  11.482  1.6299 -0.3064 -0.0791
  526MOL0     H71009   5.684   6.385  11.362 -1.9661 -1.7170  1.5453
  526MOL0     H71010   5.779   6.253  11.309 -1.9144 -0.5824  0.5432
  527MOL0     O71011   3.107   1.606   3.714 -0.4618  0.3698 -0.0000
  527MOL0     C71012   3.162   1.719   3.703 -0.2997 -0.7179 -0.4254
  527MOL0     O71013   3.103   1.830   3.650  0.1500 -0.0454 -0.4845
  527MOL0     C71014   2.963   1.836   3.650  0.3095 -0.6016 -0.5079
  527MOL0     C71015   2.886   1.830   3.535 -0.0225 -0.4534 -0.4402
  527MOL0     C71016   2.750   1.858   3.539  0.2451 -1.1077 -0.5718
  527MOL0     C71017   2.683   1.883   3.657 -0.0343 -0.1706 -0.9712
  527MOL0     O71018   2.558   1.918   3.649  0.0508 -0.5178 -0.6815
  527MOL0     C71019   2.444   1.828   3.611  0.2316 -0.3609  0.8355
  527MOL0     C71020   2.386   1.747   3.728 -0.5486 -0.2608  0.3556
  527MOL0     C71021   2.297   1.643   3.665 -0.3390  0.1048 -0.8971
  527MOL0     C71022   2.282   1.512   3.742  0.8973  0.7279  0.8599
  527MOL0     C71023   2.274   1.385   3.645 -0.1435 -0.0035  0.2018
  527MOL0     C71024   2.415   1.347   3.591  0.1826  0.2801 -0.6319
  527MOL0     C71025   2.398   1.213   3.522 -0.2079 -0.2541 -0.0869
  527MOL0     C71026   2.535   1.185   3.446  0.5108 -0.2150 -0.1070
  527MOL0     N71027   2.534   1.065   3.362  0.3407  0.2223 -0.2605
  527MOL0     C71028   2.527   1.062   3.220  0.5902  1.0223  0.0865
  527MOL0     C71029   2.493   0.930   3.191 -0.0604  0.2205 -0.2775
  527MOL0     C71030   2.487   0.860   3.065 -0.0267  0.2757 -0.0529
  527MOL0     C71031   2.357   0.855   2.981  0.5753  0.9075 -0.4540
  527MOL0     C71032   2.363   0.762   2.861  0.1726  0.5116 -0.1253
  527MOL0     C71033   2.224   0.784   2.786  0.6206  0.3223 -0.0705
  527MOL0     O71034   2.237   0.908   2.705 -0.3354  0.4185 -0.0688
  527MOL0     C71035   2.181   0.900   2.578 -0.1354 -0.0729 -0.1035
  527MOL0     C71036   2.048   0.931   2.550 -0.5967 -0.0161 -0.4954
  527MOL0     C71037   1.999   0.915   2.421 -0.0727  0.0138 -0.4673
  527MOL0     C71038   2.083   0.879   2.314  0.6052 -0.2194  0.4118
  527MOL0     C71039   2.025   0.842   2.185  0.3762  0.7750 -0.1697
  527MOL0     O71040   1.886   0.856   2.162  0.3593  1.2566 -0.1832
  527MOL0     C71041   1.831   0.791   2.048 -0.2363 -0.3355 -1.2105
  527MOL0     C71042   1.841   0.649   2.040 -0.2196 -0.2190 -0.2906
  527MOL0     C71043   1.781   0.585   1.935  1.0665 -0.6685 -0.1082
  527MOL0     C71044   1.709   0.652   1.825  0.6346  0.4586 -0.5026
  527MOL0     O71045   1.649   0.589   1.716 -0.0328 -0.1470 -0.5327
  527MOL0     C71046   1.711   0.477   1.655 -0.7427  0.5778 -0.8958
  527MOL0     C71047   1.642   0.426   1.529  0.4235  0.1811 -1.6726
  527MOL0     C71048   1.515   0.365   1.573  0.6569 -0.4236  0.2810
  527MOL0     C71049   1.513   0.236   1.662 -0.9657  0.6698 -0.0788
  527MOL0     C71050   1.371   0.205   1.702  0.1150  0.4613 -0.4215
  527MOL0     C71051   1.350   0.056   1.749  0.6288 -0.8780 -0.0366
  527MOL0     C71052   1.195   0.012   1.723 -1.2830  0.0745 -0.1635
  527MOL0     C71053   1.100   0.033   1.837  0.2591 -0.5441 -0.1074
  527MOL0    Cl71054   1.077   0.209   1.866 -0.1025  0.1751  0.2341
  527MOL0     C71055   1.720   0.793   1.829  0.0086  0.5318 -0.1956
  527MOL0     C71056   1.781   0.862   1.935 -0.2459 -1.5138  0.7640
  527MOL0     O71057   2.108   0.786   2.109 -0.6128 -0.3902 -0.6116
  527MOL0     C71058   2.218   0.847   2.338 -0.0006 -1.2443 -0.2601
  527MOL0     C71059   2.265   0.870   2.467  0.6770  0.5482 -0.1725
  527MOL0     N71060   2.486   0.853   3.306 -0.2036  0.1901 -0.2354
  527MOL0     N71061   2.504   0.939   3.407 -0.0417 -0.4216  0.0439
  527MOL0     C71062   2.753   1.881   3.776  0.2160 -0.9334 -0.5656
  527MOL0     C71063   2.892   1.852   3.772 -0.0445  0.2073 -0.7677
  527MOL0     C71064   3.307   1.718   3.707  0.3482 -1.1671 -0.0735
  527MOL0     C71065   3.373   1.662   3.820  0.2226 -0.6201  0.1983
  527MOL0     C71066   3.509   1.642   3.825  0.2161 -0.5060 -0.3029
  527MOL0     C71067   3.591   1.684   3.721 -0.1886  0.2620  0.0815
  527MOL0     O71068   3.723   1.650   3.725 -0.1625 -0.2888  0.4040
  527MOL0     C71069   3.817   1.735   3.666 -0.0166 -0.6158 -0.0761
  527MOL0     C71070   3.861   1.673   3.529  0.0086 -0.5054  0.3203
  527MOL0     C71071   3.939   1.540   3.539  0.9353 -0.0305  1.2790
  527MOL0     C71072   3.997   1.501   3.398  0.8548 -1.2224  0.6267
  527MOL0     C71073   3.888   1.449   3.312  0.8360  0.9224  0.6135
  527MOL0     C71074   3.788   1.411   3.244 -0.6945 -0.1114  0.1737
  527MOL0     C71075   3.529   1.741   3.610  0.8174  0.3794 -0.1283
  527MOL0     C71076   3.392   1.752   3.598  0.4398 -0.3557  0.0879
  527MOL0     C71077   3.343   1.828   3.473 -0.2792 -0.3791 -0.5648
  527MOL0     H71078   2.931   1.792   3.444  1.6475 -0.2462  0.2580
  527MOL0     H71079   2.695   1.874   3.447  3.8401  0.9806 -2.5820
  527MOL0     H71080   2.353   1.872   3.568  0.0991  1.1022  2.4816
  527MOL0     H71081   2.487   1.764   3.534  2.1923  1.3755  0.3937
  527MOL0     H71082   2.328   1.818   3.787  1.7675  2.2317 -0.1804
  527MOL0     H71083   2.468   1.706   3.789  0.6783  0.9885 -0.3723
  527MOL0     H71084   2.317   1.627   3.559  3.3246 -2.2453 -0.0365
  527MOL0     H71085   2.199   1.691   3.672  0.2338  1.1623  0.6027
  527MOL0     H71086   2.354   1.489   3.822  1.2570 -1.9147 -0.1420
  527MOL0     H71087   2.186   1.512   3.795  0.2196  0.3022 -0.3434
  527MOL0     H71088   2.238   1.297   3.699 -0.5371 -1.4427 -2.2537
  527MOL0     H71089   2.211   1.398   3.556  3.2720  1.1392 -2.2978
  527MOL0     H71090   2.455   1.416   3.517 -1.2579  1.4626 -0.3519
  527MOL0     H71091   2.498   1.335   3.661  0.3817  0.3461 -0.8586
  527MOL0     H71092   2.315   1.230   3.452 -0.2185  0.2481  0.0485
  527MOL0     H71093   2.383   1.123   3.583  0.9938 -1.2512 -1.1958
  527MOL0     H71094   2.569   1.274   3.394 -0.5939  0.1524 -0.2214
  527MOL0     H71095   2.612   1.165   3.522 -0.3362 -3.6812  0.0437
  527MOL0     H71096   2.553   1.135   3.143  0.3039 -1.7480 -2.8604
  527MOL0     H71097   2.548   0.920   2.997 -2.8747  2.3127 -1.0062
  527MOL0     H71098   2.541   0.765   3.065  0.7801  0.6843 -1.8541
  527MOL0     H71099   2.276   0.808   3.038  0.9965 -1.0572 -1.3621
  527MOL0     H71100   2.331   0.953   2.941 -1.3597  0.6479  0.0790
  527MOL0     H71101   2.393   0.665   2.903  1.3376  1.0093  0.2041
  527MOL0     H71102   2.443   0.785   2.790 -2.1657  1.7465 -2.5357
  527MOL0     H71103   2.138   0.785   2.853 -0.8229 -0.2066 -1.8045
  527MOL0     H71104   2.195   0.699   2.722 -0.3830 -0.6472  1.6043
  527MOL0     H71105   1.991   0.953   2.640  0.0451 -2.6205  0.6320
  527MOL0     H71106   1.899   0.949   2.396  0.2390  1.5175  0.2010
  527MOL0     H71107   1.892   0.593   2.118  2.8415  0.6468 -1.5408
  527MOL0     H71108   1.782   0.476   1.932 -2.9240 -0.8414 -1.2526
  527MOL0     H71109   1.814   0.506   1.629 -0.0667 -2.0525 -1.4482
  527MOL0     H71110   1.726   0.395   1.726  1.9651  1.9252  0.2669
  527MOL0     H71111   1.614   0.509   1.463 -0.0857 -1.2812 -3.3809
  527MOL0     H71112   1.711   0.357   1.480  1.1068 -0.9716  0.7543
  527MOL0     H71113   1.455   0.437   1.630 -0.1516 -2.0955  1.6270
  527MOL0     H71114   1.461   0.330   1.485 -1.9684 -2.3381  2.4763
  527MOL0     H71115   1.581   0.251   1.747  1.0939 -4.5498 -0.3781
  527MOL0     H71116   1.559   0.158   1.601 -2.5929  0.1555 -0.6855
  527MOL0     H71117   1.300   0.231   1.622 -2.1841 -2.7036  0.3681
  527MOL0     H71118   1.348   0.282   1.775 -0.6507  0.5702 -0.7687
  527MOL0     H71119   1.424  -0.005   1.695  1.6619  0.2698  0.0340
  527MOL0     H71120   1.373   0.035   1.854  2.3593 -0.1034 -0.2292
  527MOL0     H71121   1.193  -0.091   1.688 -0.3148 -1.0489  2.7589
  527MOL0     H71122   1.163   0.066   1.634  3.2327 -2.4699 -3.8071
  527MOL0     H71123   1.001  -0.004   1.812 -0.4535  0.6385  0.8628
  527MOL0     H71124   1.135  -0.014   1.929  0.8538  1.1660  0.5903
  527MOL0     H71125   1.671   0.843   1.746 -0.8914 -2.4768 -1.6107
  527MOL0     H71126   1.788   0.970   1.927  1.5660 -1.6205  0.4943
  527MOL0     H71127   2.292   0.829   2.261 -0.9223 -0.1503 -1.4577
  527MOL0     H71128   2.372   0.856   2.486  0.7907  1.0360 -0.4529
  527MOL0     H71129   2.697   1.896   3.867  0.5050 -1.9463 -0.2053
  527MOL0     H71130   2.947   1.847   3.865 -2.2281 -1.6313  0.5491
  527MOL0     H71131   3.303   1.630   3.896  0.1773  3.4690  2.1725
  527MOL0     H71132   3.541   1.578   3.907  1.7206  0.6956  0.1104
  527MOL0     H71133   3.896   1.748   3.740 -0.7597  2.1431  0.3841
  527MOL0     H71134   3.774   1.835   3.650 -1.2366 -0.9683  0.8714
  527MOL0     H71135   3.929   1.747   3.488  0.0972 -1.2161 -0.8384
  527MOL0     H71136   3.779   1.645   3.462 -0.6374 -0.5952  1.1203
  527MOL0     H71137   3.876   1.456   3.568  0.0443  0.0275 -0.3627
  527MOL0     H71138   4.024   1.538   3.608  0.5797 -1.0305  1.7123
  527MOL0     H71139   4.042   1.588   3.349  0.9346 -1.2700  0.6164
  527MOL0     H71140   4.074   1.425   3.407  0.3114 -1.8211  0.3233
  527MOL0     H71141   3.714   1.377   3.175 -0.5053  0.1814 -0.1784
  527MOL0     H71142   3.591   1.772   3.526  1.9088 -0.3976  0.3677
  527MOL0     H71143   3.304   1.929   3.486 -1.6091 -0.7256 -1.6885
  527MOL0     H71144   3.422   1.836   3.397 -0.1609 -2.1555 -0.6596
  527MOL0     H71145   3.264   1.772   3.423 -1.3068  2.9951 -3.0930
  528MOL0     O71146  11.447   4.605  10.754  0.6661  0.7352  0.9939
  528MOL0     C71147  11.538   4.532  10.786 -0.8267  1.1145  0.0803
  528MOL0     O71148  11.574   4.423  10.716  0.4551  0.9474  0.0595
  528MOL0     C71149  11.516   4.392  10.597  0.1903 -0.5753 -0.4614
  528MOL0     C71150  11.446   4.272  10.575 -0.3731  0.0963 -1.0063
  528MOL0     C71151  11.389   4.249  10.454  0.4384  0.5922 -0.5206
  528MOL0     C71152  11.389   4.334  10.357  0.9085 -0.3098  1.1592
  528MOL0     O71153  11.319   4.299  10.240 -0.4946 -0.1513 -0.0386
  528MOL0     C71154  11.282   4.412  10.159  0.2668  0.0234  0.2296
  528MOL0     C71155  11.207   4.375  10.025 -0.2187  0.5659 -0.4454
  528MOL0     C71156  11.280   4.276   9.922 -0.2317 -0.9341 -0.4021
  528MOL0     C71157  11.181   4.242   9.808 -0.8784  0.7387 -0.0418
  528MOL0     C71158  11.245   4.151   9.705  0.3106  0.6163 -0.6595
  528MOL0     C71159  11.205   4.002   9.736  0.2019 -0.3657 -0.8750
  528MOL0     C71160  11.239   3.902   9.636 -0.0454  0.0223  0.0789
  528MOL0     C71161  11.149   3.779   9.670  0.0296 -0.7216 -0.0551
  528MOL0     N71162  11.178   3.677   9.575 -0.4298  0.5272 -0.2762
  528MOL0     C71163  11.144   3.709   9.452 -0.2017 -0.3920  0.4914
  528MOL0     C71164  11.193   3.606   9.385 -0.0511  0.0501  0.4995
  528MOL0     C71165  11.191   3.592   9.236 -0.1251 -0.3239  0.5558
  528MOL0     C71166  11.333   3.561   9.181  0.2526 -0.0025  0.6474
  528MOL0     C71167  11.329   3.439   9.087  0.3321 -0.7279  0.4470
  528MOL0     C71168  11.452   3.416   9.013  0.8951 -0.0435  0.0994
  528MOL0     O71169  11.454   3.281   8.945  0.9878 -0.2074 -0.6520
  528MOL0     C71170  11.375   3.268   8.837  0.0120 -0.1207  0.0090
  528MOL0     C71171  11.324   3.140   8.810 -0.2349 -0.5325  0.0741
  528MOL0     C71172  11.255   3.126   8.690  0.1111 -0.7408  0.6700
  528MOL0     C71173  11.224   3.231   8.596 -0.5590 -0.3210  0.0650
  528MOL0     C71174  11.150   3.205   8.481  0.1251  0.2668 -0.2828
  528MOL0     O71175  11.084   3.090   8.473  0.2504  0.3328  0.0709
  528MOL0     C71176  11.007   3.054   8.365  0.0407  0.7372 -0.6092
  528MOL0     C71177  11.014   2.917   8.343  0.4122  0.2589  0.0003
  528MOL0     C71178  10.953   2.859   8.225 -1.0288  0.2626 -0.6159
  528MOL0     C71179  10.882   2.940   8.144 -0.2275  0.4050 -0.1194
  528MOL0     O71180  10.809   2.894   8.042  0.4355 -0.1714  1.1909
  528MOL0     C71181  10.663   2.908   8.055 -0.2749  0.9265 -1.3144
  528MOL0     C71182  10.586   2.772   8.052  0.6522  0.7097  0.2307
  528MOL0     C71183  10.635   2.666   8.173 -0.8835 -0.2297  0.3021
  528MOL0     C71184  10.541   2.552   8.184 -0.9507 -0.2332 -0.2073
  528MOL0     C71185  10.584   2.457   8.284  0.4891 -0.2365 -1.3444
  528MOL0     C71186  10.481   2.347   8.309  0.4968  0.0964 -0.3025
  528MOL0     C71187  10.482   2.244   8.185  0.2534 -0.3992 -0.7399
  528MOL0     C71188  10.386   2.132   8.216  0.7693 -0.3754  0.6752
  528MOL0    Cl71189  10.409   2.045   8.366 -0.0948  0.1837  0.3109
  528MOL0     C71190  10.862   3.079   8.176 -0.5400  0.5749 -0.6068
  528MOL0     C71191  10.933   3.139   8.292  0.5888  0.1627  0.1240
  528MOL0     O71192  11.153   3.303   8.398  0.0620 -0.7317 -0.4243
  528MOL0     C71193  11.282   3.355   8.626  0.3919  0.5597  0.4291
  528MOL0     C71194  11.362   3.367   8.744  0.5218  0.2619  0.2114
  528MOL0     N71195  11.250   3.508   9.470  0.0742  0.4034 -0.0047
  528MOL0     N71196  11.241   3.554   9.585 -0.7931 -0.1146 -0.8025
  528MOL0     C71197  11.463   4.447  10.366 -0.8712  0.3301 -0.7582
  528MOL0     C71198  11.518   4.480  10.490  0.6281  1.1138 -0.3133
  528MOL0     C71199  11.633   4.573  10.898  1.3017 -0.3053 -0.0596
  528MOL0     C71200  11.743   4.492  10.914  0.7978  0.0479  0.1981
  528MOL0     C71201  11.842   4.524  11.005 -0.3608  0.4671  0.0774
  528MOL0     C71202  11.839   4.628  11.094  0.2330  0.4391  0.6123
  528MOL0     O71203  11.950   4.640  11.168 -0.4964  0.0159 -0.1715
  528MOL0     C71204  11.960   4.737  11.275  0.3241  0.0343  1.0642
  528MOL0     C71205  11.904   4.709  11.418  1.1631 -0.3146  0.5710
  528MOL0     C71206  11.954   4.809  11.522 -0.9417  0.6553  0.3337
  528MOL0     C71207  11.872   4.831  11.647 -0.3653  0.4872 -0.0951
  528MOL0     C71208  11.842   4.711  11.724  0.0725 -0.6449  0.0299
  528MOL0     C71209  11.817   4.606  11.779 -0.4571  0.1514 -0.9938
  528MOL0     C71210  11.721   4.701  11.094  0.1337 -0.4813 -0.4483
  528MOL0     C71211  11.615   4.675  11.000 -0.1825 -0.1882  0.3686
  528MOL0     C71212  11.495   4.750  11.020 -0.1261 -0.7245 -0.4299
  528MOL0     H71213  11.444   4.190  10.645  3.9219  1.4971  1.1582
  528MOL0     H71214  11.325   4.162  10.452  2.3033 -0.8735  0.6925
  528MOL0     H71215  11.232   4.488  10.220  1.8663  1.6692 -0.3908
  528MOL0     H71216  11.366   4.472  10.121 -0.9470 -0.0991 -2.9290
  528MOL0     H71217  11.194   4.472   9.977 -1.0410  0.6326 -0.1057
  528MOL0     H71218  11.104   4.352  10.051  0.0226  1.7344  1.7973
  528MOL0     H71219  11.321   4.188   9.971 -0.2822 -0.2235  0.9737
  528MOL0     H71220  11.364   4.328   9.874  0.0743 -0.1331  0.9352
  528MOL0     H71221  11.086   4.198   9.839 -1.1676 -0.0893 -1.9537
  528MOL0     H71222  11.149   4.326   9.745 -0.9521  0.9121  0.2209
  528MOL0     H71223  11.202   4.170   9.606 -0.0843  1.6807 -0.2902
  528MOL0     H71224  11.353   4.166   9.706  0.3791  0.4121 -2.1369
  528MOL0     H71225  11.251   3.977   9.832 -2.5379 -1.5285  0.2153
  528MOL0     H71226  11.097   4.003   9.750  0.5255  0.6545  2.5733
  528MOL0     H71227  11.348   3.891   9.635  0.1175  1.1048  1.7394
  528MOL0     H71228  11.213   3.948   9.540 -1.3934 -1.2489 -0.1964
  528MOL0     H71229  11.175   3.732   9.766  0.6150  0.3009  0.3019
  528MOL0     H71230  11.043   3.801   9.656  0.2396  2.8218  2.5517
  528MOL0     H71231  11.095   3.795   9.408  0.6056 -0.2186 -0.0837
  528MOL0     H71232  11.117   3.515   9.211 -1.7518  1.5380 -0.6461
  528MOL0     H71233  11.167   3.689   9.192 -0.4861 -0.4879  0.3869
  528MOL0     H71234  11.366   3.651   9.129 -1.4201  0.2331 -0.0815
  528MOL0     H71235  11.410   3.540   9.256  0.6188  0.7191  0.4809
  528MOL0     H71236  11.255   3.451   9.007 -1.1282  1.0050  1.9368
  528MOL0     H71237  11.293   3.353   9.144 -0.4080 -0.5705  0.2353
  528MOL0     H71238  11.534   3.404   9.084 -0.7582 -1.0706  1.9211
  528MOL0     H71239  11.489   3.485   8.937  0.2354 -1.2915 -1.4191
  528MOL0     H71240  11.351   3.057   8.874  2.5847  0.1487 -0.0982
  528MOL0     H71241  11.242   3.023   8.659  2.0218  0.0893 -3.5130
  528MOL0     H71242  11.070   2.850   8.408 -1.6832 -1.7027 -0.0824
  528MOL0     H71243  10.963   2.755   8.196 -4.4992 -0.9274  1.9080
  528MOL0     H71244  10.649   2.957   8.151  2.2909  1.1058 -0.9410
  528MOL0     H71245  10.632   2.970   7.970  1.4867  3.6560 -0.1103
  528MOL0     H71246  10.478   2.790   8.053  0.4310 -0.4685 -0.1680
  528MOL0     H71247  10.617   2.718   7.962 -1.2590  2.9336 -1.8913
  528MOL0     H71248  10.731   2.624   8.144 -0.8175 -0.1359  0.3855
  528MOL0     H71249  10.650   2.721   8.267  2.6880  0.8278 -0.7440
  528MOL0     H71250  10.528   2.499   8.089  0.5351 -2.8202  0.9202
  528MOL0     H71251  10.444   2.595   8.210 -1.0758 -1.8808  2.2702
  528MOL0     H71252  10.616   2.500   8.380  3.9942 -0.4766 -2.2445
  528MOL0     H71253  10.677   2.412   8.246  1.5459 -0.3836  1.2118
  528MOL0     H71254  10.519   2.295   8.398  3.8044  1.2947 -0.8760
  528MOL0     H71255  10.382   2.392   8.324 -0.1476 -1.6489  1.1697
  528MOL0     H71256  10.584   2.206   8.168  1.4147  1.9804  0.4374
  528MOL0     H71257  10.452   2.289   8.090 -3.4934 -1.3490 -0.1490
  528MOL0     H71258  10.288   2.180   8.209  0.7174 -0.3251  1.6246
  528MOL0     H71259  10.395   2.050   8.143 -1.4390  0.5756 -0.7560
  528MOL0     H71260  10.810   3.138   8.101  1.5439 -1.2523 -3.7666
  528MOL0     H71261  10.928   3.245   8.314  1.2989  0.4444 -1.0354
  528MOL0     H71262  11.282   3.439   8.558  1.3542  1.2111  1.2035
  528MOL0     H71263  11.437   3.444   8.755 -1.2995  2.1411  0.1459
  528MOL0     H71264  11.489   4.520  10.290  0.0212 -0.0472 -0.8275
  528MOL0     H71265  11.570   4.574  10.505 -0.5255  1.3205  3.3825
  528MOL0     H71266  11.756   4.394  10.869  0.5074 -1.8177  3.7891
  528MOL0     H71267  11.934   4.468  11.002  1.1756  2.6113  2.7345
  528MOL0     H71268  11.910   4.825  11.233  0.8659 -1.2963 -2.7659
  528MOL0     H71269  12.066   4.760  11.289 -0.2669  1.7230  3.5854
  528MOL0     H71270  11.938   4.610  11.450 -0.6043 -1.1308  0.0536
  528MOL0     H71271  11.795   4.709  11.419  1.1512  0.1115  2.3871
  528MOL0     H71272  11.964   4.910  11.480 -4.7625  0.2128 -2.1535
  528MOL0     H71273  12.055   4.773  11.544 -0.4476  1.2649 -0.8470
  528MOL0     H71274  11.938   4.894  11.707  3.0605  1.4634 -4.3213
  528MOL0     H71275  11.782   4.880  11.608  1.0361  1.7558 -1.8830
  528MOL0     H71276  11.813   4.520  11.842 -2.9461 -0.2573 -1.6060
  528MOL0     H71277  11.706   4.771  11.175  1.3142  0.8433 -1.3315
  528MOL0     H71278  11.493   4.776  11.126  2.0027  1.1150 -0.7479
  528MOL0     H71279  11.507   4.837  10.954 -5.2855  1.7503  1.3709
  528MOL0     H71280  11.404   4.698  10.990  0.4781 -0.8923 -2.0497
  529MOL0     O71281   4.439   9.627   3.048  0.1072 -0.0083 -0.9346
  529MOL0     C71282   4.468   9.511   3.009 -0.2933 -0.0790 -0.7231
  529MOL0     O71283   4.539   9.424   3.080  0.3067 -0.3486  0.2220
  529MOL0     C71284   4.587   9.474   3.198 -0.5202 -0.0231  0.3808
  529MOL0     C71285   4.695   9.559   3.213  0.9778  0.3198 -0.1515
  529MOL0     C71286   4.743   9.586   3.345 -0.0922 -0.6395  0.3899
  529MOL0     C71287   4.691   9.524   3.457  0.1300 -0.2030  1.3702
  529MOL0     O71288   4.725   9.545   3.591  0.0603  0.2284  0.3739
  529MOL0     C71289   4.759   9.679   3.626  0.0649 -1.7359  0.4627
  529MOL0     C71290   4.894   9.672   3.704 -0.2817 -0.2138 -0.1108
  529MOL0     C71291   4.902   9.800   3.796  0.4208  0.0011  0.1960
  529MOL0     C71292   4.983   9.756   3.930  0.1554  0.3668  1.5294
  529MOL0     C71293   5.007   9.869   4.017 -0.3637 -0.4327  0.2791
  529MOL0     C71294   4.883   9.962   4.037  1.1746  0.7829 -0.3580
  529MOL0     C71295   4.902  10.070   4.156  0.7741 -0.4949  0.6900
  529MOL0     C71296   4.765  10.119   4.220 -0.3955 -0.5696  1.3505
  529MOL0     N71297   4.736  10.233   4.132 -0.0982  0.2929  0.0010
  529MOL0     C71298   4.657  10.223   4.019  0.3742  0.1114 -0.8521
  529MOL0     C71299   4.645  10.344   3.969  0.3994  0.8961 -0.8243
  529MOL0     C71300   4.575  10.359   3.836 -0.0958  0.0091  0.3458
  529MOL0     C71301   4.442  10.436   3.856  0.8801  0.0703  0.1659
  529MOL0     C71302   4.379  10.457   3.723  0.4887  0.0482  0.2879
  529MOL0     C71303   4.234  10.505   3.746  1.4462  0.7919  0.0547
  529MOL0     O71304   4.194  10.572   3.623  0.3830  0.0392  0.1934
  529MOL0     C71305   4.063  10.549   3.570  0.3358 -1.2777 -0.3989
  529MOL0     C71306   3.949  10.509   3.651  0.2319  0.0639  0.6163
  529MOL0     C71307   3.824  10.503   3.594  0.6606  0.3578 -0.3532
  529MOL0     C71308   3.804  10.513   3.458 -0.0390 -0.5691  0.4788
  529MOL0     C71309   3.673  10.500   3.388 -0.3277  0.4359 -0.0937
  529MOL0     O71310   3.675  10.556   3.268 -0.2110  0.9452  0.1037
  529MOL0     C71311   3.569  10.557   3.185 -0.7067 -0.2322 -0.5481
  529MOL0     C71312   3.605  10.531   3.050  0.0535  0.4982  0.2321
  529MOL0     C71313   3.503  10.533   2.949 -0.4330 -0.2378 -0.4741
  529MOL0     C71314   3.362  10.542   2.980  0.0067 -0.3329 -0.1650
  529MOL0     O71315   3.255  10.541   2.897  0.1495 -0.4870  0.6315
  529MOL0     C71316   3.302  10.519   2.762  1.0118 -0.1516  0.0148
  529MOL0     C71317   3.192  10.541   2.660  0.6562  0.5333 -1.2714
  529MOL0     C71318   3.072  10.445   2.673 -0.8844 -0.9264  0.0352
  529MOL0     C71319   2.971  10.458   2.558  0.5236 -0.5827  0.2734
  529MOL0     C71320   3.031  10.376   2.443  0.1541  0.3082  0.1167
  529MOL0     C71321   3.013  10.228   2.453  0.1354  0.0064 -0.4715
  529MOL0     C71322   3.066  10.149   2.331 -0.5047  0.2422  1.0174
  529MOL0     C71323   3.111  10.008   2.368 -0.0546 -1.0867 -0.5374
  529MOL0    Cl71324   3.206   9.940   2.228  0.1763  0.4761  0.0479
  529MOL0     C71325   3.334  10.554   3.109 -0.8730  0.3109  0.4228
  529MOL0     C71326   3.426  10.560   3.216  0.2661  0.3580 -0.1673
  529MOL0     O71327   3.579  10.457   3.450  0.2608 -0.5184 -0.1339
  529MOL0     C71328   3.912  10.551   3.375 -0.7322  1.2616  0.2893
  529MOL0     C71329   4.037  10.576   3.431  1.0469 -0.1436 -0.2242
  529MOL0     N71330   4.710  10.436   4.054 -0.0162  0.4265 -0.2483
  529MOL0     N71331   4.762  10.374   4.148  0.7089  0.4869  0.4650
  529MOL0     C71332   4.588   9.434   3.437 -0.1474  0.3280 -0.1169
  529MOL0     C71333   4.536   9.414   3.311 -0.3716  0.2401 -0.5101
  529MOL0     C71334   4.422   9.469   2.875 -0.1340  0.0159  0.2620
  529MOL0     C71335   4.344   9.349   2.862 -0.1693 -0.2615 -0.0341
  529MOL0     C71336   4.321   9.296   2.738  0.1203 -0.1090  0.3250
  529MOL0     C71337   4.364   9.369   2.624  0.2933  0.3251 -0.6954
  529MOL0     O71338   4.331   9.313   2.501 -0.4061  0.0963  0.0515
  529MOL0     C71339   4.221   9.389   2.445  0.5762  0.8649 -0.6240
  529MOL0     C71340   4.152   9.290   2.350 -0.7209 -0.3299 -0.2159
  529MOL0     C71341   4.085   9.172   2.412 -0.6409  0.7942  0.6118
  529MOL0     C71342   4.180   9.061   2.472 -0.0041  0.4929  0.1766
  529MOL0     C71343   4.122   9.003   2.590  0.4641  0.0710  0.0213
  529MOL0     C71344   4.093   8.933   2.693 -0.3954 -0.2080  0.3845
  529MOL0     C71345   4.435   9.490   2.636 -0.0623  0.4504 -0.0523
  529MOL0     C71346   4.459   9.545   2.764  0.6015  0.0467  0.4763
  529MOL0     C71347   4.528   9.675   2.768 -0.6466 -1.3786  0.0472
  529MOL0     H71348   4.730   9.614   3.125 -3.2085  1.3536 -1.3779
  529MOL0     H71349   4.833   9.643   3.365  1.1960 -1.9212 -1.4488
  529MOL0     H71350   4.765   9.756   3.548  1.2792 -1.1081  1.1423
  529MOL0     H71351   4.680   9.712   3.693  1.1903 -1.1293  1.5238
  529MOL0     H71352   4.989   9.664   3.652  1.2333 -1.4653  2.5930
  529MOL0     H71353   4.892   9.578   3.760  1.9084 -0.9713 -1.2018
  529MOL0     H71354   4.803   9.840   3.821  1.7282  3.6828  0.0759
  529MOL0     H71355   4.965   9.871   3.741  0.0156  0.0775 -0.1788
  529MOL0     H71356   4.932   9.684   3.994  0.1770 -0.5516  0.5483
  529MOL0     H71357   5.079   9.713   3.903 -0.4004 -0.5759  1.0017
  529MOL0     H71358   5.041   9.818   4.108  1.9199 -0.7161 -0.6589
  529MOL0     H71359   5.097   9.917   3.977 -0.6443  1.0920  1.3713
  529MOL0     H71360   4.869  10.020   3.946  1.8837  0.0476 -0.9581
  529MOL0     H71361   4.793   9.902   4.055  2.1570 -0.6732 -0.0755
  529MOL0     H71362   4.953  10.152   4.105  4.1117 -1.1058  2.7804
  529MOL0     H71363   4.968  10.024   4.230  0.4250 -3.4216 -0.6582
  529MOL0     H71364   4.690  10.040   4.214 -0.0036 -1.0941  2.9012
  529MOL0     H71365   4.777  10.151   4.324  4.1395  1.0334  0.5628
  529MOL0     H71366   4.618  10.131   3.976 -2.2723  0.4162  0.7006
  529MOL0     H71367   4.645  10.413   3.771  0.2364  2.0331  2.2560
  529MOL0     H71368   4.562  10.267   3.779 -0.7180  0.2876  0.0328
  529MOL0     H71369   4.386  10.386   3.936 -1.2337 -0.9199 -1.8299
  529MOL0     H71370   4.476  10.537   3.884  2.1338 -0.4465  0.5921
  529MOL0     H71371   4.377  10.361   3.670  1.2880 -0.0844  0.4949
  529MOL0     H71372   4.445  10.521   3.663  1.1335  0.0952  1.0321
  529MOL0     H71373   4.221  10.574   3.830  0.3476 -0.9359  1.3771
  529MOL0     H71374   4.173  10.416   3.760  2.1905 -0.3418 -3.0306
  529MOL0     H71375   3.961  10.506   3.758 -1.6692  1.8226  0.9513
  529MOL0     H71376   3.738  10.491   3.660  1.1879 -0.1231  0.2683
  529MOL0     H71377   3.710  10.536   3.023 -0.4637 -1.2759 -2.6195
  529MOL0     H71378   3.543  10.526   2.848 -1.8079 -0.3121 -1.0273
  529MOL0     H71379   3.377  10.597   2.741 -0.3335  1.1941  0.0441
  529MOL0     H71380   3.342  10.418   2.761  2.4582  0.3354  2.2510
  529MOL0     H71381   3.151  10.642   2.666  0.8562  0.5617  0.0540
  529MOL0     H71382   3.230  10.533   2.558  2.2280 -3.1262 -0.5846
  529MOL0     H71383   3.098  10.343   2.701  0.1538 -0.0452  2.6728
  529MOL0     H71384   3.016  10.487   2.758  2.3947 -1.7307  2.8505
  529MOL0     H71385   2.958  10.563   2.529  0.5857 -0.8764 -0.8564
  529MOL0     H71386   2.875  10.416   2.590 -0.0343  1.8704  2.1532
  529MOL0     H71387   3.134  10.409   2.429 -0.3572  2.1462  0.3423
  529MOL0     H71388   2.984  10.419   2.354 -0.7044  1.3492  1.0252
  529MOL0     H71389   3.080  10.197   2.534 -1.1026  1.9746  1.4158
  529MOL0     H71390   2.911  10.200   2.481 -0.0036  1.3771  0.4811
  529MOL0     H71391   3.159  10.192   2.294 -1.4692  0.9196 -0.7409
  529MOL0     H71392   2.988  10.146   2.254 -1.2649  3.4011  1.5312
  529MOL0     H71393   3.182  10.018   2.450 -0.8700  1.4341 -0.0606
  529MOL0     H71394   3.019   9.957   2.398 -0.2696  0.2551  1.2801
  529MOL0     H71395   3.227  10.554   3.128 -0.7500  1.5231  1.2185
  529MOL0     H71396   3.400  10.557   3.322  0.6522 -1.6865 -0.0930
  529MOL0     H71397   3.903  10.584   3.272 -0.9969  2.1322  0.5848
  529MOL0     H71398   4.114  10.612   3.364  1.7234 -0.9520  0.0948
  529MOL0     H71399   4.568   9.376   3.527 -0.1977  1.0679  0.3520
  529MOL0     H71400   4.456   9.341   3.296 -0.2372  0.1904 -0.9976
  529MOL0     H71401   4.302   9.303   2.951 -3.3774  1.1633 -0.6704
  529MOL0     H71402   4.265   9.203   2.735 -1.9826  1.0876 -3.4751
  529MOL0     H71403   4.245   9.477   2.383 -2.6769  1.2934 -1.5061
  529MOL0     H71404   4.143   9.423   2.514  0.3033 -0.2054 -0.3944
  529MOL0     H71405   4.224   9.249   2.278 -0.1325 -1.3932  0.9312
  529MOL0     H71406   4.074   9.346   2.299 -1.3342 -3.9789 -3.6989
  529MOL0     H71407   4.045   9.115   2.327  3.3145 -2.3083  0.5334
  529MOL0     H71408   4.010   9.207   2.483 -3.6834  0.7122 -2.2904
  529MOL0     H71409   4.191   8.980   2.399  0.3195 -0.6880  1.5108
  529MOL0     H71410   4.280   9.095   2.500 -0.8180  4.7128 -1.2600
  529MOL0     H71411   4.059   8.881   2.781 -3.0646  0.0883 -0.3840
  529MOL0     H71412   4.476   9.538   2.548  1.5560  1.0234  0.9780
  529MOL0     H71413   4.464   9.755   2.731 -0.5850 -0.7879  1.1762
  529MOL0     H71414   4.567   9.700   2.867  0.2821  0.1124 -0.6733
  529MOL0     H71415   4.624   9.677   2.716  0.9923  2.2768  2.8046
  530MOL0     O71416   5.832   7.843   6.761  0.4801  0.3397 -0.1540
  530MOL0     C71417   5.795   7.943   6.709  0.9774 -0.0006  0.7554
  530MOL0     O71418   5.674   7.969   6.650  0.5592 -0.0567  0.0393
  530MOL0     C71419   5.580   7.865   6.683  0.2423  0.5174 -0.0925
  530MOL0     C71420   5.463   7.894   6.755  0.3681  0.1391 -0.2631
  530MOL0     C71421   5.377   7.791   6.795 -0.2295  0.5285 -0.3882
  530MOL0     C71422   5.390   7.663   6.726  0.6367  0.7483  0.6759
  530MOL0     O71423   5.299   7.561   6.735 -0.3697 -0.4603 -0.0850
  530MOL0     C71424   5.218   7.543   6.619  0.1263  0.1675 -1.1659
  530MOL0     C71425   5.132   7.422   6.620  1.0499 -0.0674  0.2281
  530MOL0     C71426   5.096   7.380   6.478  0.1601  0.2555  0.1229
  530MOL0     C71427   4.977   7.299   6.472 -0.0019  0.0537 -1.0897
  530MOL0     C71428   4.950   7.222   6.339 -0.7811 -0.2087  0.4489
  530MOL0     C71429   4.828   7.273   6.263  0.5276  0.6006 -0.2892
  530MOL0     C71430   4.807   7.185   6.136 -0.1413  0.4684 -0.5025
  530MOL0     C71431   4.925   7.198   6.039  0.3654  0.2549  0.0649
  530MOL0     N71432   4.894   7.188   5.893  0.6730 -0.1860 -0.3610
  530MOL0     C71433   4.844   7.287   5.818  0.6324 -0.2901 -0.1143
  530MOL0     C71434   4.806   7.220   5.697  0.3374 -0.1439  0.0427
  530MOL0     C71435   4.766   7.279   5.565  0.5587 -0.5803 -0.6080
  530MOL0     C71436   4.636   7.352   5.595 -0.5595  0.2666  0.7546
  530MOL0     C71437   4.575   7.407   5.459  0.0493  0.3233  0.9871
  530MOL0     C71438   4.456   7.492   5.466  0.0713  0.3306  0.6120
  530MOL0     O71439   4.357   7.432   5.560 -0.3190  0.7285  0.0109
  530MOL0     C71440   4.225   7.480   5.557  0.1777  0.5664 -0.3551
  530MOL0     C71441   4.137   7.432   5.461  0.1827  0.2971 -0.5264
  530MOL0     C71442   4.006   7.456   5.473 -0.4431 -0.2361 -0.2632
  530MOL0     C71443   3.948   7.526   5.578  0.3181 -1.0538 -0.0414
  530MOL0     C71444   3.805   7.558   5.585 -0.3096  0.0215  0.0125
  530MOL0     O71445   3.728   7.554   5.473  0.6806 -1.0654  0.7226
  530MOL0     C71446   3.602   7.595   5.474  0.9973 -0.1103 -0.6709
  530MOL0     C71447   3.571   7.708   5.404  0.8798  1.3603  0.3189
  530MOL0     C71448   3.438   7.745   5.392 -0.0916 -0.7361 -0.2543
  530MOL0     C71449   3.326   7.684   5.457 -0.2204 -0.8141  0.0126
  530MOL0     O71450   3.195   7.727   5.457 -0.3682 -0.5209 -0.3933
  530MOL0     C71451   3.157   7.836   5.384  0.3948 -0.6711 -0.0560
  530MOL0     C71452   3.004   7.871   5.397 -0.0604  0.3878 -0.4661
  530MOL0     C71453   2.969   7.993   5.306  0.1430 -0.2239  0.8267
  530MOL0     C71454   2.815   8.013   5.308 -0.4843  0.8842 -0.7013
  530MOL0     C71455   2.778   8.137   5.229 -0.1804  0.7328  0.1870
  530MOL0     C71456   2.629   8.126   5.208 -0.3234  0.1613  0.7331
  530MOL0     C71457   2.567   8.233   5.112 -1.0815  0.0539 -0.2559
  530MOL0     C71458   2.419   8.205   5.081  0.9981 -0.6948 -0.3128
  530MOL0    Cl71459   2.394   8.316   4.939 -0.2867  0.9143 -0.1706
  530MOL0     C71460   3.365   7.565   5.525 -1.0547  1.0070  0.4371
  530MOL0     C71461   3.500   7.529   5.540 -1.0621 -0.2458  0.7978
  530MOL0     O71462   3.764   7.569   5.699  0.0288  0.0763 -0.6170
  530MOL0     C71463   4.026   7.573   5.680 -0.9578  0.6699 -0.5657
  530MOL0     C71464   4.159   7.543   5.670 -0.5152 -0.1658  0.7377
  530MOL0     N71465   4.837   7.089   5.717 -0.8367  0.4489  0.2198
  530MOL0     N71466   4.896   7.067   5.825  0.9322 -0.8205 -0.2947
  530MOL0     C71467   5.489   7.641   6.637 -0.0385  0.0604 -0.3120
  530MOL0     C71468   5.593   7.726   6.642 -1.0741  1.4775  0.3599
  530MOL0     C71469   5.891   8.054   6.696  0.1717  0.5392 -0.3376
  530MOL0     C71470   5.866   8.140   6.594 -0.3307 -0.1114 -0.5517
  530MOL0     C71471   5.955   8.254   6.572  0.3088  0.0313 -0.3150
  530MOL0     C71472   6.049   8.284   6.668 -0.8163  0.1628 -0.6607
  530MOL0     O71473   6.108   8.408   6.660 -0.3142  0.5346 -0.2823
  530MOL0     C71474   6.185   8.469   6.761  0.1982 -0.8747 -1.0707
  530MOL0     C71475   6.122   8.504   6.897 -0.4134  0.7039  0.7119
  530MOL0     C71476   5.978   8.568   6.911  0.2491  0.1833  0.1211
  530MOL0     C71477   5.935   8.560   7.054 -0.4440 -0.6861  0.6587
  530MOL0     C71478   6.018   8.660   7.130  0.4088 -0.8579 -0.0383
  530MOL0     C71479   6.069   8.747   7.195 -0.5037  0.3344  1.2335
  530MOL0     C71480   6.077   8.197   6.776 -0.0594 -0.2306  1.1615
  530MOL0     C71481   5.994   8.080   6.787  0.3488  1.4937 -0.3856
  530MOL0     C71482   6.026   7.988   6.912 -0.6161 -0.2264  0.0059
  530MOL0     H71483   5.461   7.999   6.783 -0.4451  0.3656 -1.1482
  530MOL0     H71484   5.288   7.813   6.852 -1.9461 -0.9812 -2.2937
  530MOL0     H71485   5.161   7.636   6.608  3.8984  2.7590 -0.6070
  530MOL0     H71486   5.287   7.509   6.542 -0.0756 -3.8170  0.1798
  530MOL0     H71487   5.052   7.455   6.687 -0.0724 -2.0094 -0.0816
  530MOL0     H71488   5.175   7.335   6.672  2.6573  0.9601  0.6859
  530MOL0     H71489   5.189   7.337   6.441  1.3602  2.8907 -0.1739
  530MOL0     H71490   5.090   7.464   6.408  0.3697 -0.5728 -0.9039
  530MOL0     H71491   4.969   7.227   6.555 -1.4445  1.9821  0.5540
  530MOL0     H71492   4.900   7.375   6.490  1.7090  1.5672  0.0889
  530MOL0     H71493   5.042   7.219   6.281 -0.3057  0.8328  1.1326
  530MOL0     H71494   4.930   7.120   6.374 -0.9751  0.4311  2.3110
  530MOL0     H71495   4.747   7.270   6.336  2.6377 -3.0218  2.2814
  530MOL0     H71496   4.840   7.378   6.236  1.0069  0.2437 -1.5329
  530MOL0     H71497   4.714   7.224   6.094 -0.4412 -1.2542 -1.5001
  530MOL0     H71498   4.794   7.086   6.179 -0.5977  0.1867 -1.2642
  530MOL0     H71499   4.963   7.301   6.047  0.8075  0.0540  0.5972
  530MOL0     H71500   5.010   7.135   6.066 -0.1711  0.4284  2.2864
  530MOL0     H71501   4.839   7.385   5.864  1.9368 -0.2289 -0.0660
  530MOL0     H71502   4.846   7.348   5.535  0.6871 -0.4792 -0.0371
  530MOL0     H71503   4.752   7.204   5.486  2.1089  1.1560 -2.6722
  530MOL0     H71504   4.566   7.279   5.638  2.0637 -2.1957  1.1827
  530MOL0     H71505   4.652   7.439   5.659  0.9122 -0.0978  0.9324
  530MOL0     H71506   4.551   7.319   5.398 -1.0927  1.1055  0.2638
  530MOL0     H71507   4.647   7.468   5.404 -2.4554  3.3683  0.8567
  530MOL0     H71508   4.399   7.503   5.374  1.4989 -0.8445 -0.4613
  530MOL0     H71509   4.486   7.590   5.504  0.1207  0.1905  0.9383
  530MOL0     H71510   4.169   7.381   5.370 -0.0047 -0.7014 -0.0410
  530MOL0     H71511   3.936   7.442   5.391 -2.3788  1.9468  0.8993
  530MOL0     H71512   3.641   7.770   5.349 -0.1842  2.0615 -0.2883
  530MOL0     H71513   3.414   7.825   5.323 -1.9229 -1.4149 -0.4569
  530MOL0     H71514   3.219   7.918   5.421 -1.1161  0.5200 -0.0386
  530MOL0     H71515   3.180   7.823   5.278 -0.6275  1.5217 -0.6068
  530MOL0     H71516   2.954   7.785   5.350 -1.5164  0.5867  0.6536
  530MOL0     H71517   2.966   7.883   5.499  2.9704  0.8957  0.6947
  530MOL0     H71518   3.013   8.076   5.361  0.8167  0.6222 -0.9302
  530MOL0     H71519   3.006   7.990   5.204  0.9672  0.6434  1.0877
  530MOL0     H71520   2.796   8.024   5.416  3.2300 -0.1854  0.2017
  530MOL0     H71521   2.771   7.923   5.264 -1.4017  1.2969 -0.6548
  530MOL0     H71522   2.824   8.134   5.130 -2.7432 -2.1451 -1.0994
  530MOL0     H71523   2.800   8.231   5.280  0.4018  0.9687 -0.4924
  530MOL0     H71524   2.608   8.028   5.163 -0.9777  1.2442 -1.4701
  530MOL0     H71525   2.567   8.138   5.297  0.3313 -0.6373  1.3048
  530MOL0     H71526   2.618   8.225   5.016 -3.3144 -0.9285 -1.4466
  530MOL0     H71527   2.569   8.331   5.160 -0.0517 -0.3100  0.4688
  530MOL0     H71528   2.403   8.101   5.051  4.2577 -0.3661 -4.0012
  530MOL0     H71529   2.352   8.220   5.166  1.3804 -1.3646  0.1167
  530MOL0     H71530   3.297   7.498   5.577  1.8210 -1.5179  1.2627
  530MOL0     H71531   3.531   7.439   5.592  0.4687 -1.0305 -1.3382
  530MOL0     H71532   3.980   7.635   5.756 -0.0610 -1.0522  1.4700
  530MOL0     H71533   4.231   7.570   5.747  1.6574 -2.5384 -0.3164
  530MOL0     H71534   5.511   7.542   6.598 -0.1273 -1.2117  2.6025
  530MOL0     H71535   5.688   7.700   6.598  0.5639  4.8384  1.6000
  530MOL0     H71536   5.782   8.138   6.525 -1.2134  2.3111  0.3505
  530MOL0     H71537   5.955   8.323   6.489  0.3181  0.9713  0.4500
  530MOL0     H71538   6.201   8.567   6.715  0.8902 -0.1594  0.5978
  530MOL0     H71539   6.284   8.426   6.778  1.2259  2.4602  3.2350
  530MOL0     H71540   6.187   8.578   6.943 -3.2191  4.4866 -0.8683
  530MOL0     H71541   6.133   8.420   6.966  0.7812  0.3699  0.1319
  530MOL0     H71542   5.921   8.498   6.850 -0.2381  0.5809  0.1159
  530MOL0     H71543   5.974   8.662   6.856 -0.0979 -0.9542 -1.9012
  530MOL0     H71544   5.829   8.586   7.063 -0.5907 -1.2442  0.5720
  530MOL0     H71545   5.946   8.463   7.104 -2.1331 -1.0516  0.4012
  530MOL0     H71546   6.104   8.839   7.238 -0.3904  1.4857 -1.1582
  530MOL0     H71547   6.149   8.235   6.847  0.0926  4.9785 -1.3286
  530MOL0     H71548   5.956   7.910   6.943 -1.5128  1.3915  2.2852
  530MOL0     H71549   6.127   7.946   6.908 -1.1495 -1.4645 -1.9728
  530MOL0     H71550   6.033   8.057   6.997 -2.1077  0.1618 -0.1579
  531MOL0     O71551   4.490   3.572   4.172  0.7266  0.0042 -1.0855
  531MOL0     C71552   4.548   3.673   4.149  0.2178 -0.4079  0.1178
  531MOL0     O71553   4.519   3.794   4.194  0.1166 -0.1348 -0.7485
  531MOL0     C71554   4.432   3.818   4.293  0.0438 -0.2693 -0.1744
  531MOL0     C71555   4.297   3.787   4.287 -0.7491  0.5050 -0.3741
  531MOL0     C71556   4.211   3.831   4.392 -0.3327  0.6287  0.1459
  531MOL0     C71557   4.255   3.888   4.502  1.1172 -0.3598 -0.4914
  531MOL0     O71558   4.165   3.916   4.604 -0.5032  0.6306 -0.3988
  531MOL0     C71559   4.161   3.811   4.706  0.0666 -0.8569  0.2181
  531MOL0     C71560   4.015   3.800   4.761 -0.7701  0.4711  0.2814
  531MOL0     C71561   3.944   3.927   4.811  0.4607  0.2337  1.0708
  531MOL0     C71562   4.006   4.003   4.929  0.5868 -0.7482  0.2136
  531MOL0     C71563   3.920   4.124   4.962  0.2959 -0.4694 -0.2864
  531MOL0     C71564   3.970   4.246   4.888  0.4308 -0.4942  0.2479
  531MOL0     C71565   3.875   4.362   4.907 -0.4397  0.2694  0.3097
  531MOL0     C71566   3.903   4.484   4.820  1.1815  0.6931  0.4738
  531MOL0     N71567   3.980   4.579   4.894 -0.5647  0.2418 -0.4965
  531MOL0     C71568   3.927   4.686   4.961  1.0941 -0.1751  0.0777
  531MOL0     C71569   4.022   4.777   4.985  0.2722  1.0155 -0.2377
  531MOL0     C71570   3.995   4.913   5.037 -0.0515  0.5744 -0.5230
  531MOL0     C71571   3.992   4.903   5.190  1.2318  0.1089  0.3794
  531MOL0     C71572   3.933   5.034   5.247 -0.2596  0.0862  0.3071
  531MOL0     C71573   3.959   5.046   5.397  0.6465 -0.3908  0.5777
  531MOL0     O71574   3.897   5.167   5.445  0.3630 -0.5868  0.8831
  531MOL0     C71575   3.966   5.284   5.419 -0.3957 -0.2324 -0.3343
  531MOL0     C71576   4.102   5.292   5.373  0.0386 -0.2026 -0.8175
  531MOL0     C71577   4.173   5.415   5.366  0.5717 -0.9432  0.7782
  531MOL0     C71578   4.093   5.541   5.363 -0.1198  0.4929  0.2898
  531MOL0     C71579   4.153   5.670   5.330 -0.0162 -0.0118  0.5965
  531MOL0     O71580   4.074   5.783   5.344 -0.1395 -0.2357 -0.2159
  531MOL0     C71581   4.131   5.906   5.316  0.2353  0.8508  0.3681
  531MOL0     C71582   4.222   5.985   5.394 -0.6962  0.4016 -0.6895
  531MOL0     C71583   4.246   6.115   5.365  0.8557 -0.6062 -0.1299
  531MOL0     C71584   4.182   6.172   5.250 -0.3950 -0.4559  0.1032
  531MOL0     O71585   4.195   6.305   5.223 -0.0899  0.1113 -0.5154
  531MOL0     C71586   4.071   6.378   5.190  0.1988 -0.1417  0.6987
  531MOL0     C71587   4.063   6.501   5.277 -0.1953  0.6624 -0.8952
  531MOL0     C71588   4.004   6.454   5.405 -0.0928  0.2219 -0.5172
  531MOL0     C71589   3.854   6.483   5.404  0.6398 -0.2239  0.3826
  531MOL0     C71590   3.823   6.626   5.420 -0.9677  0.8160 -0.3747
  531MOL0     C71591   3.667   6.643   5.396 -0.3687 -0.8544 -0.8416
  531MOL0     C71592   3.656   6.789   5.371 -0.0899 -0.0386 -0.6962
  531MOL0     C71593   3.509   6.819   5.380 -0.9310  1.3398 -0.4205
  531MOL0    Cl71594   3.450   6.799   5.553  0.3409 -0.0564  0.5628
  531MOL0     C71595   4.110   6.090   5.159 -0.2336 -0.4746  0.6578
  531MOL0     C71596   4.083   5.958   5.197  0.4447  0.7905  0.5091
  531MOL0     O71597   4.263   5.666   5.279 -0.3474 -0.0353  0.0551
  531MOL0     C71598   3.963   5.535   5.416 -0.0154  0.0600 -0.2758
  531MOL0     C71599   3.903   5.408   5.455 -0.3623  0.1351  0.5821
  531MOL0     N71600   4.142   4.725   4.940 -0.1608 -0.4486 -0.2218
  531MOL0     N71601   4.114   4.608   4.886  0.2622 -0.4267  0.5945
  531MOL0     C71602   4.387   3.912   4.508 -0.3492  0.3324 -0.4465
  531MOL0     C71603   4.484   3.877   4.409 -0.1574 -0.0152 -0.1287
  531MOL0     C71604   4.663   3.673   4.049  0.9686  0.2859 -0.7996
  531MOL0     C71605   4.738   3.551   4.030  0.0059 -0.4163  0.3386
  531MOL0     C71606   4.841   3.532   3.941 -0.0846 -0.4585  1.3370
  531MOL0     C71607   4.872   3.638   3.847 -0.4133  0.2582 -0.4510
  531MOL0     O71608   4.964   3.632   3.745 -0.5823  0.4985 -0.1428
  531MOL0     C71609   5.022   3.516   3.690  0.2732  0.4678 -0.3006
  531MOL0     C71610   5.049   3.525   3.536 -0.3185 -0.5051 -0.3714
  531MOL0     C71611   5.170   3.615   3.486  0.3137 -0.5085  0.2437
  531MOL0     C71612   5.286   3.626   3.585  0.3138  0.5648 -0.6066
  531MOL0     C71613   5.367   3.508   3.608  0.2975 -0.5208 -0.3141
  531MOL0     C71614   5.434   3.409   3.636 -0.6170  0.9695  0.7751
  531MOL0     C71615   4.809   3.762   3.866  0.9139  0.0383  0.3871
  531MOL0     C71616   4.698   3.777   3.956  0.5180 -0.1399 -0.0828
  531MOL0     C71617   4.622   3.910   3.946  0.7534 -0.1650 -0.8412
  531MOL0     H71618   4.259   3.723   4.209 -2.4321  1.3441 -0.2832
  531MOL0     H71619   4.104   3.815   4.398  0.0412 -1.5318  2.9924
  531MOL0     H71620   4.183   3.710   4.670 -4.4610 -1.3939 -1.7871
  531MOL0     H71621   4.234   3.826   4.785 -0.5598 -5.1262  1.8811
  531MOL0     H71622   4.014   3.731   4.846  0.1740 -0.7863 -0.6789
  531MOL0     H71623   3.957   3.761   4.677  0.1754  1.4288 -0.8526
  531MOL0     H71624   3.842   3.899   4.837  0.7239 -2.4157 -0.4079
  531MOL0     H71625   3.938   3.994   4.724 -0.0872  1.6325  2.1533
  531MOL0     H71626   4.001   3.926   5.007  0.0867 -0.3340  0.5952
  531MOL0     H71627   4.111   4.020   4.903  1.2892 -2.1943  1.9065
  531MOL0     H71628   3.818   4.089   4.942  0.0097  0.3235 -0.2562
  531MOL0     H71629   3.930   4.156   5.066 -0.4701 -1.1100 -0.0067
  531MOL0     H71630   4.068   4.280   4.923  0.3982  0.1168 -0.2345
  531MOL0     H71631   3.993   4.225   4.783 -0.4072  4.5170 -1.2271
  531MOL0     H71632   3.871   4.391   5.012  1.4867 -0.6444  0.6699
  531MOL0     H71633   3.784   4.322   4.860  1.1525 -2.1231 -0.9291
  531MOL0     H71634   3.951   4.466   4.723  0.8626  0.6503  0.3247
  531MOL0     H71635   3.803   4.521   4.798  0.6073 -1.0874 -0.0892
  531MOL0     H71636   3.820   4.700   4.973  0.8030 -1.0418 -1.2304
  531MOL0     H71637   4.076   4.981   5.007  1.3544  0.0400  1.8252
  531MOL0     H71638   3.901   4.950   4.994 -1.4084  3.3399  4.0743
  531MOL0     H71639   3.930   4.816   5.210  3.1438 -1.7179 -1.1558
  531MOL0     H71640   4.086   4.881   5.242 -0.4534 -0.6957  3.2770
  531MOL0     H71641   3.826   5.043   5.226 -0.3271 -0.5585  0.3326
  531MOL0     H71642   3.984   5.119   5.203  1.2986 -0.2212  1.4273
  531MOL0     H71643   4.063   5.025   5.427  1.3260 -1.3862 -2.1137
  531MOL0     H71644   3.904   4.963   5.443  0.7202  0.2988  1.9408
  531MOL0     H71645   4.168   5.205   5.364 -0.5855 -0.5275 -2.7457
  531MOL0     H71646   4.280   5.422   5.346  1.2949  3.3038  4.3717
  531MOL0     H71647   4.268   5.948   5.486 -1.5631 -0.6329 -0.6421
  531MOL0     H71648   4.303   6.189   5.421 -0.0241  0.8376 -1.0852
  531MOL0     H71649   4.080   6.401   5.083  1.2497  0.0618  0.8200
  531MOL0     H71650   3.985   6.311   5.195 -1.5447  1.8734 -0.5591
  531MOL0     H71651   4.165   6.542   5.280 -0.5440  1.7687 -2.8373
  531MOL0     H71652   3.996   6.571   5.227 -2.1874 -0.7658 -0.3824
  531MOL0     H71653   4.019   6.348   5.426 -1.1155  0.7180  3.5005
  531MOL0     H71654   4.050   6.518   5.481 -1.3943 -1.6111  1.9339
  531MOL0     H71655   3.818   6.414   5.480  0.0838 -1.2046 -0.7331
  531MOL0     H71656   3.816   6.449   5.307  0.9494  2.9019 -0.9578
  531MOL0     H71657   3.876   6.684   5.344  2.3370 -2.2357 -0.6390
  531MOL0     H71658   3.848   6.666   5.518  0.7640 -0.7879 -0.0946
  531MOL0     H71659   3.627   6.589   5.310 -0.7904  0.2640 -1.3654
  531MOL0     H71660   3.622   6.613   5.491 -1.6705  1.7618 -0.5440
  531MOL0     H71661   3.682   6.801   5.265  0.2749 -1.4489 -0.7836
  531MOL0     H71662   3.715   6.856   5.434 -2.5627 -0.4625  2.3136
  531MOL0     H71663   3.491   6.922   5.349 -1.7721  1.1874 -0.4550
  531MOL0     H71664   3.464   6.743   5.316  0.3171 -1.6767  1.9792
  531MOL0     H71665   4.078   6.114   5.058  0.2183 -2.2421  0.0598
  531MOL0     H71666   4.022   5.893   5.134 -0.1965  1.4844  0.3968
  531MOL0     H71667   3.914   5.632   5.420  2.6876  1.9167 -4.8178
  531MOL0     H71668   3.801   5.404   5.490 -0.1578 -1.6064  1.0283
  531MOL0     H71669   4.425   3.949   4.603 -4.2088  2.6338  0.4008
  531MOL0     H71670   4.589   3.901   4.405  0.2049 -1.5920 -2.8755
  531MOL0     H71671   4.702   3.465   4.085  1.4367 -1.3751 -0.1550
  531MOL0     H71672   4.903   3.443   3.945  0.3386 -0.1921  0.8591
  531MOL0     H71673   4.952   3.431   3.696 -0.8412  1.4588  1.8950
  531MOL0     H71674   5.112   3.484   3.742  2.7944  0.0195 -4.4937
  531MOL0     H71675   4.954   3.544   3.486 -0.1665  1.9653  0.1193
  531MOL0     H71676   5.084   3.424   3.514 -1.0243 -0.2731 -2.9008
  531MOL0     H71677   5.134   3.717   3.476  0.1306 -0.5144  0.8082
  531MOL0     H71678   5.202   3.584   3.387 -1.9774  0.4426 -0.8631
  531MOL0     H71679   5.346   3.711   3.553 -0.5966  2.2871  1.9547
  531MOL0     H71680   5.242   3.654   3.681  1.3032  0.3445 -0.0716
  531MOL0     H71681   5.496   3.337   3.686  0.1889  2.0215  1.3238
  531MOL0     H71682   4.843   3.828   3.787  1.1832 -2.9899 -2.2665
  531MOL0     H71683   4.620   3.943   3.841 -0.8454  1.1540 -0.4218
  531MOL0     H71684   4.516   3.903   3.972  1.1780 -1.4077  0.7076
  531MOL0     H71685   4.671   3.982   4.011  0.2457 -1.4137  0.9928
  532MOL0     O71686   9.864   9.988   0.708 -0.4959  0.9492  0.4642
  532MOL0     C71687   9.864   9.926   0.603  0.7461 -0.5929  0.0132
  532MOL0     O71688   9.975   9.868   0.544  0.1592  0.0606 -0.3654
  532MOL0     C71689  10.093   9.934   0.549  0.0291  0.2877 -0.1725
  532MOL0     C71690  10.121  10.015   0.436  0.3224  0.1934 -0.5359
  532MOL0     C71691  10.228  10.096   0.434 -0.1123 -0.3139 -0.2557
  532MOL0     C71692  10.315  10.106   0.547 -0.6546 -1.2006  0.8235
  532MOL0     O71693  10.417  10.191   0.544 -0.9626 -0.0774 -0.0712
  532MOL0     C71694  10.539  10.127   0.499 -0.2661 -0.9228  0.4726
  532MOL0     C71695  10.612  10.030   0.590 -0.3740 -1.3614 -0.6707
  532MOL0     C71696  10.703   9.955   0.504  0.3803  1.0646 -0.4472
  532MOL0     C71697  10.830   9.897   0.586 -0.5134 -0.6922  0.5270
  532MOL0     C71698  10.785   9.788   0.678  0.5492  0.6135 -0.6647
  532MOL0     C71699  10.900   9.751   0.770 -0.7495 -0.3464 -0.5499
  532MOL0     C71700  10.871   9.651   0.881  0.5113 -0.0833 -1.3731
  532MOL0     C71701  10.967   9.653   1.002 -0.3163  0.5701  0.5157
  532MOL0     N71702  11.103   9.641   0.944  0.2970 -0.3828 -0.0626
  532MOL0     C71703  11.169   9.749   0.887  0.0461 -0.5734  0.7552
  532MOL0     C71704  11.284   9.696   0.829  0.4887 -0.2693  0.0376
  532MOL0     C71705  11.398   9.769   0.760  0.0684  1.1027  0.6655
  532MOL0     C71706  11.414   9.741   0.610  0.1647  0.5147  0.0858
  532MOL0     C71707  11.497   9.842   0.541  0.0428 -0.8082  0.1056
  532MOL0     C71708  11.410   9.963   0.490  0.2125  0.5531  0.1986
  532MOL0     O71709  11.480  10.053   0.414  0.2613  0.0268  0.0622
  532MOL0     C71710  11.577  10.118   0.485 -0.4322  0.1033 -0.3082
  532MOL0     C71711  11.550  10.203   0.594  0.7364 -0.5615  0.1079
  532MOL0     C71712  11.645  10.277   0.672 -0.3030  0.0658 -0.1994
  532MOL0     C71713  11.774  10.266   0.616  0.0204  0.5344  0.8603
  532MOL0     C71714  11.882  10.350   0.667 -0.5504  0.6257 -0.1576
  532MOL0     O71715  12.004  10.349   0.585  0.1302 -0.3734 -0.1487
  532MOL0     C71716  12.104  10.434   0.620 -0.6201 -0.2314  0.0396
  532MOL0     C71717  12.085  10.570   0.668 -0.0377 -0.3050 -0.6360
  532MOL0     C71718  12.189  10.656   0.700 -0.0312 -0.0410  0.0092
  532MOL0     C71719  12.319  10.610   0.659  0.6769  0.2937 -0.4628
  532MOL0     O71720  12.434  10.688   0.679  0.8136 -0.0195  0.0331
  532MOL0     C71721  12.416  10.817   0.745  0.6462  0.5596  0.2118
  532MOL0     C71722  12.543  10.896   0.756 -0.9549 -0.2045 -0.2382
  532MOL0     C71723  12.601  10.929   0.614 -0.6350  0.2696 -0.8102
  532MOL0     C71724  12.660  10.802   0.545  0.2216  0.2744  0.3189
  532MOL0     C71725  12.797  10.807   0.482 -0.3228 -0.0264  0.4016
  532MOL0     C71726  12.788  10.860   0.335 -0.3711 -0.4232 -0.4486
  532MOL0     C71727  12.737  10.755   0.241  0.3205 -0.0507  0.2648
  532MOL0     C71728  12.710  10.812   0.099 -0.5666  0.4100 -0.5573
  532MOL0    Cl71729  12.870  10.846   0.018  0.3073 -0.1345 -0.0083
  532MOL0     C71730  12.342  10.474   0.615 -0.2815 -0.1836  0.0189
  532MOL0     C71731  12.236  10.387   0.601  0.5449  0.1305 -0.4659
  532MOL0     O71732  11.867  10.400   0.773 -0.0512 -0.6294  0.2715
  532MOL0     C71733  11.810  10.173   0.514 -0.4562 -0.2788  0.5692
  532MOL0     C71734  11.711  10.097   0.449 -0.8581 -0.1829 -0.3251
  532MOL0     N71735  11.291   9.563   0.862  0.8309 -0.7873  0.6692
  532MOL0     N71736  11.182   9.526   0.927  0.8960 -0.7290 -0.0867
  532MOL0     C71737  10.284  10.030   0.664 -0.3363  0.8977  0.0557
  532MOL0     C71738  10.173   9.934   0.663 -0.3361  0.0778 -0.5943
  532MOL0     C71739   9.735   9.913   0.528 -0.0910 -0.5050 -0.1930
  532MOL0     C71740   9.747   9.901   0.388 -0.4764  0.2826 -0.2262
  532MOL0     C71741   9.632   9.863   0.316  0.6562  0.2149  0.2605
  532MOL0     C71742   9.513   9.867   0.383 -0.0795  0.9227 -0.1900
  532MOL0     O71743   9.394   9.853   0.311  0.0161 -0.3705 -0.2958
  532MOL0     C71744   9.350   9.970   0.255  0.4879 -0.5921  0.5687
  532MOL0     C71745   9.248   9.933   0.148 -0.0092  1.0794  0.6174
  532MOL0     C71746   9.323   9.865   0.025 -0.2974 -1.0877  0.3952
  532MOL0     C71747   9.232   9.784  -0.071 -0.1569  0.2876 -0.9101
  532MOL0     C71748   9.188   9.657  -0.027 -0.0608 -0.5276  0.5121
  532MOL0     C71749   9.134   9.556   0.001 -0.8421  0.5960 -0.7563
  532MOL0     C71750   9.496   9.883   0.514  0.6835 -0.1318  0.2431
  532MOL0     C71751   9.608   9.902   0.596  0.8340  0.0003  0.7718
  532MOL0     C71752   9.601   9.907   0.743  0.3267 -0.0703  0.1297
  532MOL0     H71753  10.054  10.000   0.352 -1.7193 -2.3229  1.3704
  532MOL0     H71754  10.246  10.170   0.356 -2.8460  0.4063 -0.3266
  532MOL0     H71755  10.504  10.070   0.412 -1.0384  3.0526 -2.0573
  532MOL0     H71756  10.611  10.201   0.464  1.0990 -2.4819 -0.1412
  532MOL0     H71757  10.543   9.964   0.643 -0.1993 -0.5107  0.6756
  532MOL0     H71758  10.655  10.095   0.667 -2.3115 -2.8415  1.8095
  532MOL0     H71759  10.751  10.013   0.424  0.3735  2.2772  0.4134
  532MOL0     H71760  10.650   9.875   0.451 -1.7363  1.2725  1.2314
  532MOL0     H71761  10.909   9.862   0.519  0.5405  0.7086  0.9929
  532MOL0     H71762  10.872   9.978   0.645  0.1295 -0.0122 -0.8285
  532MOL0     H71763  10.694   9.822   0.729 -0.4443  0.6357 -2.3734
  532MOL0     H71764  10.747   9.702   0.621  0.5283  0.0451  0.1842
  532MOL0     H71765  10.986   9.710   0.716  1.0693 -1.3135  2.8058
  532MOL0     H71766  10.928   9.842   0.822  2.1206 -0.4766 -1.6848
  532MOL0     H71767  10.873   9.550   0.839  0.6821  0.8883 -3.8576
  532MOL0     H71768  10.772   9.662   0.927  0.5726  0.9901 -1.4643
  532MOL0     H71769  10.949   9.746   1.056 -2.4549 -0.5876  1.9611
  532MOL0     H71770  10.958   9.571   1.074  2.3682 -2.0312 -1.8309
  532MOL0     H71771  11.146   9.855   0.882  0.7598 -0.3348 -5.5897
  532MOL0     H71772  11.388   9.875   0.786  4.1948  1.7863  0.2185
  532MOL0     H71773  11.496   9.746   0.803  0.0104  1.2759  0.8943
  532MOL0     H71774  11.466   9.645   0.599  0.7190  0.6695  1.2505
  532MOL0     H71775  11.314   9.731   0.566  0.5806 -4.1389 -0.4028
  532MOL0     H71776  11.536   9.790   0.454  1.8308 -0.7552  0.8332
  532MOL0     H71777  11.580   9.879   0.601 -0.7587  0.0221  0.7485
  532MOL0     H71778  11.361  10.018   0.571 -0.2373  1.4854 -0.6919
  532MOL0     H71779  11.331   9.924   0.424 -0.6637  1.0553  0.9271
  532MOL0     H71780  11.448  10.215   0.629  1.0257 -3.0404  2.0682
  532MOL0     H71781  11.619  10.344   0.753 -2.0158 -2.0737  1.1316
  532MOL0     H71782  11.985  10.601   0.697  0.5508  0.3271  0.8110
  532MOL0     H71783  12.182  10.756   0.741  1.9209 -0.1202  0.6443
  532MOL0     H71784  12.337  10.880   0.703  0.9041  2.3540  2.2458
  532MOL0     H71785  12.390  10.802   0.850 -0.3486  1.9111  0.1848
  532MOL0     H71786  12.528  10.985   0.819  2.2803 -0.8980  1.7476
  532MOL0     H71787  12.613  10.842   0.820 -1.4102  0.6842  1.0799
  532MOL0     H71788  12.516  10.965   0.555 -1.2126 -0.0639 -0.1944
  532MOL0     H71789  12.677  11.008   0.624  0.2666 -0.8509  2.8217
  532MOL0     H71790  12.587  10.752   0.481  0.8624 -1.4932  0.9080
  532MOL0     H71791  12.683  10.731   0.625  0.6274  1.8014  1.6080
  532MOL0     H71792  12.829  10.703   0.471  0.7343  0.4218 -1.0877
  532MOL0     H71793  12.868  10.859   0.546  1.7120 -2.9610  0.7328
  532MOL0     H71794  12.724  10.949   0.339  1.3826  0.9943 -2.2808
  532MOL0     H71795  12.886  10.900   0.307 -0.6519  0.1067 -0.6919
  532MOL0     H71796  12.643  10.721   0.285  0.3755  0.1663  0.5536
  532MOL0     H71797  12.793  10.661   0.236 -2.5955 -2.0042  1.2915
  532MOL0     H71798  12.651  10.741   0.042 -1.0742 -0.5433  1.0831
  532MOL0     H71799  12.658  10.908   0.114 -2.8166 -0.8407  0.0850
  532MOL0     H71800  12.446  10.450   0.598 -0.1836  0.4858 -0.3650
  532MOL0     H71801  12.246  10.281   0.581  2.4633  0.6696 -3.1255
  532MOL0     H71802  11.915  10.161   0.490 -0.3700  0.4255  0.5690
  532MOL0     H71803  11.736  10.028   0.369 -3.9989 -3.8253  1.4946
  532MOL0     H71804  10.340  10.038   0.756 -2.7485  1.3747  1.5595
  532MOL0     H71805  10.162   9.866   0.748 -0.6329  0.2057 -0.5308
  532MOL0     H71806   9.839   9.934   0.341  1.0925  1.1236  3.1509
  532MOL0     H71807   9.627   9.854   0.208 -0.3212 -0.1620  0.3310
  532MOL0     H71808   9.426  10.038   0.214 -1.0599 -0.0452 -1.5582
  532MOL0     H71809   9.301  10.036   0.328  0.8683 -1.1325  1.3248
  532MOL0     H71810   9.189  10.012   0.101 -2.1842 -0.0671  1.2529
  532MOL0     H71811   9.173   9.863   0.187 -1.4188  2.7460  1.0078
  532MOL0     H71812   9.405   9.799   0.055  0.7850  0.4968  1.0645
  532MOL0     H71813   9.367   9.949  -0.030 -1.7301 -0.2286  0.5123
  532MOL0     H71814   9.144   9.845  -0.092 -1.2137 -0.5785  0.7767
  532MOL0     H71815   9.292   9.774  -0.162  1.0122 -0.8590 -0.0508
  532MOL0     H71816   9.101   9.459   0.035 -2.5666 -0.0407 -3.8825
  532MOL0     H71817   9.396   9.872   0.556  1.7593  0.6954  3.3524
  532MOL0     H71818   9.632  10.008   0.771  1.3636  0.1751 -1.7724
  532MOL0     H71819   9.495   9.890   0.765  0.0410 -1.8947 -2.2866
  532MOL0     H71820   9.659   9.826   0.787 -0.9867 -1.7036 -1.0035
  533MOL0     O71821   1.630  10.299   8.470  0.7490 -0.1979 -0.0778
  533MOL0     C71822   1.631  10.283   8.351 -0.6990 -1.4743  0.0552
  533MOL0     O71823   1.752  10.269   8.272  0.2325 -0.0903 -0.2253
  533MOL0     C71824   1.854  10.356   8.303  0.4757 -0.2199 -0.6213
  533MOL0     C71825   1.967  10.320   8.239  0.1910  1.3183  0.9749
  533MOL0     C71826   2.068  10.411   8.226 -0.8467 -0.7112 -0.1762
  533MOL0     C71827   2.065  10.536   8.290  0.3270  0.2772  0.7431
  533MOL0     O71828   2.164  10.631   8.288 -0.3647 -0.4863  0.3029
  533MOL0     C71829   2.268  10.611   8.197 -0.5344 -0.5463 -0.2391
  533MOL0     C71830   2.366  10.730   8.192 -0.4538  0.6970  0.1529
  533MOL0     C71831   2.440  10.756   8.325 -0.1897  0.5814  1.1653
  533MOL0     C71832   2.520  10.887   8.338  0.2772  0.2806  0.1930
  533MOL0     C71833   2.602  10.879   8.472  0.2910 -0.9188 -0.1424
  533MOL0     C71834   2.692  11.002   8.493  0.3047  0.2747 -0.0158
  533MOL0     C71835   2.811  11.019   8.398 -0.3018 -0.7530  0.0180
  533MOL0     C71836   2.890  10.889   8.372  0.8046 -0.0485 -0.3289
  533MOL0     N71837   2.995  10.922   8.283 -0.7328  1.1653  0.7270
  533MOL0     C71838   3.128  10.923   8.312  0.0498  1.2621  0.5308
  533MOL0     C71839   3.192  10.953   8.191 -0.0473 -0.5146 -0.4242
  533MOL0     C71840   3.338  10.935   8.168 -0.1585  0.2717 -0.0369
  533MOL0     C71841   3.398  11.062   8.096  0.3839  0.1371  0.2568
  533MOL0     C71842   3.391  11.193   8.180  0.1666  0.6148  0.3567
  533MOL0     C71843   3.498  11.299   8.139  0.5201 -0.1236  0.6683
  533MOL0     O71844   3.494  11.411   8.225  0.0427  0.1421  0.1293
  533MOL0     C71845   3.541  11.422   8.352  0.9950  0.2524  0.5637
  533MOL0     C71846   3.506  11.539   8.418  0.1708 -0.6054  0.0569
  533MOL0     C71847   3.550  11.567   8.556  1.9113 -0.0137  0.4142
  533MOL0     C71848   3.627  11.477   8.624 -0.1239  1.2962  0.4639
  533MOL0     C71849   3.663  11.507   8.765  0.7718  0.3211  0.3170
  533MOL0     O71850   3.702  11.404   8.849 -0.9997 -0.5219  0.2768
  533MOL0     C71851   3.759  11.446   8.967  0.4370  0.6400  0.0550
  533MOL0     C71852   3.670  11.473   9.070  0.7388 -0.0247  0.1512
  533MOL0     C71853   3.729  11.524   9.191 -0.0459  0.7533  0.9816
  533MOL0     C71854   3.865  11.528   9.216 -0.4182 -0.5669  0.0048
  533MOL0     O71855   3.920  11.567   9.336 -0.4515 -0.2852  0.0789
  533MOL0     C71856   3.838  11.617   9.446  0.1931 -0.3486  0.5888
  533MOL0     C71857   3.917  11.657   9.574  0.2258  0.1141  0.1311
  533MOL0     C71858   3.997  11.543   9.623 -0.2375 -0.3398 -0.1981
  533MOL0     C71859   4.064  11.581   9.751  0.7427 -0.6240 -0.0204
  533MOL0     C71860   4.140  11.463   9.805  0.0955  0.1908 -0.3593
  533MOL0     C71861   4.282  11.509   9.865 -0.3667 -0.5661  0.2325
  533MOL0     C71862   4.343  11.390   9.924 -0.3183  0.3311  0.2787
  533MOL0     C71863   4.501  11.391   9.944  0.3871 -0.4668  0.1444
  533MOL0    Cl71864   4.552  11.248  10.028  0.1449 -0.1145 -0.5116
  533MOL0     C71865   3.953  11.496   9.114  0.3185  0.2136  0.0172
  533MOL0     C71866   3.903  11.445   8.989 -0.0912  0.1284  0.3979
  533MOL0     O71867   3.662  11.630   8.791  0.9536  0.5885  1.2452
  533MOL0     C71868   3.676  11.362   8.551  0.3181 -0.2556 -0.5455
  533MOL0     C71869   3.633  11.335   8.416 -0.9090 -0.0860  0.5871
  533MOL0     N71870   3.099  10.979   8.090 -0.0915  0.4555  0.6439
  533MOL0     N71871   2.985  10.965   8.155  1.4618 -0.4819  0.2074
  533MOL0     C71872   1.953  10.567   8.369 -0.2635  1.3551  0.1894
  533MOL0     C71873   1.846  10.470   8.371 -0.2136  0.1176 -0.7937
  533MOL0     C71874   1.501  10.266   8.283 -0.3087 -0.4684  0.4753
  533MOL0     C71875   1.509  10.197   8.160  0.6268  1.3933  0.0320
  533MOL0     C71876   1.396  10.166   8.080  0.6786 -0.3808 -0.3979
  533MOL0     C71877   1.274  10.209   8.118  0.2656 -1.2089  0.4288
  533MOL0     O71878   1.167  10.179   8.037  0.2091 -0.2869 -0.1123
  533MOL0     C71879   1.050  10.109   8.087 -0.0823 -0.5277  0.1129
  533MOL0     C71880   1.103   9.986   8.170  0.1477 -0.6747  0.4328
  533MOL0     C71881   0.973   9.939   8.239  0.5012  0.4079 -0.5581
  533MOL0     C71882   0.993   9.819   8.332  0.7332  0.0079  0.1056
  533MOL0     C71883   0.869   9.775   8.392 -0.5986  1.3276 -0.1523
  533MOL0     C71884   0.779   9.721   8.449  0.0563 -0.0746  1.5427
  533MOL0     C71885   1.258  10.275   8.243  0.1080  0.8418  0.7529
  533MOL0     C71886   1.366  10.302   8.329 -0.3959  0.0059  0.4441
  533MOL0     C71887   1.339  10.381   8.452 -0.1717 -0.3546 -0.2655
  533MOL0     H71888   1.980  10.238   8.169 -0.4544  2.3617 -0.4198
  533MOL0     H71889   2.160  10.382   8.177 -0.6759 -1.3476  0.5157
  533MOL0     H71890   2.318  10.516   8.217 -0.9250 -0.8282 -0.5965
  533MOL0     H71891   2.229  10.602   8.096  0.0009  1.0217 -0.6182
  533MOL0     H71892   2.306  10.815   8.158 -0.7877 -0.0758 -1.2982
  533MOL0     H71893   2.432  10.699   8.111  0.0291 -0.7510  1.0490
  533MOL0     H71894   2.504  10.669   8.344 -1.6384 -0.7035  0.4121
  533MOL0     H71895   2.371  10.744   8.410  0.9869 -2.0831  1.8391
  533MOL0     H71896   2.588  10.901   8.253 -2.5845  2.0060 -1.9690
  533MOL0     H71897   2.458  10.976   8.333  2.9645  2.2929  0.4367
  533MOL0     H71898   2.525  10.868   8.548 -0.4111 -2.7185 -1.0353
  533MOL0     H71899   2.659  10.786   8.481  0.2870 -0.9765 -0.6449
  533MOL0     H71900   2.620  11.084   8.492  1.7068  1.5193 -0.7430
  533MOL0     H71901   2.728  11.006   8.596  2.4261 -1.7607 -0.5893
  533MOL0     H71902   2.882  11.087   8.447 -2.1311  0.6998  0.7625
  533MOL0     H71903   2.772  11.071   8.310  0.5088  3.4973  1.8726
  533MOL0     H71904   2.924  10.849   8.468 -0.6868  1.2685  0.7942
  533MOL0     H71905   2.828  10.814   8.321 -1.4400  3.2097 -2.8050
  533MOL0     H71906   3.168  10.903   8.411  0.7218  1.1268  0.2400
  533MOL0     H71907   3.405  10.918   8.252  1.8033  0.6414 -1.4455
  533MOL0     H71908   3.353  10.843   8.110  1.5276  1.9035 -2.3899
  533MOL0     H71909   3.495  11.031   8.054 -1.1730 -1.1580 -2.7036
  533MOL0     H71910   3.340  11.087   8.006  0.6717 -1.2361 -0.3428
  533MOL0     H71911   3.414  11.162   8.282  1.5456  0.7166  0.1006
  533MOL0     H71912   3.287  11.223   8.165 -0.3358 -0.4735  1.4931
  533MOL0     H71913   3.465  11.329   8.039 -1.3195 -1.5885  0.7712
  533MOL0     H71914   3.598  11.258   8.122 -0.9230 -2.3487 -4.4869
  533MOL0     H71915   3.445  11.607   8.359 -2.4450 -0.7421  2.4054
  533MOL0     H71916   3.528  11.663   8.602  3.8550  0.5268  0.2914
  533MOL0     H71917   3.562  11.471   9.054  0.7206  1.5278 -0.0650
  533MOL0     H71918   3.653  11.545   9.266  0.6267 -0.2789  1.9792
  533MOL0     H71919   3.772  11.700   9.418 -1.0699 -0.7325  2.2715
  533MOL0     H71920   3.766  11.542   9.480  0.4624 -0.4207  1.0031
  533MOL0     H71921   3.973  11.750   9.561  0.1402  0.0780 -0.4993
  533MOL0     H71922   3.843  11.674   9.653  2.0180  1.4644  1.5976
  533MOL0     H71923   3.930  11.457   9.633  2.1221 -2.7851 -3.4440
  533MOL0     H71924   4.070  11.510   9.549  0.7523 -0.6406  0.8804
  533MOL0     H71925   3.992  11.620   9.823  1.0878  2.0531 -1.0152
  533MOL0     H71926   4.138  11.661   9.743 -1.3916  1.6891  1.7491
  533MOL0     H71927   4.165  11.389   9.728 -0.9356  1.2795 -1.7962
  533MOL0     H71928   4.071  11.421   9.878  1.3007  0.2020  0.8356
  533MOL0     H71929   4.338  11.543   9.778  0.2638 -0.6244  0.6049
  533MOL0     H71930   4.269  11.587   9.940 -1.7413 -0.6216  0.0838
  533MOL0     H71931   4.308  11.302   9.869 -2.5382  2.5198 -2.0429
  533MOL0     H71932   4.288  11.371  10.017  0.2086 -3.6592 -0.0260
  533MOL0     H71933   4.535  11.405   9.841 -0.6377  0.4150 -0.0989
  533MOL0     H71934   4.533  11.481   9.997  0.7512 -0.2111 -0.5040
  533MOL0     H71935   4.061  11.489   9.118  0.2681 -1.7768 -0.8667
  533MOL0     H71936   3.961  11.418   8.901 -1.2821  0.0954 -0.3942
  533MOL0     H71937   3.750  11.297   8.596  0.3940 -0.7792 -1.3868
  533MOL0     H71938   3.661  11.241   8.370 -5.6039 -1.1465 -0.7152
  533MOL0     H71939   1.931  10.665   8.409 -0.8213  2.0710 -1.7512
  533MOL0     H71940   1.751  10.495   8.418 -2.2401 -3.8034 -2.3320
  533MOL0     H71941   1.608  10.170   8.125 -0.1373  0.3792 -1.4283
  533MOL0     H71942   1.405  10.114   7.985  3.9312  1.7225 -1.4289
  533MOL0     H71943   0.980  10.074   8.011 -0.7691 -0.0923  0.5323
  533MOL0     H71944   0.983  10.180   8.137 -0.3890 -0.6594 -0.1069
  533MOL0     H71945   1.156  10.027   8.256 -2.7820  1.8796  1.2145
  533MOL0     H71946   1.170   9.927   8.106 -0.9359 -0.9556 -0.4886
  533MOL0     H71947   0.899   9.902   8.168 -1.8793 -2.6279  3.1489
  533MOL0     H71948   0.941  10.018   8.308  1.6648 -2.2034  3.2692
  533MOL0     H71949   1.030   9.727   8.286 -3.6762 -2.2636  0.5778
  533MOL0     H71950   1.064   9.844   8.411  2.2945  2.0257 -1.8104
  533MOL0     H71951   0.700   9.668   8.500 -1.1631  1.7259  1.5916
  533MOL0     H71952   1.165  10.328   8.263  0.1197  0.7426  1.0640
  533MOL0     H71953   1.242  10.429   8.438 -0.9296 -1.8279 -0.2515
  533MOL0     H71954   1.349  10.322   8.543 -3.0963 -0.0270  0.3756
  533MOL0     H71955   1.415  10.460   8.452  0.4485 -0.9325  0.8188
  534MOL0     O71956   9.179   6.102   7.763 -0.0591  0.0560 -0.3174
  534MOL0     C71957   9.290   6.068   7.734  0.3146  0.6919 -0.2661
  534MOL0     O71958   9.357   6.086   7.621  0.3607  0.0150 -0.3863
  534MOL0     C71959   9.332   6.209   7.557 -0.0722 -0.1701 -0.0500
  534MOL0     C71960   9.233   6.215   7.460 -0.6300  0.6425 -0.1264
  534MOL0     C71961   9.221   6.330   7.386  0.5069 -0.8325  0.6303
  534MOL0     C71962   9.281   6.453   7.426  0.4870  0.6135 -0.6453
  534MOL0     O71963   9.251   6.576   7.376  0.1889 -0.4334 -0.0559
  534MOL0     C71964   9.127   6.598   7.303  0.9163  0.5083 -0.4580
  534MOL0     C71965   9.162   6.591   7.157  0.4411  0.9849 -0.6722
  534MOL0     C71966   9.043   6.611   7.062  1.3267  0.1062  0.0305
  534MOL0     C71967   9.021   6.758   7.016 -0.0594  0.3534  0.2599
  534MOL0     C71968   8.873   6.769   6.971 -0.5620  0.5043 -0.3779
  534MOL0     C71969   8.866   6.714   6.827 -0.1965  0.1411 -0.3243
  534MOL0     C71970   8.720   6.722   6.783  0.8009  0.7650 -0.1981
  534MOL0     C71971   8.694   6.679   6.638 -0.4096 -0.9482 -0.7102
  534MOL0     N71972   8.714   6.536   6.633  0.4974  0.5291  0.3314
  534MOL0     C71973   8.600   6.462   6.609 -0.7660 -0.1997  0.5051
  534MOL0     C71974   8.654   6.335   6.582 -0.2666 -0.0482 -0.5422
  534MOL0     C71975   8.580   6.201   6.573 -0.2199  0.5612  0.5521
  534MOL0     C71976   8.491   6.193   6.441 -0.0105  0.3278 -0.5631
  534MOL0     C71977   8.412   6.056   6.408  0.5162  0.4862  0.3208
  534MOL0     C71978   8.353   6.057   6.263 -0.2183  0.0279  0.2558
  534MOL0     O71979   8.235   6.138   6.246 -0.1680 -0.1096 -0.1178
  534MOL0     C71980   8.158   6.144   6.124 -0.0464  0.1580 -0.7489
  534MOL0     C71981   8.060   6.245   6.106 -0.5964 -0.4900 -0.5856
  534MOL0     C71982   7.983   6.245   5.992 -0.1590 -0.3948 -0.3179
  534MOL0     C71983   7.994   6.158   5.887  0.4093  0.5343  0.9605
  534MOL0     C71984   7.913   6.160   5.765 -0.0108  0.2448 -0.2472
  534MOL0     O71985   7.827   6.264   5.741  0.7775 -0.7495 -0.5280
  534MOL0     C71986   7.723   6.260   5.642 -0.1750  1.2431  0.1073
  534MOL0     C71987   7.679   6.148   5.567 -0.0270  0.2275 -0.4318
  534MOL0     C71988   7.587   6.161   5.469 -0.4522  0.1904  0.0500
  534MOL0     C71989   7.546   6.288   5.431  0.5774  0.4032  0.2967
  534MOL0     O71990   7.446   6.309   5.343 -0.6330 -0.5636  0.2399
  534MOL0     C71991   7.395   6.199   5.267 -0.1177  0.7737 -0.3600
  534MOL0     C71992   7.309   6.241   5.147  0.3660 -0.3615 -1.2412
  534MOL0     C71993   7.214   6.343   5.195  0.3100 -0.4757 -0.3393
  534MOL0     C71994   7.143   6.402   5.071  0.5279 -1.8859 -0.4144
  534MOL0     C71995   7.035   6.512   5.107 -0.2965 -0.2540 -0.3412
  534MOL0     C71996   7.086   6.642   5.167  0.0145  0.5786  0.4817
  534MOL0     C71997   7.152   6.723   5.060 -1.1908 -0.7631  0.0880
  534MOL0     C71998   7.193   6.855   5.129  0.4314  0.4223  0.1091
  534MOL0    Cl71999   7.044   6.945   5.160  0.3743 -0.1230 -0.0924
  534MOL0     C72000   7.593   6.403   5.497  0.4244 -0.2225 -0.8782
  534MOL0     C72001   7.681   6.383   5.603 -0.0843  0.2545 -0.0743
  534MOL0     O72002   7.937   6.071   5.682 -0.6946  1.0445 -0.4152
  534MOL0     C72003   8.097   6.065   5.902  1.0680 -0.5974  0.6043
  534MOL0     C72004   8.177   6.056   6.014 -0.2700 -0.3835 -0.4907
  534MOL0     N72005   8.790   6.350   6.590 -0.4543  0.3487  0.0651
  534MOL0     N72006   8.827   6.478   6.603 -0.2698  0.0735 -0.0242
  534MOL0     C72007   9.369   6.440   7.538 -0.1153 -0.8667  0.8644
  534MOL0     C72008   9.401   6.327   7.598  0.4625  0.1508  0.0148
  534MOL0     C72009   9.364   5.980   7.827  0.1753  0.4776  0.1318
  534MOL0     C72010   9.500   6.003   7.846 -0.3157  0.5890  0.2654
  534MOL0     C72011   9.581   5.909   7.908  0.9702  0.6892  0.6002
  534MOL0     C72012   9.526   5.789   7.960  0.3900 -0.9044 -0.2735
  534MOL0     O72013   9.597   5.699   8.034  0.6248 -0.1203 -0.0017
  534MOL0     C72014   9.735   5.686   8.013 -0.1497 -0.0140  0.4037
  534MOL0     C72015   9.782   5.642   7.873  0.9787 -0.7755  0.6633
  534MOL0     C72016   9.936   5.625   7.861  0.2697 -0.6303 -0.4154
  534MOL0     C72017   9.979   5.638   7.717 -0.1690 -0.6611  0.1716
  534MOL0     C72018  10.122   5.579   7.709  0.0470 -0.9815  0.0437
  534MOL0     C72019  10.241   5.545   7.687  0.0860 -0.1912  0.0638
  534MOL0     C72020   9.383   5.783   7.960  0.1024  0.3535  0.4747
  534MOL0     C72021   9.297   5.867   7.890  0.2287 -0.4233 -0.2142
  534MOL0     C72022   9.145   5.843   7.899 -0.3925 -0.1925 -0.4891
  534MOL0     H72023   9.182   6.126   7.423  0.5492 -0.2262  0.2703
  534MOL0     H72024   9.151   6.329   7.303 -0.5182  2.7724  1.2993
  534MOL0     H72025   9.056   6.522   7.336  2.8201 -1.4834 -0.7199
  534MOL0     H72026   9.099   6.700   7.332 -0.5028 -0.3304  1.3212
  534MOL0     H72027   9.206   6.496   7.129 -2.5266 -1.5104  2.2435
  534MOL0     H72028   9.239   6.667   7.145 -1.3567  2.8758 -0.8868
  534MOL0     H72029   8.952   6.561   7.095  0.5511 -0.4933 -2.7547
  534MOL0     H72030   9.075   6.555   6.973  0.0435 -0.2782 -0.1977
  534MOL0     H72031   9.053   6.829   7.092  0.4339  2.1052 -1.5181
  534MOL0     H72032   9.079   6.767   6.924 -3.1179 -0.0581 -1.8505
  534MOL0     H72033   8.803   6.718   7.038 -1.7475  2.5778  0.0796
  534MOL0     H72034   8.838   6.873   6.967 -4.0162 -0.5000  0.5870
  534MOL0     H72035   8.916   6.780   6.756 -0.3899 -0.4293 -1.0015
  534MOL0     H72036   8.911   6.615   6.810 -0.5313  0.3937 -3.1295
  534MOL0     H72037   8.700   6.829   6.797  3.2353  1.7821 -3.4849
  534MOL0     H72038   8.651   6.663   6.846  2.4888 -1.3910 -0.2467
  534MOL0     H72039   8.595   6.703   6.599  0.5299  0.7967 -2.1401
  534MOL0     H72040   8.761   6.737   6.575  2.2234 -2.8307  0.1888
  534MOL0     H72041   8.493   6.475   6.624 -1.0064 -0.4945 -0.8375
  534MOL0     H72042   8.656   6.125   6.551 -0.3932  0.5241  0.0680
  534MOL0     H72043   8.516   6.182   6.660 -3.0276  0.2934 -1.3999
  534MOL0     H72044   8.419   6.275   6.439  0.7728  1.0279 -0.5647
  534MOL0     H72045   8.553   6.213   6.353 -0.7764 -2.3907 -1.8188
  534MOL0     H72046   8.335   6.042   6.484  0.4399  1.5153  0.4517
  534MOL0     H72047   8.483   5.974   6.425  2.3372  1.7667 -0.7602
  534MOL0     H72048   8.324   5.956   6.233 -1.3884  0.7527 -1.2355
  534MOL0     H72049   8.430   6.091   6.193  1.5764 -0.3939  1.9213
  534MOL0     H72050   8.037   6.319   6.182 -0.1645  0.0090 -0.9361
  534MOL0     H72051   7.920   6.332   5.979  1.5459  0.5403 -2.9886
  534MOL0     H72052   7.729   6.052   5.578 -1.9924 -1.0794 -2.1051
  534MOL0     H72053   7.551   6.071   5.421  0.3916  0.4658 -1.1511
  534MOL0     H72054   7.464   6.120   5.236 -2.2738 -1.7841  0.9453
  534MOL0     H72055   7.315   6.156   5.328 -0.7351 -0.6475 -2.0705
  534MOL0     H72056   7.374   6.286   5.072  1.1658  0.2588 -0.1999
  534MOL0     H72057   7.254   6.154   5.109 -6.1822  1.9612  1.3788
  534MOL0     H72058   7.140   6.302   5.264 -1.3870  2.0126 -0.5472
  534MOL0     H72059   7.263   6.433   5.235  3.3168 -2.3075  0.4528
  534MOL0     H72060   7.096   6.311   5.033 -0.1492 -1.7596  0.1034
  534MOL0     H72061   7.212   6.434   4.992 -1.7090 -0.0272 -1.7404
  534MOL0     H72062   6.958   6.467   5.170 -1.7638  3.9455  1.1602
  534MOL0     H72063   6.979   6.533   5.016  0.5769 -2.6356 -1.5197
  534MOL0     H72064   7.001   6.696   5.209  0.7637 -1.4247  5.2865
  534MOL0     H72065   7.156   6.636   5.251 -1.3978  0.4921  1.6826
  534MOL0     H72066   7.088   6.736   4.972 -0.1900  1.1484 -0.4070
  534MOL0     H72067   7.238   6.665   5.025 -1.0667 -0.9200  0.6398
  534MOL0     H72068   7.235   6.833   5.227 -0.6865 -0.7917  0.3344
  534MOL0     H72069   7.268   6.912   5.073 -0.4020  1.5339  0.0975
  534MOL0     H72070   7.553   6.498   5.467 -0.5616 -0.0461  0.8971
  534MOL0     H72071   7.718   6.469   5.659  0.6235  1.3300 -2.1047
  534MOL0     H72072   8.107   6.001   5.814  2.4548 -0.5655  0.7194
  534MOL0     H72073   8.256   5.982   6.028 -0.5503 -0.1110  3.5734
  534MOL0     H72074   9.420   6.529   7.574 -3.8698  2.7335 -1.7830
  534MOL0     H72075   9.476   6.307   7.674  1.3187 -1.4058 -1.1786
  534MOL0     H72076   9.546   6.089   7.798 -0.7508  0.9631  0.5209
  534MOL0     H72077   9.687   5.929   7.921  1.2211  1.8513 -2.4831
  534MOL0     H72078   9.770   5.610   8.083  0.1243 -0.6582 -0.4079
  534MOL0     H72079   9.786   5.779   8.039  1.1565 -0.7563  0.5819
  534MOL0     H72080   9.762   5.723   7.802 -2.1610 -2.8683 -1.0303
  534MOL0     H72081   9.718   5.556   7.853 -0.1864  0.0113  0.9339
  534MOL0     H72082   9.956   5.526   7.901  0.3185 -0.9297 -1.1649
  534MOL0     H72083   9.980   5.704   7.922  2.2594 -1.8391 -0.2117
  534MOL0     H72084   9.904   5.589   7.654 -1.2476  1.0017  0.1254
  534MOL0     H72085   9.992   5.741   7.685  0.5067 -0.8145 -0.0752
  534MOL0     H72086  10.340   5.510   7.668 -0.4556 -0.1902 -3.4033
  534MOL0     H72087   9.329   5.705   8.013  0.0509  0.8768  1.2142
  534MOL0     H72088   9.132   5.740   7.932  0.1692 -0.6741 -1.7026
  534MOL0     H72089   9.092   5.914   7.963 -0.2176  0.6793 -1.2780
  534MOL0     H72090   9.099   5.856   7.801 -2.5887  3.1275  0.8121
  535MOL0     O72091  10.947  11.269   0.851  0.3413 -0.6412  0.1047
  535MOL0     C72092  10.909  11.269   0.734  0.7802 -0.2279 -1.5593
  535MOL0     O72093  10.789  11.229   0.685 -0.3780 -0.6994 -0.9531
  535MOL0     C72094  10.703  11.160   0.760 -0.2461  0.9224 -0.1219
  535MOL0     C72095  10.651  11.204   0.881  0.0857  0.1406 -0.0215
  535MOL0     C72096  10.560  11.124   0.955 -0.0854  0.2415  0.6897
  535MOL0     C72097  10.502  11.011   0.907 -0.5073 -0.0086 -0.4688
  535MOL0     O72098  10.419  10.935   0.984  0.1078  1.2256 -0.0039
  535MOL0     C72099  10.318  10.863   0.920  0.4535  0.7194 -0.7720
  535MOL0     C72100  10.207  10.818   1.019 -0.8695  0.2402 -0.3100
  535MOL0     C72101  10.079  10.906   1.014  0.5582  0.2494  0.3873
  535MOL0     C72102   9.986  10.874   0.900  0.4141  0.8142 -0.5501
  535MOL0     C72103   9.849  10.934   0.923  0.5237  0.5469 -0.0826
  535MOL0     C72104   9.847  11.083   0.954 -0.3671 -0.3092  0.8532
  535MOL0     C72105   9.700  11.123   0.949 -0.0784  0.0138  0.1765
  535MOL0     C72106   9.608  11.073   1.060  0.9932 -1.0341  0.7908
  535MOL0     N72107   9.670  11.059   1.191 -0.3091 -0.4012 -0.3828
  535MOL0     C72108   9.652  10.949   1.274  1.2260  0.0678 -1.2142
  535MOL0     C72109   9.722  10.988   1.385 -0.6583  0.9339 -0.2542
  535MOL0     C72110   9.740  10.925   1.521 -1.1589 -1.0922 -0.5939
  535MOL0     C72111   9.747  10.773   1.504 -0.0970  0.8744  0.5502
  535MOL0     C72112   9.853  10.724   1.389 -0.7293  0.3227  0.0419
  535MOL0     C72113   9.853  10.566   1.388 -0.2026 -0.6610  0.4779
  535MOL0     O72114   9.728  10.508   1.355  0.4596  0.0874  0.4912
  535MOL0     C72115   9.661  10.561   1.252  0.7797 -0.6846  0.1618
  535MOL0     C72116   9.528  10.586   1.271 -0.3536 -0.1143  0.0101
  535MOL0     C72117   9.443  10.648   1.179  0.2227  0.7977 -0.2993
  535MOL0     C72118   9.495  10.680   1.056  0.1695  0.3207 -0.7220
  535MOL0     C72119   9.413  10.757   0.957  0.2409  0.4351  0.0956
  535MOL0     O72120   9.288  10.797   0.988  0.1365 -0.2408  0.2962
  535MOL0     C72121   9.199  10.852   0.896 -0.4649  1.1324  0.0226
  535MOL0     C72122   9.117  10.949   0.945  0.9806 -0.9474 -0.1203
  535MOL0     C72123   9.027  11.020   0.859 -0.8043 -0.3744  0.4266
  535MOL0     C72124   9.017  10.995   0.720  0.0037  0.0228 -0.5968
  535MOL0     O72125   8.919  11.044   0.636 -0.2230 -0.6967 -0.0281
  535MOL0     C72126   8.893  11.187   0.648 -0.8568  0.2432 -0.1902
  535MOL0     C72127   8.795  11.208   0.531  0.9144  0.4275 -0.4847
  535MOL0     C72128   8.648  11.146   0.543 -0.6032  0.3710 -0.4251
  535MOL0     C72129   8.588  11.159   0.682  0.2318 -0.8807  0.2046
  535MOL0     C72130   8.447  11.111   0.700 -0.3612  0.6498 -0.2576
  535MOL0     C72131   8.366  11.119   0.564  0.3970  0.0864 -0.1903
  535MOL0     C72132   8.211  11.082   0.580  0.1799  0.0405  0.3339
  535MOL0     C72133   8.147  11.131   0.714 -0.2127 -0.0523  0.8136
  535MOL0    Cl72134   8.152  11.015   0.848 -0.3576  0.1547 -0.1728
  535MOL0     C72135   9.108  10.897   0.679  0.0759  0.4460 -0.7190
  535MOL0     C72136   9.192  10.826   0.757 -0.1072  0.2199  0.3080
  535MOL0     O72137   9.458  10.771   0.851  0.1638  0.5507  0.6144
  535MOL0     C72138   9.630  10.640   1.029  0.6142  0.7910  0.6246
  535MOL0     C72139   9.714  10.593   1.127 -0.7239 -0.1075 -0.3209
  535MOL0     N72140   9.776  11.119   1.371 -0.1509 -0.1840  0.3193
  535MOL0     N72141   9.735  11.161   1.253 -0.7045 -0.0766  0.6930
  535MOL0     C72142  10.532  10.976   0.777 -0.7832 -1.0687 -0.6651
  535MOL0     C72143  10.630  11.048   0.706 -0.1320 -0.1126 -0.2925
  535MOL0     C72144  11.017  11.295   0.637 -0.9244  0.2217 -0.3913
  535MOL0     C72145  11.004  11.238   0.514 -0.6392  0.5600  0.9391
  535MOL0     C72146  11.092  11.276   0.412 -1.0353  0.2684  0.6284
  535MOL0     C72147  11.195  11.369   0.431  0.0033 -0.2465  0.0751
  535MOL0     O72148  11.291  11.411   0.337  0.0205 -0.3697  0.2931
  535MOL0     C72149  11.262  11.366   0.200 -0.3085 -0.4712  0.0997
  535MOL0     C72150  11.154  11.453   0.139 -0.6004  1.3366 -0.1526
  535MOL0     C72151  11.123  11.428  -0.011 -0.2071 -0.5285 -0.1539
  535MOL0     C72152  11.098  11.282  -0.055  0.1304 -0.5358 -0.1615
  535MOL0     C72153  10.966  11.249   0.005  0.1703  0.2160 -0.0236
  535MOL0     C72154  10.862  11.224   0.068  0.6350  0.0499 -0.1539
  535MOL0     C72155  11.212  11.423   0.549 -0.1553  0.1190 -0.4458
  535MOL0     C72156  11.119  11.395   0.655  0.0468  0.3665  0.0560
  535MOL0     C72157  11.128  11.480   0.775  0.4024 -0.3070  0.1305
  535MOL0     H72158  10.688  11.297   0.922  2.9212 -0.4526 -1.0111
  535MOL0     H72159  10.542  11.160   1.056  0.9997  2.4337  0.1667
  535MOL0     H72160  10.261  10.904   0.837  1.6048 -4.6321 -4.7243
  535MOL0     H72161  10.354  10.770   0.876  2.1013  2.1952 -2.7426
  535MOL0     H72162  10.254  10.833   1.117  4.2623  2.4873 -2.7252
  535MOL0     H72163  10.179  10.714   1.005 -0.3186  0.2285 -1.4518
  535MOL0     H72164  10.097  11.013   1.006  1.6190  0.3028  2.7939
  535MOL0     H72165  10.031  10.892   1.111 -0.3573 -0.1309 -0.1036
  535MOL0     H72166  10.023  10.917   0.806  2.3120  0.4044 -0.0468
  535MOL0     H72167   9.973  10.766   0.883 -0.2816  1.0882 -1.8746
  535MOL0     H72168   9.782  10.927   0.837 -0.8376  3.1269  0.6385
  535MOL0     H72169   9.791  10.868   0.989 -1.6767  1.3985 -1.0492
  535MOL0     H72170   9.890  11.087   1.055 -2.4496  2.2339  1.7650
  535MOL0     H72171   9.916  11.127   0.881  2.0448 -3.8577  0.7544
  535MOL0     H72172   9.663  11.088   0.852  1.2966 -0.7353 -0.1049
  535MOL0     H72173   9.702  11.232   0.943 -2.6688  0.2003  1.2418
  535MOL0     H72174   9.529  11.147   1.070  2.3072  0.1804  2.7590
  535MOL0     H72175   9.560  10.981   1.024  5.0557 -2.7145 -0.9734
  535MOL0     H72176   9.605  10.853   1.257  1.7657 -0.1691 -1.4087
  535MOL0     H72177   9.826  10.971   1.569 -3.7726  3.0955  0.5744
  535MOL0     H72178   9.655  10.954   1.584  1.0930  1.2864  1.5710
  535MOL0     H72179   9.795  10.734   1.594  0.8955 -1.2493 -0.8137
  535MOL0     H72180   9.646  10.731   1.494  1.2772 -2.7868  0.6767
  535MOL0     H72181   9.945  10.771   1.424 -1.1384 -0.2592  2.0262
  535MOL0     H72182   9.828  10.768   1.292 -0.1587 -0.3509 -0.4247
  535MOL0     H72183   9.884  10.550   1.492 -0.4122  3.5793  1.3823
  535MOL0     H72184   9.931  10.521   1.327 -0.2756 -3.6698  2.4131
  535MOL0     H72185   9.498  10.575   1.375  0.0275  0.0168  0.1379
  535MOL0     H72186   9.337  10.656   1.202 -0.1197 -0.7711 -1.1457
  535MOL0     H72187   9.112  10.977   1.050 -0.5448  0.9744 -0.6379
  535MOL0     H72188   8.957  11.086   0.909 -0.1923  2.2085 -1.8269
  535MOL0     H72189   8.858  11.219   0.746  0.2160 -0.1392  0.3383
  535MOL0     H72190   8.992  11.234   0.639 -0.5217 -0.3331  0.3249
  535MOL0     H72191   8.775  11.315   0.524  0.3643  0.3896  0.2971
  535MOL0     H72192   8.842  11.171   0.439 -1.4075 -0.6719 -1.3014
  535MOL0     H72193   8.587  11.212   0.480 -3.2424 -0.7204  0.8489
  535MOL0     H72194   8.657  11.038   0.523 -1.3781 -0.1690  1.8783
  535MOL0     H72195   8.597  11.266   0.704 -0.4776 -0.5638 -0.9592
  535MOL0     H72196   8.642  11.102   0.759  1.5408  2.2283  1.7880
  535MOL0     H72197   8.396  11.175   0.773 -1.3498  1.1107 -1.3176
  535MOL0     H72198   8.449  11.010   0.741 -1.3845  1.0590  0.8628
  535MOL0     H72199   8.372  11.222   0.526 -1.0034 -1.2470 -4.7598
  535MOL0     H72200   8.409  11.064   0.479 -0.6585 -1.4276  0.1998
  535MOL0     H72201   8.198  10.974   0.581  0.2462  0.0238 -0.1516
  535MOL0     H72202   8.160  11.132   0.498  2.1665 -1.5264 -2.0072
  535MOL0     H72203   8.176  11.231   0.746 -1.5899 -0.0984  2.2809
  535MOL0     H72204   8.039  11.146   0.703  0.3149  3.4726 -1.0784
  535MOL0     H72205   9.116  10.886   0.571  3.9689  0.2305 -0.5352
  535MOL0     H72206   9.244  10.740   0.715 -0.5736 -0.2336  0.6307
  535MOL0     H72207   9.671  10.662   0.930  0.7607  0.0228  0.5068
  535MOL0     H72208   9.819  10.572   1.108 -0.4161  2.5056 -2.0085
  535MOL0     H72209  10.478  10.895   0.729 -2.8772  0.2265 -0.6389
  535MOL0     H72210  10.651  11.012   0.606  3.3635 -0.1776  0.3608
  535MOL0     H72211  10.918  11.176   0.492  1.4104 -1.6747 -1.4262
  535MOL0     H72212  11.072  11.209   0.329  1.1557  1.0863 -0.6480
  535MOL0     H72213  11.237  11.260   0.198  1.1200 -0.8210 -1.3584
  535MOL0     H72214  11.357  11.365   0.146 -0.0132  0.9842  0.5453
  535MOL0     H72215  11.182  11.556   0.161  2.3853 -0.1384  4.3680
  535MOL0     H72216  11.066  11.422   0.197  1.9017  0.1661  3.3433
  535MOL0     H72217  11.210  11.468  -0.064  0.0433 -0.1568  0.5255
  535MOL0     H72218  11.046  11.494  -0.051  1.2159  1.9988  1.0141
  535MOL0     H72219  11.086  11.275  -0.163 -1.1878 -1.1860  0.0038
  535MOL0     H72220  11.165  11.215   0.001 -2.5962 -1.7816  1.8478
  535MOL0     H72221  10.774  11.210   0.128 -1.3306  2.9207 -2.0780
  535MOL0     H72222  11.297  11.491   0.559 -1.9100  2.5401 -1.1294
  535MOL0     H72223  11.039  11.542   0.788 -0.5818 -1.5894 -0.3689
  535MOL0     H72224  11.129  11.415   0.863 -3.1627 -2.2123 -1.0647
  535MOL0     H72225  11.213  11.549   0.784 -0.6511  1.2121 -1.1080
  536MOL0     O72226   6.092   9.506   2.367  0.2966 -0.2082 -0.5243
  536MOL0     C72227   5.968   9.518   2.384  0.1123 -0.7058  1.0204
  536MOL0     O72228   5.887   9.414   2.414 -0.2852  0.1976 -0.1765
  536MOL0     C72229   5.934   9.295   2.384  1.1067 -0.1217  0.3441
  536MOL0     C72230   5.977   9.215   2.487  0.5301  1.1008  0.3357
  536MOL0     C72231   6.019   9.081   2.471 -0.3612  0.2950  0.3102
  536MOL0     C72232   6.020   9.026   2.343 -0.1705  0.1420 -0.7338
  536MOL0     O72233   6.071   8.903   2.301  0.0206  0.1230 -0.0332
  536MOL0     C72234   6.173   8.841   2.382 -0.2374  0.8645 -0.2256
  536MOL0     C72235   6.187   8.691   2.333  0.2419 -0.3301 -0.0184
  536MOL0     C72236   6.247   8.598   2.446 -0.0735 -0.6668 -0.0811
  536MOL0     C72237   6.146   8.568   2.559 -0.1852 -0.1026 -0.0345
  536MOL0     C72238   6.039   8.468   2.531 -0.0575  0.4116 -0.1935
  536MOL0     C72239   5.998   8.394   2.663 -1.2421  0.0592  0.3961
  536MOL0     C72240   5.912   8.269   2.628 -0.5479 -0.3415  0.1865
  536MOL0     C72241   5.816   8.227   2.748 -0.0650  0.6244 -0.5187
  536MOL0     N72242   5.760   8.085   2.749 -0.1340 -0.5848  0.3040
  536MOL0     C72243   5.685   8.025   2.654 -1.0266  0.0543 -0.1779
  536MOL0     C72244   5.620   7.916   2.718  0.0559 -0.6745 -0.8739
  536MOL0     C72245   5.549   7.803   2.652 -0.1035 -0.1039 -0.2216
  536MOL0     C72246   5.478   7.833   2.518 -0.6846 -0.5027 -0.1396
  536MOL0     C72247   5.423   7.705   2.453  0.6513  0.5794 -0.6994
  536MOL0     C72248   5.382   7.730   2.305  0.2326  0.6550  0.3557
  536MOL0     O72249   5.301   7.621   2.247 -0.0836  0.4209 -0.3131
  536MOL0     C72250   5.370   7.511   2.216  0.9180  0.9637 -0.3363
  536MOL0     C72251   5.509   7.489   2.213  0.2297 -0.1082  0.4697
  536MOL0     C72252   5.563   7.360   2.185 -0.4985 -0.7092  0.9322
  536MOL0     C72253   5.477   7.247   2.172  1.0424  0.0445  0.7847
  536MOL0     C72254   5.537   7.111   2.178  0.1650 -0.4691  1.3461
  536MOL0     O72255   5.441   7.016   2.154  0.6841  0.0278 -0.5708
  536MOL0     C72256   5.491   6.886   2.123 -0.2745  0.2510 -0.4450
  536MOL0     C72257   5.437   6.828   2.011 -0.0841 -0.6283 -0.4378
  536MOL0     C72258   5.476   6.698   1.974 -0.5418  0.3930 -0.4543
  536MOL0     C72259   5.565   6.622   2.054  0.6332  0.4322 -0.0769
  536MOL0     O72260   5.610   6.491   2.019  0.0918 -0.3155  0.4654
  536MOL0     C72261   5.511   6.397   2.060 -0.3008  0.0807 -0.5115
  536MOL0     C72262   5.560   6.343   2.201  0.0202  0.8798 -0.4094
  536MOL0     C72263   5.504   6.201   2.223 -0.7038 -0.2978 -0.7725
  536MOL0     C72264   5.522   6.148   2.371  0.5731  0.0436 -0.5425
  536MOL0     C72265   5.425   6.033   2.415 -0.6489 -0.2446  0.7968
  536MOL0     C72266   5.428   5.901   2.340  0.2047  0.3528 -0.1769
  536MOL0     C72267   5.563   5.832   2.344  0.3134  0.5882 -0.4963
  536MOL0     C72268   5.563   5.702   2.250  0.1757  0.8890 -0.4328
  536MOL0    Cl72269   5.431   5.595   2.317 -0.2060  0.1018 -0.1703
  536MOL0     C72270   5.613   6.682   2.166  0.1390  0.0918  0.0309
  536MOL0     C72271   5.588   6.815   2.191  1.4824  0.1816 -0.2642
  536MOL0     O72272   5.658   7.091   2.210  0.6381  0.0018 -0.4305
  536MOL0     C72273   5.338   7.275   2.165 -0.9131  0.2747 -0.4127
  536MOL0     C72274   5.287   7.405   2.189 -0.1735  0.2410 -0.3259
  536MOL0     N72275   5.650   7.923   2.853  0.7668  0.2672  0.1412
  536MOL0     N72276   5.730   8.024   2.868  0.1950  0.0989  0.0417
  536MOL0     C72277   5.979   9.114   2.236 -0.7268 -0.4743 -0.1009
  536MOL0     C72278   5.935   9.247   2.250  1.3138 -0.2720 -0.0911
  536MOL0     C72279   5.912   9.662   2.372 -0.3562  0.0258 -0.2856
  536MOL0     C72280   5.774   9.671   2.361  0.3822 -0.2851 -0.8579
  536MOL0     C72281   5.708   9.791   2.353  0.4408 -0.6400  0.3879
  536MOL0     C72282   5.775   9.910   2.324  0.9557 -1.8551  0.3677
  536MOL0     O72283   5.713  10.025   2.288  1.1416  0.7903 -0.0767
  536MOL0     C72284   5.593  10.064   2.355 -0.2568  0.3278 -0.2991
  536MOL0     C72285   5.599  10.218   2.360  0.5949 -0.6683 -0.2656
  536MOL0     C72286   5.493  10.290   2.450  1.0429 -0.6237  0.4424
  536MOL0     C72287   5.457  10.444   2.419  0.5259  0.9586 -0.2509
  536MOL0     C72288   5.337  10.445   2.328  0.8793  0.4693 -0.4519
  536MOL0     C72289   5.229  10.427   2.269 -0.8246  0.1505  0.3673
  536MOL0     C72290   5.912   9.916   2.359 -0.2097  0.2753 -0.5177
  536MOL0     C72291   5.985   9.793   2.381  0.7345  0.2817 -0.1405
  536MOL0     C72292   6.132   9.788   2.403 -0.0930  0.1067  0.5152
  536MOL0     H72293   5.974   9.257   2.587  0.7434  1.9741 -0.0176
  536MOL0     H72294   6.065   9.033   2.556  1.3160  2.3522  0.6233
  536MOL0     H72295   6.265   8.900   2.380  0.8880 -0.5844  2.9546
  536MOL0     H72296   6.139   8.833   2.485 -0.3197  0.3695 -0.2903
  536MOL0     H72297   6.251   8.677   2.246  0.5614 -4.1994  0.6547
  536MOL0     H72298   6.085   8.654   2.317 -0.3445  0.3073  1.9248
  536MOL0     H72299   6.331   8.648   2.496 -0.0236  0.2302 -1.0257
  536MOL0     H72300   6.286   8.512   2.391 -1.3647  0.9998 -3.9757
  536MOL0     H72301   6.212   8.527   2.637 -0.1170  3.3909  1.9437
  536MOL0     H72302   6.099   8.656   2.603 -0.9113 -0.0982 -0.8153
  536MOL0     H72303   5.953   8.513   2.480 -0.1432 -2.2393 -2.6732
  536MOL0     H72304   6.075   8.393   2.460 -1.9355  1.0315 -1.9336
  536MOL0     H72305   6.090   8.363   2.713 -1.4215  0.2683  0.8564
  536MOL0     H72306   5.940   8.463   2.724  0.1927  0.8164  0.9699
  536MOL0     H72307   5.979   8.184   2.613 -2.0425 -1.9844  2.2177
  536MOL0     H72308   5.852   8.282   2.538 -0.9189  1.5498  0.6553
  536MOL0     H72309   5.875   8.237   2.840  1.1076 -0.2559 -1.1554
  536MOL0     H72310   5.730   8.293   2.759 -2.6884 -2.6944  0.5897
  536MOL0     H72311   5.687   8.048   2.548 -0.7013 -0.9562 -0.4002
  536MOL0     H72312   5.625   7.729   2.625 -1.6547 -1.9413  0.1750
  536MOL0     H72313   5.481   7.761   2.727  0.0795 -1.2016 -0.6491
  536MOL0     H72314   5.402   7.909   2.538  1.8710  1.9740  0.9936
  536MOL0     H72315   5.545   7.882   2.446 -1.0598 -0.3404 -0.3836
  536MOL0     H72316   5.332   7.678   2.508  1.0764  4.8683  2.6078
  536MOL0     H72317   5.493   7.622   2.465 -1.9960 -1.3725  3.7366
  536MOL0     H72318   5.460   7.766   2.238  0.1389 -3.4468 -2.3252
  536MOL0     H72319   5.304   7.806   2.306  0.3150  0.7990 -1.7160
  536MOL0     H72320   5.578   7.567   2.244 -0.1575 -0.6231  2.8870
  536MOL0     H72321   5.671   7.354   2.197 -0.3872  1.4883  1.5621
  536MOL0     H72322   5.369   6.880   1.945  2.3450 -1.3519 -3.7344
  536MOL0     H72323   5.445   6.647   1.884 -3.4002  0.1288  0.5544
  536MOL0     H72324   5.408   6.432   2.061  0.7542  3.5537 -0.4026
  536MOL0     H72325   5.509   6.314   1.988 -0.8660 -0.5639  0.2266
  536MOL0     H72326   5.668   6.340   2.189  0.3731  0.1039  2.2412
  536MOL0     H72327   5.530   6.425   2.268 -2.1678  0.2630 -0.5677
  536MOL0     H72328   5.396   6.193   2.206 -1.0970 -1.3415  1.8627
  536MOL0     H72329   5.557   6.132   2.156 -0.6348  1.2252 -2.3724
  536MOL0     H72330   5.493   6.235   2.431 -0.4178 -0.4473 -0.2885
  536MOL0     H72331   5.627   6.136   2.399  0.5856  1.4954  0.1447
  536MOL0     H72332   5.323   6.074   2.412 -1.6956 -2.6799 -0.5280
  536MOL0     H72333   5.439   6.016   2.522 -1.3803  0.9690  1.1008
  536MOL0     H72334   5.345   5.845   2.384 -1.1735 -0.2799 -3.2769
  536MOL0     H72335   5.399   5.919   2.235  2.1145  0.3542 -0.7319
  536MOL0     H72336   5.578   5.801   2.447  3.7997 -2.7857 -1.8146
  536MOL0     H72337   5.633   5.912   2.318  0.0239  0.7738 -0.7262
  536MOL0     H72338   5.536   5.744   2.153  1.7234 -0.3980 -1.4483
  536MOL0     H72339   5.663   5.658   2.245  0.1455  0.9115 -1.2452
  536MOL0     H72340   5.671   6.622   2.235 -0.8148 -2.4276 -1.2197
  536MOL0     H72341   5.646   6.860   2.271  2.0072  0.9907 -1.0899
  536MOL0     H72342   5.274   7.191   2.141 -1.9061  0.9116 -0.0587
  536MOL0     H72343   5.183   7.427   2.171 -0.2158  1.0949  0.8804
  536MOL0     H72344   5.980   9.066   2.139  0.2578 -1.0985  0.1990
  536MOL0     H72345   5.893   9.306   2.169 -0.6276  0.6188  1.5076
  536MOL0     H72346   5.714   9.581   2.362 -1.9338  1.1980 -0.5750
  536MOL0     H72347   5.600   9.791   2.358  0.4613  0.8930  2.4381
  536MOL0     H72348   5.602  10.031   2.459  1.0021 -3.4087 -1.4252
  536MOL0     H72349   5.506  10.017   2.308  1.7403 -0.5722 -3.3621
  536MOL0     H72350   5.572  10.257   2.262  0.1847  1.1031  0.5188
  536MOL0     H72351   5.695  10.254   2.397 -0.9111  1.5643  1.8454
  536MOL0     H72352   5.542  10.290   2.547  2.8907  1.8728 -0.4019
  536MOL0     H72353   5.408  10.221   2.451  3.2907 -3.6097 -0.2924
  536MOL0     H72354   5.436  10.498   2.511 -1.7778 -2.8101  1.7228
  536MOL0     H72355   5.539  10.491   2.365  0.7734  1.1890  0.3212
  536MOL0     H72356   5.131  10.423   2.224 -0.1291 -0.1864 -1.1619
  536MOL0     H72357   5.966  10.010   2.359  3.3272 -1.5952 -0.0826
  536MOL0     H72358   6.182   9.885   2.396 -3.1969  1.7059 -1.8357
  536MOL0     H72359   6.156   9.755   2.504  0.7422  2.5745  1.1867
  536MOL0     H72360   6.177   9.731   2.321 -2.0816  1.3540 -1.5748
  537MOL0     O72361   6.374   7.503   4.987 -0.6805 -0.0226 -0.2466
  537MOL0     C72362   6.344   7.500   4.865 -0.0626  0.3098 -0.1974
  537MOL0     O72363   6.222   7.539   4.805 -0.3432 -0.1889  0.0191
  537MOL0     C72364   6.115   7.567   4.880 -0.2241  0.5908  0.1664
  537MOL0     C72365   6.036   7.681   4.869  1.0245 -0.1411  0.1625
  537MOL0     C72366   5.924   7.704   4.949 -0.3664  0.4523 -0.3944
  537MOL0     C72367   5.883   7.616   5.046  0.4744  0.1691 -0.6659
  537MOL0     O72368   5.766   7.637   5.110 -0.1945 -0.8939 -0.9166
  537MOL0     C72369   5.760   7.762   5.182  0.3554  0.7748 -0.8177
  537MOL0     C72370   5.635   7.751   5.270 -0.9024 -0.6076 -1.0293
  537MOL0     C72371   5.613   7.880   5.356 -0.2104 -0.0107  0.3060
  537MOL0     C72372   5.610   8.010   5.261  0.0857  0.0721  0.4183
  537MOL0     C72373   5.578   8.134   5.355 -0.0606  0.1868  0.8289
  537MOL0     C72374   5.665   8.262   5.336 -0.4915  0.0720 -0.1528
  537MOL0     C72375   5.636   8.373   5.439  0.5194  0.0037 -0.1141
  537MOL0     C72376   5.492   8.432   5.419  0.1372  0.0726 -0.7752
  537MOL0     N72377   5.482   8.552   5.506  0.0444  0.1423  0.4073
  537MOL0     C72378   5.466   8.680   5.458 -0.2630 -0.0035  0.0633
  537MOL0     C72379   5.449   8.756   5.571 -0.7253  0.1663 -0.8396
  537MOL0     C72380   5.427   8.904   5.579 -0.0932 -0.7283  0.5124
  537MOL0     C72381   5.528   8.989   5.500 -0.1337 -0.2519  0.7607
  537MOL0     C72382   5.488   9.128   5.534 -0.0568  0.3167  0.0440
  537MOL0     C72383   5.614   9.212   5.521 -0.1558  0.9157  0.9104
  537MOL0     O72384   5.556   9.349   5.511  0.8251  0.7642  0.5670
  537MOL0     C72385   5.627   9.455   5.457 -0.0965 -0.0414  0.0164
  537MOL0     C72386   5.554   9.564   5.407 -0.2686 -1.0109  0.9875
  537MOL0     C72387   5.614   9.667   5.339 -0.9494 -0.8014 -0.6479
  537MOL0     C72388   5.759   9.665   5.330  0.2199  0.4366  0.0743
  537MOL0     C72389   5.833   9.773   5.260  0.4658 -0.2549  0.0243
  537MOL0     O72390   5.968   9.762   5.278  0.4186  0.0579  0.5301
  537MOL0     C72391   6.039   9.856   5.206  0.1203  0.4096  0.3646
  537MOL0     C72392   6.025  10.000   5.222 -0.0518  0.2752  0.9456
  537MOL0     C72393   6.103  10.091   5.144 -0.7285  0.4167 -0.0778
  537MOL0     C72394   6.219  10.046   5.076  0.7963  0.8777 -0.7636
  537MOL0     O72395   6.305  10.134   5.013  0.4390 -0.1233 -0.2934
  537MOL0     C72396   6.418  10.085   4.943 -0.8271  0.2264  0.5982
  537MOL0     C72397   6.535  10.083   5.047  0.0752 -0.2916 -0.4779
  537MOL0     C72398   6.575  10.224   5.110 -0.9836 -0.6053 -0.5279
  537MOL0     C72399   6.703  10.204   5.191 -1.0642 -0.1285 -0.3980
  537MOL0     C72400   6.747  10.331   5.261 -0.5925 -0.3541 -0.8149
  537MOL0     C72401   6.868  10.297   5.359 -0.1620 -0.2787 -0.0375
  537MOL0     C72402   6.965  10.418   5.390 -0.0830 -0.2174  0.1474
  537MOL0     C72403   7.065  10.375   5.496  0.5494  0.3845  0.7551
  537MOL0    Cl72404   7.148  10.217   5.444 -0.2334  0.2509 -0.1350
  537MOL0     C72405   6.244   9.908   5.078 -0.4052  0.0474  0.4920
  537MOL0     C72406   6.153   9.816   5.131 -0.2203  0.4232 -0.3727
  537MOL0     O72407   5.779   9.870   5.209 -0.6796 -0.1108  0.3117
  537MOL0     C72408   5.830   9.553   5.384  0.5246 -0.1382 -1.3160
  537MOL0     C72409   5.767   9.455   5.458 -0.3398 -0.3747 -0.2083
  537MOL0     N72410   5.476   8.671   5.680  1.9473  0.2545 -1.1688
  537MOL0     N72411   5.489   8.549   5.641 -1.4085  0.7214 -0.0136
  537MOL0     C72412   5.967   7.509   5.069 -1.1072 -0.2602  0.2090
  537MOL0     C72413   6.085   7.485   4.989 -0.5646  0.3221  0.4613
  537MOL0     C72414   6.446   7.466   4.766  0.2906 -0.1898  0.7590
  537MOL0     C72415   6.412   7.373   4.667 -0.0013 -0.1448 -0.1900
  537MOL0     C72416   6.508   7.334   4.570  0.5909  0.2180  1.0090
  537MOL0     C72417   6.632   7.395   4.570 -0.1218  0.2617  0.3538
  537MOL0     O72418   6.721   7.373   4.461  0.3548 -0.3019 -0.2806
  537MOL0     C72419   6.857   7.367   4.490  0.9140  0.4470 -0.8531
  537MOL0     C72420   6.927   7.303   4.363 -0.5892  0.1362 -1.1276
  537MOL0     C72421   7.077   7.324   4.363  0.4628  0.9425 -0.0318
  537MOL0     C72422   7.150   7.257   4.252 -1.3696 -0.2458  0.2441
  537MOL0     C72423   7.103   7.290   4.115  0.6276  0.4656 -0.3876
  537MOL0     C72424   7.056   7.331   4.012 -0.5435 -0.3888  0.0280
  537MOL0     C72425   6.666   7.488   4.669  0.4018  0.4224 -0.3388
  537MOL0     C72426   6.575   7.520   4.771  0.2047 -0.0829  0.1056
  537MOL0     C72427   6.624   7.629   4.869  0.1810 -0.0219  0.3016
  537MOL0     H72428   6.054   7.755   4.792 -1.9776  1.7745  1.1312
  537MOL0     H72429   5.862   7.790   4.926 -0.2180  0.2640 -1.5503
  537MOL0     H72430   5.855   7.777   5.235  1.4096 -2.6122 -1.4946
  537MOL0     H72431   5.744   7.845   5.113  2.2366  2.6086  0.8021
  537MOL0     H72432   5.630   7.664   5.337 -0.8476  1.1960  1.4683
  537MOL0     H72433   5.551   7.736   5.201 -1.5848  1.2392 -0.6534
  537MOL0     H72434   5.671   7.884   5.449  2.2471  0.9543 -1.1757
  537MOL0     H72435   5.513   7.881   5.400  0.0626 -0.7032  0.9500
  537MOL0     H72436   5.701   8.032   5.205  0.9308 -0.3003  1.6064
  537MOL0     H72437   5.534   8.002   5.183 -0.6689 -0.8786  1.2231
  537MOL0     H72438   5.474   8.166   5.341  1.3864  5.1143 -0.5554
  537MOL0     H72439   5.587   8.104   5.460 -2.2129 -0.0595  0.9925
  537MOL0     H72440   5.765   8.233   5.372 -1.0127 -0.2875  1.0640
  537MOL0     H72441   5.665   8.306   5.236 -2.3095  0.0577 -0.1854
  537MOL0     H72442   5.704   8.458   5.430  0.8008 -0.3434 -1.6926
  537MOL0     H72443   5.659   8.329   5.537 -0.6522 -2.7685 -0.9750
  537MOL0     H72444   5.476   8.465   5.316 -0.7864  1.0962 -0.3196
  537MOL0     H72445   5.411   8.366   5.449 -1.6675  3.7597  3.6883
  537MOL0     H72446   5.454   8.725   5.360 -1.6871  3.2060  1.5965
  537MOL0     H72447   5.325   8.920   5.544 -0.0374  1.3487  1.2120
  537MOL0     H72448   5.427   8.935   5.683 -0.9129 -1.5684  0.7743
  537MOL0     H72449   5.626   8.964   5.541  0.1594 -0.0294  0.2013
  537MOL0     H72450   5.532   8.969   5.393 -1.3724  3.1530 -0.0466
  537MOL0     H72451   5.458   9.138   5.639  2.4692 -2.3838  1.1225
  537MOL0     H72452   5.413   9.155   5.458  2.3200  2.1133 -1.8302
  537MOL0     H72453   5.668   9.173   5.433 -0.2601 -3.9309  2.6885
  537MOL0     H72454   5.677   9.199   5.609 -0.4591  1.9853  1.2951
  537MOL0     H72455   5.448   9.542   5.407 -0.4598 -0.1923 -0.1144
  537MOL0     H72456   5.544   9.743   5.306 -0.2091  1.0653  1.7662
  537MOL0     H72457   5.939  10.039   5.276  2.8649  4.3457  3.2673
  537MOL0     H72458   6.099  10.199   5.140  3.5729  0.8752  2.2424
  537MOL0     H72459   6.398   9.993   4.888 -0.9919  0.0452  0.9614
  537MOL0     H72460   6.452  10.160   4.870 -2.7059  1.5208  0.9629
  537MOL0     H72461   6.524  10.013   5.130 -0.8082 -3.4763 -3.0589
  537MOL0     H72462   6.618  10.043   4.988  0.3123 -0.6029  0.0635
  537MOL0     H72463   6.590  10.293   5.027  0.0448 -0.7030 -0.4475
  537MOL0     H72464   6.488  10.259   5.165  0.7608  1.4878  1.0542
  537MOL0     H72465   6.786  10.166   5.131  0.5055  3.8604 -1.1095
  537MOL0     H72466   6.684  10.122   5.261  1.0524 -1.5207 -1.3670
  537MOL0     H72467   6.674  10.390   5.317  0.9679  0.6034  0.2934
  537MOL0     H72468   6.779  10.401   5.183 -0.2748  0.9703  0.4561
  537MOL0     H72469   6.821  10.250   5.445 -2.8332  3.7637  1.0060
  537MOL0     H72470   6.927  10.228   5.299  2.2392  2.7446 -1.4668
  537MOL0     H72471   6.907  10.500   5.433  0.5250 -0.5291  1.6544
  537MOL0     H72472   7.017  10.440   5.297  1.5580 -0.9460  0.8391
  537MOL0     H72473   7.138  10.455   5.509  0.8734  0.1543  0.3843
  537MOL0     H72474   7.024  10.349   5.594  0.0126  1.8401  0.9454
  537MOL0     H72475   6.330   9.863   5.030 -0.6072 -1.6683  1.6414
  537MOL0     H72476   6.160   9.709   5.122  1.3193  0.5588 -1.0641
  537MOL0     H72477   5.939   9.557   5.386  0.5774  1.7338  3.2509
  537MOL0     H72478   5.809   9.373   5.516 -0.3512  0.7968  1.5204
  537MOL0     H72479   5.953   7.451   5.159  0.2752 -0.6361  0.2060
  537MOL0     H72480   6.128   7.387   5.009 -0.3059  0.5371  1.0008
  537MOL0     H72481   6.316   7.324   4.674 -0.0934  0.2045  1.2737
  537MOL0     H72482   6.497   7.257   4.493  2.3644  0.5555  0.3819
  537MOL0     H72483   6.871   7.296   4.572 -2.5010 -1.3464 -1.6523
  537MOL0     H72484   6.904   7.465   4.504 -0.1887  1.2159 -2.3375
  537MOL0     H72485   6.877   7.344   4.274  0.5775  0.9979 -1.4191
  537MOL0     H72486   6.900   7.198   4.361  0.5276 -0.1561 -2.5515
  537MOL0     H72487   7.119   7.278   4.453  0.8445  3.8693  1.4000
  537MOL0     H72488   7.097   7.429   4.384  1.3469  0.2994  2.9420
  537MOL0     H72489   7.255   7.289   4.253 -0.0474 -3.9942 -0.9647
  537MOL0     H72490   7.153   7.151   4.279  2.6362 -0.4059 -0.2424
  537MOL0     H72491   7.022   7.366   3.917 -1.4038  2.5134  1.2776
  537MOL0     H72492   6.759   7.544   4.665  0.7162 -0.1709 -2.8490
  537MOL0     H72493   6.721   7.673   4.845 -0.2326 -0.0294 -1.5751
  537MOL0     H72494   6.546   7.704   4.880 -1.9939 -2.1510  0.4044
  537MOL0     H72495   6.648   7.592   4.969 -0.1725 -0.1876  0.3291
  538MOL0     O72496   3.050   5.305   7.720  0.2219  0.2067  0.1889
  538MOL0     C72497   3.038   5.222   7.812  0.7179 -0.3175 -0.8940
  538MOL0     O72498   2.991   5.094   7.808 -0.7316  0.0691 -0.6543
  538MOL0     C72499   2.971   5.045   7.685 -0.2761 -0.2255 -0.0317
  538MOL0     C72500   3.074   5.013   7.599 -0.6256  0.1989 -0.7638
  538MOL0     C72501   3.049   4.951   7.483 -0.2268  0.0360  0.3400
  538MOL0     C72502   2.924   4.920   7.425 -0.2770  0.3740 -0.4944
  538MOL0     O72503   2.898   4.868   7.299 -0.5475 -0.7521 -0.4138
  538MOL0     C72504   2.780   4.798   7.279  0.2121 -0.4483 -0.7189
  538MOL0     C72505   2.798   4.702   7.162  0.4681  1.1721  0.2324
  538MOL0     C72506   2.790   4.788   7.039 -0.2193 -0.1222 -0.0865
  538MOL0     C72507   2.926   4.850   6.993 -0.5585  0.1339  0.3773
  538MOL0     C72508   2.902   4.928   6.865 -0.4287 -0.7317  0.0201
  538MOL0     C72509   3.006   5.045   6.836  0.2489  0.0773  0.1267
  538MOL0     C72510   2.941   5.178   6.824 -0.7109 -0.7872 -1.0481
  538MOL0     C72511   2.893   5.224   6.963 -0.3193  0.0298 -0.3020
  538MOL0     N72512   2.864   5.370   6.964 -0.0605  0.2668  0.0461
  538MOL0     C72513   2.927   5.472   7.027 -0.6604  0.2060  0.4121
  538MOL0     C72514   2.869   5.590   6.991 -0.2973 -0.0426 -0.3362
  538MOL0     C72515   2.887   5.739   7.011 -0.0794 -0.0372  0.3291
  538MOL0     C72516   3.037   5.776   7.023  0.6563 -0.4685  0.0303
  538MOL0     C72517   3.108   5.757   6.887  0.1067 -0.3378  0.8236
  538MOL0     C72518   3.236   5.836   6.872  0.3367  0.6596 -0.5068
  538MOL0     O72519   3.320   5.772   6.772  0.0536  0.0355  0.7415
  538MOL0     C72520   3.411   5.843   6.698 -0.5802 -0.6913 -0.7566
  538MOL0     C72521   3.479   5.770   6.602 -0.8615 -0.0427 -0.2382
  538MOL0     C72522   3.589   5.824   6.530 -0.3979 -0.2818 -0.6072
  538MOL0     C72523   3.624   5.959   6.553  0.7292  0.4228 -0.2403
  538MOL0     C72524   3.725   6.017   6.469  0.4111 -0.5206 -0.3634
  538MOL0     O72525   3.759   6.147   6.485  0.4885  0.8884 -0.2593
  538MOL0     C72526   3.881   6.192   6.444  0.2581  0.5357 -0.1887
  538MOL0     C72527   3.997   6.124   6.490  0.4311 -0.3436  0.4576
  538MOL0     C72528   4.128   6.175   6.460 -0.6282  0.5514 -0.8982
  538MOL0     C72529   4.146   6.290   6.381  0.7880  0.2166 -0.3226
  538MOL0     O72530   4.261   6.354   6.345 -0.2353  0.4188  0.5469
  538MOL0     C72531   4.376   6.280   6.307 -0.1438  0.3097  0.5906
  538MOL0     C72532   4.369   6.240   6.159  1.2384  0.2104  0.4004
  538MOL0     C72533   4.487   6.296   6.070  0.2480 -0.0169  0.2121
  538MOL0     C72534   4.483   6.255   5.925 -0.0542 -0.0884  0.0156
  538MOL0     C72535   4.576   6.337   5.829 -1.4005  0.3505 -0.8484
  538MOL0     C72536   4.537   6.328   5.686 -0.0345 -0.4049  0.1360
  538MOL0     C72537   4.603   6.440   5.594  0.2174  0.0802 -0.1358
  538MOL0     C72538   4.559   6.437   5.444  0.1744 -0.6922 -0.6965
  538MOL0    Cl72539   4.380   6.438   5.441 -0.6834  0.2886  0.1986
  538MOL0     C72540   4.030   6.371   6.361 -0.3546  0.1549  0.4732
  538MOL0     C72541   3.900   6.321   6.382 -0.5670  0.3372  0.0603
  538MOL0     O72542   3.777   5.945   6.383 -0.6292 -0.3414 -0.0309
  538MOL0     C72543   3.553   6.040   6.637  0.1371  0.0112 -0.5447
  538MOL0     C72544   3.453   5.981   6.718  0.1811 -0.9259  0.1272
  538MOL0     N72545   2.761   5.550   6.906  0.2721  0.7675  1.0138
  538MOL0     N72546   2.762   5.421   6.892  0.9596 -1.6009  0.0765
  538MOL0     C72547   2.823   4.957   7.510  0.4801 -1.0538 -0.4980
  538MOL0     C72548   2.842   5.027   7.635  0.3980  0.3967 -0.3547
  538MOL0     C72549   3.036   5.290   7.947  0.3680  0.6049 -0.0443
  538MOL0     C72550   2.929   5.260   8.031  0.5938 -0.9768 -0.9999
  538MOL0     C72551   2.920   5.309   8.165 -0.3876 -0.7503 -0.2161
  538MOL0     C72552   3.022   5.384   8.215  0.6654  0.8832  0.7535
  538MOL0     O72553   3.016   5.417   8.345  0.8208  0.3478 -0.5477
  538MOL0     C72554   3.138   5.452   8.406 -0.3526 -0.6064  0.0340
  538MOL0     C72555   3.111   5.477   8.557 -0.5552 -1.1264  0.4269
  538MOL0     C72556   3.234   5.497   8.645 -1.0190  0.0810 -0.9412
  538MOL0     C72557   3.287   5.635   8.652 -0.2378 -0.9360  0.4222
  538MOL0     C72558   3.339   5.677   8.525 -0.3615 -0.5794 -0.3324
  538MOL0     C72559   3.383   5.725   8.420 -0.7552 -0.1164  0.3285
  538MOL0     C72560   3.128   5.423   8.126  0.3751 -0.3672  0.1049
  538MOL0     C72561   3.137   5.375   7.996 -0.3347  0.4311 -0.1316
  538MOL0     C72562   3.261   5.399   7.929 -0.7005  0.4134 -0.0993
  538MOL0     H72563   3.173   5.042   7.634  0.1627 -2.5209 -0.4812
  538MOL0     H72564   3.138   4.931   7.423 -0.2158  1.1467 -0.0336
  538MOL0     H72565   2.754   4.738   7.367 -0.5856 -1.4387 -1.5972
  538MOL0     H72566   2.687   4.854   7.268 -1.3809 -2.9313 -0.8185
  538MOL0     H72567   2.720   4.626   7.158  1.5768  0.0283 -3.0290
  538MOL0     H72568   2.889   4.641   7.162 -1.0106 -1.1446 -1.0153
  538MOL0     H72569   2.704   4.855   7.048  1.3430  1.7244  2.0429
  538MOL0     H72570   2.763   4.719   6.957  2.0238  0.4422 -1.3808
  538MOL0     H72571   2.955   4.919   7.073 -1.4623  0.4119  0.4811
  538MOL0     H72572   3.013   4.785   6.981  0.5184  0.7849  3.7454
  538MOL0     H72573   2.884   4.857   6.784 -1.3470 -0.0555 -0.3819
  538MOL0     H72574   2.804   4.975   6.880 -0.0248 -0.2031  1.1970
  538MOL0     H72575   3.080   5.057   6.915  1.4110  1.7595 -1.1465
  538MOL0     H72576   3.069   5.019   6.750 -1.2044  3.8030 -2.3368
  538MOL0     H72577   2.852   5.179   6.760 -0.5806  1.9885 -1.3048
  538MOL0     H72578   3.010   5.250   6.780 -1.7128  1.0049  0.1782
  538MOL0     H72579   2.808   5.159   6.991 -0.6450 -0.4663 -2.3170
  538MOL0     H72580   2.973   5.214   7.037 -1.5318 -2.4542  0.8268
  538MOL0     H72581   3.012   5.470   7.095 -1.2662 -1.5810  1.1816
  538MOL0     H72582   2.834   5.796   6.934 -0.9171 -0.4122  0.6128
  538MOL0     H72583   2.846   5.770   7.108  0.0110 -0.9193  0.6559
  538MOL0     H72584   3.033   5.882   7.052 -1.7586 -0.3787 -0.4214
  538MOL0     H72585   3.102   5.722   7.092  1.3259 -1.7569 -1.5492
  538MOL0     H72586   3.045   5.792   6.804 -0.2278 -0.5903  0.9680
  538MOL0     H72587   3.127   5.649   6.875  0.7337 -0.2126  0.6302
  538MOL0     H72588   3.283   5.817   6.969 -0.6343 -3.5216 -0.6783
  538MOL0     H72589   3.217   5.943   6.859 -0.5452  0.2575 -2.9102
  538MOL0     H72590   3.462   5.663   6.595  0.8145 -0.2504 -1.9277
  538MOL0     H72591   3.643   5.748   6.475  0.9367 -0.6939  1.1771
  538MOL0     H72592   3.989   6.040   6.559 -0.6665 -0.1660  0.5615
  538MOL0     H72593   4.197   6.108   6.511  0.3395  3.1039  1.4011
  538MOL0     H72594   4.470   6.329   6.335  1.9056 -1.3244 -2.8181
  538MOL0     H72595   4.378   6.185   6.361  0.9865  0.6348  1.1562
  538MOL0     H72596   4.358   6.132   6.149  1.1634  0.3956 -2.6684
  538MOL0     H72597   4.282   6.283   6.108 -1.8706 -6.1540 -0.7269
  538MOL0     H72598   4.469   6.403   6.065  2.8718  0.4356 -1.2304
  538MOL0     H72599   4.585   6.279   6.116  0.5835 -2.0242 -1.0984
  538MOL0     H72600   4.381   6.276   5.891  0.5589 -1.7776 -3.2527
  538MOL0     H72601   4.498   6.147   5.923  2.5829  0.1101  2.6031
  538MOL0     H72602   4.680   6.307   5.839 -1.1640  1.5814  0.9119
  538MOL0     H72603   4.563   6.438   5.869 -0.6404 -0.3253  1.2547
  538MOL0     H72604   4.560   6.231   5.641  0.2099 -0.2198 -0.1456
  538MOL0     H72605   4.428   6.335   5.693  0.0255 -0.2396  1.1231
  538MOL0     H72606   4.712   6.434   5.602  0.1952  1.3486  1.3955
  538MOL0     H72607   4.584   6.539   5.637  0.1433 -0.7750  1.9038
  538MOL0     H72608   4.611   6.515   5.387  0.8406  0.3383  1.2177
  538MOL0     H72609   4.586   6.347   5.389 -0.4029 -1.1870 -0.1793
  538MOL0     H72610   4.034   6.461   6.300 -2.2602  1.1825  1.7494
  538MOL0     H72611   3.816   6.379   6.346 -0.3502  0.2264 -0.6431
  538MOL0     H72612   3.585   6.144   6.646  0.3750 -0.1953  1.5906
  538MOL0     H72613   3.413   6.061   6.779  1.7309 -0.8850  1.1619
  538MOL0     H72614   2.719   4.937   7.484  0.3587  0.7745 -1.6118
  538MOL0     H72615   2.759   5.063   7.694  2.2889  0.8184  2.2466
  538MOL0     H72616   2.843   5.210   7.989 -1.0159 -0.7355  1.8029
  538MOL0     H72617   2.839   5.278   8.230  0.4327 -0.0032  1.2118
  538MOL0     H72618   3.185   5.544   8.368  0.3727 -0.7980  0.4680
  538MOL0     H72619   3.215   5.377   8.388 -0.4430 -0.7018  0.0488
  538MOL0     H72620   3.046   5.393   8.584 -0.0989 -1.7456 -0.3572
  538MOL0     H72621   3.055   5.570   8.569  2.7682  0.7292  4.7910
  538MOL0     H72622   3.307   5.423   8.610 -1.3144 -1.4375  1.4341
  538MOL0     H72623   3.197   5.465   8.743 -2.7984 -3.8889 -2.7011
  538MOL0     H72624   3.221   5.714   8.690  1.0743  0.0060  0.7759
  538MOL0     H72625   3.378   5.630   8.712  0.4501  2.6835 -0.1019
  538MOL0     H72626   3.432   5.748   8.328 -1.2187 -4.3687 -1.1778
  538MOL0     H72627   3.208   5.482   8.171  0.4731 -0.1170 -0.3975
  538MOL0     H72628   3.261   5.429   7.823  1.8016 -1.1703 -0.6295
  538MOL0     H72629   3.320   5.468   7.991  0.7290  0.0084 -0.9554
  538MOL0     H72630   3.327   5.312   7.935  1.8304  2.2987  2.4910
  539MOL0     O72631   4.352   2.167   6.225 -0.0178 -0.6952 -0.0185
  539MOL0     C72632   4.457   2.155   6.283 -0.6288  0.1904  0.1293
  539MOL0     O72633   4.553   2.068   6.243  0.0135 -0.8492 -0.3265
  539MOL0     C72634   4.552   2.028   6.115 -0.0562 -0.6766 -0.9489
  539MOL0     C72635   4.472   1.922   6.072 -0.3819  0.1666 -0.1542
  539MOL0     C72636   4.484   1.876   5.940 -0.1024 -0.0940 -0.3971
  539MOL0     C72637   4.577   1.931   5.854 -0.2060 -0.1972 -0.1960
  539MOL0     O72638   4.595   1.901   5.717  0.4692 -0.3030  0.0396
  539MOL0     C72639   4.521   1.790   5.644  0.9491 -0.6555 -0.5924
  539MOL0     C72640   4.638   1.720   5.552 -0.0615 -0.5568 -0.2987
  539MOL0     C72641   4.567   1.630   5.462 -0.1212  0.8834  0.5945
  539MOL0     C72642   4.687   1.536   5.416  0.6930 -0.0868 -1.0529
  539MOL0     C72643   4.632   1.415   5.338 -0.1963 -0.2931  1.5301
  539MOL0     C72644   4.578   1.454   5.199 -0.6411 -0.2676 -1.2922
  539MOL0     C72645   4.581   1.343   5.091 -0.2094 -0.3813 -0.1624
  539MOL0     C72646   4.487   1.378   4.972 -0.4506 -0.4945 -0.6766
  539MOL0     N72647   4.545   1.495   4.895  0.5304  0.3239  0.1363
  539MOL0     C72648   4.527   1.630   4.927  1.5181  0.5266  0.7988
  539MOL0     C72649   4.567   1.693   4.826 -0.0658  0.0704  0.9347
  539MOL0     C72650   4.561   1.840   4.799 -0.3752 -0.6434  0.4815
  539MOL0     C72651   4.418   1.895   4.781 -0.7749 -0.8652 -0.2520
  539MOL0     C72652   4.425   2.048   4.731  0.5123  0.7218  0.0942
  539MOL0     C72653   4.412   2.074   4.582 -0.6529 -0.0391  0.0835
  539MOL0     O72654   4.441   2.207   4.547  0.0698 -0.3982  0.2526
  539MOL0     C72655   4.558   2.270   4.594  0.6386 -0.3117  0.3283
  539MOL0     C72656   4.546   2.405   4.628  0.1298 -0.0125  0.6560
  539MOL0     C72657   4.665   2.474   4.673  0.3460  0.1435  0.0031
  539MOL0     C72658   4.792   2.412   4.696  0.7995 -1.0742  0.3856
  539MOL0     C72659   4.901   2.476   4.772 -0.6648 -0.5315 -0.0630
  539MOL0     O72660   5.019   2.408   4.779  0.2482  0.0765  0.1311
  539MOL0     C72661   5.115   2.470   4.858 -0.4438 -0.6277  0.4933
  539MOL0     C72662   5.144   2.448   4.991  0.8097 -0.5596  0.0739
  539MOL0     C72663   5.247   2.507   5.061 -0.1306 -0.9441  0.5828
  539MOL0     C72664   5.319   2.618   5.006  0.1043  0.4248  0.8931
  539MOL0     O72665   5.422   2.689   5.056 -0.1034  0.3228 -0.5899
  539MOL0     C72666   5.492   2.626   5.159 -0.2502 -0.3925  0.1011
  539MOL0     C72667   5.607   2.713   5.223  0.0340  0.0154  0.0559
  539MOL0     C72668   5.694   2.757   5.111  0.0826 -0.6077 -0.0273
  539MOL0     C72669   5.674   2.908   5.070 -0.0490 -0.0547  0.3097
  539MOL0     C72670   5.743   2.962   4.942  0.2099  0.0293 -0.6147
  539MOL0     C72671   5.900   2.938   4.945  0.8968 -1.1196 -0.8140
  539MOL0     C72672   5.961   3.074   4.886 -0.6609 -0.7152 -1.6531
  539MOL0     C72673   6.107   3.086   4.872  0.1229 -0.1832 -0.6361
  539MOL0    Cl72674   6.198   3.098   5.022  0.1202  0.1215 -0.4185
  539MOL0     C72675   5.296   2.638   4.871 -0.0149 -0.8852 -0.7431
  539MOL0     C72676   5.198   2.569   4.802  0.0873 -0.0008  0.3878
  539MOL0     O72677   4.878   2.593   4.796  0.1011 -0.4491 -0.1127
  539MOL0     C72678   4.796   2.279   4.645  0.0075  0.2604 -0.5912
  539MOL0     C72679   4.683   2.205   4.594  0.2904 -0.0564  0.5984
  539MOL0     N72680   4.621   1.601   4.734 -0.4294 -0.4240 -0.1906
  539MOL0     N72681   4.602   1.478   4.782 -0.4146 -0.6635  0.8652
  539MOL0     C72682   4.649   2.049   5.893  0.4376  0.9286 -0.2248
  539MOL0     C72683   4.631   2.096   6.024  0.4172 -0.0509  0.1648
  539MOL0     C72684   4.462   2.205   6.419  0.5284  0.0994 -0.7044
  539MOL0     C72685   4.568   2.148   6.496 -0.5809 -1.1430  0.1892
  539MOL0     C72686   4.578   2.168   6.628  0.2474 -0.3812  0.5265
  539MOL0     C72687   4.498   2.267   6.686 -0.6173 -0.7159  0.3704
  539MOL0     O72688   4.536   2.302   6.816  0.8840 -0.0777 -0.0081
  539MOL0     C72689   4.453   2.239   6.917  0.3364  0.4958  0.2375
  539MOL0     C72690   4.503   2.259   7.057 -0.2174  0.0425  0.4343
  539MOL0     C72691   4.641   2.228   7.080 -0.2324 -0.0430 -0.5261
  539MOL0     C72692   4.663   2.079   7.060  0.4829 -0.0020  0.9078
  539MOL0     C72693   4.789   2.043   7.130  0.9452 -1.6069 -0.2068
  539MOL0     C72694   4.904   2.039   7.184 -0.5882  0.2713 -0.0825
  539MOL0     C72695   4.405   2.338   6.614 -0.9254 -0.0657 -0.2574
  539MOL0     C72696   4.375   2.298   6.484  1.0515 -1.4521  0.7365
  539MOL0     C72697   4.262   2.358   6.412 -0.7798 -0.1484 -0.0871
  539MOL0     H72698   4.406   1.878   6.146 -1.3871  0.6404 -0.7585
  539MOL0     H72699   4.416   1.796   5.913 -1.4142  1.5134 -2.1754
  539MOL0     H72700   4.467   1.726   5.714 -1.7515  0.8910 -1.1275
  539MOL0     H72701   4.446   1.831   5.577  2.2619  0.6587 -1.3355
  539MOL0     H72702   4.727   1.674   5.596  2.0618  0.8658 -2.7935
  539MOL0     H72703   4.671   1.808   5.495 -2.8588  0.7998  0.0120
  539MOL0     H72704   4.509   1.681   5.385  0.4516  0.5643 -0.0616
  539MOL0     H72705   4.500   1.563   5.516  0.7513 -0.3905  0.1505
  539MOL0     H72706   4.753   1.600   5.355 -0.7020  1.1294 -1.3437
  539MOL0     H72707   4.741   1.496   5.502 -0.9280  3.4125  1.8304
  539MOL0     H72708   4.709   1.341   5.317 -0.7271 -0.2570 -0.9048
  539MOL0     H72709   4.553   1.357   5.387 -0.3191 -3.4442 -1.9291
  539MOL0     H72710   4.472   1.482   5.206 -1.1609 -2.3748  0.9910
  539MOL0     H72711   4.636   1.538   5.161 -0.9867  2.5431  3.5782
  539MOL0     H72712   4.539   1.253   5.137 -3.9015  0.1755 -2.0090
  539MOL0     H72713   4.682   1.331   5.052  0.0687  1.1831  0.0286
  539MOL0     H72714   4.485   1.291   4.906 -3.3129 -0.0549 -1.2856
  539MOL0     H72715   4.381   1.393   4.992 -0.9511 -2.1606 -1.8909
  539MOL0     H72716   4.466   1.668   5.008 -3.3333 -3.5895 -0.3970
  539MOL0     H72717   4.613   1.898   4.877  0.6095 -0.2636 -0.4362
  539MOL0     H72718   4.615   1.863   4.707  3.1328  1.4362  2.7829
  539MOL0     H72719   4.349   1.839   4.717 -2.4501  1.5139 -0.7066
  539MOL0     H72720   4.371   1.886   4.879 -1.0055 -2.4193 -0.4798
  539MOL0     H72721   4.513   2.095   4.774  0.8675  1.4666 -1.3651
  539MOL0     H72722   4.345   2.105   4.780 -0.8037  0.0821 -1.2156
  539MOL0     H72723   4.307   2.047   4.563 -1.6202  0.8042  3.5242
  539MOL0     H72724   4.485   2.010   4.531  1.9795  1.6907  1.4880
  539MOL0     H72725   4.443   2.439   4.619 -0.8677 -1.9829  3.2228
  539MOL0     H72726   4.659   2.577   4.707 -3.5343 -0.1210  0.6823
  539MOL0     H72727   5.073   2.383   5.042 -0.2324 -0.4197 -1.1204
  539MOL0     H72728   5.265   2.481   5.165  2.4265  0.9028  0.7195
  539MOL0     H72729   5.437   2.581   5.242 -0.6004 -1.6720 -0.8022
  539MOL0     H72730   5.540   2.545   5.103 -0.1837  0.3224 -0.9054
  539MOL0     H72731   5.571   2.799   5.280 -1.0508 -2.3551  3.2579
  539MOL0     H72732   5.668   2.656   5.294 -1.6850 -3.2901 -0.9044
  539MOL0     H72733   5.798   2.728   5.129  0.2326 -2.1960 -2.8563
  539MOL0     H72734   5.682   2.705   5.016  0.1185  2.4819 -1.8522
  539MOL0     H72735   5.708   2.979   5.146 -0.5106  1.8811 -1.2297
  539MOL0     H72736   5.568   2.929   5.056 -0.9030 -2.8547  1.7554
  539MOL0     H72737   5.721   3.069   4.945 -1.5325 -0.2915 -0.8891
  539MOL0     H72738   5.697   2.921   4.851 -0.1914 -0.6169 -0.1247
  539MOL0     H72739   5.942   2.932   5.046  0.6357 -1.7725 -0.7411
  539MOL0     H72740   5.924   2.846   4.891  0.0691 -1.2942 -0.8919
  539MOL0     H72741   5.936   3.150   4.960 -0.1096 -3.4127  1.5965
  539MOL0     H72742   5.903   3.083   4.794 -2.6072 -1.4938 -0.5610
  539MOL0     H72743   6.152   2.999   4.824 -1.1252 -1.3486  0.2153
  539MOL0     H72744   6.128   3.181   4.822  1.2794 -0.0473  0.0671
  539MOL0     H72745   5.351   2.715   4.818 -1.8220  0.7741 -0.3224
  539MOL0     H72746   5.173   2.596   4.700 -0.8712  1.3824  0.9807
  539MOL0     H72747   4.885   2.229   4.681 -1.7945 -1.9240  1.1814
  539MOL0     H72748   4.693   2.106   4.552 -1.4627 -0.2697  0.6152
  539MOL0     H72749   4.724   2.098   5.832 -0.1905 -1.8034 -3.4855
  539MOL0     H72750   4.681   2.183   6.065 -1.7275  1.5337 -0.4513
  539MOL0     H72751   4.633   2.068   6.462  2.0219  1.5710 -1.8009
  539MOL0     H72752   4.651   2.111   6.684  0.1068 -0.8497  0.2346
  539MOL0     H72753   4.452   2.131   6.901  1.6408  0.8073 -2.4670
  539MOL0     H72754   4.351   2.276   6.909 -0.7043 -2.2950 -0.4648
  539MOL0     H72755   4.444   2.198   7.126  0.3439  0.8897  1.6934
  539MOL0     H72756   4.495   2.365   7.082 -2.0426 -0.3648  1.7726
  539MOL0     H72757   4.669   2.258   7.181  0.8417  2.4207 -1.4792
  539MOL0     H72758   4.699   2.299   7.020 -0.3756  0.7862  0.3035
  539MOL0     H72759   4.578   2.029   7.107  2.0295 -3.6884  0.0791
  539MOL0     H72760   4.663   2.052   6.954 -0.7463 -0.1404  0.9315
  539MOL0     H72761   5.001   2.015   7.223 -1.7389 -2.3214  1.4137
  539MOL0     H72762   4.349   2.409   6.674  2.6254  2.7274  0.1058
  539MOL0     H72763   4.296   2.411   6.322 -2.2389  4.2874  1.7054
  539MOL0     H72764   4.195   2.276   6.388  0.3811 -1.0080 -0.5207
  539MOL0     H72765   4.197   2.418   6.476 -1.9634 -2.6744  1.2014
  540MOL0     O72766   2.447   7.410   0.285 -0.2551 -0.1008 -0.1907
  540MOL0     C72767   2.345   7.462   0.241 -0.8322 -0.2910  0.1239
  540MOL0     O72768   2.246   7.518   0.318 -0.1205  0.3750  0.0608
  540MOL0     C72769   2.259   7.508   0.451 -0.4840  0.6754  1.1005
  540MOL0     C72770   2.344   7.603   0.511  1.2308 -0.2114  0.8400
  540MOL0     C72771   2.361   7.606   0.646 -1.0976  0.2063 -0.6600
  540MOL0     C72772   2.298   7.507   0.731 -1.1546 -0.0970  1.0330
  540MOL0     O72773   2.327   7.488   0.860 -1.0233  0.0802 -0.3770
  540MOL0     C72774   2.468   7.510   0.890  0.1369  0.2276  0.6207
  540MOL0     C72775   2.483   7.453   1.028 -0.2376 -0.0310 -0.3789
  540MOL0     C72776   2.623   7.485   1.073 -0.2298  0.2043  0.1070
  540MOL0     C72777   2.653   7.421   1.207  0.8131  1.4919 -0.6412
  540MOL0     C72778   2.801   7.445   1.244  1.1439  0.4896  0.0888
  540MOL0     C72779   2.814   7.455   1.397  0.0073 -0.4144 -0.7404
  540MOL0     C72780   2.963   7.480   1.430  0.1221 -0.4740  0.3049
  540MOL0     C72781   3.020   7.347   1.464  0.8150  0.3460 -0.4474
  540MOL0     N72782   3.154   7.396   1.509  0.1185 -0.7012 -0.5108
  540MOL0     C72783   3.207   7.424   1.645 -0.3970 -0.0453 -0.8709
  540MOL0     C72784   3.338   7.448   1.630  0.0413  0.3613 -0.1763
  540MOL0     C72785   3.447   7.469   1.736 -0.1614  0.6365 -0.1830
  540MOL0     C72786   3.463   7.618   1.773 -0.4704  1.0474  0.1157
  540MOL0     C72787   3.339   7.699   1.817 -0.6051 -0.7899  0.4346
  540MOL0     C72788   3.379   7.844   1.854 -0.4784  0.7908  0.1332
  540MOL0     O72789   3.385   7.857   1.992 -0.2797 -0.3768  0.0117
  540MOL0     C72790   3.436   7.973   2.039 -0.8485  0.2708 -0.8796
  540MOL0     C72791   3.578   7.981   2.065 -0.0221 -0.4963  0.6906
  540MOL0     C72792   3.631   8.103   2.102  0.0788  0.0552 -0.2382
  540MOL0     C72793   3.553   8.217   2.115  0.3177 -0.1342 -1.2998
  540MOL0     C72794   3.607   8.349   2.134 -0.6608  0.2298 -0.3409
  540MOL0     O72795   3.515   8.444   2.160 -0.5264  0.0643  0.2559
  540MOL0     C72796   3.542   8.582   2.142  0.4573 -0.5120 -0.1627
  540MOL0     C72797   3.539   8.677   2.251  1.3693  0.2895  0.1904
  540MOL0     C72798   3.568   8.814   2.227 -0.4217  0.3866 -0.9888
  540MOL0     C72799   3.588   8.867   2.101  0.0132 -0.7123 -0.2054
  540MOL0     O72800   3.615   9.007   2.102  0.6384  0.4833 -0.2199
  540MOL0     C72801   3.581   9.085   1.985 -0.4972 -0.6755  0.5837
  540MOL0     C72802   3.637   9.224   1.979 -0.6947  0.0694 -0.3650
  540MOL0     C72803   3.785   9.227   2.015  0.0651 -0.7297 -0.0753
  540MOL0     C72804   3.807   9.241   2.161  0.4622 -0.5697  0.0080
  540MOL0     C72805   3.728   9.360   2.232 -0.2504 -0.6526 -0.7951
  540MOL0     C72806   3.756   9.496   2.149  0.3512  0.5665 -0.2017
  540MOL0     C72807   3.713   9.610   2.251 -1.0455 -0.0680 -0.3693
  540MOL0     C72808   3.710   9.739   2.182 -1.0237 -0.3430 -0.5201
  540MOL0    Cl72809   3.631   9.873   2.274 -0.3246  0.3059 -0.5382
  540MOL0     C72810   3.584   8.784   1.989 -0.4788  0.7302  0.1707
  540MOL0     C72811   3.561   8.647   2.012 -0.2033 -0.3390 -0.1766
  540MOL0     O72812   3.725   8.374   2.135  0.2077  0.2760 -0.0630
  540MOL0     C72813   3.417   8.209   2.099 -0.4750 -0.2015 -0.4810
  540MOL0     C72814   3.361   8.084   2.063  0.2160 -0.3435 -1.0457
  540MOL0     N72815   3.369   7.440   1.497 -0.9998 -0.4758 -0.0993
  540MOL0     N72816   3.266   7.394   1.422  0.2095  0.5059  0.0103
  540MOL0     C72817   2.213   7.419   0.666  0.0725  0.4735 -0.2512
  540MOL0     C72818   2.184   7.417   0.528 -0.8150 -0.3941  0.2738
  540MOL0     C72819   2.324   7.454   0.093  0.5926  0.1114 -0.0843
  540MOL0     C72820   2.216   7.525   0.037  0.8890  0.4955 -0.6074
  540MOL0     C72821   2.181   7.516  -0.094 -0.8184 -0.6167  0.5261
  540MOL0     C72822   2.257   7.430  -0.186  0.4567 -0.2792 -0.5938
  540MOL0     O72823   2.220   7.433  -0.313 -0.4098  0.5914  0.1667
  540MOL0     C72824   2.311   7.407  -0.416 -0.9225  0.6223 -0.5483
  540MOL0     C72825   2.253   7.478  -0.541 -0.2067 -1.0405  0.4191
  540MOL0     C72826   2.247   7.630  -0.534  0.6935 -0.0189 -0.3139
  540MOL0     C72827   2.250   7.699  -0.669  1.1424  0.6283 -0.1164
  540MOL0     C72828   2.131   7.669  -0.745  0.5431 -0.3357 -1.0749
  540MOL0     C72829   2.042   7.631  -0.818 -0.2667  0.1735  0.2555
  540MOL0     C72830   2.365   7.363  -0.130  0.4963  0.3728 -0.1930
  540MOL0     C72831   2.398   7.365   0.003  0.8926  0.1781  0.3505
  540MOL0     C72832   2.517   7.277   0.039 -0.0427 -0.0531 -0.0719
  540MOL0     H72833   2.383   7.674   0.439  0.8637 -1.7886 -0.9958
  540MOL0     H72834   2.427   7.678   0.694  0.7562 -2.0551  0.3994
  540MOL0     H72835   2.535   7.453   0.825  2.8876  3.4563  0.3268
  540MOL0     H72836   2.504   7.613   0.886  1.0964 -0.1371 -1.6346
  540MOL0     H72837   2.444   7.351   1.029 -1.2765  0.3051  2.4140
  540MOL0     H72838   2.413   7.508   1.091 -0.9042  0.7982 -1.7872
  540MOL0     H72839   2.643   7.593   1.069 -0.6943  0.2807 -3.1781
  540MOL0     H72840   2.684   7.432   0.999  1.9081  2.1989  0.3223
  540MOL0     H72841   2.585   7.456   1.285 -0.3409 -0.0901 -0.9012
  540MOL0     H72842   2.631   7.315   1.191 -1.0332  1.8934 -0.9605
  540MOL0     H72843   2.847   7.357   1.197 -2.4875 -1.1090 -0.7755
  540MOL0     H72844   2.831   7.536   1.191 -0.3231 -1.4278 -4.5160
  540MOL0     H72845   2.767   7.548   1.431  1.2605 -0.1117  0.2595
  540MOL0     H72846   2.782   7.373   1.463  1.7893 -0.5165  0.0616
  540MOL0     H72847   2.970   7.542   1.520  3.7316  1.7262 -1.2459
  540MOL0     H72848   3.005   7.521   1.337 -1.0103 -0.1245 -0.0702
  540MOL0     H72849   2.969   7.286   1.539 -1.6203  0.0889 -2.2306
  540MOL0     H72850   3.030   7.278   1.380  3.3036  0.5272 -0.3828
  540MOL0     H72851   3.162   7.402   1.741  0.0072  3.6759  0.3167
  540MOL0     H72852   3.428   7.404   1.822  0.6294  0.9121  0.2087
  540MOL0     H72853   3.543   7.434   1.697 -0.6195 -1.8681  0.7249
  540MOL0     H72854   3.529   7.629   1.859 -3.1955  2.6328  2.1565
  540MOL0     H72855   3.517   7.672   1.695  1.6744  0.0953  0.8882
  540MOL0     H72856   3.276   7.646   1.889 -1.7959 -2.4280 -1.6951
  540MOL0     H72857   3.285   7.710   1.723  0.0219 -2.9759 -0.2395
  540MOL0     H72858   3.313   7.917   1.805 -0.5718 -0.3058 -1.4663
  540MOL0     H72859   3.483   7.852   1.821  0.1377 -1.8101  1.2029
  540MOL0     H72860   3.646   7.902   2.037  0.9482  0.2842  0.8056
  540MOL0     H72861   3.740   8.105   2.106  0.2991 -2.9314 -1.7068
  540MOL0     H72862   3.523   8.644   2.353  0.6001 -0.0479 -0.0314
  540MOL0     H72863   3.570   8.883   2.311  0.5060  0.4150 -1.0289
  540MOL0     H72864   3.613   9.034   1.894  1.1148 -1.1233  1.3598
  540MOL0     H72865   3.473   9.101   1.984 -0.8140 -2.5244 -1.3144
  540MOL0     H72866   3.631   9.254   1.874  0.6527 -3.8308 -1.7291
  540MOL0     H72867   3.576   9.292   2.039  0.5066 -0.1543  1.1512
  540MOL0     H72868   3.844   9.141   1.980  2.8462  0.8723  0.3787
  540MOL0     H72869   3.833   9.313   1.968  1.3894 -0.9858  0.7375
  540MOL0     H72870   3.916   9.248   2.172  0.8526  0.9993 -3.3460
  540MOL0     H72871   3.772   9.149   2.208 -0.1583  0.4962  1.7007
  540MOL0     H72872   3.783   9.378   2.325 -0.6630 -3.8190  0.1757
  540MOL0     H72873   3.621   9.350   2.252 -0.4656  1.2555 -0.7750
  540MOL0     H72874   3.861   9.505   2.120 -0.5174  1.7681 -3.3725
  540MOL0     H72875   3.691   9.487   2.061  0.8720  2.1477 -0.7753
  540MOL0     H72876   3.777   9.617   2.339 -0.5774  4.7045 -0.7992
  540MOL0     H72877   3.612   9.586   2.288 -0.5697 -1.7296 -0.0865
  540MOL0     H72878   3.809   9.768   2.147 -0.1792 -1.0145  1.2074
  540MOL0     H72879   3.651   9.727   2.091 -3.0852 -3.4692  1.0598
  540MOL0     H72880   3.596   8.824   1.889 -1.2656  0.6057  0.0183
  540MOL0     H72881   3.555   8.583   1.925 -1.2772  0.0013 -0.3661
  540MOL0     H72882   3.343   8.287   2.117 -1.8523 -0.8751 -2.7566
  540MOL0     H72883   3.253   8.075   2.054  0.0745  0.0830  0.0359
  540MOL0     H72884   2.184   7.334   0.726 -2.4004  1.9689  0.8433
  540MOL0     H72885   2.134   7.334   0.478 -0.4450 -1.6793  1.9273
  540MOL0     H72886   2.158   7.584   0.107  0.7000 -3.3293  2.8592
  540MOL0     H72887   2.094   7.562  -0.140 -0.7686 -2.0102 -1.0693
  540MOL0     H72888   2.318   7.299  -0.426 -1.8333  0.3168  1.6984
  540MOL0     H72889   2.411   7.446  -0.395  0.6254 -2.9501 -0.7137
  540MOL0     H72890   2.150   7.445  -0.558 -0.5392  0.6703 -1.1144
  540MOL0     H72891   2.317   7.442  -0.622  2.2798  2.3504  0.6855
  540MOL0     H72892   2.325   7.671  -0.470  0.6918  1.5659 -1.2704
  540MOL0     H72893   2.150   7.657  -0.490  0.4191 -0.8078 -0.4116
  540MOL0     H72894   2.263   7.808  -0.674  2.5459  0.4212 -2.8734
  540MOL0     H72895   2.338   7.664  -0.722  0.3888 -0.2574 -0.8098
  540MOL0     H72896   1.977   7.582  -0.888  1.6595 -0.1455 -1.3933
  540MOL0     H72897   2.428   7.300  -0.192  1.1789  0.9929 -0.1508
  540MOL0     H72898   2.551   7.210  -0.040  1.4115  0.3423  0.1942
  540MOL0     H72899   2.607   7.333   0.065  0.3725 -0.1805 -1.2084
  540MOL0     H72900   2.495   7.227   0.134 -0.4431  2.7752  1.4606
  541MOL0     O72901  10.333  10.507   9.010 -0.6057  0.6019 -0.7201
  541MOL0     C72902  10.351  10.473   9.128  0.0229 -0.7496  0.0878
  541MOL0     O72903  10.411  10.539   9.222  0.5874  0.4809 -0.0801
  541MOL0     C72904  10.453  10.669   9.215 -0.0829 -0.1582 -0.0486
  541MOL0     C72905  10.483  10.726   9.340 -0.3437  0.7065  0.0445
  541MOL0     C72906  10.518  10.857   9.351  0.8412 -0.0856 -0.9164
  541MOL0     C72907  10.528  10.942   9.238 -0.0825 -0.3380  0.2475
  541MOL0     O72908  10.558  11.076   9.243 -0.2722  1.0857  0.4640
  541MOL0     C72909  10.667  11.117   9.321  0.6365 -0.1160  0.2916
  541MOL0     C72910  10.651  11.260   9.366  0.1692  1.0694  0.3168
  541MOL0     C72911  10.673  11.351   9.244  0.3402  0.1348  0.3775
  541MOL0     C72912  10.631  11.488   9.283 -0.2329 -0.1273 -0.1777
  541MOL0     C72913  10.636  11.576   9.154  0.1037  0.4122 -0.2616
  541MOL0     C72914  10.597  11.718   9.171 -0.0029  0.6380 -0.4621
  541MOL0     C72915  10.451  11.736   9.212  0.8411  1.4551  0.2674
  541MOL0     C72916  10.419  11.881   9.243  0.5668  0.2277  0.0955
  541MOL0     N72917  10.492  11.946   9.359 -0.8415  0.5693  0.0651
  541MOL0     C72918  10.515  11.895   9.484 -1.2580 -0.1539 -0.3559
  541MOL0     C72919  10.583  11.999   9.537 -0.1427 -0.8433 -0.2115
  541MOL0     C72920  10.648  12.012   9.677  0.7916  0.5453 -0.3479
  541MOL0     C72921  10.771  12.091   9.683 -0.7807 -0.2938  0.0648
  541MOL0     C72922  10.867  12.041   9.573  0.1611  0.4354  0.0666
  541MOL0     C72923  10.888  11.895   9.548  0.1794 -0.8208 -0.4707
  541MOL0     O72924  10.889  11.835   9.676  0.0689 -0.7832 -0.1669
  541MOL0     C72925  10.875  11.699   9.677 -0.3024  0.6149  0.3060
  541MOL0     C72926  10.816  11.638   9.789  0.4233  0.5695  0.2710
  541MOL0     C72927  10.825  11.501   9.809  0.6795  0.7146 -0.2755
  541MOL0     C72928  10.885  11.419   9.716  0.2287 -0.7697  0.6699
  541MOL0     C72929  10.896  11.271   9.742 -0.5452 -0.3771 -0.3531
  541MOL0     O72930  10.936  11.197   9.638  0.4145 -0.0087 -0.3457
  541MOL0     C72931  10.943  11.055   9.651  0.0635  0.1006 -0.3643
  541MOL0     C72932  10.962  10.969   9.772 -0.3380 -0.8682 -0.3361
  541MOL0     C72933  10.985  10.834   9.767  0.3394  0.0846 -0.1935
  541MOL0     C72934  11.001  10.775   9.645  0.1817  0.6273  0.5941
  541MOL0     O72935  11.039  10.638   9.637  0.3150  0.4240  0.5804
  541MOL0     C72936  10.924  10.557   9.627 -0.0598 -0.1465 -0.7971
  541MOL0     C72937  10.972  10.423   9.667 -0.6733  0.3743 -0.6970
  541MOL0     C72938  11.093  10.362   9.593 -0.4586 -0.2811 -0.2862
  541MOL0     C72939  11.040  10.268   9.488 -0.0457 -0.4388  0.0763
  541MOL0     C72940  11.146  10.185   9.416  0.5166  0.4188  0.4366
  541MOL0     C72941  11.179  10.067   9.502 -0.6967  0.3124 -0.1491
  541MOL0     C72942  11.277   9.976   9.426 -0.1094  0.2923 -0.0018
  541MOL0     C72943  11.341   9.879   9.523  0.7862  0.2874 -0.3283
  541MOL0    Cl72944  11.469   9.782   9.445 -0.2341  0.1225 -0.0501
  541MOL0     C72945  10.963  10.842   9.527 -0.6759 -0.1160 -1.1681
  541MOL0     C72946  10.944  10.979   9.532  0.6572 -0.8543  0.4950
  541MOL0     O72947  10.835  11.231   9.840 -0.3272  0.3433 -0.2635
  541MOL0     C72948  10.924  11.471   9.595 -0.0516 -1.7031  0.3912
  541MOL0     C72949  10.907  11.606   9.572 -0.6170 -0.1267 -0.0767
  541MOL0     N72950  10.592  12.101   9.444 -0.4831 -1.6305  0.2241
  541MOL0     N72951  10.525  12.074   9.345  0.4516  0.0172  0.1290
  541MOL0     C72952  10.490  10.892   9.117  0.4457  0.6296  0.9243
  541MOL0     C72953  10.452  10.761   9.106  0.0355  0.1850  0.1375
  541MOL0     C72954  10.279  10.345   9.171 -1.1469  0.9637 -1.1068
  541MOL0     C72955  10.315  10.291   9.296  0.2559 -0.0595  0.2663
  541MOL0     C72956  10.256  10.180   9.350  0.3326 -0.1235 -0.2316
  541MOL0     C72957  10.153  10.114   9.291  0.2172  0.1988  0.0194
  541MOL0     O72958  10.092  10.003   9.349  0.4855 -0.4210  0.4329
  541MOL0     C72959  10.025   9.906   9.260  0.4593 -0.3224 -0.7929
  541MOL0     C72960   9.971   9.785   9.341  0.8335 -0.0533 -0.8224
  541MOL0     C72961   9.893   9.824   9.469  1.1048 -0.0996  0.4577
  541MOL0     C72962   9.791   9.719   9.497  0.4803 -0.1141 -0.9440
  541MOL0     C72963   9.766   9.704   9.638 -0.2947  0.4785 -1.1083
  541MOL0     C72964   9.755   9.710   9.761 -0.2918 -0.1873  0.3988
  541MOL0     C72965  10.118  10.166   9.161 -0.3283 -0.8332 -0.1422
  541MOL0     C72966  10.185  10.268   9.098 -0.1755  0.0458  0.5745
  541MOL0     C72967  10.140  10.307   8.952 -0.4018 -0.4099  0.1323
  541MOL0     H72968  10.490  10.659   9.426 -3.0833  1.4670  0.9484
  541MOL0     H72969  10.550  10.883   9.452  0.8843 -1.7626 -0.4574
  541MOL0     H72970  10.673  11.070   9.420  0.6948  2.8277  1.8187
  541MOL0     H72971  10.760  11.101   9.266  1.5901 -1.2711  2.1216
  541MOL0     H72972  10.732  11.268   9.440  1.3619 -2.1393 -0.4353
  541MOL0     H72973  10.553  11.279   9.412 -0.4907  1.9933 -1.4087
  541MOL0     H72974  10.605  11.319   9.165  0.7716  1.4911 -0.5897
  541MOL0     H72975  10.775  11.333   9.210 -0.0837 -3.3917  0.6146
  541MOL0     H72976  10.530  11.474   9.321 -0.7125 -0.7014 -1.6005
  541MOL0     H72977  10.696  11.532   9.360 -1.3625  0.6572  0.3481
  541MOL0     H72978  10.729  11.579   9.095 -1.0767  3.3609 -2.1843
  541MOL0     H72979  10.565  11.527   9.087 -0.5413  0.4592  0.3757
  541MOL0     H72980  10.667  11.781   9.227  0.8984 -0.6402 -0.0932
  541MOL0     H72981  10.608  11.761   9.071 -3.1504  3.5536  0.2601
  541MOL0     H72982  10.439  11.675   9.302  2.0383 -0.7919 -1.0011
  541MOL0     H72983  10.383  11.706   9.132  1.1909 -0.7294  0.7292
  541MOL0     H72984  10.446  11.943   9.156  5.1444  1.6394  2.1600
  541MOL0     H72985  10.313  11.883   9.267  0.1377 -2.3290 -1.2342
  541MOL0     H72986  10.491  11.802   9.535 -0.1987 -0.0447  0.3724
  541MOL0     H72987  10.577  12.064   9.741 -0.4699  0.5334 -1.6869
  541MOL0     H72988  10.655  11.906   9.705  1.0124 -0.0631 -2.5140
  541MOL0     H72989  10.754  12.199   9.678  4.1395  0.8406  2.1476
  541MOL0     H72990  10.816  12.077   9.782 -2.7258  4.5658  1.9418
  541MOL0     H72991  10.963  12.092   9.573 -0.0084  0.7580  0.1443
  541MOL0     H72992  10.830  12.077   9.476  0.2692 -2.8947 -1.3361
  541MOL0     H72993  10.983  11.874   9.498 -1.1531 -4.2054 -1.9514
  541MOL0     H72994  10.808  11.855   9.484  0.7130  0.0768 -1.7462
  541MOL0     H72995  10.781  11.700   9.872  2.0214  1.4192  0.3477
  541MOL0     H72996  10.778  11.453   9.894 -2.7817 -0.2464 -2.5500
  541MOL0     H72997  10.940  11.020   9.865 -1.0056 -2.5528  0.4798
  541MOL0     H72998  11.022  10.787   9.857  0.1834 -3.0083 -1.6399
  541MOL0     H72999  10.842  10.589   9.692 -0.4013 -1.7308 -0.4081
  541MOL0     H73000  10.884  10.555   9.525 -2.2352 -1.1061  0.0236
  541MOL0     H73001  10.989  10.401   9.772  0.8084 -0.2025 -1.0401
  541MOL0     H73002  10.889  10.356   9.644 -2.9066  3.5324 -2.6635
  541MOL0     H73003  11.148  10.442   9.543  0.5280 -0.5696  0.3057
  541MOL0     H73004  11.172  10.317   9.653 -0.5816  1.3463  1.2038
  541MOL0     H73005  10.987  10.324   9.411  2.1163  2.2646  0.4248
  541MOL0     H73006  10.964  10.199   9.525  0.6903 -0.2446  2.0554
  541MOL0     H73007  11.233  10.250   9.400  2.5640 -1.4127  3.1619
  541MOL0     H73008  11.108  10.149   9.320 -0.4831 -0.1422  1.0313
  541MOL0     H73009  11.214  10.102   9.600  0.7720  2.8697 -1.4892
  541MOL0     H73010  11.092  10.003   9.520  0.4269 -1.6738 -1.4202
  541MOL0     H73011  11.354  10.029   9.370  0.0350  1.6381  1.3805
  541MOL0     H73012  11.230   9.920   9.345  2.7309  0.5528 -1.9917
  541MOL0     H73013  11.376   9.932   9.612 -1.3711  3.0559 -0.9864
  541MOL0     H73014  11.261   9.814   9.558  0.1529 -0.0196 -2.2196
  541MOL0     H73015  10.974  10.801   9.427 -1.0849 -1.3141 -0.7467
  541MOL0     H73016  10.927  11.028   9.436 -1.3114 -0.7073  0.8810
  541MOL0     H73017  10.974  11.400   9.529 -1.2238 -2.0986 -0.0986
  541MOL0     H73018  10.953  11.649   9.484  0.2662 -0.5524  0.1660
  541MOL0     H73019  10.488  10.954   9.027 -0.9284  0.0481  0.5290
  541MOL0     H73020  10.422  10.733   9.006 -0.2683  0.5935  0.1132
  541MOL0     H73021  10.386  10.348   9.355  0.8837  1.1904 -1.5994
  541MOL0     H73022  10.315  10.144   9.433  1.7288  0.7903 -0.7940
  541MOL0     H73023  10.101   9.875   9.188 -0.0592 -1.7342 -0.7579
  541MOL0     H73024   9.941   9.951   9.205 -0.1110  1.3073  1.2666
  541MOL0     H73025  10.047   9.715   9.374  2.4716  1.3280 -1.5291
  541MOL0     H73026   9.909   9.731   9.269  1.6995 -1.5451 -0.4989
  541MOL0     H73027   9.843   9.920   9.453  2.4473  0.3784 -1.0498
  541MOL0     H73028   9.956   9.839   9.558 -1.6838  2.4800  2.1803
  541MOL0     H73029   9.698   9.741   9.442  1.6561 -1.3741 -3.6302
  541MOL0     H73030   9.834   9.625   9.462  2.4271  0.3358  0.1511
  541MOL0     H73031   9.753   9.713   9.868 -0.6634  1.0794  0.3760
  541MOL0     H73032  10.040  10.115   9.105 -1.8496 -0.1035  1.2208
  541MOL0     H73033  10.092  10.405   8.953 -0.5007 -0.4597  0.9014
  541MOL0     H73034  10.222  10.310   8.879  1.1974 -2.5242  1.7037
  541MOL0     H73035  10.069  10.234   8.911  0.7397 -0.2511 -2.2825
  542MOL0     O73036  10.100  11.435   9.271  0.3094  0.4507 -0.0760
  542MOL0     C73037  10.059  11.424   9.381 -0.4545 -1.0742 -0.3270
  542MOL0     O73038   9.992  11.525   9.441 -0.3440 -0.0696  0.4096
  542MOL0     C73039   9.997  11.650   9.389 -0.3169 -0.1228 -0.4394
  542MOL0     C73040  10.031  11.749   9.482 -0.3948 -0.5569 -0.0076
  542MOL0     C73041  10.040  11.883   9.453  0.0750  0.1495 -0.4379
  542MOL0     C73042  10.017  11.915   9.318  0.1816 -0.4658  0.5100
  542MOL0     O73043  10.040  12.043   9.267  0.7303 -0.2195 -0.2427
  542MOL0     C73044  10.034  12.151   9.366  0.3254 -0.4410  0.0597
  542MOL0     C73045  10.018  12.293   9.314  0.2206  0.1852 -0.8157
  542MOL0     C73046  10.077  12.406   9.410 -0.5856  0.3666 -0.0531
  542MOL0     C73047  10.011  12.532   9.365  0.2671  0.6560  0.5915
  542MOL0     C73048  10.092  12.652   9.411  0.5282  0.2928 -0.3018
  542MOL0     C73049  10.021  12.788   9.414 -0.6084 -0.5064 -0.5064
  542MOL0     C73050   9.983  12.822   9.277  0.2336 -0.0452 -0.2942
  542MOL0     C73051   9.919  12.959   9.262  1.3005  0.4387 -0.9587
  542MOL0     N73052  10.015  13.076   9.258  0.0166  0.2384 -0.2108
  542MOL0     C73053  10.045  13.137   9.134  0.5078  1.0542 -0.0206
  542MOL0     C73054  10.165  13.192   9.152 -0.6030 -0.1600  0.1871
  542MOL0     C73055  10.236  13.258   9.030  0.3063  0.1020 -0.0942
  542MOL0     C73056  10.274  13.408   9.058  0.3166  0.3064  0.2615
  542MOL0     C73057  10.329  13.480   8.935 -0.4614  0.4175  0.7236
  542MOL0     C73058  10.231  13.501   8.832 -0.3410  0.7147 -0.9593
  542MOL0     O73059  10.296  13.527   8.702  0.5655 -0.0044  0.4040
  542MOL0     C73060  10.259  13.659   8.657 -0.1027  0.1998 -0.6596
  542MOL0     C73061  10.346  13.761   8.685  0.8572 -0.1891  0.6567
  542MOL0     C73062  10.340  13.887   8.628 -0.5505 -1.1253  0.1200
  542MOL0     C73063  10.214  13.924   8.571  0.2547 -0.3002  1.2382
  542MOL0     C73064  10.202  14.048   8.497  0.2424 -0.3372  0.2320
  542MOL0     O73065  10.082  14.076   8.453 -0.0758  0.2612  1.0649
  542MOL0     C73066  10.035  14.198   8.398 -0.0665  0.2706 -0.0859
  542MOL0     C73067  10.098  14.319   8.425  0.2017  0.6772  0.0341
  542MOL0     C73068  10.029  14.441   8.399 -1.3973  0.0161 -0.0175
  542MOL0     C73069   9.904  14.439   8.337  0.6385 -0.2850 -0.5451
  542MOL0     O73070   9.848  14.559   8.284 -0.5019  0.3062 -0.3306
  542MOL0     C73071   9.879  14.569   8.148 -0.5007  0.3386 -0.3266
  542MOL0     C73072   9.751  14.626   8.072  0.6239  0.9602 -0.2488
  542MOL0     C73073   9.630  14.528   8.078 -0.0921 -0.0498  0.3053
  542MOL0     C73074   9.543  14.549   7.957 -0.4783 -1.6334  0.3596
  542MOL0     C73075   9.399  14.500   7.997  0.3782  0.1266 -0.3984
  542MOL0     C73076   9.311  14.447   7.887  0.2976  0.3128  0.2709
  542MOL0     C73077   9.178  14.378   7.935  0.1445 -0.5907 -0.4169
  542MOL0     C73078   9.108  14.324   7.807 -0.0196 -0.0376 -1.2027
  542MOL0    Cl73079   9.016  14.469   7.759  0.3139  0.0819  0.5156
  542MOL0     C73080   9.846  14.316   8.303 -0.1238 -0.1442 -0.5559
  542MOL0     C73081   9.908  14.196   8.342  0.6465  0.0569 -0.4884
  542MOL0     O73082  10.306  14.107   8.479 -0.6862 -0.1560  0.3823
  542MOL0     C73083  10.111  13.832   8.565 -0.4323  0.3584  0.4351
  542MOL0     C73084  10.134  13.695   8.609 -0.3981 -0.0587 -0.6359
  542MOL0     N73085  10.199  13.185   9.283 -0.2813  0.3911 -0.2494
  542MOL0     N73086  10.112  13.117   9.347  0.6996 -0.0514  0.6416
  542MOL0     C73087   9.984  11.817   9.224 -0.5865 -0.3565 -0.0428
  542MOL0     C73088   9.961  11.685   9.258  0.8581  1.0160 -0.2949
  542MOL0     C73089  10.070  11.302   9.467  0.4230 -0.6487  0.5569
  542MOL0     C73090   9.990  11.300   9.579 -0.1388  0.4676  0.0702
  542MOL0     C73091  10.002  11.182   9.663 -0.0340  0.7070  0.2958
  542MOL0     C73092  10.092  11.079   9.634 -0.0543  0.4377  0.3266
  542MOL0     O73093  10.125  10.995   9.733  0.3034 -0.2903 -0.8760
  542MOL0     C73094  10.046  10.877   9.732 -0.5761  0.1467 -0.6164
  542MOL0     C73095  10.128  10.764   9.797 -0.7870 -0.4569  0.6793
  542MOL0     C73096  10.149  10.786   9.943 -0.6864  0.1676  0.0847
  542MOL0     C73097  10.234  10.675  10.011  0.1559  0.6272 -0.2131
  542MOL0     C73098  10.146  10.553  10.024 -0.8045 -0.4373 -0.2865
  542MOL0     C73099  10.067  10.467  10.029  0.5372  0.4740 -0.6313
  542MOL0     C73100  10.164  11.084   9.514 -0.3195 -0.3438 -0.1572
  542MOL0     C73101  10.146  11.186   9.428  0.3826  0.4358  1.0781
  542MOL0     C73102  10.206  11.164   9.289  1.7606  0.6208  0.6558
  542MOL0     H73103  10.050  11.728   9.587  2.7632  2.3901  0.1565
  542MOL0     H73104  10.059  11.951   9.535 -2.2319 -2.8892  2.9814
  542MOL0     H73105   9.958  12.145   9.444 -0.0764  0.7149 -0.2296
  542MOL0     H73106  10.133  12.153   9.413  0.7655  1.4289 -0.8664
  542MOL0     H73107   9.912  12.313   9.296 -0.0817  0.3561  0.9613
  542MOL0     H73108  10.066  12.306   9.217 -3.7263  4.4038 -2.6192
  542MOL0     H73109  10.186  12.413   9.405 -0.5133 -0.3628  0.4177
  542MOL0     H73110  10.055  12.392   9.516  2.5711  1.2232  0.8363
  542MOL0     H73111   9.996  12.531   9.257  1.4193 -3.0358  0.3266
  542MOL0     H73112   9.910  12.542   9.408 -0.9997  1.1364 -2.2847
  542MOL0     H73113  10.122  12.627   9.514 -1.2223  0.3364  0.2464
  542MOL0     H73114  10.178  12.661   9.344  0.3147 -0.8785 -0.7399
  542MOL0     H73115   9.938  12.789   9.485 -1.5567  2.7330 -1.4890
  542MOL0     H73116  10.096  12.859   9.449 -1.3888  0.1696 -0.1653
  542MOL0     H73117   9.900  12.762   9.237 -2.3258  0.2241  3.9755
  542MOL0     H73118  10.061  12.793   9.206 -1.8996 -2.5917 -1.8071
  542MOL0     H73119   9.875  12.956   9.162  2.3617 -1.6199 -1.4192
  542MOL0     H73120   9.843  12.985   9.336  1.3677 -1.1145 -0.3057
  542MOL0     H73121  10.008  13.128   9.032  3.7360 -1.9259 -1.1482
  542MOL0     H73122  10.331  13.207   9.008  0.0866  0.4422 -2.0496
  542MOL0     H73123  10.174  13.255   8.940 -0.1469  1.2846  0.1555
  542MOL0     H73124  10.195  13.470   9.102  0.6835  1.1555 -0.2504
  542MOL0     H73125  10.348  13.417   9.138  1.2724 -1.9857 -0.2743
  542MOL0     H73126  10.415  13.418   8.910 -1.4568 -1.4052  1.5869
  542MOL0     H73127  10.370  13.579   8.953 -0.0649  0.6825 -1.3767
  542MOL0     H73128  10.168  13.588   8.854 -4.4095 -2.0829 -0.4684
  542MOL0     H73129  10.162  13.417   8.821 -3.6104  3.1479 -0.6457
  542MOL0     H73130  10.437  13.733   8.737  0.6114  0.2171  1.3066
  542MOL0     H73131  10.412  13.965   8.653 -0.1116 -2.1272  2.1868
  542MOL0     H73132  10.199  14.319   8.466  1.5831  3.4514 -2.9757
  542MOL0     H73133  10.079  14.536   8.418  0.3663 -1.3230  2.6350
  542MOL0     H73134   9.967  14.633   8.135  0.1862 -0.0794  1.9409
  542MOL0     H73135   9.911  14.478   8.096 -0.0838  1.0999 -1.4507
  542MOL0     H73136   9.725  14.728   8.103 -0.2961  0.4310  0.7843
  542MOL0     H73137   9.771  14.640   7.966  0.3108  0.2445 -0.4086
  542MOL0     H73138   9.671  14.427   8.082  3.1278  1.1623  2.0459
  542MOL0     H73139   9.582  14.546   8.174 -0.0331  2.7336 -0.0983
  542MOL0     H73140   9.591  14.507   7.869 -0.2254 -0.9948  0.1834
  542MOL0     H73141   9.535  14.657   7.936  0.0041 -1.7444 -0.4395
  542MOL0     H73142   9.329  14.570   8.044 -0.4384 -0.2039 -1.0977
  542MOL0     H73143   9.426  14.426   8.072  0.3064 -1.2127 -1.6578
  542MOL0     H73144   9.286  14.524   7.814  3.3957 -1.0259 -2.4631
  542MOL0     H73145   9.373  14.377   7.831  2.9396 -0.2513  3.5544
  542MOL0     H73146   9.117  14.448   7.992  2.1408  2.0273 -1.2943
  542MOL0     H73147   9.203  14.292   7.997 -1.5424 -1.5111 -0.9451
  542MOL0     H73148   9.174  14.282   7.731  1.3615  0.2545 -0.2064
  542MOL0     H73149   9.045  14.246   7.851  1.0376 -0.2062  0.0898
  542MOL0     H73150   9.747  14.318   8.258 -0.4936  0.4042  0.2421
  542MOL0     H73151   9.855  14.102   8.331  0.3642  0.1017  0.4217
  542MOL0     H73152  10.009  13.857   8.535 -0.5232 -0.6200 -0.1097
  542MOL0     H73153  10.054  13.622   8.614 -0.7121  0.3515  0.8547
  542MOL0     H73154   9.967  11.853   9.123  1.8604  0.5831 -0.1598
  542MOL0     H73155   9.929  11.617   9.180  0.1365 -0.2497  1.0485
  542MOL0     H73156   9.933  11.383   9.620 -0.7738  0.1830 -0.2281
  542MOL0     H73157   9.966  11.193   9.765  1.5546  0.4090  0.9254
  542MOL0     H73158  10.008  10.856   9.632 -3.1151 -1.7662  0.6353
  542MOL0     H73159   9.959  10.890   9.797  1.3574 -1.8280  2.6431
  542MOL0     H73160  10.226  10.763   9.748 -1.3285 -1.5443 -0.4264
  542MOL0     H73161  10.075  10.670   9.780 -3.1505  0.7113  1.2000
  542MOL0     H73162  10.056  10.808   9.998  0.7403 -0.2612  2.8549
  542MOL0     H73163  10.220  10.869   9.947 -1.7829  1.1111  0.7410
  542MOL0     H73164  10.327  10.650   9.959 -0.4764 -2.3154 -0.1088
  542MOL0     H73165  10.257  10.699  10.115 -0.6069 -2.4938  0.7695
  542MOL0     H73166   9.984  10.403  10.052 -1.1384  3.2004  1.5808
  542MOL0     H73167  10.227  10.998   9.493 -0.4153  0.0335 -2.1811
  542MOL0     H73168  10.268  11.074   9.287 -1.0136 -1.4435 -0.4469
  542MOL0     H73169  10.125  11.147   9.218  1.5211  1.7461  0.6434
  542MOL0     H73170  10.272  11.244   9.256 -0.5492  1.4074 -2.6249
  543MOL0     O73171  10.695   4.027   7.560 -0.1413 -0.1373  0.3441
  543MOL0     C73172  10.591   3.998   7.616 -0.5297  0.9286  0.7937
  543MOL0     O73173  10.576   3.952   7.735  0.1119  0.3674 -0.4628
  543MOL0     C73174  10.696   3.916   7.795  0.4787  0.1530  0.2156
  543MOL0     C73175  10.721   3.774   7.800  0.6880  0.6111  0.3023
  543MOL0     C73176  10.842   3.736   7.862 -1.0183 -0.8824  1.5720
  543MOL0     C73177  10.938   3.825   7.900 -0.2933  0.1960 -0.5882
  543MOL0     O73178  11.055   3.781   7.959 -0.6439 -0.1912 -0.1661
  543MOL0     C73179  11.154   3.881   7.992  0.3763 -0.3300 -0.2894
  543MOL0     C73180  11.287   3.826   8.037  0.6545 -0.2872  0.6855
  543MOL0     C73181  11.377   3.938   8.090 -0.4127  0.3041  0.0266
  543MOL0     C73182  11.518   3.885   8.143  0.0805  0.3770  0.2259
  543MOL0     C73183  11.579   4.009   8.216 -0.2254  0.5167  0.1429
  543MOL0     C73184  11.713   3.964   8.275  0.3863  0.2695  0.8596
  543MOL0     C73185  11.779   4.068   8.355 -0.0294  0.3640 -0.4322
  543MOL0     C73186  11.934   4.053   8.387  0.3916  0.2587  0.0010
  543MOL0     N73187  11.980   3.920   8.414 -0.0890  0.7738 -0.1694
  543MOL0     C73188  12.007   3.816   8.316 -0.2652  0.7159  0.0615
  543MOL0     C73189  12.004   3.706   8.401 -0.1865 -0.2315 -0.0493
  543MOL0     C73190  12.028   3.563   8.361 -0.5607 -0.0794 -0.0839
  543MOL0     C73191  12.175   3.505   8.378  0.0865 -0.1582  0.1301
  543MOL0     C73192  12.277   3.586   8.300  0.1546 -0.3519 -0.3001
  543MOL0     C73193  12.414   3.511   8.294 -0.0904 -0.1633  0.8765
  543MOL0     O73194  12.519   3.581   8.235 -0.0108  0.3822  0.4052
  543MOL0     C73195  12.581   3.524   8.121 -1.3908  0.9508 -0.2621
  543MOL0     C73196  12.514   3.491   8.009  1.5929  0.2081 -0.0406
  543MOL0     C73197  12.583   3.414   7.914  0.1527 -0.3218  0.3788
  543MOL0     C73198  12.721   3.402   7.904 -0.3249  0.2116  0.5143
  543MOL0     C73199  12.785   3.333   7.788  0.6583  0.6734  0.1851
  543MOL0     O73200  12.900   3.373   7.746 -0.5555  0.5948  0.3167
  543MOL0     C73201  12.960   3.320   7.634 -0.1671 -0.2042  0.5020
  543MOL0     C73202  13.099   3.293   7.644  1.4328 -0.8689 -0.4568
  543MOL0     C73203  13.168   3.256   7.527 -0.0474 -0.4478  0.1834
  543MOL0     C73204  13.103   3.231   7.409 -0.1093 -0.6665  0.1071
  543MOL0     O73205  13.170   3.190   7.292  0.1563 -0.1439 -0.2562
  543MOL0     C73206  13.241   3.064   7.296 -0.1027 -0.1889  0.4812
  543MOL0     C73207  13.384   3.087   7.249  0.3095 -0.7312 -0.2064
  543MOL0     C73208  13.404   3.129   7.104  0.0854  0.4840  0.2032
  543MOL0     C73209  13.468   3.023   7.008 -0.1860  0.1395 -0.4620
  543MOL0     C73210  13.515   3.095   6.882  0.6188 -1.1387  0.8325
  543MOL0     C73211  13.641   3.184   6.893 -0.5811  0.7242  0.5724
  543MOL0     C73212  13.769   3.107   6.943 -0.2977 -0.1711  0.0583
  543MOL0     C73213  13.891   3.193   6.910  0.8463 -1.0775  0.2185
  543MOL0    Cl73214  13.892   3.336   7.018 -0.0404  0.2408  0.1551
  543MOL0     C73215  12.974   3.275   7.398 -0.1478 -0.5668 -0.3931
  543MOL0     C73216  12.903   3.316   7.503  0.0673 -0.7251 -0.3490
  543MOL0     O73217  12.715   3.244   7.733 -0.5862  0.3148 -0.0467
  543MOL0     C73218  12.790   3.475   8.004 -0.1454  0.3371  0.3255
  543MOL0     C73219  12.719   3.518   8.119  0.0195  0.2034 -0.3574
  543MOL0     N73220  11.969   3.738   8.522  0.4310 -0.8761 -0.0477
  543MOL0     N73221  11.945   3.864   8.535  0.1708 -0.2533  0.0858
  543MOL0     C73222  10.912   3.964   7.889 -0.2701  0.7330 -0.3105
  543MOL0     C73223  10.793   4.008   7.841 -0.3235  0.0101  0.0764
  543MOL0     C73224  10.465   3.980   7.523 -0.8052  0.0805  0.3492
  543MOL0     C73225  10.344   3.913   7.570 -0.0197  0.0418 -0.3284
  543MOL0     C73226  10.238   3.904   7.489  0.3057 -0.3130  0.9251
  543MOL0     C73227  10.238   3.946   7.351  0.1687 -0.1242  0.2152
  543MOL0     O73228  10.119   3.934   7.270  0.1789  0.1884  0.8602
  543MOL0     C73229  10.117   3.980   7.132  0.6718 -0.0668  0.1656
  543MOL0     C73230   9.991   3.925   7.059 -0.3366  0.2452  0.1764
  543MOL0     C73231   9.982   3.776   7.070 -0.3963  0.6542 -0.3733
  543MOL0     C73232   9.878   3.728   6.967  0.1711 -1.2227  0.0477
  543MOL0     C73233   9.923   3.762   6.834  0.6509  0.9819  0.1646
  543MOL0     C73234   9.956   3.785   6.721 -0.0383  0.0224 -0.6879
  543MOL0     C73235  10.356   4.001   7.312  0.0907 -0.0391  0.7395
  543MOL0     C73236  10.469   4.024   7.388  1.1240 -0.0983  0.8079
  543MOL0     C73237  10.583   4.099   7.331 -0.3109 -0.4329 -0.6402
  543MOL0     H73238  10.656   3.698   7.758 -0.9983  3.0065 -1.6880
  543MOL0     H73239  10.871   3.634   7.887 -2.3711 -0.6088  4.8408
  543MOL0     H73240  11.174   3.939   7.901  1.4453 -1.8793 -1.0732
  543MOL0     H73241  11.111   3.936   8.077  1.0895 -3.7300  2.4939
  543MOL0     H73242  11.338   3.775   7.955 -0.5924 -2.0078  0.9072
  543MOL0     H73243  11.268   3.752   8.115 -0.9581  0.3782  0.9629
  543MOL0     H73244  11.337   3.981   8.183  3.5608  1.4154  1.4201
  543MOL0     H73245  11.394   4.011   8.011 -0.6972 -0.1762 -0.4823
  543MOL0     H73246  11.505   3.792   8.199  0.3851 -0.4967 -1.0917
  543MOL0     H73247  11.580   3.864   8.055 -2.0240  0.0492 -1.2409
  543MOL0     H73248  11.602   4.091   8.149  3.3029  0.8066  1.4787
  543MOL0     H73249  11.505   4.040   8.290 -0.6333  2.0157 -0.8547
  543MOL0     H73250  11.704   3.875   8.338 -0.0221 -0.6630 -0.4828
  543MOL0     H73251  11.772   3.930   8.191 -2.5641 -0.1792 -1.2007
  543MOL0     H73252  11.732   4.056   8.453 -2.1102  0.1265 -1.4038
  543MOL0     H73253  11.759   4.173   8.330 -2.8745 -0.0443 -0.1154
  543MOL0     H73254  11.991   4.096   8.303  0.1498  1.3422  0.3723
  543MOL0     H73255  11.961   4.116   8.472 -0.1103 -1.5371  1.5567
  543MOL0     H73256  12.015   3.821   8.208 -0.6659 -1.2415 -0.0874
  543MOL0     H73257  11.954   3.507   8.420 -1.4128  2.4227  1.3594
  543MOL0     H73258  11.993   3.558   8.258 -0.9789  2.6211 -0.1335
  543MOL0     H73259  12.206   3.514   8.482 -1.1900 -0.4330  0.5470
  543MOL0     H73260  12.172   3.405   8.332  2.1264 -0.9426  1.5598
  543MOL0     H73261  12.285   3.687   8.339  0.4336 -1.0133  1.4077
  543MOL0     H73262  12.251   3.589   8.193  1.5846 -0.0563 -0.6626
  543MOL0     H73263  12.400   3.412   8.250  3.3296 -0.2626 -0.3547
  543MOL0     H73264  12.448   3.488   8.395  0.0279 -3.7063  0.1745
  543MOL0     H73265  12.407   3.507   7.999  1.1367 -1.3993  1.6593
  543MOL0     H73266  12.534   3.373   7.827  1.3678  0.0098 -0.4986
  543MOL0     H73267  13.154   3.297   7.737  0.4490 -1.5294  0.1666
  543MOL0     H73268  13.276   3.243   7.525 -0.0980 -0.8275 -0.1587
  543MOL0     H73269  13.249   3.023   7.397  1.2444  0.8205  0.8127
  543MOL0     H73270  13.191   2.990   7.233 -0.8825  0.7168  0.0098
  543MOL0     H73271  13.416   3.163   7.321  1.2439 -2.4786  1.3409
  543MOL0     H73272  13.447   3.000   7.274  1.1924  0.4544  2.0661
  543MOL0     H73273  13.306   3.163   7.068  0.1537  1.0703  0.5728
  543MOL0     H73274  13.465   3.219   7.098 -1.2075  1.3028 -2.3152
  543MOL0     H73275  13.401   2.942   6.977  2.2953 -1.0456 -3.2385
  543MOL0     H73276  13.546   2.975   7.068  2.5384  3.5116 -1.0231
  543MOL0     H73277  13.430   3.155   6.846  1.7927  1.1460  1.6705
  543MOL0     H73278  13.541   3.026   6.802  0.0165  1.9404 -2.2617
  543MOL0     H73279  13.663   3.226   6.795 -0.9445 -3.5695 -1.6291
  543MOL0     H73280  13.620   3.274   6.951  0.8222 -0.2272  2.6513
  543MOL0     H73281  13.778   3.013   6.887  3.2207  0.4904 -0.7220
  543MOL0     H73282  13.760   3.088   7.050  0.6958  0.3102  0.2387
  543MOL0     H73283  13.980   3.133   6.930  1.0363 -1.6448 -2.1053
  543MOL0     H73284  13.892   3.226   6.806  0.6098  1.5513  0.9739
  543MOL0     H73285  12.927   3.277   7.300 -2.0480 -0.7007  0.4669
  543MOL0     H73286  12.801   3.352   7.495 -0.0150  0.3354  3.5025
  543MOL0     H73287  12.898   3.482   7.993  0.0302 -0.2569  1.4953
  543MOL0     H73288  12.769   3.564   8.204 -1.3378  1.0874 -0.0143
  543MOL0     H73289  10.981   4.043   7.918  0.1150  0.4597 -0.4709
  543MOL0     H73290  10.757   4.111   7.836  3.0363  1.2573 -1.5578
  543MOL0     H73291  10.331   3.880   7.673 -0.7094  0.0710 -0.4037
  543MOL0     H73292  10.147   3.855   7.523  0.6466 -0.5422  1.5252
  543MOL0     H73293  10.207   3.951   7.077  1.0076  2.9920 -1.0817
  543MOL0     H73294  10.114   4.089   7.132 -0.1841 -0.0577  1.8169
  543MOL0     H73295  10.008   3.952   6.955 -2.8585  0.0760 -0.3455
  543MOL0     H73296   9.900   3.981   7.081 -1.1304 -0.6215 -0.7920
  543MOL0     H73297   9.958   3.747   7.172  0.3017  0.3596 -0.2903
  543MOL0     H73298  10.074   3.718   7.063 -0.3036  0.8722 -1.0994
  543MOL0     H73299   9.876   3.619   6.968  1.8633 -1.3050 -0.6868
  543MOL0     H73300   9.777   3.760   6.993 -0.0555 -0.0148 -2.0482
  543MOL0     H73301   9.976   3.791   6.616 -2.2624 -1.3859 -1.2524
  543MOL0     H73302  10.367   4.036   7.210 -1.6092 -0.0212  0.5413
  543MOL0     H73303  10.673   4.038   7.322  3.0722  4.3075 -2.8203
  543MOL0     H73304  10.561   4.142   7.233  3.4785  2.2611 -0.5107
  543MOL0     H73305  10.605   4.183   7.397  3.6477 -1.4834 -0.3791
  544MOL0     O73306   4.314   8.152   5.308  0.3964  0.1010  0.5485
  544MOL0     C73307   4.403   8.081   5.252  0.8209  0.7917  0.4168
  544MOL0     O73308   4.385   7.948   5.224  0.2741 -0.9761  0.3620
  544MOL0     C73309   4.263   7.890   5.223  0.2595 -0.7402  0.3445
  544MOL0     C73310   4.153   7.958   5.181  0.5245 -0.6266 -0.4421
  544MOL0     C73311   4.036   7.888   5.159 -0.5427 -0.3037  0.1431
  544MOL0     C73312   4.017   7.747   5.178 -0.9227  0.4790 -0.2266
  544MOL0     O73313   3.916   7.676   5.128  0.9391 -0.3200 -0.4110
  544MOL0     C73314   3.794   7.750   5.074 -0.0769  0.4666 -0.8256
  544MOL0     C73315   3.694   7.647   5.030 -0.5647 -0.1398 -0.6429
  544MOL0     C73316   3.559   7.709   4.999 -1.1500 -0.4265  0.3954
  544MOL0     C73317   3.460   7.594   4.968 -0.1562 -0.2125 -0.0317
  544MOL0     C73318   3.341   7.658   4.894 -0.0179  0.6269  0.0477
  544MOL0     C73319   3.245   7.550   4.844  1.5126  0.3479  0.6624
  544MOL0     C73320   3.307   7.466   4.728 -0.0943 -0.3455  0.7749
  544MOL0     C73321   3.213   7.351   4.679 -0.6812 -0.4626  0.1556
  544MOL0     N73322   3.249   7.304   4.541  0.1652 -0.1250 -0.4517
  544MOL0     C73323   3.303   7.386   4.440 -0.5135  0.0522 -0.3364
  544MOL0     C73324   3.270   7.325   4.330  1.5801  0.3832 -0.2740
  544MOL0     C73325   3.288   7.368   4.188 -0.2591  0.3869  0.3867
  544MOL0     C73326   3.182   7.477   4.136 -0.3930  0.2984 -0.1963
  544MOL0     C73327   3.114   7.434   4.003  0.3388 -0.0261  0.3017
  544MOL0     C73328   3.220   7.426   3.895  0.5870  0.1993 -0.0544
  544MOL0     O73329   3.147   7.361   3.784 -0.6172  0.4021 -0.0368
  544MOL0     C73330   3.089   7.435   3.683 -0.3219 -0.7306  0.2072
  544MOL0     C73331   3.069   7.368   3.562  0.4402 -0.0106 -0.5989
  544MOL0     C73332   3.034   7.436   3.452  0.3773  0.6769  0.5669
  544MOL0     C73333   3.005   7.575   3.447 -0.8226  0.5847 -1.3905
  544MOL0     C73334   2.974   7.642   3.314  0.4527 -0.1728 -0.4339
  544MOL0     O73335   2.968   7.560   3.205  0.1973  0.2502  0.4625
  544MOL0     C73336   2.912   7.616   3.090 -0.3131 -0.7021  0.3669
  544MOL0     C73337   2.986   7.618   2.978 -0.7979 -0.1118  0.2911
  544MOL0     C73338   2.931   7.663   2.862 -0.4561 -0.8508  0.7042
  544MOL0     C73339   2.793   7.705   2.860 -0.2505  0.0984 -0.6055
  544MOL0     O73340   2.747   7.754   2.741  0.2844 -0.5694  0.1863
  544MOL0     C73341   2.608   7.806   2.722 -1.0413 -0.2636 -0.3499
  544MOL0     C73342   2.582   7.812   2.575 -0.1816 -0.0786 -0.0380
  544MOL0     C73343   2.578   7.670   2.516 -0.4175  0.1117 -0.0477
  544MOL0     C73344   2.550   7.701   2.373  0.1329 -0.3873 -0.5074
  544MOL0     C73345   2.495   7.569   2.305  0.1692 -0.2480 -0.1248
  544MOL0     C73346   2.496   7.575   2.144  0.7794  0.4262 -0.9568
  544MOL0     C73347   2.478   7.435   2.076 -0.0526 -0.3846 -0.7473
  544MOL0     C73348   2.344   7.375   2.108 -0.1004  0.0048 -0.9023
  544MOL0    Cl73349   2.326   7.228   2.008 -0.2742  0.0045  0.6675
  544MOL0     C73350   2.717   7.696   2.977 -1.2214 -0.1725  0.5317
  544MOL0     C73351   2.782   7.651   3.095  0.8763  0.6554  0.0095
  544MOL0     O73352   2.954   7.757   3.314 -0.6726  0.0850  0.1397
  544MOL0     C73353   3.037   7.643   3.570  0.6049  0.7556 -0.0518
  544MOL0     C73354   3.056   7.572   3.690 -0.4556  0.5619  0.3876
  544MOL0     N73355   3.192   7.216   4.353 -0.0053 -0.1216 -0.2215
  544MOL0     N73356   3.187   7.200   4.477  0.3881  0.1893 -0.0327
  544MOL0     C73357   4.132   7.682   5.231 -0.2265 -0.0420 -0.4319
  544MOL0     C73358   4.253   7.750   5.244 -0.9440  0.4073  0.1963
  544MOL0     C73359   4.541   8.129   5.250 -0.7814  0.5609  0.1005
  544MOL0     C73360   4.646   8.035   5.260  0.0734  0.5531 -0.2446
  544MOL0     C73361   4.783   8.072   5.229  0.3660 -0.3373  1.0424
  544MOL0     C73362   4.807   8.204   5.196 -0.1080  0.2430 -0.5757
  544MOL0     O73363   4.935   8.259   5.185 -0.0969  0.1278 -0.4309
  544MOL0     C73364   5.054   8.187   5.198 -0.4562  0.7551  0.4886
  544MOL0     C73365   5.109   8.133   5.064 -0.9020  0.1750 -0.3009
  544MOL0     C73366   5.134   8.242   4.954  0.2179  0.4773 -0.6007
  544MOL0     C73367   5.224   8.195   4.845 -0.2363  0.5381 -0.1162
  544MOL0     C73368   5.219   8.293   4.743 -0.1453  0.6809 -0.1845
  544MOL0     C73369   5.217   8.372   4.649 -0.1489 -0.7895 -0.8993
  544MOL0     C73370   4.710   8.300   5.196  0.5446  0.3278 -0.0220
  544MOL0     C73371   4.577   8.264   5.217  0.5817  0.1930  0.0272
  544MOL0     C73372   4.469   8.370   5.197  0.3163  0.6938  0.1499
  544MOL0     H73373   4.148   8.062   5.151 -2.4348  0.4950  3.2364
  544MOL0     H73374   3.947   7.941   5.124 -0.7301 -0.8731 -0.2545
  544MOL0     H73375   3.740   7.807   5.151 -1.4502  0.8972 -2.0609
  544MOL0     H73376   3.805   7.822   4.993 -0.0042 -0.8664 -2.0330
  544MOL0     H73377   3.678   7.570   5.107  0.1609  2.4426  2.2709
  544MOL0     H73378   3.741   7.598   4.944  2.0517 -0.2536  0.7531
  544MOL0     H73379   3.575   7.766   4.907  0.4488 -0.6465  0.5080
  544MOL0     H73380   3.526   7.760   5.090  2.0728  1.4068  0.7042
  544MOL0     H73381   3.501   7.512   4.909 -2.0332 -0.4775 -1.0150
  544MOL0     H73382   3.427   7.545   5.060  1.5355  2.5137  2.1893
  544MOL0     H73383   3.292   7.719   4.970 -2.6791 -0.6675 -0.5032
  544MOL0     H73384   3.368   7.736   4.822 -1.5530 -0.8045 -2.2290
  544MOL0     H73385   3.223   7.489   4.932 -4.1238  0.3816 -0.3409
  544MOL0     H73386   3.148   7.592   4.816 -0.1828 -4.4658 -1.7575
  544MOL0     H73387   3.408   7.428   4.747  0.9325  1.1994 -1.2382
  544MOL0     H73388   3.317   7.541   4.649 -0.3822  1.0575  2.0156
  544MOL0     H73389   3.207   7.263   4.745  1.2244  0.9384  2.3219
  544MOL0     H73390   3.113   7.395   4.673 -0.8315 -1.0368 -3.0168
  544MOL0     H73391   3.364   7.476   4.440  0.6153 -0.6849  0.4934
  544MOL0     H73392   3.388   7.406   4.165 -0.4687 -0.5614 -2.5968
  544MOL0     H73393   3.277   7.272   4.137 -1.3590 -0.2136  1.6836
  544MOL0     H73394   3.101   7.484   4.209 -2.3963 -1.2016 -2.1316
  544MOL0     H73395   3.225   7.577   4.123  0.3721 -0.1542 -1.3963
  544MOL0     H73396   3.042   7.514   3.983 -0.1744  0.0024  2.1313
  544MOL0     H73397   3.060   7.342   4.025 -3.3204  1.6093 -1.0708
  544MOL0     H73398   3.303   7.362   3.926  0.6635  0.5013  0.3656
  544MOL0     H73399   3.257   7.525   3.867  1.9417 -0.2611  0.0612
  544MOL0     H73400   3.087   7.262   3.572  0.3285  0.1449  1.8803
  544MOL0     H73401   3.016   7.381   3.360  3.3868 -1.4024  1.0983
  544MOL0     H73402   3.088   7.583   2.990  0.0528  2.2343  0.3793
  544MOL0     H73403   2.981   7.663   2.766  1.4140 -1.4228  1.6305
  544MOL0     H73404   2.535   7.739   2.769 -1.0714 -1.5137 -2.0779
  544MOL0     H73405   2.592   7.906   2.764  0.5445  0.2329 -0.8591
  544MOL0     H73406   2.484   7.861   2.569  0.1323  0.6605  0.6918
  544MOL0     H73407   2.660   7.874   2.529 -0.6345 -0.5181 -1.4630
  544MOL0     H73408   2.668   7.608   2.527 -0.1635  0.8189  2.5679
  544MOL0     H73409   2.494   7.619   2.564  1.7888 -1.1741  2.7716
  544MOL0     H73410   2.633   7.737   2.311 -1.4992 -1.3143 -3.4006
  544MOL0     H73411   2.471   7.774   2.360 -0.3371 -0.6225  0.8862
  544MOL0     H73412   2.396   7.547   2.345  0.2240  0.9409  0.7286
  544MOL0     H73413   2.557   7.487   2.343  1.2448  0.2535 -0.7737
  544MOL0     H73414   2.424   7.652   2.114  0.9574  1.0561  0.1710
  544MOL0     H73415   2.592   7.613   2.107  0.9748  0.9627  0.0636
  544MOL0     H73416   2.559   7.373   2.114  0.7943  1.4319  0.5241
  544MOL0     H73417   2.492   7.446   1.968 -2.8576 -0.0923 -1.1774
  544MOL0     H73418   2.334   7.354   2.215 -0.2929 -2.0061 -1.2794
  544MOL0     H73419   2.259   7.442   2.090  0.6579  1.5297  0.8288
  544MOL0     H73420   2.613   7.725   2.965 -2.0988 -3.8175 -3.7664
  544MOL0     H73421   2.730   7.643   3.190  1.2973 -1.7058  0.0774
  544MOL0     H73422   3.022   7.750   3.566 -0.5195  0.5900 -1.0101
  544MOL0     H73423   3.059   7.625   3.784  2.2198 -0.5715  1.0397
  544MOL0     H73424   4.116   7.576   5.245  1.2349 -0.0333  1.8494
  544MOL0     H73425   4.338   7.701   5.292  1.4920  1.9927 -2.1964
  544MOL0     H73426   4.625   7.934   5.293  1.4414 -0.2649 -1.7210
  544MOL0     H73427   4.857   7.995   5.244 -0.4569 -1.0857  1.3932
  544MOL0     H73428   5.049   8.105   5.270 -3.0729  0.7690  0.3925
  544MOL0     H73429   5.134   8.252   5.237  1.3756 -1.3571  0.4928
  544MOL0     H73430   5.027   8.071   5.027 -0.8216  0.6284 -1.2623
  544MOL0     H73431   5.202   8.074   5.065  0.9792  2.8101 -3.1041
  544MOL0     H73432   5.183   8.326   5.005  2.3784 -1.1270  0.1201
  544MOL0     H73433   5.039   8.286   4.920  0.6340  2.2807  0.4005
  544MOL0     H73434   5.325   8.184   4.886 -0.8141 -0.8991  1.0328
  544MOL0     H73435   5.195   8.097   4.804  0.2210  0.8091 -1.1065
  544MOL0     H73436   5.214   8.438   4.565 -0.7843 -2.5093 -2.3016
  544MOL0     H73437   4.742   8.400   5.168 -1.1495  0.1232 -3.0824
  544MOL0     H73438   4.495   8.422   5.104 -3.3603 -0.4785 -1.7600
  544MOL0     H73439   4.365   8.337   5.190  0.7630 -1.2809  2.0508
  544MOL0     H73440   4.471   8.441   5.280 -0.5664  0.6570  0.2080
  545MOL0     O73441   4.631   2.795   4.158  0.0802  0.1729  0.8075
  545MOL0     C73442   4.663   2.767   4.275  0.4904 -0.0360  0.2602
  545MOL0     O73443   4.575   2.711   4.358 -0.3211  0.0998  0.1889
  545MOL0     C73444   4.449   2.692   4.322  1.3211 -0.5602 -0.5776
  545MOL0     C73445   4.420   2.566   4.267  0.2193 -0.1984  0.3306
  545MOL0     C73446   4.284   2.535   4.224  0.3842 -0.1783 -0.1124
  545MOL0     C73447   4.179   2.635   4.246  0.1351 -0.0372 -0.3312
  545MOL0     O73448   4.051   2.610   4.206 -0.3844  0.2520 -0.8196
  545MOL0     C73449   4.017   2.476   4.162 -0.1547  0.5544  0.1124
  545MOL0     C73450   3.870   2.440   4.166  1.0465  0.0017  0.8324
  545MOL0     C73451   3.788   2.505   4.053 -0.5709  0.3131  0.9597
  545MOL0     C73452   3.633   2.497   4.072  0.5603 -1.2686 -0.0187
  545MOL0     C73453   3.551   2.544   3.953 -0.3783 -1.1047  0.2652
  545MOL0     C73454   3.401   2.540   3.984 -1.0558  0.4722 -0.0431
  545MOL0     C73455   3.322   2.624   3.886 -0.0184  0.6776 -0.1053
  545MOL0     C73456   3.278   2.546   3.754 -0.3134 -1.0235 -0.8951
  545MOL0     N73457   3.194   2.618   3.661 -0.6435  0.2167 -0.1897
  545MOL0     C73458   3.168   2.754   3.679 -0.2271 -0.4357  0.7338
  545MOL0     C73459   3.128   2.779   3.550  0.6529 -0.6163  0.0923
  545MOL0     C73460   3.089   2.929   3.514  0.6039  0.2338  0.4301
  545MOL0     C73461   3.066   2.966   3.360 -0.6036 -0.3582  0.6951
  545MOL0     C73462   2.929   2.933   3.299 -0.6159 -0.5894  0.3189
  545MOL0     C73463   2.901   2.786   3.299 -0.4093  0.7549 -0.0872
  545MOL0     O73464   2.808   2.745   3.202 -0.2994 -0.3370 -0.2762
  545MOL0     C73465   2.685   2.805   3.198 -0.8775 -1.0387  0.9479
  545MOL0     C73466   2.636   2.840   3.072  0.9110 -0.1510 -0.4892
  545MOL0     C73467   2.505   2.886   3.055 -0.4003  0.1990  0.4242
  545MOL0     C73468   2.424   2.898   3.170  0.0249  1.3981  0.7923
  545MOL0     C73469   2.285   2.947   3.154  0.1996  0.6518  0.0947
  545MOL0     O73470   2.241   2.986   3.031  0.7032 -0.5990 -0.5812
  545MOL0     C73471   2.107   3.027   3.008 -0.4721 -0.0987  0.4717
  545MOL0     C73472   1.993   3.032   3.108 -0.0271 -0.6801  0.5482
  545MOL0     C73473   1.874   3.086   3.067  0.4647 -0.2224  0.7776
  545MOL0     C73474   1.856   3.132   2.937 -0.8908 -0.2717 -0.1922
  545MOL0     O73475   1.745   3.183   2.881  0.4296  0.1209 -0.0835
  545MOL0     C73476   1.636   3.251   2.951 -0.5074  0.2501 -0.8136
  545MOL0     C73477   1.534   3.289   2.835 -0.3696  0.0523 -0.2436
  545MOL0     C73478   1.589   3.401   2.760  0.7026 -0.9986  0.2131
  545MOL0     C73479   1.494   3.439   2.651  0.5371  0.2788  0.4498
  545MOL0     C73480   1.534   3.576   2.585 -0.2572  0.7200  0.0308
  545MOL0     C73481   1.609   3.560   2.461  0.0722 -0.5389 -0.5776
  545MOL0     C73482   1.535   3.471   2.358  0.2641  0.0422 -0.1936
  545MOL0     C73483   1.574   3.505   2.217 -0.8950  0.0676 -0.7326
  545MOL0    Cl73484   1.751   3.487   2.196  0.3332  0.2284 -0.4826
  545MOL0     C73485   1.951   3.103   2.839  0.1034 -0.6482 -0.1163
  545MOL0     C73486   2.084   3.062   2.874 -0.8545 -0.0232 -1.2899
  545MOL0     O73487   2.221   2.930   3.259 -0.5958 -1.1623  0.5157
  545MOL0     C73488   2.479   2.876   3.301 -0.8140 -0.1151 -0.4197
  545MOL0     C73489   2.604   2.829   3.302  0.0898  0.4739 -0.6290
  545MOL0     N73490   3.144   2.679   3.461  0.4880 -0.0653  0.9386
  545MOL0     N73491   3.199   2.583   3.528  1.4023 -0.2123  1.0829
  545MOL0     C73492   4.208   2.757   4.308  0.4659 -0.6418  0.3274
  545MOL0     C73493   4.341   2.788   4.332 -0.5969  0.3376  0.0626
  545MOL0     C73494   4.794   2.792   4.340 -0.3541 -0.5240  0.7533
  545MOL0     C73495   4.810   2.790   4.483 -0.6584 -1.0530  0.8427
  545MOL0     C73496   4.935   2.798   4.546 -0.3403  0.2115  0.2837
  545MOL0     C73497   5.049   2.807   4.468 -0.1139 -1.0482 -0.2742
  545MOL0     O73498   5.172   2.821   4.528  0.3079 -0.5944 -0.6256
  545MOL0     C73499   5.239   2.951   4.522  0.1113  1.1633  0.1910
  545MOL0     C73500   5.212   3.039   4.645  0.9328  0.2187 -0.4866
  545MOL0     C73501   5.318   3.140   4.670  0.1493  0.3410 -0.2176
  545MOL0     C73502   5.437   3.083   4.743  0.3802 -1.0207  0.1110
  545MOL0     C73503   5.542   3.184   4.746 -0.1338 -0.2558 -0.3780
  545MOL0     C73504   5.626   3.267   4.728 -0.0058  0.3718  0.3385
  545MOL0     C73505   5.040   2.807   4.330  0.2659  0.4663  0.3376
  545MOL0     C73506   4.915   2.787   4.268  0.5011 -0.6248  0.0355
  545MOL0     C73507   4.920   2.762   4.121 -0.3986  0.0236 -0.7875
  545MOL0     H73508   4.500   2.493   4.274 -0.8204 -1.6589 -1.9115
  545MOL0     H73509   4.262   2.437   4.182  2.2705 -2.1182  2.9633
  545MOL0     H73510   4.060   2.460   4.063  2.4685 -0.3752  1.2934
  545MOL0     H73511   4.067   2.403   4.228 -0.2749  0.5729  0.2261
  545MOL0     H73512   3.837   2.472   4.265  0.8549 -2.2350  1.5447
  545MOL0     H73513   3.850   2.332   4.165 -1.3015  0.3821  1.1283
  545MOL0     H73514   3.809   2.453   3.959  1.4071  4.7444 -1.3684
  545MOL0     H73515   3.816   2.611   4.056 -0.6389  0.3562  0.1419
  545MOL0     H73516   3.598   2.396   4.095 -2.4868 -0.7823 -1.9589
  545MOL0     H73517   3.603   2.563   4.153 -0.3751 -1.1598 -0.4342
  545MOL0     H73518   3.568   2.647   3.921 -2.8745 -0.2949  1.3053
  545MOL0     H73519   3.573   2.485   3.864 -2.9987 -1.3616 -0.2894
  545MOL0     H73520   3.371   2.437   4.005 -1.7741  0.9189  1.2729
  545MOL0     H73521   3.393   2.583   4.085  2.8853  0.8104  0.2898
  545MOL0     H73522   3.381   2.713   3.864 -2.3126  1.7995 -2.3284
  545MOL0     H73523   3.235   2.664   3.939  0.1240 -0.3026  0.9067
  545MOL0     H73524   3.371   2.505   3.712  1.1259 -0.3023  1.4040
  545MOL0     H73525   3.222   2.460   3.792 -2.5247  1.8408  2.9654
  545MOL0     H73526   3.151   2.820   3.763 -2.3687  0.3257 -0.2151
  545MOL0     H73527   2.996   2.956   3.566 -1.0203  1.3912 -2.7777
  545MOL0     H73528   3.171   2.993   3.546  0.0259  2.1198 -1.6349
  545MOL0     H73529   3.070   3.075   3.356 -1.5452 -0.3260 -3.3903
  545MOL0     H73530   3.149   2.943   3.293 -0.4496  2.5668 -0.2499
  545MOL0     H73531   2.948   2.973   3.199 -2.4545  1.1639  0.6002
  545MOL0     H73532   2.845   2.975   3.355 -0.1203 -2.5985  2.7658
  545MOL0     H73533   2.852   2.761   3.394 -2.9891  2.9980 -0.6860
  545MOL0     H73534   3.000   2.740   3.292 -1.6272 -2.7594  2.5891
  545MOL0     H73535   2.697   2.824   2.984 -1.8855 -3.0170 -2.1064
  545MOL0     H73536   2.484   2.904   2.950 -0.1608  0.0660  0.3531
  545MOL0     H73537   1.990   2.984   3.205  0.4349 -4.0272 -0.9445
  545MOL0     H73538   1.789   3.082   3.135 -0.1780 -0.9260 -0.0373
  545MOL0     H73539   1.591   3.190   3.030  0.5573  0.3743 -0.0974
  545MOL0     H73540   1.668   3.345   2.998 -0.5710  0.0452 -0.3470
  545MOL0     H73541   1.524   3.200   2.772  0.4224  0.7119 -1.3328
  545MOL0     H73542   1.434   3.303   2.878  0.6756  1.7148  1.8715
  545MOL0     H73543   1.613   3.475   2.837  0.4734  0.4302 -1.0284
  545MOL0     H73544   1.683   3.376   2.709 -0.7632 -0.0846 -3.2445
  545MOL0     H73545   1.391   3.445   2.688  0.0507 -0.9923 -0.6043
  545MOL0     H73546   1.492   3.354   2.582 -2.5647  0.9753 -0.5098
  545MOL0     H73547   1.584   3.647   2.652  1.7074 -0.1373 -0.4853
  545MOL0     H73548   1.446   3.634   2.556 -0.4562  2.0975  2.9692
  545MOL0     H73549   1.621   3.662   2.425  1.2396  0.2262  1.7564
  545MOL0     H73550   1.709   3.517   2.472  0.2513 -0.2599 -1.0841
  545MOL0     H73551   1.426   3.479   2.369 -0.0733 -3.9965  1.1708
  545MOL0     H73552   1.548   3.363   2.372  0.0141 -0.3624 -2.7033
  545MOL0     H73553   1.505   3.444   2.158 -1.4711  2.3324 -2.5050
  545MOL0     H73554   1.548   3.609   2.195  2.0957  0.6249 -2.1470
  545MOL0     H73555   1.931   3.109   2.732  0.1097 -0.4594 -0.1081
  545MOL0     H73556   2.162   3.048   2.801 -1.9628 -1.1857 -2.2990
  545MOL0     H73557   2.428   2.878   3.397  3.3267 -3.3414  2.2149
  545MOL0     H73558   2.640   2.817   3.404 -2.6635 -2.9142  0.1381
  545MOL0     H73559   4.136   2.836   4.323  3.0901  3.2836 -4.4680
  545MOL0     H73560   4.381   2.887   4.349 -1.7919  0.9079 -0.3030
  545MOL0     H73561   4.723   2.780   4.547 -1.3963  0.3006  0.0897
  545MOL0     H73562   4.957   2.789   4.652  1.7309  0.2355 -0.0918
  545MOL0     H73563   5.215   3.015   4.437  3.5589  1.7836 -0.4487
  545MOL0     H73564   5.344   2.927   4.509 -0.8992 -3.7050 -0.9004
  545MOL0     H73565   5.201   2.973   4.732  3.6750 -1.2560 -1.1256
  545MOL0     H73566   5.112   3.080   4.629  0.0554 -1.4007  0.5713
  545MOL0     H73567   5.273   3.222   4.726  5.0958  0.4423  4.3598
  545MOL0     H73568   5.350   3.169   4.569 -2.0902  0.6218 -0.8954
  545MOL0     H73569   5.409   3.057   4.845  0.1176  1.0541  0.6084
  545MOL0     H73570   5.467   2.998   4.681  0.0666 -1.0398 -0.0136
  545MOL0     H73571   5.711   3.330   4.713  0.1396 -0.3262 -2.2224
  545MOL0     H73572   5.140   2.806   4.287 -0.4509  0.4726 -1.3943
  545MOL0     H73573   5.010   2.708   4.090 -0.1080  0.0658 -0.0586
  545MOL0     H73574   4.836   2.699   4.089  0.1465 -0.4098 -1.3923
  545MOL0     H73575   4.916   2.861   4.075  0.3813 -0.3396 -1.6514
  546MOL0     O73576  11.394  11.292   2.894 -0.4061  0.4766  0.4536
  546MOL0     C73577  11.284  11.309   2.854  0.0348 -0.3718  0.7173
  546MOL0     O73578  11.248  11.417   2.780  0.7119 -0.0661  0.5357
  546MOL0     C73579  11.329  11.523   2.768 -0.2680  0.5465  0.5886
  546MOL0     C73580  11.429  11.528   2.678 -0.3407 -0.5089 -0.1204
  546MOL0     C73581  11.534  11.622   2.692  0.5207 -0.5371 -0.1617
  546MOL0     C73582  11.529  11.734   2.777  0.5665  0.4024 -0.4020
  546MOL0     O73583  11.633  11.834   2.778  0.4706  0.1519  0.8402
  546MOL0     C73584  11.643  11.918   2.891 -0.0807 -0.7710 -0.2182
  546MOL0     C73585  11.768  12.000   2.920  0.7883  0.0520  0.5559
  546MOL0     C73586  11.753  12.139   2.998  0.0536  0.4612 -0.2808
  546MOL0     C73587  11.670  12.116   3.129  0.1148 -0.5986 -0.1173
  546MOL0     C73588  11.680  12.247   3.213 -0.9751  0.3372  0.7401
  546MOL0     C73589  11.581  12.233   3.331  0.6366 -0.4391  0.5446
  546MOL0     C73590  11.587  12.360   3.430 -0.1099 -0.7705 -0.1704
  546MOL0     C73591  11.478  12.480   3.392 -0.0711  1.0189  0.3276
  546MOL0     N73592  11.484  12.521   3.252 -0.3026 -1.0445 -0.8690
  546MOL0     C73593  11.391  12.483   3.161 -0.2803  0.7479  0.4929
  546MOL0     C73594  11.417  12.563   3.057  0.4058 -0.5539 -0.3045
  546MOL0     C73595  11.354  12.574   2.924 -0.5789  0.0140 -0.2448
  546MOL0     C73596  11.334  12.435   2.856 -0.0624 -1.0736  0.2247
  546MOL0     C73597  11.286  12.472   2.713  0.1477  0.5940 -0.0976
  546MOL0     C73598  11.239  12.344   2.649  0.1782  0.1257 -1.4262
  546MOL0     O73599  11.334  12.232   2.664  0.2678  0.2790  0.4569
  546MOL0     C73600  11.438  12.211   2.574 -0.6142 -0.0186  0.2641
  546MOL0     C73601  11.519  12.099   2.589  0.5141 -0.8518 -0.0788
  546MOL0     C73602  11.609  12.070   2.489 -0.0536 -0.5318  0.1746
  546MOL0     C73603  11.619  12.146   2.374  0.7600 -0.3335  0.7356
  546MOL0     C73604  11.726  12.133   2.273  0.2058 -0.5867 -0.6268
  546MOL0     O73605  11.805  12.023   2.282 -0.1881 -0.9173  0.9186
  546MOL0     C73606  11.865  11.963   2.169  0.4617 -0.5938 -0.0974
  546MOL0     C73607  11.787  11.880   2.093  0.7042 -0.0724  0.4629
  546MOL0     C73608  11.842  11.812   1.980 -0.2380  0.0750  0.9692
  546MOL0     C73609  11.971  11.831   1.941 -1.5762 -0.0910  0.2782
  546MOL0     O73610  12.010  11.766   1.827  0.3264 -0.0472  0.3422
  546MOL0     C73611  12.125  11.803   1.751 -0.2781 -0.3508  0.8475
  546MOL0     C73612  12.157  11.707   1.642  0.5275 -0.5179 -0.0306
  546MOL0     C73613  12.030  11.665   1.563 -0.4958  0.4225  0.3530
  546MOL0     C73614  11.949  11.788   1.506  0.3069  0.4977 -0.3362
  546MOL0     C73615  11.810  11.734   1.461 -0.3659 -0.2674  0.2638
  546MOL0     C73616  11.722  11.685   1.579 -0.2188  0.8593  1.3433
  546MOL0     C73617  11.575  11.652   1.551  0.1813  0.3312  0.3882
  546MOL0     C73618  11.569  11.523   1.479  1.0211 -0.6177  0.1426
  546MOL0    Cl73619  11.394  11.474   1.468  0.3530 -0.4150  0.4412
  546MOL0     C73620  12.052  11.914   2.012  0.2818 -0.1964 -0.5390
  546MOL0     C73621  12.004  11.978   2.127  0.1989  0.4558 -0.4415
  546MOL0     O73622  11.744  12.222   2.192  0.7211  0.8839  0.2198
  546MOL0     C73623  11.522  12.251   2.356 -0.6086  0.4409  0.0473
  546MOL0     C73624  11.444  12.291   2.458  0.1213 -0.7611 -0.1432
  546MOL0     N73625  11.522  12.651   3.086 -0.3899  0.4030 -0.3346
  546MOL0     N73626  11.559  12.625   3.210 -0.4176 -0.4242  0.1916
  546MOL0     C73627  11.420  11.739   2.864  0.6074  0.1910  0.2552
  546MOL0     C73628  11.315  11.641   2.852 -0.4598 -0.1336 -0.6240
  546MOL0     C73629  11.179  11.204   2.874  0.7299 -0.4625 -1.3466
  546MOL0     C73630  11.049  11.240   2.858  0.1133 -0.1819 -0.6033
  546MOL0     C73631  10.938  11.161   2.871 -0.2949 -0.0686 -0.4725
  546MOL0     C73632  10.958  11.032   2.917 -0.4453 -0.2977  0.0120
  546MOL0     O73633  10.847  10.953   2.917 -0.3363  0.2622 -0.2892
  546MOL0     C73634  10.868  10.815   2.957  0.1327  0.7201 -0.0711
  546MOL0     C73635  10.742  10.736   2.936  0.5917  0.1568 -0.4323
  546MOL0     C73636  10.625  10.782   3.030 -0.0280  0.7914  1.1255
  546MOL0     C73637  10.497  10.717   2.982 -0.1799  0.3817 -0.5671
  546MOL0     C73638  10.370  10.773   3.030  0.7491  0.2577  0.6780
  546MOL0     C73639  10.277  10.829   3.080  0.5657 -0.1594 -0.3157
  546MOL0     C73640  11.090  10.989   2.946  0.4463 -0.3493  0.7428
  546MOL0     C73641  11.202  11.074   2.925  0.8506 -0.3743  0.0910
  546MOL0     C73642  11.338  11.020   2.967  1.0941 -0.0392 -1.0200
  546MOL0     H73643  11.448  11.449   2.607 -2.0844 -1.3408  0.2729
  546MOL0     H73644  11.609  11.628   2.614  0.9563  4.4521  0.3147
  546MOL0     H73645  11.560  11.989   2.888  1.5423  1.2253 -0.0096
  546MOL0     H73646  11.631  11.866   2.986 -3.5497  4.6262  2.8202
  546MOL0     H73647  11.800  12.021   2.818 -4.8893  3.7485 -0.9684
  546MOL0     H73648  11.837  11.938   2.978 -1.0649 -3.7613 -0.9372
  546MOL0     H73649  11.689  12.206   2.939 -4.2706 -2.7828  0.2076
  546MOL0     H73650  11.848  12.182   3.031 -1.3766  1.5556  2.8747
  546MOL0     H73651  11.569  12.083   3.104  0.0129 -0.7437  0.4568
  546MOL0     H73652  11.693  12.027   3.189 -0.6149  0.3400  1.6458
  546MOL0     H73653  11.779  12.251   3.259 -0.4466 -1.7536 -0.0883
  546MOL0     H73654  11.667  12.330   3.143 -1.0126 -1.5360 -1.6443
  546MOL0     H73655  11.476  12.213   3.308  0.3672  2.1411 -0.8647
  546MOL0     H73656  11.614  12.141   3.381  2.4070  1.1847  2.5643
  546MOL0     H73657  11.691  12.391   3.445  0.1560  0.3029 -3.4221
  546MOL0     H73658  11.554  12.333   3.530 -3.0895 -1.0061 -1.1158
  546MOL0     H73659  11.378  12.441   3.409  0.4754 -0.3757  0.4562
  546MOL0     H73660  11.492  12.563   3.463  0.6120  1.1241  0.0824
  546MOL0     H73661  11.317  12.404   3.174  1.0677 -1.4249 -3.3819
  546MOL0     H73662  11.257  12.623   2.937 -1.0920 -0.8654 -0.6221
  546MOL0     H73663  11.420  12.623   2.851 -0.0453 -0.6170 -0.1963
  546MOL0     H73664  11.428  12.378   2.856  0.9866  0.5818  0.9035
  546MOL0     H73665  11.257  12.372   2.902 -1.5722 -0.8039 -1.8497
  546MOL0     H73666  11.366  12.519   2.655 -0.8930 -1.3205 -3.3684
  546MOL0     H73667  11.202  12.541   2.721  0.5102  0.9154  1.2789
  546MOL0     H73668  11.217  12.362   2.544 -1.4065 -0.1522 -1.1635
  546MOL0     H73669  11.148  12.312   2.701  2.2685 -1.2631  1.7185
  546MOL0     H73670  11.525  12.035   2.677 -0.6928 -1.1902 -0.2263
  546MOL0     H73671  11.683  11.992   2.507  1.8642  1.0311 -0.6529
  546MOL0     H73672  11.679  11.873   2.094  0.5403  1.0825 -2.0863
  546MOL0     H73673  11.779  11.745   1.922  0.6048  1.1169 -1.2248
  546MOL0     H73674  12.105  11.903   1.712 -0.8625 -0.7667  0.0583
  546MOL0     H73675  12.223  11.812   1.799  0.0808  1.1635 -0.1250
  546MOL0     H73676  12.226  11.748   1.569  1.4177 -2.3649 -0.2865
  546MOL0     H73677  12.210  11.622   1.685 -0.4891 -1.5817 -0.8163
  546MOL0     H73678  12.054  11.603   1.476  3.9812 -0.9486  2.2826
  546MOL0     H73679  11.971  11.601   1.630  0.4853  0.7997  1.6211
  546MOL0     H73680  12.011  11.817   1.421  0.3413 -0.9543 -0.8232
  546MOL0     H73681  11.951  11.860   1.588  6.0077  0.5836 -0.1495
  546MOL0     H73682  11.825  11.646   1.398  1.1587  1.4333 -1.9000
  546MOL0     H73683  11.764  11.816   1.404 -1.2243 -0.7659  0.2243
  546MOL0     H73684  11.759  11.589   1.614 -0.1125  0.4833  0.2280
  546MOL0     H73685  11.731  11.761   1.658 -1.6695  2.1731  0.3255
  546MOL0     H73686  11.544  11.742   1.496 -0.1269 -0.0700 -0.1081
  546MOL0     H73687  11.523  11.631   1.645 -0.5765 -1.4806 -0.3904
  546MOL0     H73688  11.614  11.549   1.383  1.4503  0.4899  0.6259
  546MOL0     H73689  11.626  11.445   1.531  3.3547 -0.9236 -2.6505
  546MOL0     H73690  12.160  11.913   2.004  0.6313 -1.7305  2.7763
  546MOL0     H73691  12.058  12.046   2.192 -1.4275  0.2500  1.2426
  546MOL0     H73692  11.526  12.310   2.265 -1.3860  0.8515  0.2628
  546MOL0     H73693  11.384  12.381   2.444 -0.4973 -1.3388 -1.3060
  546MOL0     H73694  11.394  11.817   2.934 -2.8160  1.7860 -2.4907
  546MOL0     H73695  11.237  11.640   2.926  1.3456 -1.9960  1.3868
  546MOL0     H73696  11.037  11.338   2.814 -3.6556 -0.8093 -1.3027
  546MOL0     H73697  10.835  11.190   2.854  0.2699  0.1524 -4.1953
  546MOL0     H73698  10.902  10.802   3.061  1.1619 -1.6253 -0.6398
  546MOL0     H73699  10.950  10.775   2.897 -1.6791  1.1771 -3.0075
  546MOL0     H73700  10.762  10.631   2.959  0.7504  0.3100  0.1567
  546MOL0     H73701  10.706  10.732   2.833 -2.3036 -1.6184  0.5014
  546MOL0     H73702  10.619  10.891   3.021  0.2826  0.7597  0.4569
  546MOL0     H73703  10.656  10.769   3.134  1.9683  0.6343  0.5675
  546MOL0     H73704  10.493  10.727   2.873  1.8805  4.2943 -0.4566
  546MOL0     H73705  10.501  10.609   3.000  0.4659  0.7443  1.8029
  546MOL0     H73706  10.207  10.888   3.136 -2.5921 -2.9008 -1.0631
  546MOL0     H73707  11.099  10.893   2.995 -2.9687  0.3262  3.0410
  546MOL0     H73708  11.408  11.015   2.884  0.8737  0.5899 -1.2503
  546MOL0     H73709  11.373  11.078   3.053 -0.3851 -3.1854  1.9524
  546MOL0     H73710  11.325  10.923   3.016 -2.3473  1.3205  1.1332
  547MOL0     O73711   0.302   2.968   7.115 -0.6387  0.3213 -0.2593
  547MOL0     C73712   0.409   2.922   7.168  0.2640  0.0461  0.3002
  547MOL0     O73713   0.410   2.805   7.239  0.2139 -0.6919  0.6458
  547MOL0     C73714   0.299   2.721   7.219 -0.8257  0.3846  0.2396
  547MOL0     C73715   0.200   2.715   7.324 -1.1661  0.0485  0.5014
  547MOL0     C73716   0.097   2.625   7.306 -0.4843 -0.4576 -0.3214
  547MOL0     C73717   0.071   2.556   7.193 -0.3063 -0.2202 -0.4904
  547MOL0     O73718  -0.035   2.464   7.172  0.6197  0.2835  0.1726
  547MOL0     C73719  -0.166   2.503   7.210 -0.6413 -0.2673 -0.0139
  547MOL0     C73720  -0.273   2.412   7.141 -0.0506  0.3362  0.7741
  547MOL0     C73721  -0.300   2.482   7.001  0.0361 -0.0699 -0.4365
  547MOL0     C73722  -0.385   2.378   6.917 -0.3293 -0.1167 -0.2495
  547MOL0     C73723  -0.448   2.433   6.799  0.5551  0.2567  0.3213
  547MOL0     C73724  -0.564   2.536   6.847  0.6137  0.6638  0.2561
  547MOL0     C73725  -0.668   2.570   6.738 -0.3733  0.2774  0.3257
  547MOL0     C73726  -0.756   2.453   6.686  0.0333 -0.1051 -0.0018
  547MOL0     N73727  -0.843   2.484   6.570 -1.2579 -0.6245  0.9569
  547MOL0     C73728  -0.808   2.571   6.463  0.4478  0.2280  0.4931
  547MOL0     C73729  -0.911   2.562   6.379  0.1286  0.0043 -0.6214
  547MOL0     C73730  -0.915   2.618   6.247 -0.2733  0.4893 -0.3019
  547MOL0     C73731  -1.006   2.740   6.231  0.8010 -0.0626 -0.4733
  547MOL0     C73732  -1.159   2.699   6.250  0.0786  0.7176  0.4640
  547MOL0     C73733  -1.218   2.612   6.132 -0.5935 -0.3994  0.1615
  547MOL0     O73734  -1.361   2.601   6.123 -0.1150  0.6169  0.1472
  547MOL0     C73735  -1.433   2.496   6.060  0.5214  0.2869  0.5638
  547MOL0     C73736  -1.366   2.396   5.995  0.3314  0.3835  0.2049
  547MOL0     C73737  -1.434   2.292   5.938 -0.0330  0.4743 -0.4651
  547MOL0     C73738  -1.573   2.289   5.930  0.1198 -0.1882 -0.2512
  547MOL0     C73739  -1.650   2.182   5.864  0.9502 -1.0450  0.0429
  547MOL0     O73740  -1.784   2.217   5.828 -0.4493 -0.0635 -0.5050
  547MOL0     C73741  -1.870   2.125   5.779 -0.1061 -0.8238 -0.0847
  547MOL0     C73742  -1.942   2.163   5.666  0.1833 -0.1202  0.1991
  547MOL0     C73743  -2.037   2.073   5.613 -1.0003 -0.3840  0.2746
  547MOL0     C73744  -2.061   1.945   5.677  0.5036 -0.2743 -0.3154
  547MOL0     O73745  -2.160   1.863   5.645  1.8282 -0.1801  0.0029
  547MOL0     C73746  -2.204   1.865   5.503 -0.0036 -0.8805 -0.0082
  547MOL0     C73747  -2.288   1.746   5.472 -0.0816  0.2586  0.0314
  547MOL0     C73748  -2.352   1.738   5.328 -0.4910 -0.8277  0.5277
  547MOL0     C73749  -2.441   1.612   5.298  0.4570 -0.3183 -1.1945
  547MOL0     C73750  -2.381   1.475   5.362  0.2671  0.0766  0.1920
  547MOL0     C73751  -2.485   1.365   5.328  0.0660 -0.0982 -0.7902
  547MOL0     C73752  -2.435   1.225   5.357  0.2853 -0.8526 -0.5993
  547MOL0     C73753  -2.530   1.110   5.320  1.5330 -0.3831  0.9174
  547MOL0    Cl73754  -2.469   0.963   5.392  0.0851  0.0020  0.3555
  547MOL0     C73755  -1.988   1.916   5.790 -0.3064 -0.0761  0.1898
  547MOL0     C73756  -1.884   1.999   5.833 -0.5537  0.3732 -0.6291
  547MOL0     O73757  -1.598   2.075   5.850 -0.2552  0.1188 -0.0272
  547MOL0     C73758  -1.639   2.400   5.989 -0.3573  0.5150 -0.0634
  547MOL0     C73759  -1.572   2.492   6.060  0.4721  1.2265 -0.7036
  547MOL0     N73760  -1.006   2.475   6.438  0.1616  0.6457 -0.2044
  547MOL0     N73761  -0.968   2.426   6.549  0.4517 -0.4127  0.5090
  547MOL0     C73762   0.167   2.564   7.088  0.4650 -0.9417  0.4423
  547MOL0     C73763   0.278   2.648   7.103 -0.2313 -0.4443 -0.3794
  547MOL0     C73764   0.531   2.996   7.134  0.1414  0.3231  0.5975
  547MOL0     C73765   0.645   2.917   7.112 -0.4813  0.3153  0.0962
  547MOL0     C73766   0.768   2.983   7.090  0.2436 -0.7848 -0.1488
  547MOL0     C73767   0.783   3.125   7.092  0.0646 -0.7545  0.1985
  547MOL0     O73768   0.895   3.193   7.071  0.0462 -0.6737 -0.2075
  547MOL0     C73769   1.013   3.113   7.062  0.0577 -0.9536  0.9454
  547MOL0     C73770   1.133   3.197   7.037  0.6280 -0.0958  0.3324
  547MOL0     C73771   1.268   3.112   7.051  1.1684 -1.0311  0.3290
  547MOL0     C73772   1.260   2.971   6.980  0.1128  0.3802 -0.6840
  547MOL0     C73773   1.244   2.987   6.842 -0.9419  0.9510  0.8372
  547MOL0     C73774   1.225   3.001   6.723  0.0082 -0.2809  0.4726
  547MOL0     C73775   0.661   3.195   7.105 -0.2298 -0.4406 -0.1710
  547MOL0     C73776   0.542   3.135   7.137  0.0851 -0.6741 -0.7336
  547MOL0     C73777   0.430   3.226   7.161  1.1374 -0.5733  0.1868
  547MOL0     H73778   0.194   2.794   7.398  0.2472  2.8928 -2.1770
  547MOL0     H73779   0.023   2.612   7.385  0.9333 -2.6795  0.7227
  547MOL0     H73780  -0.172   2.485   7.318  0.7181 -0.8839 -0.0227
  547MOL0     H73781  -0.197   2.605   7.185  1.0683  0.9173  2.2547
  547MOL0     H73782  -0.361   2.415   7.206  0.4631  1.5548  1.4624
  547MOL0     H73783  -0.236   2.309   7.136  2.7832  1.2859  0.5627
  547MOL0     H73784  -0.212   2.516   6.945 -0.2207 -1.6283 -1.8759
  547MOL0     H73785  -0.357   2.574   7.015 -2.0401 -1.3858  0.1860
  547MOL0     H73786  -0.307   2.304   6.902  0.6662 -0.1019  3.6592
  547MOL0     H73787  -0.448   2.320   6.986  3.0053 -2.6474  0.9103
  547MOL0     H73788  -0.370   2.472   6.733 -1.8962 -0.5139 -3.3491
  547MOL0     H73789  -0.493   2.344   6.754  1.5673 -2.1116  3.6219
  547MOL0     H73790  -0.633   2.487   6.917  0.6355 -3.4755 -2.2297
  547MOL0     H73791  -0.512   2.626   6.880  1.4550 -0.5021  2.2930
  547MOL0     H73792  -0.610   2.604   6.651 -1.5740 -0.0235 -0.6207
  547MOL0     H73793  -0.728   2.655   6.771  2.1581  1.9480  0.9115
  547MOL0     H73794  -0.694   2.371   6.649 -2.6457 -1.5577 -1.5606
  547MOL0     H73795  -0.809   2.420   6.777 -0.7476 -1.3354 -0.8712
  547MOL0     H73796  -0.709   2.614   6.448  0.3144  0.7570  1.0869
  547MOL0     H73797  -0.817   2.662   6.226 -0.8931  1.4094 -1.3755
  547MOL0     H73798  -0.934   2.538   6.175 -1.1478  0.2838  0.1386
  547MOL0     H73799  -0.985   2.808   6.314 -1.6018  2.2291 -1.5888
  547MOL0     H73800  -0.992   2.786   6.133  1.4064 -0.3466 -0.5180
  547MOL0     H73801  -1.224   2.781   6.283 -1.9177 -2.0017  4.0641
  547MOL0     H73802  -1.164   2.636   6.339 -2.8756  1.2701  0.8167
  547MOL0     H73803  -1.173   2.513   6.132 -2.9122 -1.5032  1.0307
  547MOL0     H73804  -1.185   2.663   6.040 -0.9180 -0.3961  0.0451
  547MOL0     H73805  -1.258   2.396   5.986  0.6931 -1.4423  3.2882
  547MOL0     H73806  -1.386   2.208   5.889 -0.6746 -0.6415  0.7565
  547MOL0     H73807  -1.925   2.265   5.636  0.1083  0.3030  1.5154
  547MOL0     H73808  -2.091   2.105   5.525  1.0196 -0.3128 -1.0004
  547MOL0     H73809  -2.265   1.954   5.487 -2.0346 -2.1330  0.3614
  547MOL0     H73810  -2.123   1.868   5.430 -1.1407 -0.1229 -1.2984
  547MOL0     H73811  -2.237   1.652   5.491 -0.4576  0.2820  1.2226
  547MOL0     H73812  -2.376   1.738   5.537 -1.2519 -0.2250 -1.5433
  547MOL0     H73813  -2.408   1.829   5.304 -0.7701 -1.0930  0.1623
  547MOL0     H73814  -2.268   1.720   5.262 -2.1141 -0.2039 -1.8175
  547MOL0     H73815  -2.486   1.602   5.200 -3.2410 -0.5790  0.3703
  547MOL0     H73816  -2.533   1.638   5.350  1.4428  0.0668  0.4609
  547MOL0     H73817  -2.376   1.478   5.471  0.7421  3.5343  0.2075
  547MOL0     H73818  -2.279   1.464   5.325 -0.1270 -0.1557 -0.8857
  547MOL0     H73819  -2.575   1.387   5.388  2.3703 -0.6267  3.2439
  547MOL0     H73820  -2.515   1.372   5.223 -2.5060  0.6963 -0.0813
  547MOL0     H73821  -2.426   1.223   5.466 -1.0390  1.3742 -0.3858
  547MOL0     H73822  -2.333   1.209   5.321  1.2500 -0.3249  1.7566
  547MOL0     H73823  -2.634   1.119   5.350  0.2858 -0.4685 -2.8747
  547MOL0     H73824  -2.523   1.096   5.211  1.1336 -2.6935  1.1483
  547MOL0     H73825  -2.019   1.827   5.844  1.3802  1.1525  3.4250
  547MOL0     H73826  -1.822   1.984   5.920 -1.0895 -2.5456 -0.6393
  547MOL0     H73827  -1.748   2.400   5.993 -0.3448 -0.5286  1.3210
  547MOL0     H73828  -1.633   2.558   6.120  1.2070  0.5668  0.8251
  547MOL0     H73829   0.153   2.507   6.996 -1.8554 -3.7059  2.2780
  547MOL0     H73830   0.345   2.671   7.021 -1.6617  0.5652 -1.3204
  547MOL0     H73831   0.648   2.808   7.112  1.9635  0.2561 -2.8929
  547MOL0     H73832   0.859   2.924   7.087 -0.1794 -1.7396  2.8094
  547MOL0     H73833   0.984   3.041   6.985 -0.3768 -1.2246  1.3510
  547MOL0     H73834   1.031   3.060   7.156 -0.3585 -3.6184 -0.3700
  547MOL0     H73835   1.122   3.289   7.094  0.3666  1.2760 -1.7969
  547MOL0     H73836   1.124   3.238   6.936  0.8069  0.6044  0.5996
  547MOL0     H73837   1.294   3.097   7.156 -2.2570  2.2441  1.8879
  547MOL0     H73838   1.353   3.163   7.005 -1.6454 -0.0040 -4.3997
  547MOL0     H73839   1.353   2.922   7.008 -0.9288 -1.4728 -0.2359
  547MOL0     H73840   1.181   2.904   7.016 -1.7291  1.5032 -2.4399
  547MOL0     H73841   1.193   3.018   6.623  0.0096 -1.2192  0.3064
  547MOL0     H73842   0.678   3.302   7.096  1.2310 -0.5296  1.1195
  547MOL0     H73843   0.357   3.197   7.238 -1.0167 -0.0222 -1.5174
  547MOL0     H73844   0.457   3.330   7.183 -0.7784  0.5191 -2.0810
  547MOL0     H73845   0.381   3.240   7.063  0.5863 -0.0121  0.5305
  548MOL0     O73846   4.616   2.283   2.446  0.1351  0.0093  0.4088
  548MOL0     C73847   4.627   2.180   2.379 -0.1991 -0.4179 -0.0253
  548MOL0     O73848   4.732   2.084   2.394  0.1230  0.1997  0.2175
  548MOL0     C73849   4.853   2.128   2.442  0.1624 -0.8629  0.3205
  548MOL0     C73850   4.863   2.149   2.576 -0.5196 -0.1685  0.2029
  548MOL0     C73851   4.994   2.187   2.624  0.1176  0.8834 -0.3834
  548MOL0     C73852   5.097   2.219   2.542  0.8685  0.4316 -0.4439
  548MOL0     O73853   5.208   2.280   2.578  0.3474 -0.0985  0.3491
  548MOL0     C73854   5.268   2.269   2.712  0.1355  0.1215 -0.2563
  548MOL0     C73855   5.409   2.322   2.701 -0.0174  0.2094 -0.0165
  548MOL0     C73856   5.498   2.270   2.810  0.8584 -0.2604  0.0380
  548MOL0     C73857   5.461   2.324   2.950  0.3427 -0.6615  0.4734
  548MOL0     C73858   5.584   2.350   3.042 -0.0144 -0.0140 -0.4878
  548MOL0     C73859   5.659   2.226   3.073 -0.0972  0.6928  1.0938
  548MOL0     C73860   5.736   2.241   3.193  0.1294 -1.3052 -0.5812
  548MOL0     C73861   5.873   2.322   3.194 -0.3271  0.0964 -0.0165
  548MOL0     N73862   5.923   2.352   3.332 -0.3903  0.8604 -0.0710
  548MOL0     C73863   6.029   2.290   3.395  0.0365 -0.3363  0.4879
  548MOL0     C73864   6.034   2.362   3.510  0.6150  0.0246 -0.7519
  548MOL0     C73865   6.122   2.335   3.631 -1.4811  0.2468  0.3204
  548MOL0     C73866   6.260   2.328   3.576 -0.6209  0.0548  0.6701
  548MOL0     C73867   6.336   2.470   3.585 -1.1212  0.7584 -0.3973
  548MOL0     C73868   6.406   2.488   3.719 -0.1814  0.0776  0.4637
  548MOL0     O73869   6.466   2.621   3.721  0.0003 -0.3209 -0.1240
  548MOL0     C73870   6.577   2.635   3.791  0.4260  0.2834 -0.2525
  548MOL0     C73871   6.673   2.730   3.748 -0.2885  0.0076  0.3152
  548MOL0     C73872   6.794   2.744   3.820  0.6078 -0.2736  0.4614
  548MOL0     C73873   6.821   2.654   3.933  0.5033  0.5331  0.0134
  548MOL0     C73874   6.948   2.662   4.012 -0.1189 -0.0337 -0.3871
  548MOL0     O73875   7.047   2.756   3.965 -0.2833  0.4191  0.0427
  548MOL0     C73876   7.179   2.764   4.012  0.4803 -0.5953 -0.5464
  548MOL0     C73877   7.250   2.651   4.042 -0.8293 -1.0442  0.2748
  548MOL0     C73878   7.373   2.675   4.119  0.8400  0.1052 -0.1205
  548MOL0     C73879   7.429   2.801   4.124 -0.1727  0.7612 -0.0395
  548MOL0     O73880   7.548   2.822   4.196 -0.1425  0.3211 -0.5273
  548MOL0     C73881   7.664   2.808   4.109 -0.1073 -0.1970 -1.7226
  548MOL0     C73882   7.800   2.774   4.177 -0.3846 -0.0617 -0.9226
  548MOL0     C73883   7.919   2.789   4.073  0.0243  0.9658  0.2411
  548MOL0     C73884   8.058   2.746   4.130  0.0434  0.6738 -0.5759
  548MOL0     C73885   8.065   2.599   4.168 -0.2303  0.5135  0.1414
  548MOL0     C73886   8.206   2.560   4.201  0.0108 -0.3303 -0.4320
  548MOL0     C73887   8.215   2.407   4.226  0.5435 -0.6669  0.2494
  548MOL0     C73888   8.148   2.351   4.348  0.1789  0.3767  0.8413
  548MOL0    Cl73889   8.202   2.419   4.487  0.0375  0.1284  0.1345
  548MOL0     C73890   7.357   2.914   4.093 -0.0523 -0.1955 -0.1579
  548MOL0     C73891   7.225   2.893   4.040  0.6534 -0.4650 -0.7757
  548MOL0     O73892   6.964   2.601   4.125  0.2606 -0.0960  0.0047
  548MOL0     C73893   6.720   2.566   3.971  0.0735  0.9278 -0.6581
  548MOL0     C73894   6.602   2.553   3.901 -0.1518 -0.2519 -0.8449
  548MOL0     N73895   5.941   2.463   3.514  0.5225  1.0146 -0.4792
  548MOL0     N73896   5.875   2.451   3.407 -0.4659 -0.4081  0.5991
  548MOL0     C73897   5.083   2.200   2.401 -0.5816  0.0357 -0.1387
  548MOL0     C73898   4.962   2.139   2.358 -0.2295 -0.4536 -0.1103
  548MOL0     C73899   4.500   2.122   2.323  0.3655  0.4724  0.1988
  548MOL0     C73900   4.478   1.986   2.313  0.7118  0.3096 -1.0838
  548MOL0     C73901   4.346   1.934   2.284 -0.4420  0.2425  0.0957
  548MOL0     C73902   4.236   2.014   2.256 -0.6390 -0.0763  0.2264
  548MOL0     O73903   4.120   1.943   2.220  0.1237 -0.7220  0.3034
  548MOL0     C73904   4.009   2.018   2.169 -0.4809  0.0835 -0.0032
  548MOL0     C73905   3.893   1.935   2.117 -1.2203  0.1495  0.5780
  548MOL0     C73906   3.830   1.859   2.231  0.2870 -0.4978 -0.8100
  548MOL0     C73907   3.687   1.914   2.250  0.0915 -0.0361 -0.4172
  548MOL0     C73908   3.639   1.838   2.359 -0.4311  0.6163 -0.7488
  548MOL0     C73909   3.609   1.784   2.467  0.9943 -0.0249  0.5159
  548MOL0     C73910   4.258   2.153   2.259  0.0362  0.5754  0.2525
  548MOL0     C73911   4.390   2.212   2.290  0.7237 -0.1670 -0.0517
  548MOL0     C73912   4.402   2.364   2.285 -0.0061  0.2934 -0.0984
  548MOL0     H73913   4.783   2.147   2.649  0.1691  0.6202  1.0194
  548MOL0     H73914   5.006   2.210   2.729  2.3921  3.2740 -1.0757
  548MOL0     H73915   5.212   2.316   2.793 -0.8077  0.5346 -1.1301
  548MOL0     H73916   5.274   2.162   2.734  1.6663  0.4057  0.8535
  548MOL0     H73917   5.392   2.430   2.705 -2.3289 -0.1368  0.6895
  548MOL0     H73918   5.449   2.304   2.601 -3.2247  4.5342 -2.4312
  548MOL0     H73919   5.604   2.296   2.798  0.7629  1.2289  1.9379
  548MOL0     H73920   5.496   2.161   2.802  2.5357 -0.2423 -1.2169
  548MOL0     H73921   5.407   2.419   2.949 -0.6047 -1.1262  2.2100
  548MOL0     H73922   5.387   2.253   2.988  0.9149 -3.5892 -3.2952
  548MOL0     H73923   5.652   2.417   2.989 -1.0404  0.2793 -1.4710
  548MOL0     H73924   5.542   2.395   3.132 -2.6081 -0.6595 -1.3057
  548MOL0     H73925   5.581   2.151   3.089  1.5648 -1.5473 -0.4880
  548MOL0     H73926   5.713   2.188   2.986 -3.2764 -1.4654 -0.1079
  548MOL0     H73927   5.762   2.144   3.235  0.9305 -0.9253 -0.1613
  548MOL0     H73928   5.672   2.286   3.270  0.4829 -1.7292 -0.0280
  548MOL0     H73929   5.953   2.264   3.147  0.9477  0.1595  1.9617
  548MOL0     H73930   5.859   2.422   3.152 -3.3241  0.1335  0.8680
  548MOL0     H73931   6.088   2.208   3.355 -1.5283 -1.4465  0.3757
  548MOL0     H73932   6.119   2.413   3.708  0.8824 -0.4804  1.2424
  548MOL0     H73933   6.108   2.240   3.682  0.1414  0.2251  0.7783
  548MOL0     H73934   6.325   2.253   3.621 -0.4408 -0.6185 -0.6593
  548MOL0     H73935   6.264   2.296   3.472 -0.6534 -1.8159  1.2151
  548MOL0     H73936   6.267   2.552   3.561 -2.2062 -0.5469 -1.9710
  548MOL0     H73937   6.412   2.464   3.507 -0.5200  2.2332  0.0363
  548MOL0     H73938   6.482   2.410   3.722  1.9311  1.9823 -0.3923
  548MOL0     H73939   6.332   2.490   3.799 -1.6172  0.7013 -0.8170
  548MOL0     H73940   6.646   2.794   3.664  0.3955 -1.5104 -1.1258
  548MOL0     H73941   6.867   2.813   3.779 -0.6415  4.2031  4.6904
  548MOL0     H73942   7.205   2.553   4.032 -0.3096 -1.2695  0.0957
  548MOL0     H73943   7.429   2.584   4.140  0.3381  0.3141  2.5456
  548MOL0     H73944   7.642   2.741   4.026 -0.0906 -1.0870 -1.0332
  548MOL0     H73945   7.672   2.910   4.071 -1.4626  0.9677  0.8291
  548MOL0     H73946   7.827   2.839   4.262  5.5757  1.1881 -3.2541
  548MOL0     H73947   7.805   2.670   4.211  2.2501  0.8339  2.0381
  548MOL0     H73948   7.914   2.721   3.988 -1.2291  1.4405 -0.1033
  548MOL0     H73949   7.915   2.890   4.031  0.2706  0.2255 -1.6199
  548MOL0     H73950   8.070   2.805   4.222  2.2520  1.3577 -1.2411
  548MOL0     H73951   8.134   2.780   4.059  0.3407 -1.7088 -1.4584
  548MOL0     H73952   8.018   2.541   4.088 -1.2148 -2.4703  2.6955
  548MOL0     H73953   8.006   2.579   4.258 -1.3912 -2.3081 -1.1301
  548MOL0     H73954   8.274   2.580   4.118  0.4498 -0.2773 -0.0641
  548MOL0     H73955   8.242   2.621   4.284 -2.3909  0.8289 -0.1557
  548MOL0     H73956   8.323   2.394   4.241  0.7454  0.5570 -0.0237
  548MOL0     H73957   8.183   2.349   4.139 -2.3903  0.5564  0.4036
  548MOL0     H73958   8.040   2.368   4.344 -0.0509 -0.8701  1.2478
  548MOL0     H73959   8.167   2.243   4.344  0.1390  0.3359  1.6224
  548MOL0     H73960   7.404   3.011   4.108  0.6721 -0.6873  0.8984
  548MOL0     H73961   7.182   2.984   4.002  4.0604  0.9051 -1.7527
  548MOL0     H73962   6.729   2.511   4.064 -2.8981 -0.2556 -0.9685
  548MOL0     H73963   6.536   2.471   3.926  0.5068 -0.6891 -0.4863
  548MOL0     H73964   5.173   2.216   2.344  0.3745 -1.1500  0.9668
  548MOL0     H73965   4.949   2.095   2.260  1.2196 -0.5462 -0.2806
  548MOL0     H73966   4.550   1.910   2.341 -1.2549 -0.7495  1.4482
  548MOL0     H73967   4.343   1.826   2.285 -0.6672  0.2287  1.7415
  548MOL0     H73968   4.062   2.079   2.095 -1.8072  0.0843 -0.9818
  548MOL0     H73969   3.958   2.086   2.237 -0.8077  0.1603 -0.3252
  548MOL0     H73970   3.935   1.857   2.053 -1.3090  2.0102 -1.8913
  548MOL0     H73971   3.824   2.000   2.063 -0.4909  2.0866  1.8836
  548MOL0     H73972   3.893   1.868   2.320 -0.2475 -1.5180 -0.3039
  548MOL0     H73973   3.829   1.751   2.214  0.0753 -0.2423 -2.5722
  548MOL0     H73974   3.697   2.017   2.285  2.2735 -0.9089  1.8018
  548MOL0     H73975   3.631   1.878   2.164  0.7683 -2.0856 -0.0603
  548MOL0     H73976   3.564   1.745   2.556 -0.1916  3.6341  1.6774
  548MOL0     H73977   4.174   2.214   2.229 -0.3399 -0.2430 -0.4230
  548MOL0     H73978   4.327   2.416   2.225  0.2380 -0.6960 -1.3176
  548MOL0     H73979   4.400   2.406   2.386  0.7393  2.0200 -0.7742
  548MOL0     H73980   4.494   2.392   2.233  1.7003 -2.6439  1.0555
  549MOL0     O73981   1.520   4.356   2.302 -0.1909 -0.9477 -0.0880
  549MOL0     C73982   1.613   4.388   2.239 -0.3495 -0.2368 -0.6113
  549MOL0     O73983   1.626   4.385   2.099  0.3832  0.0829  0.1582
  549MOL0     C73984   1.533   4.421   2.005  0.9255 -0.9121  0.2956
  549MOL0     C73985   1.568   4.499   1.895 -0.5661 -0.3299  0.8878
  549MOL0     C73986   1.486   4.530   1.793  0.4847 -1.0891 -0.1410
  549MOL0     C73987   1.361   4.456   1.787  0.0605 -0.6815 -0.5975
  549MOL0     O73988   1.265   4.471   1.692  0.4514 -0.2514  0.9617
  549MOL0     C73989   1.238   4.610   1.648 -0.5547  0.8188  0.8139
  549MOL0     C73990   1.178   4.682   1.772  0.2947  0.1766  0.8018
  549MOL0     C73991   1.117   4.820   1.726 -0.3455  0.5649 -1.2483
  549MOL0     C73992   1.219   4.941   1.694  0.5252 -0.0775  0.2209
  549MOL0     C73993   1.135   5.073   1.682 -0.1445 -0.3113  0.5817
  549MOL0     C73994   1.227   5.196   1.684  0.4469  0.3375  0.6741
  549MOL0     C73995   1.260   5.253   1.546  0.7440  0.6248 -0.5165
  549MOL0     C73996   1.306   5.396   1.566 -0.3030  0.2855 -0.6094
  549MOL0     N73997   1.369   5.453   1.446 -0.1180 -0.0130 -0.1019
  549MOL0     C73998   1.308   5.542   1.361 -0.4747 -0.4443 -0.3830
  549MOL0     C73999   1.414   5.590   1.297  0.1286 -1.2200 -0.7988
  549MOL0     C74000   1.430   5.715   1.214 -0.7540  0.1643  0.5813
  549MOL0     C74001   1.428   5.697   1.061  0.5934  0.4731  0.5014
  549MOL0     C74002   1.566   5.683   0.993 -0.3866  1.2815 -0.1315
  549MOL0     C74003   1.574   5.615   0.860  0.1113 -0.2598 -0.0557
  549MOL0     O74004   1.509   5.691   0.757 -0.8374 -0.2375  0.3039
  549MOL0     C74005   1.547   5.660   0.628 -0.0256  0.5893  0.7979
  549MOL0     C74006   1.677   5.699   0.586 -0.1513 -0.0510 -0.2372
  549MOL0     C74007   1.718   5.659   0.455 -0.0412 -0.8542 -0.1084
  549MOL0     C74008   1.625   5.624   0.361 -0.9062  0.8206  0.0169
  549MOL0     C74009   1.670   5.576   0.231  0.6824  0.3155  0.5595
  549MOL0     O74010   1.791   5.509   0.227 -0.1910  0.4303  0.3122
  549MOL0     C74011   1.813   5.450   0.105  0.0584  0.2679 -0.5637
  549MOL0     C74012   1.744   5.336   0.085 -0.1631  0.0211  0.5175
  549MOL0     C74013   1.767   5.264  -0.036  0.2806  0.4933  0.9046
  549MOL0     C74014   1.851   5.314  -0.134 -0.5041  0.2934 -0.1517
  549MOL0     O74015   1.863   5.237  -0.244 -0.0029  0.3719 -0.5892
  549MOL0     C74016   1.851   5.321  -0.362 -0.2033 -0.0532 -0.3500
  549MOL0     C74017   1.710   5.381  -0.401 -0.9540  0.0803 -0.1241
  549MOL0     C74018   1.610   5.269  -0.436 -0.9182 -0.3802  0.1619
  549MOL0     C74019   1.469   5.336  -0.468 -0.3078 -0.1900  0.3709
  549MOL0     C74020   1.463   5.405  -0.610 -0.3728 -0.0840  0.0551
  549MOL0     C74021   1.331   5.392  -0.680 -0.1347  0.4627 -0.0358
  549MOL0     C74022   1.318   5.486  -0.801  0.3437  0.2371  0.0411
  549MOL0     C74023   1.176   5.498  -0.833 -0.1909 -0.2712 -0.9307
  549MOL0    Cl74024   1.108   5.330  -0.851 -0.0054  0.0662  0.8253
  549MOL0     C74025   1.907   5.437  -0.111 -0.8021 -0.2602  0.0013
  549MOL0     C74026   1.890   5.503   0.005  0.2935  0.7352 -0.8292
  549MOL0     O74027   1.593   5.591   0.136  0.5506 -0.2553 -0.4121
  549MOL0     C74028   1.491   5.612   0.394 -0.0044 -0.4414  0.7068
  549MOL0     C74029   1.453   5.641   0.527  0.0566  0.1062  0.6855
  549MOL0     N74030   1.532   5.534   1.347  0.6485  0.7530  0.1352
  549MOL0     N74031   1.507   5.452   1.441  0.9513 -0.6376 -0.3671
  549MOL0     C74032   1.325   4.374   1.895  0.8028 -0.6779  0.5483
  549MOL0     C74033   1.411   4.365   2.003 -0.2270  0.0356 -0.2285
  549MOL0     C74034   1.734   4.403   2.322  0.0568 -0.1103 -0.1381
  549MOL0     C74035   1.850   4.334   2.283 -0.1047 -0.6225  0.5912
  549MOL0     C74036   1.978   4.353   2.341 -0.8896 -0.2916 -0.1664
  549MOL0     C74037   1.990   4.449   2.448 -0.1939 -1.2837  0.1396
  549MOL0     O74038   2.112   4.493   2.508  0.9410 -0.4131  0.0481
  549MOL0     C74039   2.229   4.418   2.473  0.0849  0.1702  0.4208
  549MOL0     C74040   2.340   4.504   2.525  0.1069  0.1757 -0.0376
  549MOL0     C74041   2.473   4.433   2.545  0.2967 -0.2351 -0.4014
  549MOL0     C74042   2.539   4.420   2.409 -0.8519  0.7807  0.6189
  549MOL0     C74043   2.558   4.545   2.337  0.2930  0.7583 -0.0594
  549MOL0     C74044   2.580   4.651   2.283 -0.9824 -0.7540 -1.0427
  549MOL0     C74045   1.879   4.512   2.491 -0.1086 -0.8552  0.0548
  549MOL0     C74046   1.754   4.493   2.436  0.3053 -0.0575  0.2104
  549MOL0     C74047   1.636   4.570   2.496  0.1475 -0.3765 -0.3881
  549MOL0     H74048   1.666   4.545   1.894  0.7380 -2.9203 -0.3388
  549MOL0     H74049   1.525   4.586   1.707 -2.4604 -2.9187 -2.8855
  549MOL0     H74050   1.335   4.658   1.631  1.3711 -2.2961  2.2034
  549MOL0     H74051   1.177   4.614   1.557  4.5713 -0.1451 -3.1596
  549MOL0     H74052   1.251   4.696   1.852 -0.4330  0.3698  1.4334
  549MOL0     H74053   1.103   4.613   1.812  1.2521 -1.0869  0.5051
  549MOL0     H74054   1.048   4.847   1.806 -0.2760  0.2189 -1.0690
  549MOL0     H74055   1.055   4.792   1.640 -1.3002  0.0491 -0.4124
  549MOL0     H74056   1.293   4.953   1.774 -0.8026  0.9096  1.3597
  549MOL0     H74057   1.273   4.930   1.600  0.4316  2.6295 -0.2143
  549MOL0     H74058   1.070   5.068   1.594 -2.4642  2.0862  2.0176
  549MOL0     H74059   1.065   5.078   1.766 -2.4124  1.4610 -1.2838
  549MOL0     H74060   1.172   5.282   1.723 -0.8278  0.9848 -2.2896
  549MOL0     H74061   1.319   5.182   1.741  2.3090  2.0781 -1.6754
  549MOL0     H74062   1.169   5.248   1.485  0.0575  1.7878  0.3771
  549MOL0     H74063   1.347   5.200   1.507 -0.0131 -0.5066 -0.7259
  549MOL0     H74064   1.222   5.461   1.594 -0.0675  1.7136 -2.9028
  549MOL0     H74065   1.381   5.393   1.645  1.9102 -1.0294 -2.6099
  549MOL0     H74066   1.201   5.564   1.356 -0.4149 -0.2413 -0.8484
  549MOL0     H74067   1.351   5.785   1.242  0.2740  0.6806  2.3121
  549MOL0     H74068   1.516   5.764   1.260 -0.4758  0.4097 -0.1757
  549MOL0     H74069   1.369   5.606   1.047  0.3030  0.6460  0.5825
  549MOL0     H74070   1.369   5.777   1.015  0.6601 -0.6452 -1.6770
  549MOL0     H74071   1.649   5.633   1.044 -0.9101 -0.9346 -1.3406
  549MOL0     H74072   1.608   5.783   1.002  0.0062  0.9755  1.9593
  549MOL0     H74073   1.540   5.511   0.853  2.2398 -1.1413  1.3580
  549MOL0     H74074   1.681   5.607   0.840  1.3510  0.5526  4.8677
  549MOL0     H74075   1.743   5.732   0.666 -3.1363  0.9015  2.0061
  549MOL0     H74076   1.824   5.665   0.431 -0.3462 -0.5560 -1.4567
  549MOL0     H74077   1.684   5.283   0.158  0.0958 -1.2139 -0.1403
  549MOL0     H74078   1.719   5.171  -0.066  1.2617  0.9329 -2.4636
  549MOL0     H74079   1.933   5.393  -0.367  2.0433 -2.5739 -2.5245
  549MOL0     H74080   1.881   5.252  -0.441  2.6421 -0.5688  1.0328
  549MOL0     H74081   1.681   5.429  -0.307  3.3259  0.7579  1.0560
  549MOL0     H74082   1.715   5.451  -0.484 -2.0873 -0.1957 -0.4498
  549MOL0     H74083   1.643   5.203  -0.517 -2.3862 -0.6957 -0.2073
  549MOL0     H74084   1.612   5.193  -0.357  3.7364 -1.3109 -0.5503
  549MOL0     H74085   1.432   5.403  -0.390  1.9802 -0.8779  2.1809
  549MOL0     H74086   1.396   5.256  -0.483 -0.9499  0.6900 -1.5046
  549MOL0     H74087   1.541   5.373  -0.679 -2.0791  1.3714 -2.7119
  549MOL0     H74088   1.480   5.512  -0.593 -2.0260 -0.0304  1.7265
  549MOL0     H74089   1.328   5.292  -0.724 -2.1409 -1.2318  3.5334
  549MOL0     H74090   1.248   5.393  -0.609  0.3132 -0.9843  0.5525
  549MOL0     H74091   1.361   5.444  -0.893  1.5012 -0.0959  0.7163
  549MOL0     H74092   1.374   5.577  -0.780 -1.2581  1.1705  0.4816
  549MOL0     H74093   1.113   5.550  -0.761 -0.1761 -3.1428  1.3353
  549MOL0     H74094   1.170   5.556  -0.926 -3.8379  1.9081  0.4405
  549MOL0     H74095   1.971   5.489  -0.182 -0.2441  0.2067  0.8287
  549MOL0     H74096   1.949   5.593   0.021 -1.2667  1.3673  2.1615
  549MOL0     H74097   1.418   5.591   0.316 -0.9415  1.6917  0.9289
  549MOL0     H74098   1.348   5.642   0.557  0.4909  4.2052  2.7266
  549MOL0     H74099   1.236   4.312   1.892  0.5306 -0.2685 -1.7264
  549MOL0     H74100   1.398   4.309   2.096  2.3350  1.3936  1.0641
  549MOL0     H74101   1.849   4.275   2.193  0.7191  1.5657 -0.9317
  549MOL0     H74102   2.055   4.282   2.312  1.5521  2.1217  0.0217
  549MOL0     H74103   2.241   4.412   2.365  0.3868  1.6368  0.3502
  549MOL0     H74104   2.236   4.316   2.512  0.8052 -0.4159 -1.1501
  549MOL0     H74105   2.311   4.525   2.628  3.8437 -0.3401  1.2762
  549MOL0     H74106   2.342   4.599   2.472  1.2530  0.1617 -0.0580
  549MOL0     H74107   2.463   4.330   2.578 -0.7761 -0.0424 -0.0939
  549MOL0     H74108   2.547   4.479   2.612 -0.2632 -0.3621  0.3114
  549MOL0     H74109   2.638   4.373   2.416 -0.9875 -0.0780 -2.0713
  549MOL0     H74110   2.475   4.351   2.355 -0.3768 -0.0700  1.1305
  549MOL0     H74111   2.601   4.735   2.219 -2.8161  0.1321 -0.5638
  549MOL0     H74112   1.879   4.570   2.583  0.0286  0.1002 -0.5332
  549MOL0     H74113   1.554   4.594   2.429 -0.8125  0.8326  1.1547
  549MOL0     H74114   1.606   4.507   2.580 -1.2898 -0.8174 -1.2031
  549MOL0     H74115   1.669   4.669   2.529  2.7374 -0.5441 -2.1234
  550MOL0     O74116   0.721   4.696   0.563 -0.0795 -0.3232 -0.9122
  550MOL0     C74117   0.758   4.607   0.485 -0.4200  0.5320 -0.0858
  550MOL0     O74118   0.864   4.615   0.396 -0.5966 -0.4239 -0.5213
  550MOL0     C74119   0.940   4.736   0.408  0.0637 -0.6213 -0.0583
  550MOL0     C74120   1.056   4.736   0.489  0.2018  0.0504  0.1249
  550MOL0     C74121   1.136   4.849   0.516  0.5781 -0.0156  0.2099
  550MOL0     C74122   1.096   4.969   0.445  0.0478  0.1230 -0.1862
  550MOL0     O74123   1.176   5.082   0.448 -0.0351  0.1523 -1.0461
  550MOL0     C74124   1.316   5.089   0.502  0.1635  1.3566  0.1076
  550MOL0     C74125   1.378   5.222   0.453  0.1349 -0.0198 -0.0151
  550MOL0     C74126   1.517   5.243   0.496  0.5469  0.1662 -0.2613
  550MOL0     C74127   1.529   5.305   0.644 -0.4678 -0.2506  0.6057
  550MOL0     C74128   1.671   5.325   0.678 -0.4904  0.8993 -0.3988
  550MOL0     C74129   1.738   5.185   0.706  0.1939  0.0922 -0.1299
  550MOL0     C74130   1.869   5.201   0.782  0.1728  0.6015 -0.8763
  550MOL0     C74131   1.851   5.246   0.933 -0.2940  0.5946  0.6101
  550MOL0     N74132   1.731   5.199   1.003 -0.7675  0.1483  0.1920
  550MOL0     C74133   1.624   5.269   1.056  0.0701  0.3222 -0.2298
  550MOL0     C74134   1.538   5.176   1.101  1.2928 -0.1841  1.4740
  550MOL0     C74135   1.400   5.187   1.154  1.0541 -0.1111 -0.8272
  550MOL0     C74136   1.292   5.181   1.060  0.3538 -0.0392  0.1880
  550MOL0     C74137   1.289   5.045   0.992  0.5150 -0.6429  0.6215
  550MOL0     C74138   1.164   5.029   0.904  0.6486 -0.7541 -0.2942
  550MOL0     O74139   1.042   5.059   0.971 -0.3573 -0.2169  0.3556
  550MOL0     C74140   0.924   5.057   0.897 -0.7609  0.1285 -0.2959
  550MOL0     C74141   0.904   5.000   0.770 -0.0573  0.2434 -0.3226
  550MOL0     C74142   0.782   4.998   0.705  0.3070  0.4047 -0.5309
  550MOL0     C74143   0.675   5.058   0.765  0.8052  0.3390  0.2860
  550MOL0     C74144   0.539   5.065   0.712  0.5061  0.4251  0.3412
  550MOL0     O74145   0.538   5.049   0.579 -0.7260  0.2205 -0.3607
  550MOL0     C74146   0.424   5.062   0.507  0.0483 -0.0355  0.2519
  550MOL0     C74147   0.336   4.962   0.513  0.2396  0.4992 -0.4166
  550MOL0     C74148   0.220   4.959   0.442  0.6649  0.3878 -0.0612
  550MOL0     C74149   0.182   5.069   0.363 -0.1778  0.2251 -0.5640
  550MOL0     O74150   0.063   5.069   0.310  0.2455 -0.2053 -0.0476
  550MOL0     C74151   0.002   5.190   0.260 -0.6676 -0.0054  0.2617
  550MOL0     C74152  -0.152   5.155   0.248 -0.1738 -0.8192  0.6814
  550MOL0     C74153  -0.243   5.267   0.287  0.0712  0.8027 -0.4156
  550MOL0     C74154  -0.258   5.383   0.192 -0.5812  0.4486  0.1478
  550MOL0     C74155  -0.337   5.502   0.250 -0.5568 -0.9120 -0.9762
  550MOL0     C74156  -0.483   5.470   0.269  0.6105 -0.0529 -0.1196
  550MOL0     C74157  -0.562   5.601   0.290  0.0922  0.4352  0.6491
  550MOL0     C74158  -0.703   5.558   0.347 -0.3317  0.5564 -0.0773
  550MOL0    Cl74159  -0.824   5.690   0.360  0.4509 -0.0554  0.1253
  550MOL0     C74160   0.270   5.183   0.359 -0.9350  0.1427 -0.3479
  550MOL0     C74161   0.387   5.182   0.439 -0.1296  0.0965 -0.2727
  550MOL0     O74162   0.443   5.070   0.786  0.3451  0.3795 -0.2391
  550MOL0     C74163   0.692   5.127   0.891  0.6054 -0.1543 -0.3518
  550MOL0     C74164   0.812   5.120   0.955 -0.5873 -0.1079  0.0474
  550MOL0     N74165   1.601   5.058   1.100 -0.0714  0.4073  0.3260
  550MOL0     N74166   1.716   5.064   1.039  0.4812 -0.7611 -0.6456
  550MOL0     C74167   0.990   4.975   0.358  0.4495 -0.2568  0.3598
  550MOL0     C74168   0.917   4.859   0.335 -0.7879 -0.7916  0.9785
  550MOL0     C74169   0.664   4.482   0.476 -1.2091 -0.8348 -0.7016
  550MOL0     C74170   0.624   4.427   0.604 -0.7026  0.9176  0.1370
  550MOL0     C74171   0.545   4.315   0.605  0.1664 -0.8639  0.0802
  550MOL0     C74172   0.526   4.231   0.497  1.0020 -0.6772  0.6326
  550MOL0     O74173   0.469   4.111   0.500  0.1615 -0.1032  0.3004
  550MOL0     C74174   0.453   4.041   0.619  0.5617  0.4958 -0.0250
  550MOL0     C74175   0.414   3.899   0.586  0.0343  0.2691 -0.6156
  550MOL0     C74176   0.521   3.840   0.491  0.1374  0.4315 -0.6324
  550MOL0     C74177   0.664   3.824   0.561  0.5758  0.0239  0.9227
  550MOL0     C74178   0.666   3.746   0.687 -0.0076 -1.1513 -0.1408
  550MOL0     C74179   0.671   3.674   0.791  1.0346 -0.8011 -0.4085
  550MOL0     C74180   0.576   4.280   0.378 -0.2787  0.6492  0.0159
  550MOL0     C74181   0.644   4.400   0.363  0.5114  0.3737  0.0006
  550MOL0     C74182   0.703   4.438   0.229  0.4189  0.2858  0.0940
  550MOL0     H74183   1.064   4.635   0.529  0.1790  0.0124  0.0340
  550MOL0     H74184   1.210   4.848   0.595  0.6740  0.3576  0.1305
  550MOL0     H74185   1.313   5.086   0.611  0.6094  0.7322  0.1137
  550MOL0     H74186   1.362   4.998   0.460 -1.4156  0.0643  1.0655
  550MOL0     H74187   1.318   5.311   0.473  0.0778  0.0676 -0.5457
  550MOL0     H74188   1.397   5.214   0.345 -0.3174 -3.4545  0.0725
  550MOL0     H74189   1.561   5.310   0.423  1.3739 -1.2052 -1.0553
  550MOL0     H74190   1.577   5.151   0.495  1.4323  0.6742  1.7295
  550MOL0     H74191   1.486   5.406   0.641 -1.5823 -0.7065  0.6921
  550MOL0     H74192   1.481   5.250   0.726  1.6257 -2.9511  0.1524
  550MOL0     H74193   1.727   5.383   0.603  2.1036 -1.0431 -0.0895
  550MOL0     H74194   1.683   5.379   0.772  1.5996  1.0155 -0.6865
  550MOL0     H74195   1.666   5.124   0.761 -1.5373  1.0651 -1.2398
  550MOL0     H74196   1.762   5.136   0.611  2.0734  0.1976  0.2557
  550MOL0     H74197   1.944   5.256   0.725  2.1620 -1.2224 -0.1658
  550MOL0     H74198   1.906   5.098   0.790  0.3982  0.5957 -1.9031
  550MOL0     H74199   1.936   5.203   0.987 -1.9209 -0.9162  2.1091
  550MOL0     H74200   1.847   5.355   0.942  1.0751  0.5731  1.8638
  550MOL0     H74201   1.606   5.376   1.046 -3.9686 -0.0381  1.4686
  550MOL0     H74202   1.393   5.122   1.242 -0.2771  2.4009  1.0468
  550MOL0     H74203   1.388   5.283   1.204 -0.8217 -1.2454  1.1070
  550MOL0     H74204   1.200   5.222   1.101 -0.9806  1.2443 -3.6688
  550MOL0     H74205   1.310   5.256   0.982  0.2409  0.7049  0.8692
  550MOL0     H74206   1.291   4.967   1.069 -2.0493 -1.2646  0.1315
  550MOL0     H74207   1.376   5.029   0.928  0.7295 -2.3591  1.2937
  550MOL0     H74208   1.152   4.926   0.869 -0.2320 -1.7138  2.5843
  550MOL0     H74209   1.172   5.083   0.809 -3.5544 -4.9604 -3.5177
  550MOL0     H74210   0.987   4.954   0.718 -0.4515 -1.3186  0.3741
  550MOL0     H74211   0.765   4.952   0.609 -0.6008  3.2358 -1.8325
  550MOL0     H74212   0.376   4.875   0.564  1.5533  1.4200  0.1605
  550MOL0     H74213   0.173   4.862   0.431 -1.3921  1.6210 -6.4722
  550MOL0     H74214   0.010   5.272   0.333  3.6539 -0.8536  1.0156
  550MOL0     H74215   0.040   5.221   0.162 -1.1721 -0.3755 -0.0595
  550MOL0     H74216  -0.180   5.123   0.147 -0.1370  1.2547 -0.0466
  550MOL0     H74217  -0.167   5.072   0.317  0.9137 -0.5865  1.2180
  550MOL0     H74218  -0.337   5.212   0.296 -0.5012  1.3832 -2.2487
  550MOL0     H74219  -0.217   5.293   0.390  0.7867 -1.6786  0.1029
  550MOL0     H74220  -0.302   5.347   0.098 -0.0472 -1.3058  0.5249
  550MOL0     H74221  -0.155   5.414   0.172 -0.1692 -0.8070  0.2451
  550MOL0     H74222  -0.331   5.586   0.180 -1.1095 -1.9123 -2.2420
  550MOL0     H74223  -0.292   5.538   0.344 -0.5934  1.7734 -1.8846
  550MOL0     H74224  -0.548   5.421   0.196 -2.2858 -2.4898  3.6471
  550MOL0     H74225  -0.504   5.427   0.368 -5.1032  1.1134 -0.4844
  550MOL0     H74226  -0.571   5.660   0.199 -1.1507  0.9201  1.0571
  550MOL0     H74227  -0.523   5.659   0.374 -2.8706 -0.0839  2.5419
  550MOL0     H74228  -0.745   5.480   0.284  0.6949  0.9153 -1.2422
  550MOL0     H74229  -0.684   5.517   0.447 -0.7452 -0.9486 -0.5986
  550MOL0     H74230   0.251   5.277   0.308 -2.5240  1.2902  2.1601
  550MOL0     H74231   0.460   5.262   0.439  0.9834 -0.8340  1.9508
  550MOL0     H74232   0.601   5.177   0.924  0.5924  0.8076 -1.7615
  550MOL0     H74233   0.815   5.178   1.047  2.6153 -0.7202  0.4667
  550MOL0     H74234   0.972   5.072   0.313 -1.2493 -1.8458 -2.6449
  550MOL0     H74235   0.830   4.859   0.270  0.2686  3.2756 -0.7075
  550MOL0     H74236   0.648   4.475   0.699 -0.6278 -0.9633  1.1270
  550MOL0     H74237   0.504   4.289   0.702  0.4458 -0.5063  0.2952
  550MOL0     H74238   0.379   4.098   0.674 -0.1846 -1.3377  0.9685
  550MOL0     H74239   0.541   4.042   0.684 -0.1963 -0.2720  1.0531
  550MOL0     H74240   0.318   3.894   0.533 -0.4738 -0.1135  0.3260
  550MOL0     H74241   0.399   3.837   0.675  1.9973 -1.2858 -1.2952
  550MOL0     H74242   0.540   3.902   0.402  1.4508  2.2423  0.8195
  550MOL0     H74243   0.484   3.740   0.467  1.5519  0.3121 -2.6443
  550MOL0     H74244   0.732   3.782   0.487  0.5100  2.3104 -0.5326
  550MOL0     H74245   0.703   3.921   0.594  1.8058  1.4578 -3.9499
  550MOL0     H74246   0.662   3.617   0.882  1.0384 -1.7892 -1.0124
  550MOL0     H74247   0.571   4.202   0.303 -4.3788 -0.9265  1.6461
  550MOL0     H74248   0.675   4.540   0.202  2.2849  0.3428 -1.9411
  550MOL0     H74249   0.811   4.423   0.218  0.3183 -2.6373  1.8818
  550MOL0     H74250   0.656   4.366   0.161  0.1162  0.8090 -0.2567
  551MOL0     O74251   0.141   1.328   5.680  0.6326  0.1494 -0.4126
  551MOL0     C74252   0.188   1.215   5.708  0.4692 -1.2926 -0.9060
  551MOL0     O74253   0.189   1.103   5.629  0.0579  0.0877 -0.1347
  551MOL0     C74254   0.136   1.101   5.508 -0.1855  0.1455  0.1276
  551MOL0     C74255   0.215   1.079   5.395  0.2685 -0.2797  0.4801
  551MOL0     C74256   0.152   1.068   5.265 -0.4498  0.7431 -0.5558
  551MOL0     C74257   0.017   1.093   5.254  0.1921 -0.7088 -0.1176
  551MOL0     O74258  -0.049   1.083   5.126  0.3738 -0.6265 -0.0030
  551MOL0     C74259   0.024   1.051   5.008 -0.0273 -0.3166 -0.6170
  551MOL0     C74260  -0.042   1.072   4.877  1.0932  1.0009 -0.9237
  551MOL0     C74261   0.059   1.071   4.750  0.2365 -0.2655  0.3516
  551MOL0     C74262   0.083   0.938   4.689  0.1598  0.1855 -0.2960
  551MOL0     C74263   0.163   0.945   4.554  0.0631  0.5714 -0.1240
  551MOL0     C74264   0.194   0.809   4.513 -0.8764 -0.8236 -0.8382
  551MOL0     C74265   0.247   0.809   4.370 -0.0587 -0.4631 -0.8555
  551MOL0     C74266   0.405   0.800   4.355  0.8754 -0.1752 -0.4095
  551MOL0     N74267   0.483   0.912   4.422 -0.0488  0.7927  0.3147
  551MOL0     C74268   0.550   0.917   4.536  1.0405 -0.9512 -0.5297
  551MOL0     C74269   0.611   1.036   4.535 -0.8976  1.3589 -0.0724
  551MOL0     C74270   0.717   1.086   4.629  0.4377 -0.6862 -0.3343
  551MOL0     C74271   0.655   1.138   4.757 -0.2467  0.1087  0.4762
  551MOL0     C74272   0.751   1.232   4.838 -0.1253  0.6555  0.7078
  551MOL0     C74273   0.808   1.171   4.961 -0.1897 -0.0945  0.6907
  551MOL0     O74274   0.894   1.265   5.033  0.2154  0.4046 -0.6379
  551MOL0     C74275   1.028   1.255   5.013  0.1483  0.4293 -0.4187
  551MOL0     C74276   1.092   1.219   4.898  0.3215  0.6647 -0.3063
  551MOL0     C74277   1.230   1.177   4.897 -0.7728  0.3292 -0.3006
  551MOL0     C74278   1.316   1.200   5.008  0.7012  0.6143 -0.1481
  551MOL0     C74279   1.456   1.165   5.010  0.8389 -0.4664  0.5911
  551MOL0     O74280   1.505   1.133   5.123  0.1653 -1.3166  0.5772
  551MOL0     C74281   1.640   1.113   5.142  0.2563  0.1016  0.2300
  551MOL0     C74282   1.743   1.192   5.101  0.2439  0.6169  0.9235
  551MOL0     C74283   1.880   1.159   5.130 -0.2163  0.8352 -0.1385
  551MOL0     C74284   1.907   1.039   5.194  0.1479 -0.5894 -0.0485
  551MOL0     O74285   2.041   1.032   5.214  0.2404  0.5989 -0.4866
  551MOL0     C74286   2.094   0.933   5.310  0.0467 -0.6144  0.6586
  551MOL0     C74287   2.178   0.828   5.243 -0.0123  0.2932 -0.3053
  551MOL0     C74288   2.105   0.739   5.134  0.2268  0.0592  0.9082
  551MOL0     C74289   2.201   0.637   5.086  0.3284  0.0917 -0.3198
  551MOL0     C74290   2.348   0.673   5.073 -0.7119 -0.3994  1.2557
  551MOL0     C74291   2.426   0.547   5.031  1.1055  0.7195  0.3434
  551MOL0     C74292   2.573   0.561   4.995 -0.2309  0.1141  0.0747
  551MOL0     C74293   2.678   0.558   5.112  0.1825 -0.5661  0.1337
  551MOL0    Cl74294   2.666   0.404   5.186 -0.1545 -0.1236  0.4036
  551MOL0     C74295   1.807   0.948   5.227 -0.7964 -0.0203  0.0100
  551MOL0     C74296   1.676   0.990   5.199 -0.1955  0.1822 -0.1151
  551MOL0     O74297   1.514   1.175   4.908 -0.2004  0.4774  0.7132
  551MOL0     C74298   1.254   1.258   5.118  0.0080 -0.5535 -0.3755
  551MOL0     C74299   1.112   1.289   5.126 -0.4967 -0.0209 -0.5708
  551MOL0     N74300   0.565   1.107   4.431 -0.2459  0.6885 -1.2240
  551MOL0     N74301   0.479   1.036   4.367  0.3418 -0.0391 -0.7702
  551MOL0     C74302  -0.060   1.116   5.363  0.0214 -0.5115 -0.2783
  551MOL0     C74303   0.002   1.116   5.488  0.3430 -0.5326  0.7944
  551MOL0     C74304   0.234   1.192   5.845  0.8225 -0.4147  0.0763
  551MOL0     C74305   0.151   1.180   5.962 -0.3745 -0.0776  0.6566
  551MOL0     C74306   0.200   1.163   6.091  0.2150 -0.4173 -0.0209
  551MOL0     C74307   0.338   1.170   6.111 -1.0947  0.6671  0.5158
  551MOL0     O74308   0.373   1.158   6.243  0.6470  0.0203 -0.2295
  551MOL0     C74309   0.505   1.108   6.261 -0.6534 -0.3475 -0.7462
  551MOL0     C74310   0.538   1.062   6.407  0.4307  0.8056  0.3438
  551MOL0     C74311   0.530   1.177   6.505  0.7813 -1.1885  0.3803
  551MOL0     C74312   0.542   1.125   6.650 -0.2463  0.2292  0.4419
  551MOL0     C74313   0.680   1.101   6.699  1.0780 -0.4098 -0.7545
  551MOL0     C74314   0.787   1.057   6.737 -0.1164 -0.8450  0.0459
  551MOL0     C74315   0.423   1.197   6.001 -0.6364  0.2443  0.4618
  551MOL0     C74316   0.371   1.201   5.870  0.3409 -0.6699 -0.6514
  551MOL0     C74317   0.459   1.231   5.760  0.1968  0.1046  1.1986
  551MOL0     H74318   0.321   1.053   5.400  1.3493  3.7003  3.5296
  551MOL0     H74319   0.199   1.021   5.179 -1.1309  0.7815 -0.9543
  551MOL0     H74320   0.111   1.117   5.005 -0.7452  0.5842 -2.5021
  551MOL0     H74321   0.061   0.948   5.019  0.7548  0.0409  0.3046
  551MOL0     H74322  -0.107   1.160   4.879 -1.0501 -0.5330  0.3015
  551MOL0     H74323  -0.117   0.997   4.849  0.7461  1.1460 -0.3832
  551MOL0     H74324   0.158   1.112   4.773 -0.0528  1.2576 -0.9443
  551MOL0     H74325   0.020   1.144   4.679  1.4191  0.0888  0.0514
  551MOL0     H74326   0.130   0.873   4.763 -0.8442 -0.4787 -0.2129
  551MOL0     H74327  -0.012   0.890   4.665  0.8127 -1.3549  0.1023
  551MOL0     H74328   0.088   0.981   4.483 -0.9184 -2.4026 -0.7775
  551MOL0     H74329   0.243   1.018   4.568  2.8659 -2.2870 -0.1443
  551MOL0     H74330   0.267   0.756   4.575 -1.5713 -1.6819 -0.7276
  551MOL0     H74331   0.102   0.750   4.518 -1.6549  0.4126 -0.1631
  551MOL0     H74332   0.197   0.890   4.316 -1.1646  0.2737  1.1800
  551MOL0     H74333   0.228   0.710   4.328  2.8588 -1.6321  0.2991
  551MOL0     H74334   0.428   0.702   4.398 -0.3459 -0.8979 -1.3376
  551MOL0     H74335   0.435   0.788   4.251 -2.2653  0.7776 -1.5422
  551MOL0     H74336   0.558   0.843   4.615 -2.9260 -0.6279  0.3877
  551MOL0     H74337   0.782   1.000   4.649  0.5329 -0.3374  0.9369
  551MOL0     H74338   0.763   1.174   4.584 -2.9662  1.7717  0.5883
  551MOL0     H74339   0.568   1.196   4.726  0.0772 -0.0195 -0.7168
  551MOL0     H74340   0.607   1.056   4.812  0.1696 -3.2233 -3.6439
  551MOL0     H74341   0.693   1.321   4.865  1.2523  1.2587  1.8298
  551MOL0     H74342   0.834   1.267   4.776 -1.8673  1.1804 -1.4556
  551MOL0     H74343   0.869   1.085   4.934 -3.3780 -1.9581 -1.2632
  551MOL0     H74344   0.721   1.145   5.022 -1.3622 -1.2648 -1.3591
  551MOL0     H74345   1.030   1.196   4.813  1.5916 -1.9294 -0.6147
  551MOL0     H74346   1.279   1.145   4.806  1.1847 -0.0878  0.8643
  551MOL0     H74347   1.718   1.279   5.041 -1.2508 -1.2384 -1.2877
  551MOL0     H74348   1.969   1.213   5.100  0.2725  0.0103 -0.2296
  551MOL0     H74349   2.161   0.987   5.378 -0.9305  2.0543 -0.3513
  551MOL0     H74350   2.010   0.889   5.364 -0.0776 -1.5674 -0.2690
  551MOL0     H74351   2.262   0.884   5.202  1.3281  0.7196  2.7598
  551MOL0     H74352   2.214   0.781   5.335 -0.7696  1.9400  0.9095
  551MOL0     H74353   2.008   0.705   5.171 -0.4784  2.0673  1.0199
  551MOL0     H74354   2.085   0.802   5.047  2.1188  1.1645  1.2171
  551MOL0     H74355   2.166   0.584   4.997  1.8147  1.3886 -1.7478
  551MOL0     H74356   2.187   0.558   5.161 -0.7250 -2.5309 -3.0591
  551MOL0     H74357   2.388   0.705   5.170 -0.7324  1.6291  0.6392
  551MOL0     H74358   2.363   0.755   5.002 -0.4724  1.9086  3.8058
  551MOL0     H74359   2.399   0.479   5.112 -4.6582  1.2595 -0.6430
  551MOL0     H74360   2.374   0.504   4.944  3.2159 -0.4577 -0.4005
  551MOL0     H74361   2.578   0.655   4.939 -2.6858 -0.2050 -0.7915
  551MOL0     H74362   2.604   0.473   4.937  1.7957 -0.6243  2.1152
  551MOL0     H74363   2.779   0.576   5.074  0.9769 -2.6096  1.0858
  551MOL0     H74364   2.665   0.637   5.186  1.1061 -1.0694  0.8554
  551MOL0     H74365   1.827   0.856   5.281 -2.1814 -0.1179  0.3866
  551MOL0     H74366   1.601   0.916   5.223  1.7037 -1.3184  1.4950
  551MOL0     H74367   1.317   1.279   5.204 -1.2991 -2.1345  1.0199
  551MOL0     H74368   1.078   1.340   5.216  1.4577 -0.1640  0.3170
  551MOL0     H74369  -0.167   1.129   5.356  0.4521  4.0046 -1.9586
  551MOL0     H74370  -0.064   1.123   5.574 -2.2619 -0.5923 -1.0886
  551MOL0     H74371   0.044   1.162   5.955 -0.3061 -0.7322  1.1188
  551MOL0     H74372   0.132   1.167   6.176  1.7034 -3.4888  1.5047
  551MOL0     H74373   0.574   1.189   6.236 -1.2837  1.5779  2.9741
  551MOL0     H74374   0.518   1.019   6.200 -1.4720 -1.4812  0.6464
  551MOL0     H74375   0.637   1.017   6.415 -0.0722 -0.5045 -0.3232
  551MOL0     H74376   0.474   0.981   6.444 -1.3084  1.1169 -1.7519
  551MOL0     H74377   0.433   1.227   6.499  1.5513  0.9234  3.0001
  551MOL0     H74378   0.604   1.250   6.471  1.0254 -0.9852  1.3166
  551MOL0     H74379   0.494   1.188   6.726  0.9317 -0.2137  1.5886
  551MOL0     H74380   0.492   1.028   6.651  1.4362 -0.6802 -0.0414
  551MOL0     H74381   0.880   1.011   6.763  2.0368  1.4218 -2.9164
  551MOL0     H74382   0.531   1.207   6.013 -0.3495 -0.3949 -1.3906
  551MOL0     H74383   0.461   1.151   5.686 -0.0754 -1.0377  2.3884
  551MOL0     H74384   0.446   1.330   5.714 -2.2167 -0.9851 -0.6774
  551MOL0     H74385   0.564   1.227   5.791  0.6337 -2.2279 -0.3594
  552MOL0     O74386  10.972   7.363   5.521 -0.3899 -0.5308 -0.3535
  552MOL0     C74387  10.925   7.297   5.611 -0.9173 -0.0940 -0.1629
  552MOL0     O74388  10.792   7.276   5.614  0.3372  0.6332  0.0532
  552MOL0     C74389  10.699   7.363   5.553 -0.5274  0.2273  0.0068
  552MOL0     C74390  10.720   7.506   5.535 -1.3699 -0.2838 -0.2380
  552MOL0     C74391  10.623   7.586   5.499  0.5338  0.4310 -0.4822
  552MOL0     C74392  10.494   7.530   5.480 -0.6124  0.2350  0.2362
  552MOL0     O74393  10.404   7.622   5.435 -0.1216 -0.4683  0.1231
  552MOL0     C74394  10.285   7.572   5.374  0.4243 -0.4941  0.0709
  552MOL0     C74395  10.252   7.656   5.245 -0.5297  1.0151  0.2026
  552MOL0     C74396  10.155   7.596   5.142 -0.1424 -0.2799  0.4043
  552MOL0     C74397  10.031   7.536   5.208 -0.6403  0.5515  0.0045
  552MOL0     C74398   9.942   7.502   5.093  0.0901  1.0253 -0.0384
  552MOL0     C74399   9.946   7.361   5.050  0.5460  0.5045 -0.0754
  552MOL0     C74400   9.863   7.360   4.916 -0.2485  1.1929  1.0380
  552MOL0     C74401   9.833   7.222   4.864 -0.1010 -0.7200  0.1134
  552MOL0     N74402   9.811   7.214   4.720  0.5645  0.3545 -0.4332
  552MOL0     C74403   9.695   7.224   4.659 -0.1601  0.0670  0.0790
  552MOL0     C74404   9.717   7.191   4.526 -0.0455 -0.0159 -0.1328
  552MOL0     C74405   9.607   7.154   4.434  0.2913 -0.4218 -0.4728
  552MOL0     C74406   9.562   7.005   4.457  0.0845 -1.9336 -0.6722
  552MOL0     C74407   9.430   6.984   4.371  0.1477 -0.7310  0.5436
  552MOL0     C74408   9.399   6.840   4.360  0.3804  0.7609 -0.5556
  552MOL0     O74409   9.382   6.784   4.489  0.4140 -0.0719 -0.5196
  552MOL0     C74410   9.380   6.644   4.504 -0.0660 -0.6758 -0.2495
  552MOL0     C74411   9.342   6.585   4.621 -0.3939  0.4392 -0.5378
  552MOL0     C74412   9.345   6.441   4.634 -0.2839 -0.6830 -0.4530
  552MOL0     C74413   9.399   6.358   4.528 -0.5072  0.6899  0.1168
  552MOL0     C74414   9.437   6.219   4.557 -0.6739  0.6096 -0.4699
  552MOL0     O74415   9.446   6.181   4.690  0.6380 -0.3282 -0.7834
  552MOL0     C74416   9.537   6.085   4.718  0.6248  0.5367 -0.1643
  552MOL0     C74417   9.676   6.110   4.710  0.1500 -0.1137  0.0663
  552MOL0     C74418   9.777   6.025   4.752  0.0960 -0.3535 -0.5474
  552MOL0     C74419   9.738   5.909   4.811  0.3776  0.4778 -0.2069
  552MOL0     O74420   9.828   5.815   4.858  0.2386  0.3053 -0.3210
  552MOL0     C74421   9.853   5.711   4.764 -0.0822  0.8310 -0.1393
  552MOL0     C74422   9.968   5.627   4.802  0.4818  0.5555  0.2093
  552MOL0     C74423  10.094   5.711   4.791 -0.5595  1.2696  0.6584
  552MOL0     C74424  10.220   5.658   4.867  0.6267  0.2336  0.6494
  552MOL0     C74425  10.283   5.536   4.786 -0.9229  0.1343  0.7303
  552MOL0     C74426  10.379   5.458   4.871 -0.3196  0.0698 -0.4840
  552MOL0     C74427  10.405   5.316   4.820  0.7252  0.8848 -0.0692
  552MOL0     C74428  10.518   5.258   4.900 -0.8531  0.4661  0.4928
  552MOL0    Cl74429  10.480   5.220   5.062 -0.0659 -0.6489  0.4094
  552MOL0     C74430   9.599   5.880   4.822 -0.7523 -0.1030 -0.1366
  552MOL0     C74431   9.502   5.968   4.780  0.4490 -1.0992 -0.6394
  552MOL0     O74432   9.478   6.148   4.465  0.0450  0.6445 -0.0847
  552MOL0     C74433   9.433   6.425   4.407 -0.2538 -0.4251 -0.0847
  552MOL0     C74434   9.410   6.561   4.394 -0.5668  0.6348  0.1237
  552MOL0     N74435   9.854   7.163   4.511 -0.0066  0.6011 -0.5754
  552MOL0     N74436   9.902   7.168   4.630  0.2532 -0.2190 -1.3766
  552MOL0     C74437  10.464   7.390   5.503 -0.1251 -1.0704  0.6404
  552MOL0     C74438  10.571   7.305   5.547 -0.5022  0.3423  0.5018
  552MOL0     C74439  11.009   7.221   5.700 -0.7093 -0.3297  0.7556
  552MOL0     C74440  10.961   7.098   5.736 -1.2175  0.1803 -0.8803
  552MOL0     C74441  11.044   7.018   5.823  0.7819 -0.4046  0.7274
  552MOL0     C74442  11.163   7.058   5.870 -0.3387 -0.0475 -1.2114
  552MOL0     O74443  11.238   7.006   5.969 -0.8959  0.5409 -0.7319
  552MOL0     C74444  11.169   6.932   6.065 -0.3200  1.0391  0.1276
  552MOL0     C74445  11.253   6.837   6.147 -0.4322  0.7085 -0.3315
  552MOL0     C74446  11.358   6.757   6.073 -0.7693  0.5412  0.2884
  552MOL0     C74447  11.473   6.690   6.148 -0.1275 -0.2727  0.1807
  552MOL0     C74448  11.512   6.563   6.085  0.7103 -0.5786  0.1812
  552MOL0     C74449  11.544   6.454   6.031  0.5544  0.1178 -0.8573
  552MOL0     C74450  11.208   7.182   5.826 -0.2337  0.4620 -0.0469
  552MOL0     C74451  11.145   7.257   5.731  0.5143 -0.2524  0.1825
  552MOL0     C74452  11.215   7.383   5.670 -1.0628  0.9253 -0.5774
  552MOL0     H74453  10.822   7.543   5.529 -1.5031 -0.1633 -2.4489
  552MOL0     H74454  10.637   7.691   5.479 -0.1232  1.0070  1.7922
  552MOL0     H74455  10.282   7.469   5.336 -3.6802 -0.1531 -1.0102
  552MOL0     H74456  10.193   7.588   5.431  0.4756  1.3873 -0.3201
  552MOL0     H74457  10.345   7.673   5.189 -0.9755 -1.5096 -1.4561
  552MOL0     H74458  10.201   7.745   5.283 -1.6325  1.0116 -1.2056
  552MOL0     H74459  10.204   7.515   5.087 -0.8443 -0.2579 -0.2741
  552MOL0     H74460  10.130   7.680   5.076 -1.2535 -0.8167  0.1176
  552MOL0     H74461  10.048   7.440   5.258  0.5073 -0.1355 -1.5927
  552MOL0     H74462   9.987   7.612   5.273 -2.0163 -3.2597  4.0483
  552MOL0     H74463   9.838   7.520   5.122  0.1530  1.1001  0.1486
  552MOL0     H74464   9.965   7.567   5.008  0.7183 -2.0489 -2.3647
  552MOL0     H74465  10.046   7.322   5.029  0.9875  1.2415  0.6256
  552MOL0     H74466   9.901   7.308   5.134  0.0684  3.0107  1.3397
  552MOL0     H74467   9.915   7.414   4.835 -1.0965  1.0739  0.4034
  552MOL0     H74468   9.773   7.415   4.945  0.0836  1.1377  2.2409
  552MOL0     H74469   9.925   7.165   4.879 -0.5179 -0.8716  2.5547
  552MOL0     H74470   9.744   7.178   4.911 -3.0957  2.2125 -2.3203
  552MOL0     H74471   9.599   7.243   4.705  0.6819  2.7846  0.8521
  552MOL0     H74472   9.523   7.223   4.446  0.2806 -0.5713  0.2987
  552MOL0     H74473   9.634   7.164   4.328  1.1695  1.1588 -0.1339
  552MOL0     H74474   9.636   6.932   4.425  0.6191 -0.2895 -3.5423
  552MOL0     H74475   9.540   6.986   4.562  1.5989  0.1412  0.0820
  552MOL0     H74476   9.445   7.017   4.268  0.1682  2.9530  1.5807
  552MOL0     H74477   9.345   7.035   4.417  1.7384  1.0739  1.6829
  552MOL0     H74478   9.482   6.799   4.301 -1.3267 -2.4068 -0.9642
  552MOL0     H74479   9.316   6.821   4.292  1.1574  2.0507 -1.9284
  552MOL0     H74480   9.335   6.643   4.713  0.5022  0.3243 -0.3879
  552MOL0     H74481   9.318   6.399   4.730 -1.2431  0.4728 -0.1998
  552MOL0     H74482   9.688   6.204   4.657  0.3128  0.3281  0.8584
  552MOL0     H74483   9.880   6.055   4.736  0.0233  0.7402  0.8126
  552MOL0     H74484   9.772   5.642   4.738 -1.1957  1.0427  2.3997
  552MOL0     H74485   9.879   5.758   4.669  0.6495 -1.7950 -1.3232
  552MOL0     H74486   9.954   5.586   4.902 -1.1058  0.7469  0.0929
  552MOL0     H74487   9.968   5.532   4.747 -0.9640 -0.2378  1.4937
  552MOL0     H74488  10.129   5.720   4.688  2.5814  1.7234  1.6676
  552MOL0     H74489  10.063   5.810   4.827 -0.8367  0.9303  1.3771
  552MOL0     H74490  10.197   5.618   4.967  0.2542  0.0355  0.4883
  552MOL0     H74491  10.294   5.736   4.882  0.3885  0.0720  3.3230
  552MOL0     H74492  10.327   5.569   4.692 -1.2470 -2.3001 -0.3432
  552MOL0     H74493  10.214   5.459   4.752  1.0825 -1.3749 -0.1384
  552MOL0     H74494  10.472   5.511   4.893  0.0886 -0.3577 -1.1202
  552MOL0     H74495  10.334   5.446   4.969 -0.7153 -2.8142 -0.9487
  552MOL0     H74496  10.444   5.322   4.718 -3.1189 -0.8303 -1.8834
  552MOL0     H74497  10.312   5.258   4.819  0.8225  0.5565  2.7839
  552MOL0     H74498  10.547   5.171   4.840 -2.9083  1.6688 -2.4957
  552MOL0     H74499  10.602   5.328   4.899 -0.2113 -0.2864 -0.2167
  552MOL0     H74500   9.572   5.794   4.882 -1.3302  1.5528  2.1315
  552MOL0     H74501   9.397   5.950   4.799  0.2918 -0.2981 -0.7006
  552MOL0     H74502   9.488   6.387   4.322 -0.2828 -2.0786  0.5936
  552MOL0     H74503   9.423   6.600   4.293 -1.6385 -0.3447 -0.4164
  552MOL0     H74504  10.361   7.357   5.504 -0.9234  1.1626 -0.2743
  552MOL0     H74505  10.568   7.197   5.560 -1.7253  0.4627  1.3670
  552MOL0     H74506  10.863   7.064   5.703 -1.4415  1.0622 -1.1671
  552MOL0     H74507  11.008   6.921   5.855  3.3458 -1.5778  0.2572
  552MOL0     H74508  11.086   6.880   6.016 -0.0130  2.2779 -1.8161
  552MOL0     H74509  11.120   6.997   6.137 -4.2209 -0.7730 -0.6155
  552MOL0     H74510  11.187   6.772   6.206 -0.8250  0.4698 -1.0309
  552MOL0     H74511  11.318   6.895   6.214  0.5444  1.5571 -1.9566
  552MOL0     H74512  11.400   6.809   5.986 -0.7284 -1.1520 -0.7350
  552MOL0     H74513  11.318   6.671   6.019 -2.1259  0.8723  0.7333
  552MOL0     H74514  11.566   6.748   6.154 -1.4476  1.7815  2.1718
  552MOL0     H74515  11.443   6.669   6.251 -2.1909 -1.7887 -0.6635
  552MOL0     H74516  11.584   6.373   5.973 -0.2770 -0.1468 -1.0803
  552MOL0     H74517  11.305   7.213   5.864  0.8232 -0.2565 -1.9968
  552MOL0     H74518  11.273   7.351   5.583 -1.6227  1.6908 -1.2488
  552MOL0     H74519  11.154   7.473   5.661 -1.5809  1.0516  2.7239
  552MOL0     H74520  11.292   7.415   5.741  1.7570 -1.5214 -2.3073
  553MOL0     O74521   2.017  11.388   9.258  0.5170 -0.8659 -0.7579
  553MOL0     C74522   1.916  11.327   9.267  0.1515  0.0049 -0.3776
  553MOL0     O74523   1.835  11.325   9.379 -0.4458 -0.2317  0.5249
  553MOL0     C74524   1.851  11.402   9.492  1.1169 -0.3317 -0.8895
  553MOL0     C74525   1.801  11.350   9.613  0.4381  0.5668  0.2590
  553MOL0     C74526   1.806  11.410   9.742 -0.2103 -0.9364  0.0605
  553MOL0     C74527   1.862  11.539   9.749  0.3727  0.3661  0.2813
  553MOL0     O74528   1.886  11.603   9.871 -0.3528  0.5767  0.5979
  553MOL0     C74529   1.884  11.524   9.984  0.7459 -0.6157  0.6710
  553MOL0     C74530   1.937  11.615  10.095 -0.1430  0.2028  0.7094
  553MOL0     C74531   1.951  11.524  10.218  0.5918 -0.5425 -0.2792
  553MOL0     C74532   1.996  11.609  10.338 -0.6060 -0.9197 -0.0391
  553MOL0     C74533   2.013  11.532  10.470  0.1248 -0.5917 -0.0412
  553MOL0     C74534   2.075  11.625  10.580 -0.0309  0.7221 -0.0593
  553MOL0     C74535   2.003  11.754  10.621  0.5734  0.2729 -0.0464
  553MOL0     C74536   2.078  11.821  10.740  0.4025 -1.3456  0.1420
  553MOL0     N74537   2.079  11.756  10.873 -0.3834  1.0681 -0.2729
  553MOL0     C74538   2.187  11.736  10.961 -0.5693 -0.1436  0.3973
  553MOL0     C74539   2.136  11.664  11.056  0.5624  1.0427 -0.4871
  553MOL0     C74540   2.200  11.607  11.178 -0.1679  0.3652  1.0011
  553MOL0     C74541   2.206  11.707  11.286 -0.2636 -0.3068 -0.4444
  553MOL0     C74542   2.291  11.661  11.406 -0.4244 -0.5166 -0.3773
  553MOL0     C74543   2.290  11.738  11.531 -0.5278 -0.1058 -1.0302
  553MOL0     O74544   2.331  11.658  11.645 -0.1294 -0.2990  0.3439
  553MOL0     C74545   2.346  11.730  11.757  0.8637  0.0041  0.3326
  553MOL0     C74546   2.457  11.808  11.785  0.3842  0.6096  0.2615
  553MOL0     C74547   2.451  11.906  11.882  0.1366  0.1450  0.8630
  553MOL0     C74548   2.344  11.922  11.973 -0.4593 -1.1819 -0.8265
  553MOL0     C74549   2.342  12.024  12.086  0.9314 -0.6399 -0.8619
  553MOL0     O74550   2.431  12.127  12.084 -0.1687  0.0634 -0.4966
  553MOL0     C74551   2.446  12.203  12.196 -0.0504 -0.8250  1.2878
  553MOL0     C74552   2.578  12.242  12.231  0.6236 -0.6404  0.3804
  553MOL0     C74553   2.602  12.302  12.350  0.6918 -0.1462  0.1634
  553MOL0     C74554   2.502  12.354  12.434 -0.2264 -0.0725 -1.2426
  553MOL0     O74555   2.541  12.436  12.534  0.2509 -0.1137 -0.0621
  553MOL0     C74556   2.454  12.527  12.593  0.5955  0.1156 -1.3609
  553MOL0     C74557   2.531  12.661  12.608 -0.0942  0.5355 -0.5489
  553MOL0     C74558   2.575  12.717  12.476  0.4997 -0.8632 -0.5599
  553MOL0     C74559   2.462  12.762  12.374 -0.2351  0.2581 -0.1329
  553MOL0     C74560   2.514  12.737  12.236 -0.0179 -0.6986 -0.0901
  553MOL0     C74561   2.424  12.738  12.113 -0.1136 -0.4386  0.9116
  553MOL0     C74562   2.321  12.856  12.099  1.3748  0.5325 -0.1174
  553MOL0     C74563   2.396  12.992  12.076 -0.2112 -0.0808  0.6863
  553MOL0    Cl74564   2.260  13.110  12.098  0.2627 -0.4173  0.0069
  553MOL0     C74565   2.373  12.320  12.396 -0.0804  0.0838 -1.1067
  553MOL0     C74566   2.343  12.251  12.277 -0.1995  0.6936  0.1694
  553MOL0     O74567   2.252  11.996  12.170  0.7864 -0.1764 -0.2711
  553MOL0     C74568   2.238  11.835  11.949 -0.0099 -0.8402  0.7969
  553MOL0     C74569   2.236  11.740  11.844  0.6642  0.7239 -0.3364
  553MOL0     N74570   1.998  11.663  11.042  0.6307  0.3061  0.1716
  553MOL0     N74571   1.966  11.710  10.931 -0.0567  0.0598 -0.1517
  553MOL0     C74572   1.894  11.602   9.632  0.2265 -0.4425 -0.1825
  553MOL0     C74573   1.890  11.535   9.506  0.2220 -0.3884 -0.6703
  553MOL0     C74574   1.858  11.246   9.150 -0.9158  0.6266 -1.3449
  553MOL0     C74575   1.749  11.164   9.177 -0.7155  0.2299 -0.2430
  553MOL0     C74576   1.691  11.093   9.075 -0.5464 -0.8678 -0.3502
  553MOL0     C74577   1.756  11.074   8.950 -0.0126  1.2657  0.9361
  553MOL0     O74578   1.702  10.986   8.856  0.3315 -0.1430  0.6200
  553MOL0     C74579   1.738  11.021   8.727  0.0298  0.7410  0.1763
  553MOL0     C74580   1.653  10.947   8.617  0.3350 -0.3263 -0.2276
  553MOL0     C74581   1.690  11.002   8.484  0.2905  0.6626  0.1531
  553MOL0     C74582   1.581  10.983   8.369 -0.1425  0.2886 -0.1159
  553MOL0     C74583   1.591  10.851   8.306  0.2398  0.4271  0.4923
  553MOL0     C74584   1.569  10.745   8.254  0.4037 -0.2042 -0.6317
  553MOL0     C74585   1.860  11.160   8.925  0.6077  0.1680  0.6571
  553MOL0     C74586   1.908  11.252   9.016  0.6619  0.0255 -0.1591
  553MOL0     C74587   2.025  11.340   8.973 -0.9391 -0.3644 -0.6374
  553MOL0     H74588   1.768  11.246   9.617 -1.1529  0.9511 -1.2430
  553MOL0     H74589   1.785  11.349   9.829 -0.2155 -0.0652  0.6898
  553MOL0     H74590   1.786  11.483  10.009  1.7661 -2.4239  2.0059
  553MOL0     H74591   1.964  11.449   9.973  0.4500 -0.7810 -0.5014
  553MOL0     H74592   1.876  11.705  10.100  0.7108  1.2365 -3.3668
  553MOL0     H74593   2.032  11.662  10.066  0.6734 -1.2853  0.8690
  553MOL0     H74594   2.022  11.441  10.210 -0.8617 -1.9112  0.4843
  553MOL0     H74595   1.853  11.475  10.223 -0.2663  0.1255 -5.0689
  553MOL0     H74596   2.092  11.657  10.321 -1.1378 -0.6441 -2.5473
  553MOL0     H74597   1.931  11.695  10.360  1.4484  0.1274  2.4913
  553MOL0     H74598   1.912  11.502  10.502  0.9986 -2.8877  0.8161
  553MOL0     H74599   2.068  11.438  10.458  0.7606 -0.5371  2.0051
  553MOL0     H74600   2.060  11.569  10.673 -2.2234  0.1625 -0.6999
  553MOL0     H74601   2.184  11.630  10.566  0.1570 -0.5636  0.7236
  553MOL0     H74602   1.906  11.729  10.663  0.2659  0.5136 -0.6043
  553MOL0     H74603   1.992  11.822  10.536  2.5167 -0.0143 -0.5961
  553MOL0     H74604   2.186  11.819  10.721  1.0244  0.8888  2.9101
  553MOL0     H74605   2.040  11.919  10.769 -1.3276 -2.3221  1.3823
  553MOL0     H74606   2.288  11.775  10.958  0.0063 -1.6146 -0.0972
  553MOL0     H74607   2.141  11.522  11.211 -2.4427  1.0569 -1.0391
  553MOL0     H74608   2.302  11.581  11.146 -1.2039 -0.4753 -1.9081
  553MOL0     H74609   2.236  11.802  11.241  0.0152 -1.3386 -2.5919
  553MOL0     H74610   2.105  11.724  11.323 -0.6122 -0.2824 -1.3926
  553MOL0     H74611   2.391  11.680  11.366 -0.7442 -0.6307 -1.2468
  553MOL0     H74612   2.261  11.557  11.422 -0.2696 -0.6569 -0.9544
  553MOL0     H74613   2.195  11.789  11.549 -2.1208 -2.0915 -3.2327
  553MOL0     H74614   2.362  11.820  11.523  1.1115 -1.0405  2.2385
  553MOL0     H74615   2.540  11.799  11.716 -0.5461  0.4590 -0.8830
  553MOL0     H74616   2.537  11.969  11.902  0.0580 -0.1835  2.3752
  553MOL0     H74617   2.659  12.222  12.161  4.2884  3.2382  2.9480
  553MOL0     H74618   2.708  12.311  12.371  1.2195  1.4245 -2.6628
  553MOL0     H74619   2.359  12.539  12.540  0.8134 -0.0384 -1.7853
  553MOL0     H74620   2.427  12.503  12.697 -0.3648  0.5067 -1.5032
  553MOL0     H74621   2.463  12.722  12.668  0.6249  1.4587 -0.6387
  553MOL0     H74622   2.622  12.638  12.665 -0.9490 -4.4750 -0.8110
  553MOL0     H74623   2.641  12.804  12.486  0.6411 -1.0865  0.5210
  553MOL0     H74624   2.639  12.644  12.426  3.5832  1.7994 -0.7821
  553MOL0     H74625   2.447  12.869  12.387  0.1151  0.4186 -0.9894
  553MOL0     H74626   2.363  12.715  12.382 -2.5472  4.7788  1.3586
  553MOL0     H74627   2.572  12.644  12.235  3.6513  1.3710  0.8563
  553MOL0     H74628   2.583  12.822  12.227 -2.3501  1.1692 -1.2759
  553MOL0     H74629   2.481  12.740  12.020  1.4421 -1.9743  1.7727
  553MOL0     H74630   2.372  12.642  12.122  1.2041 -1.0440  2.6470
  553MOL0     H74631   2.262  12.851  12.191  0.6476 -0.0722 -0.6031
  553MOL0     H74632   2.259  12.831  12.012 -0.1928  3.5541  0.0088
  553MOL0     H74633   2.471  13.012  12.153 -2.1453  2.0465  2.1489
  553MOL0     H74634   2.451  13.008  11.983  1.6743  2.6346  2.1366
  553MOL0     H74635   2.294  12.369  12.452  2.1221  2.9567 -0.2453
  553MOL0     H74636   2.245  12.209  12.258  0.2401 -1.0672  1.4786
  553MOL0     H74637   2.148  11.846  12.010 -1.0634  0.9776 -0.9777
  553MOL0     H74638   2.153  11.673  11.824  2.2521 -1.2587 -0.6916
  553MOL0     H74639   1.928  11.705   9.635  0.6668 -0.6181  1.2365
  553MOL0     H74640   1.926  11.592   9.422 -0.3617 -0.7945 -1.2029
  553MOL0     H74641   1.706  11.147   9.275  1.9151  0.3390  1.0137
  553MOL0     H74642   1.602  11.034   9.093 -0.3158 -0.5906  1.9232
  553MOL0     H74643   1.842  10.996   8.703 -0.2247 -0.3814  0.1758
  553MOL0     H74644   1.715  11.128   8.717  0.4123  0.8893  0.8366
  553MOL0     H74645   1.549  10.972   8.639  0.0930  0.2298 -1.8826
  553MOL0     H74646   1.675  10.841   8.637  0.2010 -0.3052  0.0441
  553MOL0     H74647   1.776  10.949   8.442  0.4491  2.1278 -1.4888
  553MOL0     H74648   1.735  11.101   8.494  1.0054  0.2509  1.2034
  553MOL0     H74649   1.485  11.020   8.405 -0.4726  1.0704 -1.7568
  553MOL0     H74650   1.614  11.053   8.292 -0.1057 -0.8070 -1.1323
  553MOL0     H74651   1.556  10.655   8.196 -0.4794 -2.0915  2.2808
  553MOL0     H74652   1.914  11.155   8.831 -1.4732  0.6095 -0.6428
  553MOL0     H74653   2.115  11.305   9.024 -1.8322 -2.0283 -0.1342
  553MOL0     H74654   2.045  11.335   8.865  0.5948 -0.7538 -0.3460
  553MOL0     H74655   2.011  11.447   8.996  1.9701 -0.6319  3.3032
  554MOL0     O74656   7.979   1.333   5.777 -0.0009  0.1880 -0.4980
  554MOL0     C74657   8.071   1.263   5.833  0.7579 -1.4259 -0.0312
  554MOL0     O74658   8.141   1.301   5.940  0.0852  0.3508 -0.0639
  554MOL0     C74659   8.129   1.430   5.997  0.0983  0.5304 -0.7125
  554MOL0     C74660   8.109   1.550   5.931 -0.6690 -0.3055  0.3105
  554MOL0     C74661   8.104   1.675   5.998  0.1750  0.4094 -0.0387
  554MOL0     C74662   8.133   1.681   6.129 -0.2772  0.4696  0.1217
  554MOL0     O74663   8.125   1.812   6.173  0.2822  0.0934 -0.4671
  554MOL0     C74664   8.115   1.842   6.312  0.1219  0.1452 -0.1190
  554MOL0     C74665   8.092   1.986   6.344  0.1630 -0.3651 -1.1198
  554MOL0     C74666   8.212   2.085   6.330 -0.8150 -0.3376  0.8132
  554MOL0     C74667   8.235   2.119   6.181  0.1612 -0.9114  0.5604
  554MOL0     C74668   8.342   2.231   6.169 -0.3627  0.0203 -1.0033
  554MOL0     C74669   8.283   2.371   6.214 -0.0865  0.3603  0.0299
  554MOL0     C74670   8.163   2.404   6.131 -0.7038  0.0163 -0.2770
  554MOL0     C74671   8.035   2.379   6.207  0.3134 -0.4289  0.5790
  554MOL0     N74672   8.019   2.467   6.323  0.7515  0.1831 -0.3967
  554MOL0     C74673   8.037   2.595   6.351 -0.1010  0.2695  0.6949
  554MOL0     C74674   8.038   2.606   6.489 -0.3112  0.4272 -0.7420
  554MOL0     C74675   8.051   2.734   6.564 -0.4462 -0.7961  0.5122
  554MOL0     C74676   8.186   2.733   6.647  0.8194 -0.2539  0.0282
  554MOL0     C74677   8.209   2.854   6.731  0.0610 -0.9588  0.4942
  554MOL0     C74678   8.155   2.834   6.872  0.1031 -0.1124  0.3204
  554MOL0     O74679   8.016   2.815   6.875  0.2455 -0.6850 -0.0640
  554MOL0     C74680   7.971   2.806   7.005 -0.6128  0.1214  0.0937
  554MOL0     C74681   8.024   2.714   7.105 -0.3561 -0.3260  0.7816
  554MOL0     C74682   7.989   2.722   7.239 -1.4436  0.2091 -0.5450
  554MOL0     C74683   7.903   2.821   7.286  0.3510  0.7868 -0.4585
  554MOL0     C74684   7.883   2.849   7.431  1.2991  0.1620 -0.0866
  554MOL0     O74685   7.820   2.969   7.457 -0.8604 -0.7507 -0.2095
  554MOL0     C74686   7.792   2.993   7.588 -0.2183 -0.4692 -0.1609
  554MOL0     C74687   7.706   2.914   7.664 -0.0908 -0.0293 -0.3402
  554MOL0     C74688   7.685   2.935   7.794  1.2875 -0.3083  0.0094
  554MOL0     C74689   7.751   3.047   7.861  0.4730 -0.7421  0.2592
  554MOL0     O74690   7.737   3.082   7.995 -0.7268  0.2160  0.4502
  554MOL0     C74691   7.635   3.014   8.072 -0.3551  0.7435  0.2230
  554MOL0     C74692   7.654   3.057   8.225  0.7825  0.4393 -0.5151
  554MOL0     C74693   7.587   2.965   8.314  0.7368 -0.9715 -0.7503
  554MOL0     C74694   7.589   2.984   8.459  0.1129 -1.0728 -0.0982
  554MOL0     C74695   7.474   3.060   8.521  0.3872  0.6406  0.5252
  554MOL0     C74696   7.484   3.069   8.674 -0.3392 -0.2407  0.9556
  554MOL0     C74697   7.482   3.211   8.727  0.5096 -0.2641 -0.7217
  554MOL0     C74698   7.608   3.284   8.708 -0.2807  0.5163 -0.4864
  554MOL0    Cl74699   7.630   3.438   8.808 -0.0735 -0.2911 -0.3021
  554MOL0     C74700   7.837   3.132   7.779  0.3574 -0.1039 -0.0220
  554MOL0     C74701   7.861   3.102   7.645  0.7367  0.1280 -0.2848
  554MOL0     O74702   7.925   2.770   7.519 -0.5002  0.5590 -0.4986
  554MOL0     C74703   7.859   2.914   7.189 -0.3310  0.6372 -0.3601
  554MOL0     C74704   7.889   2.902   7.049 -0.2440  0.3965 -1.0851
  554MOL0     N74705   8.019   2.479   6.540 -0.9767 -0.6464 -0.1120
  554MOL0     N74706   8.011   2.389   6.437  0.2475  0.3070 -0.8399
  554MOL0     C74707   8.160   1.564   6.198 -0.1330  0.1830  0.3332
  554MOL0     C74708   8.146   1.442   6.138  0.0782  0.4405 -0.8932
  554MOL0     C74709   8.104   1.134   5.766 -0.3228 -0.1243 -0.2268
  554MOL0     C74710   8.095   1.133   5.624  0.3467  0.0159 -0.5538
  554MOL0     C74711   8.140   1.017   5.555 -0.3875  0.0042  0.1287
  554MOL0     C74712   8.177   0.899   5.624 -0.4323  0.0297 -0.7433
  554MOL0     O74713   8.221   0.792   5.558 -0.2655 -0.2673 -0.0746
  554MOL0     C74714   8.272   0.682   5.634 -0.2255 -0.1385 -0.0945
  554MOL0     C74715   8.331   0.576   5.546  0.2202  0.5003  0.8295
  554MOL0     C74716   8.341   0.435   5.618 -0.1197 -0.3579  0.1204
  554MOL0     C74717   8.481   0.373   5.581 -0.5240  0.7799  0.2850
  554MOL0     C74718   8.513   0.367   5.438 -0.1843 -0.7134 -0.3955
  554MOL0     C74719   8.531   0.371   5.318 -0.1563 -0.4928  0.5237
  554MOL0     C74720   8.167   0.904   5.761  1.0002 -0.5205  0.0229
  554MOL0     C74721   8.132   1.016   5.837  0.2195  0.4652  0.3827
  554MOL0     C74722   8.126   1.004   5.986 -0.8972 -0.5177  0.2400
  554MOL0     H74723   8.112   1.557   5.823  1.8340  2.0837  0.4289
  554MOL0     H74724   8.090   1.775   5.958 -1.0773 -0.2211 -1.2723
  554MOL0     H74725   8.025   1.786   6.338  1.0729 -1.4887 -0.1995
  554MOL0     H74726   8.195   1.798   6.373  0.4580  1.9249  0.7974
  554MOL0     H74727   8.057   1.991   6.447  1.4694 -0.3626 -0.6515
  554MOL0     H74728   8.009   2.030   6.288 -0.1362  1.4174  0.6255
  554MOL0     H74729   8.301   2.028   6.356  0.9794  2.1154  0.4678
  554MOL0     H74730   8.199   2.172   6.395 -2.0977 -2.8426  4.1526
  554MOL0     H74731   8.273   2.025   6.143  1.6798  0.3475 -1.1806
  554MOL0     H74732   8.142   2.143   6.129 -0.4886  0.2143  2.1282
  554MOL0     H74733   8.433   2.226   6.229  0.8099  2.4807 -2.4053
  554MOL0     H74734   8.385   2.236   6.069  0.5769  0.8104 -0.5795
  554MOL0     H74735   8.254   2.376   6.319  1.5821 -3.7048  0.8696
  554MOL0     H74736   8.354   2.452   6.200  1.2537 -0.5664  1.2545
  554MOL0     H74737   8.153   2.352   6.035  0.8687  2.8651 -2.1199
  554MOL0     H74738   8.167   2.513   6.123  0.2150  0.3824  3.3058
  554MOL0     H74739   7.955   2.409   6.139  1.4037  1.3455  0.0384
  554MOL0     H74740   8.012   2.274   6.227  0.2001 -0.9967 -2.2281
  554MOL0     H74741   8.045   2.681   6.285  0.5404 -1.1707 -1.2036
  554MOL0     H74742   8.049   2.822   6.499 -0.7600 -0.8270  0.4777
  554MOL0     H74743   7.957   2.734   6.620  0.1262  0.9497  1.5601
  554MOL0     H74744   8.187   2.640   6.706  2.8055 -1.6869 -2.0708
  554MOL0     H74745   8.263   2.710   6.573  1.2170 -0.2875  0.4462
  554MOL0     H74746   8.161   2.940   6.682 -0.0467 -1.1897  0.1936
  554MOL0     H74747   8.317   2.868   6.736  0.1025 -1.5006  1.5552
  554MOL0     H74748   8.188   2.923   6.926  1.9197  0.5787 -1.7544
  554MOL0     H74749   8.200   2.741   6.910 -2.3230 -1.1275  0.8720
  554MOL0     H74750   8.103   2.644   7.078  2.3204  2.7814  0.0016
  554MOL0     H74751   8.041   2.661   7.311  2.3768  1.5250 -1.9696
  554MOL0     H74752   7.668   2.831   7.606  0.1806  1.0507 -2.1559
  554MOL0     H74753   7.634   2.860   7.854  1.8825  1.2781  2.6758
  554MOL0     H74754   7.538   3.049   8.035 -0.0327 -0.1574 -1.5996
  554MOL0     H74755   7.641   2.905   8.059  0.4800  0.7351  0.6340
  554MOL0     H74756   7.761   3.050   8.245  0.2824 -2.0292  1.6793
  554MOL0     H74757   7.623   3.162   8.231  1.3107  0.7837 -2.7135
  554MOL0     H74758   7.481   2.957   8.288 -0.8239 -0.1202  4.3078
  554MOL0     H74759   7.639   2.870   8.296 -0.1887 -1.8487  0.9744
  554MOL0     H74760   7.684   3.020   8.499 -1.2031  0.7234  1.5883
  554MOL0     H74761   7.573   2.880   8.489 -1.5266 -0.7052  0.3731
  554MOL0     H74762   7.375   3.014   8.510 -0.5511  3.2050 -4.5988
  554MOL0     H74763   7.461   3.160   8.479 -2.7596  0.6959  1.3837
  554MOL0     H74764   7.404   3.015   8.726 -2.0026  1.7216  0.5564
  554MOL0     H74765   7.580   3.022   8.699  0.1745 -0.2746 -0.9282
  554MOL0     H74766   7.484   3.189   8.834  0.0964 -1.2055 -0.8957
  554MOL0     H74767   7.391   3.266   8.700  0.8227  0.0214 -1.2082
  554MOL0     H74768   7.688   3.220   8.748 -1.0647  0.2750  0.7373
  554MOL0     H74769   7.615   3.297   8.600  0.8801  2.4638 -0.2243
  554MOL0     H74770   7.885   3.219   7.823 -1.5093  1.5923 -1.1717
  554MOL0     H74771   7.947   3.142   7.591  1.0213 -1.1092 -0.7786
  554MOL0     H74772   7.787   2.990   7.217  0.1753  0.7307  0.7785
  554MOL0     H74773   7.843   2.970   6.977 -1.1633  0.2031 -0.6911
  554MOL0     H74774   8.182   1.575   6.304  2.2623  5.8890 -0.4358
  554MOL0     H74775   8.166   1.357   6.202  0.1839  1.1852  0.0876
  554MOL0     H74776   8.067   1.226   5.575 -1.2396 -0.0547  0.1598
  554MOL0     H74777   8.122   1.021   5.448 -3.2824  0.6862  0.5542
  554MOL0     H74778   8.198   0.640   5.704  2.2639 -2.1638  1.5087
  554MOL0     H74779   8.342   0.720   5.709 -0.1595 -1.7909  0.7556
  554MOL0     H74780   8.423   0.608   5.497 -1.8153  0.8244 -3.2922
  554MOL0     H74781   8.269   0.556   5.458  1.8386 -1.6119  0.0716
  554MOL0     H74782   8.277   0.359   5.573 -3.0526  2.2747 -0.4345
  554MOL0     H74783   8.314   0.437   5.724  1.5413  2.0874  0.5920
  554MOL0     H74784   8.558   0.438   5.624  3.0873 -2.1072 -1.2814
  554MOL0     H74785   8.499   0.272   5.619  3.3737 -0.5330 -4.1283
  554MOL0     H74786   8.546   0.378   5.212 -0.1397  1.4587  0.6215
  554MOL0     H74787   8.187   0.822   5.829 -2.2488  0.1601  2.0590
  554MOL0     H74788   8.035   1.045   6.030 -0.9829  0.5529 -0.8559
  554MOL0     H74789   8.126   0.905   6.031  1.9276  0.6058  3.0377
  554MOL0     H74790   8.218   1.050   6.024 -0.6917 -2.3089  2.0721
  555MOL0     O74791   2.664   8.441  10.251  0.7833 -0.4933 -0.0140
  555MOL0     C74792   2.705   8.394  10.357 -0.8969  0.5095  0.8634
  555MOL0     O74793   2.692   8.261  10.396 -0.4444 -0.5673  0.3065
  555MOL0     C74794   2.682   8.170  10.292 -0.1054 -0.4360 -0.2553
  555MOL0     C74795   2.606   8.060  10.327  0.3656 -0.1355  1.0030
  555MOL0     C74796   2.586   7.963  10.225 -0.0503 -0.7353 -1.3008
  555MOL0     C74797   2.639   7.972  10.099  0.1404 -0.3968  0.4202
  555MOL0     O74798   2.640   7.876   9.996  0.1498 -0.5834 -0.5608
  555MOL0     C74799   2.527   7.790   9.989  0.4297 -0.2850  0.3697
  555MOL0     C74800   2.564   7.645   9.983 -0.5385 -0.4247 -1.3335
  555MOL0     C74801   2.597   7.565  10.110  0.8223  0.0350  0.1904
  555MOL0     C74802   2.728   7.608  10.188 -0.0724 -0.1566 -0.6948
  555MOL0     C74803   2.744   7.551  10.323 -1.3296 -0.4781 -1.3685
  555MOL0     C74804   2.788   7.660  10.432  0.2231  0.1265 -0.3011
  555MOL0     C74805   2.804   7.600  10.567 -0.1679  0.2947 -0.7067
  555MOL0     C74806   2.747   7.688  10.687  0.0595  0.1280 -0.6498
  555MOL0     N74807   2.742   7.612  10.810 -0.0851 -0.8735 -0.2892
  555MOL0     C74808   2.832   7.604  10.907  1.2304 -0.3331 -0.4127
  555MOL0     C74809   2.779   7.530  11.012  0.0515  0.0459 -0.3509
  555MOL0     C74810   2.854   7.486  11.133  0.9661 -1.0040  0.6221
  555MOL0     C74811   2.847   7.587  11.249 -0.2844 -0.8596 -0.0225
  555MOL0     C74812   2.703   7.586  11.304  0.1982  0.1718  0.4992
  555MOL0     C74813   2.694   7.676  11.432  0.1427 -0.0447 -0.8962
  555MOL0     O74814   2.566   7.725  11.435  0.5589  0.2531  0.2414
  555MOL0     C74815   2.528   7.787  11.552 -0.1317 -0.3553  0.3596
  555MOL0     C74816   2.392   7.822  11.549  0.4554 -0.4050  0.3110
  555MOL0     C74817   2.335   7.900  11.662  0.5589 -0.1526  0.8175
  555MOL0     C74818   2.416   7.927  11.776  0.3417  0.1797  0.7956
  555MOL0     C74819   2.370   7.997  11.893 -0.0916  0.6378  0.1768
  555MOL0     O74820   2.265   8.085  11.876 -0.6666  1.0597  0.2332
  555MOL0     C74821   2.215   8.145  11.991 -0.4801  1.2383 -0.4546
  555MOL0     C74822   2.167   8.078  12.114 -0.2807  0.7400 -0.7890
  555MOL0     C74823   2.098   8.155  12.216 -0.0879  0.5969 -0.9324
  555MOL0     C74824   2.083   8.295  12.202  0.3421 -0.7119 -0.3035
  555MOL0     O74825   2.018   8.361  12.303 -0.3703  0.0835  0.5031
  555MOL0     C74826   1.941   8.480  12.287  0.7945  0.2087 -0.3696
  555MOL0     C74827   1.911   8.558  12.419  0.0845 -0.4669 -0.0587
  555MOL0     C74828   1.824   8.679  12.398 -0.4583  0.3646  0.9776
  555MOL0     C74829   1.686   8.652  12.339  0.1424 -0.3026 -0.1018
  555MOL0     C74830   1.588   8.769  12.391 -0.4272  1.1581 -0.0403
  555MOL0     C74831   1.442   8.728  12.400 -0.2616  0.5566  0.1007
  555MOL0     C74832   1.368   8.853  12.441 -0.0223  0.1252 -0.1651
  555MOL0     C74833   1.376   8.872  12.590  0.0833 -0.0058  0.0169
  555MOL0    Cl74834   1.324   9.037  12.634  0.2136  0.3415  0.2822
  555MOL0     C74835   2.123   8.355  12.079 -0.0672  0.1324  0.1567
  555MOL0     C74836   2.194   8.279  11.980  0.9346 -0.4148 -0.2942
  555MOL0     O74837   2.431   7.978  12.002  0.2641  0.5371 -0.5976
  555MOL0     C74838   2.545   7.863  11.781 -0.0356  0.8287  0.1881
  555MOL0     C74839   2.600   7.806  11.668  0.0290 -0.9541 -0.4372
  555MOL0     N74840   2.652   7.496  10.974 -0.8035 -0.3550 -0.3573
  555MOL0     N74841   2.630   7.544  10.856 -0.4409 -0.3635 -0.0308
  555MOL0     C74842   2.720   8.085  10.068  0.1790 -0.4866 -1.1130
  555MOL0     C74843   2.738   8.184  10.162  0.3941  0.5009  0.5171
  555MOL0     C74844   2.749   8.487  10.462 -0.0120  0.5434  0.5630
  555MOL0     C74845   2.690   8.471  10.589 -0.1606  0.5383 -0.2994
  555MOL0     C74846   2.706   8.582  10.685  0.3672 -0.6997 -0.0808
  555MOL0     C74847   2.779   8.703  10.643  1.3186  0.0346  0.2492
  555MOL0     O74848   2.808   8.812  10.719 -0.2739 -0.2154 -1.1443
  555MOL0     C74849   2.792   8.795  10.859  0.3862  0.4798 -0.2741
  555MOL0     C74850   2.776   8.927  10.923  0.5233  0.2581 -0.8876
  555MOL0     C74851   2.676   9.020  10.841 -0.6346  0.3927 -0.0062
  555MOL0     C74852   2.631   9.149  10.910 -1.2230  0.0822  0.7454
  555MOL0     C74853   2.583   9.117  11.042 -0.1154  0.4741  0.0862
  555MOL0     C74854   2.516   9.084  11.129  0.6604  0.3713  0.0902
  555MOL0     C74855   2.842   8.701  10.520 -0.6605 -0.3677 -0.0285
  555MOL0     C74856   2.830   8.597  10.427  0.5946 -0.6501 -0.1805
  555MOL0     C74857   2.899   8.604  10.296 -0.0517  0.0970  0.3073
  555MOL0     H74858   2.576   8.053  10.431  2.7870 -2.9930  1.6727
  555MOL0     H74859   2.528   7.874  10.245  1.6943 -2.1182 -2.0878
  555MOL0     H74860   2.444   7.799  10.060 -1.4819 -4.5529 -0.9941
  555MOL0     H74861   2.488   7.815   9.890  2.1051  1.6822  0.1281
  555MOL0     H74862   2.656   7.629   9.926 -0.4315 -0.6198 -1.1071
  555MOL0     H74863   2.480   7.588   9.943 -1.5510 -0.9560  1.2941
  555MOL0     H74864   2.596   7.459  10.082  1.3524 -0.4929  2.0605
  555MOL0     H74865   2.519   7.596  10.180  1.7868  2.8729  0.1182
  555MOL0     H74866   2.812   7.578  10.125  0.4806 -0.7371  0.3045
  555MOL0     H74867   2.729   7.717  10.195  0.2874 -0.1425 -0.9355
  555MOL0     H74868   2.654   7.500  10.358 -1.9151  2.1524  1.3687
  555MOL0     H74869   2.820   7.472  10.322  2.1750  2.5707  0.0603
  555MOL0     H74870   2.881   7.699  10.391  0.2046 -1.2632 -1.8030
  555MOL0     H74871   2.708   7.735  10.435 -0.6820 -0.7448 -1.4650
  555MOL0     H74872   2.910   7.581  10.586 -0.0696  1.7894  0.3778
  555MOL0     H74873   2.757   7.501  10.578 -1.6377  1.1230  0.9426
  555MOL0     H74874   2.817   7.771  10.700  1.7502 -0.8488 -2.7451
  555MOL0     H74875   2.655   7.733  10.648  1.5659  1.1122 -3.4099
  555MOL0     H74876   2.926   7.658  10.911  0.4787  1.0361 -0.3873
  555MOL0     H74877   2.801   7.403  11.179 -0.0796  0.3792  2.0550
  555MOL0     H74878   2.956   7.459  11.106  0.5678 -0.4021 -1.6580
  555MOL0     H74879   2.905   7.532  11.324  1.5032 -0.0446 -0.7315
  555MOL0     H74880   2.888   7.686  11.228  3.7544 -2.8493 -2.9982
  555MOL0     H74881   2.668   7.488  11.339 -0.5585 -0.1198 -1.0078
  555MOL0     H74882   2.646   7.635  11.225  0.3126 -0.3871  0.0631
  555MOL0     H74883   2.749   7.769  11.412 -1.0760  0.8232 -0.3649
  555MOL0     H74884   2.730   7.613  11.514  1.1429 -0.7708 -1.8733
  555MOL0     H74885   2.345   7.805  11.452 -0.8738 -1.1883  1.0773
  555MOL0     H74886   2.232   7.934  11.651  1.1885  1.4352 -0.6438
  555MOL0     H74887   2.164   7.971  12.133  0.4955  0.1781 -3.4120
  555MOL0     H74888   2.054   8.112  12.305 -0.1713 -0.1554 -1.3293
  555MOL0     H74889   1.980   8.556  12.219 -0.5929  3.7210  2.4746
  555MOL0     H74890   1.854   8.440  12.235  0.2354 -1.8574  1.9474
  555MOL0     H74891   1.854   8.497  12.490 -1.0060 -1.2180 -1.5048
  555MOL0     H74892   2.002   8.591  12.468 -1.6015  0.8449  2.4224
  555MOL0     H74893   1.805   8.727  12.495 -1.0185  1.6570  0.2585
  555MOL0     H74894   1.872   8.758  12.340 -1.7089  1.3835  1.2928
  555MOL0     H74895   1.637   8.557  12.362  0.6347 -0.8425 -1.2089
  555MOL0     H74896   1.699   8.650  12.230  1.4215  0.1104  0.0334
  555MOL0     H74897   1.601   8.848  12.316 -0.6144  3.8597  2.6185
  555MOL0     H74898   1.615   8.812  12.487 -1.9251  0.1981  0.8389
  555MOL0     H74899   1.415   8.692  12.300  3.3789 -1.3533 -0.3886
  555MOL0     H74900   1.431   8.651  12.476  2.5745  2.3429  2.5741
  555MOL0     H74901   1.260   8.842  12.424 -0.2057 -0.4991  1.3317
  555MOL0     H74902   1.398   8.942  12.385 -1.4462  2.5868  2.6726
  555MOL0     H74903   1.313   8.797  12.638  2.6989 -0.7592  2.5336
  555MOL0     H74904   1.473   8.855  12.638 -0.5454  0.2291  1.3901
  555MOL0     H74905   2.111   8.459  12.054 -0.3267  0.2910  0.9020
  555MOL0     H74906   2.222   8.341  11.896 -1.2569  1.5694  0.3382
  555MOL0     H74907   2.600   7.878  11.874 -1.8381 -0.7195  1.5855
  555MOL0     H74908   2.702   7.773  11.683  0.0652 -1.4822 -1.7093
  555MOL0     H74909   2.780   8.104   9.979  1.3455  0.2621 -0.1947
  555MOL0     H74910   2.809   8.263  10.143 -0.8080  2.2911  2.9366
  555MOL0     H74911   2.628   8.387  10.618 -2.1273  1.1016 -2.6164
  555MOL0     H74912   2.652   8.583  10.780  0.4627  2.0140  0.0427
  555MOL0     H74913   2.879   8.744  10.901  0.6949  0.0712 -1.3788
  555MOL0     H74914   2.694   8.749  10.875  0.3794  0.3118 -0.7716
  555MOL0     H74915   2.877   8.969  10.920  0.6056  0.0113 -1.7090
  555MOL0     H74916   2.744   8.911  11.027  2.8629 -2.5096 -0.4824
  555MOL0     H74917   2.586   8.963  10.815 -0.9762  0.4588  0.9854
  555MOL0     H74918   2.718   9.054  10.745 -0.5737 -2.1358 -0.9591
  555MOL0     H74919   2.718   9.214  10.922 -1.3097  0.4915 -0.6363
  555MOL0     H74920   2.558   9.191  10.840 -1.1362 -2.6972 -1.1616
  555MOL0     H74921   2.452   9.051  11.209 -1.5158  0.7459 -1.4185
  555MOL0     H74922   2.898   8.790  10.493 -1.6780  0.6815  1.1667
  555MOL0     H74923   2.977   8.679  10.297 -3.7963  4.4306 -0.1655
  555MOL0     H74924   2.947   8.507  10.279 -2.9434 -1.2513 -0.9201
  555MOL0     H74925   2.832   8.632  10.214  1.0397 -0.0441 -0.6590
  556MOL0     O74926   3.885   2.816   9.363 -0.3365 -0.7149 -0.3534
  556MOL0     C74927   3.848   2.726   9.299  0.6039  0.6812 -0.3899
  556MOL0     O74928   3.748   2.732   9.203 -0.0067  0.0107  1.1524
  556MOL0     C74929   3.737   2.855   9.135  0.8285 -0.8067 -0.2852
  556MOL0     C74930   3.618   2.872   9.067  1.5871 -0.4927 -0.6831
  556MOL0     C74931   3.583   2.991   9.006  0.6706 -0.5258  0.2960
  556MOL0     C74932   3.682   3.091   9.000  0.1716 -0.0117 -0.6895
  556MOL0     O74933   3.654   3.203   8.931 -0.4395 -0.2804  0.2852
  556MOL0     C74934   3.711   3.185   8.799 -0.4270 -0.4818 -0.3906
  556MOL0     C74935   3.597   3.210   8.700 -0.3046 -0.2017 -0.2938
  556MOL0     C74936   3.654   3.266   8.561  0.1304 -0.6641 -0.1903
  556MOL0     C74937   3.791   3.248   8.499  1.3213 -0.5295 -0.2035
  556MOL0     C74938   3.820   3.331   8.378 -0.1197  0.2071  0.1371
  556MOL0     C74939   3.961   3.316   8.323  0.3858 -0.3456  0.6728
  556MOL0     C74940   3.991   3.438   8.228  0.0543  1.2031  0.0771
  556MOL0     C74941   4.106   3.386   8.138  0.3400  0.1644  0.8522
  556MOL0     N74942   4.141   3.490   8.044  0.4740  0.5013 -0.1910
  556MOL0     C74943   4.216   3.605   8.081  0.5370  0.2833  0.1371
  556MOL0     C74944   4.249   3.657   7.963 -0.6543  0.4378  0.3717
  556MOL0     C74945   4.343   3.780   7.944 -0.3846 -0.5738 -0.1546
  556MOL0     C74946   4.353   3.884   8.056  0.0474  0.3656 -0.0047
  556MOL0     C74947   4.225   3.950   8.104 -1.1566  0.3197  0.7575
  556MOL0     C74948   4.244   4.058   8.221  0.7329  0.0328 -0.4105
  556MOL0     O74949   4.308   3.991   8.329 -1.2039  0.1081 -0.2473
  556MOL0     C74950   4.243   3.896   8.407 -0.4136  0.6299  0.5636
  556MOL0     C74951   4.117   3.903   8.464 -0.3818  1.4857 -0.2181
  556MOL0     C74952   4.064   3.787   8.532 -0.5095 -0.6173 -0.9208
  556MOL0     C74953   4.132   3.667   8.554 -0.8643 -0.2497  0.5379
  556MOL0     C74954   4.072   3.556   8.634  0.2513 -0.3033  0.2643
  556MOL0     O74955   4.143   3.438   8.620 -0.0075  0.4841 -0.6708
  556MOL0     C74956   4.148   3.343   8.724 -0.4473 -0.9501 -0.1303
  556MOL0     C74957   4.190   3.374   8.857 -0.4058 -0.6922  0.5649
  556MOL0     C74958   4.199   3.276   8.948  0.5802 -0.2241  0.0122
  556MOL0     C74959   4.161   3.147   8.926 -0.0394  0.2145 -0.2971
  556MOL0     O74960   4.162   3.046   9.025  0.6152 -0.0553  0.1540
  556MOL0     C74961   4.235   3.074   9.143  0.0731  1.2649  0.0243
  556MOL0     C74962   4.237   2.945   9.230  0.3478 -0.8918 -0.0639
  556MOL0     C74963   4.297   2.834   9.147 -0.9965  0.1408 -0.1956
  556MOL0     C74964   4.307   2.698   9.233  0.8855 -0.1881 -0.0208
  556MOL0     C74965   4.429   2.613   9.237  0.2181 -0.2267  0.1205
  556MOL0     C74966   4.409   2.469   9.292 -0.3810  0.6211 -0.9562
  556MOL0     C74967   4.528   2.371   9.271 -0.0187  0.1272  0.2215
  556MOL0     C74968   4.542   2.333   9.125  0.5184  1.6426 -0.2011
  556MOL0    Cl74969   4.395   2.252   9.075 -0.0327  0.3098 -0.2783
  556MOL0     C74970   4.122   3.114   8.792 -0.5878 -0.0731 -0.6738
  556MOL0     C74971   4.115   3.214   8.688  0.6392 -0.2015 -0.5277
  556MOL0     O74972   3.971   3.568   8.703  0.7704 -0.0808 -0.2586
  556MOL0     C74973   4.255   3.661   8.488  0.0787  0.2651  1.3343
  556MOL0     C74974   4.300   3.770   8.418 -0.7270  0.4383 -0.2709
  556MOL0     N74975   4.191   3.580   7.857  0.2878 -0.6047 -0.2052
  556MOL0     N74976   4.137   3.480   7.909  0.0013 -0.1377 -0.0332
  556MOL0     C74977   3.807   3.078   9.057  1.1351 -0.3499 -1.4001
  556MOL0     C74978   3.837   2.959   9.129 -0.3409  1.4159  0.2380
  556MOL0     C74979   3.906   2.590   9.329 -0.2027 -0.3758 -0.1174
  556MOL0     C74980   3.856   2.482   9.260 -0.4711  0.0423  0.1505
  556MOL0     C74981   3.898   2.351   9.295 -0.2065  0.6081 -0.6237
  556MOL0     C74982   3.980   2.323   9.399 -0.3569 -0.0756  0.3921
  556MOL0     O74983   4.005   2.190   9.434  0.1484  0.1851  0.0467
  556MOL0     C74984   4.130   2.141   9.385 -0.6494 -0.0302  0.4859
  556MOL0     C74985   4.122   2.000   9.316  0.1987 -0.4859  0.4389
  556MOL0     C74986   4.250   1.947   9.252  0.2480  0.5046 -0.4739
  556MOL0     C74987   4.377   1.956   9.341  0.1283  0.1670 -0.2912
  556MOL0     C74988   4.493   1.940   9.262  0.5165 -0.5122 -0.4352
  556MOL0     C74989   4.588   1.911   9.190  0.0471 -0.4271  0.1521
  556MOL0     C74990   4.025   2.431   9.476 -0.4746 -1.5600 -1.0064
  556MOL0     C74991   3.996   2.563   9.438 -0.7297  0.7546 -0.1115
  556MOL0     C74992   4.070   2.669   9.518 -0.0808  0.1938 -0.6632
  556MOL0     H74993   3.546   2.791   9.073  4.3402 -3.0221  3.8066
  556MOL0     H74994   3.491   3.011   8.953  1.2568  1.4896 -0.0534
  556MOL0     H74995   3.784   3.263   8.778 -0.7971 -0.0052  0.0717
  556MOL0     H74996   3.753   3.084   8.786  1.6602  0.2966 -0.0972
  556MOL0     H74997   3.521   3.280   8.735 -0.2365 -0.2522 -0.0443
  556MOL0     H74998   3.544   3.115   8.687 -3.2704  1.2771  0.1177
  556MOL0     H74999   3.642   3.375   8.563  0.7904 -0.5888 -0.0971
  556MOL0     H75000   3.583   3.228   8.487 -0.6416  1.1009 -0.4016
  556MOL0     H75001   3.871   3.256   8.573 -0.5500  0.8773  1.7857
  556MOL0     H75002   3.784   3.145   8.462 -0.3572 -1.0514  1.4215
  556MOL0     H75003   3.751   3.305   8.297 -0.5579 -0.4909  0.7350
  556MOL0     H75004   3.792   3.436   8.394  1.2295  0.5926  0.1075
  556MOL0     H75005   4.039   3.309   8.400  2.4414  3.9926 -0.6870
  556MOL0     H75006   3.975   3.224   8.266  1.7103  1.5639 -2.2845
  556MOL0     H75007   4.037   3.524   8.276  0.1569  1.1029  0.1574
  556MOL0     H75008   3.912   3.468   8.158  0.2814 -1.0747 -1.2406
  556MOL0     H75009   4.196   3.368   8.199  0.3196 -0.9368  0.5757
  556MOL0     H75010   4.096   3.289   8.089 -0.4769  1.3048 -1.3665
  556MOL0     H75011   4.248   3.645   8.176 -1.7414  4.8868 -0.7351
  556MOL0     H75012   4.438   3.726   7.935 -0.2733 -0.1686 -1.7701
  556MOL0     H75013   4.317   3.825   7.848  0.5766 -0.0859 -0.1991
  556MOL0     H75014   4.409   3.845   8.142  1.2892 -1.3580 -1.5108
  556MOL0     H75015   4.414   3.965   8.014 -2.1024  1.2449 -1.5771
  556MOL0     H75016   4.156   3.873   8.139  1.4622 -2.2293  0.7056
  556MOL0     H75017   4.180   4.009   8.024  1.0274  1.4548  0.2891
  556MOL0     H75018   4.142   4.087   8.249 -0.3286 -3.4705 -0.2453
  556MOL0     H75019   4.308   4.143   8.192  0.1879  0.3189 -0.8122
  556MOL0     H75020   4.064   3.997   8.455 -1.2266  0.8614 -2.7635
  556MOL0     H75021   3.966   3.794   8.580  0.3611 -0.3587  0.9035
  556MOL0     H75022   4.216   3.476   8.885 -0.8528  0.0092 -1.3714
  556MOL0     H75023   4.221   3.314   9.047 -1.4555  0.5613  0.2088
  556MOL0     H75024   4.336   3.108   9.117  0.2923 -1.3489 -3.2857
  556MOL0     H75025   4.185   3.156   9.194 -1.4233  0.0029  0.6738
  556MOL0     H75026   4.297   2.973   9.317 -0.7740  3.7041 -0.5590
  556MOL0     H75027   4.134   2.921   9.258 -0.2983  0.9801 -0.6725
  556MOL0     H75028   4.234   2.808   9.061 -0.0206 -1.0908 -0.5681
  556MOL0     H75029   4.398   2.858   9.113 -0.3280 -2.1117  0.0397
  556MOL0     H75030   4.226   2.640   9.189  2.7065 -2.9019 -0.0384
  556MOL0     H75031   4.275   2.718   9.336  0.5894 -2.4120  0.3675
  556MOL0     H75032   4.500   2.673   9.295 -2.2160  1.7828  1.2527
  556MOL0     H75033   4.474   2.611   9.138 -2.4255 -3.6827 -1.2231
  556MOL0     H75034   4.400   2.477   9.400 -0.3100 -3.1476 -0.5445
  556MOL0     H75035   4.318   2.423   9.253 -0.7204 -0.7576  1.3085
  556MOL0     H75036   4.517   2.283   9.334  0.8793  2.5635  4.1815
  556MOL0     H75037   4.618   2.429   9.293  0.9066  0.3183 -3.3970
  556MOL0     H75038   4.561   2.417   9.057  3.5766  0.1180 -1.4454
  556MOL0     H75039   4.619   2.255   9.123 -0.1470  0.8258  2.3618
  556MOL0     H75040   4.088   3.015   8.765 -3.0599 -0.0818  2.0430
  556MOL0     H75041   4.068   3.192   8.592 -1.1190 -0.4885  0.3753
  556MOL0     H75042   4.312   3.570   8.479 -0.6431 -0.2309  1.7377
  556MOL0     H75043   4.390   3.751   8.360 -0.4207  1.5583 -0.1785
  556MOL0     H75044   3.885   3.153   9.047  2.0181 -0.8531  1.0205
  556MOL0     H75045   3.938   2.943   9.165 -1.2420 -0.4077  2.2034
  556MOL0     H75046   3.789   2.484   9.175  0.0614 -1.5967 -0.3387
  556MOL0     H75047   3.868   2.261   9.242  0.6949 -0.2908  0.3303
  556MOL0     H75048   4.208   2.144   9.461  0.7395  2.3338 -0.8937
  556MOL0     H75049   4.158   2.205   9.300 -4.8110 -1.8256 -2.5730
  556MOL0     H75050   4.045   1.998   9.239 -0.5189 -0.5359  1.1497
  556MOL0     H75051   4.098   1.935   9.401  0.1014 -1.5664 -0.4001
  556MOL0     H75052   4.272   1.997   9.157 -1.2422  3.2859  0.5423
  556MOL0     H75053   4.229   1.841   9.232 -0.0432  0.0963  1.7543
  556MOL0     H75054   4.387   2.046   9.403 -0.9509 -1.5221  2.5431
  556MOL0     H75055   4.375   1.875   9.414 -1.7489  1.3725  1.0986
  556MOL0     H75056   4.664   1.882   9.120  2.0536 -1.3642  2.5698
  556MOL0     H75057   4.105   2.418   9.548  0.4308  0.8487 -1.5007
  556MOL0     H75058   3.992   2.701   9.589  0.6786  0.4297  0.0809
  556MOL0     H75059   4.154   2.635   9.579 -2.8979 -1.1930  2.8167
  556MOL0     H75060   4.098   2.760   9.465 -1.1102  1.0415  0.1875
  557MOL0     O75061   2.837   3.332   2.019 -0.2477  0.1097  0.0687
  557MOL0     C75062   2.749   3.246   2.046 -0.3881 -1.3269 -0.5407
  557MOL0     O75063   2.692   3.229   2.173 -1.0141 -0.1607 -0.0498
  557MOL0     C75064   2.763   3.289   2.275  0.8191 -0.2537  0.4988
  557MOL0     C75065   2.833   3.207   2.356 -0.8254 -0.2489  0.8151
  557MOL0     C75066   2.913   3.256   2.452  0.2289 -0.2302  1.2076
  557MOL0     C75067   2.908   3.396   2.477 -0.2510  0.9520  1.0466
  557MOL0     O75068   2.984   3.459   2.571  0.3391  0.9328 -0.5320
  557MOL0     C75069   3.074   3.376   2.650 -0.7041 -1.4703  0.3538
  557MOL0     C75070   3.149   3.447   2.776  0.0751  0.3177 -0.9136
  557MOL0     C75071   3.259   3.372   2.842  1.3118  0.4332 -0.5154
  557MOL0     C75072   3.238   3.206   2.867  0.7985 -0.0543 -0.0990
  557MOL0     C75073   3.353   3.154   2.941 -0.9486  0.4982  0.0061
  557MOL0     C75074   3.328   2.999   2.978  0.9802 -0.8000 -0.1170
  557MOL0     C75075   3.437   2.947   3.078 -0.1433 -0.7107  0.3013
  557MOL0     C75076   3.397   2.806   3.123 -0.4413 -0.4261 -0.6454
  557MOL0     N75077   3.492   2.737   3.208  0.7756 -0.3876 -0.2662
  557MOL0     C75078   3.492   2.727   3.348  0.1789 -0.4982  0.1150
  557MOL0     C75079   3.606   2.673   3.385 -1.3825  0.1348  0.0827
  557MOL0     C75080   3.667   2.661   3.516 -0.2539  0.0458 -0.6890
  557MOL0     C75081   3.807   2.593   3.509  0.4872 -1.1517 -0.0461
  557MOL0     C75082   3.862   2.540   3.647 -1.2026 -0.2166  0.0628
  557MOL0     C75083   3.985   2.449   3.613 -0.1271 -0.9447  0.5667
  557MOL0     O75084   4.067   2.441   3.727 -0.3332 -0.2939  0.6187
  557MOL0     C75085   4.193   2.404   3.705 -0.1594  0.6094  0.2542
  557MOL0     C75086   4.289   2.439   3.806 -0.0852 -0.2452  0.2456
  557MOL0     C75087   4.419   2.393   3.804 -0.4636 -0.7062  0.3689
  557MOL0     C75088   4.473   2.319   3.691 -0.5360 -1.3865 -0.2120
  557MOL0     C75089   4.613   2.285   3.682  0.3803  0.1930 -0.7620
  557MOL0     O75090   4.704   2.371   3.733 -0.4971  0.1350 -0.7994
  557MOL0     C75091   4.834   2.332   3.747 -0.1030 -0.5833  0.0325
  557MOL0     C75092   4.936   2.330   3.644 -0.1152  0.4003  0.0505
  557MOL0     C75093   5.072   2.279   3.677  0.4727 -0.0355 -0.5577
  557MOL0     C75094   5.100   2.234   3.808  0.1629  0.6280 -0.0582
  557MOL0     O75095   5.219   2.175   3.828 -0.0351 -0.5579  0.1237
  557MOL0     C75096   5.237   2.127   3.965  0.7530  0.0879  0.1099
  557MOL0     C75097   5.382   2.071   3.967  0.7274  0.0898 -0.6827
  557MOL0     C75098   5.424   2.046   4.116 -0.3336  1.0211 -1.1007
  557MOL0     C75099   5.531   1.936   4.132  1.5607 -1.0376 -0.2370
  557MOL0     C75100   5.577   1.927   4.273  0.1664  0.5725  0.4260
  557MOL0     C75101   5.688   2.008   4.302 -0.8105  0.1777 -0.1946
  557MOL0     C75102   5.766   1.967   4.423  0.8653 -0.2390  1.1971
  557MOL0     C75103   5.870   1.860   4.385 -0.4589 -0.6750 -0.6869
  557MOL0    Cl75104   5.992   1.850   4.511 -0.1755 -0.1835 -0.6203
  557MOL0     C75105   4.996   2.241   3.909 -0.0617  0.1965 -0.2667
  557MOL0     C75106   4.873   2.297   3.873  0.7145  0.0652 -0.5775
  557MOL0     O75107   4.643   2.192   3.605  0.9363 -0.0226 -0.1227
  557MOL0     C75108   4.380   2.297   3.582  0.3192 -1.0107 -0.3800
  557MOL0     C75109   4.242   2.340   3.589 -0.7771 -0.0124  0.3711
  557MOL0     N75110   3.679   2.662   3.265 -0.3396  0.3783 -0.5258
  557MOL0     N75111   3.611   2.689   3.162  0.2060  0.2508 -0.0708
  557MOL0     C75112   2.840   3.482   2.389  0.0358  0.4817  0.1522
  557MOL0     C75113   2.758   3.429   2.292 -0.2634 -0.8083 -0.6014
  557MOL0     C75114   2.679   3.156   1.950  0.0120  0.5971  0.3574
  557MOL0     C75115   2.558   3.099   1.992  0.3306 -0.1268 -0.1550
  557MOL0     C75116   2.484   3.000   1.920 -0.5037 -0.2163  0.2170
  557MOL0     C75117   2.525   2.968   1.792  0.5746  0.2659  0.7415
  557MOL0     O75118   2.440   2.899   1.708 -0.3586  0.5013 -0.2247
  557MOL0     C75119   2.488   2.841   1.590  0.7297  0.0018  0.1759
  557MOL0     C75120   2.422   2.711   1.564 -0.5888 -0.1282  0.5624
  557MOL0     C75121   2.447   2.613   1.676 -0.2439 -0.3120 -0.1348
  557MOL0     C75122   2.362   2.485   1.656 -0.0659  1.4064  0.7848
  557MOL0     C75123   2.364   2.392   1.771 -0.1236  0.6468  0.6207
  557MOL0     C75124   2.362   2.316   1.870 -0.6993 -0.5900 -0.0392
  557MOL0     C75125   2.639   3.034   1.746 -0.2679  0.7053 -0.5571
  557MOL0     C75126   2.726   3.110   1.827  0.4689  0.3781  0.1361
  557MOL0     C75127   2.862   3.146   1.778 -0.2285 -0.6997 -0.1590
  557MOL0     H75128   2.819   3.100   2.350  0.0487 -0.3494  0.3018
  557MOL0     H75129   2.975   3.181   2.500  0.7329 -0.6282 -0.0408
  557MOL0     H75130   3.024   3.286   2.687  0.8730 -2.5393 -0.0551
  557MOL0     H75131   3.153   3.341   2.584 -1.0009 -5.4013  1.8459
  557MOL0     H75132   3.066   3.457   2.847 -1.8473 -0.0799 -2.9572
  557MOL0     H75133   3.197   3.545   2.772 -0.6344  0.6737 -0.9813
  557MOL0     H75134   3.263   3.413   2.943  3.1142 -3.2388  1.0784
  557MOL0     H75135   3.362   3.398   2.815  1.4108  3.3181  2.1132
  557MOL0     H75136   3.144   3.198   2.923  0.8463  0.8650  0.1270
  557MOL0     H75137   3.226   3.163   2.767 -1.0210  0.2013 -0.0229
  557MOL0     H75138   3.448   3.165   2.888 -1.9784 -1.2671 -2.4429
  557MOL0     H75139   3.360   3.194   3.042 -0.4925 -0.4670  0.3665
  557MOL0     H75140   3.225   2.998   3.017  0.7075  2.2497 -0.4980
  557MOL0     H75141   3.334   2.930   2.893 -2.7898  0.1125 -1.3378
  557MOL0     H75142   3.427   3.009   3.168  0.4002 -1.1776  0.6887
  557MOL0     H75143   3.536   2.967   3.037 -1.6510  3.2397 -2.0004
  557MOL0     H75144   3.304   2.804   3.181  1.3176 -3.7224  2.4768
  557MOL0     H75145   3.375   2.749   3.033  0.0903 -0.1626 -0.9494
  557MOL0     H75146   3.398   2.743   3.399 -0.6373 -0.7613 -1.2762
  557MOL0     H75147   3.695   2.759   3.558  2.0482  0.0421 -2.0727
  557MOL0     H75148   3.608   2.601   3.586  2.7334 -1.5019  0.6929
  557MOL0     H75149   3.792   2.511   3.438  1.0017  0.3768 -1.9871
  557MOL0     H75150   3.882   2.659   3.465  1.0032 -0.1211  2.2543
  557MOL0     H75151   3.788   2.486   3.706  0.9979 -1.8673  1.4596
  557MOL0     H75152   3.880   2.629   3.707  0.9641 -0.3884 -0.2642
  557MOL0     H75153   4.041   2.488   3.527 -1.7433  0.3879  0.0577
  557MOL0     H75154   3.950   2.347   3.591 -1.0392 -0.3856 -0.7712
  557MOL0     H75155   4.250   2.493   3.892  2.2041  3.8901 -1.0393
  557MOL0     H75156   4.484   2.431   3.882 -1.5521  0.4654  0.7323
  557MOL0     H75157   4.917   2.347   3.539 -2.7954 -2.5166 -0.0967
  557MOL0     H75158   5.135   2.264   3.590  0.5412  1.9613 -0.8902
  557MOL0     H75159   5.224   2.204   4.042 -2.5267 -1.3548  1.1903
  557MOL0     H75160   5.158   2.057   3.994  2.9008 -2.1216  0.9610
  557MOL0     H75161   5.392   1.979   3.909 -0.2479  0.9622 -2.3057
  557MOL0     H75162   5.453   2.143   3.924 -1.5367  2.4822 -0.7185
  557MOL0     H75163   5.462   2.143   4.150 -0.4771  0.8472 -0.4269
  557MOL0     H75164   5.341   2.014   4.180  0.9380 -2.2087 -0.8845
  557MOL0     H75165   5.620   1.962   4.075  0.6371 -0.0981 -1.2823
  557MOL0     H75166   5.487   1.845   4.089  0.1535  0.2453 -1.6159
  557MOL0     H75167   5.605   1.822   4.282 -2.0437  0.0609  2.0585
  557MOL0     H75168   5.507   1.945   4.356  1.3697  0.7667  1.4264
  557MOL0     H75169   5.762   2.010   4.222  2.4072  2.4405  2.5403
  557MOL0     H75170   5.659   2.112   4.321  5.3448  2.6009 -1.9321
  557MOL0     H75171   5.707   1.931   4.508  0.7312  2.6037  2.4001
  557MOL0     H75172   5.828   2.051   4.456  0.8663 -1.1174  3.7031
  557MOL0     H75173   5.828   1.761   4.366  3.2828 -2.0530 -2.9136
  557MOL0     H75174   5.916   1.896   4.293 -1.6722  0.2081 -0.9753
  557MOL0     H75175   5.018   2.220   4.012  0.6045  0.9311 -0.2509
  557MOL0     H75176   4.802   2.311   3.954  0.7485  3.5242 -1.0114
  557MOL0     H75177   4.406   2.237   3.496 -1.6895 -1.4259 -0.7362
  557MOL0     H75178   4.179   2.342   3.501  0.6083  3.5104 -0.7350
  557MOL0     H75179   2.832   3.590   2.398 -1.0908  0.2892  2.5149
  557MOL0     H75180   2.703   3.491   2.222  1.0829  1.6012  0.3493
  557MOL0     H75181   2.518   3.137   2.086  0.2277  2.1492 -1.0499
  557MOL0     H75182   2.395   2.958   1.967  0.4397 -3.5766 -0.6964
  557MOL0     H75183   2.594   2.818   1.596  0.9340  0.9326  0.2561
  557MOL0     H75184   2.479   2.915   1.510  1.6865 -0.2424 -0.1654
  557MOL0     H75185   2.480   2.674   1.479  0.7368  2.9414 -0.0037
  557MOL0     H75186   2.320   2.724   1.527 -0.5139  2.2172  1.0423
  557MOL0     H75187   2.423   2.657   1.773 -0.3636  0.1099 -0.3576
  557MOL0     H75188   2.548   2.571   1.678 -0.0832  0.0579  1.6013
  557MOL0     H75189   2.262   2.513   1.623  0.1185  1.3150  0.1450
  557MOL0     H75190   2.406   2.431   1.572  2.3606  3.1313  0.8056
  557MOL0     H75191   2.368   2.250   1.954 -0.5922  1.9313  2.0424
  557MOL0     H75192   2.658   3.018   1.640 -0.5629  1.6630 -0.7662
  557MOL0     H75193   2.859   3.248   1.738 -0.3667 -0.1021  1.3099
  557MOL0     H75194   2.938   3.132   1.856 -0.1214  1.6759  0.2279
  557MOL0     H75195   2.888   3.086   1.691  0.0660  0.9802 -1.2725
  558MOL0     O75196   9.516   2.277   5.337  0.3108  0.7025 -0.6116
  558MOL0     C75197   9.465   2.361   5.267 -0.6405  0.4654 -0.1979
  558MOL0     O75198   9.453   2.491   5.304 -0.6741  0.4573  0.0191
  558MOL0     C75199   9.491   2.539   5.423 -0.1698  0.0174 -0.4892
  558MOL0     C75200   9.409   2.643   5.474  0.4036 -0.5349 -0.4775
  558MOL0     C75201   9.435   2.712   5.598  0.7008 -0.8496 -0.3757
  558MOL0     C75202   9.543   2.678   5.674 -0.6172  0.2652 -0.0236
  558MOL0     O75203   9.556   2.752   5.788 -0.0350  0.6210  0.9188
  558MOL0     C75204   9.680   2.750   5.844 -0.2773 -0.4049  1.1034
  558MOL0     C75205   9.799   2.804   5.772 -0.7856 -0.3299  0.6102
  558MOL0     C75206   9.941   2.742   5.817  0.1945  0.1042  0.3406
  558MOL0     C75207  10.060   2.843   5.795  0.4258 -0.1460 -0.0924
  558MOL0     C75208  10.056   2.909   5.659 -0.7842 -0.5655 -0.0502
  558MOL0     C75209  10.185   2.924   5.573 -0.5754  0.0274 -0.1713
  558MOL0     C75210  10.306   2.999   5.634  0.0629  0.9838 -0.7512
  558MOL0     C75211  10.262   3.138   5.689  0.3586 -0.0313 -0.1175
  558MOL0     N75212  10.366   3.241   5.691 -0.8773  0.2147 -0.2943
  558MOL0     C75213  10.472   3.222   5.772 -0.2929  0.3209 -0.4233
  558MOL0     C75214  10.558   3.318   5.732  0.0146 -0.0134  0.8991
  558MOL0     C75215  10.699   3.322   5.793 -0.6494 -0.4615 -0.2082
  558MOL0     C75216  10.798   3.367   5.695  0.3531  0.4975  0.5043
  558MOL0     C75217  10.935   3.356   5.775  0.3721  0.0643 -0.9260
  558MOL0     C75218  11.066   3.384   5.698 -0.4578 -0.2663 -0.3797
  558MOL0     O75219  11.064   3.513   5.638 -0.5202 -0.3941 -0.1372
  558MOL0     C75220  11.186   3.566   5.591 -0.5575 -0.1885 -0.4853
  558MOL0     C75221  11.176   3.661   5.492  0.5563  0.3553 -0.9966
  558MOL0     C75222  11.293   3.732   5.452 -0.9110 -0.3911 -0.2647
  558MOL0     C75223  11.421   3.702   5.515 -0.5150  0.1864 -0.2960
  558MOL0     C75224  11.548   3.781   5.478 -0.5399  0.4694  0.1869
  558MOL0     O75225  11.536   3.870   5.370  0.3272 -1.3089 -0.0747
  558MOL0     C75226  11.649   3.945   5.345 -0.3025 -2.0069 -0.7152
  558MOL0     C75227  11.636   4.080   5.385 -0.0446  1.1542 -0.1783
  558MOL0     C75228  11.743   4.159   5.361  0.0913 -0.6484  0.5345
  558MOL0     C75229  11.862   4.118   5.294  0.5632 -0.3166  0.2560
  558MOL0     O75230  11.963   4.205   5.273  0.1620 -0.4595 -0.0401
  558MOL0     C75231  12.008   4.282   5.390 -0.5170 -0.0212  0.6026
  558MOL0     C75232  12.147   4.351   5.366 -0.3493  0.0935 -1.0228
  558MOL0     C75233  12.261   4.249   5.375 -0.6020 -0.3465 -0.3668
  558MOL0     C75234  12.386   4.321   5.336 -0.3865 -0.1943  0.5690
  558MOL0     C75235  12.497   4.217   5.324  0.7491 -0.4757  0.8505
  558MOL0     C75236  12.634   4.282   5.355 -0.1566  0.4742  0.3606
  558MOL0     C75237  12.744   4.187   5.398  0.3017 -0.1269 -0.5713
  558MOL0     C75238  12.824   4.090   5.301  0.0668 -0.9020 -0.8403
  558MOL0    Cl75239  12.922   4.200   5.192 -0.1346  0.4135 -0.0375
  558MOL0     C75240  11.881   3.990   5.256  0.1329 -0.5010 -0.4560
  558MOL0     C75241  11.778   3.901   5.296  0.1778 -0.5304 -0.3501
  558MOL0     O75242  11.648   3.764   5.544  0.5873 -0.1738 -0.1139
  558MOL0     C75243  11.428   3.590   5.597  0.1778 -0.1373 -0.4471
  558MOL0     C75244  11.311   3.531   5.640  0.2502 -0.2352 -0.2559
  558MOL0     N75245  10.505   3.394   5.632 -0.7155 -0.1546  0.4792
  558MOL0     N75246  10.396   3.341   5.607  0.0964  0.6637 -0.2525
  558MOL0     C75247   9.626   2.572   5.628  0.0383 -0.3854  0.1087
  558MOL0     C75248   9.606   2.513   5.503 -0.1285 -0.1410 -0.3960
  558MOL0     C75249   9.416   2.335   5.128 -0.0364 -0.4011 -0.4865
  558MOL0     C75250   9.423   2.445   5.040 -0.1046  1.4784 -0.0011
  558MOL0     C75251   9.387   2.428   4.905  0.0630  0.5338  0.6422
  558MOL0     C75252   9.330   2.304   4.865 -0.6716 -0.1388  0.4374
  558MOL0     O75253   9.277   2.285   4.734 -0.4175 -0.7616 -0.6909
  558MOL0     C75254   9.296   2.390   4.641 -0.5111 -0.0216 -0.0198
  558MOL0     C75255   9.259   2.336   4.497 -0.2719  0.7228  0.3116
  558MOL0     C75256   9.104   2.329   4.474  0.3920 -0.3744  0.1141
  558MOL0     C75257   9.043   2.211   4.418 -0.2860 -0.1763  0.6251
  558MOL0     C75258   9.076   2.198   4.276 -0.2025  1.2632  0.3894
  558MOL0     C75259   9.117   2.167   4.168 -0.0875 -0.7050  0.6514
  558MOL0     C75260   9.316   2.195   4.953 -0.1924  0.0913 -0.0935
  558MOL0     C75261   9.372   2.208   5.082  0.3696 -0.1426 -0.3946
  558MOL0     C75262   9.357   2.083   5.172 -0.3052 -1.0648  0.7901
  558MOL0     H75263   9.332   2.689   5.414  1.5470 -1.6014 -2.8746
  558MOL0     H75264   9.362   2.788   5.624 -0.5722 -2.0389 -0.3768
  558MOL0     H75265   9.681   2.793   5.945 -2.6344 -1.6905  1.7499
  558MOL0     H75266   9.714   2.648   5.867  3.9552  0.7210  0.8022
  558MOL0     H75267   9.790   2.911   5.793 -1.3529 -0.4557  1.0294
  558MOL0     H75268   9.794   2.790   5.663  1.4627 -1.7163  0.6053
  558MOL0     H75269   9.971   2.651   5.763 -1.7178 -0.2154 -0.2366
  558MOL0     H75270   9.922   2.719   5.923 -1.2477 -0.3244  0.0105
  558MOL0     H75271  10.047   2.915   5.876  0.4121 -0.7133  0.4175
  558MOL0     H75272  10.154   2.793   5.818 -0.6258 -2.2665 -0.1053
  558MOL0     H75273   9.984   2.856   5.596 -3.3430 -0.8491  2.8707
  558MOL0     H75274  10.021   3.009   5.688  0.0738 -0.9358  2.5206
  558MOL0     H75275  10.227   2.824   5.553  0.3224  0.1770  0.8605
  558MOL0     H75276  10.158   2.964   5.475 -0.0615 -0.4212 -0.5027
  558MOL0     H75277  10.384   2.999   5.558 -0.6414  1.6307 -1.5059
  558MOL0     H75278  10.347   2.935   5.712  1.2840 -0.4681 -2.5153
  558MOL0     H75279  10.179   3.178   5.630  1.1645  3.2149  0.7475
  558MOL0     H75280  10.229   3.135   5.793  0.2389 -1.4931 -0.1787
  558MOL0     H75281  10.487   3.153   5.854 -0.3414  1.9239  0.9903
  558MOL0     H75282  10.691   3.389   5.878 -2.6053  1.4162 -1.7532
  558MOL0     H75283  10.728   3.219   5.815 -4.0493 -1.9962 -2.0800
  558MOL0     H75284  10.794   3.300   5.609 -0.5645 -0.9472  1.6383
  558MOL0     H75285  10.780   3.469   5.658 -1.5669 -0.7523 -2.3966
  558MOL0     H75286  10.941   3.252   5.808  1.3429  0.1823 -0.7246
  558MOL0     H75287  10.930   3.421   5.862 -1.2122  1.0129 -1.6716
  558MOL0     H75288  11.070   3.310   5.617 -2.2750 -1.3946  0.4934
  558MOL0     H75289  11.139   3.374   5.778 -1.3209  1.7181  0.7200
  558MOL0     H75290  11.087   3.693   5.439 -0.6973 -2.3286 -0.6849
  558MOL0     H75291  11.281   3.812   5.381 -3.5475 -1.0588 -0.6755
  558MOL0     H75292  11.544   4.112   5.433  0.4587 -2.1648  3.4647
  558MOL0     H75293  11.732   4.264   5.384 -3.4169 -0.6604 -0.5462
  558MOL0     H75294  11.941   4.365   5.413  1.6729  2.3033 -0.9830
  558MOL0     H75295  12.009   4.214   5.476 -4.5082 -0.1792  0.7220
  558MOL0     H75296  12.153   4.411   5.275 -0.3171  0.2200 -0.9380
  558MOL0     H75297  12.157   4.424   5.448  0.4029  0.1804 -1.1884
  558MOL0     H75298  12.290   4.209   5.473 -0.3458  2.1068  0.6264
  558MOL0     H75299  12.251   4.157   5.316  2.6070 -0.8385 -0.3623
  558MOL0     H75300  12.416   4.380   5.424 -1.0111  1.2165 -0.1291
  558MOL0     H75301  12.367   4.374   5.242  2.2541 -0.0451  0.0476
  558MOL0     H75302  12.500   4.175   5.223  1.9077 -0.4900  0.8754
  558MOL0     H75303  12.486   4.135   5.396 -0.0713  0.9512  2.4136
  558MOL0     H75304  12.666   4.329   5.262  0.5821 -0.9402 -0.1359
  558MOL0     H75305  12.616   4.356   5.434  0.7069 -1.5977  2.6513
  558MOL0     H75306  12.705   4.117   5.473 -0.2574  0.0800 -0.6690
  558MOL0     H75307  12.827   4.238   5.450  2.8196 -0.1026 -4.2405
  558MOL0     H75308  12.895   4.027   5.355  0.3768  0.1128 -0.0375
  558MOL0     H75309  12.759   4.026   5.240 -0.8109  0.1286 -1.0248
  558MOL0     H75310  11.969   3.947   5.209  2.3072  2.4859  0.6103
  558MOL0     H75311  11.783   3.794   5.280 -2.1809 -0.7636  0.1438
  558MOL0     H75312  11.524   3.561   5.640 -0.1609  0.8670  1.0729
  558MOL0     H75313  11.311   3.455   5.718 -0.7162 -1.6619 -1.5849
  558MOL0     H75314   9.713   2.532   5.679 -1.7334 -1.7470  2.2306
  558MOL0     H75315   9.678   2.441   5.467  1.5741 -2.0636  5.6445
  558MOL0     H75316   9.456   2.544   5.070  0.8221  1.7009 -1.6542
  558MOL0     H75317   9.404   2.517   4.846 -1.0914  0.4992  0.2346
  558MOL0     H75318   9.404   2.406   4.638 -0.4075 -0.7638 -1.0631
  558MOL0     H75319   9.237   2.482   4.654 -0.8137 -0.3489  0.9521
  558MOL0     H75320   9.299   2.235   4.481  0.9987  1.4170 -1.2322
  558MOL0     H75321   9.306   2.393   4.416  2.5598 -0.9611  0.6477
  558MOL0     H75322   9.090   2.408   4.399 -2.0785  0.5783  1.4843
  558MOL0     H75323   9.057   2.368   4.565  2.6872 -0.2046  1.3255
  558MOL0     H75324   9.065   2.123   4.479 -0.4659  0.8076  2.1713
  558MOL0     H75325   8.935   2.228   4.424  0.0741  4.1603 -1.2551
  558MOL0     H75326   9.161   2.130   4.078  0.5761 -0.5812  0.9240
  558MOL0     H75327   9.265   2.104   4.922 -3.3334  2.0566 -1.1054
  558MOL0     H75328   9.451   2.050   5.217 -0.2079  1.4468  2.6785
  558MOL0     H75329   9.294   2.104   5.259  0.6103 -0.7817  1.3995
  558MOL0     H75330   9.313   2.004   5.111 -0.5473 -0.0426 -0.4145
  559MOL0     O75331   3.745   9.530   5.904 -0.2336  0.2276 -0.1037
  559MOL0     C75332   3.748   9.412   5.861  0.8142 -0.4824  0.0958
  559MOL0     O75333   3.772   9.369   5.727 -0.1948  0.0393 -0.1772
  559MOL0     C75334   3.845   9.458   5.655  0.3803 -0.6146  0.0338
  559MOL0     C75335   3.784   9.565   5.581 -0.1332  1.3645  0.2277
  559MOL0     C75336   3.864   9.649   5.505  0.4067  0.5891  0.3054
  559MOL0     C75337   4.002   9.629   5.502  0.0519  0.4520 -0.1525
  559MOL0     O75338   4.091   9.694   5.421  0.5602  0.1098  0.1642
  559MOL0     C75339   4.041   9.812   5.345  0.4064 -0.1868  0.1073
  559MOL0     C75340   4.145   9.861   5.243  0.3751 -0.2332  0.5033
  559MOL0     C75341   4.080   9.948   5.125 -0.0092  0.5712  0.3260
  559MOL0     C75342   4.194   9.980   5.036  0.1769 -0.2812  0.0522
  559MOL0     C75343   4.270  10.110   5.069 -0.5971  0.3274  0.7328
  559MOL0     C75344   4.375  10.130   4.958  0.2018 -0.1210 -0.4564
  559MOL0     C75345   4.476  10.239   4.970  0.7747 -0.2098  0.8419
  559MOL0     C75346   4.558  10.254   4.836  0.1567 -0.4237 -1.2396
  559MOL0     N75347   4.591  10.390   4.795  0.0171 -0.6114 -0.3434
  559MOL0     C75348   4.707  10.459   4.797 -1.1314 -0.0464 -0.3945
  559MOL0     C75349   4.701  10.549   4.698 -0.1165 -0.1329  0.3982
  559MOL0     C75350   4.802  10.656   4.676 -0.6600  0.2045 -0.4446
  559MOL0     C75351   4.742  10.797   4.635 -0.2627 -0.1107  0.3024
  559MOL0     C75352   4.666  10.841   4.757 -0.6385  0.0566  0.4960
  559MOL0     C75353   4.614  10.973   4.728  0.5739 -0.7475 -0.1529
  559MOL0     O75354   4.712  11.071   4.737  0.5894 -0.3147 -0.4896
  559MOL0     C75355   4.763  11.098   4.863  0.7883 -0.0973  0.5621
  559MOL0     C75356   4.686  11.128   4.965 -0.7416  0.2867 -0.7089
  559MOL0     C75357   4.734  11.173   5.094 -0.5762 -0.6625 -0.0299
  559MOL0     C75358   4.870  11.177   5.124 -0.1663  1.2629 -1.1900
  559MOL0     C75359   4.920  11.233   5.245 -0.1376  0.3686  0.4009
  559MOL0     O75360   5.055  11.222   5.261  0.5068  0.4875 -0.8965
  559MOL0     C75361   5.109  11.307   5.352  0.1589 -0.7888  0.6555
  559MOL0     C75362   5.056  11.349   5.480 -0.2466  0.5363 -0.0717
  559MOL0     C75363   5.138  11.435   5.551  0.0754  0.9912 -0.3043
  559MOL0     C75364   5.252  11.497   5.511 -0.1586  0.3258  0.4239
  559MOL0     O75365   5.305  11.605   5.583 -0.6789 -0.0074 -0.2778
  559MOL0     C75366   5.445  11.624   5.581  0.4501  0.4563  0.6837
  559MOL0     C75367   5.466  11.716   5.702  0.3334  0.0587  0.0266
  559MOL0     C75368   5.447  11.630   5.829  0.0906  0.4960  0.0329
  559MOL0     C75369   5.452  11.710   5.954  0.8639  0.5563  0.3729
  559MOL0     C75370   5.425  11.615   6.076 -0.8175 -0.4959 -0.3047
  559MOL0     C75371   5.429  11.702   6.203 -0.1396 -0.1314 -0.0709
  559MOL0     C75372   5.362  11.631   6.317 -0.1709 -0.2323 -0.8111
  559MOL0     C75373   5.340  11.732   6.425 -0.4308 -0.2491 -0.6832
  559MOL0    Cl75374   5.303  11.634   6.579  0.3934 -0.3387  0.0963
  559MOL0     C75375   5.294  11.457   5.387  0.1536  0.0135  0.6227
  559MOL0     C75376   5.225  11.360   5.306  0.0024 -0.8785  0.1379
  559MOL0     O75377   4.838  11.306   5.299 -0.3138 -0.0182 -0.7249
  559MOL0     C75378   4.950  11.133   5.022 -0.1709 -0.3329  0.1637
  559MOL0     C75379   4.902  11.103   4.892  0.8638 -0.6032  0.7102
  559MOL0     N75380   4.569  10.545   4.644 -0.1410 -0.6057 -0.6686
  559MOL0     N75381   4.508  10.447   4.699  0.1603  0.6970  0.4889
  559MOL0     C75382   4.056   9.535   5.579 -0.1579  0.7082  0.4846
  559MOL0     C75383   3.982   9.456   5.652 -0.0973  0.3634  0.0587
  559MOL0     C75384   3.729   9.296   5.954  0.1645  0.0249  0.7797
  559MOL0     C75385   3.681   9.172   5.900  0.8063  0.1108 -0.1102
  559MOL0     C75386   3.639   9.075   5.988 -0.3649 -0.2251  0.0609
  559MOL0     C75387   3.649   9.077   6.125  0.7481  0.6317 -0.1481
  559MOL0     O75388   3.604   8.974   6.197 -0.2275  0.6417 -0.3847
  559MOL0     C75389   3.667   8.949   6.326 -0.3890  0.8395  0.0304
  559MOL0     C75390   3.675   8.796   6.365 -0.1253 -0.1068 -1.2929
  559MOL0     C75391   3.778   8.782   6.477  0.7084 -0.0738  0.5516
  559MOL0     C75392   3.814   8.641   6.528 -0.4942 -0.2418 -0.0061
  559MOL0     C75393   3.704   8.550   6.568  0.6934 -0.2576 -0.0275
  559MOL0     C75394   3.610   8.481   6.600  0.1907  0.6540  0.3848
  559MOL0     C75395   3.705   9.196   6.176  0.0449  0.1403 -0.0161
  559MOL0     C75396   3.740   9.311   6.096  0.2705  0.4452 -1.0886
  559MOL0     C75397   3.789   9.435   6.173  0.3145 -0.4231 -0.0549
  559MOL0     H75398   3.679   9.592   5.590 -0.9146 -1.6046  1.0810
  559MOL0     H75399   3.804   9.721   5.450  3.8396  2.9666 -0.6789
  559MOL0     H75400   3.945   9.793   5.295 -0.8206  0.6105  2.0566
  559MOL0     H75401   4.011   9.892   5.413  2.2214  0.9693 -0.3981
  559MOL0     H75402   4.197   9.774   5.203 -1.7756 -0.4168 -2.2094
  559MOL0     H75403   4.215   9.928   5.293  1.2756 -0.0170 -0.9745
  559MOL0     H75404   4.018  10.030   5.163 -1.2839  1.4858 -3.3217
  559MOL0     H75405   4.016   9.874   5.076  1.3415 -3.3941  3.9159
  559MOL0     H75406   4.264   9.896   5.040  1.1828  0.5433  3.7587
  559MOL0     H75407   4.147   9.987   4.938 -0.8102  0.3289  0.5555
  559MOL0     H75408   4.201  10.194   5.077 -1.5519 -0.4967  1.3687
  559MOL0     H75409   4.328  10.098   5.161  0.5202 -0.4929 -0.0485
  559MOL0     H75410   4.422  10.035   4.931  3.6631  1.4750 -0.6769
  559MOL0     H75411   4.308  10.144   4.874 -2.1362 -1.9476  0.9872
  559MOL0     H75412   4.538  10.215   5.057  0.1199  0.3625  1.4750
  559MOL0     H75413   4.428  10.335   4.991  0.2109 -0.0778 -0.9101
  559MOL0     H75414   4.651  10.197   4.836 -0.8133 -2.3346  2.1857
  559MOL0     H75415   4.495  10.217   4.755 -2.0661  0.2885  0.0695
  559MOL0     H75416   4.789  10.444   4.866 -0.8653  3.4015  0.1973
  559MOL0     H75417   4.861  10.670   4.767 -3.1423  0.2822  1.2422
  559MOL0     H75418   4.869  10.622   4.597 -1.5898  0.3038 -1.2977
  559MOL0     H75419   4.819  10.867   4.602  0.0089 -0.7305 -0.4146
  559MOL0     H75420   4.679  10.776   4.547  1.7867 -3.9038 -0.4751
  559MOL0     H75421   4.735  10.837   4.842  3.3174  1.9983 -2.3114
  559MOL0     H75422   4.588  10.766   4.772  1.7875 -2.6069  0.7721
  559MOL0     H75423   4.532  11.003   4.793 -2.6038 -3.4130 -2.5944
  559MOL0     H75424   4.575  10.967   4.626  0.5178  0.4406 -0.2182
  559MOL0     H75425   4.579  11.143   4.948 -1.0124 -2.7297 -2.4222
  559MOL0     H75426   4.666  11.214   5.168  2.4295  0.9609  2.0164
  559MOL0     H75427   4.968  11.319   5.536 -0.4035  0.5908 -0.2872
  559MOL0     H75428   5.111  11.443   5.656  0.5983  0.0018 -0.0836
  559MOL0     H75429   5.495  11.526   5.582  0.0479 -0.0002 -3.8194
  559MOL0     H75430   5.476  11.674   5.489 -1.5697  0.3250 -0.1130
  559MOL0     H75431   5.568  11.754   5.694  1.1919 -2.0598  0.2916
  559MOL0     H75432   5.395  11.800   5.704  0.6451  0.3116  1.5048
  559MOL0     H75433   5.351  11.580   5.816  0.3059  0.0921 -0.0433
  559MOL0     H75434   5.520  11.549   5.822 -0.8964 -0.3234 -1.1618
  559MOL0     H75435   5.377  11.788   5.948  0.9036  0.8772  2.8445
  559MOL0     H75436   5.553  11.753   5.962  0.9109  0.5765 -0.3471
  559MOL0     H75437   5.501  11.537   6.087 -0.2887  0.2968  2.7059
  559MOL0     H75438   5.330  11.561   6.080  0.8845 -3.6672  1.1278
  559MOL0     H75439   5.533  11.732   6.218 -0.0911 -0.8815  1.3510
  559MOL0     H75440   5.378  11.798   6.195  0.4675  0.4415  2.0849
  559MOL0     H75441   5.425  11.549   6.353 -2.1419 -1.1317  0.7882
  559MOL0     H75442   5.266  11.580   6.301  0.6271 -1.3267 -2.4444
  559MOL0     H75443   5.429  11.793   6.440  0.9401 -1.8424 -1.9933
  559MOL0     H75444   5.248  11.786   6.400  0.1593  1.4237  0.5602
  559MOL0     H75445   5.383  11.507   5.348 -0.3075 -0.5755 -1.3100
  559MOL0     H75446   5.249  11.335   5.203  1.4522  2.1455 -0.3665
  559MOL0     H75447   5.057  11.124   5.034 -0.1543 -1.5709 -0.6058
  559MOL0     H75448   4.977  11.093   4.814 -0.7495 -0.4843 -0.9382
  559MOL0     H75449   4.164   9.530   5.578 -0.1737 -0.4260 -2.3155
  559MOL0     H75450   4.025   9.378   5.713 -4.2819 -2.0917  0.2659
  559MOL0     H75451   3.671   9.160   5.793  3.4116  1.8039 -0.6231
  559MOL0     H75452   3.591   8.986   5.949  1.7980 -1.6815  0.5555
  559MOL0     H75453   3.601   8.987   6.405 -1.9116  1.0008 -1.2822
  559MOL0     H75454   3.766   8.996   6.324  1.2047 -2.3486 -1.2025
  559MOL0     H75455   3.707   8.735   6.281 -2.4568  0.2190 -2.5116
  559MOL0     H75456   3.577   8.764   6.401  0.1053 -1.5967 -1.9409
  559MOL0     H75457   3.738   8.832   6.565 -0.7575 -3.7376  2.2030
  559MOL0     H75458   3.869   8.827   6.436  0.2111  1.8986  1.4955
  559MOL0     H75459   3.872   8.588   6.452 -2.1091 -2.0185 -0.0931
  559MOL0     H75460   3.887   8.652   6.608  1.3645 -1.8505 -1.3882
  559MOL0     H75461   3.532   8.408   6.604 -1.1357  1.5129 -4.1081
  559MOL0     H75462   3.719   9.201   6.284  2.4846 -3.0675 -0.0401
  559MOL0     H75463   3.877   9.467   6.117 -0.5651  0.2751 -1.1009
  559MOL0     H75464   3.723   9.522   6.161 -1.0192 -1.1594  1.5196
  559MOL0     H75465   3.818   9.424   6.277  3.9150  0.9392 -0.7654
  560MOL0     O75466   7.806   0.580   9.302  0.9379 -0.1622 -0.1684
  560MOL0     C75467   7.833   0.696   9.337 -0.4333 -0.5590  0.9110
  560MOL0     O75468   7.891   0.733   9.452 -0.0458 -0.1012 -0.0193
  560MOL0     C75469   7.945   0.638   9.537 -0.4710  0.1271  0.4250
  560MOL0     C75470   8.082   0.645   9.535  0.3710 -0.8624 -0.1861
  560MOL0     C75471   8.152   0.561   9.617 -0.8426 -0.1488  0.1701
  560MOL0     C75472   8.089   0.485   9.719  0.2728 -0.2866  0.7096
  560MOL0     O75473   8.164   0.404   9.799  0.0242  0.1277  0.7678
  560MOL0     C75474   8.136   0.397   9.942  0.4859 -0.6928  0.0672
  560MOL0     C75475   8.238   0.483  10.011  0.0669 -0.2133 -0.7238
  560MOL0     C75476   8.384   0.425  10.028 -0.3091  0.5517 -0.0581
  560MOL0     C75477   8.471   0.494  10.132 -0.0722 -0.1528  0.2016
  560MOL0     C75478   8.418   0.486  10.277 -0.2344 -0.2680  0.1425
  560MOL0     C75479   8.525   0.555  10.363  0.3448 -0.4485  0.7249
  560MOL0     C75480   8.527   0.711  10.327 -0.4895  0.1592 -0.8152
  560MOL0     C75481   8.389   0.789  10.355  0.0453  0.6498 -0.2166
  560MOL0     N75482   8.396   0.927  10.317  1.0196  0.5767 -0.3304
  560MOL0     C75483   8.499   1.014  10.319  0.3203  0.1290  0.6651
  560MOL0     C75484   8.444   1.122  10.260 -0.2871  0.3125 -0.7252
  560MOL0     C75485   8.532   1.248  10.224  0.0716  0.0006 -0.4823
  560MOL0     C75486   8.573   1.250  10.076 -0.1249  0.4496  0.3266
  560MOL0     C75487   8.679   1.356  10.045 -0.8022 -0.7413 -0.5047
  560MOL0     C75488   8.720   1.365   9.897 -0.9732 -0.3501 -0.0973
  560MOL0     O75489   8.774   1.240   9.862 -0.4267 -0.3102 -1.1994
  560MOL0     C75490   8.807   1.219   9.729  0.4520  0.5498  0.1465
  560MOL0     C75491   8.932   1.182   9.695 -0.1065 -0.7717  0.1639
  560MOL0     C75492   8.958   1.139   9.572 -0.1836  0.4634 -0.8876
  560MOL0     C75493   8.855   1.139   9.471  0.8574  1.2620  0.0912
  560MOL0     C75494   8.885   1.087   9.327  0.4985  0.0035 -0.2647
  560MOL0     O75495   9.012   1.038   9.315  0.0243 -0.8186 -0.4523
  560MOL0     C75496   9.057   0.985   9.202  0.2370  0.4229  0.5866
  560MOL0     C75497   9.031   1.033   9.072  0.3408 -0.4642 -0.3342
  560MOL0     C75498   9.088   0.974   8.959 -0.1662  0.6980  0.2744
  560MOL0     C75499   9.161   0.856   8.973  0.5071  0.1778 -0.4135
  560MOL0     O75500   9.218   0.777   8.871 -0.8198 -0.2334  0.4755
  560MOL0     C75501   9.209   0.838   8.741 -0.5708  0.1032  0.0944
  560MOL0     C75502   9.273   0.752   8.639  0.0932  0.3391  0.3507
  560MOL0     C75503   9.274   0.810   8.497 -0.4624 -0.3389 -0.2173
  560MOL0     C75504   9.376   0.724   8.425  0.2561  0.4309  0.5746
  560MOL0     C75505   9.423   0.803   8.303  0.6406 -0.3762 -0.8768
  560MOL0     C75506   9.513   0.722   8.204 -0.4646  0.5343  0.5286
  560MOL0     C75507   9.633   0.665   8.282 -0.2891  0.0143 -0.2410
  560MOL0     C75508   9.763   0.648   8.186  0.1661  0.1864 -0.2307
  560MOL0    Cl75509   9.894   0.579   8.284 -0.6895  0.0671 -0.1179
  560MOL0     C75510   9.190   0.808   9.098  0.9785  1.8597  0.4079
  560MOL0     C75511   9.144   0.871   9.215  0.8631 -0.9382  0.9021
  560MOL0     O75512   8.795   1.080   9.242  0.1642 -0.7558 -0.2524
  560MOL0     C75513   8.727   1.199   9.500  0.2239  0.4467  0.7548
  560MOL0     C75514   8.707   1.234   9.633 -0.1206 -0.4279 -0.4579
  560MOL0     N75515   8.310   1.114  10.222  0.5303  0.7897  0.3657
  560MOL0     N75516   8.285   0.988  10.262 -0.2376 -0.5537 -1.1545
  560MOL0     C75517   7.950   0.473   9.714 -0.5395  1.2299 -0.2042
  560MOL0     C75518   7.880   0.545   9.618  0.2602  0.6271 -0.7206
  560MOL0     C75519   7.829   0.797   9.225  0.4362  1.3658  0.1384
  560MOL0     C75520   7.923   0.903   9.242 -0.2267 -0.0599  0.1733
  560MOL0     C75521   7.920   1.010   9.156 -0.1550 -1.3881  0.2219
  560MOL0     C75522   7.816   1.019   9.062 -0.7059 -0.4927 -0.5476
  560MOL0     O75523   7.822   1.124   8.971 -0.3875 -0.8026  0.1604
  560MOL0     C75524   7.735   1.242   8.996  0.5411 -0.1526 -0.4003
  560MOL0     C75525   7.791   1.358   8.920  0.7327 -0.2187  1.1733
  560MOL0     C75526   7.698   1.476   8.958 -0.0803 -0.4645 -0.0124
  560MOL0     C75527   7.719   1.598   8.869  1.1120 -0.5566  0.3442
  560MOL0     C75528   7.618   1.611   8.760 -0.0944 -1.3700  0.0301
  560MOL0     C75529   7.548   1.615   8.664 -1.1037  1.2995  0.1847
  560MOL0     C75530   7.722   0.918   9.048  0.4307  0.7466 -0.6270
  560MOL0     C75531   7.729   0.795   9.123  1.0484 -0.1001  0.1660
  560MOL0     C75532   7.625   0.690   9.107 -0.0828 -0.0281 -0.3833
  560MOL0     H75533   8.147   0.706   9.474 -0.9543  0.3392 -0.4412
  560MOL0     H75534   8.259   0.561   9.605 -0.9718  2.0154 -1.6992
  560MOL0     H75535   8.040   0.437   9.975  1.0861  1.7623 -0.9675
  560MOL0     H75536   8.145   0.290   9.965  1.4230 -1.2767 -2.6631
  560MOL0     H75537   8.201   0.481  10.114 -0.6280 -0.3429 -0.9728
  560MOL0     H75538   8.242   0.580   9.963 -0.2031 -0.7115 -1.7738
  560MOL0     H75539   8.447   0.415   9.940  1.4986 -0.2912  1.2762
  560MOL0     H75540   8.373   0.322  10.062 -0.8406  0.1665 -1.3502
  560MOL0     H75541   8.565   0.439  10.128  1.8325  2.9290 -0.8694
  560MOL0     H75542   8.482   0.597  10.099  5.8883  0.2651  2.2523
  560MOL0     H75543   8.324   0.540  10.290 -0.9857 -1.0228 -1.7487
  560MOL0     H75544   8.413   0.382  10.309  2.8843  0.4648  3.6356
  560MOL0     H75545   8.509   0.534  10.469 -1.6821  0.5103  0.6448
  560MOL0     H75546   8.621   0.507  10.340  0.7169  1.5828 -2.4594
  560MOL0     H75547   8.569   0.725  10.226  1.1984  2.7104  0.1362
  560MOL0     H75548   8.598   0.764  10.392 -0.7610  0.1816 -0.5378
  560MOL0     H75549   8.302   0.750  10.301 -2.5829  1.2987  3.1979
  560MOL0     H75550   8.351   0.773  10.456 -0.8801  0.4002 -0.5976
  560MOL0     H75551   8.602   0.999  10.351 -0.1832  0.5921  2.6731
  560MOL0     H75552   8.474   1.340  10.234  0.3942  0.4278 -2.2735
  560MOL0     H75553   8.612   1.258  10.297 -1.5318 -1.9231  1.7113
  560MOL0     H75554   8.622   1.154  10.057 -0.5865  0.5905 -1.7875
  560MOL0     H75555   8.482   1.273  10.022  0.2656  4.4066  1.0296
  560MOL0     H75556   8.773   1.347  10.101 -0.3463  2.1898 -0.6017
  560MOL0     H75557   8.643   1.455  10.074  5.0307  2.1648 -1.5175
  560MOL0     H75558   8.798   1.441   9.882  1.7923 -3.3091 -2.1976
  560MOL0     H75559   8.629   1.388   9.841 -0.0629  2.9038 -0.4846
  560MOL0     H75560   9.016   1.182   9.764  0.4752  2.5796 -0.3697
  560MOL0     H75561   9.058   1.097   9.562  0.8938  2.1105  1.7082
  560MOL0     H75562   8.967   1.119   9.051  0.4706 -0.0941  0.7276
  560MOL0     H75563   9.056   1.026   8.869 -0.1212  1.9521  0.9709
  560MOL0     H75564   9.106   0.855   8.708  0.0985  1.2040 -1.5294
  560MOL0     H75565   9.258   0.936   8.750 -1.2294  0.3632  0.9646
  560MOL0     H75566   9.375   0.739   8.676 -0.4284 -1.4873  1.2749
  560MOL0     H75567   9.221   0.656   8.646 -1.3038  1.1408  1.5672
  560MOL0     H75568   9.167   0.812   8.471 -1.5872  0.0027  3.7348
  560MOL0     H75569   9.309   0.913   8.499 -1.4454 -0.0006  1.2302
  560MOL0     H75570   9.334   0.629   8.392  0.2708  0.4642  0.4553
  560MOL0     H75571   9.460   0.707   8.493  0.3903 -0.7210  0.1443
  560MOL0     H75572   9.469   0.896   8.338 -1.7156  0.6285 -0.2261
  560MOL0     H75573   9.343   0.828   8.233 -0.3064 -0.9442 -0.0281
  560MOL0     H75574   9.447   0.642   8.170 -1.9313  1.6480  0.6410
  560MOL0     H75575   9.537   0.791   8.122 -3.7492 -0.2994 -1.3057
  560MOL0     H75576   9.601   0.565   8.314  0.7482 -0.1610  0.2824
  560MOL0     H75577   9.663   0.731   8.363  2.6623  0.4938 -1.5973
  560MOL0     H75578   9.729   0.583   8.104 -0.1806 -0.2666  0.2603
  560MOL0     H75579   9.788   0.746   8.146  2.2106  0.4897  1.5732
  560MOL0     H75580   9.246   0.714   9.100 -1.5218  0.2958  2.7439
  560MOL0     H75581   9.164   0.828   9.312  2.2046 -1.7663  0.2989
  560MOL0     H75582   8.657   1.208   9.418  0.7846 -2.5380 -0.1440
  560MOL0     H75583   8.614   1.287   9.647  1.3744  1.6662  3.1350
  560MOL0     H75584   7.890   0.405   9.774 -2.6468  0.1560 -3.2945
  560MOL0     H75585   7.775   0.526   9.635  0.5137 -0.1346  0.0643
  560MOL0     H75586   7.993   0.902   9.325  0.0934  1.0802 -0.0518
  560MOL0     H75587   7.988   1.090   9.184 -0.5898 -0.1045 -2.1256
  560MOL0     H75588   7.739   1.270   9.102 -1.0405 -2.6460  0.4030
  560MOL0     H75589   7.633   1.219   8.963 -0.1725  1.3667  0.6327
  560MOL0     H75590   7.793   1.343   8.811  3.6024 -0.4693  1.1786
  560MOL0     H75591   7.897   1.372   8.946  0.7468  0.6607  0.7015
  560MOL0     H75592   7.726   1.497   9.062 -4.9521 -0.5419  1.5730
  560MOL0     H75593   7.590   1.464   8.974 -0.0599  0.5395  1.0644
  560MOL0     H75594   7.712   1.695   8.919  0.6902 -0.1977 -0.3879
  560MOL0     H75595   7.817   1.600   8.822  0.2934 -0.3250 -1.4097
  560MOL0     H75596   7.504   1.631   8.568 -1.1673  1.6847  0.2748
  560MOL0     H75597   7.652   0.928   8.966  2.8475  3.7768 -2.5398
  560MOL0     H75598   7.673   0.592   9.097  0.3795  0.2951 -1.4922
  560MOL0     H75599   7.553   0.685   9.190  1.7885 -1.6584  1.2887
  560MOL0     H75600   7.574   0.709   9.013  2.8187  2.7134 -1.5782
  561MOL0     O75601   0.525   3.445   0.534 -0.3501  0.6016 -0.2338
  561MOL0     C75602   0.595   3.357   0.476  1.1066 -0.0816  1.5016
  561MOL0     O75603   0.620   3.353   0.341  0.8349 -0.8121  0.1374
  561MOL0     C75604   0.590   3.467   0.262 -0.0454 -0.0603 -0.6608
  561MOL0     C75605   0.686   3.566   0.233 -1.1021  0.4610 -0.3700
  561MOL0     C75606   0.643   3.678   0.167  0.7656 -0.1749  0.4402
  561MOL0     C75607   0.504   3.704   0.136  0.0066  0.7564  0.8412
  561MOL0     O75608   0.464   3.821   0.074 -0.2376  0.2277  0.3718
  561MOL0     C75609   0.350   3.877   0.127  0.3977  0.4677 -0.4988
  561MOL0     C75610   0.379   4.027   0.122 -0.3921 -0.5441  0.5833
  561MOL0     C75611   0.271   4.106   0.201  0.5221 -0.1013  0.2508
  561MOL0     C75612   0.273   4.261   0.164  0.6739  0.0489 -0.2767
  561MOL0     C75613   0.237   4.290   0.005  1.5241  0.0667  0.4351
  561MOL0     C75614   0.142   4.419   0.002  0.1848  0.2615 -0.9754
  561MOL0     C75615   0.092   4.459  -0.137  0.4772  0.5075  0.6917
  561MOL0     C75616   0.010   4.354  -0.210 -0.1679  0.0698  0.1729
  561MOL0     N75617  -0.136   4.355  -0.186  0.6040  0.6675  0.1259
  561MOL0     C75618  -0.206   4.257  -0.115 -0.3824  0.7497  0.1969
  561MOL0     C75619  -0.324   4.310  -0.099  0.4084  0.3383 -1.1679
  561MOL0     C75620  -0.436   4.238  -0.022  0.4524 -0.6115  0.7913
  561MOL0     C75621  -0.556   4.177  -0.111  0.5476 -0.7921  0.0764
  561MOL0     C75622  -0.634   4.073  -0.019  0.5011 -0.3738  0.2915
  561MOL0     C75623  -0.739   4.009  -0.101  0.3882  0.2527  0.1969
  561MOL0     O75624  -0.842   3.946  -0.026  0.6129 -0.4508  0.2211
  561MOL0     C75625  -0.822   3.826   0.038 -0.4212 -0.3676 -0.0737
  561MOL0     C75626  -0.712   3.745   0.008  0.5869  1.0774 -0.3544
  561MOL0     C75627  -0.693   3.627   0.065 -0.5186  0.8648  0.1367
  561MOL0     C75628  -0.776   3.574   0.162  0.2265  0.2305 -0.9994
  561MOL0     C75629  -0.733   3.440   0.223  0.0342 -1.4662 -0.8035
  561MOL0     O75630  -0.596   3.429   0.255  0.1052 -0.1298 -0.0211
  561MOL0     C75631  -0.550   3.323   0.325  0.3148  0.8164  0.2017
  561MOL0     C75632  -0.602   3.193   0.351  0.8660  0.2222 -0.1014
  561MOL0     C75633  -0.529   3.093   0.423 -0.4829 -0.5482 -0.1337
  561MOL0     C75634  -0.398   3.132   0.459 -0.3455 -0.3266  0.9715
  561MOL0     O75635  -0.308   3.055   0.526 -0.5352 -0.6741  0.2867
  561MOL0     C75636  -0.299   2.914   0.493 -0.4918 -0.4029  0.1995
  561MOL0     C75637  -0.192   2.838   0.568  1.1420  0.1310 -0.1623
  561MOL0     C75638  -0.217   2.833   0.724 -0.1205  0.3199  0.7627
  561MOL0     C75639  -0.088   2.808   0.806 -0.1875  0.7893 -0.6810
  561MOL0     C75640  -0.102   2.799   0.961 -0.7741  0.0482 -0.1267
  561MOL0     C75641   0.025   2.747   1.040  1.1392 -0.2744 -0.0901
  561MOL0     C75642   0.130   2.862   1.020  0.1907 -0.2184  1.3128
  561MOL0     C75643   0.266   2.791   1.057  0.1174 -0.9800  1.1572
  561MOL0    Cl75644   0.302   2.674   0.934 -0.2823 -0.3881 -0.0305
  561MOL0     C75645  -0.350   3.264   0.444 -0.1438  0.0053  0.3790
  561MOL0     C75646  -0.425   3.362   0.378 -0.2239 -0.0275 -1.1091
  561MOL0     O75647  -0.827   3.364   0.258 -0.0658 -0.2018 -0.2969
  561MOL0     C75648  -0.881   3.655   0.203  0.4081  0.1177  0.6232
  561MOL0     C75649  -0.904   3.781   0.141  0.5006 -0.4209 -0.3072
  561MOL0     N75650  -0.333   4.425  -0.162 -0.2541 -1.0283 -0.1386
  561MOL0     N75651  -0.214   4.459  -0.211  0.8076 -0.8316  0.9946
  561MOL0     C75652   0.410   3.604   0.160  0.1847 -0.3161  0.0148
  561MOL0     C75653   0.452   3.491   0.225 -0.4971  0.1847  0.5453
  561MOL0     C75654   0.626   3.241   0.559  0.2748  1.0222 -0.1433
  561MOL0     C75655   0.573   3.245   0.697 -0.6451 -0.3639 -0.1441
  561MOL0     C75656   0.603   3.133   0.781  0.1363  0.1393 -0.5056
  561MOL0     C75657   0.676   3.024   0.744  0.5190  0.0061 -1.1252
  561MOL0     O75658   0.714   2.923   0.820 -0.4106 -0.9116 -0.6647
  561MOL0     C75659   0.613   2.871   0.906 -0.1406  0.6737  0.0067
  561MOL0     C75660   0.652   2.726   0.937 -0.4836  0.7960  0.0769
  561MOL0     C75661   0.787   2.702   0.991  0.1461 -0.3755 -0.4767
  561MOL0     C75662   0.807   2.553   1.023  0.7185  0.4007  0.2807
  561MOL0     C75663   0.919   2.526   1.104  0.4655 -0.0925  0.2575
  561MOL0     C75664   1.022   2.498   1.171  0.4818 -1.0125  0.4555
  561MOL0     C75665   0.716   3.023   0.615 -0.2968  0.2656 -0.0608
  561MOL0     C75666   0.697   3.125   0.524  0.5703  0.1294  0.1326
  561MOL0     C75667   0.759   3.099   0.387  0.7566  0.3340  0.0944
  561MOL0     H75668   0.786   3.541   0.267 -2.0264 -0.4714  1.8973
  561MOL0     H75669   0.707   3.763   0.146 -2.4312  2.0021 -1.2650
  561MOL0     H75670   0.257   3.847   0.079 -1.3648  3.2137  0.9122
  561MOL0     H75671   0.345   3.862   0.235 -1.4027  4.0104  0.0783
  561MOL0     H75672   0.375   4.066   0.020  1.0952  2.1544  1.4379
  561MOL0     H75673   0.477   4.029   0.170 -0.9108  0.4570  1.6794
  561MOL0     H75674   0.300   4.092   0.305 -2.0587 -0.9309  0.9434
  561MOL0     H75675   0.176   4.053   0.192 -0.1836  1.1191  0.2212
  561MOL0     H75676   0.200   4.313   0.226  1.5266 -0.8743  1.5649
  561MOL0     H75677   0.372   4.297   0.196  0.7069 -1.4948  1.4891
  561MOL0     H75678   0.325   4.287  -0.059  1.6937 -4.4765  0.5985
  561MOL0     H75679   0.173   4.209  -0.031  1.5163  0.6407 -0.8996
  561MOL0     H75680   0.056   4.401   0.068  1.7157  0.9964  1.3643
  561MOL0     H75681   0.204   4.502   0.037 -1.7592  1.5953 -0.4705
  561MOL0     H75682   0.178   4.490  -0.197  2.3638  0.7071  3.3339
  561MOL0     H75683   0.026   4.544  -0.116 -1.2751 -0.5744 -0.1117
  561MOL0     H75684   0.019   4.363  -0.319 -0.6287  0.8994  0.1922
  561MOL0     H75685   0.043   4.256  -0.175 -0.2132 -0.0945 -0.2409
  561MOL0     H75686  -0.175   4.160  -0.077  3.1532  3.1150  4.3205
  561MOL0     H75687  -0.388   4.153   0.028  2.6892  0.0008 -0.2311
  561MOL0     H75688  -0.467   4.305   0.059  3.0977  1.2897  0.3577
  561MOL0     H75689  -0.622   4.250  -0.158  0.1658  0.2446  2.1180
  561MOL0     H75690  -0.508   4.126  -0.194  0.5353  0.0934 -0.4817
  561MOL0     H75691  -0.671   4.131   0.066  2.8553  2.3037 -0.3420
  561MOL0     H75692  -0.572   3.992   0.022 -0.8617 -0.3315  2.6241
  561MOL0     H75693  -0.700   3.939  -0.176  0.7377  2.1573 -1.4952
  561MOL0     H75694  -0.793   4.088  -0.154  1.1614  1.3144  0.9690
  561MOL0     H75695  -0.643   3.764  -0.073  1.5717  0.7042  0.3767
  561MOL0     H75696  -0.607   3.579   0.021  1.5091  2.6540  1.8900
  561MOL0     H75697  -0.699   3.164   0.312  0.7689  0.5873 -0.1328
  561MOL0     H75698  -0.571   2.995   0.440 -0.1516 -0.4172  1.6009
  561MOL0     H75699  -0.397   2.869   0.512 -0.1961 -1.7082 -1.1255
  561MOL0     H75700  -0.264   2.916   0.389  1.6658 -1.1113  0.8649
  561MOL0     H75701  -0.192   2.737   0.527 -3.7687 -1.2461  2.5136
  561MOL0     H75702  -0.106   2.905   0.554  0.4069  0.8289 -1.5078
  561MOL0     H75703  -0.241   2.932   0.765 -0.6061  2.0851 -3.3110
  561MOL0     H75704  -0.295   2.761   0.751 -0.0998  1.0384  2.8924
  561MOL0     H75705  -0.007   2.875   0.776  0.2052  0.3846 -0.5461
  561MOL0     H75706  -0.051   2.709   0.778 -2.2604 -1.1936  2.9037
  561MOL0     H75707  -0.188   2.731   0.972  0.5721 -1.7881 -0.4792
  561MOL0     H75708  -0.117   2.901   0.996  0.7009  1.1799 -2.5041
  561MOL0     H75709   0.002   2.728   1.145  0.9925 -1.1312 -0.2719
  561MOL0     H75710   0.060   2.655   0.993 -1.5707  0.3938 -3.9667
  561MOL0     H75711   0.097   2.937   1.091 -1.4531  0.2547  0.1267
  561MOL0     H75712   0.139   2.907   0.921  2.6366  0.9248  1.9918
  561MOL0     H75713   0.346   2.865   1.058 -2.2280  1.8284 -0.6774
  561MOL0     H75714   0.262   2.739   1.154  0.5222 -0.5595  1.4039
  561MOL0     H75715  -0.250   3.288   0.478 -0.0726  0.0860  0.1166
  561MOL0     H75716  -0.388   3.461   0.355 -0.3781 -0.5371 -3.8656
  561MOL0     H75717  -0.947   3.624   0.283 -1.1761 -4.0800 -1.9835
  561MOL0     H75718  -0.986   3.846   0.168  1.3578  1.2163 -1.4759
  561MOL0     H75719   0.303   3.612   0.144 -0.0901  0.2314  1.8427
  561MOL0     H75720   0.393   3.401   0.245  0.6590 -0.0329  3.4780
  561MOL0     H75721   0.511   3.328   0.730  2.3158  1.2417  1.8341
  561MOL0     H75722   0.544   3.141   0.872  0.9424  0.5772 -0.0057
  561MOL0     H75723   0.521   2.851   0.851 -0.3129  1.4785  0.0016
  561MOL0     H75724   0.594   2.939   0.989 -0.5199  0.9714 -0.3234
  561MOL0     H75725   0.647   2.680   0.838  3.9935 -0.0333  0.0096
  561MOL0     H75726   0.581   2.687   1.011 -1.3040  2.4453  0.2011
  561MOL0     H75727   0.809   2.767   1.077 -0.8916 -1.3084  0.5264
  561MOL0     H75728   0.855   2.748   0.919 -0.4918 -1.6124 -1.8975
  561MOL0     H75729   0.718   2.510   1.069 -1.1066  0.0500 -3.2593
  561MOL0     H75730   0.828   2.509   0.925 -0.8589 -0.2487  0.2044
  561MOL0     H75731   1.106   2.491   1.237 -2.0447 -2.1480  3.8559
  561MOL0     H75732   0.772   2.932   0.593 -0.5799  0.5430 -2.1809
  561MOL0     H75733   0.791   3.190   0.336 -0.6564  0.4215 -0.6779
  561MOL0     H75734   0.847   3.033   0.389  2.0120  1.7001 -3.0015
  561MOL0     H75735   0.684   3.057   0.320  0.2545  1.0089  0.2274
  562MOL0     O75736   0.255  10.013   8.834 -0.4403 -0.2152  0.6573
  562MOL0     C75737   0.191   9.998   8.730 -0.7407  0.6463  0.3484
  562MOL0     O75738   0.112  10.092   8.666 -0.2433 -0.7509  0.1694
  562MOL0     C75739   0.069  10.205   8.722 -0.1686 -0.0781 -0.4914
  562MOL0     C75740   0.074  10.239   8.858  0.2326  0.1559 -0.0907
  562MOL0     C75741   0.018  10.360   8.890  0.2158 -0.8403 -0.0514
  562MOL0     C75742  -0.034  10.450   8.804 -0.3147  0.4610 -0.4582
  562MOL0     O75743  -0.078  10.573   8.852 -0.1398  0.0016 -0.2125
  562MOL0     C75744  -0.165  10.659   8.782  0.0328 -1.2298 -0.4964
  562MOL0     C75745  -0.087  10.770   8.709  0.9849 -0.4701  0.3735
  562MOL0     C75746  -0.185  10.863   8.638 -0.2325 -0.3789 -0.3803
  562MOL0     C75747  -0.243  10.814   8.512 -0.6588 -0.5309 -1.1118
  562MOL0     C75748  -0.311  10.917   8.423  0.3787 -0.1300  0.2658
  562MOL0     C75749  -0.309  10.865   8.280  0.7711 -0.1769  1.0704
  562MOL0     C75750  -0.412  10.961   8.194 -0.8524  0.1624  0.3106
  562MOL0     C75751  -0.556  10.949   8.220  0.6482  0.5147  0.5582
  562MOL0     N75752  -0.640  11.020   8.125  0.7775  0.3053 -0.2475
  562MOL0     C75753  -0.639  11.036   7.980 -0.2248 -0.0378 -0.6008
  562MOL0     C75754  -0.722  11.129   7.953 -0.1520  0.3906 -0.7118
  562MOL0     C75755  -0.726  11.180   7.811 -0.1132  0.6280  0.0180
  562MOL0     C75756  -0.786  11.320   7.796 -0.2537 -0.5376 -0.7805
  562MOL0     C75757  -0.798  11.372   7.652  0.1972  1.0059 -0.8624
  562MOL0     C75758  -0.857  11.278   7.554  0.9770 -0.1439 -0.6593
  562MOL0     O75759  -0.876  11.341   7.424  0.0030 -0.3491 -0.1249
  562MOL0     C75760  -0.770  11.375   7.339  0.3683  0.5372  0.8620
  562MOL0     C75761  -0.801  11.409   7.213  0.1988 -0.3087 -0.2544
  562MOL0     C75762  -0.709  11.430   7.119 -0.2031 -1.2106  0.6059
  562MOL0     C75763  -0.574  11.426   7.145 -0.3973 -0.5979  0.3453
  562MOL0     C75764  -0.477  11.440   7.035  0.3545  0.1711  0.0335
  562MOL0     O75765  -0.350  11.440   7.070 -0.5069  0.1938 -0.1560
  562MOL0     C75766  -0.252  11.405   6.973  0.6117 -0.8574 -0.2076
  562MOL0     C75767  -0.120  11.451   6.997  0.0750  0.8395 -0.1942
  562MOL0     C75768  -0.006  11.421   6.920  0.2292  0.2212  0.0115
  562MOL0     C75769  -0.022  11.338   6.813 -0.2636  0.5597 -0.0537
  562MOL0     O75770   0.076  11.336   6.719 -0.3757  0.5484 -0.4746
  562MOL0     C75771   0.066  11.268   6.588 -0.9731 -0.3903  0.3464
  562MOL0     C75772   0.193  11.267   6.499 -0.9636 -0.8086 -0.0359
  562MOL0     C75773   0.205  11.157   6.394  0.1959 -0.3420  1.1752
  562MOL0     C75774   0.102  11.156   6.274  0.4212  0.0637 -0.7103
  562MOL0     C75775   0.155  11.245   6.167 -0.8817  0.6867  0.5505
  562MOL0     C75776   0.097  11.210   6.025  0.3517  0.0049  1.3135
  562MOL0     C75777   0.147  11.310   5.920 -0.0171 -0.8909  0.1018
  562MOL0     C75778   0.127  11.256   5.784  0.1851  0.5964 -0.1267
  562MOL0    Cl75779   0.195  11.349   5.652 -0.1948  0.1003  0.2331
  562MOL0     C75780  -0.154  11.290   6.789  0.0746 -0.0726 -0.4618
  562MOL0     C75781  -0.268  11.331   6.855 -0.2533 -0.3865  1.2194
  562MOL0     O75782  -0.513  11.449   6.918  0.5746 -0.1334 -0.8309
  562MOL0     C75783  -0.531  11.375   7.274  0.1328 -0.3209  0.7839
  562MOL0     C75784  -0.632  11.354   7.368  0.3171 -0.5334  0.4365
  562MOL0     N75785  -0.775  11.179   8.071  0.3647  0.2927  0.5026
  562MOL0     N75786  -0.733  11.112   8.174  0.3438 -0.1124  0.5081
  562MOL0     C75787  -0.028  10.423   8.670 -0.4025 -0.6639 -0.1407
  562MOL0     C75788   0.019  10.293   8.628 -0.1736 -0.2336  0.1639
  562MOL0     C75789   0.187   9.856   8.676  0.0838 -0.3080  0.0632
  562MOL0     C75790   0.107   9.824   8.565  0.4651 -0.6842  0.7190
  562MOL0     C75791   0.087   9.697   8.510  0.4167 -0.0526 -0.6400
  562MOL0     C75792   0.142   9.588   8.566 -0.6624 -0.4865 -0.3267
  562MOL0     O75793   0.114   9.464   8.520  0.5433 -0.1096 -1.2874
  562MOL0     C75794   0.190   9.353   8.557  0.6044  0.7892 -0.4775
  562MOL0     C75795   0.337   9.355   8.495  0.0506 -1.2964  0.4224
  562MOL0     C75796   0.400   9.212   8.481 -0.6748  0.1547 -0.3811
  562MOL0     C75797   0.518   9.228   8.375 -0.1648 -0.9344  0.0995
  562MOL0     C75798   0.632   9.286   8.447  0.3647  0.8111 -0.2329
  562MOL0     C75799   0.717   9.350   8.510  0.0684 -0.9489 -0.4359
  562MOL0     C75800   0.238   9.616   8.668  0.5698  0.0202  0.4952
  562MOL0     C75801   0.260   9.744   8.730 -0.2628  0.2828  0.2638
  562MOL0     C75802   0.365   9.754   8.828  0.6991 -0.1922 -0.2658
  562MOL0     H75803   0.101  10.176   8.942  0.3514 -1.0251 -0.9891
  562MOL0     H75804   0.029  10.397   8.992  0.2273  4.4839 -1.6749
  562MOL0     H75805  -0.249  10.616   8.728  0.1368 -1.8093 -0.2147
  562MOL0     H75806  -0.210  10.714   8.865 -1.7801 -2.3478 -0.6946
  562MOL0     H75807  -0.017  10.734   8.633  1.2362  1.5571 -0.4031
  562MOL0     H75808  -0.037  10.836   8.780 -0.7929 -1.1371  2.3675
  562MOL0     H75809  -0.141  10.962   8.621 -0.5266 -0.4383 -1.5306
  562MOL0     H75810  -0.264  10.888   8.709 -0.6331  0.2525 -1.0346
  562MOL0     H75811  -0.167  10.758   8.457 -1.3240 -0.6557 -1.9152
  562MOL0     H75812  -0.325  10.747   8.539 -1.2438  0.4925 -0.2744
  562MOL0     H75813  -0.414  10.932   8.456  0.0415 -4.4244  1.8036
  562MOL0     H75814  -0.267  11.017   8.416 -0.2705  0.3523  2.4518
  562MOL0     H75815  -0.208  10.867   8.239  0.9052  1.5946  1.3968
  562MOL0     H75816  -0.337  10.759   8.285  1.4316 -0.3105  1.9815
  562MOL0     H75817  -0.386  10.951   8.088 -0.7808  2.4415  0.0496
  562MOL0     H75818  -0.388  11.061   8.232  1.5251 -0.9732  2.0720
  562MOL0     H75819  -0.593  10.846   8.221 -3.6688  1.8930  0.7937
  562MOL0     H75820  -0.575  11.001   8.314 -1.0580 -0.3363  0.7119
  562MOL0     H75821  -0.581  10.985   7.904 -0.1171 -1.3177  0.3033
  562MOL0     H75822  -0.623  11.190   7.776  0.9802  0.9142  3.0144
  562MOL0     H75823  -0.772  11.098   7.755  1.1925 -1.4586  1.8388
  562MOL0     H75824  -0.890  11.330   7.828 -0.0423  2.6827 -0.7775
  562MOL0     H75825  -0.739  11.394   7.861  0.2205  0.2643 -2.0108
  562MOL0     H75826  -0.699  11.410   7.626  0.5582  1.6133  1.1645
  562MOL0     H75827  -0.862  11.461   7.664 -1.2895 -0.3923  3.9650
  562MOL0     H75828  -0.956  11.242   7.583  0.2387  0.8235 -1.8387
  562MOL0     H75829  -0.788  11.194   7.547  1.7511  0.4053  0.0948
  562MOL0     H75830  -0.904  11.424   7.184  1.1858  4.7613 -2.1232
  562MOL0     H75831  -0.760  11.448   7.025 -0.4594 -1.4746  0.6922
  562MOL0     H75832  -0.109  11.523   7.077  1.7575  1.5007 -0.9525
  562MOL0     H75833   0.091  11.469   6.931  1.2646 -1.9634  1.0521
  562MOL0     H75834   0.051  11.161   6.602  1.8504 -0.6083  2.8051
  562MOL0     H75835  -0.015  11.324   6.541 -0.3656  2.3532  2.2877
  562MOL0     H75836   0.198  11.361   6.444  0.8660 -1.5366 -1.2355
  562MOL0     H75837   0.281  11.251   6.563 -1.2228  0.1900  0.5957
  562MOL0     H75838   0.306  11.149   6.354 -0.4591  2.1029 -1.2339
  562MOL0     H75839   0.184  11.067   6.454  1.8791 -0.0352  2.2918
  562MOL0     H75840   0.005  11.194   6.306 -0.7389 -1.6199 -2.0283
  562MOL0     H75841   0.081  11.055   6.238  0.8687 -0.0635 -0.6324
  562MOL0     H75842   0.263  11.232   6.155 -1.2976 -2.4828 -0.9795
  562MOL0     H75843   0.122  11.346   6.193 -0.9634  0.7034  0.3845
  562MOL0     H75844   0.130  11.107   6.012  1.9133  0.3478  2.2336
  562MOL0     H75845  -0.012  11.214   6.035  0.3483 -2.4718  3.2008
  562MOL0     H75846   0.249  11.342   5.945 -1.2863  4.9556 -0.5942
  562MOL0     H75847   0.089  11.401   5.936  4.6501  2.0854  2.6491
  562MOL0     H75848   0.186  11.165   5.796 -0.6545  0.3763  3.5188
  562MOL0     H75849   0.023  11.224   5.773 -0.1596  1.8231 -0.6688
  562MOL0     H75850  -0.179  11.229   6.703 -1.3070  1.2198 -1.0229
  562MOL0     H75851  -0.360  11.277   6.834 -0.2413 -0.8216  2.2539
  562MOL0     H75852  -0.430  11.339   7.289  1.4012  1.4563 -2.3221
  562MOL0     H75853  -0.601  11.299   7.457  4.7509  0.2255 -0.3990
  562MOL0     H75854  -0.054  10.506   8.606 -0.2177 -0.4348  0.0784
  562MOL0     H75855   0.017  10.264   8.523  0.2715 -0.7117  0.2854
  562MOL0     H75856   0.058   9.909   8.520 -0.3462 -0.2886  2.2911
  562MOL0     H75857   0.012   9.687   8.431  0.9463 -2.3981 -0.9285
  562MOL0     H75858   0.135   9.263   8.527 -0.7073  1.1576  0.7133
  562MOL0     H75859   0.203   9.335   8.664  1.8200 -0.7968 -0.8574
  562MOL0     H75860   0.398   9.424   8.555  2.9125 -0.9613 -2.5526
  562MOL0     H75861   0.330   9.409   8.400 -2.4128 -1.4551  0.4722
  562MOL0     H75862   0.332   9.139   8.436 -1.6321 -0.6240  2.1960
  562MOL0     H75863   0.436   9.164   8.572  0.8196 -0.4830 -1.2552
  562MOL0     H75864   0.555   9.130   8.340  0.4770 -0.3539 -0.9129
  562MOL0     H75865   0.488   9.293   8.292 -0.2213  2.3388  2.5002
  562MOL0     H75866   0.784   9.414   8.563 -1.4713  0.4293 -0.0467
  562MOL0     H75867   0.282   9.533   8.722 -2.6361  0.3192  4.0406
  562MOL0     H75868   0.405   9.855   8.841 -3.1103  2.0848 -3.8384
  562MOL0     H75869   0.340   9.694   8.917 -1.0450 -1.4004 -1.4972
  562MOL0     H75870   0.441   9.697   8.773 -0.8994 -0.7533 -2.0052
  563MOL0     O75871   1.431   7.549   1.885  0.5825  0.1314 -0.0561
  563MOL0     C75872   1.486   7.656   1.880 -0.2605 -0.3023  0.0958
  563MOL0     O75873   1.517   7.729   1.991 -0.3921 -0.5520 -0.1802
  563MOL0     C75874   1.505   7.680   2.122  0.2483  0.6396  0.5863
  563MOL0     C75875   1.412   7.734   2.209 -0.2235  0.7610  0.0432
  563MOL0     C75876   1.383   7.687   2.338  0.4469 -0.5904  0.5318
  563MOL0     C75877   1.465   7.566   2.381  0.6879  0.3781  0.0695
  563MOL0     O75878   1.443   7.496   2.497 -0.9336 -0.0458  0.2798
  563MOL0     C75879   1.331   7.534   2.589  0.3727  0.1000  0.6434
  563MOL0     C75880   1.326   7.451   2.720  0.5697 -0.3688  0.4137
  563MOL0     C75881   1.268   7.309   2.692 -0.2996  0.2521 -0.4269
  563MOL0     C75882   1.231   7.242   2.825  0.0538  0.1145  0.1700
  563MOL0     C75883   1.353   7.210   2.908  0.3257  0.1126  0.4930
  563MOL0     C75884   1.437   7.095   2.854  0.9520  0.4279 -0.3245
  563MOL0     C75885   1.534   7.040   2.958 -0.4471 -0.3766 -0.4078
  563MOL0     C75886   1.585   7.138   3.058  0.3916 -1.1331 -0.4811
  563MOL0     N75887   1.698   7.097   3.135 -0.5769  0.1076  0.0939
  563MOL0     C75888   1.740   6.974   3.167  0.3984 -0.4183 -0.7361
  563MOL0     C75889   1.866   6.996   3.218  0.7859  0.6311  0.5946
  563MOL0     C75890   1.961   6.898   3.283  0.0908  0.4319 -0.1618
  563MOL0     C75891   1.967   6.766   3.219  0.3951  0.6735  1.1967
  563MOL0     C75892   2.063   6.683   3.292  0.3197 -0.7488  0.1273
  563MOL0     C75893   2.029   6.535   3.253  0.0135 -0.2788  0.8687
  563MOL0     O75894   2.075   6.529   3.115 -0.0558  0.2404  0.2301
  563MOL0     C75895   2.109   6.397   3.073  0.0570  0.0833 -0.6338
  563MOL0     C75896   2.223   6.386   2.992 -0.2659 -0.6796  1.0389
  563MOL0     C75897   2.274   6.263   2.941  0.4721  0.1799 -0.1173
  563MOL0     C75898   2.196   6.152   2.968  1.1210 -1.4122 -0.5304
  563MOL0     C75899   2.224   6.023   2.909 -0.5435  0.2919  0.0078
  563MOL0     O75900   2.259   6.011   2.777 -0.1113 -0.6128  0.0847
  563MOL0     C75901   2.344   5.904   2.749 -0.4098  0.0972  0.0405
  563MOL0     C75902   2.285   5.783   2.700 -0.1600  0.1756  0.3518
  563MOL0     C75903   2.362   5.669   2.685  0.8760 -0.2664 -0.6448
  563MOL0     C75904   2.498   5.670   2.711  0.0433  0.0356  0.1460
  563MOL0     O75905   2.577   5.560   2.693 -0.3179  0.0733 -1.1013
  563MOL0     C75906   2.539   5.454   2.784  0.3509 -0.0644 -0.5685
  563MOL0     C75907   2.506   5.322   2.709 -0.9005 -0.0061  0.3371
  563MOL0     C75908   2.622   5.271   2.619 -0.0233 -0.8806  0.2437
  563MOL0     C75909   2.568   5.156   2.533 -0.9071  0.3658  0.1699
  563MOL0     C75910   2.660   5.116   2.410 -0.3680  0.5179  0.3348
  563MOL0     C75911   2.664   5.217   2.288 -0.8318 -0.2128  0.4528
  563MOL0     C75912   2.525   5.238   2.214 -0.1737 -0.4702  1.4205
  563MOL0     C75913   2.524   5.207   2.070  0.2507  0.7365 -0.4068
  563MOL0    Cl75914   2.582   5.038   2.044 -0.0021 -0.3023 -0.2404
  563MOL0     C75915   2.560   5.785   2.765 -0.3043 -0.3888  0.1745
  563MOL0     C75916   2.477   5.904   2.786 -0.3846 -0.6033 -1.2941
  563MOL0     O75917   2.226   5.931   2.989 -0.1480  0.2121 -0.4665
  563MOL0     C75918   2.087   6.161   3.061  0.2710  0.0815  0.3029
  563MOL0     C75919   2.038   6.279   3.105  0.2959 -0.3399  0.1976
  563MOL0     N75920   1.884   7.134   3.219 -0.3095  0.2115  0.0884
  563MOL0     N75921   1.789   7.201   3.163 -0.4749  0.3374  0.8576
  563MOL0     C75922   1.552   7.517   2.289  0.4178  0.2864  0.0437
  563MOL0     C75923   1.570   7.561   2.160  0.3866 -0.7743  0.0469
  563MOL0     C75924   1.532   7.733   1.754  0.3752 -0.0770  0.6686
  563MOL0     C75925   1.548   7.869   1.754 -0.1963 -0.1833 -0.6439
  563MOL0     C75926   1.600   7.937   1.647  0.9383  0.0619  0.7549
  563MOL0     C75927   1.636   7.875   1.530  0.3901 -0.0766 -0.0176
  563MOL0     O75928   1.676   7.956   1.423 -0.6867 -0.3329 -0.1284
  563MOL0     C75929   1.664   7.910   1.282  1.4078  0.1822 -0.6174
  563MOL0     C75930   1.639   8.035   1.203 -0.3871  0.1500 -0.0951
  563MOL0     C75931   1.757   8.108   1.142  0.5658  0.1788  0.8574
  563MOL0     C75932   1.714   8.236   1.062  0.0384 -0.3102 -0.2625
  563MOL0     C75933   1.665   8.343   1.147  0.0371 -0.1433 -0.2405
  563MOL0     C75934   1.606   8.429   1.212 -0.8407  0.6255 -1.0507
  563MOL0     C75935   1.622   7.735   1.519  0.2143 -0.3895 -0.0289
  563MOL0     C75936   1.569   7.670   1.633  0.2091 -0.4427  1.0902
  563MOL0     C75937   1.534   7.530   1.605 -0.3840 -0.4710 -0.7100
  563MOL0     H75938   1.361   7.826   2.180 -0.7072  1.5386  2.9302
  563MOL0     H75939   1.295   7.727   2.386 -0.0719 -0.7537 -0.2627
  563MOL0     H75940   1.331   7.643   2.594  3.7419  0.2624 -0.6766
  563MOL0     H75941   1.237   7.508   2.538  0.5890  3.5887 -1.9428
  563MOL0     H75942   1.259   7.499   2.791 -0.2561  2.0207 -1.8168
  563MOL0     H75943   1.426   7.436   2.760  0.5874 -0.8593  0.1875
  563MOL0     H75944   1.351   7.262   2.637 -1.5605  1.0138 -3.1616
  563MOL0     H75945   1.181   7.315   2.626  0.3503  1.4107 -1.2300
  563MOL0     H75946   1.167   7.309   2.883 -1.5989 -2.6676  1.7977
  563MOL0     H75947   1.176   7.150   2.802  1.5185 -1.1832  1.6300
  563MOL0     H75948   1.415   7.300   2.915 -0.7029  0.9405 -0.6673
  563MOL0     H75949   1.309   7.193   3.007 -2.4224  1.3622 -0.4355
  563MOL0     H75950   1.375   7.012   2.820 -2.2741  1.8459  1.5818
  563MOL0     H75951   1.489   7.131   2.765 -0.4089 -1.0960 -1.8003
  563MOL0     H75952   1.616   6.983   2.915 -3.0465 -3.6946 -1.4095
  563MOL0     H75953   1.483   6.961   3.014  0.1111 -2.6536 -2.9294
  563MOL0     H75954   1.606   7.228   2.999  1.7555 -2.7355 -2.5734
  563MOL0     H75955   1.496   7.151   3.121  0.8260 -0.0614 -0.0648
  563MOL0     H75956   1.692   6.882   3.137 -2.7158  0.6008  0.7129
  563MOL0     H75957   2.059   6.947   3.283  0.1175  0.7545  3.7179
  563MOL0     H75958   1.951   6.878   3.390  0.2195  1.2498  0.0107
  563MOL0     H75959   1.869   6.717   3.214  1.6492 -1.9714  1.2711
  563MOL0     H75960   2.010   6.793   3.122  1.4328 -0.6179  1.2728
  563MOL0     H75961   2.039   6.693   3.398  0.7661 -0.2540  0.1872
  563MOL0     H75962   2.166   6.708   3.263  0.0162 -0.4953 -0.7708
  563MOL0     H75963   1.920   6.524   3.257 -0.3100  1.0120 -1.8933
  563MOL0     H75964   2.080   6.458   3.311 -0.8281 -1.6013 -0.0964
  563MOL0     H75965   2.284   6.474   2.971  1.8910 -2.5326 -1.0275
  563MOL0     H75966   2.358   6.264   2.872  0.9545  2.6104  0.4083
  563MOL0     H75967   2.178   5.775   2.679 -0.2184  2.1409 -0.3152
  563MOL0     H75968   2.318   5.579   2.645 -1.3712 -0.0700  1.1472
  563MOL0     H75969   2.623   5.433   2.852  0.5904 -1.4660 -1.2579
  563MOL0     H75970   2.452   5.474   2.847 -0.7064  0.6953 -2.1992
  563MOL0     H75971   2.488   5.250   2.790 -1.0059  1.6261  1.8212
  563MOL0     H75972   2.413   5.326   2.651 -1.9437 -4.3907  1.2707
  563MOL0     H75973   2.648   5.345   2.542 -2.6723 -1.7420 -1.6312
  563MOL0     H75974   2.704   5.234   2.681 -0.7682  0.1656  1.9083
  563MOL0     H75975   2.470   5.180   2.491 -0.4297  0.3286 -0.9982
  563MOL0     H75976   2.560   5.068   2.597 -1.3972  0.2670 -0.0250
  563MOL0     H75977   2.623   5.022   2.368  1.9336  0.2084 -1.1659
  563MOL0     H75978   2.760   5.087   2.441  1.1622  0.7787 -3.7198
  563MOL0     H75979   2.707   5.307   2.333  2.3004 -1.5956  0.4260
  563MOL0     H75980   2.733   5.170   2.218 -2.4679 -2.6332  0.3249
  563MOL0     H75981   2.503   5.345   2.217 -0.3249 -0.4682  0.3822
  563MOL0     H75982   2.442   5.186   2.262 -3.0797  0.2864 -2.3728
  563MOL0     H75983   2.424   5.213   2.027  0.5526 -0.3334 -1.3007
  563MOL0     H75984   2.600   5.273   2.026  1.9866  1.4705  3.2615
  563MOL0     H75985   2.661   5.775   2.804 -0.3400 -1.0425  0.1182
  563MOL0     H75986   2.503   5.998   2.834 -1.0066 -1.2329  0.3392
  563MOL0     H75987   2.019   6.077   3.075  1.0983 -0.9394 -1.4176
  563MOL0     H75988   1.948   6.283   3.167  0.8153  2.3595  0.8912
  563MOL0     H75989   1.613   7.435   2.325  0.1657  0.1703  0.2132
  563MOL0     H75990   1.650   7.511   2.106  1.9659 -0.4640  1.9610
  563MOL0     H75991   1.525   7.930   1.840  1.8711 -0.2210 -0.0210
  563MOL0     H75992   1.627   8.041   1.661 -2.4640  0.8275  2.6694
  563MOL0     H75993   1.575   7.848   1.267  0.3849  1.7508 -1.3920
  563MOL0     H75994   1.750   7.855   1.243 -1.4155 -3.0516 -2.9207
  563MOL0     H75995   1.583   8.101   1.270 -1.3912 -0.4890 -0.2847
  563MOL0     H75996   1.568   8.010   1.124  1.6047 -0.8142 -1.6793
  563MOL0     H75997   1.813   8.036   1.081  3.5698  2.9855  0.0519
  563MOL0     H75998   1.827   8.128   1.224  1.5352  0.2338  0.0370
  563MOL0     H75999   1.802   8.266   1.005 -0.1634  4.3624  1.3847
  563MOL0     H76000   1.646   8.212   0.980  0.6708  1.7441 -1.4579
  563MOL0     H76001   1.557   8.514   1.255 -0.0950 -0.0065  1.1711
  563MOL0     H76002   1.652   7.678   1.431  1.2011 -0.3696  0.2767
  563MOL0     H76003   1.434   7.508   1.643  0.8634 -1.5637  2.1868
  563MOL0     H76004   1.533   7.497   1.501  2.9894  1.4185 -1.4775
  563MOL0     H76005   1.613   7.464   1.642 -1.3056 -0.7414  0.8665
  564MOL0     O76006   3.144   7.980   4.968 -0.3484  0.0959  0.0416
  564MOL0     C76007   3.103   8.057   4.888  0.9926 -0.3168 -0.0249
  564MOL0     O76008   3.179   8.143   4.806 -0.2550 -0.2057 -0.3362
  564MOL0     C76009   3.292   8.182   4.877 -0.6403  0.1121  0.1912
  564MOL0     C76010   3.280   8.309   4.939 -0.1166 -0.0758  0.0649
  564MOL0     C76011   3.380   8.365   5.022 -0.0183 -0.1951 -0.4535
  564MOL0     C76012   3.493   8.296   5.027 -0.3259  0.4292 -0.3848
  564MOL0     O76013   3.596   8.374   5.083  0.4124 -0.0555 -0.6222
  564MOL0     C76014   3.655   8.296   5.194  0.2742 -0.0850  0.7386
  564MOL0     C76015   3.729   8.404   5.273  0.2000  1.0098 -0.4993
  564MOL0     C76016   3.788   8.348   5.400 -0.0449 -0.4024 -0.8888
  564MOL0     C76017   3.888   8.239   5.369 -0.3981  0.3298 -0.3758
  564MOL0     C76018   3.967   8.198   5.494  0.5482 -0.8260 -0.6144
  564MOL0     C76019   4.013   8.059   5.480 -0.2783  0.7686 -0.5534
  564MOL0     C76020   4.036   7.991   5.617  0.5379 -0.2845  0.3914
  564MOL0     C76021   4.135   8.057   5.696  0.5568 -0.1826 -0.4152
  564MOL0     N76022   4.217   7.971   5.783 -0.4859  0.0220  0.0426
  564MOL0     C76023   4.187   7.950   5.913  1.5462  0.1179  0.1918
  564MOL0     C76024   4.277   7.848   5.951 -0.8404 -0.6684  1.1042
  564MOL0     C76025   4.306   7.818   6.100  0.2820  0.3052  0.0455
  564MOL0     C76026   4.345   7.948   6.185 -0.1560  0.0467  0.7921
  564MOL0     C76027   4.467   8.006   6.111 -0.3458  0.4045 -0.2696
  564MOL0     C76028   4.552   8.081   6.214 -0.4895  0.7125 -0.6772
  564MOL0     O76029   4.660   8.148   6.148  1.2903  0.6044 -1.0020
  564MOL0     C76030   4.783   8.092   6.154 -0.0118  0.6165 -0.0877
  564MOL0     C76031   4.839   8.038   6.043  0.8844  0.0315 -0.3581
  564MOL0     C76032   4.974   7.993   6.040 -0.5882  0.7848 -0.6233
  564MOL0     C76033   5.051   8.010   6.152 -0.4663 -0.1809  0.2650
  564MOL0     C76034   5.189   7.957   6.157  1.2538 -0.2942 -0.6194
  564MOL0     O76035   5.266   7.992   6.269  0.0014 -0.6989 -1.0111
  564MOL0     C76036   5.399   7.966   6.264  0.3011 -0.6565 -0.8539
  564MOL0     C76037   5.455   7.866   6.330  0.7263  0.7334 -0.4895
  564MOL0     C76038   5.594   7.863   6.352  0.1465 -0.1674 -0.6145
  564MOL0     C76039   5.676   7.956   6.285  0.7779 -0.2573 -0.4154
  564MOL0     O76040   5.810   7.973   6.317  0.1606  0.1197  0.8982
  564MOL0     C76041   5.897   7.854   6.345  0.6258  0.8040  1.0318
  564MOL0     C76042   6.041   7.909   6.340  0.5694 -0.0027 -0.2014
  564MOL0     C76043   6.062   8.030   6.242 -1.0768  0.0281  0.8098
  564MOL0     C76044   5.994   8.005   6.103  1.0211 -0.5730 -0.2705
  564MOL0     C76045   6.077   8.066   5.991  0.4678  0.1627 -0.5393
  564MOL0     C76046   6.000   8.059   5.853 -0.3137  0.2545 -0.4857
  564MOL0     C76047   5.972   7.920   5.801  1.1602  0.2299  0.1676
  564MOL0     C76048   5.872   7.915   5.688 -0.5398  0.2355  0.1883
  564MOL0    Cl76049   5.945   7.979   5.539 -0.0173  0.1513 -0.0443
  564MOL0     C76050   5.615   8.053   6.217  0.5215 -0.5010 -0.5228
  564MOL0     C76051   5.481   8.060   6.203  0.8349 -0.3821  0.2205
  564MOL0     O76052   5.218   7.865   6.077 -0.1929 -0.3265 -0.2205
  564MOL0     C76053   4.994   8.064   6.267  0.3881  0.5047 -0.0608
  564MOL0     C76054   4.860   8.106   6.273 -1.2886 -0.2431  0.9743
  564MOL0     N76055   4.354   7.810   5.843  0.1014  0.2507 -0.4047
  564MOL0     N76056   4.314   7.883   5.739 -0.4183 -0.1709 -0.2002
  564MOL0     C76057   3.513   8.166   4.964 -0.3647  0.0758 -0.2885
  564MOL0     C76058   3.411   8.108   4.885 -0.1812 -0.0759  0.3739
  564MOL0     C76059   2.960   8.020   4.847  0.3251  0.4606 -0.9595
  564MOL0     C76060   2.929   7.879   4.843 -0.1089  0.4372  0.5587
  564MOL0     C76061   2.801   7.839   4.808 -0.0725 -1.1836 -0.0093
  564MOL0     C76062   2.701   7.936   4.794 -0.8867 -0.0233 -0.1288
  564MOL0     O76063   2.578   7.918   4.731 -0.4646 -0.7014  0.0724
  564MOL0     C76064   2.542   7.782   4.699 -0.3444 -1.2876 -0.9993
  564MOL0     C76065   2.397   7.768   4.672  0.5191 -0.1549 -0.1482
  564MOL0     C76066   2.351   7.622   4.666 -0.7885  0.4342  0.3671
  564MOL0     C76067   2.196   7.609   4.678 -0.9529 -0.7048  0.6201
  564MOL0     C76068   2.120   7.634   4.552 -0.4352  0.7555  0.8815
  564MOL0     C76069   2.061   7.661   4.449  1.0089 -0.2219  0.0488
  564MOL0     C76070   2.737   8.072   4.794 -0.2693 -0.2540  0.4982
  564MOL0     C76071   2.871   8.117   4.816  0.2365  0.5592  0.3337
  564MOL0     C76072   2.914   8.263   4.804 -0.0187 -0.1519 -0.4056
  564MOL0     H76073   3.191   8.366   4.914 -0.7636 -1.2095 -0.3113
  564MOL0     H76074   3.369   8.452   5.085 -1.8653  2.0424 -3.5569
  564MOL0     H76075   3.584   8.246   5.262 -2.1857  0.9451 -0.9192
  564MOL0     H76076   3.731   8.229   5.153 -0.0643 -1.1991  1.8755
  564MOL0     H76077   3.654   8.477   5.307  1.0746  1.6699  0.0863
  564MOL0     H76078   3.812   8.447   5.217  0.6874  0.3271 -0.3062
  564MOL0     H76079   3.720   8.317   5.479  4.0462 -0.0111  3.1802
  564MOL0     H76080   3.841   8.433   5.444  3.3731 -2.5458 -0.4258
  564MOL0     H76081   3.824   8.163   5.324  0.5243 -0.3178 -0.6265
  564MOL0     H76082   3.962   8.260   5.291 -0.7488  0.5006 -0.6630
  564MOL0     H76083   4.049   8.265   5.521 -2.1218  2.2719  0.5631
  564MOL0     H76084   3.900   8.213   5.580  2.2948  2.0681  0.3821
  564MOL0     H76085   3.935   8.001   5.430 -1.7231  0.9677  1.3396
  564MOL0     H76086   4.105   8.048   5.422 -0.7479 -0.3158 -1.1121
  564MOL0     H76087   4.055   7.887   5.589 -0.9341  0.3598 -3.7095
  564MOL0     H76088   3.941   8.005   5.670 -0.4780  1.6948 -1.7925
  564MOL0     H76089   4.203   8.100   5.621  1.6098 -0.2442  0.4710
  564MOL0     H76090   4.098   8.142   5.753  2.8236 -0.1471  1.1585
  564MOL0     H76091   4.118   8.007   5.974  0.1201 -1.8147  0.4729
  564MOL0     H76092   4.225   7.776   6.160  0.4317  1.4971  1.1286
  564MOL0     H76093   4.393   7.751   6.096 -0.3264 -0.4524 -1.2261
  564MOL0     H76094   4.272   8.030   6.181  1.8778  1.9579  0.6864
  564MOL0     H76095   4.367   7.926   6.290  1.3441 -1.6179  0.1699
  564MOL0     H76096   4.434   8.062   6.024  1.3355  1.5922 -0.1849
  564MOL0     H76097   4.529   7.930   6.061  2.3165  0.8171  2.1322
  564MOL0     H76098   4.592   8.012   6.289 -0.7326  1.0017 -0.2775
  564MOL0     H76099   4.508   8.163   6.270  0.9734  1.9757 -1.2970
  564MOL0     H76100   4.775   8.040   5.956 -5.2539 -1.4079  3.4678
  564MOL0     H76101   5.018   7.950   5.951  2.9743 -1.7465  2.0649
  564MOL0     H76102   5.391   7.804   6.391  1.1418 -1.0548 -1.7892
  564MOL0     H76103   5.643   7.783   6.407  1.4896  1.6245  0.9432
  564MOL0     H76104   5.883   7.816   6.447 -2.5442  1.1267  0.8208
  564MOL0     H76105   5.892   7.770   6.275  3.0648  1.0891  0.4171
  564MOL0     H76106   6.074   7.950   6.437  1.6823  2.4621 -1.5167
  564MOL0     H76107   6.105   7.828   6.304  0.8774  0.0477  0.2151
  564MOL0     H76108   6.022   8.124   6.280 -4.1030 -1.1488  0.7899
  564MOL0     H76109   6.172   8.033   6.237 -0.8865 -2.1008  2.3775
  564MOL0     H76110   5.893   8.045   6.105  1.1897 -0.1724  0.7566
  564MOL0     H76111   5.990   7.897   6.089 -0.7500 -0.8747  2.0727
  564MOL0     H76112   6.175   8.018   5.993 -0.2642 -1.4367  2.0048
  564MOL0     H76113   6.075   8.173   6.010 -1.9906  0.3731 -1.5390
  564MOL0     H76114   5.906   8.115   5.858 -0.3444  0.1016  1.0838
  564MOL0     H76115   6.059   8.110   5.776 -0.3338  2.3417  0.8177
  564MOL0     H76116   5.922   7.865   5.881  1.9206 -0.4039  0.2125
  564MOL0     H76117   6.059   7.861   5.772  0.6685 -0.9924  1.0887
  564MOL0     H76118   5.827   7.818   5.665 -1.1880  0.9032 -1.5607
  564MOL0     H76119   5.784   7.978   5.707 -1.2961 -1.0087  0.9271
  564MOL0     H76120   5.670   8.143   6.191 -1.6465  1.0158 -0.0941
  564MOL0     H76121   5.437   8.144   6.151 -0.4302 -0.7075  0.7435
  564MOL0     H76122   5.054   8.063   6.357 -3.1694  0.0823  2.5251
  564MOL0     H76123   4.811   8.158   6.355 -2.1369  1.6184 -0.6136
  564MOL0     H76124   3.608   8.114   4.968 -1.1294 -1.3573 -0.1663
  564MOL0     H76125   3.428   8.005   4.853  0.0151 -0.1692  0.7745
  564MOL0     H76126   2.993   7.802   4.887  1.3559  1.0151 -0.4770
  564MOL0     H76127   2.782   7.733   4.816  1.5836 -1.3557  3.1889
  564MOL0     H76128   2.583   7.714   4.775  1.9002 -0.2111 -1.1696
  564MOL0     H76129   2.591   7.758   4.604  2.1528  4.8175 -1.6879
  564MOL0     H76130   2.364   7.819   4.581  0.4596 -0.3717 -0.2493
  564MOL0     H76131   2.344   7.805   4.760  0.7766  0.9805 -0.4571
  564MOL0     H76132   2.403   7.570   4.746  2.1373 -2.1734 -2.9354
  564MOL0     H76133   2.388   7.583   4.570 -0.8865 -0.5996  0.7411
  564MOL0     H76134   2.168   7.509   4.714 -0.3321 -1.2253 -0.3019
  564MOL0     H76135   2.169   7.677   4.758  0.2345  0.3158  0.1769
  564MOL0     H76136   2.023   7.709   4.361 -2.8222  0.9740  2.1088
  564MOL0     H76137   2.656   8.142   4.773  0.0586 -0.5771 -2.2796
  564MOL0     H76138   2.985   8.287   4.883 -0.6750 -0.6327  0.3606
  564MOL0     H76139   2.944   8.278   4.700 -1.8321  0.0344 -0.9463
  564MOL0     H76140   2.820   8.315   4.826 -1.3291 -2.3266 -0.5686
  565MOL0     O76141   7.449   0.579  10.681  0.1488 -0.1722  0.4132
  565MOL0     C76142   7.565   0.532  10.706  0.8533  0.5583  0.3371
  565MOL0     O76143   7.612   0.428  10.627 -0.4524 -0.4773  0.0028
  565MOL0     C76144   7.543   0.323  10.573 -0.7544 -0.0626  0.7292
  565MOL0     C76145   7.607   0.246  10.477 -0.4506 -0.6847 -0.3655
  565MOL0     C76146   7.536   0.176  10.386  0.4987 -0.4329  0.5222
  565MOL0     C76147   7.396   0.165  10.401 -0.5375 -0.5577 -0.5775
  565MOL0     O76148   7.321   0.096  10.309 -0.0596 -0.0570  0.1570
  565MOL0     C76149   7.275   0.173  10.204 -0.3561  1.6027 -1.0859
  565MOL0     C76150   7.222   0.078  10.091  0.2362  0.1411  0.1424
  565MOL0     C76151   7.198   0.157   9.964  0.4651  0.0392  0.4131
  565MOL0     C76152   7.167   0.066   9.847  0.2632  1.0434 -0.3563
  565MOL0     C76153   7.026  -0.000   9.874 -0.5438 -0.3288  0.1824
  565MOL0     C76154   6.971  -0.099   9.765 -0.7683  0.3173 -0.9242
  565MOL0     C76155   6.826  -0.136   9.789  0.2552  0.2362  0.1748
  565MOL0     C76156   6.751  -0.212   9.673 -0.1718  0.6043 -0.1793
  565MOL0     N76157   6.817  -0.342   9.657  0.2828 -0.4059 -0.4172
  565MOL0     C76158   6.895  -0.376   9.550 -1.5655  0.1975  0.6101
  565MOL0     C76159   6.929  -0.503   9.565 -0.7129 -0.0818  0.3064
  565MOL0     C76160   7.029  -0.586   9.489  0.8526  0.0155 -0.3573
  565MOL0     C76161   7.180  -0.572   9.524  0.2058  0.1423  0.3284
  565MOL0     C76162   7.245  -0.681   9.436  0.6161  0.6832  0.1540
  565MOL0     C76163   7.399  -0.697   9.459  0.2880 -0.9860  0.9877
  565MOL0     O76164   7.448  -0.564   9.452  0.0567  0.7025 -0.3393
  565MOL0     C76165   7.576  -0.558   9.501  0.0275 -0.9127  0.1327
  565MOL0     C76166   7.602  -0.544   9.643 -0.5755 -1.4076  0.2945
  565MOL0     C76167   7.726  -0.506   9.673  0.1317  0.9511 -0.7425
  565MOL0     C76168   7.834  -0.503   9.590 -1.0647  0.1450  0.2640
  565MOL0     C76169   7.970  -0.456   9.623 -0.1247  0.1866  0.4691
  565MOL0     O76170   8.059  -0.422   9.516 -0.4295  0.2161 -0.0284
  565MOL0     C76171   8.193  -0.389   9.548  0.1566  0.2535 -0.1549
  565MOL0     C76172   8.260  -0.449   9.652 -0.8177 -0.2152  0.4062
  565MOL0     C76173   8.396  -0.401   9.681  0.1610 -0.4085 -0.1888
  565MOL0     C76174   8.454  -0.303   9.599 -0.4932 -0.0529  0.4593
  565MOL0     O76175   8.590  -0.276   9.610  0.2691  1.0872 -0.6056
  565MOL0     C76176   8.644  -0.160   9.557  0.4658  0.3632  0.2645
  565MOL0     C76177   8.798  -0.148   9.581  0.6254 -0.3312 -0.5178
  565MOL0     C76178   8.867  -0.221   9.473 -0.1594  0.0858  0.4166
  565MOL0     C76179   9.020  -0.201   9.500  0.2505  1.0323  0.4733
  565MOL0     C76180   9.094  -0.317   9.432  0.4400  0.3617 -0.4963
  565MOL0     C76181   9.095  -0.306   9.279  0.2071  0.1061 -0.6822
  565MOL0     C76182   9.145  -0.434   9.196  0.1111  0.1241 -0.7616
  565MOL0     C76183   9.070  -0.564   9.229  0.6895 -0.7730  0.7421
  565MOL0    Cl76184   8.890  -0.548   9.203 -0.0467 -0.5024 -0.6550
  565MOL0     C76185   8.380  -0.243   9.495 -0.2241 -0.8420 -0.9241
  565MOL0     C76186   8.245  -0.281   9.475 -0.1410 -0.3598 -0.3578
  565MOL0     O76187   7.987  -0.419   9.742 -0.2849  0.1808  0.2702
  565MOL0     C76188   7.815  -0.537   9.458 -0.9799  0.8763 -1.0755
  565MOL0     C76189   7.678  -0.545   9.415 -0.8237  0.2506  0.2018
  565MOL0     N76190   6.881  -0.551   9.681 -0.1359 -0.1941  0.8594
  565MOL0     N76191   6.812  -0.454   9.734  0.1852 -0.0174  0.3755
  565MOL0     C76192   7.341   0.216  10.518  0.9798  0.0949  0.0649
  565MOL0     C76193   7.414   0.291  10.612  0.0146  0.2678  0.6184
  565MOL0     C76194   7.658   0.603  10.790 -0.3507 -1.1421 -1.2632
  565MOL0     C76195   7.644   0.745  10.783  1.0651 -0.0662  0.7956
  565MOL0     C76196   7.731   0.824  10.848 -0.8064 -0.1910 -0.7307
  565MOL0     C76197   7.837   0.763  10.919  0.0915  0.0842 -1.0102
  565MOL0     O76198   7.946   0.828  10.968 -0.3306 -0.1564 -0.3410
  565MOL0     C76199   7.976   0.972  10.979  0.5596 -0.5497 -0.0507
  565MOL0     C76200   7.923   1.023  11.115  0.7861  0.1154 -0.3357
  565MOL0     C76201   7.784   1.099  11.109  0.2813  0.2086  0.4384
  565MOL0     C76202   7.777   1.201  11.225  0.4367 -0.0778  0.8219
  565MOL0     C76203   7.718   1.142  11.341 -0.2300 -0.5243  0.4735
  565MOL0     C76204   7.662   1.092  11.435  0.9232 -0.1790 -0.0026
  565MOL0     C76205   7.841   0.626  10.938  0.1869  0.7951 -0.3610
  565MOL0     C76206   7.754   0.545  10.871 -0.4572  1.4638  0.0234
  565MOL0     C76207   7.770   0.396  10.880  0.2437 -0.3434  0.1401
  565MOL0     H76208   7.713   0.265  10.464 -0.5503  0.7544  0.6917
  565MOL0     H76209   7.574   0.118  10.302 -2.5412 -2.3538  0.3348
  565MOL0     H76210   7.194   0.235  10.243  1.1440  3.7108 -1.1573
  565MOL0     H76211   7.351   0.242  10.164  0.3118  2.1084  0.9429
  565MOL0     H76212   7.134   0.031  10.137 -0.8948  1.2839 -0.7744
  565MOL0     H76213   7.306   0.010  10.081 -0.6458 -1.3723  2.3088
  565MOL0     H76214   7.282   0.223   9.943  1.1794 -0.8681  0.3656
  565MOL0     H76215   7.115   0.225   9.987 -2.1518 -1.5143 -3.4584
  565MOL0     H76216   7.168   0.120   9.752 -1.2967  1.8338  0.0315
  565MOL0     H76217   7.243  -0.012   9.849 -2.2669 -1.5991  1.4079
  565MOL0     H76218   7.018  -0.043   9.974  0.5414 -0.6656  0.1374
  565MOL0     H76219   6.961   0.088   9.877 -0.6249 -0.3409 -0.8846
  565MOL0     H76220   6.967  -0.059   9.663 -1.2436 -0.4731 -1.2300
  565MOL0     H76221   7.029  -0.189   9.746 -3.1947 -1.4451 -0.5127
  565MOL0     H76222   6.765  -0.046   9.804  1.1506  0.9910 -0.5866
  565MOL0     H76223   6.818  -0.202   9.875 -1.9044 -1.0990 -0.9649
  565MOL0     H76224   6.649  -0.225   9.710  1.3681 -2.2832  3.7517
  565MOL0     H76225   6.760  -0.148   9.584 -2.2484  1.0993 -0.0719
  565MOL0     H76226   6.928  -0.309   9.470  0.4278 -1.6932 -0.2510
  565MOL0     H76227   6.996  -0.688   9.512  0.3794  0.5007  1.3081
  565MOL0     H76228   7.013  -0.561   9.384 -3.8224 -0.0116  0.1169
  565MOL0     H76229   7.217  -0.472   9.500 -0.8632  1.3790  3.3145
  565MOL0     H76230   7.190  -0.574   9.633 -2.5387 -1.7025  0.6554
  565MOL0     H76231   7.226  -0.665   9.329  0.4325 -2.6183 -0.4196
  565MOL0     H76232   7.202  -0.780   9.453 -0.2911  0.5171 -2.5209
  565MOL0     H76233   7.440  -0.767   9.385 -0.4767  1.8243 -2.3530
  565MOL0     H76234   7.401  -0.741   9.559 -1.7122 -0.8654  1.1359
  565MOL0     H76235   7.529  -0.564   9.721  0.6257 -0.7953  1.6042
  565MOL0     H76236   7.744  -0.480   9.777 -1.8625  2.0140 -0.6174
  565MOL0     H76237   8.223  -0.539   9.701  2.0035 -0.5766  2.1269
  565MOL0     H76238   8.461  -0.451   9.752  0.6759 -0.2359 -0.5294
  565MOL0     H76239   8.625  -0.155   9.450 -0.1426  0.7319  0.3860
  565MOL0     H76240   8.583  -0.085   9.609 -1.6031 -0.8279 -0.3226
  565MOL0     H76241   8.829  -0.043   9.585 -2.2060  0.5389  0.5076
  565MOL0     H76242   8.816  -0.198   9.677 -1.4903 -1.9494 -0.8881
  565MOL0     H76243   8.831  -0.323   9.485 -1.7607  0.6656  0.7357
  565MOL0     H76244   8.836  -0.197   9.371 -2.5507 -1.8770  0.6041
  565MOL0     H76245   9.043  -0.216   9.606 -0.5840  0.3194  0.5637
  565MOL0     H76246   9.048  -0.104   9.457  2.4411 -0.8586 -2.8232
  565MOL0     H76247   9.042  -0.407   9.466 -0.3127  0.4525 -1.3660
  565MOL0     H76248   9.198  -0.328   9.465  0.7057 -2.8106 -2.0390
  565MOL0     H76249   8.991  -0.288   9.250 -0.3087  0.8149  1.3619
  565MOL0     H76250   9.151  -0.216   9.251  0.8284 -0.4714 -1.3455
  565MOL0     H76251   9.253  -0.442   9.215 -0.0787  0.0848  0.4116
  565MOL0     H76252   9.123  -0.423   9.090 -2.7949  2.2755 -0.0564
  565MOL0     H76253   9.101  -0.645   9.163  2.2324 -0.7154  1.3438
  565MOL0     H76254   9.094  -0.597   9.331 -2.1591  1.3790  2.2774
  565MOL0     H76255   8.425  -0.171   9.427  1.2369 -0.5423  0.3189
  565MOL0     H76256   8.190  -0.222   9.402  0.9010  2.1535  0.7641
  565MOL0     H76257   7.889  -0.535   9.379 -1.7303  0.0624 -1.8125
  565MOL0     H76258   7.650  -0.549   9.310  0.0831  0.4810 -0.0583
  565MOL0     H76259   7.234   0.202  10.523  0.9570  0.2336 -0.0384
  565MOL0     H76260   7.364   0.347  10.690 -1.8676  2.8494 -2.1882
  565MOL0     H76261   7.566   0.789  10.722  1.7270  1.5900  1.0960
  565MOL0     H76262   7.726   0.932  10.836 -5.6547 -0.0014  0.8439
  565MOL0     H76263   7.928   1.022  10.895 -2.9620 -3.0549  0.2604
  565MOL0     H76264   8.084   0.986  10.976  0.2384  2.7223  0.2879
  565MOL0     H76265   8.002   1.087  11.155 -0.1146  0.2596  1.2929
  565MOL0     H76266   7.914   0.949  11.195  0.6241 -1.2367 -1.5761
  565MOL0     H76267   7.704   1.025  11.108  2.9809 -3.1769 -3.9542
  565MOL0     H76268   7.785   1.148  11.011 -1.6756 -1.9718 -0.7495
  565MOL0     H76269   7.879   1.237  11.236  0.5207 -0.4891  1.3863
  565MOL0     H76270   7.713   1.287  11.204 -2.0345 -2.0194 -0.1801
  565MOL0     H76271   7.613   1.051  11.521  2.6863 -1.1613  0.5750
  565MOL0     H76272   7.933   0.590  10.982 -1.1950 -0.8138  1.4001
  565MOL0     H76273   7.843   0.368  10.804 -3.7910 -2.7544 -3.2649
  565MOL0     H76274   7.824   0.357  10.967 -0.3383 -2.2426 -0.3099
  565MOL0     H76275   7.679   0.336  10.869  0.6237 -0.5935 -2.0793
  566MOL0     O76276   2.017   0.864  10.779 -0.0320 -0.2574  0.2784
  566MOL0     C76277   2.014   0.756  10.836 -0.4418  1.1294  0.0183
  566MOL0     O76278   2.121   0.698  10.895  0.1430  0.1324 -0.6081
  566MOL0     C76279   2.239   0.755  10.886 -0.0529 -0.2071  0.6969
  566MOL0     C76280   2.277   0.834  10.996 -0.4559  0.6572  1.1720
  566MOL0     C76281   2.403   0.892  10.994  0.2008 -0.4059  0.2306
  566MOL0     C76282   2.490   0.862  10.888 -0.0195 -0.7626  0.9833
  566MOL0     O76283   2.615   0.926  10.913 -0.3501  0.1176  0.4355
  566MOL0     C76284   2.683   0.987  10.809  0.1199  0.0910  0.2268
  566MOL0     C76285   2.740   1.113  10.865  0.1071 -0.1986 -0.5061
  566MOL0     C76286   2.799   1.215  10.776  0.3770 -0.4549  0.5773
  566MOL0     C76287   2.862   1.330  10.856 -0.3399  0.2909  0.4519
  566MOL0     C76288   2.898   1.447  10.770  0.5419  0.0718  0.1490
  566MOL0     C76289   3.019   1.420  10.680  0.1916  0.3200  0.3287
  566MOL0     C76290   3.074   1.553  10.621 -0.0675  0.1782 -0.2689
  566MOL0     C76291   3.142   1.528  10.482  0.0551 -1.2396  0.2075
  566MOL0     N76292   3.050   1.475  10.380 -0.3700 -0.1509  0.7640
  566MOL0     C76293   2.928   1.543  10.354  0.4727 -0.3056  0.2931
  566MOL0     C76294   2.852   1.451  10.285  0.4510 -0.0827  0.1632
  566MOL0     C76295   2.712   1.453  10.226 -0.0786 -0.0446  0.5267
  566MOL0     C76296   2.728   1.504  10.081 -0.9507 -0.2592  0.3205
  566MOL0     C76297   2.613   1.476   9.982 -0.3437 -0.3648  0.0053
  566MOL0     C76298   2.509   1.594   9.990  0.3022  0.2142 -0.7575
  566MOL0     O76299   2.443   1.598  10.119  0.7034 -1.0144  0.2468
  566MOL0     C76300   2.334   1.520  10.145 -0.1785 -0.6883 -0.0074
  566MOL0     C76301   2.277   1.419  10.059  0.3283 -0.3215  0.0103
  566MOL0     C76302   2.167   1.341  10.097 -0.0250 -0.7331  0.6416
  566MOL0     C76303   2.092   1.374  10.208 -0.1064 -0.6112 -0.5485
  566MOL0     C76304   1.964   1.308  10.244  0.6378  0.6527 -0.5499
  566MOL0     O76305   1.917   1.337  10.366 -0.3826  0.0888 -0.7796
  566MOL0     C76306   1.801   1.264  10.401 -0.6965  0.8691 -0.2908
  566MOL0     C76307   1.816   1.129  10.444  0.6587 -0.5848  0.9984
  566MOL0     C76308   1.706   1.044  10.447  0.3899  0.2044  0.5940
  566MOL0     C76309   1.569   1.098  10.425 -0.7258 -0.0985 -0.3577
  566MOL0     O76310   1.458   1.021  10.439 -0.7143 -0.6921 -0.1837
  566MOL0     C76311   1.355   1.013  10.345 -0.7782  0.7656  0.2284
  566MOL0     C76312   1.257   0.899  10.395  0.2292 -0.6247  0.2221
  566MOL0     C76313   1.303   0.758  10.366 -0.1422 -1.4199 -0.3261
  566MOL0     C76314   1.191   0.667  10.423  0.2407  0.1779 -0.6623
  566MOL0     C76315   1.152   0.699  10.577  0.2163  0.4419 -0.1560
  566MOL0     C76316   1.041   0.600  10.629 -0.5163  0.9275  0.5711
  566MOL0     C76317   1.018   0.617  10.776 -0.6914 -0.0858  0.4883
  566MOL0     C76318   0.917   0.723  10.808  0.7668 -0.0045  0.3480
  566MOL0    Cl76319   0.762   0.649  10.744 -0.5999  0.1484 -0.1123
  566MOL0     C76320   1.560   1.239  10.386  0.1894 -0.1657  0.0018
  566MOL0     C76321   1.677   1.315  10.369  0.8254  0.1987  0.8441
  566MOL0     O76322   1.919   1.224  10.164  0.1638  0.3817  0.4325
  566MOL0     C76323   2.157   1.455  10.304  1.0072 -0.8288  0.2898
  566MOL0     C76324   2.270   1.533  10.276  0.0007  0.5161  0.5429
  566MOL0     N76325   2.937   1.346  10.255  0.2533 -0.3650 -0.7248
  566MOL0     N76326   3.049   1.356  10.320  0.3154  0.1070 -0.0653
  566MOL0     C76327   2.448   0.792  10.778 -0.5037  0.5312 -0.0915
  566MOL0     C76328   2.322   0.736  10.779 -0.1511  0.3621 -0.7963
  566MOL0     C76329   1.888   0.693  10.859 -0.1941 -0.3290  0.3760
  566MOL0     C76330   1.778   0.743  10.780 -0.5281  0.1301 -0.6100
  566MOL0     C76331   1.647   0.692  10.795 -0.6209  0.7256 -0.4127
  566MOL0     C76332   1.622   0.596  10.889  0.1916  0.3548  0.1903
  566MOL0     O76333   1.493   0.571  10.908  0.4379 -0.9230 -0.8466
  566MOL0     C76334   1.449   0.648  11.024  0.1084 -0.2461  0.6881
  566MOL0     C76335   1.388   0.549  11.126  0.1402 -0.0717 -0.0628
  566MOL0     C76336   1.388   0.599  11.271 -0.5864  0.2136  0.2590
  566MOL0     C76337   1.247   0.623  11.323  0.3246  0.7543 -1.1443
  566MOL0     C76338   1.180   0.724  11.246 -0.0627 -0.1574 -0.9441
  566MOL0     C76339   1.134   0.822  11.188 -0.3286  0.9267 -0.0808
  566MOL0     C76340   1.722   0.537  10.962  0.7333  0.7498  0.2167
  566MOL0     C76341   1.853   0.587  10.951  0.0146 -0.0049  0.7043
  566MOL0     C76342   1.951   0.552  11.063  0.5309 -0.0752  0.7555
  566MOL0     H76343   2.206   0.860  11.074 -1.2049 -0.8605  1.0485
  566MOL0     H76344   2.448   0.958  11.068  2.1448 -2.5579  1.1130
  566MOL0     H76345   2.761   0.921  10.770 -2.6619 -2.5966 -1.1941
  566MOL0     H76346   2.623   1.030  10.728  4.0486  3.2157 -1.3668
  566MOL0     H76347   2.811   1.080  10.941 -1.8359 -0.0916  1.4517
  566MOL0     H76348   2.666   1.169  10.924  1.3205  1.4027 -0.4502
  566MOL0     H76349   2.717   1.245  10.710  0.6957  1.1071  0.8603
  566MOL0     H76350   2.869   1.157  10.715  1.9688  0.4750  1.4625
  566MOL0     H76351   2.786   1.365  10.927 -0.6206 -2.1352  1.4320
  566MOL0     H76352   2.952   1.300  10.911 -0.0419 -1.2761 -0.8280
  566MOL0     H76353   2.821   1.487  10.704  0.3662  0.7293  0.7542
  566MOL0     H76354   2.915   1.528  10.841 -2.1865  1.2713 -0.4542
  566MOL0     H76355   3.101   1.366  10.727  2.7719  3.9842  0.4269
  566MOL0     H76356   3.000   1.363  10.588  0.5450  2.0300 -0.8473
  566MOL0     H76357   3.143   1.593  10.696 -1.1920 -0.7897  1.3469
  566MOL0     H76358   2.999   1.632  10.614 -0.4668  0.3634  3.7052
  566MOL0     H76359   3.197   1.617  10.450  2.9815 -2.3791  1.6096
  566MOL0     H76360   3.225   1.457  10.494 -0.3752 -1.6196  0.9467
  566MOL0     H76361   2.910   1.647  10.379 -1.6053 -0.0062 -2.0299
  566MOL0     H76362   2.665   1.354  10.230 -0.0416 -0.3158 -2.8796
  566MOL0     H76363   2.646   1.526  10.274  0.0728  2.0441 -2.2279
  566MOL0     H76364   2.742   1.612  10.094  0.7163  0.1817 -3.6893
  566MOL0     H76365   2.821   1.455  10.050  0.5059  1.0798  2.3143
  566MOL0     H76366   2.558   1.382   9.989 -0.8329 -0.2871 -2.0468
  566MOL0     H76367   2.647   1.476   9.878 -1.6324  0.5159 -0.4414
  566MOL0     H76368   2.432   1.585   9.913 -0.3166  0.5307 -0.1931
  566MOL0     H76369   2.560   1.691   9.991  0.2403  0.2813  1.7891
  566MOL0     H76370   2.323   1.390   9.965 -0.8174 -0.1808 -0.6108
  566MOL0     H76371   2.127   1.279  10.018 -0.8885  1.7881 -1.0520
  566MOL0     H76372   1.913   1.100  10.484  1.9383  0.1970 -1.3291
  566MOL0     H76373   1.716   0.940  10.477  1.6081 -0.4559 -1.8399
  566MOL0     H76374   1.312   1.113  10.340 -0.0182  1.1436  0.9498
  566MOL0     H76375   1.395   0.978  10.250 -0.8038 -0.6681  0.7205
  566MOL0     H76376   1.252   0.907  10.504 -1.0707  0.0473  0.1359
  566MOL0     H76377   1.157   0.916  10.354  1.1402 -1.5878 -2.6034
  566MOL0     H76378   1.312   0.738  10.259 -1.3471  1.3500 -1.0283
  566MOL0     H76379   1.388   0.725  10.426 -1.3141 -1.3368  1.4472
  566MOL0     H76380   1.213   0.561  10.407 -0.3661 -0.0050 -0.3349
  566MOL0     H76381   1.101   0.698  10.369  0.7107  2.5869 -0.1617
  566MOL0     H76382   1.106   0.798  10.584 -0.6625  0.1484 -1.5168
  566MOL0     H76383   1.237   0.707  10.646 -0.3243  5.3223  0.2974
  566MOL0     H76384   0.950   0.613  10.571 -0.5982 -1.2635  0.1068
  566MOL0     H76385   1.068   0.495  10.613 -0.4588  0.7770  1.5938
  566MOL0     H76386   1.105   0.650  10.833  1.5011 -3.3613 -0.6914
  566MOL0     H76387   0.985   0.518  10.809  1.0190 -0.8894 -0.1172
  566MOL0     H76388   0.925   0.752  10.913 -0.7629  0.3799  0.3857
  566MOL0     H76389   0.940   0.808  10.744  0.7349 -0.7637 -0.7027
  566MOL0     H76390   1.465   1.289  10.372  0.2393  0.4591  1.6408
  566MOL0     H76391   1.662   1.420  10.347 -0.8811 -0.2266 -0.1728
  566MOL0     H76392   2.116   1.470  10.404  1.7681 -2.1255  0.8217
  566MOL0     H76393   2.331   1.590  10.345  1.0005 -1.1272  1.0538
  566MOL0     H76394   2.529   0.780  10.706 -0.9713 -1.1361 -0.3824
  566MOL0     H76395   2.276   0.688  10.692  1.8237  0.7807 -2.1279
  566MOL0     H76396   1.806   0.819  10.708  1.2912 -0.7818 -0.9138
  566MOL0     H76397   1.574   0.738  10.728  1.4869  4.7323 -0.2686
  566MOL0     H76398   1.371   0.715  10.986  0.7626 -0.7803 -1.8526
  566MOL0     H76399   1.530   0.695  11.081  1.6203 -0.2146 -1.3657
  566MOL0     H76400   1.446   0.458  11.107  0.4665  0.1966 -0.3530
  566MOL0     H76401   1.282   0.526  11.113 -0.0101  0.2285  0.5650
  566MOL0     H76402   1.446   0.687  11.298 -1.5965  0.3135  2.3079
  566MOL0     H76403   1.429   0.517  11.331 -0.1886  1.9088  2.4591
  566MOL0     H76404   1.188   0.534  11.302  0.0492  0.6212  0.1149
  566MOL0     H76405   1.246   0.642  11.431  1.2543 -0.7930 -0.8419
  566MOL0     H76406   1.080   0.906  11.152 -0.4150  1.9933  2.3206
  566MOL0     H76407   1.707   0.445  11.017  0.1309 -0.7564 -2.3443
  566MOL0     H76408   2.045   0.509  11.028 -1.2876 -2.8696 -1.2365
  566MOL0     H76409   1.973   0.634  11.131 -1.1600 -0.0809  1.3705
  566MOL0     H76410   1.914   0.466  11.120 -0.8955 -2.3031 -3.1522
  567MOL0     O76411   8.621   1.374   3.580  0.4421 -0.4115 -0.2365
  567MOL0     C76412   8.719   1.301   3.597  0.1157  0.0558  0.8964
  567MOL0     O76413   8.708   1.165   3.604 -0.8006  0.1929 -0.5921
  567MOL0     C76414   8.592   1.105   3.604  0.0268  0.0699 -0.0179
  567MOL0     C76415   8.509   1.096   3.493  0.7891 -1.0447  0.2891
  567MOL0     C76416   8.384   1.036   3.511  0.4139  0.4715 -0.2489
  567MOL0     C76417   8.326   0.980   3.630 -0.1932  1.5331  0.9018
  567MOL0     O76418   8.200   0.913   3.641  0.7607 -0.1590 -0.4630
  567MOL0     C76419   8.158   0.871   3.769 -0.4739  0.2894  0.5776
  567MOL0     C76420   8.051   0.765   3.749  0.0842 -0.2922  0.3549
  567MOL0     C76421   7.975   0.739   3.878 -0.9307 -1.1141 -0.6504
  567MOL0     C76422   7.881   0.619   3.853 -0.2304 -1.4786 -0.1766
  567MOL0     C76423   7.824   0.577   3.995 -0.4606 -0.6198 -0.2975
  567MOL0     C76424   7.709   0.483   3.972  0.5528 -0.0580  0.8095
  567MOL0     C76425   7.742   0.373   3.887 -0.3453 -0.3304  0.7032
  567MOL0     C76426   7.618   0.275   3.890 -0.1200 -0.3043 -0.3814
  567MOL0     N76427   7.645   0.152   3.821 -0.3480 -0.3464 -0.3793
  567MOL0     C76428   7.682   0.123   3.692 -0.8848  0.3910 -0.0518
  567MOL0     C76429   7.713  -0.007   3.684  0.3423  0.1344 -0.0480
  567MOL0     C76430   7.756  -0.078   3.559  0.0741 -0.7327 -0.1323
  567MOL0     C76431   7.901  -0.128   3.560 -0.3914 -0.0276  0.2290
  567MOL0     C76432   8.019  -0.031   3.550 -0.0272 -0.6739 -0.1881
  567MOL0     C76433   8.149  -0.112   3.540  0.0353 -0.5947 -0.0349
  567MOL0     O76434   8.160  -0.152   3.406  0.3354 -0.4009  0.1562
  567MOL0     C76435   8.291  -0.186   3.375  0.1896 -0.2914 -0.0610
  567MOL0     C76436   8.300  -0.218   3.241  1.2262  0.7781 -0.5490
  567MOL0     C76437   8.425  -0.244   3.184  0.2273 -0.2924 -0.4583
  567MOL0     C76438   8.539  -0.258   3.275 -0.5400  0.3088 -0.1248
  567MOL0     C76439   8.671  -0.305   3.219 -0.3828 -1.0976  0.4911
  567MOL0     O76440   8.776  -0.306   3.316  0.2193 -0.3746 -0.3347
  567MOL0     C76441   8.905  -0.364   3.295  0.3203 -0.0009 -0.6354
  567MOL0     C76442   8.990  -0.372   3.412  0.1323 -0.4777  1.0332
  567MOL0     C76443   9.096  -0.470   3.415  0.6689 -0.3920  0.0009
  567MOL0     C76444   9.119  -0.570   3.323 -0.1942 -0.3417  0.1863
  567MOL0     O76445   9.207  -0.667   3.339  0.5811  0.8152  1.0040
  567MOL0     C76446   9.271  -0.675   3.468  0.4689  0.2827  0.2477
  567MOL0     C76447   9.363  -0.798   3.463  0.0926 -0.4746  0.1593
  567MOL0     C76448   9.473  -0.763   3.355  0.5067 -0.0600  0.5572
  567MOL0     C76449   9.590  -0.871   3.353 -0.5051  0.8279 -0.8872
  567MOL0     C76450   9.672  -0.860   3.476 -0.2904 -0.0411 -0.7584
  567MOL0     C76451   9.804  -0.947   3.468  0.5255  0.0552  0.2970
  567MOL0     C76452   9.898  -0.941   3.585  0.4808 -0.2835 -0.0874
  567MOL0     C76453  10.032  -1.014   3.550  0.8870  0.6605  0.3476
  567MOL0    Cl76454  10.023  -1.197   3.575  0.2914  0.4637  0.0936
  567MOL0     C76455   9.044  -0.557   3.208  1.0347  0.1511  0.5554
  567MOL0     C76456   8.943  -0.458   3.196 -0.1653 -1.7058  0.2138
  567MOL0     O76457   8.684  -0.332   3.098 -0.5762  0.4515  0.1638
  567MOL0     C76458   8.525  -0.224   3.406 -0.1608 -0.8683 -0.6659
  567MOL0     C76459   8.403  -0.185   3.461  0.3493  0.9735  0.4619
  567MOL0     N76460   7.689  -0.061   3.812 -0.3429 -0.3511  0.1686
  567MOL0     N76461   7.652   0.036   3.891  0.1180  0.2389 -0.2321
  567MOL0     C76462   8.419   0.984   3.735 -0.1358  0.4374 -0.1733
  567MOL0     C76463   8.547   1.042   3.720  0.1279 -0.5548 -0.5475
  567MOL0     C76464   8.854   1.349   3.635  0.0272 -1.1257 -0.3576
  567MOL0     C76465   8.967   1.270   3.597  0.3253  0.5373 -0.2431
  567MOL0     C76466   9.091   1.295   3.648 -0.0326  0.2026  0.0858
  567MOL0     C76467   9.117   1.404   3.734 -0.2173  0.3332 -0.2059
  567MOL0     O76468   9.240   1.428   3.796  0.6134 -0.3371  0.5970
  567MOL0     C76469   9.359   1.372   3.723  0.2888 -0.4831 -0.4333
  567MOL0     C76470   9.485   1.435   3.787 -0.7572 -1.0730 -1.2579
  567MOL0     C76471   9.493   1.423   3.949 -0.0158 -0.1865 -0.0366
  567MOL0     C76472   9.598   1.508   4.021  0.9447 -0.7727  0.6931
  567MOL0     C76473   9.731   1.489   3.960  1.0696 -0.3115  0.4521
  567MOL0     C76474   9.838   1.464   3.903  0.1969 -0.4011 -0.6054
  567MOL0     C76475   9.005   1.490   3.759 -0.7431  0.4373 -0.6103
  567MOL0     C76476   8.877   1.461   3.708 -0.6195  0.1770  0.0575
  567MOL0     C76477   8.773   1.569   3.748  0.0582 -0.5964 -0.1436
  567MOL0     H76478   8.531   1.146   3.399  1.5558 -1.6370  0.1417
  567MOL0     H76479   8.323   1.028   3.421 -1.2463  0.8158  0.8011
  567MOL0     H76480   8.238   0.826   3.827  0.4472 -1.1026 -1.6280
  567MOL0     H76481   8.121   0.954   3.830 -3.0214 -0.5884  0.3649
  567MOL0     H76482   8.116   0.680   3.729  2.6545  1.6268  0.0598
  567MOL0     H76483   7.983   0.787   3.667  1.7138  1.5229 -0.6034
  567MOL0     H76484   7.918   0.827   3.910 -1.3455 -1.2957 -0.8948
  567MOL0     H76485   8.053   0.715   3.952 -0.2931  0.4477 -0.7735
  567MOL0     H76486   7.799   0.656   3.790  0.1940 -1.1208 -0.5230
  567MOL0     H76487   7.926   0.539   3.792 -1.7594 -2.9829  0.5720
  567MOL0     H76488   7.900   0.535   4.062  0.5245 -2.3041 -2.3702
  567MOL0     H76489   7.788   0.661   4.055  0.8239 -1.7413  2.1990
  567MOL0     H76490   7.680   0.451   4.073 -2.4168  2.0093  0.7347
  567MOL0     H76491   7.630   0.544   3.929  0.2150  0.1495  1.7066
  567MOL0     H76492   7.835   0.331   3.926  0.8007  1.3937 -0.0052
  567MOL0     H76493   7.756   0.416   3.787 -0.9364  1.4990  1.3526
  567MOL0     H76494   7.577   0.257   3.990 -3.3064  3.4399 -0.7681
  567MOL0     H76495   7.535   0.318   3.833 -1.2878 -1.4611  0.3795
  567MOL0     H76496   7.676   0.187   3.604 -4.6424 -2.2318 -2.0061
  567MOL0     H76497   7.685  -0.160   3.544  0.2443 -0.7759 -0.7270
  567MOL0     H76498   7.748  -0.028   3.462  2.2279 -0.9073 -0.4320
  567MOL0     H76499   7.916  -0.200   3.641  2.8576 -0.3313 -0.5353
  567MOL0     H76500   7.902  -0.194   3.473  0.6348  0.9683 -0.5333
  567MOL0     H76501   8.031   0.030   3.640 -1.5677  0.4914 -0.7208
  567MOL0     H76502   8.007   0.036   3.464 -3.2672 -0.2405  0.4721
  567MOL0     H76503   8.158  -0.187   3.619 -1.1301 -2.2942 -1.4321
  567MOL0     H76504   8.229  -0.039   3.552 -0.4086 -0.4119  2.2159
  567MOL0     H76505   8.216  -0.207   3.174  0.9385  3.0051  0.0817
  567MOL0     H76506   8.416  -0.261   3.077  0.2019  2.2751 -0.9406
  567MOL0     H76507   8.957  -0.311   3.494  0.9301  0.5304  0.6277
  567MOL0     H76508   9.144  -0.466   3.512  2.8580  0.9602 -1.0662
  567MOL0     H76509   9.335  -0.586   3.481  1.0949 -0.0646 -0.4029
  567MOL0     H76510   9.203  -0.673   3.553 -1.6784 -1.5405 -1.3178
  567MOL0     H76511   9.404  -0.808   3.563  0.8737  0.1442 -0.0952
  567MOL0     H76512   9.301  -0.886   3.444  3.1232 -2.8075  0.3310
  567MOL0     H76513   9.430  -0.752   3.255  1.4398  1.2663  0.2868
  567MOL0     H76514   9.520  -0.666   3.372  1.8604  0.6651 -5.0461
  567MOL0     H76515   9.654  -0.855   3.266 -0.5687 -0.1488 -1.1279
  567MOL0     H76516   9.561  -0.976   3.363 -1.4722  0.7503 -3.6537
  567MOL0     H76517   9.611  -0.887   3.563  1.2996  4.8645  2.2548
  567MOL0     H76518   9.695  -0.758   3.506  2.1478 -0.1754 -1.9040
  567MOL0     H76519   9.773  -1.052   3.469 -1.8387  0.6598  2.4627
  567MOL0     H76520   9.856  -0.920   3.376 -2.7858  2.7217 -1.0224
  567MOL0     H76521   9.850  -0.971   3.678 -1.1910  1.1394 -0.4499
  567MOL0     H76522   9.930  -0.837   3.582 -0.2948 -0.0423 -2.7531
  567MOL0     H76523  10.042  -1.002   3.442 -4.0738 -0.7985 -0.5473
  567MOL0     H76524  10.126  -0.984   3.596  0.4437  0.8773  1.1368
  567MOL0     H76525   9.053  -0.628   3.127  0.5581  1.9912 -1.2044
  567MOL0     H76526   8.890  -0.468   3.102 -1.1891 -1.1864  0.7270
  567MOL0     H76527   8.617  -0.219   3.464  1.2025  2.2127 -2.8581
  567MOL0     H76528   8.404  -0.163   3.567  0.6792  2.3244  0.1964
  567MOL0     H76529   8.401   0.956   3.838 -1.3771 -1.6863 -0.9036
  567MOL0     H76530   8.609   1.049   3.809  1.5315  0.3437 -1.5570
  567MOL0     H76531   8.953   1.190   3.524  2.6429 -0.1518 -0.0153
  567MOL0     H76532   9.157   1.217   3.610 -1.9157 -0.7565 -1.3760
  567MOL0     H76533   9.370   1.407   3.620  1.5373  1.6160  0.3423
  567MOL0     H76534   9.356   1.263   3.713 -2.1779 -0.5024 -0.2532
  567MOL0     H76535   9.475   1.543   3.771  0.8675 -0.5170  0.8932
  567MOL0     H76536   9.584   1.413   3.744  0.3177  3.0996 -1.3798
  567MOL0     H76537   9.502   1.317   3.974  1.5458 -0.1647 -0.3642
  567MOL0     H76538   9.396   1.454   3.989  0.8464  4.3890 -0.9071
  567MOL0     H76539   9.583   1.617   4.029  0.5221 -0.7285 -0.5686
  567MOL0     H76540   9.611   1.473   4.124  1.4797 -1.5139  0.3749
  567MOL0     H76541   9.915   1.422   3.842 -1.6572 -1.1474 -2.5420
  567MOL0     H76542   9.033   1.572   3.824 -0.0110 -1.2865  1.4136
  567MOL0     H76543   8.827   1.628   3.824  1.1857 -0.5390 -0.9562
  567MOL0     H76544   8.750   1.634   3.663 -1.3739  0.3486  0.9064
  567MOL0     H76545   8.693   1.514   3.797 -0.4991 -0.9932 -1.4593
  568MOL0     O76546  10.000   1.383   1.881 -0.2322 -0.5339  0.0576
  568MOL0     C76547   9.948   1.297   1.950  0.1206  0.0770  0.3642
  568MOL0     O76548  10.010   1.186   1.999  0.1992 -0.2756  0.1237
  568MOL0     C76549  10.141   1.161   1.970  0.6239  0.2984 -0.1740
  568MOL0     C76550  10.177   1.042   1.901 -0.3683  0.0875 -0.4645
  568MOL0     C76551  10.317   1.021   1.868  0.2698  1.2589 -0.3377
  568MOL0     C76552  10.409   1.113   1.906 -0.3669  0.0985 -0.1677
  568MOL0     O76553  10.535   1.095   1.845 -0.5432  0.2271 -0.8469
  568MOL0     C76554  10.646   1.170   1.898 -0.4597 -0.5330  0.3879
  568MOL0     C76555  10.763   1.131   1.818 -0.9267  0.4837  0.9534
  568MOL0     C76556  10.818   0.982   1.840  0.9615 -0.5878 -0.2305
  568MOL0     C76557  10.956   0.959   1.777 -0.6890 -0.2465 -0.5774
  568MOL0     C76558  10.963   0.811   1.748 -0.1925 -0.7805 -0.1035
  568MOL0     C76559  11.104   0.753   1.706  0.2878 -0.5781 -0.0475
  568MOL0     C76560  11.090   0.602   1.657  0.5780 -0.9298 -0.2765
  568MOL0     C76561  11.213   0.527   1.613  0.6740  0.2834  0.1854
  568MOL0     N76562  11.223   0.385   1.644  0.3777 -0.0229  0.1435
  568MOL0     C76563  11.159   0.273   1.600 -0.1260 -0.0489 -0.4107
  568MOL0     C76564  11.197   0.181   1.696 -0.2525  0.0562  0.3035
  568MOL0     C76565  11.139   0.037   1.714 -0.0632 -0.7010  0.1138
  568MOL0     C76566  11.045  -0.007   1.831 -0.5131  0.6347  0.5397
  568MOL0     C76567  10.892   0.034   1.816 -0.1145  0.5137 -0.0403
  568MOL0     C76568  10.868   0.174   1.844  0.4425 -1.1833  0.2977
  568MOL0     O76569  10.868   0.209   1.989  0.5504 -0.4316  0.4891
  568MOL0     C76570  10.785   0.161   2.086  0.6162  0.3677  0.3468
  568MOL0     C76571  10.669   0.081   2.060 -0.8488 -0.5640 -0.0204
  568MOL0     C76572  10.561   0.070   2.151  0.5096  0.1384 -0.3374
  568MOL0     C76573  10.569   0.127   2.282  0.1670  1.1817  1.1557
  568MOL0     C76574  10.465   0.116   2.387 -0.9944 -0.2797 -1.0079
  568MOL0     O76575  10.479   0.213   2.488 -0.5403 -0.8369 -0.0242
  568MOL0     C76576  10.379   0.215   2.581 -0.0861 -0.3543 -0.0111
  568MOL0     C76577  10.391   0.139   2.698  0.2212  0.4831 -0.3871
  568MOL0     C76578  10.299   0.154   2.798 -0.7456  0.1292  0.2980
  568MOL0     C76579  10.189   0.232   2.788  0.5796 -0.1523  0.7576
  568MOL0     O76580  10.107   0.239   2.900 -0.1414 -0.4289  0.3697
  568MOL0     C76581  10.058   0.373   2.937 -0.4656 -0.7622  0.1183
  568MOL0     C76582  10.159   0.498   2.930  0.1322  0.7923 -0.2023
  568MOL0     C76583  10.124   0.622   3.018  0.7255 -0.0107  0.1597
  568MOL0     C76584  10.224   0.734   2.999 -0.1320  0.0222 -0.6403
  568MOL0     C76585  10.326   0.744   3.108  0.0104  0.5730 -0.4747
  568MOL0     C76586  10.419   0.863   3.094 -0.0250 -0.2574 -0.0541
  568MOL0     C76587  10.521   0.873   2.976 -0.1456  0.1822  0.5750
  568MOL0     C76588  10.611   0.755   2.945  0.5582  0.1932  0.1725
  568MOL0    Cl76589  10.744   0.741   3.058 -0.0068  0.1532 -0.1247
  568MOL0     C76590  10.170   0.300   2.660  0.3486  0.0066  0.2196
  568MOL0     C76591  10.267   0.294   2.560  0.3951 -0.2989 -0.2604
  568MOL0     O76592  10.368   0.043   2.376 -0.1952  0.3543 -0.1436
  568MOL0     C76593  10.693   0.205   2.305  0.8253  0.2814  0.7328
  568MOL0     C76594  10.793   0.223   2.208 -0.9645 -0.0290 -0.1989
  568MOL0     N76595  11.288   0.238   1.781 -0.1078  0.7480 -0.2685
  568MOL0     N76596  11.295   0.359   1.756 -0.1503 -0.0391  0.0372
  568MOL0     C76597  10.370   1.216   1.993  0.1472 -0.2253 -0.2932
  568MOL0     C76598  10.237   1.242   2.031 -0.2917 -0.7341  1.1401
  568MOL0     C76599   9.805   1.308   1.962  0.4609 -0.1116 -0.1991
  568MOL0     C76600   9.753   1.255   2.090  0.1681 -0.3338  0.6783
  568MOL0     C76601   9.627   1.293   2.134  0.5708  0.5673  0.4931
  568MOL0     C76602   9.539   1.365   2.055 -0.3767  0.5762 -0.0961
  568MOL0     O76603   9.427   1.440   2.093 -0.2096 -0.7458 -0.4243
  568MOL0     C76604   9.369   1.430   2.223  0.4386 -0.5287 -0.6858
  568MOL0     C76605   9.262   1.539   2.236  0.4905 -0.4471  0.2633
  568MOL0     C76606   9.158   1.504   2.331  1.4140  0.2152  0.3445
  568MOL0     C76607   9.089   1.628   2.386  0.5713  0.0044  0.6317
  568MOL0     C76608   8.976   1.599   2.481  0.2940 -1.2205  0.9070
  568MOL0     C76609   8.874   1.587   2.546  0.0465  0.7069 -0.2297
  568MOL0     C76610   9.575   1.397   1.930  1.2095 -1.1305 -0.2402
  568MOL0     C76611   9.712   1.381   1.879 -1.2116  0.2153 -0.5903
  568MOL0     C76612   9.755   1.436   1.745  0.2197 -0.6010  0.8673
  568MOL0     H76613  10.093   0.998   1.848  0.3591 -0.0878 -1.4927
  568MOL0     H76614  10.328   0.935   1.802 -1.7060  0.2585  0.5491
  568MOL0     H76615  10.613   1.274   1.896 -2.4398 -0.9361  3.7525
  568MOL0     H76616  10.674   1.151   2.002 -1.6665  1.8173  1.2118
  568MOL0     H76617  10.853   1.188   1.842 -0.9302  0.8094  0.2314
  568MOL0     H76618  10.746   1.148   1.711  2.0873  0.4834  0.3785
  568MOL0     H76619  10.744   0.915   1.794 -0.5754  0.2927  0.8420
  568MOL0     H76620  10.814   0.951   1.945  1.6117  0.8112  0.2297
  568MOL0     H76621  10.984   1.014   1.687  1.4233 -3.4559 -2.0519
  568MOL0     H76622  11.028   0.974   1.859 -2.1058  0.1403  0.6504
  568MOL0     H76623  10.925   0.762   1.839 -1.1014  0.6847  0.3320
  568MOL0     H76624  10.903   0.788   1.660 -0.4768 -0.6759  0.0611
  568MOL0     H76625  11.128   0.810   1.615 -2.6884 -1.4490 -1.5332
  568MOL0     H76626  11.165   0.780   1.792 -1.5837  4.0856  0.1184
  568MOL0     H76627  11.006   0.594   1.587 -0.8834 -0.0618  1.3009
  568MOL0     H76628  11.055   0.562   1.752 -2.2314  2.2234  0.2028
  568MOL0     H76629  11.216   0.518   1.504 -2.7400  2.2861 -0.2405
  568MOL0     H76630  11.299   0.570   1.664  1.1185  0.4936 -0.7278
  568MOL0     H76631  11.102   0.260   1.508  3.5353 -0.5334 -2.8322
  568MOL0     H76632  11.089   0.016   1.619 -0.3008  3.7245 -0.9693
  568MOL0     H76633  11.230  -0.021   1.735  0.4608  0.8202  2.5182
  568MOL0     H76634  11.059  -0.115   1.844 -0.3899  0.7703  1.6519
  568MOL0     H76635  11.083   0.030   1.927 -3.3441 -2.4660  3.1009
  568MOL0     H76636  10.821  -0.024   1.875  0.1236  3.4282  3.4441
  568MOL0     H76637  10.878   0.021   1.708 -1.6566 -0.1987  0.2139
  568MOL0     H76638  10.781   0.209   1.788  0.9773  0.4437  0.4414
  568MOL0     H76639  10.952   0.233   1.807  1.2740 -2.2428  0.4579
  568MOL0     H76640  10.652   0.038   1.962 -0.3658 -2.6440  0.7526
  568MOL0     H76641  10.474   0.010   2.126  0.1491  0.8797 -0.8888
  568MOL0     H76642  10.473   0.072   2.720  1.5788  1.8337 -1.1769
  568MOL0     H76643  10.306   0.112   2.897  4.0992  1.5746  0.8486
  568MOL0     H76644   9.974   0.402   2.873  0.6526 -0.9838 -1.5164
  568MOL0     H76645  10.019   0.358   3.038 -2.0008 -4.1995 -0.8380
  568MOL0     H76646  10.259   0.467   2.964 -1.6193 -0.2573  4.8972
  568MOL0     H76647  10.158   0.516   2.822 -0.4524 -3.9957 -1.2427
  568MOL0     H76648  10.021   0.643   2.988  0.7181 -2.5854 -2.0333
  568MOL0     H76649  10.123   0.601   3.125 -1.6291 -2.6082 -0.2691
  568MOL0     H76650  10.169   0.828   2.992 -1.4035 -0.5222  1.2186
  568MOL0     H76651  10.266   0.712   2.901  0.7077 -2.4702  0.2030
  568MOL0     H76652  10.386   0.653   3.108  2.0549  1.8631 -0.4016
  568MOL0     H76653  10.274   0.752   3.204 -0.2189  3.5529 -0.7582
  568MOL0     H76654  10.348   0.944   3.076 -1.5315 -2.0741 -3.0212
  568MOL0     H76655  10.468   0.895   3.186  0.9609 -0.6013 -0.4495
  568MOL0     H76656  10.584   0.962   2.984  0.2236  0.1428 -1.4122
  568MOL0     H76657  10.454   0.892   2.891 -0.6117 -1.1909  0.6120
  568MOL0     H76658  10.556   0.660   2.946  0.2638  0.3605  1.9991
  568MOL0     H76659  10.658   0.752   2.846  0.9499 -0.6410  0.3740
  568MOL0     H76660  10.076   0.351   2.639 -1.7185 -4.2938 -2.1300
  568MOL0     H76661  10.248   0.355   2.473 -1.6283  0.5806  0.7130
  568MOL0     H76662  10.710   0.268   2.392  0.9149 -0.3234  1.1599
  568MOL0     H76663  10.875   0.294   2.219 -1.5343  0.4326  1.2930
  568MOL0     H76664  10.454   1.272   2.033  2.4259 -1.5190 -2.9122
  568MOL0     H76665  10.211   1.323   2.098 -1.0319 -0.4439  0.5284
  568MOL0     H76666   9.804   1.197   2.167 -2.3770  0.2273  2.9629
  568MOL0     H76667   9.590   1.250   2.227  0.1148 -2.0917 -0.8159
  568MOL0     H76668   9.451   1.446   2.293  0.7018  0.1021 -1.1283
  568MOL0     H76669   9.337   1.327   2.242  4.9384 -2.1831 -0.9271
  568MOL0     H76670   9.215   1.560   2.139  2.2769  0.4566 -0.4461
  568MOL0     H76671   9.323   1.626   2.260  0.6499 -0.8868  1.4896
  568MOL0     H76672   9.200   1.455   2.419  1.4866 -0.3911 -0.0178
  568MOL0     H76673   9.090   1.434   2.281 -0.7595  2.8870 -0.6742
  568MOL0     H76674   9.162   1.693   2.435 -0.5622  1.5343  0.3637
  568MOL0     H76675   9.051   1.690   2.305  0.1596  2.2558  2.4442
  568MOL0     H76676   8.785   1.585   2.606 -0.0834  3.4543 -0.1993
  568MOL0     H76677   9.501   1.453   1.875 -0.7439  1.2094  4.2582
  568MOL0     H76678   9.663   1.429   1.685  1.1319  0.0849 -0.6882
  568MOL0     H76679   9.777   1.543   1.758 -0.7609 -0.6085  2.9278
  568MOL0     H76680   9.842   1.390   1.697 -0.9209 -0.5525 -1.4037
  569MOL0     O76681   7.075   9.877   3.220  0.2193  0.2308  0.1146
  569MOL0     C76682   7.025   9.795   3.146 -0.1360  0.0297 -0.9454
  569MOL0     O76683   7.075   9.745   3.032  0.1785 -0.4777  0.8206
  569MOL0     C76684   7.214   9.755   2.999 -0.1108 -0.4174  0.5690
  569MOL0     C76685   7.327   9.757   3.082 -0.0886 -0.0907  0.8399
  569MOL0     C76686   7.455   9.791   3.027  0.0754  0.2632 -0.4087
  569MOL0     C76687   7.475   9.806   2.890  0.0416 -0.1812  0.0874
  569MOL0     O76688   7.590   9.854   2.817  0.2148  0.1832 -0.9298
  569MOL0     C76689   7.714   9.874   2.881  1.1194  0.2967  0.0090
  569MOL0     C76690   7.827   9.832   2.800 -0.8517  0.4107 -0.3097
  569MOL0     C76691   7.966   9.876   2.855 -0.1214 -1.5835  0.2653
  569MOL0     C76692   8.011   9.780   2.967  0.5766  0.4184  0.4053
  569MOL0     C76693   8.161   9.734   2.952 -0.0649 -0.1630 -0.2093
  569MOL0     C76694   8.209   9.655   3.077 -0.3280 -0.3309  0.8584
  569MOL0     C76695   8.360   9.634   3.074  0.4275  0.0305  0.0036
  569MOL0     C76696   8.426   9.547   3.184 -0.6830 -1.1181  0.0981
  569MOL0     N76697   8.425   9.415   3.144  0.9689  0.0006 -0.6798
  569MOL0     C76698   8.526   9.332   3.095  1.6204  0.6286  0.4504
  569MOL0     C76699   8.466   9.211   3.102  0.1169  0.4621 -0.0975
  569MOL0     C76700   8.531   9.080   3.065 -0.1110  0.1743 -0.0671
  569MOL0     C76701   8.650   9.037   3.167  1.9215  1.0636 -0.6824
  569MOL0     C76702   8.710   8.899   3.118 -0.6833 -0.6424 -0.8090
  569MOL0     C76703   8.852   8.868   3.185 -0.6165 -0.2658  0.0402
  569MOL0     O76704   8.855   8.907   3.311  0.5675  0.1317 -0.7678
  569MOL0     C76705   8.957   8.875   3.404  0.5440  0.6937  0.9690
  569MOL0     C76706   8.939   8.894   3.537  0.4542 -1.0051  0.3046
  569MOL0     C76707   9.027   8.856   3.638 -0.6321  0.1228  1.1493
  569MOL0     C76708   9.148   8.800   3.599  0.3389  0.1149  0.5824
  569MOL0     C76709   9.244   8.759   3.702  0.0759  0.4463  0.7308
  569MOL0     O76710   9.351   8.694   3.655  1.0935  1.0777  0.0383
  569MOL0     C76711   9.425   8.632   3.747  0.3406  0.5109  0.0892
  569MOL0     C76712   9.386   8.503   3.787 -0.5365 -0.0849 -0.2049
  569MOL0     C76713   9.469   8.431   3.878 -0.3731 -0.7272  0.2541
  569MOL0     C76714   9.595   8.476   3.913 -0.3818 -0.6026  0.1592
  569MOL0     O76715   9.658   8.397   4.005  0.0245  0.0246 -0.0172
  569MOL0     C76716   9.793   8.423   4.036 -0.2924 -0.8196 -0.6131
  569MOL0     C76717   9.822   8.379   4.184  0.0958 -0.4543  1.4066
  569MOL0     C76718   9.965   8.328   4.199  0.3884 -0.0115  0.7148
  569MOL0     C76719  10.054   8.449   4.209 -0.6124  0.8153 -1.1355
  569MOL0     C76720  10.203   8.423   4.199 -0.1815  0.5853  0.1940
  569MOL0     C76721  10.293   8.545   4.216 -0.0217 -0.2031  0.0192
  569MOL0     C76722  10.275   8.662   4.117  0.7985  0.3048 -0.4079
  569MOL0     C76723  10.386   8.764   4.152  0.2868  0.9313 -0.0430
  569MOL0    Cl76724  10.374   8.906   4.027 -0.2279 -0.0154 -0.2001
  569MOL0     C76725   9.631   8.601   3.874 -0.4556 -0.5177 -0.9047
  569MOL0     C76726   9.549   8.674   3.782 -0.4010 -0.3576 -0.6938
  569MOL0     O76727   9.222   8.779   3.819  0.8993  1.0520 -0.7894
  569MOL0     C76728   9.166   8.763   3.469 -0.0659  0.7854  0.4892
  569MOL0     C76729   9.080   8.804   3.365 -0.4194 -0.2082 -0.3248
  569MOL0     N76730   8.340   9.222   3.161 -0.1326 -0.0568  0.0262
  569MOL0     N76731   8.317   9.345   3.189  0.7316 -0.2437 -0.9532
  569MOL0     C76732   7.362   9.794   2.803  0.6823 -0.2163 -1.0105
  569MOL0     C76733   7.233   9.772   2.861 -0.2846  0.2221  0.1929
  569MOL0     C76734   6.890   9.759   3.188 -1.1173  0.2985  0.9315
  569MOL0     C76735   6.811   9.678   3.103  0.6931  0.3463  0.3350
  569MOL0     C76736   6.698   9.610   3.137  0.0542  0.7933  0.4766
  569MOL0     C76737   6.647   9.623   3.267  0.3896  0.5988  0.8177
  569MOL0     O76738   6.541   9.543   3.299  0.1737 -0.6513  0.1840
  569MOL0     C76739   6.510   9.508   3.437  0.9384  0.4628 -0.6719
  569MOL0     C76740   6.536   9.350   3.441 -1.0510 -0.1204 -0.2358
  569MOL0     C76741   6.504   9.283   3.573  0.6165 -0.1564 -0.2731
  569MOL0     C76742   6.377   9.320   3.651 -0.4547 -0.2630 -0.7050
  569MOL0     C76743   6.362   9.244   3.775  0.5020 -0.7146 -0.1208
  569MOL0     C76744   6.370   9.178   3.876 -0.0722  0.2072 -0.0544
  569MOL0     C76745   6.713   9.720   3.354  0.0091  0.3073  0.4633
  569MOL0     C76746   6.837   9.785   3.321  0.2315  0.7379 -0.3296
  569MOL0     C76747   6.897   9.848   3.444  0.7352 -0.3194  0.0790
  569MOL0     H76748   7.322   9.760   3.190  2.9791  0.2619  1.0557
  569MOL0     H76749   7.539   9.822   3.089  1.5956 -3.4196 -0.3720
  569MOL0     H76750   7.722   9.982   2.897 -2.3426  0.4547  1.4600
  569MOL0     H76751   7.715   9.826   2.979  0.8729  0.7222  0.2211
  569MOL0     H76752   7.805   9.886   2.708 -1.5795 -0.5655 -0.7249
  569MOL0     H76753   7.823   9.727   2.771  0.4238  0.5862 -1.1813
  569MOL0     H76754   7.952   9.982   2.878 -0.9466 -1.1958 -1.8557
  569MOL0     H76755   8.040   9.869   2.775  1.0433 -2.4080  1.3635
  569MOL0     H76756   7.992   9.818   3.068  1.3711  1.3580  0.2158
  569MOL0     H76757   7.955   9.689   2.945  0.9988  0.5474 -1.2897
  569MOL0     H76758   8.172   9.678   2.859 -2.6010  1.5729 -1.7114
  569MOL0     H76759   8.229   9.820   2.949 -1.8964  1.7795  4.4577
  569MOL0     H76760   8.177   9.708   3.167 -0.3042 -0.2832  0.8386
  569MOL0     H76761   8.165   9.554   3.072  1.0285 -0.9060 -3.1215
  569MOL0     H76762   8.397   9.737   3.081  0.4366  0.1783 -1.7801
  569MOL0     H76763   8.389   9.596   2.976  1.4827  1.1103 -0.1328
  569MOL0     H76764   8.528   9.583   3.178 -0.9368 -0.2012  0.9933
  569MOL0     H76765   8.384   9.559   3.284  0.0397  1.2229  0.1711
  569MOL0     H76766   8.627   9.337   3.056  1.7988 -2.1496  0.3869
  569MOL0     H76767   8.456   9.000   3.059  0.6879 -0.5108 -1.7441
  569MOL0     H76768   8.588   9.080   2.972 -3.3527  3.5167 -2.3338
  569MOL0     H76769   8.731   9.110   3.161  0.9174  2.1177 -2.3579
  569MOL0     H76770   8.617   9.010   3.267  2.0070 -3.3515 -1.6538
  569MOL0     H76771   8.724   8.897   3.009  1.6307  0.3669 -0.5929
  569MOL0     H76772   8.642   8.819   3.150  0.7680 -0.8876  2.0034
  569MOL0     H76773   8.935   8.916   3.133 -0.6196 -2.1033 -1.7711
  569MOL0     H76774   8.867   8.759   3.191  1.0752  0.0079  2.5155
  569MOL0     H76775   8.844   8.940   3.561  0.7784  1.1853 -2.2248
  569MOL0     H76776   9.010   8.893   3.738  0.4777  3.3538  0.2482
  569MOL0     H76777   9.286   8.474   3.756 -0.8539 -0.2073  0.9130
  569MOL0     H76778   9.433   8.331   3.902 -0.8534 -1.2240 -2.2133
  569MOL0     H76779   9.864   8.378   3.966  1.7162  0.5371  0.4739
  569MOL0     H76780   9.806   8.531   4.043  0.2025 -0.8125 -1.5072
  569MOL0     H76781   9.805   8.466   4.248  0.4377  0.8091 -0.1716
  569MOL0     H76782   9.751   8.302   4.216  0.7224 -0.6236  2.4260
  569MOL0     H76783   9.964   8.271   4.292 -1.8216  1.1367  1.4848
  569MOL0     H76784   9.980   8.267   4.109 -1.3468 -1.3962  1.2878
  569MOL0     H76785  10.031   8.499   4.304  0.9801  2.4939 -1.5970
  569MOL0     H76786  10.024   8.512   4.125  0.2454 -0.5638 -2.5166
  569MOL0     H76787  10.224   8.387   4.098  1.9275  1.8908  0.1074
  569MOL0     H76788  10.233   8.348   4.273 -0.4712  0.7859  0.5161
  569MOL0     H76789  10.287   8.583   4.319 -0.2883 -0.2769  0.0308
  569MOL0     H76790  10.399   8.515   4.215 -0.0486 -0.2800 -1.1037
  569MOL0     H76791  10.182   8.712   4.142  0.8155  0.0561  0.1624
  569MOL0     H76792  10.295   8.617   4.019 -0.8700 -0.8874 -0.2524
  569MOL0     H76793  10.375   8.799   4.256 -2.3161  0.6101 -0.1501
  569MOL0     H76794  10.483   8.715   4.142  0.3265  0.7910  0.9322
  569MOL0     H76795   9.722   8.652   3.905 -0.1310 -0.5407 -1.7801
  569MOL0     H76796   9.602   8.766   3.757  1.4791 -1.2717 -0.2747
  569MOL0     H76797   9.252   8.704   3.441 -0.1840  1.5027 -1.5708
  569MOL0     H76798   9.102   8.786   3.260 -0.0148 -0.5247 -0.1908
  569MOL0     H76799   7.374   9.803   2.696  1.4692  1.0410 -0.8412
  569MOL0     H76800   7.142   9.772   2.801  0.3627  1.7359 -0.8518
  569MOL0     H76801   6.848   9.658   3.003  0.0090 -0.0893  0.1580
  569MOL0     H76802   6.634   9.547   3.076 -0.4884  0.9243  0.9027
  569MOL0     H76803   6.404   9.520   3.459  1.2210  3.5540 -0.5563
  569MOL0     H76804   6.564   9.575   3.504 -0.3767  1.2138 -0.3287
  569MOL0     H76805   6.644   9.339   3.427 -0.9657  1.0935 -0.6478
  569MOL0     H76806   6.487   9.311   3.351  0.0434 -0.0867 -0.8610
  569MOL0     H76807   6.595   9.295   3.633  1.4567 -3.4127 -0.6816
  569MOL0     H76808   6.494   9.176   3.551 -1.3362 -0.8218  3.2397
  569MOL0     H76809   6.389   9.426   3.678  2.6666 -0.4478 -1.0476
  569MOL0     H76810   6.290   9.303   3.586  0.0615 -0.7874 -1.2628
  569MOL0     H76811   6.354   9.118   3.963 -2.9371  0.4228 -0.3566
  569MOL0     H76812   6.674   9.721   3.455  0.7172 -1.0301  0.7714
  569MOL0     H76813   6.834   9.843   3.534  1.5199 -0.9667  0.6015
  569MOL0     H76814   6.990   9.796   3.470  0.8353 -0.7008 -0.9861
  569MOL0     H76815   6.917   9.954   3.424  1.5075 -0.3982  0.4367
  570MOL0     O76816   7.801   2.058   6.579 -0.4042 -0.5149 -0.4487
  570MOL0     C76817   7.691   2.060   6.637 -0.3175  0.1599 -0.0599
  570MOL0     O76818   7.610   1.953   6.658  0.0558  0.8774  0.1442
  570MOL0     C76819   7.656   1.824   6.618  0.4487 -1.2926 -0.8299
  570MOL0     C76820   7.626   1.707   6.687 -0.2186  0.0572 -0.6988
  570MOL0     C76821   7.656   1.581   6.627 -0.3003 -0.7387  0.3089
  570MOL0     C76822   7.715   1.559   6.503 -0.4659 -0.0106 -0.1875
  570MOL0     O76823   7.749   1.433   6.460 -0.1382 -0.1054  0.7312
  570MOL0     C76824   7.803   1.428   6.321  0.5794 -0.7826 -0.3775
  570MOL0     C76825   7.828   1.286   6.279 -0.9572  0.1223  0.8941
  570MOL0     C76826   7.858   1.191   6.393 -0.2962 -0.2278 -0.0188
  570MOL0     C76827   8.013   1.196   6.423 -0.0210  0.2713  0.0482
  570MOL0     C76828   8.038   1.097   6.534  0.5545 -0.0135  0.5440
  570MOL0     C76829   8.017   0.948   6.507  0.6426  1.0268  0.3274
  570MOL0     C76830   8.094   0.850   6.594  0.4473 -0.7460 -0.3602
  570MOL0     C76831   8.087   0.697   6.552  0.5523 -0.2345  0.4928
  570MOL0     N76832   7.942   0.650   6.545 -0.2370 -0.1491  0.1105
  570MOL0     C76833   7.863   0.655   6.655  0.4022  0.5608 -0.1660
  570MOL0     C76834   7.789   0.540   6.648 -0.3291  1.5470 -0.8561
  570MOL0     C76835   7.701   0.476   6.767 -0.5542 -0.0991 -0.0889
  570MOL0     C76836   7.810   0.407   6.857  0.0196 -0.4721 -0.6252
  570MOL0     C76837   7.751   0.314   6.969 -0.1009 -0.0672  0.1350
  570MOL0     C76838   7.858   0.278   7.080  0.2357  0.1719  0.1561
  570MOL0     O76839   7.955   0.191   7.017 -0.3150 -0.5182  0.5222
  570MOL0     C76840   7.949   0.054   7.030 -0.8691  0.4606  0.9126
  570MOL0     C76841   7.849  -0.027   7.089 -0.2036 -0.3267 -0.7787
  570MOL0     C76842   7.859  -0.155   7.106 -0.2053  0.4319  0.2347
  570MOL0     C76843   7.975  -0.230   7.061  0.4596  0.5944  0.8575
  570MOL0     C76844   7.976  -0.375   7.066 -0.3905 -1.1662  0.7922
  570MOL0     O76845   7.871  -0.442   7.089 -0.1961  0.1442 -0.2089
  570MOL0     C76846   7.877  -0.579   7.099 -1.6500 -0.5457 -0.3598
  570MOL0     C76847   7.914  -0.640   7.221  0.2045  0.7119  0.7079
  570MOL0     C76848   7.949  -0.773   7.229 -0.7260  0.0242  0.6655
  570MOL0     C76849   7.952  -0.853   7.109  0.3126  0.7715  0.2654
  570MOL0     O76850   8.003  -0.979   7.122  0.1958  0.1917 -0.5817
  570MOL0     C76851   7.967  -1.080   7.032 -0.0978 -0.3663  0.2358
  570MOL0     C76852   8.020  -1.220   7.055 -0.5459  0.3783  0.0044
  570MOL0     C76853   7.904  -1.316   7.096 -0.7924 -0.1003  0.6961
  570MOL0     C76854   7.833  -1.366   6.971 -0.2679 -0.3711  0.2372
  570MOL0     C76855   7.758  -1.500   6.997 -0.0136  0.6129 -0.2057
  570MOL0     C76856   7.686  -1.553   6.874 -1.2379 -0.2967 -1.5617
  570MOL0     C76857   7.607  -1.683   6.910 -0.2009 -0.9609 -0.0342
  570MOL0     C76858   7.701  -1.803   6.881  0.2646 -0.9943 -0.4851
  570MOL0    Cl76859   7.717  -1.818   6.694  0.3720 -0.4948 -0.1800
  570MOL0     C76860   7.907  -0.791   6.986 -0.1533  0.2084 -0.5841
  570MOL0     C76861   7.867  -0.654   6.982  0.1088 -0.3546 -0.7238
  570MOL0     O76862   8.087  -0.427   7.047 -0.1074 -0.2317  0.3125
  570MOL0     C76863   8.075  -0.164   6.993 -0.5143 -0.4531 -0.2401
  570MOL0     C76864   8.069  -0.019   6.985 -0.4292 -0.5365 -0.2235
  570MOL0     N76865   7.825   0.473   6.532  0.9577  0.2829  0.4491
  570MOL0     N76866   7.917   0.538   6.474 -0.5225 -0.4453 -0.2308
  570MOL0     C76867   7.757   1.683   6.443 -0.5054 -0.3109 -0.2281
  570MOL0     C76868   7.712   1.801   6.490  0.7644 -0.7963  0.1923
  570MOL0     C76869   7.643   2.191   6.692 -0.6118 -0.0545  0.2243
  570MOL0     C76870   7.726   2.307   6.701 -0.2724 -0.3138 -0.1224
  570MOL0     C76871   7.686   2.420   6.772 -0.4430 -0.9500  0.4416
  570MOL0     C76872   7.553   2.433   6.799  1.0117 -0.7533 -0.6058
  570MOL0     O76873   7.494   2.531   6.872 -1.0281 -1.0125 -0.1858
  570MOL0     C76874   7.570   2.639   6.925  0.6251 -0.1874 -0.8601
  570MOL0     C76875   7.478   2.716   7.023 -0.2987  0.1070  0.1479
  570MOL0     C76876   7.391   2.836   6.952 -0.2619  0.4306 -0.0596
  570MOL0     C76877   7.309   2.921   7.045  0.0184  0.3563 -0.0533
  570MOL0     C76878   7.185   2.850   7.099 -1.3135 -0.2518 -1.6082
  570MOL0     C76879   7.075   2.818   7.147 -0.2354 -0.3755 -0.5811
  570MOL0     C76880   7.461   2.341   6.764  0.7527  0.2824 -0.1799
  570MOL0     C76881   7.499   2.214   6.714 -0.7721 -1.0084 -0.2479
  570MOL0     C76882   7.389   2.131   6.648  0.0021  0.4239  1.3803
  570MOL0     H76883   7.568   1.716   6.778 -0.6295 -2.2252 -0.6795
  570MOL0     H76884   7.623   1.495   6.685 -0.2523 -1.5581 -0.8390
  570MOL0     H76885   7.729   1.476   6.257 -0.1318 -1.3543  0.0042
  570MOL0     H76886   7.893   1.490   6.329 -1.4315  2.1514  1.7793
  570MOL0     H76887   7.900   1.290   6.197 -2.7342 -0.7699 -0.7694
  570MOL0     H76888   7.734   1.257   6.231 -0.9622  0.3608  0.7559
  570MOL0     H76889   7.849   1.086   6.361 -0.8414 -0.4112  0.7030
  570MOL0     H76890   7.794   1.206   6.480 -1.2548  2.6356 -1.1124
  570MOL0     H76891   8.070   1.172   6.333 -2.6701  2.9043 -2.5554
  570MOL0     H76892   8.041   1.298   6.450 -2.2205  0.8671  0.2605
  570MOL0     H76893   8.140   1.093   6.574  1.3803 -0.5194 -1.4882
  570MOL0     H76894   7.975   1.123   6.619 -0.2237 -2.9277  0.9637
  570MOL0     H76895   7.914   0.914   6.523  1.8152 -3.3842 -0.2222
  570MOL0     H76896   8.048   0.918   6.406  1.1064  0.7227  0.5594
  570MOL0     H76897   8.043   0.849   6.691 -2.9286 -1.1672 -1.9941
  570MOL0     H76898   8.201   0.873   6.601  0.1760  0.9118 -1.2177
  570MOL0     H76899   8.143   0.679   6.460 -0.5028  2.4729 -0.7809
  570MOL0     H76900   8.146   0.670   6.640 -0.8221 -0.8707  1.2447
  570MOL0     H76901   7.869   0.733   6.731 -2.3878  0.8439 -0.1437
  570MOL0     H76902   7.647   0.555   6.820  0.9738  2.3217 -1.9276
  570MOL0     H76903   7.633   0.397   6.735  0.5129 -1.1249  0.0903
  570MOL0     H76904   7.872   0.347   6.790  4.2204  2.8946 -0.2149
  570MOL0     H76905   7.871   0.486   6.903 -1.9520  0.8925 -0.2696
  570MOL0     H76906   7.726   0.226   6.909 -0.1663  1.0146 -1.4801
  570MOL0     H76907   7.656   0.350   7.010 -0.7702  1.1903 -2.3088
  570MOL0     H76908   7.817   0.236   7.172 -1.1632  0.3982 -0.3394
  570MOL0     H76909   7.903   0.377   7.094  0.7366  0.3058 -2.1142
  570MOL0     H76910   7.759   0.025   7.119  1.2222  1.7116  0.1847
  570MOL0     H76911   7.783  -0.199   7.169  1.8483  0.3627  2.8325
  570MOL0     H76912   7.925  -0.589   7.316  3.2644  1.3103  0.1451
  570MOL0     H76913   7.989  -0.816   7.319  1.4075 -1.0645 -0.7213
  570MOL0     H76914   7.858  -1.092   7.027  0.0960 -3.1159  1.0781
  570MOL0     H76915   8.008  -1.053   6.935 -0.9898 -3.7884 -1.2136
  570MOL0     H76916   8.082  -1.246   6.969  1.6446 -0.7572  1.8213
  570MOL0     H76917   8.092  -1.216   7.137  1.8423  0.4995 -1.9881
  570MOL0     H76918   7.951  -1.395   7.155 -0.7209  0.5257  1.5004
  570MOL0     H76919   7.834  -1.268   7.165 -2.3302 -0.5467 -0.4874
  570MOL0     H76920   7.906  -1.380   6.891 -0.1682  1.6730 -0.0665
  570MOL0     H76921   7.761  -1.289   6.942  1.1137  0.7994 -0.1925
  570MOL0     H76922   7.677  -1.493   7.071  1.1032 -0.7835  1.2045
  570MOL0     H76923   7.818  -1.578   7.045 -1.6039 -1.8314 -1.9113
  570MOL0     H76924   7.612  -1.478   6.841 -1.8895 -0.0840  0.2817
  570MOL0     H76925   7.755  -1.556   6.789  1.4054 -0.6353  0.4854
  570MOL0     H76926   7.520  -1.688   6.843  1.4345 -1.3458 -2.2335
  570MOL0     H76927   7.576  -1.680   7.015  0.3377 -2.2678  0.1761
  570MOL0     H76928   7.797  -1.781   6.927 -1.0556  2.3663  1.0091
  570MOL0     H76929   7.655  -1.895   6.918  1.8529 -1.2700  0.9307
  570MOL0     H76930   7.914  -0.844   6.892  3.2849  1.6353 -1.3012
  570MOL0     H76931   7.835  -0.613   6.887  0.2682  1.8005  0.1041
  570MOL0     H76932   8.153  -0.226   6.950 -0.2587 -1.2920  1.3745
  570MOL0     H76933   8.145   0.041   6.937 -0.4359 -0.3055  0.0452
  570MOL0     H76934   7.810   1.694   6.349 -1.9773  1.3294 -0.9195
  570MOL0     H76935   7.729   1.892   6.433 -0.4584 -0.8033 -0.2059
  570MOL0     H76936   7.834   2.307   6.688 -0.2215 -2.1059  0.0840
  570MOL0     H76937   7.750   2.505   6.794 -2.5254  1.8570 -3.2184
  570MOL0     H76938   7.596   2.711   6.846  3.0002 -1.4120 -1.2827
  570MOL0     H76939   7.662   2.609   6.976  0.6823  0.6074 -0.4710
  570MOL0     H76940   7.539   2.755   7.105  0.0958 -1.0854  0.4321
  570MOL0     H76941   7.419   2.641   7.075  1.9921 -1.1043  1.1561
  570MOL0     H76942   7.344   2.793   6.863  4.1462 -0.8092 -2.0795
  570MOL0     H76943   7.466   2.903   6.909  1.4454 -0.6547  1.0608
  570MOL0     H76944   7.376   2.948   7.127  1.4313  0.8607 -1.3366
  570MOL0     H76945   7.279   3.014   6.996 -1.4705  2.2706  4.0104
  570MOL0     H76946   6.991   2.768   7.191  0.2076 -0.3931  0.2735
  570MOL0     H76947   7.357   2.365   6.782  0.6600  0.9520 -1.4921
  570MOL0     H76948   7.427   2.080   6.559 -0.5193  1.6768  0.4044
  570MOL0     H76949   7.338   2.061   6.714  1.2194 -2.1204 -0.2228
  570MOL0     H76950   7.316   2.199   6.602  2.0246  0.9713 -1.2349
  571MOL0     O76951   5.802  10.720   8.054 -1.8295  0.2320 -0.5532
  571MOL0     C76952   5.815  10.602   8.024 -0.2921 -0.4499 -0.7071
  571MOL0     O76953   5.893  10.518   8.091  0.0860  0.1259 -0.2272
  571MOL0     C76954   5.962  10.558   8.204 -0.8719  0.3814  0.4943
  571MOL0     C76955   5.913  10.641   8.305 -0.5178 -0.3229 -0.0319
  571MOL0     C76956   6.000  10.676   8.416  0.4010  1.0011 -0.2112
  571MOL0     C76957   6.139  10.639   8.427  0.0448  0.1546 -0.9633
  571MOL0     O76958   6.221  10.654   8.532 -0.0056 -0.0951 -0.7910
  571MOL0     C76959   6.211  10.781   8.600  0.9311 -0.3629 -0.6999
  571MOL0     C76960   6.347  10.814   8.673  0.4300  0.1052 -0.2358
  571MOL0     C76961   6.472  10.816   8.588 -0.6830  0.2918  0.5347
  571MOL0     C76962   6.523  10.668   8.571 -1.3076 -0.3933  0.1796
  571MOL0     C76963   6.677  10.659   8.559  0.1904 -0.7263 -0.5856
  571MOL0     C76964   6.735  10.731   8.438 -0.3636 -0.4565  0.3664
  571MOL0     C76965   6.678  10.684   8.300  0.4048 -1.0231 -0.2926
  571MOL0     C76966   6.683  10.533   8.269  0.1958  0.1518 -0.1659
  571MOL0     N76967   6.595  10.489   8.161 -0.4042  0.8273 -0.6884
  571MOL0     C76968   6.565  10.571   8.059 -0.1043  0.0743  0.3209
  571MOL0     C76969   6.439  10.536   8.016  0.2736 -0.2217 -0.5743
  571MOL0     C76970   6.346  10.614   7.915  0.0294  0.1917 -0.1571
  571MOL0     C76971   6.256  10.718   7.979  0.2270  0.6103 -0.0438
  571MOL0     C76972   6.330  10.854   7.976  0.1826  0.1489  0.1262
  571MOL0     C76973   6.262  10.953   8.072  0.0269 -0.4082  0.1192
  571MOL0     O76974   6.322  11.085   8.056  1.0352  0.4180  0.0172
  571MOL0     C76975   6.444  11.122   8.109  0.4603  0.0119 -0.1656
  571MOL0     C76976   6.513  11.042   8.196 -0.1989  0.8748  0.2573
  571MOL0     C76977   6.630  11.084   8.260 -0.4480 -0.0124 -0.1436
  571MOL0     C76978   6.691  11.207   8.222  0.8501 -0.5711 -0.8160
  571MOL0     C76979   6.810  11.276   8.285  0.9686  0.4347 -0.5162
  571MOL0     O76980   6.835  11.410   8.264 -0.3721  1.0345  0.8852
  571MOL0     C76981   6.964  11.452   8.265 -0.1122 -0.0557  1.4689
  571MOL0     C76982   7.050  11.395   8.167  0.0781 -0.4032  0.5745
  571MOL0     C76983   7.180  11.448   8.173  0.2943  0.3372  0.4134
  571MOL0     C76984   7.226  11.550   8.258  0.6184 -0.6183 -0.3369
  571MOL0     O76985   7.360  11.583   8.253 -0.2180  0.5802 -0.0587
  571MOL0     C76986   7.381  11.723   8.243 -0.2593 -0.8030 -0.2930
  571MOL0     C76987   7.530  11.763   8.236  0.6874  0.3394 -0.1688
  571MOL0     C76988   7.530  11.912   8.252 -0.7714 -0.1508  0.2139
  571MOL0     C76989   7.667  11.960   8.187 -1.6130 -0.1637 -0.5892
  571MOL0     C76990   7.701  12.103   8.234 -0.0557  0.2711 -0.5570
  571MOL0     C76991   7.836  12.153   8.190 -1.0543 -0.3998 -0.6722
  571MOL0     C76992   7.954  12.085   8.268  0.3768 -0.1446  0.4225
  571MOL0     C76993   8.088  12.101   8.198  0.4778  0.1351  0.1168
  571MOL0    Cl76994   8.230  12.038   8.280 -0.5347  0.1267 -0.2430
  571MOL0     C76995   7.137  11.602   8.350 -0.1126 -0.5177 -0.2929
  571MOL0     C76996   7.008  11.560   8.352  0.1844  0.4881  0.2840
  571MOL0     O76997   6.895  11.199   8.330 -0.0694 -0.2278 -0.1395
  571MOL0     C76998   6.621  11.284   8.139  0.5947 -0.1677  0.6563
  571MOL0     C76999   6.499  11.245   8.075  0.3347  0.6041  0.0774
  571MOL0     N77000   6.396  10.428   8.094 -0.7604 -0.2843 -0.3599
  571MOL0     N77001   6.484  10.407   8.187 -0.2974  0.1606 -0.0716
  571MOL0     C77002   6.184  10.559   8.318 -0.1782 -0.4156  0.0570
  571MOL0     C77003   6.098  10.523   8.215 -0.1061 -0.5247  0.0057
  571MOL0     C77004   5.741  10.532   7.918 -0.8328  1.1678 -1.3545
  571MOL0     C77005   5.798  10.425   7.850  0.4124 -0.2044  1.0609
  571MOL0     C77006   5.736  10.367   7.735 -1.4588  0.4208  1.1849
  571MOL0     C77007   5.605  10.402   7.695 -0.4500 -0.2795 -0.1043
  571MOL0     O77008   5.551  10.340   7.584 -0.0520 -0.0654  0.1775
  571MOL0     C77009   5.435  10.396   7.527 -0.0816  0.0581  0.1575
  571MOL0     C77010   5.392  10.328   7.399 -0.0802 -0.2371  1.2190
  571MOL0     C77011   5.388  10.178   7.418 -0.1871 -0.4444  0.2425
  571MOL0     C77012   5.290  10.123   7.528  0.1061 -0.8684  0.5761
  571MOL0     C77013   5.150  10.169   7.488  0.2178  0.2603 -0.1532
  571MOL0     C77014   5.042  10.210   7.460  0.0615 -0.9519  0.3283
  571MOL0     C77015   5.544  10.508   7.771  0.3353 -0.3954  0.5771
  571MOL0     C77016   5.614  10.573   7.878  0.0376  0.2973 -0.2442
  571MOL0     C77017   5.536  10.692   7.931  0.4240  0.7978  0.4313
  571MOL0     H77018   5.807  10.666   8.300 -0.7052 -0.9404  0.6959
  571MOL0     H77019   5.950  10.735   8.492  0.9778  3.0675 -1.3508
  571MOL0     H77020   6.174  10.867   8.544 -2.0093 -0.6173  0.6626
  571MOL0     H77021   6.140  10.770   8.682  3.2406 -2.1718  1.2058
  571MOL0     H77022   6.361  10.743   8.755 -0.4937  1.1992  0.9062
  571MOL0     H77023   6.350  10.916   8.712  0.2711  0.0149  0.0148
  571MOL0     H77024   6.550  10.879   8.630  0.9303 -1.3644  0.1270
  571MOL0     H77025   6.451  10.862   8.490 -0.2121 -0.5024  0.0508
  571MOL0     H77026   6.507  10.598   8.653 -0.4163 -1.8529 -0.8450
  571MOL0     H77027   6.460  10.622   8.494 -0.5700 -2.7682  0.8903
  571MOL0     H77028   6.719  10.692   8.655 -1.1348 -0.7642  0.0310
  571MOL0     H77029   6.701  10.552   8.557 -0.0458 -0.7996 -3.2469
  571MOL0     H77030   6.716  10.839   8.440 -2.9424 -0.8817  2.2730
  571MOL0     H77031   6.844  10.719   8.443 -0.2848 -0.2859 -0.6463
  571MOL0     H77032   6.743  10.728   8.223  1.3352 -0.8395  0.5794
  571MOL0     H77033   6.576  10.722   8.287 -0.0531 -1.4165  1.8674
  571MOL0     H77034   6.784  10.501   8.244  1.0453  2.6054 -0.0982
  571MOL0     H77035   6.650  10.479   8.358 -0.8216  0.6369 -0.2262
  571MOL0     H77036   6.627  10.643   8.007  1.7298 -0.6407  1.4215
  571MOL0     H77037   6.418  10.658   7.846  0.1069  1.6195  0.7801
  571MOL0     H77038   6.297  10.535   7.857  1.0775 -0.1676 -0.5768
  571MOL0     H77039   6.164  10.734   7.921  0.0691  2.2545  0.6187
  571MOL0     H77040   6.237  10.674   8.077  0.6494 -2.5569 -1.2388
  571MOL0     H77041   6.331  10.899   7.876  2.3043 -1.1090 -0.4777
  571MOL0     H77042   6.433  10.838   8.008  1.0095  4.6593  0.3267
  571MOL0     H77043   6.270  10.926   8.177  1.8040 -2.5369 -0.4938
  571MOL0     H77044   6.157  10.960   8.041  0.1546  1.4395 -0.0050
  571MOL0     H77045   6.486  10.938   8.210 -0.7437  1.2008  1.9572
  571MOL0     H77046   6.688  11.014   8.320 -0.8422 -0.1721  0.0521
  571MOL0     H77047   7.025  11.306   8.111 -1.4249 -1.3156  2.5826
  571MOL0     H77048   7.253  11.404   8.106  0.1140 -2.4299  1.8828
  571MOL0     H77049   7.330  11.758   8.153 -2.5465  0.5857  1.4285
  571MOL0     H77050   7.329  11.785   8.316  0.4718 -1.1565  0.5521
  571MOL0     H77051   7.567  11.720   8.330 -2.7921 -1.7064  0.4537
  571MOL0     H77052   7.575  11.720   8.146 -1.4288  0.3513 -1.2935
  571MOL0     H77053   7.446  11.963   8.203 -2.3985 -1.8363  1.1259
  571MOL0     H77054   7.523  11.931   8.360 -0.1987 -4.6573  1.2458
  571MOL0     H77055   7.665  11.963   8.078  0.2191 -2.6486 -0.7821
  571MOL0     H77056   7.747  11.888   8.205 -0.7998  0.2440 -2.3533
  571MOL0     H77057   7.670  12.121   8.338  1.0148 -0.2273 -0.1335
  571MOL0     H77058   7.637  12.177   8.185  0.6755  2.8521  2.0597
  571MOL0     H77059   7.854  12.132   8.084 -0.6550 -2.7716 -0.1810
  571MOL0     H77060   7.836  12.262   8.196 -0.8258 -0.3429 -1.5760
  571MOL0     H77061   7.932  11.979   8.278  3.0676 -0.8282 -0.2064
  571MOL0     H77062   7.956  12.125   8.370 -3.2468 -1.0648  0.9891
  571MOL0     H77063   8.089  12.056   8.098  0.6339 -4.2945  1.9055
  571MOL0     H77064   8.104  12.209   8.192 -1.7944  0.7361  2.8356
  571MOL0     H77065   7.173  11.684   8.411 -0.3471 -0.3714 -0.3520
  571MOL0     H77066   6.930  11.609   8.408  0.6422 -0.1934  1.5547
  571MOL0     H77067   6.665  11.381   8.121 -0.8980  1.0187  2.8886
  571MOL0     H77068   6.453  11.311   8.001 -2.6088 -1.1504  0.1852
  571MOL0     H77069   6.285  10.521   8.325  0.2229  0.4306 -0.9231
  571MOL0     H77070   6.135  10.471   8.127 -0.1777  4.1206 -3.1174
  571MOL0     H77071   5.903  10.409   7.872  0.6682 -1.0219 -0.5709
  571MOL0     H77072   5.797  10.297   7.679 -0.3883  0.2635  2.4964
  571MOL0     H77073   5.444  10.501   7.498 -0.5345  0.1045  0.1748
  571MOL0     H77074   5.350  10.388   7.595 -1.2247 -0.5181 -1.2827
  571MOL0     H77075   5.455  10.361   7.317  0.1709  0.8980  1.8515
  571MOL0     H77076   5.293  10.350   7.357  0.4160 -3.2834 -2.0386
  571MOL0     H77077   5.492  10.154   7.443  1.7517  3.3348 -3.0149
  571MOL0     H77078   5.367  10.128   7.323 -0.6751  1.8460 -0.9154
  571MOL0     H77079   5.288  10.014   7.532  0.2417 -0.9323 -0.6569
  571MOL0     H77080   5.296  10.169   7.627  1.6788 -2.1266  1.1178
  571MOL0     H77081   4.938  10.236   7.452 -0.3038 -1.9443  1.5700
  571MOL0     H77082   5.444  10.538   7.741  0.0967 -2.2721 -0.6956
  571MOL0     H77083   5.432  10.696   7.899  0.9989 -1.0274 -1.9444
  571MOL0     H77084   5.539  10.697   8.041  1.8248  0.7349  0.4208
  571MOL0     H77085   5.596  10.778   7.899  1.8346 -1.1075 -2.5280
  572MOL0     O77086   0.540   3.756   2.273 -0.3093  0.6685  0.3297
  572MOL0     C77087   0.539   3.710   2.379  0.5668  0.8257 -0.5480
  572MOL0     O77088   0.430   3.707   2.468  0.2926  0.1748  0.7854
  572MOL0     C77089   0.324   3.796   2.445 -0.6470 -0.4410  0.1086
  572MOL0     C77090   0.191   3.751   2.464 -0.5287 -0.3179 -0.2096
  572MOL0     C77091   0.083   3.836   2.441  0.1300  0.6952 -0.6363
  572MOL0     C77092   0.105   3.969   2.406 -0.0712 -0.4593  0.7027
  572MOL0     O77093  -0.008   4.057   2.392 -0.1981  0.4899  0.5583
  572MOL0     C77094   0.012   4.173   2.315 -0.3571 -0.7438 -0.2541
  572MOL0     C77095  -0.103   4.278   2.349  1.4856  0.5004  0.7164
  572MOL0     C77096  -0.063   4.412   2.296 -0.5842  0.0918  0.3436
  572MOL0     C77097  -0.167   4.517   2.335  0.0409  0.4895  0.4082
  572MOL0     C77098  -0.136   4.655   2.280 -0.4866  0.2791  0.0459
  572MOL0     C77099  -0.253   4.753   2.273  0.1447  0.3870 -0.3941
  572MOL0     C77100  -0.308   4.796   2.411 -0.0250 -0.7280 -0.4473
  572MOL0     C77101  -0.212   4.888   2.493  0.4741  0.0201 -0.2694
  572MOL0     N77102  -0.156   4.999   2.416  0.5072  0.7920  0.1217
  572MOL0     C77103  -0.223   5.117   2.375  0.4320  0.3429 -0.4289
  572MOL0     C77104  -0.128   5.171   2.296 -0.8802  0.1330 -0.2283
  572MOL0     C77105  -0.158   5.310   2.226  0.6145  0.3216 -0.2553
  572MOL0     C77106  -0.030   5.364   2.169 -1.0502 -0.0138 -0.6383
  572MOL0     C77107  -0.040   5.501   2.106  0.6753 -0.2958  0.8613
  572MOL0     C77108   0.087   5.512   2.010 -0.8067  1.4151  0.8442
  572MOL0     O77109   0.209   5.466   2.073  0.5011  0.1763 -1.0278
  572MOL0     C77110   0.280   5.551   2.154 -0.9481  0.1416 -0.9631
  572MOL0     C77111   0.350   5.478   2.259  0.7600 -0.5467 -0.0006
  572MOL0     C77112   0.419   5.542   2.354 -0.2556  0.9117 -0.0556
  572MOL0     C77113   0.448   5.680   2.350 -0.2806  0.4496 -0.1593
  572MOL0     C77114   0.533   5.749   2.449  0.1359 -0.0933 -0.1379
  572MOL0     O77115   0.596   5.859   2.412  0.4916 -0.2063 -0.6504
  572MOL0     C77116   0.675   5.920   2.494 -0.5555 -0.2638 -0.3488
  572MOL0     C77117   0.634   6.038   2.554  0.2400  0.3613  0.6620
  572MOL0     C77118   0.707   6.100   2.647 -0.4854 -0.0964  0.7069
  572MOL0     C77119   0.827   6.035   2.691 -0.5259 -0.2642 -0.4595
  572MOL0     O77120   0.903   6.096   2.793 -0.3463  0.1723  0.1456
  572MOL0     C77121   0.837   6.180   2.887 -0.2567  0.2785 -1.1530
  572MOL0     C77122   0.860   6.331   2.867 -1.0686  0.1355 -0.4915
  572MOL0     C77123   0.733   6.413   2.893  0.1789  0.0448  0.1747
  572MOL0     C77124   0.707   6.552   2.818  0.0690 -0.2997 -0.0383
  572MOL0     C77125   0.571   6.618   2.847  0.0535  0.3966 -0.1250
  572MOL0     C77126   0.574   6.673   2.984  0.3024 -0.2514 -0.3525
  572MOL0     C77127   0.430   6.726   3.020  0.7592  0.5112  0.5372
  572MOL0     C77128   0.374   6.829   2.918  0.3420  0.3497  0.5162
  572MOL0    Cl77129   0.226   6.920   2.996 -0.1431 -0.0853  0.3493
  572MOL0     C77130   0.868   5.912   2.628  0.5833  0.4169  0.6657
  572MOL0     C77131   0.794   5.853   2.533  0.4952 -0.1605  0.3665
  572MOL0     O77132   0.557   5.687   2.555  0.3861  0.0732 -0.4142
  572MOL0     C77133   0.390   5.750   2.249  0.3867 -0.0137  0.3659
  572MOL0     C77134   0.307   5.682   2.151 -1.0226  0.0599  0.0565
  572MOL0     N77135  -0.017   5.097   2.287  0.3835  0.2345  0.1069
  572MOL0     N77136  -0.034   5.001   2.362  0.4860  0.7009 -0.3266
  572MOL0     C77137   0.244   4.021   2.388  0.1891  0.7526 -0.5377
  572MOL0     C77138   0.343   3.932   2.418  0.4347 -0.4743  0.2259
  572MOL0     C77139   0.662   3.626   2.407 -0.3991  0.2467  1.0060
  572MOL0     C77140   0.647   3.488   2.455 -0.4536 -0.4578 -0.0281
  572MOL0     C77141   0.752   3.402   2.488 -0.2052 -0.2045  0.0276
  572MOL0     C77142   0.881   3.450   2.454  1.3214 -0.4612 -0.3436
  572MOL0     O77143   0.986   3.364   2.475 -0.2585 -0.0605 -0.9014
  572MOL0     C77144   1.083   3.366   2.373  0.7213  0.2874  1.2855
  572MOL0     C77145   1.014   3.309   2.246 -0.1570  0.0875 -0.7657
  572MOL0     C77146   1.105   3.313   2.122  0.4230 -0.0757 -0.1202
  572MOL0     C77147   1.149   3.446   2.068  0.3407 -0.6624 -0.5142
  572MOL0     C77148   1.032   3.540   2.056 -0.5209 -0.2927 -0.2875
  572MOL0     C77149   0.934   3.612   2.037  0.2147  0.6525 -0.1297
  572MOL0     C77150   0.895   3.580   2.393 -0.2385 -1.2768 -0.9172
  572MOL0     C77151   0.793   3.672   2.371  0.4702  0.2002 -0.0075
  572MOL0     C77152   0.821   3.814   2.334 -0.1768 -0.7148  0.2446
  572MOL0     H77153   0.169   3.646   2.484 -4.8652  0.1097 -1.8174
  572MOL0     H77154  -0.020   3.804   2.455 -0.0848  1.1714 -1.0594
  572MOL0     H77155   0.107   4.221   2.341 -0.7617 -0.4534  0.7597
  572MOL0     H77156   0.008   4.155   2.208  0.5191  0.0019 -0.4347
  572MOL0     H77157  -0.124   4.291   2.456  3.9607  0.7731  1.2200
  572MOL0     H77158  -0.196   4.253   2.296  3.0583 -3.1403 -0.6391
  572MOL0     H77159  -0.048   4.399   2.189 -0.0959  0.8516  0.3112
  572MOL0     H77160   0.029   4.445   2.346  0.7574 -0.8038 -1.4102
  572MOL0     H77161  -0.261   4.484   2.289  0.2734  0.2887  0.0770
  572MOL0     H77162  -0.187   4.522   2.442 -1.0080  0.1570  0.2439
  572MOL0     H77163  -0.056   4.709   2.332 -2.4765  2.0092  1.4737
  572MOL0     H77164  -0.116   4.647   2.173  0.2864 -0.0381  0.2075
  572MOL0     H77165  -0.209   4.835   2.216 -1.4735 -0.9226 -3.7556
  572MOL0     H77166  -0.338   4.714   2.216  0.0882  2.4097 -1.7835
  572MOL0     H77167  -0.327   4.699   2.459  1.0334 -0.8774 -0.3198
  572MOL0     H77168  -0.402   4.850   2.392  0.8319  2.2623  2.7670
  572MOL0     H77169  -0.269   4.936   2.572 -0.0876  2.7736 -2.2287
  572MOL0     H77170  -0.133   4.828   2.539 -1.2337 -1.2766  1.1140
  572MOL0     H77171  -0.324   5.147   2.401 -0.0255 -2.4774  1.5441
  572MOL0     H77172  -0.221   5.297   2.137 -0.8126  0.1942  0.7423
  572MOL0     H77173  -0.198   5.386   2.294 -1.0366 -0.6777 -0.0445
  572MOL0     H77174   0.045   5.356   2.248 -1.6546  1.0917  0.0708
  572MOL0     H77175  -0.003   5.296   2.088  0.8894  0.5148 -0.4848
  572MOL0     H77176  -0.035   5.579   2.183 -4.0891  0.1139  1.0063
  572MOL0     H77177  -0.135   5.515   2.055  1.9430  1.0885 -1.2684
  572MOL0     H77178   0.104   5.613   1.971 -0.1677  1.0377  0.1277
  572MOL0     H77179   0.065   5.463   1.915 -0.9375  3.5821 -0.3151
  572MOL0     H77180   0.348   5.371   2.241  3.2418 -0.6173 -0.2462
  572MOL0     H77181   0.457   5.481   2.435 -1.6021  0.0272 -0.0426
  572MOL0     H77182   0.552   6.090   2.505 -0.5160 -1.8957 -0.5786
  572MOL0     H77183   0.672   6.199   2.675 -1.1052 -0.6670  2.0583
  572MOL0     H77184   0.732   6.150   2.888  0.2173 -1.5608 -1.1922
  572MOL0     H77185   0.865   6.166   2.992 -2.4468 -0.0712 -0.5577
  572MOL0     H77186   0.945   6.358   2.930 -0.0314 -1.2517 -1.2350
  572MOL0     H77187   0.876   6.344   2.759 -0.8134 -0.1176 -0.4841
  572MOL0     H77188   0.642   6.358   2.866 -1.1482  2.7928 -1.3444
  572MOL0     H77189   0.720   6.434   2.999 -2.6467 -0.7763  0.0746
  572MOL0     H77190   0.707   6.526   2.712  0.9898  0.2049 -0.1704
  572MOL0     H77191   0.781   6.631   2.834 -0.6971  1.1530 -3.0435
  572MOL0     H77192   0.489   6.546   2.846  1.0798 -0.9138  1.7216
  572MOL0     H77193   0.564   6.692   2.767  2.6372 -0.5972 -1.4086
  572MOL0     H77194   0.593   6.589   3.051  1.3734 -0.1516 -0.5096
  572MOL0     H77195   0.644   6.756   2.979  0.5834 -0.5128 -0.9303
  572MOL0     H77196   0.433   6.771   3.120  0.7806  1.8284 -0.0330
  572MOL0     H77197   0.366   6.638   3.011 -0.9332  1.8859 -2.4111
  572MOL0     H77198   0.447   6.910   2.905  1.4082 -0.5477  0.6809
  572MOL0     H77199   0.361   6.769   2.828  1.2349  0.8889  0.0076
  572MOL0     H77200   0.965   5.872   2.657  2.1066  3.7638  0.5644
  572MOL0     H77201   0.822   5.759   2.487  0.8363  0.6211 -1.0770
  572MOL0     H77202   0.382   5.857   2.232 -2.2327 -0.3689 -1.1923
  572MOL0     H77203   0.266   5.748   2.076 -1.1050  1.0098  0.9070
  572MOL0     H77204   0.269   4.119   2.350  1.1352  0.6144 -0.3009
  572MOL0     H77205   0.446   3.955   2.391 -0.3783  0.5557 -2.3441
  572MOL0     H77206   0.542   3.463   2.463 -1.0329  1.6688 -0.3713
  572MOL0     H77207   0.736   3.304   2.532 -3.1561 -0.7519 -1.9374
  572MOL0     H77208   1.153   3.284   2.393 -0.5356 -1.2401 -0.2227
  572MOL0     H77209   1.140   3.457   2.355  0.5260 -0.0745 -1.7415
  572MOL0     H77210   0.919   3.362   2.230 -0.6243  0.5975  2.7920
  572MOL0     H77211   0.992   3.204   2.268 -0.3135  0.0027 -1.3236
  572MOL0     H77212   1.044   3.250   2.056 -0.9939  0.2323  0.8631
  572MOL0     H77213   1.200   3.260   2.130  0.3841 -0.4021 -1.5095
  572MOL0     H77214   1.227   3.481   2.136 -2.1024  0.0181  2.1605
  572MOL0     H77215   1.194   3.432   1.970  1.0600 -1.2306 -0.1094
  572MOL0     H77216   0.848   3.675   2.031 -1.0946 -1.1144 -0.8686
  572MOL0     H77217   0.998   3.608   2.372 -0.3807  0.8767  0.8591
  572MOL0     H77218   0.767   3.834   2.242  0.5288 -4.6232 -1.1976
  572MOL0     H77219   0.783   3.875   2.417 -1.7441 -1.1856 -0.0981
  572MOL0     H77220   0.928   3.829   2.313 -0.5083  0.9762 -0.3419
  573MOL0     O77221   7.302   4.116   6.349  0.1565 -0.8670 -0.2071
  573MOL0     C77222   7.332   4.162   6.459 -0.8261 -0.8341 -0.4329
  573MOL0     O77223   7.315   4.291   6.487  0.0737 -0.3155 -0.7374
  573MOL0     C77224   7.289   4.392   6.398 -0.3553  0.3417 -0.5282
  573MOL0     C77225   7.243   4.509   6.466 -0.5729  0.2370  0.5767
  573MOL0     C77226   7.221   4.613   6.383  0.5257  1.1121 -0.0933
  573MOL0     C77227   7.231   4.608   6.242  1.2706 -0.4571 -0.8149
  573MOL0     O77228   7.181   4.720   6.184 -0.2011  0.1294  0.7173
  573MOL0     C77229   7.139   4.702   6.048  0.2747 -0.2903  0.9275
  573MOL0     C77230   7.082   4.846   6.012  0.2787 -0.7735 -0.7293
  573MOL0     C77231   7.179   4.955   5.954  0.3397 -0.3733 -0.0190
  573MOL0     C77232   7.232   4.909   5.820 -1.2515  1.0837  0.2488
  573MOL0     C77233   7.378   4.956   5.783  0.6732  0.5050  0.1040
  573MOL0     C77234   7.424   4.918   5.647  0.8305 -0.0016  0.2252
  573MOL0     C77235   7.470   4.765   5.629 -1.1639  0.3967 -0.1859
  573MOL0     C77236   7.458   4.732   5.478  0.1292 -0.7219 -0.2159
  573MOL0     N77237   7.319   4.694   5.445  1.2595  0.1824 -0.0656
  573MOL0     C77238   7.216   4.780   5.422 -0.0342 -0.3775 -0.3238
  573MOL0     C77239   7.108   4.721   5.453  1.1551 -0.0192 -0.1272
  573MOL0     C77240   6.969   4.779   5.475  0.1624  0.1231  0.5388
  573MOL0     C77241   6.868   4.771   5.353 -0.5463 -0.4486 -0.1199
  573MOL0     C77242   6.835   4.632   5.332  0.4102  0.0855 -0.4587
  573MOL0     C77243   6.726   4.625   5.217 -0.8465 -0.4010 -0.6858
  573MOL0     O77244   6.603   4.670   5.267  0.1942  0.1839 -0.2123
  573MOL0     C77245   6.510   4.568   5.263 -0.2215 -0.0791 -0.2926
  573MOL0     C77246   6.490   4.489   5.379 -0.7504 -0.5816  0.3994
  573MOL0     C77247   6.399   4.384   5.376  0.5756 -0.3120 -0.1759
  573MOL0     C77248   6.329   4.362   5.256  0.4921  1.0238  0.6718
  573MOL0     C77249   6.244   4.241   5.249  0.6491 -1.1067 -0.1572
  573MOL0     O77250   6.251   4.159   5.364  0.4124  0.1733  0.4376
  573MOL0     C77251   6.144   4.070   5.368 -0.7580  0.6599  0.4514
  573MOL0     C77252   6.031   4.106   5.437  0.3244  1.0933 -0.5878
  573MOL0     C77253   5.925   4.018   5.459  0.4130 -0.1662  0.1437
  573MOL0     C77254   5.925   3.895   5.381  0.1186 -0.1050 -0.2410
  573MOL0     O77255   5.824   3.805   5.390 -0.3161  0.2600 -0.2263
  573MOL0     C77256   5.725   3.821   5.285 -0.1374  0.3268 -0.6683
  573MOL0     C77257   5.616   3.720   5.295  0.3369 -0.4071 -0.7263
  573MOL0     C77258   5.535   3.711   5.429 -0.3410 -0.3526  0.3310
  573MOL0     C77259   5.468   3.851   5.455  0.9752 -1.0817  0.5947
  573MOL0     C77260   5.359   3.832   5.569 -0.2218  0.5282 -0.3505
  573MOL0     C77261   5.243   3.939   5.545  0.1356  0.2399 -0.9159
  573MOL0     C77262   5.130   3.944   5.657  0.8210  0.3092  0.1623
  573MOL0     C77263   5.015   4.033   5.606  0.0868 -0.8971  0.3105
  573MOL0    Cl77264   4.890   4.052   5.737  0.2300  0.1078  0.1052
  573MOL0     C77265   6.031   3.871   5.290  0.3794 -0.9904 -0.0932
  573MOL0     C77266   6.142   3.958   5.293 -0.4105  0.8257 -0.5437
  573MOL0     O77267   6.177   4.218   5.147 -0.5122 -0.2243 -0.3509
  573MOL0     C77268   6.358   4.435   5.137 -0.1261 -0.8250 -0.2488
  573MOL0     C77269   6.446   4.536   5.145  1.1321  0.2743 -0.3126
  573MOL0     N77270   7.141   4.595   5.498 -0.5281  0.0776 -0.6577
  573MOL0     N77271   7.266   4.573   5.488  0.1485  0.2147  0.4902
  573MOL0     C77272   7.288   4.497   6.181 -0.2433  0.2104  0.0749
  573MOL0     C77273   7.327   4.389   6.257  0.6180  0.5980  0.3724
  573MOL0     C77274   7.358   4.080   6.574  0.1417  0.1962 -0.6543
  573MOL0     C77275   7.274   4.110   6.689 -0.5984 -0.8877 -0.6423
  573MOL0     C77276   7.293   4.045   6.811 -1.3725  0.6931 -0.3269
  573MOL0     C77277   7.377   3.933   6.817  0.4087 -0.2844  0.0027
  573MOL0     O77278   7.414   3.862   6.930  0.3062  0.7010 -0.1632
  573MOL0     C77279   7.374   3.906   7.066 -0.4411  0.3366  0.5320
  573MOL0     C77280   7.255   3.830   7.111 -0.7520  0.2674 -0.9166
  573MOL0     C77281   7.301   3.696   7.170  0.2677  0.1292  0.3912
  573MOL0     C77282   7.199   3.654   7.274 -0.2750 -0.2176 -1.1365
  573MOL0     C77283   7.217   3.709   7.411  0.8174  0.1592  0.4454
  573MOL0     C77284   7.263   3.747   7.513 -0.1509 -0.8161  0.2681
  573MOL0     C77285   7.440   3.888   6.701  0.2320 -1.4149 -0.9663
  573MOL0     C77286   7.431   3.959   6.579  0.6006  0.8205 -0.3269
  573MOL0     C77287   7.501   3.902   6.452 -0.2581  0.1809  0.4554
  573MOL0     H77288   7.248   4.504   6.574  2.0440  2.4982  0.6652
  573MOL0     H77289   7.170   4.698   6.426  1.2763  2.2781 -1.4201
  573MOL0     H77290   7.230   4.696   5.988  0.1916  1.5877  0.5446
  573MOL0     H77291   7.071   4.618   6.035  0.3835 -0.1321 -0.8748
  573MOL0     H77292   7.028   4.895   6.094  3.3113 -1.4082  1.8373
  573MOL0     H77293   7.015   4.833   5.927  3.0391  0.3695 -3.2270
  573MOL0     H77294   7.248   4.980   6.036 -2.4042  2.0311  1.7454
  573MOL0     H77295   7.119   5.044   5.931  0.5238  0.2904  1.9045
  573MOL0     H77296   7.238   4.801   5.807  3.2072  0.8439  2.2529
  573MOL0     H77297   7.165   4.951   5.744 -0.7162 -0.0089 -0.8640
  573MOL0     H77298   7.385   5.065   5.791 -0.5352  0.6228 -0.2421
  573MOL0     H77299   7.449   4.923   5.859 -1.0852  1.2608  2.1809
  573MOL0     H77300   7.332   4.930   5.589  0.4032 -0.5656  0.7745
  573MOL0     H77301   7.502   4.988   5.616 -0.5709  1.2816 -0.4954
  573MOL0     H77302   7.421   4.693   5.696  1.3821  1.1790  2.7182
  573MOL0     H77303   7.576   4.766   5.658 -0.6453 -4.3327 -1.0520
  573MOL0     H77304   7.488   4.819   5.419  4.4469 -1.7245  0.2283
  573MOL0     H77305   7.537   4.659   5.461  0.5559  0.1579 -2.3309
  573MOL0     H77306   7.233   4.887   5.412  3.7618 -0.4462  2.7866
  573MOL0     H77307   6.923   4.731   5.562 -0.5295 -1.5861 -0.7083
  573MOL0     H77308   6.974   4.885   5.500 -0.1610  0.8573 -2.1806
  573MOL0     H77309   6.786   4.842   5.369 -0.1099  0.6216 -2.2709
  573MOL0     H77310   6.922   4.811   5.267 -0.6448  1.5290  0.6770
  573MOL0     H77311   6.812   4.566   5.417  0.5401  0.2146 -0.3211
  573MOL0     H77312   6.932   4.594   5.299  1.7434  1.3032  1.7558
  573MOL0     H77313   6.719   4.525   5.174 -1.0536 -0.3792 -0.7042
  573MOL0     H77314   6.767   4.681   5.132 -0.1662  0.2745  0.0724
  573MOL0     H77315   6.541   4.513   5.472 -0.5788  0.1747  0.1195
  573MOL0     H77316   6.396   4.322   5.465  3.3851 -2.5063 -1.4288
  573MOL0     H77317   6.019   4.200   5.491  0.8315  0.8835 -0.1020
  573MOL0     H77318   5.850   4.041   5.534  0.6392  2.7069 -0.4053
  573MOL0     H77319   5.666   3.913   5.279 -4.8994 -2.3931 -0.2862
  573MOL0     H77320   5.776   3.815   5.188  1.9054  2.3203  0.1722
  573MOL0     H77321   5.552   3.745   5.210 -0.1566  4.6701  0.7991
  573MOL0     H77322   5.656   3.619   5.282 -0.3159 -1.2273  2.7030
  573MOL0     H77323   5.457   3.635   5.426 -1.3685  0.6701  0.3291
  573MOL0     H77324   5.593   3.689   5.519 -1.3007  2.3468  1.7090
  573MOL0     H77325   5.427   3.898   5.366  0.7071  0.3236  1.4381
  573MOL0     H77326   5.547   3.914   5.496  2.1346 -1.7714 -0.4898
  573MOL0     H77327   5.409   3.850   5.664 -0.5154 -2.4917  0.4748
  573MOL0     H77328   5.323   3.728   5.567 -0.2779  0.5511 -0.8401
  573MOL0     H77329   5.289   4.036   5.520  1.6129 -0.6448 -1.8156
  573MOL0     H77330   5.204   3.902   5.450  2.7439 -1.4633 -1.4442
  573MOL0     H77331   5.170   3.979   5.753 -3.1365 -0.4950  2.2980
  573MOL0     H77332   5.080   3.849   5.670 -1.2649  1.2732 -0.4754
  573MOL0     H77333   5.052   4.130   5.569  2.7414 -1.4002  1.4113
  573MOL0     H77334   4.972   3.988   5.516  0.7647 -1.3571  0.2124
  573MOL0     H77335   6.025   3.782   5.229 -0.2177 -1.0687  0.0683
  573MOL0     H77336   6.229   3.942   5.230  0.2248  0.6907  0.3440
  573MOL0     H77337   6.303   4.416   5.046 -3.3754 -0.8456  1.5569
  573MOL0     H77338   6.458   4.589   5.051  0.2682  0.0570 -0.5546
  573MOL0     H77339   7.309   4.501   6.074  1.5068  2.0876  0.4333
  573MOL0     H77340   7.387   4.306   6.222  0.1477  1.0511 -1.6542
  573MOL0     H77341   7.202   4.190   6.695  1.5380  1.1000 -0.1331
  573MOL0     H77342   7.232   4.081   6.894  1.8921  2.0214  1.7217
  573MOL0     H77343   7.346   4.011   7.055  2.5491  1.1761  0.2104
  573MOL0     H77344   7.459   3.897   7.134 -0.6372  0.9368  0.8660
  573MOL0     H77345   7.189   3.822   7.024 -0.0124 -1.5142 -1.3530
  573MOL0     H77346   7.225   3.888   7.199  4.3570 -1.3709  2.3145
  573MOL0     H77347   7.394   3.715   7.225  0.2858  2.0511 -0.2275
  573MOL0     H77348   7.314   3.620   7.092  1.0362 -1.6550  2.1621
  573MOL0     H77349   7.096   3.672   7.242 -1.0553  0.2454  1.4231
  573MOL0     H77350   7.207   3.546   7.292 -1.4562 -0.3169 -1.1329
  573MOL0     H77351   7.315   3.776   7.602  1.2082 -0.8889 -0.4815
  573MOL0     H77352   7.512   3.807   6.711  1.9841 -0.2747 -3.3438
  573MOL0     H77353   7.435   3.838   6.392  1.2517 -0.5841 -0.4665
  573MOL0     H77354   7.546   3.987   6.400 -0.9841  0.1605 -0.2268
  573MOL0     H77355   7.582   3.834   6.481  0.4865  0.8633  0.0036
  574MOL0     O77356   8.661   8.209   4.589  0.1746  0.1895 -0.1944
  574MOL0     C77357   8.670   8.151   4.486  0.4494  0.5096  0.1003
  574MOL0     O77358   8.623   8.023   4.467 -0.0838 -0.5401  0.8693
  574MOL0     C77359   8.524   7.972   4.554  0.2354 -0.4236 -0.0590
  574MOL0     C77360   8.556   7.923   4.684 -0.4603 -0.0617 -1.0883
  574MOL0     C77361   8.454   7.868   4.763 -0.0906  0.2589 -0.1896
  574MOL0     C77362   8.322   7.852   4.709 -0.3811 -0.2546  0.6586
  574MOL0     O77363   8.228   7.798   4.796  0.3230 -0.7970  0.7589
  574MOL0     C77364   8.084   7.778   4.765  0.9621 -0.4083 -0.2477
  574MOL0     C77365   7.997   7.797   4.887 -0.4107  0.0450 -0.5023
  574MOL0     C77366   7.845   7.817   4.847  0.3713  0.3568  0.7303
  574MOL0     C77367   7.788   7.689   4.792 -0.4424  0.1662 -0.6460
  574MOL0     C77368   7.659   7.729   4.722  0.3614 -0.4029 -0.2399
  574MOL0     C77369   7.572   7.613   4.676  0.1731  0.4192  0.3625
  574MOL0     C77370   7.430   7.655   4.638 -0.5417 -1.2046  0.3740
  574MOL0     C77371   7.328   7.663   4.763  0.3060  0.1473  0.7553
  574MOL0     N77372   7.190   7.670   4.711 -0.5770 -0.8678  0.3197
  574MOL0     C77373   7.143   7.761   4.621 -0.3209  0.0998 -0.0571
  574MOL0     C77374   7.019   7.726   4.601 -0.0354  0.3567  0.1342
  574MOL0     C77375   6.930   7.764   4.488 -0.6334 -0.1300  0.0990
  574MOL0     C77376   6.887   7.908   4.490  0.1691  0.3021 -0.0959
  574MOL0     C77377   6.782   7.919   4.379 -0.0760 -0.8233 -0.1803
  574MOL0     C77378   6.655   7.838   4.384 -0.1155 -0.4304  1.0738
  574MOL0     O77379   6.592   7.831   4.512  0.2423 -0.2549  0.0510
  574MOL0     C77380   6.461   7.791   4.513  0.2548 -0.5814 -0.1436
  574MOL0     C77381   6.428   7.663   4.466  0.5476  0.7113 -0.1033
  574MOL0     C77382   6.290   7.631   4.465 -0.6669 -0.3677  1.1266
  574MOL0     C77383   6.193   7.735   4.493 -0.7815 -0.0763 -0.2009
  574MOL0     C77384   6.042   7.703   4.481  0.2374  0.1350  0.0821
  574MOL0     O77385   6.006   7.571   4.451 -0.7512 -0.0752 -1.3869
  574MOL0     C77386   5.891   7.517   4.493  0.4336 -0.5279 -0.3938
  574MOL0     C77387   5.775   7.553   4.416 -0.0310  1.2341  0.0384
  574MOL0     C77388   5.655   7.495   4.463 -0.0280 -0.1454 -0.0925
  574MOL0     C77389   5.642   7.435   4.581 -0.0623 -0.6173  0.2957
  574MOL0     O77390   5.530   7.380   4.623 -0.6446 -0.4557 -0.6859
  574MOL0     C77391   5.403   7.391   4.555 -0.4446  2.1038  0.0386
  574MOL0     C77392   5.302   7.296   4.605 -0.3064  0.5574 -0.1367
  574MOL0     C77393   5.357   7.150   4.584  0.4369 -0.4458  0.4429
  574MOL0     C77394   5.243   7.046   4.577 -0.2382 -0.4114  0.2636
  574MOL0     C77395   5.300   6.905   4.583  0.1942  0.5980  0.3075
  574MOL0     C77396   5.196   6.803   4.531 -0.1670  0.2893  0.5640
  574MOL0     C77397   5.086   6.775   4.640 -0.1863  0.3962  0.1349
  574MOL0     C77398   5.060   6.621   4.629  0.1907  0.6927  0.4660
  574MOL0    Cl77399   4.908   6.561   4.734 -0.0281 -0.3052  0.2040
  574MOL0     C77400   5.754   7.423   4.663  0.1252  0.5828 -0.0348
  574MOL0     C77401   5.882   7.457   4.620 -0.1790 -0.4003 -0.3691
  574MOL0     O77402   5.967   7.797   4.490 -0.2581 -0.1250  1.0592
  574MOL0     C77403   6.238   7.851   4.560  0.0008 -0.0600 -0.0892
  574MOL0     C77404   6.372   7.884   4.570 -0.2461 -0.3418 -0.2648
  574MOL0     N77405   6.984   7.627   4.694 -0.6514 -0.7197 -0.2516
  574MOL0     N77406   7.089   7.595   4.764 -0.2207  0.5192  0.4684
  574MOL0     C77407   8.291   7.888   4.582 -0.3408 -0.2962 -0.0969
  574MOL0     C77408   8.395   7.954   4.508  0.1043 -0.5221  0.3297
  574MOL0     C77409   8.747   8.218   4.380  0.4116  0.1887 -0.6971
  574MOL0     C77410   8.859   8.158   4.332 -1.1991  0.0640 -0.8950
  574MOL0     C77411   8.956   8.231   4.261  0.4689  0.8371 -0.4262
  574MOL0     C77412   8.931   8.356   4.214  0.4014  0.2134  1.5103
  574MOL0     O77413   9.015   8.420   4.131 -0.4508  0.3743  0.8283
  574MOL0     C77414   9.107   8.505   4.201  0.0099  0.5754  0.0305
  574MOL0     C77415   9.163   8.598   4.099 -0.3646 -0.0600  0.6272
  574MOL0     C77416   9.193   8.745   4.138  0.0344  0.4528  0.1942
  574MOL0     C77417   9.063   8.830   4.126  1.0992  0.0616 -0.4645
  574MOL0     C77418   9.066   8.964   4.184 -0.0651 -0.5952 -0.3128
  574MOL0     C77419   9.073   9.080   4.230  1.1849 -0.0753  0.4929
  574MOL0     C77420   8.808   8.410   4.249 -0.6198 -0.4090 -0.6315
  574MOL0     C77421   8.725   8.349   4.340  0.1907  0.9061  0.8446
  574MOL0     C77422   8.595   8.425   4.370 -0.3426 -0.3717  0.5373
  574MOL0     H77423   8.659   7.940   4.715 -0.0692 -0.1120 -2.3083
  574MOL0     H77424   8.456   7.832   4.865 -5.3276  1.9477  0.8148
  574MOL0     H77425   8.055   7.858   4.696 -0.4397  0.1322  0.9239
  574MOL0     H77426   8.062   7.688   4.706 -1.1866  0.8513 -1.4907
  574MOL0     H77427   8.029   7.886   4.942  2.1452 -2.4368  2.4143
  574MOL0     H77428   8.009   7.728   4.971 -1.1932  1.3923  0.7576
  574MOL0     H77429   7.828   7.894   4.772 -2.0231 -1.2795 -0.5270
  574MOL0     H77430   7.793   7.848   4.938  2.3920  1.4240  1.6043
  574MOL0     H77431   7.856   7.638   4.723 -2.0013  1.5725 -3.3889
  574MOL0     H77432   7.748   7.633   4.877 -0.3251  2.4790  1.0291
  574MOL0     H77433   7.606   7.807   4.778  0.5128 -1.2399  1.1093
  574MOL0     H77434   7.679   7.787   4.631  2.8172 -1.9564 -0.8000
  574MOL0     H77435   7.618   7.553   4.597 -2.5996  0.3254 -1.3126
  574MOL0     H77436   7.554   7.547   4.761 -1.9047 -1.4038 -1.3803
  574MOL0     H77437   7.390   7.575   4.575 -2.2654  0.4858 -0.8159
  574MOL0     H77438   7.441   7.752   4.587 -0.8911 -1.4257 -0.1329
  574MOL0     H77439   7.341   7.579   4.832 -1.1848  1.0329  2.1798
  574MOL0     H77440   7.350   7.751   4.825 -1.3762  0.8961  0.3409
  574MOL0     H77441   7.204   7.840   4.578  0.1114 -1.2984 -2.1715
  574MOL0     H77442   6.978   7.750   4.390  0.6350 -0.2461  0.7262
  574MOL0     H77443   6.845   7.696   4.480 -0.5083 -0.2124 -0.6590
  574MOL0     H77444   6.833   7.927   4.584 -3.1943 -0.4078 -1.7358
  574MOL0     H77445   6.961   7.983   4.458 -1.6042  0.8619 -3.3155
  574MOL0     H77446   6.825   7.901   4.281  1.4593 -1.5889  0.6002
  574MOL0     H77447   6.746   8.022   4.369 -1.1004 -1.2642 -1.2364
  574MOL0     H77448   6.683   7.737   4.355  2.7717  0.2000  1.2843
  574MOL0     H77449   6.586   7.874   4.307 -1.9818 -1.6219  2.1194
  574MOL0     H77450   6.506   7.599   4.425 -0.2299 -1.2080  1.2733
  574MOL0     H77451   6.258   7.534   4.430  1.9636 -1.2116  0.8887
  574MOL0     H77452   5.790   7.606   4.323  0.3070 -1.4948 -1.5764
  574MOL0     H77453   5.567   7.511   4.401 -3.1753  1.4712  4.2522
  574MOL0     H77454   5.356   7.488   4.572 -4.3009  0.6127 -0.9153
  574MOL0     H77455   5.412   7.384   4.446  1.7699 -1.0732  0.2807
  574MOL0     H77456   5.270   7.307   4.709 -0.0141 -0.1905  0.0455
  574MOL0     H77457   5.208   7.316   4.553 -0.5645 -0.4263 -0.0788
  574MOL0     H77458   5.421   7.144   4.495  1.8361  1.7120  1.2172
  574MOL0     H77459   5.414   7.132   4.675  1.8143  1.8089  0.1020
  574MOL0     H77460   5.191   7.065   4.483 -1.4972  2.5167  1.4443
  574MOL0     H77461   5.174   7.076   4.656  0.5864 -0.6920  1.1120
  574MOL0     H77462   5.334   6.885   4.685 -2.1751 -0.4342  0.9651
  574MOL0     H77463   5.386   6.898   4.515  0.4397  0.0776  0.6607
  574MOL0     H77464   5.142   6.827   4.439 -0.7145 -2.4912  0.0618
  574MOL0     H77465   5.252   6.710   4.513  0.4646  0.3702  1.9748
  574MOL0     H77466   4.999   6.834   4.612  0.6912 -0.1578 -4.6892
  574MOL0     H77467   5.116   6.815   4.737  3.3476 -1.1369 -0.1734
  574MOL0     H77468   5.038   6.598   4.524 -1.9123  0.3953  0.9160
  574MOL0     H77469   5.151   6.565   4.656  1.7708  0.4403 -4.4793
  574MOL0     H77470   5.738   7.367   4.755  0.6409 -0.1633 -0.3859
  574MOL0     H77471   5.969   7.417   4.671 -0.0910 -2.4507 -1.9995
  574MOL0     H77472   6.161   7.917   4.599 -0.5802 -0.7060 -0.1170
  574MOL0     H77473   6.416   7.976   4.606  1.0574 -2.3327  3.8866
  574MOL0     H77474   8.198   7.884   4.526 -0.5202  0.5152  0.1216
  574MOL0     H77475   8.371   8.009   4.418 -1.6576  0.7158  1.4771
  574MOL0     H77476   8.898   8.063   4.366  4.1427  2.2351  0.2280
  574MOL0     H77477   9.047   8.182   4.229 -0.0612 -1.7994  1.7379
  574MOL0     H77478   9.186   8.446   4.249 -1.4326 -0.0086  1.7920
  574MOL0     H77479   9.055   8.559   4.281 -1.0004  1.6341 -1.2811
  574MOL0     H77480   9.096   8.596   4.012  2.5856 -0.4196 -1.8400
  574MOL0     H77481   9.252   8.555   4.051 -1.4233 -0.3375 -1.1891
  574MOL0     H77482   9.284   8.780   4.089 -0.1371  2.4775  1.2104
  574MOL0     H77483   9.216   8.751   4.245 -1.5350 -2.1591  0.7630
  574MOL0     H77484   9.034   8.843   4.022 -4.3843 -0.0845  0.7663
  574MOL0     H77485   8.977   8.774   4.163 -0.2975 -0.6039 -4.2814
  574MOL0     H77486   9.065   9.181   4.263 -2.1955 -0.7401  2.1859
  574MOL0     H77487   8.796   8.513   4.217  1.8282 -0.6567 -2.6239
  574MOL0     H77488   8.511   8.394   4.307  0.1669  0.8825 -0.8118
  574MOL0     H77489   8.579   8.410   4.477  2.9264 -1.5225  0.9840
  574MOL0     H77490   8.604   8.533   4.359 -2.4568  0.4729  4.7422
  575MOL0     O77491   3.964   9.015   9.941 -1.2552  0.3539 -1.5913
  575MOL0     C77492   3.988   9.051   9.834 -0.9138  0.1293  1.1677
  575MOL0     O77493   4.008   9.182   9.797 -0.4517 -0.3833  0.0369
  575MOL0     C77494   3.964   9.271   9.895 -0.7255  0.1193  0.3377
  575MOL0     C77495   3.852   9.267   9.969  0.0574  0.4132  0.4157
  575MOL0     C77496   3.828   9.356  10.070  0.3932  0.0212 -0.3159
  575MOL0     C77497   3.906   9.461  10.096 -0.3222 -0.3215  0.5922
  575MOL0     O77498   3.883   9.559  10.191  0.4053  0.0634  0.7393
  575MOL0     C77499   3.745   9.596  10.208  0.2377  0.0266 -0.8925
  575MOL0     C77500   3.741   9.747  10.237 -0.5853  0.3422 -0.5638
  575MOL0     C77501   3.772   9.839  10.119 -1.0281  0.4807 -0.4333
  575MOL0     C77502   3.655   9.887  10.041  0.6518  0.7196 -0.7710
  575MOL0     C77503   3.562   9.984  10.113  0.2270  0.5753 -0.0879
  575MOL0     C77504   3.423  10.013  10.049  0.0006  0.2759 -0.0309
  575MOL0     C77505   3.442  10.050   9.907 -0.8689  0.6306 -0.2197
  575MOL0     C77506   3.315  10.046   9.831  0.6518 -0.8106  0.5028
  575MOL0     N77507   3.222  10.145   9.879  0.6550 -0.6624  0.2555
  575MOL0     C77508   3.134  10.136   9.982  0.7106 -0.3178 -0.4146
  575MOL0     C77509   3.070  10.258   9.983  0.3583 -0.0770  0.0278
  575MOL0     C77510   2.953  10.289  10.059 -0.3879 -0.2693  0.9874
  575MOL0     C77511   2.836  10.199  10.017 -0.1419 -0.9758 -0.1880
  575MOL0     C77512   2.769  10.269   9.896  0.6985 -0.0420 -0.1465
  575MOL0     C77513   2.616  10.243   9.877  0.4790  0.6027  0.8370
  575MOL0     O77514   2.590  10.107   9.850 -0.1683 -0.0712  0.1265
  575MOL0     C77515   2.473  10.055   9.886  0.6919 -0.2294 -0.6252
  575MOL0     C77516   2.364  10.126   9.934  0.1438 -0.0408 -0.6377
  575MOL0     C77517   2.245  10.057   9.968 -0.0360  0.3966 -1.2137
  575MOL0     C77518   2.237   9.918   9.966  0.1336  0.7407  0.0454
  575MOL0     C77519   2.107   9.853   9.990 -0.2681  0.5660 -0.2870
  575MOL0     O77520   2.098   9.719   9.959 -0.6626 -0.4655  0.3111
  575MOL0     C77521   2.117   9.638  10.073  0.2704 -0.4594  0.4222
  575MOL0     C77522   2.135   9.501  10.055 -0.2241 -0.5624  1.3568
  575MOL0     C77523   2.153   9.411  10.160 -0.1308 -0.3218 -0.1221
  575MOL0     C77524   2.165   9.458  10.290 -0.3207 -0.1242 -0.6256
  575MOL0     O77525   2.184   9.365  10.387  0.0700  0.5148 -0.4651
  575MOL0     C77526   2.105   9.378  10.512 -1.0001  0.5132  0.2775
  575MOL0     C77527   2.201   9.383  10.632 -0.4623  0.1188 -0.5011
  575MOL0     C77528   2.320   9.291  10.624 -0.0202  0.6152 -0.2104
  575MOL0     C77529   2.286   9.135  10.625  0.0157  0.1915 -1.1257
  575MOL0     C77530   2.263   9.090  10.773  0.0124 -0.3693 -0.0467
  575MOL0     C77531   2.212   8.942  10.797 -0.1895 -0.9376 -0.3316
  575MOL0     C77532   2.172   8.928  10.953  0.5774  0.4084 -0.4692
  575MOL0     C77533   2.041   8.980  11.004 -0.4655  1.1749 -0.4634
  575MOL0    Cl77534   2.074   9.150  11.030 -0.0875  0.3939 -0.0080
  575MOL0     C77535   2.149   9.588  10.308  0.8023 -0.7445  1.0257
  575MOL0     C77536   2.130   9.684  10.202 -0.3226  0.2176  0.3372
  575MOL0     O77537   2.009   9.919  10.026  0.4514 -0.8884 -0.5354
  575MOL0     C77538   2.342   9.853   9.908 -0.0497 -0.7314 -0.2244
  575MOL0     C77539   2.466   9.914   9.881 -0.4518  0.1711  0.5701
  575MOL0     N77540   3.124  10.333   9.880 -0.4338  0.0024 -0.7782
  575MOL0     N77541   3.215  10.265   9.824  0.4247  0.1798 -0.0868
  575MOL0     C77542   4.021   9.473  10.016 -0.2901  0.3075 -1.3404
  575MOL0     C77543   4.048   9.376   9.920  0.4942  0.0934 -0.0764
  575MOL0     C77544   3.999   8.954   9.725  0.5481 -0.5130  0.0423
  575MOL0     C77545   4.040   8.998   9.594 -0.2014 -0.1782  0.3357
  575MOL0     C77546   4.055   8.909   9.482  0.2481 -0.1862  0.2015
  575MOL0     C77547   4.010   8.778   9.500 -0.3437 -0.6244 -0.4510
  575MOL0     O77548   4.015   8.690   9.393 -0.4335  0.2496  0.0598
  575MOL0     C77549   4.076   8.558   9.408  0.4320  0.5548 -0.1692
  575MOL0     C77550   4.217   8.551   9.355 -0.5364 -1.4995  0.5753
  575MOL0     C77551   4.220   8.612   9.213 -0.0280 -0.1850 -0.5522
  575MOL0     C77552   4.343   8.570   9.139  0.3305  0.2061 -0.0384
  575MOL0     C77553   4.341   8.643   9.015 -0.0257 -0.4637 -0.1781
  575MOL0     C77554   4.335   8.688   8.902 -0.9163 -0.0094  0.3529
  575MOL0     C77555   3.956   8.739   9.621  0.7191  0.4407 -0.5214
  575MOL0     C77556   3.950   8.822   9.738 -0.4561  0.1891  0.1471
  575MOL0     C77557   3.893   8.759   9.871  0.4522 -0.0458 -0.1231
  575MOL0     H77558   3.767   9.201   9.953  0.5489 -0.6335  1.8978
  575MOL0     H77559   3.731   9.349  10.117 -0.3424 -1.9430 -1.9747
  575MOL0     H77560   3.691   9.587  10.113 -0.6288 -1.4763 -0.3088
  575MOL0     H77561   3.692   9.530  10.278  0.5698 -2.9580 -3.2336
  575MOL0     H77562   3.825   9.769  10.304 -0.1459  3.4272 -1.9638
  575MOL0     H77563   3.647   9.782  10.281  1.8518  2.0586  3.8982
  575MOL0     H77564   3.849   9.792  10.058 -0.3909  1.2365 -0.2227
  575MOL0     H77565   3.819   9.931  10.157 -3.0815  2.4982 -2.4349
  575MOL0     H77566   3.703   9.935   9.955  1.0453 -1.0047 -1.5655
  575MOL0     H77567   3.608   9.794  10.006 -0.5745 -0.2829  3.0850
  575MOL0     H77568   3.533   9.954  10.214 -2.1002  1.6163 -0.3832
  575MOL0     H77569   3.624  10.073  10.127  1.1558  0.6389 -3.6438
  575MOL0     H77570   3.364   9.921  10.060  0.5865 -0.3046 -1.4760
  575MOL0     H77571   3.374  10.091  10.109 -1.7397  1.5136 -2.8640
  575MOL0     H77572   3.517   9.993   9.852 -1.0664  0.1888 -0.0362
  575MOL0     H77573   3.476  10.154   9.912  3.1564 -0.6105  2.3591
  575MOL0     H77574   3.338  10.069   9.726  2.6418 -3.5743  0.2384
  575MOL0     H77575   3.276   9.943   9.833 -1.4260 -0.0890  3.3897
  575MOL0     H77576   3.117  10.049  10.045 -1.4523  1.4641  1.6461
  575MOL0     H77577   2.986  10.276  10.163  1.9511  0.0146  0.3118
  575MOL0     H77578   2.930  10.394  10.039 -1.0858 -0.6021 -0.0306
  575MOL0     H77579   2.864  10.094  10.001  1.3388 -0.8511  1.2790
  575MOL0     H77580   2.760  10.184  10.094  1.4367 -2.2234  1.2108
  575MOL0     H77581   2.817  10.245   9.801 -3.5295 -1.0822 -2.2679
  575MOL0     H77582   2.779  10.375   9.921  2.2566 -0.3590  0.7294
  575MOL0     H77583   2.589  10.311   9.796  1.3160 -2.0556 -1.8400
  575MOL0     H77584   2.566  10.276   9.969 -2.1116  1.9616 -0.9380
  575MOL0     H77585   2.365  10.234   9.944 -1.0609  0.0144 -0.9974
  575MOL0     H77586   2.166  10.121  10.007  0.7121  0.3952  0.3928
  575MOL0     H77587   2.141   9.457   9.956  0.8666 -1.4615  1.7997
  575MOL0     H77588   2.160   9.304  10.142 -0.9046  0.1526 -4.2861
  575MOL0     H77589   2.037   9.463  10.501 -2.0660 -0.5310 -1.7035
  575MOL0     H77590   2.052   9.283  10.526 -0.5843  0.2959  0.3983
  575MOL0     H77591   2.238   9.485  10.646 -1.3587  0.3256  0.4743
  575MOL0     H77592   2.137   9.355  10.716  0.7731  2.8753  1.5177
  575MOL0     H77593   2.385   9.314  10.539 -0.1998  0.4683 -0.3905
  575MOL0     H77594   2.392   9.305  10.705  1.0833 -2.8251 -0.4035
  575MOL0     H77595   2.352   9.064  10.575 -2.0334 -2.8594  0.2426
  575MOL0     H77596   2.199   9.128  10.559 -0.3231  2.0750 -0.9397
  575MOL0     H77597   2.196   9.163  10.819  1.7850  0.5996  1.1024
  575MOL0     H77598   2.357   9.094  10.828 -0.7896  1.6377  1.2592
  575MOL0     H77599   2.125   8.928  10.732 -1.1007 -0.4957  0.7636
  575MOL0     H77600   2.291   8.880  10.752  2.8784  2.9239 -0.8199
  575MOL0     H77601   2.246   8.972  11.021 -0.2186 -1.2156  1.5936
  575MOL0     H77602   2.176   8.823  10.984  1.6943  0.8594  1.0384
  575MOL0     H77603   1.963   8.947  10.936  0.3395 -0.4600 -0.6331
  575MOL0     H77604   2.006   8.948  11.103  2.4229  0.6688  0.5120
  575MOL0     H77605   2.169   9.636  10.404 -2.1075  2.6559  0.1556
  575MOL0     H77606   2.150   9.790  10.215  2.3735 -0.1676 -0.1085
  575MOL0     H77607   2.334   9.745   9.902 -2.9629 -0.8057  2.5660
  575MOL0     H77608   2.546   9.859   9.832 -0.9115 -0.9882  1.0814
  575MOL0     H77609   4.086   9.556  10.039 -2.2444  1.9507 -1.4352
  575MOL0     H77610   4.140   9.367   9.863  0.4610 -1.6454  0.1083
  575MOL0     H77611   4.068   9.101   9.574 -0.3550 -0.1335  0.3577
  575MOL0     H77612   4.101   8.947   9.392  0.9881  2.1776  1.4784
  575MOL0     H77613   4.025   8.479   9.351  2.5896 -0.7629 -0.4168
  575MOL0     H77614   4.062   8.516   9.508  2.3056 -3.3666 -1.3074
  575MOL0     H77615   4.257   8.450   9.343  1.0961 -0.6411 -2.1574
  575MOL0     H77616   4.281   8.609   9.422  0.0699  0.1891 -1.3350
  575MOL0     H77617   4.229   8.720   9.226  2.8498 -0.3652 -0.3815
  575MOL0     H77618   4.128   8.572   9.169 -2.3317  1.0460  2.7290
  575MOL0     H77619   4.424   8.596   9.207 -0.7321 -1.2791  1.8755
  575MOL0     H77620   4.347   8.462   9.121  0.7107 -0.0112  1.2444
  575MOL0     H77621   4.301   8.732   8.810 -1.4570  0.9181  0.9849
  575MOL0     H77622   3.911   8.641   9.632  0.2644  0.6500 -0.5048
  575MOL0     H77623   3.839   8.665   9.855 -1.4186  0.5692  1.9543
  575MOL0     H77624   3.981   8.745   9.934 -0.0353  0.1056  0.6162
  575MOL0     H77625   3.825   8.831   9.918  1.6878  1.3458 -0.3908
  576MOL0     O77626   4.657   3.130   9.924  0.4843  0.2049 -0.6253
  576MOL0     C77627   4.598   3.068   9.840  0.1820  0.0571  0.8288
  576MOL0     O77628   4.512   3.116   9.751  0.4855  0.0885 -0.0547
  576MOL0     C77629   4.462   3.241   9.741 -0.3780  0.6285  0.8144
  576MOL0     C77630   4.447   3.324   9.848  0.7979 -1.1069 -0.8216
  576MOL0     C77631   4.385   3.455   9.845 -0.3947 -0.4751 -0.0925
  576MOL0     C77632   4.353   3.501   9.719  0.1726  0.9498 -0.0324
  576MOL0     O77633   4.280   3.615   9.711 -0.1706  0.1903  0.2506
  576MOL0     C77634   4.140   3.597   9.687 -0.3233 -0.1603  0.2838
  576MOL0     C77635   4.071   3.607   9.823 -0.4632  0.5927  0.2032
  576MOL0     C77636   3.918   3.596   9.813 -0.6175  0.1271 -0.2307
  576MOL0     C77637   3.854   3.700   9.897  0.3709 -0.1411 -0.3133
  576MOL0     C77638   3.708   3.679   9.902 -0.5432  0.7695 -0.0598
  576MOL0     C77639   3.645   3.791   9.987  0.3747  0.0162 -0.0140
  576MOL0     C77640   3.515   3.738  10.060 -0.1214 -0.2869  0.3287
  576MOL0     C77641   3.393   3.727   9.972 -0.1364  0.2834  0.0694
  576MOL0     N77642   3.370   3.858   9.907  1.0527  0.1468  0.5756
  576MOL0     C77643   3.322   3.873   9.777 -0.1568  0.1521  0.4920
  576MOL0     C77644   3.306   4.011   9.771  0.0354  0.1420  0.7732
  576MOL0     C77645   3.286   4.073   9.634 -0.7332  0.9007  0.4288
  576MOL0     C77646   3.152   4.035   9.577 -0.8715 -0.6159  0.0246
  576MOL0     C77647   3.102   4.099   9.444 -0.7144 -0.1043 -0.9488
  576MOL0     C77648   3.117   4.248   9.446 -0.4121 -0.4282 -0.2924
  576MOL0     O77649   3.030   4.313   9.348  0.0764 -0.2559  0.0900
  576MOL0     C77650   2.921   4.382   9.406 -0.1935  0.1164 -0.2936
  576MOL0     C77651   2.869   4.500   9.351  0.0768  0.9273  0.0376
  576MOL0     C77652   2.774   4.579   9.411 -0.1937  0.0017  0.0955
  576MOL0     C77653   2.725   4.543   9.541  0.7155 -1.5481 -1.0691
  576MOL0     C77654   2.650   4.638   9.626  0.3224 -0.1156 -0.4597
  576MOL0     O77655   2.607   4.597   9.747  0.5865 -0.3226 -0.8214
  576MOL0     C77656   2.552   4.687   9.839 -0.4701  0.0794  1.1500
  576MOL0     C77657   2.556   4.654   9.975 -0.3353  0.6379 -0.1830
  576MOL0     C77658   2.517   4.738  10.081  0.0476 -0.8675 -0.8970
  576MOL0     C77659   2.480   4.872  10.058  0.3862 -0.7821  0.1204
  576MOL0     O77660   2.440   4.947  10.161  0.3395 -0.0881 -0.7249
  576MOL0     C77661   2.317   5.022  10.144 -0.8935 -1.3924  0.3966
  576MOL0     C77662   2.212   4.911  10.162  1.1044  0.1634  0.3163
  576MOL0     C77663   2.058   4.949  10.134 -0.2995 -0.1186 -0.4003
  576MOL0     C77664   1.998   5.049  10.225 -1.2962  0.1421  0.0809
  576MOL0     C77665   1.848   5.081  10.192  0.0949  0.3612  0.6188
  576MOL0     C77666   1.845   5.192  10.097  0.2565  0.2359  0.0956
  576MOL0     C77667   1.858   5.329  10.172 -0.4270 -0.5804 -0.2214
  576MOL0     C77668   1.839   5.454  10.077 -1.8075  0.3069  0.4695
  576MOL0    Cl77669   1.952   5.435   9.943 -0.5002  0.1627  0.1332
  576MOL0     C77670   2.472   4.900   9.927 -0.0737  0.3932 -0.0792
  576MOL0     C77671   2.502   4.819   9.822  0.4110 -0.3422  0.0981
  576MOL0     O77672   2.650   4.751   9.579  0.6676  0.0209 -0.0268
  576MOL0     C77673   2.773   4.424   9.597  0.9012  0.1764 -0.5301
  576MOL0     C77674   2.859   4.341   9.529 -0.9578 -0.8380  1.1193
  576MOL0     N77675   3.335   4.077   9.890  0.3054 -0.2477 -0.4290
  576MOL0     N77676   3.366   3.982   9.969 -0.8011 -0.0807  0.3320
  576MOL0     C77677   4.369   3.420   9.608  0.0907 -0.2767 -0.0490
  576MOL0     C77678   4.428   3.288   9.611 -0.0398 -0.6964 -0.9831
  576MOL0     C77679   4.645   2.916   9.837  0.5615 -0.5467  0.1663
  576MOL0     C77680   4.723   2.853   9.940  0.4069 -0.7207 -0.0364
  576MOL0     C77681   4.798   2.740   9.923 -0.0366 -0.4567 -0.4131
  576MOL0     C77682   4.794   2.663   9.805 -0.7954 -0.5116  1.0357
  576MOL0     O77683   4.867   2.548   9.799 -0.0829 -0.2203  0.8853
  576MOL0     C77684   4.894   2.506   9.659  0.0456  0.1019  0.2350
  576MOL0     C77685   5.004   2.391   9.659  0.8427 -0.5931 -0.2541
  576MOL0     C77686   5.144   2.439   9.705  0.0312 -0.9815 -0.4829
  576MOL0     C77687   5.246   2.321   9.721  0.8922 -0.2465 -0.5203
  576MOL0     C77688   5.246   2.237   9.604  0.4641  0.1260 -0.9912
  576MOL0     C77689   5.243   2.170   9.508  0.3558 -0.5027  0.7980
  576MOL0     C77690   4.713   2.710   9.704  0.4506 -0.4418  1.0425
  576MOL0     C77691   4.635   2.832   9.725  0.5930 -0.5280  0.2598
  576MOL0     C77692   4.567   2.870   9.598  0.2324  0.6281  1.0578
  576MOL0     H77693   4.467   3.290   9.950  0.0085  0.7627  0.0089
  576MOL0     H77694   4.368   3.518   9.931 -1.4698  0.7055 -1.1254
  576MOL0     H77695   4.110   3.687   9.632  1.9494  0.7611  0.4123
  576MOL0     H77696   4.113   3.509   9.627  0.5243  0.4907 -1.1141
  576MOL0     H77697   4.102   3.703   9.864  0.7017  1.1778 -1.8765
  576MOL0     H77698   4.096   3.522   9.887 -3.2205  0.1882  0.8689
  576MOL0     H77699   3.882   3.497   9.842  2.7361 -1.0057  0.5442
  576MOL0     H77700   3.892   3.609   9.707 -2.6626  2.2352  0.4559
  576MOL0     H77701   3.892   3.695   9.999 -0.4247  3.2698  0.2591
  576MOL0     H77702   3.872   3.794   9.844  3.6479 -0.5147 -0.0416
  576MOL0     H77703   3.652   3.665   9.809 -4.1556 -1.5566  2.1820
  576MOL0     H77704   3.682   3.583   9.949 -1.2962 -0.4748 -2.8129
  576MOL0     H77705   3.708   3.818  10.073  0.3299  1.7120 -0.4840
  576MOL0     H77706   3.633   3.882   9.928  0.3654  0.0791  0.0844
  576MOL0     H77707   3.489   3.816  10.132  0.4709 -0.4144  0.6823
  576MOL0     H77708   3.545   3.648  10.114 -0.6067  0.4479  1.9038
  576MOL0     H77709   3.417   3.657   9.892  3.0417  3.6234 -2.2846
  576MOL0     H77710   3.310   3.685  10.030 -1.0216  1.2290 -0.4631
  576MOL0     H77711   3.305   3.787   9.713 -3.0917 -0.5092  1.9778
  576MOL0     H77712   3.299   4.182   9.633  3.5119  0.5951 -2.2141
  576MOL0     H77713   3.369   4.036   9.573  2.5638 -1.2722  5.5797
  576MOL0     H77714   3.148   3.925   9.578  0.5332 -0.6787  0.2544
  576MOL0     H77715   3.086   4.050   9.663 -0.2761 -0.2767  0.4265
  576MOL0     H77716   2.995   4.079   9.430 -1.0316  2.5837 -3.3009
  576MOL0     H77717   3.141   4.059   9.350 -0.7658 -2.8794  0.1228
  576MOL0     H77718   3.221   4.275   9.425 -1.3852  2.3450 -2.2570
  576MOL0     H77719   3.098   4.280   9.549 -2.1979 -2.4207  0.0484
  576MOL0     H77720   2.911   4.539   9.259 -1.8441  0.2080 -1.2087
  576MOL0     H77721   2.730   4.665   9.363  1.8055  0.1106 -1.6469
  576MOL0     H77722   2.608   4.566  10.013  0.3253  1.7203  1.5370
  576MOL0     H77723   2.535   4.702  10.182 -3.0359 -3.1599 -1.0286
  576MOL0     H77724   2.322   5.105  10.215  3.1986 -0.4467 -0.7632
  576MOL0     H77725   2.318   5.064  10.043  0.5266  0.4366  1.1236
  576MOL0     H77726   2.228   4.823  10.099 -1.1195 -0.3422  0.3633
  576MOL0     H77727   2.213   4.874  10.265 -0.1322 -2.6831 -0.5751
  576MOL0     H77728   2.044   4.977  10.029 -2.7180  1.2018  0.2082
  576MOL0     H77729   2.004   4.856  10.151  0.3830 -0.1570  1.8833
  576MOL0     H77730   2.063   5.135  10.205 -2.0371  1.0919  1.6215
  576MOL0     H77731   2.008   5.018  10.329 -2.6515 -0.6364 -0.0070
  576MOL0     H77732   1.790   5.082  10.284  0.1894  0.3675  0.6789
  576MOL0     H77733   1.812   5.000  10.129 -0.3438  0.8719  0.1957
  576MOL0     H77734   1.925   5.167  10.027  0.5238  1.2053  0.0524
  576MOL0     H77735   1.753   5.199  10.038 -0.3257  0.2026  0.9869
  576MOL0     H77736   1.957   5.327  10.219 -0.3314  0.5509 -0.3393
  576MOL0     H77737   1.780   5.334  10.249 -0.0206 -2.0403  0.3170
  576MOL0     H77738   1.737   5.457  10.039 -1.9417  0.6700  0.8460
  576MOL0     H77739   1.858   5.551  10.125  1.9314 -1.8034  3.9585
  576MOL0     H77740   2.430   4.996   9.900  1.2650  1.4245  1.3173
  576MOL0     H77741   2.482   4.862   9.725  1.5943 -1.3429 -0.6190
  576MOL0     H77742   2.748   4.399   9.700  0.6911 -0.0215 -0.6292
  576MOL0     H77743   2.890   4.252   9.583 -4.8664 -2.8543  0.4424
  576MOL0     H77744   4.331   3.465   9.517 -0.1173 -2.3864 -1.0474
  576MOL0     H77745   4.446   3.251   9.510  0.7386  1.8129 -1.8373
  576MOL0     H77746   4.726   2.881  10.045 -1.1582 -0.0681 -0.1382
  576MOL0     H77747   4.853   2.709  10.011 -2.1600 -2.5875  0.2811
  576MOL0     H77748   4.929   2.586   9.594 -0.0804  0.3368  0.4556
  576MOL0     H77749   4.804   2.462   9.615  1.0037 -2.0104  0.2448
  576MOL0     H77750   5.020   2.363   9.554  1.2066 -0.1730 -0.3130
  576MOL0     H77751   4.963   2.301   9.704  2.4676 -0.6188  1.2593
  576MOL0     H77752   5.135   2.483   9.805 -1.9774  2.3155 -1.9807
  576MOL0     H77753   5.177   2.522   9.642 -0.4175  1.9625  2.8469
  576MOL0     H77754   5.339   2.371   9.749  0.9512 -0.6527  0.0097
  576MOL0     H77755   5.210   2.258   9.802  0.4142  1.1699  0.4085
  576MOL0     H77756   5.229   2.118   9.415 -1.8587  1.7388 -0.2289
  576MOL0     H77757   4.714   2.673   9.602 -3.9320  1.0475  0.2000
  576MOL0     H77758   4.592   2.803   9.515 -0.3774 -0.0323  1.3972
  576MOL0     H77759   4.461   2.889   9.620 -1.0365  2.8049 -4.8902
  576MOL0     H77760   4.584   2.973   9.563  1.9417  0.2061  0.5545
  577MOL0     O77761   1.025   4.277   8.899  0.4198 -0.5710 -0.0700
  577MOL0     C77762   0.914   4.216   8.900  0.1224 -0.0133  0.3326
  577MOL0     O77763   0.902   4.087   8.948  0.2010  0.6981  0.6727
  577MOL0     C77764   1.010   4.010   8.976  0.5682  0.2955  0.4846
  577MOL0     C77765   1.104   3.974   8.887  0.5805  0.0928 -0.3663
  577MOL0     C77766   1.211   3.887   8.917  0.6649  0.8463 -0.0468
  577MOL0     C77767   1.214   3.829   9.045 -0.3119  0.2976  0.6371
  577MOL0     O77768   1.322   3.744   9.068 -0.4065  0.3821 -0.4853
  577MOL0     C77769   1.337   3.683   9.192  0.2549  0.4468 -0.8945
  577MOL0     C77770   1.472   3.607   9.187  0.2707 -0.2901 -0.0679
  577MOL0     C77771   1.490   3.520   9.314  0.8464  0.3185 -0.3236
  577MOL0     C77772   1.612   3.441   9.326 -0.0878  0.1681 -1.3293
  577MOL0     C77773   1.604   3.345   9.444 -0.0102  0.0674  0.3739
  577MOL0     C77774   1.541   3.204   9.415 -0.0466 -0.3147  0.1546
  577MOL0     C77775   1.536   3.114   9.536 -0.0191  0.6369 -0.6117
  577MOL0     C77776   1.674   3.083   9.598  0.6043 -0.2097  0.1140
  577MOL0     N77777   1.666   2.982   9.699 -0.0741  0.2861  0.4612
  577MOL0     C77778   1.726   2.983   9.821  1.0218 -0.4150 -0.4377
  577MOL0     C77779   1.699   2.863   9.875  0.7151 -0.0122  0.0044
  577MOL0     C77780   1.730   2.851  10.021  0.9244 -0.0310  0.0388
  577MOL0     C77781   1.701   2.703  10.070  0.0577  0.4176 -0.7119
  577MOL0     C77782   1.553   2.688  10.118  0.4842 -0.4506 -0.0863
  577MOL0     C77783   1.549   2.619  10.263 -0.1230  0.6318 -0.1414
  577MOL0     O77784   1.590   2.707  10.363 -0.1527 -0.5619 -0.3403
  577MOL0     C77785   1.573   2.655  10.493 -0.4887  0.6180 -0.1579
  577MOL0     C77786   1.553   2.514  10.530 -0.0752 -0.6638  0.3493
  577MOL0     C77787   1.522   2.489  10.659  0.2931  0.1310 -0.3235
  577MOL0     C77788   1.523   2.593  10.757 -0.2005  0.1596 -0.5132
  577MOL0     C77789   1.505   2.571  10.902 -0.5675  0.4158 -0.2478
  577MOL0     O77790   1.504   2.436  10.942  0.8908 -0.2593 -0.2048
  577MOL0     C77791   1.496   2.409  11.076 -0.0177  0.4609  0.0582
  577MOL0     C77792   1.601   2.351  11.138 -0.6826  0.4629 -1.0915
  577MOL0     C77793   1.587   2.312  11.265  1.0446  0.9152 -1.0179
  577MOL0     C77794   1.467   2.321  11.343 -0.9918  0.0857  0.5900
  577MOL0     O77795   1.457   2.291  11.480  0.0700  0.0552 -0.5962
  577MOL0     C77796   1.480   2.145  11.503 -0.3046 -0.5113 -0.0402
  577MOL0     C77797   1.388   2.105  11.613 -0.1952  0.3669 -0.2370
  577MOL0     C77798   1.401   1.943  11.630 -0.2306  0.2513 -0.8720
  577MOL0     C77799   1.292   1.877  11.720 -0.4222 -1.2052 -1.0991
  577MOL0     C77800   1.340   1.738  11.758  0.3223  0.2346  1.2376
  577MOL0     C77801   1.327   1.631  11.652 -0.8664 -0.4234  0.0754
  577MOL0     C77802   1.308   1.491  11.714 -0.1099 -0.5027  0.2849
  577MOL0     C77803   1.360   1.385  11.622  0.6142  1.0305 -0.9910
  577MOL0    Cl77804   1.373   1.233  11.735  0.0265 -0.1183 -0.6679
  577MOL0     C77805   1.366   2.394  11.283  0.3808  0.3880 -0.3396
  577MOL0     C77806   1.380   2.433  11.147  0.1479  0.0332  0.1835
  577MOL0     O77807   1.508   2.664  10.982  0.2806 -0.4310 -0.5112
  577MOL0     C77808   1.549   2.722  10.718  0.8248 -0.3427  0.8097
  577MOL0     C77809   1.563   2.757  10.585 -0.4879  0.0181  0.7270
  577MOL0     N77810   1.627   2.784   9.788  0.2374  0.4893  0.8661
  577MOL0     N77811   1.607   2.861   9.681  0.2247  0.4906 -1.3537
  577MOL0     C77812   1.106   3.858   9.137 -0.2517  0.2598  0.1481
  577MOL0     C77813   1.012   3.952   9.097  0.1456 -1.0117  0.0261
  577MOL0     C77814   0.791   4.279   8.836  0.8212  0.0869  0.6091
  577MOL0     C77815   0.675   4.198   8.835  0.1038 -0.4603 -0.3014
  577MOL0     C77816   0.556   4.252   8.774 -0.2247  0.5142 -0.3535
  577MOL0     C77817   0.550   4.375   8.719  1.0889 -1.0555  0.9863
  577MOL0     O77818   0.438   4.442   8.666 -0.2040  0.0653 -0.4450
  577MOL0     C77819   0.340   4.365   8.602  0.0800 -0.2890 -1.2777
  577MOL0     C77820   0.222   4.466   8.556 -0.4120 -0.1297  0.9655
  577MOL0     C77821   0.129   4.394   8.449 -0.1163 -0.5730 -0.2546
  577MOL0     C77822   0.050   4.270   8.505 -0.2422 -0.2547 -0.1850
  577MOL0     C77823  -0.048   4.317   8.604 -1.1697  0.4954 -0.3030
  577MOL0     C77824  -0.146   4.338   8.671  0.8342  0.0228 -0.0575
  577MOL0     C77825   0.661   4.451   8.720  0.0712 -0.9505 -0.2617
  577MOL0     C77826   0.779   4.412   8.781 -0.1882 -0.8693 -0.4009
  577MOL0     C77827   0.895   4.514   8.783 -0.1238 -0.4749 -0.1114
  577MOL0     H77828   1.098   4.026   8.791 -1.2668  1.4772  0.4440
  577MOL0     H77829   1.279   3.858   8.838  1.4268 -1.1950  1.2828
  577MOL0     H77830   1.319   3.762   9.266 -0.9957 -0.6615  0.0363
  577MOL0     H77831   1.258   3.610   9.216 -0.7235  2.6081  3.5877
  577MOL0     H77832   1.549   3.684   9.178  0.4780 -0.3183  1.2955
  577MOL0     H77833   1.489   3.547   9.097 -1.5531 -0.7048 -0.1760
  577MOL0     H77834   1.412   3.444   9.327  1.5790 -0.6280 -1.2765
  577MOL0     H77835   1.479   3.591   9.396 -0.7814  1.1414 -1.2053
  577MOL0     H77836   1.629   3.383   9.235  1.1466  2.1429 -2.4313
  577MOL0     H77837   1.701   3.502   9.345 -0.2461  0.0437 -0.1184
  577MOL0     H77838   1.711   3.329   9.460  0.2056  2.8039  2.4225
  577MOL0     H77839   1.560   3.392   9.533 -1.9951  0.2438 -0.6465
  577MOL0     H77840   1.437   3.217   9.382 -1.0414 -1.7016  2.4896
  577MOL0     H77841   1.594   3.145   9.340  0.4995  0.1553  0.1648
  577MOL0     H77842   1.502   3.011   9.522  1.4548 -0.5368  3.2434
  577MOL0     H77843   1.468   3.155   9.611  1.4202 -1.1277  1.7893
  577MOL0     H77844   1.727   3.046   9.509  1.0947  1.2045 -0.1986
  577MOL0     H77845   1.728   3.168   9.640 -1.0117  1.5693 -1.1983
  577MOL0     H77846   1.792   3.060   9.861  1.6722  0.2616 -2.6663
  577MOL0     H77847   1.838   2.870  10.030  1.0943  0.3569 -2.2061
  577MOL0     H77848   1.670   2.922  10.078  2.3600 -0.0214  1.6277
  577MOL0     H77849   1.715   2.634   9.986 -2.2601 -0.5773 -0.3608
  577MOL0     H77850   1.769   2.672  10.150  0.5268  0.1602 -1.2058
  577MOL0     H77851   1.514   2.616  10.046 -0.7493 -0.3485  0.4560
  577MOL0     H77852   1.490   2.776  10.110 -0.4822 -1.2798 -2.2110
  577MOL0     H77853   1.615   2.532  10.269  0.9633  1.5135  2.2673
  577MOL0     H77854   1.454   2.568  10.282  1.0118 -1.1420  1.1036
  577MOL0     H77855   1.551   2.440  10.450 -2.0788  0.3297 -0.5955
  577MOL0     H77856   1.504   2.385  10.683 -0.3612 -0.0582 -1.5414
  577MOL0     H77857   1.694   2.334  11.085  0.1175 -1.8156  0.8269
  577MOL0     H77858   1.680   2.278  11.310  1.6764  1.5065 -1.8549
  577MOL0     H77859   1.463   2.075  11.421  2.3865  2.7682 -3.7899
  577MOL0     H77860   1.583   2.124  11.532 -0.4699 -0.9765  0.2214
  577MOL0     H77861   1.430   2.145  11.706  1.5397 -2.2563  0.2253
  577MOL0     H77862   1.292   2.157  11.604 -1.2261 -1.0960  1.6516
  577MOL0     H77863   1.400   1.895  11.532  0.3897 -0.6653 -0.4407
  577MOL0     H77864   1.494   1.911  11.679 -2.5832 -1.0613  3.2527
  577MOL0     H77865   1.207   1.872  11.652  0.4191  2.2497 -2.6311
  577MOL0     H77866   1.271   1.924  11.817 -3.2449  0.8678 -2.5674
  577MOL0     H77867   1.293   1.707  11.852  3.0978 -0.7693  2.3846
  577MOL0     H77868   1.446   1.752  11.781  0.9708 -0.9138 -0.7714
  577MOL0     H77869   1.246   1.660  11.585  0.4787  0.6011 -1.1876
  577MOL0     H77870   1.422   1.639  11.597 -2.0874  0.3039 -2.0607
  577MOL0     H77871   1.201   1.480  11.729 -0.3445  0.0583 -0.8732
  577MOL0     H77872   1.369   1.489  11.805  0.7400 -1.0909 -0.2801
  577MOL0     H77873   1.288   1.369  11.540 -1.1321  1.0054  0.4781
  577MOL0     H77874   1.461   1.409  11.588  1.3115  0.9825  0.9313
  577MOL0     H77875   1.280   2.412  11.346 -0.0870 -0.6834 -0.6303
  577MOL0     H77876   1.299   2.481  11.092  0.8466  1.0148 -0.0229
  577MOL0     H77877   1.530   2.804  10.787 -1.2289  0.1486 -0.2399
  577MOL0     H77878   1.566   2.857  10.543 -2.2534 -0.1279  0.1411
  577MOL0     H77879   1.087   3.807   9.231  0.4675  1.1916  0.8205
  577MOL0     H77880   0.932   3.977   9.165  0.2642  2.5708 -0.9191
  577MOL0     H77881   0.687   4.099   8.877  1.5452  0.3135  1.2311
  577MOL0     H77882   0.465   4.194   8.777  0.8662 -1.2504  0.4467
  577MOL0     H77883   0.298   4.288   8.667 -0.1759  1.8322  1.2724
  577MOL0     H77884   0.393   4.325   8.516  0.6475  1.4319 -1.7766
  577MOL0     H77885   0.259   4.552   8.500 -3.5034 -1.2960 -3.3381
  577MOL0     H77886   0.165   4.503   8.642 -0.0642  2.7780  0.0280
  577MOL0     H77887   0.181   4.368   8.357  0.5676 -4.3688  0.9997
  577MOL0     H77888   0.055   4.472   8.425  2.3420  2.4500  1.3277
  577MOL0     H77889  -0.005   4.234   8.418  0.2542  0.0767 -0.6389
  577MOL0     H77890   0.116   4.198   8.554 -2.6244 -0.9448  2.2766
  577MOL0     H77891  -0.236   4.366   8.722 -0.5823 -1.8864 -1.3672
  577MOL0     H77892   0.653   4.544   8.664 -1.2275 -2.2059 -2.2845
  577MOL0     H77893   0.948   4.504   8.688  0.6257 -0.0603  0.2529
  577MOL0     H77894   0.867   4.619   8.778 -1.6071 -0.8721 -0.4428
  577MOL0     H77895   0.968   4.496   8.863 -1.2999  0.4210  1.2125
  578MOL0     O77896   8.772  11.103  10.188 -0.5935  0.4930 -0.6033
  578MOL0     C77897   8.729  10.996  10.224 -0.2191  0.9313  0.0266
  578MOL0     O77898   8.768  10.877  10.164 -0.1045 -0.5565 -1.3404
  578MOL0     C77899   8.781  10.870  10.022  0.0859 -0.2425 -0.2888
  578MOL0     C77900   8.794  10.972   9.926  0.7231 -0.5096 -0.6228
  578MOL0     C77901   8.822  10.945   9.788 -1.2522  0.2857 -0.1513
  578MOL0     C77902   8.849  10.815   9.749  0.1091  0.0733  0.5453
  578MOL0     O77903   8.884  10.784   9.621  0.6193  0.1374  0.4838
  578MOL0     C77904   8.790  10.815   9.512  0.8941  0.8313  0.4298
  578MOL0     C77905   8.666  10.722   9.549 -0.2629  0.9362  0.9773
  578MOL0     C77906   8.561  10.696   9.441  0.5531 -0.5107  0.3872
  578MOL0     C77907   8.570  10.797   9.323 -0.0292 -0.1958  1.2023
  578MOL0     C77908   8.444  10.791   9.236 -0.0753  0.5789 -0.3701
  578MOL0     C77909   8.335  10.882   9.291  0.6936  0.8559  1.2483
  578MOL0     C77910   8.214  10.916   9.202  0.5155 -0.2244  0.4129
  578MOL0     C77911   8.156  10.795   9.130 -0.3616  0.1192 -0.4686
  578MOL0     N77912   8.084  10.705   9.220  0.0915  0.1295  0.1205
  578MOL0     C77913   8.137  10.626   9.316 -0.4014 -0.0035  0.1743
  578MOL0     C77914   8.027  10.575   9.388 -0.4840 -0.7365  0.1010
  578MOL0     C77915   8.007  10.515   9.523  0.4731  1.4346  0.1576
  578MOL0     C77916   8.125  10.532   9.617  0.1555 -0.2625  0.6066
  578MOL0     C77917   8.118  10.670   9.664  0.0843 -0.0204  0.9398
  578MOL0     C77918   8.135  10.670   9.818 -0.5679 -0.1191 -0.6220
  578MOL0     O77919   8.270  10.632   9.847 -0.4488 -0.2916  0.9256
  578MOL0     C77920   8.310  10.600   9.972 -0.2679 -0.4091 -1.5025
  578MOL0     C77921   8.441  10.606  10.004 -0.4671 -0.1378  1.5210
  578MOL0     C77922   8.489  10.575  10.125 -0.0626  0.0838  0.0909
  578MOL0     C77923   8.409  10.530  10.225 -0.1316  0.3813 -0.7547
  578MOL0     C77924   8.460  10.511  10.363 -0.6745  0.2213  0.0206
  578MOL0     O77925   8.368  10.474  10.460 -0.3112 -0.3009 -0.6932
  578MOL0     C77926   8.394  10.485  10.596  1.0273 -0.0875  0.3774
  578MOL0     C77927   8.355  10.383  10.682  0.2057  0.1409 -0.5323
  578MOL0     C77928   8.378  10.387  10.820 -1.1507 -0.3810  0.6031
  578MOL0     C77929   8.443  10.495  10.878 -0.0907  0.6696  0.0098
  578MOL0     O77930   8.461  10.515  11.014 -0.2847  0.4083  1.1416
  578MOL0     C77931   8.361  10.451  11.099 -0.6156 -1.0160  0.4207
  578MOL0     C77932   8.397  10.491  11.243 -0.7043  0.1988  0.5713
  578MOL0     C77933   8.329  10.399  11.345 -0.4808 -0.4399  0.7627
  578MOL0     C77934   8.282  10.478  11.466  0.1731  0.2545 -0.6100
  578MOL0     C77935   8.389  10.516  11.556 -0.1018  0.3889  0.4600
  578MOL0     C77936   8.340  10.613  11.658  0.4525  0.4643  0.7008
  578MOL0     C77937   8.455  10.652  11.737 -0.3710 -0.2453 -0.6196
  578MOL0     C77938   8.444  10.790  11.804 -0.2519  0.6855 -0.5370
  578MOL0    Cl77939   8.415  10.922  11.692  0.0187 -0.1853  0.2180
  578MOL0     C77940   8.474  10.608  10.794  0.3178 -0.1711  0.2139
  578MOL0     C77941   8.442  10.607  10.652 -0.1245  1.1771  1.0041
  578MOL0     O77942   8.577  10.547  10.385 -0.6288 -0.2133 -0.1331
  578MOL0     C77943   8.271  10.528  10.199  0.3747 -0.1509 -0.1292
  578MOL0     C77944   8.221  10.560  10.080 -0.6160 -0.0917  0.2041
  578MOL0     N77945   7.918  10.631   9.320  0.0190 -0.6620 -0.8210
  578MOL0     N77946   7.953  10.710   9.225 -0.1131 -0.1544  0.7900
  578MOL0     C77947   8.833  10.711   9.839 -0.2207 -0.2684  0.2402
  578MOL0     C77948   8.804  10.738   9.972 -0.3251 -0.3990  0.1573
  578MOL0     C77949   8.696  10.983  10.365  0.5763  0.5819 -0.6056
  578MOL0     C77950   8.736  10.858  10.432 -0.9953  0.1522  0.7976
  578MOL0     C77951   8.685  10.830  10.559 -0.5606 -0.2601 -0.3702
  578MOL0     C77952   8.619  10.924  10.630 -0.5445 -0.7942 -0.2861
  578MOL0     O77953   8.580  10.903  10.761  0.4442 -0.3459  0.2243
  578MOL0     C77954   8.550  11.007  10.860  0.3745 -0.3995  0.8977
  578MOL0     C77955   8.556  10.930  10.987 -0.2055  0.2920  0.4919
  578MOL0     C77956   8.692  10.877  11.033 -0.3727 -0.2785  0.1875
  578MOL0     C77957   8.710  10.832  11.177 -0.5925 -0.9399 -0.1842
  578MOL0     C77958   8.594  10.826  11.262  0.8298 -0.0139 -0.0683
  578MOL0     C77959   8.517  10.842  11.352  0.0959  0.0757  0.2454
  578MOL0     C77960   8.584  11.050  10.567 -0.1126  0.1455 -0.5057
  578MOL0     C77961   8.620  11.081  10.431 -0.2450 -0.8663 -1.1981
  578MOL0     C77962   8.564  11.205  10.377 -0.2213 -0.5458 -0.7205
  578MOL0     H77963   8.804  11.078   9.947  2.0725  0.5536 -5.3401
  578MOL0     H77964   8.839  11.026   9.718 -2.2433  1.2397  0.6586
  578MOL0     H77965   8.768  10.918   9.481 -0.2192  0.7709  0.9392
  578MOL0     H77966   8.831  10.774   9.420  2.3502  2.3391  0.3576
  578MOL0     H77967   8.607  10.776   9.623 -0.7768  1.7330 -0.0017
  578MOL0     H77968   8.706  10.630   9.594  0.4478 -0.1678 -1.7281
  578MOL0     H77969   8.465  10.704   9.491  0.6721 -0.3357  0.5921
  578MOL0     H77970   8.555  10.594   9.403 -0.4772 -1.3974  2.7668
  578MOL0     H77971   8.570  10.895   9.370 -2.8401  0.3775  0.1794
  578MOL0     H77972   8.663  10.790   9.266 -3.1118 -2.8216 -4.4389
  578MOL0     H77973   8.472  10.839   9.142  2.1600  0.7585  0.3206
  578MOL0     H77974   8.411  10.688   9.220  0.2336  0.4155  0.0053
  578MOL0     H77975   8.294  10.839   9.383 -5.3706  2.6931 -0.1388
  578MOL0     H77976   8.388  10.975   9.316  1.8889  0.6633 -0.4173
  578MOL0     H77977   8.250  10.991   9.131 -2.2612  0.5166 -0.2989
  578MOL0     H77978   8.142  10.967   9.267  3.5531  2.6191  1.8536
  578MOL0     H77979   8.088  10.819   9.047  0.1038  1.0628 -0.5846
  578MOL0     H77980   8.238  10.746   9.077  2.3704  2.4741  1.2862
  578MOL0     H77981   8.241  10.628   9.344 -0.1639 -3.7348  0.1471
  578MOL0     H77982   7.914  10.556   9.562  0.6673  2.4271 -0.3969
  578MOL0     H77983   7.986  10.408   9.509 -2.9380  1.9372  0.3982
  578MOL0     H77984   8.098  10.451   9.685 -0.7816 -2.8975 -2.6560
  578MOL0     H77985   8.221  10.508   9.571  0.1131  0.4728  0.1284
  578MOL0     H77986   8.026  10.725   9.642  0.3252  0.2826  0.6644
  578MOL0     H77987   8.204  10.719   9.616  2.3361 -2.9290  1.7234
  578MOL0     H77988   8.061  10.607   9.868 -1.7243  2.5869  1.3836
  578MOL0     H77989   8.107  10.772   9.847  0.4229 -0.1409  0.4643
  578MOL0     H77990   8.508  10.637   9.925 -0.3423 -1.1908  1.1964
  578MOL0     H77991   8.595  10.587  10.147 -0.0986  0.1204  0.2475
  578MOL0     H77992   8.310  10.292  10.644 -0.4454 -0.1192  0.8097
  578MOL0     H77993   8.344  10.300  10.875 -0.1272 -1.8070 -0.9178
  578MOL0     H77994   8.261  10.486  11.074  0.1038 -0.5526 -2.0363
  578MOL0     H77995   8.368  10.342  11.086 -3.3655 -1.1231 -0.8741
  578MOL0     H77996   8.505  10.481  11.256 -1.0502 -1.7934  2.8461
  578MOL0     H77997   8.370  10.596  11.254  0.1035  0.4549  0.1985
  578MOL0     H77998   8.235  10.358  11.307 -1.1781  1.3332  0.4637
  578MOL0     H77999   8.391  10.312  11.367 -1.2225 -0.7960  1.5374
  578MOL0     H78000   8.218  10.420  11.532  0.4909  0.8738  0.2601
  578MOL0     H78001   8.224  10.564  11.432  0.3357  0.5090 -0.2485
  578MOL0     H78002   8.455  10.576  11.492  0.6030  0.5796  1.3457
  578MOL0     H78003   8.451  10.435  11.596 -0.2388  0.1705  0.2279
  578MOL0     H78004   8.295  10.704  11.618  1.5073  1.2974  1.3295
  578MOL0     H78005   8.263  10.565  11.718  0.7365  0.1671  0.8310
  578MOL0     H78006   8.542  10.655  11.670 -0.4836 -0.3192 -0.7702
  578MOL0     H78007   8.482  10.584  11.818  3.6204 -0.6101 -2.0136
  578MOL0     H78008   8.353  10.777  11.863 -0.2967  1.7635 -0.3483
  578MOL0     H78009   8.521  10.812  11.878 -1.6067  2.3450  0.4520
  578MOL0     H78010   8.541  10.686  10.828 -0.4065  1.0873 -1.1104
  578MOL0     H78011   8.491  10.672  10.579  1.3265 -0.5970  0.3164
  578MOL0     H78012   8.195  10.496  10.270 -1.8159  1.4931 -1.6020
  578MOL0     H78013   8.115  10.549  10.059  0.0579 -0.1959 -4.1047
  578MOL0     H78014   8.857  10.611   9.805 -0.6448  0.4087 -2.3175
  578MOL0     H78015   8.801  10.655  10.042  0.8035  0.3591  1.1534
  578MOL0     H78016   8.808  10.800  10.376 -2.4055 -0.3201 -0.5625
  578MOL0     H78017   8.711  10.735  10.603  1.0680 -0.7913 -2.3103
  578MOL0     H78018   8.451  11.052  10.849  1.4060  2.1144  1.1705
  578MOL0     H78019   8.614  11.095  10.860 -1.8332  1.2910  0.8075
  578MOL0     H78020   8.493  10.842  10.977 -1.6396  1.5777 -3.6351
  578MOL0     H78021   8.522  10.999  11.065 -1.9620 -0.6077  0.5686
  578MOL0     H78022   8.773  10.939  10.993  0.3781 -2.1997 -1.4548
  578MOL0     H78023   8.705  10.785  10.975  3.6372  0.0896  0.2043
  578MOL0     H78024   8.753  10.731  11.179 -1.2351 -1.2141  1.7023
  578MOL0     H78025   8.782  10.897  11.227  1.2590 -2.8528 -0.2528
  578MOL0     H78026   8.431  10.861  11.412 -1.9063 -3.8239 -1.0657
  578MOL0     H78027   8.529  11.124  10.624 -2.4978  0.2593 -2.7598
  578MOL0     H78028   8.483  11.240  10.442  1.3745 -1.4507  1.8716
  578MOL0     H78029   8.642  11.280  10.393 -2.0724  0.7828  3.2797
  578MOL0     H78030   8.534  11.197  10.272 -0.2481 -0.4350 -0.7223
  579MOL0     O78031   6.905   7.521   5.740 -0.5421  0.4820 -0.8481
  579MOL0     C78032   6.945   7.580   5.646  0.0648  0.1746  0.0421
  579MOL0     O78033   7.026   7.691   5.649 -0.1689  0.2739 -0.4154
  579MOL0     C78034   7.074   7.757   5.759 -0.2871  0.3346 -0.9183
  579MOL0     C78035   7.111   7.695   5.882  0.3762  0.0042 -0.2165
  579MOL0     C78036   7.156   7.768   5.993 -0.6393 -0.3352  0.3387
  579MOL0     C78037   7.178   7.907   5.987 -0.6079 -1.2068 -0.6870
  579MOL0     O78038   7.232   7.972   6.100 -1.8190  0.1432  0.6882
  579MOL0     C78039   7.358   7.914   6.153  1.0387  0.4272  0.3951
  579MOL0     C78040   7.454   8.019   6.208  0.0346 -0.8712  0.9984
  579MOL0     C78041   7.571   7.943   6.263 -0.4398  0.1589  0.7693
  579MOL0     C78042   7.655   8.042   6.346  0.7598 -0.2242  0.1162
  579MOL0     C78043   7.787   7.980   6.397 -0.3037  0.4105  0.1463
  579MOL0     C78044   7.835   8.059   6.520  0.3045 -0.3395  0.6168
  579MOL0     C78045   7.966   8.014   6.576 -0.6312  0.3981  0.0787
  579MOL0     C78046   8.040   8.126   6.649 -0.9684  0.9150  0.2344
  579MOL0     N78047   8.166   8.065   6.717  0.1626  0.0580 -0.5038
  579MOL0     C78048   8.271   8.150   6.735 -0.1757  0.4216 -0.9901
  579MOL0     C78049   8.380   8.076   6.765 -0.1950  0.1139 -0.5131
  579MOL0     C78050   8.520   8.133   6.784  0.0092 -0.2526  0.6011
  579MOL0     C78051   8.618   8.059   6.699 -0.4750 -0.5241  0.1947
  579MOL0     C78052   8.602   8.089   6.550  0.6073 -0.5753 -0.1566
  579MOL0     C78053   8.650   7.981   6.453  0.2646  0.1740 -0.5977
  579MOL0     O78054   8.548   7.947   6.355 -0.3172  1.1493 -0.7973
  579MOL0     C78055   8.518   8.044   6.273 -0.0042  0.7019 -0.2360
  579MOL0     C78056   8.585   8.168   6.247  0.2469 -0.3024 -0.5811
  579MOL0     C78057   8.548   8.246   6.143 -0.1076  0.9742  0.0458
  579MOL0     C78058   8.447   8.217   6.055  0.2608  0.6766  0.0463
  579MOL0     C78059   8.425   8.303   5.932  0.5655 -0.7842 -0.6786
  579MOL0     O78060   8.508   8.402   5.921  0.3043 -0.0282 -0.0674
  579MOL0     C78061   8.510   8.460   5.800  0.0956 -0.1979 -0.6412
  579MOL0     C78062   8.599   8.393   5.707 -0.1622 -0.2609  0.2927
  579MOL0     C78063   8.622   8.447   5.578 -0.3855 -0.3692 -0.1343
  579MOL0     C78064   8.546   8.554   5.542 -0.8314 -0.3666 -0.3788
  579MOL0     O78065   8.557   8.597   5.406 -0.4519 -0.1320 -0.2912
  579MOL0     C78066   8.586   8.731   5.370 -0.1497 -0.5396 -0.4037
  579MOL0     C78067   8.567   8.741   5.221  0.9581  0.2698 -0.0850
  579MOL0     C78068   8.601   8.880   5.170 -0.5818 -0.6405 -0.4252
  579MOL0     C78069   8.751   8.888   5.139 -0.1597 -0.2438 -0.5532
  579MOL0     C78070   8.795   8.998   5.058 -0.4176 -0.1748 -0.3482
  579MOL0     C78071   8.946   8.985   5.026  0.6358 -0.1444 -0.9728
  579MOL0     C78072   8.993   9.069   4.910  1.2421 -0.6663 -0.5360
  579MOL0     C78073   9.001   9.214   4.954 -0.3659 -0.3546 -0.1746
  579MOL0    Cl78074   9.136   9.257   5.058  0.0980 -0.4158  0.9573
  579MOL0     C78075   8.453   8.618   5.630  0.7144 -0.7356  0.9505
  579MOL0     C78076   8.428   8.571   5.761 -0.8455  0.4357  0.7138
  579MOL0     O78077   8.333   8.272   5.857  0.4542 -0.4882 -0.0495
  579MOL0     C78078   8.377   8.102   6.078 -0.5646 -1.4969  0.4251
  579MOL0     C78079   8.410   8.015   6.188 -0.7194  0.6051  0.8394
  579MOL0     N78080   8.334   7.942   6.780 -0.0889 -0.2614 -0.4008
  579MOL0     N78081   8.208   7.936   6.749  0.4332  0.5811  0.1811
  579MOL0     C78082   7.140   7.970   5.870  0.5829  0.4102 -0.1746
  579MOL0     C78083   7.094   7.897   5.756 -0.1619  0.0955  0.1625
  579MOL0     C78084   6.903   7.537   5.508 -0.3259  0.4226 -0.1897
  579MOL0     C78085   6.992   7.566   5.408  0.4109 -0.7480 -0.2702
  579MOL0     C78086   6.969   7.540   5.276 -0.9802  0.6083  0.3694
  579MOL0     C78087   6.844   7.487   5.246  0.1263  0.5523 -0.0515
  579MOL0     O78088   6.808   7.450   5.120 -0.1270 -0.7803 -0.0068
  579MOL0     C78089   6.906   7.410   5.026  0.1728 -0.5243  0.9059
  579MOL0     C78090   6.986   7.286   5.076  0.8365 -0.3799  0.5542
  579MOL0     C78091   7.132   7.294   5.035 -0.9734 -0.3096  0.1359
  579MOL0     C78092   7.164   7.261   4.892 -0.6437  0.0969 -0.3315
  579MOL0     C78093   7.309   7.282   4.873 -0.2200 -0.0956 -1.1865
  579MOL0     C78094   7.436   7.282   4.858  0.0523  0.7544 -0.5017
  579MOL0     C78095   6.754   7.452   5.346  0.2778 -0.5129  0.1466
  579MOL0     C78096   6.782   7.478   5.482  0.3751  0.7743 -0.1676
  579MOL0     C78097   6.675   7.443   5.593 -0.6931 -0.5006  0.0022
  579MOL0     H78098   7.103   7.588   5.899 -0.8885 -0.5550 -3.5846
  579MOL0     H78099   7.181   7.714   6.083 -0.6397 -0.9602 -0.0305
  579MOL0     H78100   7.322   7.850   6.234  0.7462 -0.3231 -0.3195
  579MOL0     H78101   7.410   7.855   6.077 -1.1267  2.2313 -2.7286
  579MOL0     H78102   7.418   8.083   6.289  5.1387  1.4364  1.8086
  579MOL0     H78103   7.487   8.084   6.126  1.1353 -1.7634  0.7218
  579MOL0     H78104   7.641   7.905   6.188  1.6010 -0.2285  2.7439
  579MOL0     H78105   7.551   7.860   6.330  2.0771  0.0052  1.4514
  579MOL0     H78106   7.670   8.138   6.295  0.1940  0.3407  0.9744
  579MOL0     H78107   7.604   8.078   6.436  0.1555  1.9003 -1.0102
  579MOL0     H78108   7.781   7.872   6.416  3.4669  0.1198  0.4495
  579MOL0     H78109   7.856   8.001   6.315 -0.2607  1.8119  0.5179
  579MOL0     H78110   7.839   8.162   6.483 -3.9804 -0.7061 -1.3930
  579MOL0     H78111   7.764   8.043   6.601 -0.6898  2.1326  0.3016
  579MOL0     H78112   8.015   7.958   6.495 -0.2976  1.9929 -0.8528
  579MOL0     H78113   7.945   7.943   6.657 -0.8861  1.1151  0.6555
  579MOL0     H78114   8.065   8.209   6.582  1.2655 -1.9418 -2.8279
  579MOL0     H78115   7.980   8.171   6.729  0.0824  1.1393  0.9170
  579MOL0     H78116   8.254   8.253   6.707 -1.8632  0.4595  0.0332
  579MOL0     H78117   8.516   8.238   6.753 -1.1828 -0.9078 -1.6708
  579MOL0     H78118   8.543   8.126   6.891  0.1640 -1.1070  0.5217
  579MOL0     H78119   8.724   8.076   6.721 -0.2685 -2.1155  0.5543
  579MOL0     H78120   8.605   7.950   6.706  2.6867 -0.9253  1.4154
  579MOL0     H78121   8.659   8.181   6.533 -0.0903  0.5087  2.7027
  579MOL0     H78122   8.496   8.105   6.530 -0.0031 -2.5332  1.1171
  579MOL0     H78123   8.670   7.888   6.508 -0.1516 -0.2794 -1.1913
  579MOL0     H78124   8.736   8.027   6.405  0.2849 -0.1581 -0.8863
  579MOL0     H78125   8.662   8.196   6.318  0.0862  0.8616 -0.8371
  579MOL0     H78126   8.610   8.336   6.142  0.1345  0.8071 -0.2204
  579MOL0     H78127   8.647   8.306   5.749 -0.4132  0.4459  2.1478
  579MOL0     H78128   8.688   8.414   5.499  2.0131  3.0249  0.2307
  579MOL0     H78129   8.507   8.793   5.413  1.6490  1.5011  0.1379
  579MOL0     H78130   8.681   8.770   5.408 -1.1742  0.1564  1.5906
  579MOL0     H78131   8.624   8.668   5.164  1.2188  0.8529 -0.5871
  579MOL0     H78132   8.460   8.728   5.206  1.0644 -0.6909 -0.0371
  579MOL0     H78133   8.548   8.895   5.076 -2.1536  0.4644  0.6006
  579MOL0     H78134   8.572   8.955   5.244 -1.3808 -1.6994  0.3624
  579MOL0     H78135   8.779   8.797   5.085 -2.1421 -1.0285 -0.3333
  579MOL0     H78136   8.819   8.876   5.225 -0.2736  1.9340 -0.1035
  579MOL0     H78137   8.767   9.096   5.098 -2.5943 -0.5625 -0.7853
  579MOL0     H78138   8.746   9.008   4.960  0.6629 -0.0314 -0.8924
  579MOL0     H78139   9.002   9.016   5.115 -0.1791  3.1950 -1.4770
  579MOL0     H78140   8.985   8.887   4.997  0.1971 -0.4352 -0.5841
  579MOL0     H78141   8.916   9.054   4.833  0.6654 -2.2804  0.3004
  579MOL0     H78142   9.092   9.037   4.877  1.8189 -1.6098  1.9150
  579MOL0     H78143   9.016   9.269   4.861  2.7171  3.1102  2.1034
  579MOL0     H78144   8.910   9.245   5.007  0.2194  1.5007 -0.2055
  579MOL0     H78145   8.395   8.700   5.589 -1.2481 -2.9384 -0.9893
  579MOL0     H78146   8.348   8.610   5.824 -1.2157 -2.2394  2.0424
  579MOL0     H78147   8.309   8.063   6.003  0.0364  1.6772 -1.9640
  579MOL0     H78148   8.358   7.920   6.204 -0.0475  0.0044 -0.4262
  579MOL0     H78149   7.143   8.079   5.866  0.7985  0.3819 -0.9345
  579MOL0     H78150   7.071   7.937   5.657 -4.9283 -2.4198 -0.0216
  579MOL0     H78151   7.076   7.631   5.428 -1.1805  1.3371 -0.0672
  579MOL0     H78152   7.048   7.560   5.204 -0.4668  0.1113  0.7777
  579MOL0     H78153   6.975   7.492   5.003 -0.8888  1.1209  3.2555
  579MOL0     H78154   6.853   7.382   4.934 -0.2147 -1.6806  1.4576
  579MOL0     H78155   6.944   7.200   5.023 -1.3238 -0.0086  1.5486
  579MOL0     H78156   6.979   7.270   5.184  0.8614 -2.3890  0.2921
  579MOL0     H78157   7.187   7.220   5.095  2.5044  3.0300  1.4746
  579MOL0     H78158   7.174   7.393   5.053  0.0611 -0.2418 -2.2193
  579MOL0     H78159   7.147   7.158   4.860  1.4200 -1.6599  3.4708
  579MOL0     H78160   7.112   7.332   4.828  0.3076  2.5938  1.5100
  579MOL0     H78161   7.540   7.299   4.838  0.2892 -0.1531 -0.0901
  579MOL0     H78162   6.660   7.408   5.317 -0.7955  2.8318 -2.0183
  579MOL0     H78163   6.577   7.427   5.546 -0.2342  3.6985 -3.0425
  579MOL0     H78164   6.706   7.367   5.665  1.4491  1.8221  1.7220
  579MOL0     H78165   6.655   7.525   5.663  1.9826  0.3625 -0.1458
  580MOL0     O78166   4.436   3.696   4.853  0.4294 -0.5631 -0.8256
  580MOL0     C78167   4.545   3.749   4.848 -0.0930  0.8406 -0.9751
  580MOL0     O78168   4.609   3.800   4.958  0.8887  0.2771 -1.0671
  580MOL0     C78169   4.571   3.745   5.077  0.1985  0.2745  0.0622
  580MOL0     C78170   4.456   3.775   5.145  1.2456 -0.2601 -0.8588
  580MOL0     C78171   4.427   3.720   5.274  0.0954 -1.5468  0.2815
  580MOL0     C78172   4.509   3.615   5.318 -0.1130 -1.2640  0.1268
  580MOL0     O78173   4.480   3.545   5.433 -0.5364  0.0191 -0.2326
  580MOL0     C78174   4.355   3.466   5.455  0.0283  0.4606  0.4310
  580MOL0     C78175   4.373   3.379   5.575 -1.0857 -0.8591  0.4679
  580MOL0     C78176   4.469   3.265   5.539 -0.0297 -0.6608 -0.1199
  580MOL0     C78177   4.399   3.137   5.583 -0.3611 -0.2706  0.4958
  580MOL0     C78178   4.482   3.010   5.537 -0.0589 -1.3222 -0.3485
  580MOL0     C78179   4.450   2.875   5.601 -0.0844  0.4094  0.3022
  580MOL0     C78180   4.321   2.811   5.541  0.3029  0.3412 -0.0544
  580MOL0     C78181   4.325   2.786   5.392 -0.2832  0.1201  0.0821
  580MOL0     N78182   4.217   2.696   5.366  0.0794  0.5583  1.3311
  580MOL0     C78183   4.083   2.705   5.408 -0.8273 -0.8499  0.0421
  580MOL0     C78184   4.033   2.579   5.384 -0.2961 -0.1419 -0.6967
  580MOL0     C78185   3.903   2.525   5.441 -0.6802 -0.8735  0.3854
  580MOL0     C78186   3.805   2.468   5.339 -0.5530 -0.1609 -0.0495
  580MOL0     C78187   3.687   2.403   5.408  0.5663  0.2554 -0.3036
  580MOL0     C78188   3.737   2.284   5.495  0.2862  0.1343 -0.8436
  580MOL0     O78189   3.626   2.194   5.521 -0.5672  0.3669  0.4906
  580MOL0     C78190   3.650   2.062   5.541 -0.3111 -0.1287 -0.1538
  580MOL0     C78191   3.544   1.983   5.582  0.1896  0.6025  0.3004
  580MOL0     C78192   3.557   1.854   5.620  0.3391 -0.1259 -0.6173
  580MOL0     C78193   3.680   1.791   5.604 -0.0209 -0.4010  0.5030
  580MOL0     C78194   3.697   1.652   5.649  0.2387  1.8109 -0.1369
  580MOL0     O78195   3.821   1.591   5.637 -0.0469 -0.4618  0.1213
  580MOL0     C78196   3.820   1.455   5.616  0.6024  0.2547  0.2556
  580MOL0     C78197   3.811   1.366   5.720  0.3077 -0.6071  0.1764
  580MOL0     C78198   3.829   1.232   5.703 -1.0323  0.0022  0.6973
  580MOL0     C78199   3.809   1.169   5.573 -0.4816 -0.2273 -0.7944
  580MOL0     O78200   3.790   1.038   5.536  0.1144  0.0385  0.1275
  580MOL0     C78201   3.735   0.942   5.627  0.0067 -0.0834  0.7708
  580MOL0     C78202   3.850   0.847   5.684 -0.0618  0.1495  0.7472
  580MOL0     C78203   3.789   0.739   5.767  0.2735 -0.1308  0.0120
  580MOL0     C78204   3.762   0.784   5.912  0.2761 -0.3082  0.0427
  580MOL0     C78205   3.681   0.680   6.000 -0.0324 -0.7873 -0.5758
  580MOL0     C78206   3.643   0.737   6.140 -0.4210 -0.3134  0.0074
  580MOL0     C78207   3.763   0.761   6.234 -0.9377 -0.0609  0.0951
  580MOL0     C78208   3.715   0.844   6.356 -0.0017 -0.5074 -0.2317
  580MOL0    Cl78209   3.600   0.763   6.465 -0.0888  0.4694 -0.4059
  580MOL0     C78210   3.799   1.270   5.467  0.2622 -0.0863 -0.7169
  580MOL0     C78211   3.804   1.411   5.486  0.0099  1.2846  0.2005
  580MOL0     O78212   3.603   1.600   5.704  0.9240 -0.7256 -0.3759
  580MOL0     C78213   3.788   1.863   5.558 -0.3492 -0.1019 -0.2458
  580MOL0     C78214   3.775   2.000   5.541 -0.1992  0.2360  0.6371
  580MOL0     N78215   4.129   2.508   5.311  1.0901  0.0559 -0.9396
  580MOL0     N78216   4.240   2.578   5.303  1.0597  0.5323  0.4819
  580MOL0     C78217   4.621   3.577   5.245  0.5349 -0.0416 -0.4639
  580MOL0     C78218   4.654   3.646   5.130  0.7243 -0.2220  0.3582
  580MOL0     C78219   4.624   3.740   4.722 -0.1407  0.0056 -0.7024
  580MOL0     C78220   4.729   3.835   4.699  0.3068 -0.0682 -0.1100
  580MOL0     C78221   4.811   3.836   4.579  0.1776  0.3437  0.8347
  580MOL0     C78222   4.789   3.732   4.483  0.0880 -0.3137 -0.7533
  580MOL0     O78223   4.839   3.722   4.359  0.5647 -0.1265  0.1949
  580MOL0     C78224   4.972   3.779   4.332  1.0772  0.2587 -0.2558
  580MOL0     C78225   5.042   3.682   4.244  0.8879 -0.9921 -0.2183
  580MOL0     C78226   5.071   3.750   4.112  0.3180 -0.4599 -1.2802
  580MOL0     C78227   5.158   3.664   4.026  0.4783  0.3173  0.9631
  580MOL0     C78228   5.298   3.661   4.067  0.7564 -0.1220 -1.0544
  580MOL0     C78229   5.419   3.660   4.087 -0.6509 -0.6534  0.5873
  580MOL0     C78230   4.675   3.647   4.502 -0.1517 -1.1700 -0.8427
  580MOL0     C78231   4.603   3.636   4.617  0.4020  0.5839  0.3209
  580MOL0     C78232   4.498   3.522   4.620 -0.1027  0.3356 -0.2170
  580MOL0     H78233   4.399   3.855   5.098  0.9356 -0.3799 -0.6918
  580MOL0     H78234   4.344   3.751   5.335  0.8274 -2.4348  1.8037
  580MOL0     H78235   4.267   3.531   5.459  1.4025  2.9207 -3.4840
  580MOL0     H78236   4.353   3.397   5.370  0.8226  0.5101  0.3662
  580MOL0     H78237   4.273   3.345   5.600 -1.1094 -0.6061  0.7184
  580MOL0     H78238   4.413   3.422   5.668 -0.8698 -3.0734  1.4486
  580MOL0     H78239   4.563   3.256   5.593 -0.7144 -0.2629  1.1843
  580MOL0     H78240   4.500   3.254   5.434  0.9070  0.9174 -0.0254
  580MOL0     H78241   4.398   3.130   5.692  1.8806  2.1285  0.7601
  580MOL0     H78242   4.300   3.121   5.539  0.6940 -1.3981 -1.5783
  580MOL0     H78243   4.460   3.016   5.430 -0.4338  0.3855 -0.2100
  580MOL0     H78244   4.585   3.027   5.570 -0.6615 -2.0775  2.1473
  580MOL0     H78245   4.536   2.810   5.582 -0.2206  0.2009  0.3994
  580MOL0     H78246   4.435   2.894   5.707 -0.4912  3.9849 -0.2807
  580MOL0     H78247   4.233   2.869   5.571 -0.5670 -0.2419 -1.3856
  580MOL0     H78248   4.304   2.714   5.589 -5.1540 -0.7948 -3.4252
  580MOL0     H78249   4.327   2.874   5.328  2.8244  0.1250  0.0484
  580MOL0     H78250   4.417   2.737   5.358  0.6826 -0.0045  2.6625
  580MOL0     H78251   4.046   2.782   5.475  0.3478  0.6713 -0.9857
  580MOL0     H78252   3.929   2.463   5.527 -1.3822  2.5001  3.2962
  580MOL0     H78253   3.848   2.609   5.486  1.3062 -0.9827  3.3554
  580MOL0     H78254   3.749   2.549   5.291 -2.2516 -1.3879 -0.2489
  580MOL0     H78255   3.858   2.405   5.267  1.9905  3.8998 -2.0493
  580MOL0     H78256   3.618   2.358   5.337  0.2902 -0.6800  0.5347
  580MOL0     H78257   3.633   2.476   5.470  4.6256  0.7225  3.2192
  580MOL0     H78258   3.789   2.325   5.583  1.4780 -0.1850 -1.3715
  580MOL0     H78259   3.811   2.234   5.433  1.9852  2.2305 -0.6540
  580MOL0     H78260   3.442   2.018   5.580  0.6458  1.9775 -0.4836
  580MOL0     H78261   3.467   1.805   5.657  0.2063  1.6229  1.6135
  580MOL0     H78262   3.802   1.418   5.816  1.2091  1.3904 -0.7505
  580MOL0     H78263   3.828   1.155   5.780  0.6426 -0.7935 -0.0317
  580MOL0     H78264   3.675   0.989   5.706 -2.0715  0.1146 -0.8148
  580MOL0     H78265   3.663   0.879   5.573  1.0432 -0.5760 -0.0629
  580MOL0     H78266   3.899   0.808   5.594 -3.0123 -1.1169 -0.4487
  580MOL0     H78267   3.911   0.919   5.739 -0.2603  1.5300 -0.7490
  580MOL0     H78268   3.700   0.699   5.718 -0.5411  1.2866  0.2959
  580MOL0     H78269   3.862   0.657   5.770 -0.4339 -0.9108 -2.2739
  580MOL0     H78270   3.712   0.880   5.899  0.4441 -0.3243 -0.7842
  580MOL0     H78271   3.857   0.811   5.958 -0.1867  2.0935 -0.3074
  580MOL0     H78272   3.740   0.590   6.015 -0.0556 -0.5090  1.4839
  580MOL0     H78273   3.600   0.648   5.933  1.8681 -0.2664 -3.2900
  580MOL0     H78274   3.588   0.829   6.116 -3.3994 -2.5840 -2.7064
  580MOL0     H78275   3.581   0.661   6.187 -1.4924  0.4262 -0.1708
  580MOL0     H78276   3.847   0.807   6.182 -1.3126 -1.6957 -2.0669
  580MOL0     H78277   3.809   0.673   6.279  0.4045  2.3788  4.0881
  580MOL0     H78278   3.800   0.881   6.413 -1.0222  0.5366  0.6682
  580MOL0     H78279   3.665   0.933   6.316  2.1935  0.5647 -0.7308
  580MOL0     H78280   3.764   1.238   5.370  0.4702  1.8873 -1.5003
  580MOL0     H78281   3.794   1.469   5.395 -1.1740  1.1075  0.2040
  580MOL0     H78282   3.885   1.816   5.546 -1.1284 -1.2059 -3.2670
  580MOL0     H78283   3.856   2.067   5.514 -1.3823  0.8399 -1.6661
  580MOL0     H78284   4.692   3.504   5.284 -0.4841 -1.3795 -1.0434
  580MOL0     H78285   4.741   3.633   5.066 -0.2030 -0.4431 -0.9184
  580MOL0     H78286   4.754   3.917   4.765  1.5130 -1.4184  1.1968
  580MOL0     H78287   4.890   3.908   4.560  2.3975 -1.4549  2.6261
  580MOL0     H78288   5.042   3.793   4.415  1.3175  1.2288 -0.6071
  580MOL0     H78289   4.958   3.871   4.275 -0.4191 -1.1899 -2.3717
  580MOL0     H78290   4.973   3.597   4.240  0.9064 -0.9568 -1.7179
  580MOL0     H78291   5.131   3.650   4.300  1.5263  0.7042 -0.2237
  580MOL0     H78292   5.112   3.850   4.128  1.1535 -1.0019  0.0763
  580MOL0     H78293   4.968   3.761   4.075 -1.4746  2.3913  3.5741
  580MOL0     H78294   5.130   3.559   4.025  3.6887 -0.6756 -1.2522
  580MOL0     H78295   5.153   3.699   3.922 -1.2955  1.4612  1.3907
  580MOL0     H78296   5.523   3.660   4.109 -0.2373 -1.5457 -1.1694
  580MOL0     H78297   4.658   3.573   4.425 -0.8784 -4.9935  2.6081
  580MOL0     H78298   4.398   3.555   4.591 -0.6632 -0.0168  1.2690
  580MOL0     H78299   4.525   3.444   4.547 -2.5335  0.6418 -1.5551
  580MOL0     H78300   4.489   3.475   4.718 -1.6960  0.6089 -0.2198
  581MOL0     O78301   8.072  10.306   0.186  0.4402  0.1569  0.3557
  581MOL0     C78302   7.998  10.267   0.276  0.1360  0.7201 -0.5022
  581MOL0     O78303   8.030  10.261   0.408 -0.4794 -1.3552 -0.3822
  581MOL0     C78304   8.131  10.344   0.451 -0.3637  0.5133  0.3777
  581MOL0     C78305   8.103  10.473   0.480  0.2553  0.0629  0.6395
  581MOL0     C78306   8.210  10.554   0.538 -0.5639  0.4220 -0.1551
  581MOL0     C78307   8.344  10.505   0.558 -0.6433  0.7538 -0.0557
  581MOL0     O78308   8.452  10.581   0.585 -0.1669  0.0263 -0.5560
  581MOL0     C78309   8.437  10.681   0.692 -0.1339  0.5039  0.8904
  581MOL0     C78310   8.582  10.701   0.724 -0.2224 -0.1194 -0.2854
  581MOL0     C78311   8.604  10.613   0.851  0.5401  0.2992  0.4481
  581MOL0     C78312   8.722  10.664   0.926 -0.2960 -0.2746  0.2483
  581MOL0     C78313   8.738  10.584   1.062  0.0626 -0.0939 -0.1173
  581MOL0     C78314   8.886  10.599   1.099  0.0676  0.8460  0.3753
  581MOL0     C78315   8.979  10.498   1.029 -0.6094  0.7097 -0.0098
  581MOL0     C78316   9.109  10.489   1.108  0.0256 -0.3221  1.0182
  581MOL0     N78317   9.211  10.399   1.047 -0.4441 -0.3762  0.4136
  581MOL0     C78318   9.274  10.426   0.928 -0.1419 -0.1190 -0.6643
  581MOL0     C78319   9.350  10.319   0.921 -0.3133 -0.4181  1.0120
  581MOL0     C78320   9.464  10.298   0.824  0.3691  0.0269 -1.0726
  581MOL0     C78321   9.421  10.326   0.682 -0.3936 -0.1428 -1.1330
  581MOL0     C78322   9.307  10.238   0.639  0.7215 -0.0235  0.1908
  581MOL0     C78323   9.266  10.251   0.489 -0.5835 -0.2606 -0.8289
  581MOL0     O78324   9.196  10.377   0.482  0.2790 -0.5241  0.5577
  581MOL0     C78325   9.210  10.433   0.356 -0.2226  0.9445  0.2677
  581MOL0     C78326   9.147  10.374   0.251 -0.2758 -0.1165 -1.0740
  581MOL0     C78327   9.156  10.423   0.122  0.0655  0.2072  0.5663
  581MOL0     C78328   9.224  10.550   0.104 -0.2792 -0.0471 -0.1944
  581MOL0     C78329   9.206  10.621  -0.037  0.4064 -0.4744  0.1696
  581MOL0     O78330   9.161  10.543  -0.149 -0.1644 -0.0240  0.3222
  581MOL0     C78331   9.158  10.599  -0.273  0.0583  0.4060 -0.6248
  581MOL0     C78332   9.272  10.661  -0.330  0.1677  0.7589 -0.4090
  581MOL0     C78333   9.278  10.713  -0.464  0.4030  0.9804 -0.2927
  581MOL0     C78334   9.167  10.700  -0.538  0.2657 -0.6931 -0.1408
  581MOL0     O78335   9.182  10.754  -0.670 -0.3123 -0.3078 -0.1313
  581MOL0     C78336   9.060  10.778  -0.747 -0.6012  0.0889  0.1411
  581MOL0     C78337   8.991  10.907  -0.688 -0.5560  0.0265 -0.4369
  581MOL0     C78338   9.079  11.029  -0.679  0.0539 -0.3598 -0.2564
  581MOL0     C78339   9.138  11.079  -0.811 -0.4913 -1.0278 -0.5209
  581MOL0     C78340   9.030  11.138  -0.919 -1.4068  0.1050 -0.3374
  581MOL0     C78341   9.079  11.252  -1.020 -1.1979  0.5021 -0.4390
  581MOL0     C78342   9.134  11.378  -0.953  0.0834 -0.0387 -0.8319
  581MOL0     C78343   9.184  11.476  -1.059 -0.7418  0.6715 -0.4868
  581MOL0    Cl78344   9.037  11.534  -1.153  0.0331  0.0172 -0.1010
  581MOL0     C78345   9.052  10.633  -0.482  0.8804 -0.2819  0.2530
  581MOL0     C78346   9.051  10.582  -0.356 -0.0080 -0.1225 -0.2381
  581MOL0     O78347   9.228  10.739  -0.043 -0.5439 -0.2133 -0.1492
  581MOL0     C78348   9.290  10.615   0.208  0.1667  0.0336 -0.4654
  581MOL0     C78349   9.280  10.555   0.336 -0.2953  0.3090 -0.6644
  581MOL0     N78350   9.353  10.245   1.037  0.4365  0.8491 -0.7882
  581MOL0     N78351   9.248  10.285   1.102  0.2851 -0.5761 -0.5159
  581MOL0     C78352   8.365  10.373   0.520  0.1441  0.0431 -0.2279
  581MOL0     C78353   8.262  10.292   0.466 -0.0016  0.5147  0.3491
  581MOL0     C78354   7.871  10.191   0.245  0.6963 -0.2634 -0.3285
  581MOL0     C78355   7.833  10.091   0.332  0.4901  0.4593  0.3385
  581MOL0     C78356   7.726   9.995   0.315 -0.4355  0.8211 -0.3205
  581MOL0     C78357   7.632  10.012   0.214 -0.2158  0.5481 -0.7608
  581MOL0     O78358   7.539   9.922   0.193  0.8254  0.2265  0.1542
  581MOL0     C78359   7.585   9.826   0.092  0.2774 -0.2283  0.6154
  581MOL0     C78360   7.513   9.695   0.103 -0.2316  0.3810 -0.7499
  581MOL0     C78361   7.532   9.650   0.253  0.0272 -0.0578 -0.3394
  581MOL0     C78362   7.489   9.510   0.306 -0.4912  0.1370 -0.1026
  581MOL0     C78363   7.343   9.492   0.291  0.2648 -0.6643 -0.1284
  581MOL0     C78364   7.227   9.481   0.251 -1.1873 -0.1312 -0.1167
  581MOL0     C78365   7.654  10.129   0.145  0.1348  0.0320  0.5032
  581MOL0     C78366   7.765  10.214   0.144 -0.2279  0.1079 -0.1588
  581MOL0     C78367   7.787  10.309   0.033 -0.4060 -0.3904  0.6717
  581MOL0     H78368   8.004  10.503   0.446  0.1672 -0.8191  0.0793
  581MOL0     H78369   8.191  10.658   0.563 -1.6311  0.9119 -2.6872
  581MOL0     H78370   8.384  10.766   0.650 -2.4737 -0.9564  0.6833
  581MOL0     H78371   8.367  10.653   0.772  1.2285  0.7128  2.2170
  581MOL0     H78372   8.594  10.809   0.741 -0.4956  0.1325 -1.6101
  581MOL0     H78373   8.642  10.675   0.637 -2.4981  0.7016 -2.2339
  581MOL0     H78374   8.604  10.509   0.818 -1.6930  0.2738  0.3946
  581MOL0     H78375   8.529  10.623   0.929  1.2342  1.5321  0.9955
  581MOL0     H78376   8.800  10.627   0.859 -0.7235 -1.7021  0.4989
  581MOL0     H78377   8.725  10.772   0.944  2.0398 -0.4422  1.2562
  581MOL0     H78378   8.675  10.631   1.138 -0.3501  2.5853 -1.9943
  581MOL0     H78379   8.716  10.479   1.038  0.4916  0.2586 -2.2747
  581MOL0     H78380   8.917  10.701   1.074 -1.6030  1.1012 -0.8426
  581MOL0     H78381   8.903  10.579   1.205 -0.3470  0.4717  0.3720
  581MOL0     H78382   9.002  10.540   0.931  0.7147 -2.5305 -1.1938
  581MOL0     H78383   8.930  10.401   1.020 -2.4120  1.5868 -0.1495
  581MOL0     H78384   9.152  10.589   1.094 -1.2450 -0.2175 -5.2159
  581MOL0     H78385   9.104  10.454   1.211  3.0426 -0.3918  1.2295
  581MOL0     H78386   9.260  10.512   0.863  0.6597  1.1440  0.7759
  581MOL0     H78387   9.541  10.366   0.863 -0.2269  0.4181 -0.5611
  581MOL0     H78388   9.501  10.196   0.836  1.7493  0.3368 -2.4058
  581MOL0     H78389   9.387  10.430   0.669 -0.4125 -0.1452 -1.1046
  581MOL0     H78390   9.507  10.309   0.616 -0.6911 -3.9325 -0.7270
  581MOL0     H78391   9.227  10.262   0.709  1.5877  1.3146  0.7427
  581MOL0     H78392   9.331  10.132   0.654 -1.8903 -1.1223 -2.3192
  581MOL0     H78393   9.200  10.168   0.464  1.7011 -2.1850 -0.7694
  581MOL0     H78394   9.353  10.271   0.427 -1.5687  1.6867 -1.6792
  581MOL0     H78395   9.101  10.280   0.280 -1.1245  0.4679 -0.4456
  581MOL0     H78396   9.093  10.390   0.040 -0.1196  1.0239  0.3754
  581MOL0     H78397   9.360  10.679  -0.268 -0.5961  2.0861  0.3372
  581MOL0     H78398   9.369  10.751  -0.510  1.2158  0.5294  0.8881
  581MOL0     H78399   9.073  10.782  -0.856  1.3955 -1.6670  0.2625
  581MOL0     H78400   9.000  10.687  -0.741 -0.1819 -0.2815 -0.9513
  581MOL0     H78401   8.900  10.931  -0.743 -1.9081  0.3929  1.8189
  581MOL0     H78402   8.963  10.880  -0.586  2.1784 -0.0129  0.3903
  581MOL0     H78403   9.023  11.109  -0.629 -0.1805  0.2530 -1.4753
  581MOL0     H78404   9.159  11.028  -0.604 -2.5945  1.6532  2.8910
  581MOL0     H78405   9.188  10.994  -0.858  2.3366 -0.5817  1.4519
  581MOL0     H78406   9.216  11.151  -0.785 -0.0569 -1.9729  0.8692
  581MOL0     H78407   8.945  11.172  -0.858  0.3080  2.3751  0.9522
  581MOL0     H78408   9.006  11.050  -0.979 -0.2851  1.9038 -3.6608
  581MOL0     H78409   9.156  11.216  -1.089 -0.2294  4.1523 -1.5194
  581MOL0     H78410   8.993  11.272  -1.084 -0.5522 -0.6896 -1.7386
  581MOL0     H78411   9.222  11.350  -0.896 -0.8326 -0.1029  0.5891
  581MOL0     H78412   9.047  11.412  -0.896  0.4299  1.0066 -0.9229
  581MOL0     H78413   9.234  11.554  -1.000  1.5915 -0.2275 -1.1938
  581MOL0     H78414   9.259  11.426  -1.120  1.9722  0.7253  2.5611
  581MOL0     H78415   8.960  10.615  -0.537 -1.9077  2.2038  3.6628
  581MOL0     H78416   8.957  10.543  -0.318 -0.9271  3.4777  1.7006
  581MOL0     H78417   9.356  10.696   0.178  1.9779 -1.5689 -0.9876
  581MOL0     H78418   9.335  10.587   0.424  1.6302 -3.1396 -0.4618
  581MOL0     H78419   8.465  10.338   0.541 -1.4581 -2.5633  4.5738
  581MOL0     H78420   8.270  10.186   0.443 -1.4225  0.2503  0.9823
  581MOL0     H78421   7.870  10.096   0.434 -3.8521 -2.0585  2.3559
  581MOL0     H78422   7.715   9.922   0.395  0.0919 -0.4833 -1.3948
  581MOL0     H78423   7.691   9.799   0.097  0.6285  1.0348  0.3365
  581MOL0     H78424   7.563   9.870  -0.005 -0.3105  1.0176  1.2836
  581MOL0     H78425   7.560   9.618   0.041  1.0327  0.9178 -0.5050
  581MOL0     H78426   7.408   9.694   0.072 -0.8116 -0.2731  1.1139
  581MOL0     H78427   7.493   9.718   0.329  0.6909 -1.7706  1.6386
  581MOL0     H78428   7.637   9.653   0.282 -0.0757  1.6947 -0.0448
  581MOL0     H78429   7.548   9.431   0.260 -0.0222  1.5049 -1.9909
  581MOL0     H78430   7.508   9.514   0.414  0.0040 -4.4436  0.1613
  581MOL0     H78431   7.122   9.471   0.230 -1.7142  2.6126  0.8455
  581MOL0     H78432   7.582  10.148   0.066  0.0091  1.4371  0.9370
  581MOL0     H78433   7.690  10.344  -0.004 -0.9544  0.2438  2.5778
  581MOL0     H78434   7.844  10.395   0.070 -3.0696  1.1613  1.4729
  581MOL0     H78435   7.837  10.252  -0.045  0.4961 -1.4019  1.9503
  582MOL0     O78436   3.116   0.704   4.211 -0.2784  0.0673 -0.5059
  582MOL0     C78437   3.117   0.702   4.090  0.1938 -0.2174  0.4790
  582MOL0     O78438   3.014   0.656   4.008 -0.0515 -0.2366 -0.2071
  582MOL0     C78439   2.908   0.600   4.067 -0.0894  0.1936 -0.4465
  582MOL0     C78440   2.916   0.472   4.115 -0.8197  0.6076  0.6056
  582MOL0     C78441   2.831   0.402   4.202  0.6333 -0.4364 -0.4597
  582MOL0     C78442   2.714   0.477   4.238  0.4488  0.3912 -0.6616
  582MOL0     O78443   2.616   0.424   4.319 -0.1423  0.9558  0.2928
  582MOL0     C78444   2.567   0.293   4.262  0.5127  0.5016 -0.3769
  582MOL0     C78445   2.441   0.253   4.341 -0.0475 -0.3463 -0.2699
  582MOL0     C78446   2.391   0.109   4.321 -1.0081  0.0643  0.0801
  582MOL0     C78447   2.256   0.090   4.379  2.3119 -0.3366  1.0575
  582MOL0     C78448   2.132   0.144   4.302 -0.4769 -0.8281  0.0367
  582MOL0     C78449   2.000   0.113   4.366  0.2986  1.0104 -0.1072
  582MOL0     C78450   1.871   0.159   4.298  0.8781 -0.6478  0.1211
  582MOL0     C78451   1.878   0.155   4.147 -0.1217  0.5306 -0.1283
  582MOL0     N78452   1.742   0.160   4.103  0.0793  0.2674 -1.2359
  582MOL0     C78453   1.660   0.046   4.080  0.4257 -0.5982  0.2866
  582MOL0     C78454   1.546   0.115   4.030  0.3797  0.1606 -0.1170
  582MOL0     C78455   1.416   0.055   3.989 -0.5230  0.8461  0.0083
  582MOL0     C78456   1.315   0.057   4.102  0.6996 -0.2937  0.1663
  582MOL0     C78457   1.195  -0.051   4.090 -0.2894 -0.1535 -0.5852
  582MOL0     C78458   1.108  -0.065   4.209 -0.1118 -0.4831  0.3532
  582MOL0     O78459   0.987  -0.137   4.182  0.0919  0.0042 -0.2035
  582MOL0     C78460   0.891  -0.061   4.113  0.8658  0.7728 -0.5946
  582MOL0     C78461   0.906   0.072   4.067 -0.9565  0.5118 -0.0947
  582MOL0     C78462   0.807   0.131   3.988 -0.7733  0.1528 -0.2578
  582MOL0     C78463   0.683   0.063   3.981  0.0698 -0.5782 -0.2682
  582MOL0     C78464   0.569   0.121   3.904  0.4652  0.4812 -0.3758
  582MOL0     O78465   0.601   0.187   3.788 -0.2717 -0.9210  0.4143
  582MOL0     C78466   0.507   0.216   3.695  0.4121 -0.7136  0.3809
  582MOL0     C78467   0.524   0.329   3.614  0.5797  0.2361  0.2787
  582MOL0     C78468   0.416   0.374   3.528  0.3433 -0.1176 -0.9391
  582MOL0     C78469   0.302   0.305   3.524 -0.2832  0.5791  0.7091
  582MOL0     O78470   0.201   0.359   3.438 -0.3718 -0.1854  0.7918
  582MOL0     C78471   0.083   0.283   3.422  0.5546  0.5027  0.2594
  582MOL0     C78472   0.001   0.326   3.295  0.5446  0.3628  0.1912
  582MOL0     C78473  -0.111   0.417   3.337 -0.9027  0.4628  0.3974
  582MOL0     C78474  -0.203   0.442   3.216 -0.0495 -0.0582  0.4233
  582MOL0     C78475  -0.306   0.557   3.235 -0.2007  0.4334 -0.6489
  582MOL0     C78476  -0.372   0.599   3.109  0.8896  1.1497 -0.2766
  582MOL0     C78477  -0.491   0.496   3.081  0.6840 -1.5825  0.8383
  582MOL0     C78478  -0.535   0.502   2.942  0.4265 -0.5768 -0.5134
  582MOL0    Cl78479  -0.408   0.435   2.840 -0.5044 -0.4546  0.6063
  582MOL0     C78480   0.288   0.184   3.605 -0.5100 -0.1262  0.3511
  582MOL0     C78481   0.396   0.137   3.674  0.0076  0.0967  0.5706
  582MOL0     O78482   0.455   0.096   3.948 -0.2703  0.1054 -0.3629
  582MOL0     C78483   0.666  -0.067   4.037 -0.1485 -0.5224  1.0120
  582MOL0     C78484   0.771  -0.132   4.101  0.0101  0.8955  0.1592
  582MOL0     N78485   1.561   0.247   4.034 -0.2609 -0.4529 -0.1320
  582MOL0     N78486   1.678   0.274   4.072 -0.3658 -0.6363  0.3028
  582MOL0     C78487   2.702   0.604   4.188  0.4596 -0.3828  0.6388
  582MOL0     C78488   2.801   0.673   4.107  0.7761 -0.8859 -0.1363
  582MOL0     C78489   3.233   0.778   4.027 -0.1048 -0.9136 -0.3512
  582MOL0     C78490   3.239   0.773   3.885  0.6616 -0.9149  0.2304
  582MOL0     C78491   3.345   0.829   3.809  0.0337  0.0341  0.2796
  582MOL0     C78492   3.451   0.883   3.881 -1.1518  0.2763  0.9526
  582MOL0     O78493   3.573   0.927   3.822 -0.0403 -0.2923  0.3599
  582MOL0     C78494   3.562   1.010   3.711 -0.7763  0.3745  0.9853
  582MOL0     C78495   3.697   1.010   3.639  0.6206  0.6083  0.1068
  582MOL0     C78496   3.710   1.140   3.563 -0.4482  0.7518  0.1982
  582MOL0     C78497   3.832   1.117   3.462  0.7392  0.9938  0.2748
  582MOL0     C78498   3.962   1.140   3.524 -0.8540  0.6825 -0.3597
  582MOL0     C78499   4.070   1.164   3.576 -0.1396 -0.2544 -0.1608
  582MOL0     C78500   3.447   0.892   4.017  0.1373  0.2237  1.0786
  582MOL0     C78501   3.337   0.850   4.087 -0.2048 -0.0277 -0.2352
  582MOL0     C78502   3.343   0.869   4.229  0.4389  0.0172 -0.6234
  582MOL0     H78503   3.012   0.424   4.097 -0.5333  1.3110  0.1997
  582MOL0     H78504   2.860   0.307   4.244 -1.1762 -1.0520 -0.5235
  582MOL0     H78505   2.551   0.300   4.155 -1.1816  2.2943 -0.0610
  582MOL0     H78506   2.642   0.215   4.278  0.1771  0.6780  2.8566
  582MOL0     H78507   2.360   0.317   4.304 -0.0358  0.0830  0.4365
  582MOL0     H78508   2.460   0.280   4.446  2.5938  0.3369 -0.8453
  582MOL0     H78509   2.467   0.044   4.365 -1.8711 -0.2757  1.1066
  582MOL0     H78510   2.400   0.081   4.216 -0.0128 -1.5668  0.5538
  582MOL0     H78511   2.234  -0.017   4.389 -0.6534  0.2448  1.5123
  582MOL0     H78512   2.239   0.138   4.476 -2.3373 -0.0656  0.3225
  582MOL0     H78513   2.149   0.250   4.282 -0.3418 -1.2326 -2.2427
  582MOL0     H78514   2.136   0.104   4.200 -3.6507  1.1425 -1.0222
  582MOL0     H78515   1.992   0.004   4.370 -1.2237  1.0974 -0.1514
  582MOL0     H78516   1.990   0.144   4.470  0.3424 -2.2486  0.9595
  582MOL0     H78517   1.841   0.258   4.335  0.7297  0.4501 -2.6987
  582MOL0     H78518   1.789   0.093   4.327 -0.6118 -0.0039 -2.3419
  582MOL0     H78519   1.932   0.246   4.119  0.3033  0.7640  1.3380
  582MOL0     H78520   1.931   0.065   4.115 -0.4416  0.2980 -0.0125
  582MOL0     H78521   1.687  -0.058   4.094  1.0612 -0.9441 -2.8099
  582MOL0     H78522   1.382   0.121   3.908  0.8784  0.3841 -1.0063
  582MOL0     H78523   1.433  -0.048   3.956 -1.1564  0.1506  1.7584
  582MOL0     H78524   1.371   0.036   4.193  0.7081  0.8047  0.4346
  582MOL0     H78525   1.270   0.157   4.108 -1.7958 -1.4603  2.8663
  582MOL0     H78526   1.227  -0.154   4.069  0.4572 -0.3656  1.4115
  582MOL0     H78527   1.148  -0.025   3.995 -0.5312  0.8574 -0.1978
  582MOL0     H78528   1.082   0.032   4.253 -2.4468 -0.4502 -0.9622
  582MOL0     H78529   1.162  -0.123   4.285 -2.4290 -0.9960  1.7239
  582MOL0     H78530   0.999   0.125   4.084  0.3809 -1.3529 -1.1804
  582MOL0     H78531   0.825   0.227   3.941 -1.8416  1.5258  1.9783
  582MOL0     H78532   0.613   0.391   3.613  0.7785 -0.0485  0.0285
  582MOL0     H78533   0.437   0.469   3.480  0.3393  0.6014  0.4287
  582MOL0     H78534   0.106   0.177   3.410  1.0698  0.6114  0.2923
  582MOL0     H78535   0.025   0.298   3.514  1.9027  0.8167  1.0784
  582MOL0     H78536   0.055   0.377   3.215 -1.1819  4.6728  1.5003
  582MOL0     H78537  -0.039   0.231   3.259 -0.3618  1.2591 -1.2612
  582MOL0     H78538  -0.164   0.357   3.412  0.0785 -0.1451  0.6211
  582MOL0     H78539  -0.068   0.512   3.371  1.7034 -0.5611  0.2408
  582MOL0     H78540  -0.243   0.353   3.167  3.6116 -1.5614 -0.1473
  582MOL0     H78541  -0.150   0.475   3.126 -1.2092 -1.2780 -0.7480
  582MOL0     H78542  -0.265   0.647   3.281 -0.4957 -0.2125  0.9204
  582MOL0     H78543  -0.387   0.539   3.306 -2.2086  2.6575 -2.2336
  582MOL0     H78544  -0.415   0.699   3.115 -1.6166  0.0759  1.4084
  582MOL0     H78545  -0.308   0.586   3.021 -0.4028  0.2749 -1.1388
  582MOL0     H78546  -0.580   0.516   3.142 -0.2512 -4.1335  0.4416
  582MOL0     H78547  -0.453   0.396   3.103  0.1295 -2.4102 -1.6607
  582MOL0     H78548  -0.625   0.440   2.939  1.2787 -1.9348  0.5518
  582MOL0     H78549  -0.553   0.605   2.908 -1.6499 -0.5563  0.5078
  582MOL0     H78550   0.206   0.114   3.594 -1.8003  1.5286 -1.2519
  582MOL0     H78551   0.380   0.041   3.721  0.3254 -0.7562 -0.9952
  582MOL0     H78552   0.570  -0.118   4.024 -0.8270  0.9078  0.1311
  582MOL0     H78553   0.754  -0.229   4.146 -0.4444  1.0895  0.4017
  582MOL0     H78554   2.609   0.651   4.219  1.3561  0.2189  2.6432
  582MOL0     H78555   2.800   0.780   4.088 -1.2465 -0.3943  2.2089
  582MOL0     H78556   3.175   0.700   3.836  0.6176  0.7305 -2.3987
  582MOL0     H78557   3.345   0.815   3.701  0.5433  2.2042 -0.0448
  582MOL0     H78558   3.542   1.113   3.742 -1.0486  1.9656 -3.7140
  582MOL0     H78559   3.487   0.984   3.635  1.1604 -1.0189 -0.5378
  582MOL0     H78560   3.710   0.928   3.568 -1.7699 -0.7567  1.1159
  582MOL0     H78561   3.776   1.001   3.714 -1.2017 -0.1278  2.0396
  582MOL0     H78562   3.724   1.216   3.640 -1.3418 -0.1598  1.2989
  582MOL0     H78563   3.618   1.163   3.508 -0.8998  1.5143  1.2277
  582MOL0     H78564   3.837   1.032   3.393 -0.5336  2.2246 -1.4321
  582MOL0     H78565   3.825   1.194   3.385 -2.2707  1.1388  0.5759
  582MOL0     H78566   4.167   1.190   3.614 -0.8135  0.5319  1.1134
  582MOL0     H78567   3.531   0.947   4.058  0.4378  2.2624 -1.9271
  582MOL0     H78568   3.434   0.911   4.274 -0.2805 -2.3392  3.5898
  582MOL0     H78569   3.258   0.927   4.268  0.2164  1.5646 -3.1974
  582MOL0     H78570   3.334   0.770   4.275 -2.9996 -1.6036 -4.2562
  583MOL0     O78571   1.135   5.324   9.526 -0.6622  0.4584 -0.0343
  583MOL0     C78572   1.185   5.292   9.418 -0.8151  1.0031  0.5602
  583MOL0     O78573   1.249   5.384   9.330 -0.8500 -0.4356  0.9506
  583MOL0     C78574   1.249   5.515   9.355 -1.0652  0.4626 -0.0173
  583MOL0     C78575   1.365   5.586   9.355 -0.1771  1.0200 -0.3272
  583MOL0     C78576   1.369   5.717   9.384  0.9174 -0.3752 -0.1228
  583MOL0     C78577   1.253   5.786   9.418 -0.3883 -0.2286 -0.2106
  583MOL0     O78578   1.272   5.924   9.430  0.2555  0.0313 -0.5275
  583MOL0     C78579   1.195   5.986   9.543 -0.2775 -0.1620 -0.3597
  583MOL0     C78580   1.274   5.965   9.673  0.5418 -0.3723  0.0411
  583MOL0     C78581   1.234   6.065   9.779  0.8108 -0.0138 -0.4684
  583MOL0     C78582   1.282   6.212   9.761 -0.2516 -0.6057 -0.2689
  583MOL0     C78583   1.190   6.309   9.826  0.7827  0.9367  0.2971
  583MOL0     C78584   1.189   6.295   9.977  0.4834  0.0010 -1.1177
  583MOL0     C78585   1.107   6.404  10.050  0.5942 -0.2203 -0.5228
  583MOL0     C78586   1.074   6.364  10.198 -0.0319 -0.1631  0.6129
  583MOL0     N78587   1.001   6.470  10.270 -0.1427 -0.1031  1.0402
  583MOL0     C78588   1.062   6.559  10.353 -0.1772 -0.4962 -0.2320
  583MOL0     C78589   0.973   6.630  10.420 -0.7088  0.2878  0.9563
  583MOL0     C78590   1.004   6.735  10.528  0.2325  0.2313 -0.1645
  583MOL0     C78591   0.898   6.849  10.529 -0.2039  0.4499  0.6176
  583MOL0     C78592   0.938   6.965  10.443  0.4875  0.5413  1.1103
  583MOL0     C78593   0.820   7.060  10.417 -0.0707 -0.3258  0.6622
  583MOL0     O78594   0.801   7.128  10.546  0.0253 -0.1021  1.2643
  583MOL0     C78595   0.669   7.164  10.585 -0.2793 -0.4612  0.3501
  583MOL0     C78596   0.552   7.094  10.546  0.4180  0.6964 -0.0214
  583MOL0     C78597   0.426   7.146  10.578  0.1247  0.2653 -0.6695
  583MOL0     C78598   0.420   7.270  10.660  0.9774  0.3823  0.0781
  583MOL0     C78599   0.289   7.320  10.699  0.0228  0.4426 -0.3571
  583MOL0     O78600   0.184   7.272  10.628  0.3834 -0.7443 -0.2235
  583MOL0     C78601   0.046   7.286  10.652  0.7268  1.1841  0.2953
  583MOL0     C78602  -0.013   7.400  10.712  0.4106  0.5974  0.5928
  583MOL0     C78603  -0.149   7.399  10.741  0.1428  0.1710  0.2953
  583MOL0     C78604  -0.244   7.313  10.677 -0.0274  0.5040 -0.6435
  583MOL0     O78605  -0.381   7.322  10.698  0.0861 -0.8946  0.1234
  583MOL0     C78606  -0.457   7.204  10.750  0.6080  0.6022  0.0119
  583MOL0     C78607  -0.411   7.161  10.888 -0.1256 -0.5208 -0.1959
  583MOL0     C78608  -0.448   7.014  10.913  0.9069  0.3975 -0.1247
  583MOL0     C78609  -0.400   6.974  11.050 -0.1194 -0.4122  0.1136
  583MOL0     C78610  -0.340   6.835  11.056 -0.0967  0.3321  0.1576
  583MOL0     C78611  -0.450   6.725  11.047  0.8619 -0.9805  0.3705
  583MOL0     C78612  -0.398   6.584  11.058  0.0005 -0.7674 -0.1336
  583MOL0     C78613  -0.290   6.543  10.961 -0.5043 -0.1736 -0.2413
  583MOL0    Cl78614  -0.270   6.361  10.970  0.4618  0.6850 -0.2443
  583MOL0     C78615  -0.182   7.203  10.614 -0.4999  0.3020 -0.1193
  583MOL0     C78616  -0.044   7.193  10.591  1.1747 -0.8147 -0.1253
  583MOL0     O78617   0.291   7.416  10.778 -0.0397  0.8559  0.1174
  583MOL0     C78618   0.549   7.339  10.698  0.3208  1.4067 -0.1912
  583MOL0     C78619   0.664   7.282  10.658 -0.5401  0.2560 -0.0618
  583MOL0     N78620   0.848   6.574  10.381  1.0005 -0.2237 -0.1173
  583MOL0     N78621   0.870   6.468  10.308 -0.0349  0.1761  0.2338
  583MOL0     C78622   1.134   5.715   9.411 -0.4355 -0.7824  0.8782
  583MOL0     C78623   1.126   5.585   9.381 -0.3321  1.2603  0.0387
  583MOL0     C78624   1.175   5.151   9.369  0.0815 -0.7517 -0.9432
  583MOL0     C78625   1.154   5.134   9.231 -0.0082  0.0090  0.2804
  583MOL0     C78626   1.139   5.007   9.179  0.3199 -0.5600  0.1646
  583MOL0     C78627   1.159   4.893   9.260 -0.1942  0.2164 -0.4225
  583MOL0     O78628   1.143   4.768   9.213  0.8038  0.1095 -0.2454
  583MOL0     C78629   1.257   4.696   9.166  0.3507  0.2683  0.0827
  583MOL0     C78630   1.231   4.628   9.032  0.1689 -0.5421 -0.2158
  583MOL0     C78631   1.296   4.497   9.013 -0.3404 -0.1113  0.3226
  583MOL0     C78632   1.447   4.503   8.970  0.6698 -0.0228 -0.7057
  583MOL0     C78633   1.473   4.524   8.822  0.7863 -0.0001 -0.0252
  583MOL0     C78634   1.496   4.557   8.706 -0.0221  0.8226  0.1730
  583MOL0     C78635   1.193   4.911   9.396  0.1734  0.4818  0.8009
  583MOL0     C78636   1.204   5.038   9.447 -0.8293 -0.7921 -0.5874
  583MOL0     C78637   1.266   5.057   9.583 -0.1094  0.5802 -0.4081
  583MOL0     H78638   1.456   5.531   9.334  0.2531  1.1621  1.1147
  583MOL0     H78639   1.468   5.760   9.394  1.3144 -0.8260 -1.7694
  583MOL0     H78640   1.186   6.090   9.508 -2.3708  0.1172  0.8112
  583MOL0     H78641   1.092   5.953   9.563 -0.7406  1.5099  0.2555
  583MOL0     H78642   1.382   5.979   9.664  0.7477  0.8987  3.1860
  583MOL0     H78643   1.246   5.865   9.709 -0.6885 -1.2054 -2.8796
  583MOL0     H78644   1.278   6.041   9.876 -0.9459  1.1812  0.6758
  583MOL0     H78645   1.129   6.071   9.806  0.9988  1.0635  0.0641
  583MOL0     H78646   1.386   6.222   9.796 -0.0187  1.7658 -1.4748
  583MOL0     H78647   1.294   6.237   9.655  0.2235  0.8467  0.1095
  583MOL0     H78648   1.221   6.412   9.804 -0.2949  2.3167  4.3585
  583MOL0     H78649   1.090   6.304   9.781  1.6761 -0.1408 -1.7163
  583MOL0     H78650   1.139   6.200   9.995  0.2957 -0.2329 -2.7194
  583MOL0     H78651   1.291   6.303  10.015  0.0412 -0.1797  0.1596
  583MOL0     H78652   1.010   6.405   9.999 -0.3997 -2.1273  1.1616
  583MOL0     H78653   1.147   6.505  10.046  0.1952  0.0002 -5.1871
  583MOL0     H78654   1.008   6.278  10.186 -0.3058 -0.2873  2.6587
  583MOL0     H78655   1.175   6.339  10.233  2.0425  0.9637 -3.8341
  583MOL0     H78656   1.170   6.562  10.368  0.0105 -2.2099 -0.9384
  583MOL0     H78657   1.010   6.677  10.621  0.1361 -0.0414 -0.3252
  583MOL0     H78658   1.102   6.783  10.521  0.3488 -0.1593 -1.4258
  583MOL0     H78659   0.807   6.807  10.486  0.0786  2.5318 -2.3125
  583MOL0     H78660   0.879   6.887  10.630  1.9479 -2.4488  2.2574
  583MOL0     H78661   0.955   6.923  10.343 -2.4797  1.0477  0.2910
  583MOL0     H78662   1.025   7.017  10.483  1.1104  1.1653 -0.9231
  583MOL0     H78663   0.735   7.014  10.366  1.3443 -3.8428  1.1645
  583MOL0     H78664   0.866   7.133  10.348  0.2150 -0.0014  1.1911
  583MOL0     H78665   0.550   7.003  10.487 -2.0619  0.9285 -0.4012
  583MOL0     H78666   0.345   7.096  10.525  0.6786  2.6204 -4.0712
  583MOL0     H78667   0.057   7.475  10.748  2.6174 -0.6244 -0.9313
  583MOL0     H78668  -0.180   7.479  10.807  0.3793 -0.4474  1.1672
  583MOL0     H78669  -0.566   7.216  10.744  0.7745  1.7823 -1.0510
  583MOL0     H78670  -0.423   7.128  10.679  1.1605  1.9538 -1.2043
  583MOL0     H78671  -0.303   7.177  10.894  0.0982 -0.7232 -2.6859
  583MOL0     H78672  -0.462   7.228  10.959 -0.2785  0.2894 -1.0466
  583MOL0     H78673  -0.556   7.000  10.914  0.8637  0.2537  2.9216
  583MOL0     H78674  -0.390   6.961  10.837 -0.8796  1.9181 -2.6956
  583MOL0     H78675  -0.480   6.979  11.124  0.4569 -0.5512  0.7581
  583MOL0     H78676  -0.316   7.038  11.078  0.8812  1.1206 -5.1497
  583MOL0     H78677  -0.307   6.820  11.159 -0.5467  1.8424  0.5519
  583MOL0     H78678  -0.266   6.819  10.977 -1.2433 -0.1852 -0.8424
  583MOL0     H78679  -0.526   6.745  11.123  0.0901 -2.4876  0.0345
  583MOL0     H78680  -0.519   6.736  10.963  0.5415  5.2101  0.9849
  583MOL0     H78681  -0.478   6.514  11.035  0.6513 -0.7069 -2.9171
  583MOL0     H78682  -0.372   6.565  11.163 -2.0412 -0.7087  0.4126
  583MOL0     H78683  -0.312   6.562  10.856  2.1781 -1.2048 -1.0745
  583MOL0     H78684  -0.189   6.578  10.987 -1.0136  1.6969 -0.6066
  583MOL0     H78685  -0.236   7.118  10.573  2.6428 -1.9677  0.0460
  583MOL0     H78686   0.005   7.101  10.562 -1.9703 -2.1763 -1.5739
  583MOL0     H78687   0.544   7.424  10.766 -0.9506  1.9935 -0.9805
  583MOL0     H78688   0.754   7.332  10.693 -0.0750 -0.7356  0.2249
  583MOL0     H78689   1.038   5.760   9.432 -0.5621 -0.2828 -0.6323
  583MOL0     H78690   1.031   5.533   9.389  0.2367  0.4282  2.1177
  583MOL0     H78691   1.157   5.223   9.169 -4.9212 -0.4346 -0.9814
  583MOL0     H78692   1.123   4.996   9.072  0.7819 -0.4769  0.0860
  583MOL0     H78693   1.280   4.619   9.240 -2.2863 -0.3775  0.3326
  583MOL0     H78694   1.345   4.758   9.143  0.3006  1.1753  2.1168
  583MOL0     H78695   1.270   4.694   8.954 -1.3109 -2.7771 -2.9999
  583MOL0     H78696   1.127   4.602   9.012 -0.9498  0.9757  3.0066
  583MOL0     H78697   1.248   4.436   8.937 -0.8262  0.2556  0.3322
  583MOL0     H78698   1.283   4.439   9.105 -1.6405 -1.1759 -0.5018
  583MOL0     H78699   1.504   4.573   9.032 -2.1089 -0.8254  3.1949
  583MOL0     H78700   1.476   4.401   8.998  0.7814  0.4415  1.0132
  583MOL0     H78701   1.531   4.599   8.614  2.3476  0.8389  1.0049
  583MOL0     H78702   1.210   4.821   9.455 -0.7968 -1.3406 -1.5677
  583MOL0     H78703   1.201   5.062   9.672  0.2172 -3.0896  0.1820
  583MOL0     H78704   1.326   4.969   9.605  0.3497  0.6284 -1.4338
  583MOL0     H78705   1.334   5.142   9.595  1.1933 -0.6422  1.4571
  584MOL0     O78706   0.209   6.941   2.380 -0.0452  0.0968  0.9543
  584MOL0     C78707   0.119   6.862   2.421  0.1396  0.4131  0.2197
  584MOL0     O78708  -0.016   6.882   2.411 -0.2630  0.1616  0.4392
  584MOL0     C78709  -0.054   6.977   2.322 -0.2816 -0.0055  0.3767
  584MOL0     C78710  -0.036   6.962   2.186 -0.8164  0.3306 -0.0429
  584MOL0     C78711  -0.080   7.066   2.102 -0.1797  0.9691 -0.2506
  584MOL0     C78712  -0.148   7.174   2.155 -0.6227  0.7268 -0.6443
  584MOL0     O78713  -0.181   7.281   2.080 -0.6332 -0.9353 -0.7914
  584MOL0     C78714  -0.322   7.290   2.058  0.6261 -1.4811  0.0878
  584MOL0     C78715  -0.330   7.408   1.951  0.3873 -0.3853 -0.4382
  584MOL0     C78716  -0.472   7.462   1.904 -0.3278  0.3860  0.7151
  584MOL0     C78717  -0.464   7.579   1.813 -0.2780  0.0989  0.7289
  584MOL0     C78718  -0.599   7.666   1.819 -0.1566  0.0600 -0.5099
  584MOL0     C78719  -0.729   7.597   1.771  0.7692  0.0303 -0.1509
  584MOL0     C78720  -0.731   7.619   1.611  0.1063 -0.3537 -0.1287
  584MOL0     C78721  -0.814   7.508   1.555  0.1016 -0.4494  0.4201
  584MOL0     N78722  -0.958   7.522   1.595 -1.0951  0.6405  0.1059
  584MOL0     C78723  -1.019   7.466   1.700 -0.8618 -0.0654 -0.6037
  584MOL0     C78724  -1.141   7.529   1.713  0.4907  0.3560  0.3853
  584MOL0     C78725  -1.233   7.523   1.830  0.7545 -0.2588  0.2029
  584MOL0     C78726  -1.317   7.391   1.822  0.2593  0.1700  0.4391
  584MOL0     C78727  -1.440   7.394   1.919  0.1361  0.5285 -0.1877
  584MOL0     C78728  -1.485   7.249   1.945 -0.6809 -0.3394  0.2420
  584MOL0     O78729  -1.581   7.234   2.041  0.6680  0.3967 -0.1414
  584MOL0     C78730  -1.703   7.205   1.996  0.4616  0.5308  0.4834
  584MOL0     C78731  -1.733   7.109   1.894 -0.4661  0.6118  0.1408
  584MOL0     C78732  -1.864   7.085   1.839 -0.2429 -0.4939  0.0137
  584MOL0     C78733  -1.975   7.156   1.895  0.0568 -0.3196 -0.6698
  584MOL0     C78734  -2.106   7.141   1.837 -0.0069  0.1069  0.6694
  584MOL0     O78735  -2.183   7.255   1.824  0.5781 -0.1341  0.6351
  584MOL0     C78736  -2.318   7.242   1.815 -0.0982  0.4093 -0.0728
  584MOL0     C78737  -2.384   7.125   1.867  0.6077 -1.0627  0.0619
  584MOL0     C78738  -2.526   7.131   1.875  0.0621  0.0455 -0.0015
  584MOL0     C78739  -2.595   7.233   1.814  0.1751  0.5454 -0.4977
  584MOL0     O78740  -2.734   7.221   1.828 -0.0908  0.2914 -0.4495
  584MOL0     C78741  -2.814   7.275   1.723 -0.0578 -0.8380 -0.4971
  584MOL0     C78742  -2.942   7.339   1.763  0.7156  0.5505 -0.2508
  584MOL0     C78743  -2.917   7.429   1.887 -0.1568  0.5357 -0.0136
  584MOL0     C78744  -3.051   7.486   1.939 -0.0085 -0.3734  0.6343
  584MOL0     C78745  -3.127   7.585   1.842  1.1192  0.0877  0.2152
  584MOL0     C78746  -3.268   7.640   1.885 -0.0641 -0.1176 -0.4588
  584MOL0     C78747  -3.252   7.743   2.010 -0.6719 -1.4229 -0.1104
  584MOL0     C78748  -3.284   7.679   2.134  0.2309  0.4730 -0.2564
  584MOL0    Cl78749  -3.273   7.798   2.261 -0.0209  0.1032 -0.4387
  584MOL0     C78750  -2.525   7.342   1.763  0.2734 -0.5631  0.9808
  584MOL0     C78751  -2.386   7.344   1.748  0.0148 -0.9441 -0.5402
  584MOL0     O78752  -2.125   7.032   1.778  0.2171 -0.4874  0.4642
  584MOL0     C78753  -1.952   7.248   2.004 -0.5971  0.4354 -1.1866
  584MOL0     C78754  -1.820   7.257   2.054  0.4361  0.3322  0.3258
  584MOL0     N78755  -1.154   7.618   1.607 -0.6579 -0.5072 -0.0075
  584MOL0     N78756  -1.039   7.611   1.532 -0.2047 -0.0494 -0.0654
  584MOL0     C78757  -0.163   7.184   2.294  0.2408 -0.3467  0.7375
  584MOL0     C78758  -0.118   7.081   2.379 -0.1196 -0.6120  0.0111
  584MOL0     C78759   0.166   6.737   2.502  0.6474  0.2880  0.1218
  584MOL0     C78760   0.085   6.694   2.602  0.1455  0.4932  0.2487
  584MOL0     C78761   0.117   6.591   2.688  0.5569  0.2731  0.6594
  584MOL0     C78762   0.235   6.523   2.678  0.9252  0.1142 -0.2856
  584MOL0     O78763   0.285   6.435   2.768  0.6437  0.0741  0.6643
  584MOL0     C78764   0.223   6.389   2.896 -0.8940 -0.2694  0.8041
  584MOL0     C78765   0.158   6.244   2.895 -0.2412 -0.5486 -0.5300
  584MOL0     C78766   0.173   6.172   2.764 -1.2369 -0.3617 -0.5319
  584MOL0     C78767   0.317   6.127   2.732 -0.8377 -0.6556 -1.8273
  584MOL0     C78768   0.303   6.066   2.602 -0.5123 -0.1611 -0.3633
  584MOL0     C78769   0.287   6.014   2.486 -0.1955  0.2475 -1.1620
  584MOL0     C78770   0.325   6.573   2.577  0.9242  0.4221 -0.0622
  584MOL0     C78771   0.300   6.682   2.495  0.3317 -0.1333  0.2730
  584MOL0     C78772   0.389   6.709   2.377  0.2515 -0.1477  0.6214
  584MOL0     H78773   0.016   6.881   2.136  0.7842  0.4211  1.3686
  584MOL0     H78774  -0.064   7.072   1.995  0.6256  0.2299 -0.1847
  584MOL0     H78775  -0.361   7.202   2.006 -3.8215 -0.2228  0.8876
  584MOL0     H78776  -0.372   7.311   2.153 -0.1235 -1.5644 -0.2856
  584MOL0     H78777  -0.262   7.374   1.872  2.9272 -0.9585  1.8482
  584MOL0     H78778  -0.280   7.494   1.996  0.6633 -0.4944 -0.5305
  584MOL0     H78779  -0.528   7.484   1.995  1.7195 -0.5586  2.2823
  584MOL0     H78780  -0.519   7.385   1.843  4.4826 -0.5900 -2.3301
  584MOL0     H78781  -0.371   7.630   1.840 -0.2257 -1.0069  2.8661
  584MOL0     H78782  -0.443   7.546   1.711 -1.6510 -0.7595  0.7090
  584MOL0     H78783  -0.607   7.693   1.925  0.5879 -2.2384  0.2088
  584MOL0     H78784  -0.603   7.752   1.752 -3.4743 -1.1181 -2.0456
  584MOL0     H78785  -0.737   7.493   1.804  1.7249  0.6506  2.3219
  584MOL0     H78786  -0.808   7.652   1.824  0.5497 -0.9803  0.6173
  584MOL0     H78787  -0.637   7.606   1.556 -0.5695  1.9923 -2.0766
  584MOL0     H78788  -0.773   7.719   1.595 -0.4452 -0.5630  0.0138
  584MOL0     H78789  -0.801   7.524   1.448  0.7037  3.3225  0.9109
  584MOL0     H78790  -0.775   7.409   1.583  1.2002  0.5057  2.4688
  584MOL0     H78791  -0.969   7.399   1.770 -0.4772 -0.5883 -1.3605
  584MOL0     H78792  -1.184   7.528   1.928 -2.0527 -3.1281  1.9344
  584MOL0     H78793  -1.303   7.607   1.828  0.6920 -0.2566  1.5662
  584MOL0     H78794  -1.354   7.382   1.719 -0.3700  0.3057  0.6505
  584MOL0     H78795  -1.250   7.305   1.833  2.0682  1.2277 -1.3901
  584MOL0     H78796  -1.518   7.458   1.877  0.4230  0.1522 -1.3244
  584MOL0     H78797  -1.417   7.432   2.019 -2.8091 -1.1775  1.2741
  584MOL0     H78798  -1.394   7.194   1.972 -0.0797  0.1240 -0.7577
  584MOL0     H78799  -1.514   7.195   1.854  0.1682  1.3604 -1.1118
  584MOL0     H78800  -1.660   7.044   1.846 -0.1252  1.9174 -1.2016
  584MOL0     H78801  -1.872   7.027   1.748  3.4232 -1.6516  0.2691
  584MOL0     H78802  -2.327   7.047   1.916  4.2196  0.5753 -1.2116
  584MOL0     H78803  -2.577   7.064   1.945 -2.2156  1.0532 -0.6165
  584MOL0     H78804  -2.758   7.354   1.673  0.9859 -0.9350  0.4626
  584MOL0     H78805  -2.836   7.198   1.649  2.7675 -3.0962  0.7860
  584MOL0     H78806  -2.959   7.391   1.669  0.9235 -1.0661 -1.2067
  584MOL0     H78807  -3.014   7.256   1.770  0.1712  1.0035 -0.3679
  584MOL0     H78808  -2.861   7.375   1.964  0.2018 -0.6334 -1.0706
  584MOL0     H78809  -2.856   7.516   1.860  2.8650 -0.1212  3.7598
  584MOL0     H78810  -3.024   7.552   2.022  1.6932  1.7312 -1.4359
  584MOL0     H78811  -3.113   7.404   1.975 -1.9878 -0.0296 -1.7409
  584MOL0     H78812  -3.143   7.536   1.745 -1.7525  0.1589  0.5652
  584MOL0     H78813  -3.067   7.673   1.820 -3.2855  3.1169 -1.1559
  584MOL0     H78814  -3.319   7.679   1.797 -1.2175 -0.7471 -0.0985
  584MOL0     H78815  -3.336   7.557   1.910 -0.5742  0.0172 -1.3679
  584MOL0     H78816  -3.310   7.834   1.989 -1.6146 -2.0021 -0.1001
  584MOL0     H78817  -3.145   7.763   2.011 -0.6672 -1.4629  0.1252
  584MOL0     H78818  -3.382   7.631   2.132 -0.1644  1.0931  1.7946
  584MOL0     H78819  -3.207   7.603   2.151 -1.0534 -0.3893  2.2780
  584MOL0     H78820  -2.564   7.426   1.707  4.7893  0.0095 -1.7939
  584MOL0     H78821  -2.329   7.434   1.728  0.1104 -0.6375  1.0011
  584MOL0     H78822  -2.031   7.308   2.047  0.8987  0.9559  1.0054
  584MOL0     H78823  -1.821   7.320   2.143 -1.6105  1.6569 -0.5570
  584MOL0     H78824  -0.206   7.280   2.323 -1.1306 -0.6402 -0.2252
  584MOL0     H78825  -0.127   7.098   2.486 -0.8093  1.6426 -0.3367
  584MOL0     H78826  -0.018   6.727   2.596 -1.1471 -3.2167  0.0951
  584MOL0     H78827   0.038   6.549   2.749  0.6522  0.9867  1.2964
  584MOL0     H78828   0.152   6.463   2.934  2.0388  2.4265  1.4756
  584MOL0     H78829   0.302   6.373   2.970 -0.6181 -0.3697  0.4892
  584MOL0     H78830   0.052   6.252   2.923 -0.2023 -0.6016 -0.3648
  584MOL0     H78831   0.212   6.185   2.969 -2.5686  1.2691  2.9414
  584MOL0     H78832   0.130   6.241   2.691  0.0713  1.3200  0.2375
  584MOL0     H78833   0.109   6.083   2.772  0.4785 -1.6342 -0.2978
  584MOL0     H78834   0.387   6.211   2.721  0.6934 -1.2698  1.6978
  584MOL0     H78835   0.355   6.061   2.811 -0.3943  3.2910  1.6716
  584MOL0     H78836   0.263   5.949   2.405  0.6418 -2.5799  0.7132
  584MOL0     H78837   0.427   6.535   2.573  1.4814  1.5630  2.0199
  584MOL0     H78838   0.331   6.694   2.286 -0.8099  0.0324  1.2594
  584MOL0     H78839   0.437   6.808   2.378  2.0078 -0.9422 -0.4249
  584MOL0     H78840   0.482   6.651   2.377  0.2875 -0.1473 -1.0080
  585MOL0     O78841   5.239   6.575   9.121 -0.4103  0.3253 -0.0497
  585MOL0     C78842   5.200   6.637   9.024 -0.5628  0.2140  0.1416
  585MOL0     O78843   5.121   6.753   9.023 -0.6737 -0.4561 -0.9621
  585MOL0     C78844   5.017   6.782   9.114  0.0164  0.1215  0.6926
  585MOL0     C78845   4.966   6.918   9.141  0.5403 -0.7376 -0.6060
  585MOL0     C78846   4.854   6.951   9.226 -0.0930 -0.4510 -0.0720
  585MOL0     C78847   4.786   6.845   9.284 -0.2756  1.0147  0.7413
  585MOL0     O78848   4.688   6.880   9.366 -0.0163 -0.9453  0.8731
  585MOL0     C78849   4.675   6.805   9.479 -0.8501 -0.1570 -0.0290
  585MOL0     C78850   4.570   6.851   9.591  0.3408  0.1101  0.2527
  585MOL0     C78851   4.508   6.732   9.670  0.2312  0.2764  0.5881
  585MOL0     C78852   4.440   6.790   9.785 -0.0725 -0.2553  0.8319
  585MOL0     C78853   4.394   6.676   9.892  0.1884  0.4875 -0.6356
  585MOL0     C78854   4.497   6.615   9.996  0.6676  0.5481 -0.6697
  585MOL0     C78855   4.525   6.727  10.097  0.3360 -0.2911 -0.2725
  585MOL0     C78856   4.651   6.705  10.167 -0.3217 -0.2093 -0.5522
  585MOL0     N78857   4.657   6.580  10.242  0.4288  0.6737 -0.0599
  585MOL0     C78858   4.574   6.551  10.351 -0.3865 -0.3583  0.0390
  585MOL0     C78859   4.596   6.421  10.390  0.3635  0.0015  0.1085
  585MOL0     C78860   4.543   6.339  10.508  0.4251 -0.3320  0.2092
  585MOL0     C78861   4.435   6.242  10.464 -0.2924 -0.4274 -0.5128
  585MOL0     C78862   4.292   6.280  10.492 -0.2016 -0.6612  0.2690
  585MOL0     C78863   4.248   6.316  10.633  0.4339  0.7878  0.2614
  585MOL0     O78864   4.314   6.236  10.738 -0.3291  0.0054 -0.3076
  585MOL0     C78865   4.249   6.119  10.779 -0.6765  0.3204  0.1132
  585MOL0     C78866   4.158   6.050  10.697  1.0038 -1.1294  0.2182
  585MOL0     C78867   4.094   5.940  10.750  0.1588 -0.8879  0.3033
  585MOL0     C78868   4.119   5.886  10.877 -0.5622  0.1058 -0.2019
  585MOL0     C78869   4.049   5.761  10.921 -0.6154 -1.1190  0.2589
  585MOL0     O78870   4.075   5.719  11.038  0.0649  0.3627 -0.5599
  585MOL0     C78871   4.019   5.617  11.104  0.6493 -0.2230  0.3033
  585MOL0     C78872   3.996   5.490  11.044  0.7658 -0.5446 -0.8091
  585MOL0     C78873   3.927   5.389  11.123  0.2329  0.0721  0.9975
  585MOL0     C78874   3.855   5.421  11.232  0.1866 -0.2430  0.0291
  585MOL0     O78875   3.781   5.328  11.293  0.2669 -0.0969  0.6820
  585MOL0     C78876   3.820   5.193  11.299  0.4355  0.0022  1.1278
  585MOL0     C78877   3.780   5.117  11.434 -0.3261  0.3275 -1.0879
  585MOL0     C78878   3.798   4.968  11.433 -0.3978 -0.4949  0.3750
  585MOL0     C78879   3.709   4.904  11.539 -1.0025 -0.6208 -0.8262
  585MOL0     C78880   3.747   4.757  11.565  0.2499  0.1629 -0.5341
  585MOL0     C78881   3.859   4.748  11.661  0.0173 -0.7288  0.8066
  585MOL0     C78882   3.896   4.603  11.696 -0.0187  0.4763 -0.2844
  585MOL0     C78883   3.780   4.540  11.780 -1.2028 -0.5623  0.9804
  585MOL0    Cl78884   3.824   4.491  11.950 -0.3178  0.1829 -0.2362
  585MOL0     C78885   3.866   5.552  11.281 -0.3539 -0.8855  0.3584
  585MOL0     C78886   3.956   5.649  11.224 -0.0514  0.1544 -0.5788
  585MOL0     O78887   3.968   5.710  10.847  0.0444 -0.3422  0.2243
  585MOL0     C78888   4.216   5.952  10.954  0.5607  0.4642  0.2455
  585MOL0     C78889   4.281   6.067  10.909  1.3364 -0.2543  0.1738
  585MOL0     N78890   4.686   6.371  10.301  0.2013 -0.5558  0.5109
  585MOL0     N78891   4.716   6.463  10.211  0.2876  0.3536 -0.3874
  585MOL0     C78892   4.829   6.708   9.265 -0.8886  0.1119  0.4526
  585MOL0     C78893   4.941   6.681   9.185 -0.0577  1.0102 -0.3460
  585MOL0     C78894   5.263   6.608   8.892  0.0132 -0.7980  0.5929
  585MOL0     C78895   5.375   6.677   8.849 -0.4564  0.8305 -0.0470
  585MOL0     C78896   5.448   6.641   8.732  0.3356 -0.7896  0.0426
  585MOL0     C78897   5.427   6.525   8.670  0.0711  0.1600  1.2158
  585MOL0     O78898   5.533   6.479   8.593  0.3608 -0.2260  0.1421
  585MOL0     C78899   5.528   6.350   8.533 -0.5262  0.1993 -0.2290
  585MOL0     C78900   5.542   6.241   8.638  0.6989 -0.0778  0.2966
  585MOL0     C78901   5.660   6.244   8.729 -0.1798 -0.5484  0.1741
  585MOL0     C78902   5.671   6.143   8.848  0.0399 -0.3492 -0.2329
  585MOL0     C78903   5.809   6.125   8.882  0.8148  0.4312 -0.2192
  585MOL0     C78904   5.920   6.102   8.908  0.5538  0.7154 -0.7099
  585MOL0     C78905   5.326   6.449   8.718  0.2429 -0.6074 -0.3735
  585MOL0     C78906   5.242   6.485   8.827  0.5102  0.2353 -0.4984
  585MOL0     C78907   5.138   6.385   8.862 -0.7857  0.0162 -0.2120
  585MOL0     H78908   5.014   6.999   9.087 -0.6063  0.4531  0.1296
  585MOL0     H78909   4.831   7.054   9.250 -0.1916 -0.9298  2.0569
  585MOL0     H78910   4.640   6.706   9.447  0.6736 -1.7748  2.8728
  585MOL0     H78911   4.771   6.789   9.530 -0.7410 -1.9242 -0.6975
  585MOL0     H78912   4.490   6.910   9.547  0.3475 -0.5082 -0.6105
  585MOL0     H78913   4.614   6.922   9.662  0.4850  0.7905 -0.5151
  585MOL0     H78914   4.573   6.650   9.701  0.6685 -0.3485 -1.7782
  585MOL0     H78915   4.433   6.692   9.602 -2.9637  1.4864  3.1708
  585MOL0     H78916   4.502   6.866   9.835  2.8354 -1.2549 -0.9935
  585MOL0     H78917   4.353   6.841   9.742  2.1335  1.3432 -2.1097
  585MOL0     H78918   4.308   6.714   9.948 -1.1986  0.9302 -2.9101
  585MOL0     H78919   4.347   6.591   9.842  1.6744 -0.5350 -0.3636
  585MOL0     H78920   4.466   6.524  10.048  1.5897  1.4112  1.5483
  585MOL0     H78921   4.588   6.596   9.938  1.5753  0.1359  0.8346
  585MOL0     H78922   4.445   6.732  10.171  0.5965  3.0122 -0.0631
  585MOL0     H78923   4.519   6.823  10.044 -4.0991  0.3681  1.0420
  585MOL0     H78924   4.735   6.719  10.098  1.2832  1.7054  1.6381
  585MOL0     H78925   4.667   6.784  10.241 -0.3339  0.7893 -1.6004
  585MOL0     H78926   4.505   6.628  10.384 -0.1082  0.7583 -1.8120
  585MOL0     H78927   4.629   6.286  10.550  1.3871 -0.9597 -2.3905
  585MOL0     H78928   4.504   6.410  10.582 -2.2146 -0.3783 -1.0393
  585MOL0     H78929   4.445   6.225  10.356 -0.0251 -0.1669 -0.5285
  585MOL0     H78930   4.448   6.147  10.518  0.3106 -0.6166 -0.9761
  585MOL0     H78931   4.238   6.192  10.456  0.8960 -1.1289 -0.2559
  585MOL0     H78932   4.257   6.359  10.424  2.8045  1.6091  1.1551
  585MOL0     H78933   4.143   6.287  10.638  0.4884  0.7204  1.1550
  585MOL0     H78934   4.267   6.424  10.641 -0.7842  0.9752  0.9038
  585MOL0     H78935   4.130   6.070  10.594  4.3280  0.0395 -0.5974
  585MOL0     H78936   4.023   5.898  10.679  2.3694  0.6969 -3.1518
  585MOL0     H78937   4.046   5.465  10.951 -1.2798  2.1458 -2.8079
  585MOL0     H78938   3.916   5.287  11.087 -1.3683  1.1974 -2.0737
  585MOL0     H78939   3.788   5.134  11.212  2.2321  1.7391 -0.8135
  585MOL0     H78940   3.927   5.174  11.293  0.0272 -3.6272  2.6715
  585MOL0     H78941   3.836   5.162  11.517 -0.1334  1.9584 -2.0535
  585MOL0     H78942   3.677   5.142  11.458 -0.2275 -0.0648 -0.2267
  585MOL0     H78943   3.779   4.931  11.332  2.1149  0.6254 -0.6163
  585MOL0     H78944   3.903   4.953  11.460 -0.4508 -1.4680  0.0557
  585MOL0     H78945   3.609   4.910  11.497 -0.4107 -0.1136 -2.2512
  585MOL0     H78946   3.710   4.968  11.627  1.8647  1.3989 -2.1533
  585MOL0     H78947   3.753   4.702  11.470  0.9532  0.9487 -0.9575
  585MOL0     H78948   3.661   4.723  11.623  1.9672  0.2877  2.2838
  585MOL0     H78949   3.951   4.793  11.621 -0.6911 -0.2334 -0.3302
  585MOL0     H78950   3.831   4.817  11.741 -0.3433  0.6113 -0.4269
  585MOL0     H78951   3.991   4.588  11.749  0.1199  3.4033  0.4745
  585MOL0     H78952   3.912   4.559  11.597  1.7545 -0.7135  0.4871
  585MOL0     H78953   3.696   4.609  11.791 -0.3803  0.9401 -1.4453
  585MOL0     H78954   3.762   4.443  11.733  2.0856 -0.2739 -1.2312
  585MOL0     H78955   3.804   5.563  11.370  0.6761 -1.7881  1.2084
  585MOL0     H78956   3.961   5.741  11.282 -0.0532 -0.5332  0.5395
  585MOL0     H78957   4.237   5.901  11.048 -2.5331  0.5875  1.0954
  585MOL0     H78958   4.342   6.120  10.981  1.9517 -2.5865  1.4628
  585MOL0     H78959   4.786   6.618   9.309  0.8767  0.0813  2.2467
  585MOL0     H78960   4.957   6.574   9.175  0.3080  1.1376 -1.3049
  585MOL0     H78961   5.400   6.759   8.916 -3.5816  1.3909  0.5799
  585MOL0     H78962   5.528   6.705   8.696 -0.7017  0.1649 -0.6360
  585MOL0     H78963   5.602   6.331   8.455 -0.1678 -3.4542  0.8097
  585MOL0     H78964   5.437   6.340   8.472 -1.7947 -0.1136  1.6295
  585MOL0     H78965   5.534   6.155   8.571  1.0652  1.0934 -1.2953
  585MOL0     H78966   5.450   6.228   8.697  1.6793 -1.0364  1.6624
  585MOL0     H78967   5.691   6.338   8.774  0.6012 -1.0807  0.7929
  585MOL0     H78968   5.742   6.211   8.664 -0.4698 -1.1132  0.0884
  585MOL0     H78969   5.613   6.176   8.935 -0.3631  0.8692 -0.9432
  585MOL0     H78970   5.640   6.041   8.824 -0.8465 -0.6356  1.9064
  585MOL0     H78971   6.013   6.060   8.941  1.3211  2.1730 -0.9167
  585MOL0     H78972   5.299   6.364   8.655  1.4107  0.5058 -2.4913
  585MOL0     H78973   5.038   6.429   8.871 -0.2087  1.1548  0.8141
  585MOL0     H78974   5.121   6.318   8.777 -0.7024 -0.7809  0.3894
  585MOL0     H78975   5.162   6.318   8.945 -0.6282 -1.3880 -1.3363
  586MOL0     O78976   6.152   5.639   1.890  0.8753  0.6284 -0.2914
  586MOL0     C78977   6.129   5.516   1.891  0.0320 -0.4948 -0.5241
  586MOL0     O78978   6.210   5.424   1.844  0.5680 -0.3895 -0.3448
  586MOL0     C78979   6.321   5.468   1.778  0.5884  0.0675 -0.2744
  586MOL0     C78980   6.304   5.518   1.652  0.0715  0.1302  0.2214
  586MOL0     C78981   6.417   5.538   1.568 -0.5349  0.9689 -0.0645
  586MOL0     C78982   6.546   5.522   1.621 -0.0280  0.5282 -0.7078
  586MOL0     O78983   6.641   5.535   1.529  0.5098  0.1878  0.4841
  586MOL0     C78984   6.684   5.406   1.482 -0.1414  0.2684 -0.2720
  586MOL0     C78985   6.834   5.390   1.446 -0.3664  0.5336  0.5185
  586MOL0     C78986   6.883   5.502   1.345  0.1587  1.0706  1.1059
  586MOL0     C78987   6.988   5.457   1.241  1.0346  0.2840 -1.2889
  586MOL0     C78988   7.039   5.568   1.145 -0.2661  0.2324 -0.7083
  586MOL0     C78989   7.147   5.657   1.216 -0.1844 -0.3896 -0.5059
  586MOL0     C78990   7.214   5.756   1.115 -0.6140 -0.3728 -0.4854
  586MOL0     C78991   7.287   5.871   1.176  0.1188 -1.2564  0.8409
  586MOL0     N78992   7.342   5.957   1.062 -0.4393  0.4757 -0.1220
  586MOL0     C78993   7.477   5.955   1.033  0.6259 -0.0533  0.4374
  586MOL0     C78994   7.487   6.039   0.933 -0.3478 -0.9594  0.3188
  586MOL0     C78995   7.618   6.071   0.861 -0.3069 -0.2911 -0.5564
  586MOL0     C78996   7.672   6.212   0.886 -0.3422  0.6238 -0.0325
  586MOL0     C78997   7.757   6.257   0.767 -0.6643  0.8864 -0.0067
  586MOL0     C78998   7.890   6.194   0.765 -0.1580  0.4895  0.1783
  586MOL0     O78999   7.966   6.264   0.668 -0.1524 -0.5524 -0.2226
  586MOL0     C79000   8.108   6.263   0.679  0.3395  0.5586 -2.0903
  586MOL0     C79001   8.178   6.154   0.733  0.0099  0.3885 -0.7353
  586MOL0     C79002   8.322   6.152   0.728 -0.1960  0.5089  0.2931
  586MOL0     C79003   8.393   6.254   0.669 -0.1093  0.1621  0.3760
  586MOL0     C79004   8.541   6.257   0.675 -1.1436 -0.0675  0.3781
  586MOL0     O79005   8.607   6.151   0.737 -0.2605  0.5363 -0.0813
  586MOL0     C79006   8.741   6.178   0.763 -0.0139 -0.6705  0.1625
  586MOL0     C79007   8.774   6.217   0.891 -0.3038 -0.1988  0.3406
  586MOL0     C79008   8.906   6.231   0.931  1.0335  0.1955  0.7126
  586MOL0     C79009   9.011   6.203   0.841 -0.2625 -0.2177  0.2514
  586MOL0     O79010   9.135   6.244   0.886  0.4159  0.0828  0.2138
  586MOL0     C79011   9.251   6.180   0.826  0.6102 -0.0631  0.0056
  586MOL0     C79012   9.373   6.255   0.855  0.3694  0.4605 -0.6182
  586MOL0     C79013   9.397   6.272   1.009  0.7265  0.5205 -0.9009
  586MOL0     C79014   9.495   6.379   1.051 -1.2670 -1.5412 -0.7958
  586MOL0     C79015   9.518   6.372   1.200 -0.2780  0.8902 -0.0054
  586MOL0     C79016   9.632   6.467   1.240  0.0238 -0.5697  0.1173
  586MOL0     C79017   9.767   6.402   1.200  0.4357 -0.1981 -1.1096
  586MOL0     C79018   9.880   6.481   1.268 -0.2282  0.8485  1.2991
  586MOL0    Cl79019   9.904   6.620   1.152 -0.0286 -0.0916  0.5003
  586MOL0     C79020   8.975   6.166   0.707  0.8164 -0.0774  0.4186
  586MOL0     C79021   8.838   6.163   0.666 -0.3525  0.3583  0.6930
  586MOL0     O79022   8.594   6.352   0.627  0.1181  0.2690  0.8769
  586MOL0     C79023   8.319   6.368   0.613 -0.0156 -0.4244  0.1506
  586MOL0     C79024   8.181   6.365   0.614 -0.0470 -0.7321 -0.0590
  586MOL0     N79025   7.362   6.095   0.908 -0.4301  0.0979  0.1834
  586MOL0     N79026   7.275   6.045   0.989  0.6582 -0.0503 -0.6495
  586MOL0     C79027   6.562   5.489   1.757  0.2507  0.0628 -0.3493
  586MOL0     C79028   6.452   5.454   1.836  0.3935  0.0411 -0.5938
  586MOL0     C79029   5.997   5.462   1.930 -0.0037 -0.3087 -1.0956
  586MOL0     C79030   5.899   5.563   1.916  0.2240 -0.4221 -0.1942
  586MOL0     C79031   5.764   5.532   1.951 -0.3434 -0.0045  0.2502
  586MOL0     C79032   5.715   5.407   1.979  0.1075  0.4797  0.2507
  586MOL0     O79033   5.574   5.408   1.988 -0.0779  0.5763 -0.0342
  586MOL0     C79034   5.507   5.293   2.042 -0.0185  0.1307  0.3179
  586MOL0     C79035   5.360   5.282   1.985 -0.8503  0.7063  0.0585
  586MOL0     C79036   5.307   5.144   2.024  0.1265 -0.1005 -0.4644
  586MOL0     C79037   5.165   5.103   1.975 -0.8141  0.1346  0.0682
  586MOL0     C79038   5.064   5.205   1.980  0.6594 -1.0591 -0.9730
  586MOL0     C79039   4.982   5.303   2.002 -0.2058  0.4899 -1.0845
  586MOL0     C79040   5.816   5.307   1.985  0.0368  0.2850 -0.0793
  586MOL0     C79041   5.952   5.328   1.961 -0.3491 -0.2193 -0.5052
  586MOL0     C79042   6.046   5.204   1.968  0.0017 -0.0746  0.5075
  586MOL0     H79043   6.205   5.537   1.610  0.4040 -0.6275 -0.9623
  586MOL0     H79044   6.398   5.562   1.464  0.1723  1.6650 -0.0461
  586MOL0     H79045   6.660   5.323   1.549 -0.0936 -0.7076 -1.4239
  586MOL0     H79046   6.617   5.395   1.396  0.1971  0.9255 -0.6312
  586MOL0     H79047   6.844   5.289   1.405  2.3807 -0.3668  3.0840
  586MOL0     H79048   6.906   5.388   1.527  2.3813  2.1900 -1.7002
  586MOL0     H79049   6.929   5.582   1.404 -0.0905  2.8530 -0.9688
  586MOL0     H79050   6.798   5.543   1.290 -0.2599  1.0852  1.7626
  586MOL0     H79051   7.077   5.417   1.292 -0.6825 -2.8622 -0.5314
  586MOL0     H79052   6.940   5.380   1.181  1.2632 -0.8872 -0.0269
  586MOL0     H79053   7.099   5.521   1.066  1.0733  0.8348 -0.0839
  586MOL0     H79054   6.965   5.634   1.099 -2.7400 -0.5139  1.9675
  586MOL0     H79055   7.103   5.714   1.299  0.4507 -0.5918 -0.0209
  586MOL0     H79056   7.219   5.591   1.266 -1.0509 -0.4187  0.7465
  586MOL0     H79057   7.138   5.793   1.046  1.1827 -1.4627 -3.2134
  586MOL0     H79058   7.280   5.698   1.050  0.2242  1.2107 -1.1169
  586MOL0     H79059   7.216   5.934   1.230 -0.1060 -1.7251  1.0972
  586MOL0     H79060   7.366   5.847   1.248  2.0390  0.9470 -0.3844
  586MOL0     H79061   7.549   5.886   1.078 -2.4243 -3.9481 -0.0952
  586MOL0     H79062   7.691   6.001   0.904 -0.0683  0.2251 -0.1095
  586MOL0     H79063   7.589   6.068   0.756  0.8098 -1.2527 -0.8557
  586MOL0     H79064   7.582   6.273   0.898 -0.1172  1.1156 -0.7754
  586MOL0     H79065   7.731   6.222   0.978 -1.4167  3.6558  0.4317
  586MOL0     H79066   7.775   6.364   0.774  1.1584  0.8614 -2.6351
  586MOL0     H79067   7.711   6.251   0.668  1.8385  2.3223 -1.3414
  586MOL0     H79068   7.886   6.087   0.742 -0.0538 -0.0482  2.3532
  586MOL0     H79069   7.945   6.200   0.860  1.0345  2.4631 -0.5733
  586MOL0     H79070   8.116   6.072   0.768  2.0092  0.7757  4.7480
  586MOL0     H79071   8.382   6.067   0.758  1.6449  0.6941 -2.4584
  586MOL0     H79072   8.694   6.241   0.960 -2.0695  1.2267 -2.0339
  586MOL0     H79073   8.922   6.265   1.033 -0.5715  0.2200  0.9933
  586MOL0     H79074   9.258   6.080   0.871  0.3390  0.1306  0.4889
  586MOL0     H79075   9.243   6.176   0.717 -3.8182  1.8711  0.0425
  586MOL0     H79076   9.449   6.199   0.800  2.2027  1.2435  1.0447
  586MOL0     H79077   9.372   6.349   0.799  1.2048  0.0121 -1.4128
  586MOL0     H79078   9.305   6.287   1.066  1.7586 -0.5874  1.1494
  586MOL0     H79079   9.432   6.173   1.042 -1.4396 -0.9232 -2.6743
  586MOL0     H79080   9.440   6.473   1.038  3.0934  1.5170  0.5062
  586MOL0     H79081   9.593   6.391   1.003 -1.0502  2.4699  0.2658
  586MOL0     H79082   9.537   6.270   1.237 -0.0341  0.5136 -1.1318
  586MOL0     H79083   9.433   6.403   1.262 -0.9118 -1.5871  0.4780
  586MOL0     H79084   9.614   6.559   1.184 -0.9414  1.2454  3.1940
  586MOL0     H79085   9.628   6.488   1.347  1.1425  0.4062 -0.0124
  586MOL0     H79086   9.783   6.414   1.092  4.5906  1.3256 -0.5016
  586MOL0     H79087   9.770   6.298   1.232  2.5042 -0.2546 -1.3929
  586MOL0     H79088   9.851   6.504   1.372 -1.6392  0.6610  0.9665
  586MOL0     H79089   9.975   6.426   1.270  1.8677  3.6940 -3.2667
  586MOL0     H79090   9.053   6.149   0.634  1.7984 -1.9051  1.8031
  586MOL0     H79091   8.820   6.154   0.560 -2.2804  1.4636  0.8648
  586MOL0     H79092   8.369   6.445   0.555  0.0641 -0.7630 -0.2340
  586MOL0     H79093   8.123   6.448   0.574  4.6353  1.5520 -3.0318
  586MOL0     H79094   6.664   5.473   1.792 -0.0411  0.2173  0.5792
  586MOL0     H79095   6.468   5.419   1.938 -1.7457 -0.6797 -0.4426
  586MOL0     H79096   5.916   5.667   1.891  4.7841 -0.5903  1.3459
  586MOL0     H79097   5.698   5.618   1.942  0.7901  0.6871 -2.3912
  586MOL0     H79098   5.496   5.305   2.150 -0.5655  2.1387  0.0724
  586MOL0     H79099   5.556   5.199   2.012 -0.4850  0.4670 -1.6082
  586MOL0     H79100   5.362   5.306   1.878  0.3552  0.4883  0.0165
  586MOL0     H79101   5.311   5.366   2.034  1.3017  2.5696 -0.7705
  586MOL0     H79102   5.306   5.147   2.133 -0.5367  0.2952 -0.4802
  586MOL0     H79103   5.371   5.061   1.992  1.2525 -0.8265  3.2330
  586MOL0     H79104   5.168   5.063   1.873 -0.7274  0.7119 -0.1573
  586MOL0     H79105   5.133   5.020   2.038 -0.0590  0.4646  0.9078
  586MOL0     H79106   4.921   5.382   2.041  2.6507  3.3430 -1.9993
  586MOL0     H79107   5.799   5.203   2.008  1.5713 -0.8569 -3.4898
  586MOL0     H79108   6.148   5.227   2.003  0.4768 -2.7944  1.1706
  586MOL0     H79109   6.000   5.126   2.030  1.2037 -1.4345 -0.2610
  586MOL0     H79110   6.062   5.168   1.866 -0.6679 -0.2151  0.4530
  587MOL0     O79111   5.561   3.907   2.464  0.3142 -0.3125 -0.5351
  587MOL0     C79112   5.606   4.023   2.451 -0.1522  0.3149  0.6349
  587MOL0     O79113   5.702   4.056   2.353 -0.1449 -0.0682 -0.8226
  587MOL0     C79114   5.735   3.965   2.259 -0.0657  0.2550  0.1162
  587MOL0     C79115   5.639   3.927   2.170 -0.1979  0.6816  0.2162
  587MOL0     C79116   5.656   3.825   2.080  0.6543 -0.0045  0.0036
  587MOL0     C79117   5.775   3.754   2.082  0.2085  0.3040  0.2396
  587MOL0     O79118   5.804   3.663   1.983 -0.2579 -0.2784  0.2769
  587MOL0     C79119   5.871   3.534   2.012 -0.8398  0.7887  0.2253
  587MOL0     C79120   5.772   3.448   2.099  0.0980 -0.2716 -0.1934
  587MOL0     C79121   5.824   3.308   2.124 -0.0962  0.0257  0.8201
  587MOL0     C79122   5.723   3.229   2.203 -0.4089 -0.5994 -0.3748
  587MOL0     C79123   5.796   3.181   2.325  0.9176 -0.2081 -0.0910
  587MOL0     C79124   5.702   3.116   2.421  0.3267  0.2747 -0.5622
  587MOL0     C79125   5.744   3.095   2.564  0.3994  1.0071  0.2677
  587MOL0     C79126   5.713   3.222   2.646 -0.7489  0.2311  0.6130
  587MOL0     N79127   5.752   3.213   2.792  0.9373  0.3984 -0.7689
  587MOL0     C79128   5.873   3.234   2.844 -1.2977  0.4969 -0.3253
  587MOL0     C79129   5.880   3.168   2.958  0.1639 -0.8744 -1.4996
  587MOL0     C79130   5.996   3.129   3.037  0.0631 -0.2763  0.2082
  587MOL0     C79131   5.989   3.189   3.177  0.0919  0.5361 -0.1258
  587MOL0     C79132   6.010   3.335   3.193  0.8021 -0.5270  0.6192
  587MOL0     C79133   6.043   3.378   3.329 -1.2205  0.2359  0.0215
  587MOL0     O79134   5.940   3.362   3.432  0.2529  0.3341  0.3632
  587MOL0     C79135   5.960   3.427   3.554  0.9017 -0.4491 -0.1357
  587MOL0     C79136   6.083   3.457   3.615 -0.8915 -0.7206  1.2766
  587MOL0     C79137   6.092   3.504   3.745  0.0697 -0.2632  0.0915
  587MOL0     C79138   5.973   3.521   3.817  0.0882  0.8237  0.6709
  587MOL0     C79139   5.969   3.574   3.956 -0.1633 -0.7305  0.3945
  587MOL0     O79140   6.088   3.611   4.015 -0.7212  0.1655  0.6493
  587MOL0     C79141   6.094   3.670   4.145  0.4190  0.4353  0.3319
  587MOL0     C79142   6.035   3.798   4.148 -0.9407 -0.0539  0.5555
  587MOL0     C79143   6.034   3.853   4.276  0.1976 -0.1887  0.0981
  587MOL0     C79144   6.094   3.788   4.388 -0.0688  0.3833 -0.2370
  587MOL0     O79145   6.095   3.856   4.510 -0.2415 -0.4007 -0.2733
  587MOL0     C79146   6.215   3.845   4.589  0.8818 -1.0493 -0.1304
  587MOL0     C79147   6.249   3.967   4.674  0.0919 -0.2025  0.1887
  587MOL0     C79148   6.384   3.957   4.739 -0.5493 -0.0170  0.3405
  587MOL0     C79149   6.414   3.816   4.795 -0.7855 -0.1373 -0.1057
  587MOL0     C79150   6.539   3.811   4.878 -0.6716  0.5507 -0.5647
  587MOL0     C79151   6.662   3.866   4.806  0.8394  0.5487 -0.0763
  587MOL0     C79152   6.782   3.829   4.881  0.0886 -0.2984 -0.1617
  587MOL0     C79153   6.906   3.909   4.832 -1.4175 -0.0683 -1.2631
  587MOL0    Cl79154   7.034   3.907   4.964  0.0291  0.5246 -0.1850
  587MOL0     C79155   6.153   3.667   4.376  1.0127  0.7349  0.5834
  587MOL0     C79156   6.142   3.595   4.253  0.4524  0.1741 -0.2759
  587MOL0     O79157   5.858   3.573   4.007  0.0499  0.1440  1.0097
  587MOL0     C79158   5.851   3.481   3.761 -0.3220  0.2866 -0.0496
  587MOL0     C79159   5.842   3.435   3.623 -0.1375  0.3504 -0.4039
  587MOL0     N79160   5.753   3.109   2.979  0.0697 -0.0834  0.7753
  587MOL0     N79161   5.680   3.135   2.875 -0.1516  0.5433  0.6835
  587MOL0     C79162   5.867   3.778   2.185 -0.0820  0.3171 -0.2297
  587MOL0     C79163   5.849   3.885   2.269 -0.7290 -0.0069  0.1955
  587MOL0     C79164   5.548   4.126   2.537  0.3974 -0.9050 -0.3507
  587MOL0     C79165   5.516   4.247   2.481  0.3600 -0.1135 -0.1350
  587MOL0     C79166   5.476   4.354   2.552  0.2137 -0.3987  0.5210
  587MOL0     C79167   5.468   4.343   2.695  0.7165  0.4554  0.0033
  587MOL0     O79168   5.444   4.449   2.772 -0.4174  0.0819  0.5801
  587MOL0     C79169   5.429   4.576   2.723  0.2979  1.2184 -0.9130
  587MOL0     C79170   5.370   4.665   2.835  0.2214 -0.5293 -0.7907
  587MOL0     C79171   5.465   4.668   2.956 -0.5133  0.5030 -0.8556
  587MOL0     C79172   5.446   4.778   3.058  0.3104 -0.4793  0.0811
  587MOL0     C79173   5.544   4.755   3.161 -0.4801 -0.0853  0.3623
  587MOL0     C79174   5.632   4.730   3.243  0.1821  0.3444  0.3786
  587MOL0     C79175   5.499   4.223   2.764 -0.8310  0.2654  0.7497
  587MOL0     C79176   5.541   4.112   2.678 -0.6852 -0.4078  0.0225
  587MOL0     C79177   5.594   3.986   2.747  0.0335  0.7014 -0.3508
  587MOL0     H79178   5.544   3.977   2.179 -0.6642 -0.0680 -0.4414
  587MOL0     H79179   5.572   3.784   2.025  0.0809 -0.9084  1.4817
  587MOL0     H79180   5.885   3.491   1.912 -1.3896  2.7393 -0.7460
  587MOL0     H79181   5.969   3.545   2.060 -0.9421  2.2754  0.1587
  587MOL0     H79182   5.673   3.449   2.052 -1.2732 -1.0634  2.4888
  587MOL0     H79183   5.771   3.493   2.199  2.8310  0.6075 -0.4836
  587MOL0     H79184   5.915   3.321   2.184 -1.1567  1.7840  2.1387
  587MOL0     H79185   5.843   3.263   2.026  0.2626  2.1463 -0.1351
  587MOL0     H79186   5.638   3.291   2.233 -2.3526 -3.5102  0.6074
  587MOL0     H79187   5.684   3.139   2.156  0.7953 -2.2423  1.5776
  587MOL0     H79188   5.877   3.111   2.303  0.3167 -0.5565 -1.2977
  587MOL0     H79189   5.832   3.267   2.382 -2.3825 -0.1703  2.2324
  587MOL0     H79190   5.608   3.173   2.426  0.3376  0.1965  0.6445
  587MOL0     H79191   5.672   3.021   2.376  2.5149 -0.5164 -0.4434
  587MOL0     H79192   5.850   3.072   2.575  0.9258  2.7534 -0.6641
  587MOL0     H79193   5.684   3.016   2.609 -2.2535  2.9486  0.4303
  587MOL0     H79194   5.738   3.319   2.604 -2.8810  0.2974 -0.6667
  587MOL0     H79195   5.604   3.238   2.645 -0.8589 -0.3420 -1.9342
  587MOL0     H79196   5.960   3.282   2.800  0.9724 -1.6229  1.5215
  587MOL0     H79197   5.988   3.021   3.054 -1.5713  0.1069  2.4232
  587MOL0     H79198   6.083   3.165   2.981 -0.0957 -0.6289 -0.2662
  587MOL0     H79199   5.893   3.170   3.227  0.0914 -1.8349 -0.8702
  587MOL0     H79200   6.068   3.131   3.225  0.5329 -2.2789 -3.7860
  587MOL0     H79201   5.921   3.392   3.164  1.5692  0.9795  1.0899
  587MOL0     H79202   6.093   3.354   3.124  2.0795  0.7563  2.3950
  587MOL0     H79203   6.069   3.484   3.321 -0.9097  0.2980  1.4510
  587MOL0     H79204   6.125   3.309   3.350 -1.8802 -1.4009 -2.3783
  587MOL0     H79205   6.183   3.442   3.575  0.2820 -0.3242  3.8833
  587MOL0     H79206   6.184   3.537   3.793 -1.0015  0.4193  1.7515
  587MOL0     H79207   5.990   3.855   4.067  1.6613  1.7061  0.2641
  587MOL0     H79208   5.994   3.953   4.281  2.9644  1.0070  0.2285
  587MOL0     H79209   6.208   3.754   4.651  0.1295  0.7243  2.5849
  587MOL0     H79210   6.296   3.824   4.519  1.2008  0.3203 -0.1936
  587MOL0     H79211   6.247   4.053   4.606 -0.2154 -0.9250 -0.7332
  587MOL0     H79212   6.165   3.974   4.743 -0.7410 -2.3621 -0.5455
  587MOL0     H79213   6.458   3.982   4.663 -2.1588 -0.5663 -1.4737
  587MOL0     H79214   6.398   4.041   4.808  2.3297  5.1152 -5.4880
  587MOL0     H79215   6.435   3.754   4.707 -0.7467 -1.4340  0.7818
  587MOL0     H79216   6.338   3.776   4.863 -1.4396  0.1475 -0.6515
  587MOL0     H79217   6.564   3.705   4.893 -0.0608  0.6109 -1.0825
  587MOL0     H79218   6.523   3.858   4.975 -1.9044 -1.9667  0.5483
  587MOL0     H79219   6.679   3.824   4.706  1.2820  0.2633  0.1193
  587MOL0     H79220   6.652   3.974   4.793 -2.3168  0.1907 -1.9656
  587MOL0     H79221   6.812   3.724   4.868  4.9062  0.9675 -1.6113
  587MOL0     H79222   6.758   3.847   4.986 -2.9313 -2.3419 -0.3889
  587MOL0     H79223   6.952   3.873   4.740 -0.7184 -0.9012 -0.5954
  587MOL0     H79224   6.895   4.018   4.826  4.7692  1.3318  3.0799
  587MOL0     H79225   6.207   3.615   4.455  1.2685  0.4565  0.2323
  587MOL0     H79226   6.185   3.496   4.240 -1.6499 -0.8763  0.4716
  587MOL0     H79227   5.759   3.484   3.819  0.4638  1.7453  1.1635
  587MOL0     H79228   5.753   3.396   3.576  0.1900 -0.6965 -0.1861
  587MOL0     H79229   5.956   3.718   2.197  0.0303  0.4490 -0.3940
  587MOL0     H79230   5.927   3.918   2.337 -0.5191 -4.1001  2.2214
  587MOL0     H79231   5.526   4.261   2.374  0.0909 -1.2280 -0.3183
  587MOL0     H79232   5.451   4.448   2.505  2.2721 -0.2051 -0.2917
  587MOL0     H79233   5.365   4.576   2.635 -1.2463  0.8280  0.1803
  587MOL0     H79234   5.528   4.610   2.692  0.6030  1.0283 -0.1907
  587MOL0     H79235   5.271   4.628   2.860  0.9312 -1.6857  0.4587
  587MOL0     H79236   5.365   4.768   2.799  1.4481 -0.5294 -1.0230
  587MOL0     H79237   5.568   4.667   2.918  0.4362  3.6470  1.1810
  587MOL0     H79238   5.468   4.571   3.005  3.3110  0.6815 -0.3813
  587MOL0     H79239   5.452   4.878   3.014  0.3699 -1.1999 -1.6223
  587MOL0     H79240   5.350   4.765   3.109  0.5688  0.3649  0.8257
  587MOL0     H79241   5.716   4.710   3.307  1.1586  2.6714 -0.0654
  587MOL0     H79242   5.493   4.200   2.870  1.6256  2.8433  1.5706
  587MOL0     H79243   5.692   3.961   2.706 -0.2721  3.4788 -3.1783
  587MOL0     H79244   5.605   4.010   2.853 -3.7330 -2.0585  0.8999
  587MOL0     H79245   5.529   3.899   2.731 -1.5506  1.8158 -0.2696
  588MOL0     O79246   8.495   3.667   8.694  0.2072 -0.1854 -0.4849
  588MOL0     C79247   8.606   3.630   8.649  0.6180  0.2041 -0.6769
  588MOL0     O79248   8.720   3.630   8.726 -0.8637 -0.6872  0.5483
  588MOL0     C79249   8.733   3.703   8.846 -0.4460  1.5042  0.2616
  588MOL0     C79250   8.655   3.805   8.898 -0.1301  0.2085 -0.2592
  588MOL0     C79251   8.679   3.858   9.029  0.0374  0.4008 -0.0673
  588MOL0     C79252   8.789   3.816   9.101 -0.8223  0.5414 -0.1637
  588MOL0     O79253   8.831   3.859   9.219 -0.9051 -0.1866  0.0110
  588MOL0     C79254   8.741   3.926   9.301 -0.6016 -0.6162 -1.4714
  588MOL0     C79255   8.816   4.033   9.374 -0.2820  0.9276  0.8317
  588MOL0     C79256   8.830   4.152   9.268 -0.6719 -0.1527 -0.4424
  588MOL0     C79257   8.858   4.284   9.331 -0.0837  0.4554 -0.1454
  588MOL0     C79258   8.902   4.394   9.224 -0.9673  0.4249  0.3888
  588MOL0     C79259   8.933   4.527   9.280 -0.6265 -0.3809  0.5539
  588MOL0     C79260   8.996   4.624   9.174  0.0990 -0.0618  0.0907
  588MOL0     C79261   8.999   4.774   9.218 -0.5481 -0.3316  0.3416
  588MOL0     N79262   9.106   4.853   9.156 -0.0989 -0.0678  0.3063
  588MOL0     C79263   9.146   4.856   9.020  0.6666  0.0314 -0.4916
  588MOL0     C79264   9.237   4.951   9.018 -0.0805 -0.2994 -1.1206
  588MOL0     C79265   9.323   4.993   8.904 -0.6269 -0.4118 -0.2976
  588MOL0     C79266   9.272   5.129   8.860  0.3997  0.5157 -0.5831
  588MOL0     C79267   9.376   5.201   8.781 -0.3846 -0.2892 -0.5041
  588MOL0     C79268   9.383   5.160   8.631 -0.5801  0.2249  0.0794
  588MOL0     O79269   9.444   5.039   8.624 -0.2854 -0.7092 -0.3340
  588MOL0     C79270   9.418   4.956   8.515 -0.7167  0.0184  0.6282
  588MOL0     C79271   9.344   4.985   8.397 -0.6064 -0.6355  0.0416
  588MOL0     C79272   9.340   4.897   8.298 -0.2716  0.1690  0.5505
  588MOL0     C79273   9.398   4.770   8.301 -0.9950  0.0963  0.5461
  588MOL0     C79274   9.365   4.675   8.191  0.0148 -0.2229 -0.0682
  588MOL0     O79275   9.276   4.717   8.092  0.7660 -0.4241 -0.1483
  588MOL0     C79276   9.216   4.613   8.027  0.7742  0.0249 -0.0270
  588MOL0     C79277   9.258   4.575   7.901 -0.2928 -0.9494  0.3022
  588MOL0     C79278   9.200   4.473   7.828  0.7585  0.1157  0.1216
  588MOL0     C79279   9.089   4.402   7.879 -0.5814 -0.3270  0.8669
  588MOL0     O79280   9.023   4.304   7.802  0.7637  0.3303  0.2114
  588MOL0     C79281   9.096   4.231   7.704  0.8271  0.3262 -0.6269
  588MOL0     C79282   9.012   4.113   7.678  0.2030  0.8073 -0.2339
  588MOL0     C79283   9.028   3.991   7.768  0.2862 -0.4199  0.0147
  588MOL0     C79284   8.953   3.859   7.747  0.5006 -0.4665  0.9097
  588MOL0     C79285   8.968   3.787   7.609  0.0873  0.2629  0.7330
  588MOL0     C79286   8.833   3.747   7.556 -0.1718  0.7785  0.2402
  588MOL0     C79287   8.840   3.738   7.400  0.9874 -0.2446 -0.6513
  588MOL0     C79288   8.712   3.691   7.336  0.5779 -0.0030 -0.1227
  588MOL0    Cl79289   8.728   3.653   7.173 -0.0964  0.2864  0.3756
  588MOL0     C79290   9.034   4.449   8.011  0.0114  1.0996  0.4654
  588MOL0     C79291   9.100   4.556   8.083 -0.2575 -0.8344 -0.9288
  588MOL0     O79292   9.411   4.566   8.199  0.8960 -0.0038  0.4612
  588MOL0     C79293   9.471   4.735   8.409  0.6885 -0.3192 -0.3198
  588MOL0     C79294   9.481   4.828   8.518  0.2572  0.1983 -0.5603
  588MOL0     N79295   9.260   5.000   9.139  0.1732  0.7728  0.5823
  588MOL0     N79296   9.184   4.939   9.226 -0.0323 -0.1369  0.0802
  588MOL0     C79297   8.866   3.708   9.050  0.5072  0.0092 -0.3966
  588MOL0     C79298   8.832   3.651   8.929 -0.5850  0.2572  0.0443
  588MOL0     C79299   8.613   3.566   8.512 -0.4807  0.2422 -0.1329
  588MOL0     C79300   8.741   3.514   8.469 -0.7739  0.6328 -0.7110
  588MOL0     C79301   8.756   3.465   8.343  0.0835 -0.0327  1.1589
  588MOL0     C79302   8.644   3.469   8.248 -0.2545  0.8594  0.2368
  588MOL0     O79303   8.654   3.413   8.121  0.4448  0.1860  0.4087
  588MOL0     C79304   8.781   3.387   8.066  0.3802  0.6933 -0.1922
  588MOL0     C79305   8.776   3.396   7.913  0.0750 -0.4275 -0.3220
  588MOL0     C79306   8.909   3.449   7.858  0.7782 -0.1306  0.8027
  588MOL0     C79307   9.034   3.375   7.904 -0.1416  0.5686 -0.5301
  588MOL0     C79308   9.142   3.402   7.809 -0.4122 -1.0827 -0.5017
  588MOL0     C79309   9.228   3.446   7.731  0.2703  0.5055  0.2843
  588MOL0     C79310   8.525   3.534   8.284  0.0850 -0.0905  0.3682
  588MOL0     C79311   8.505   3.564   8.424 -0.1337  0.6477  0.9664
  588MOL0     C79312   8.362   3.595   8.455 -0.8142 -0.8916 -0.1590
  588MOL0     H79313   8.568   3.855   8.856 -2.0333  1.4255  4.4230
  588MOL0     H79314   8.607   3.935   9.056  1.0940  0.8882  1.4780
  588MOL0     H79315   8.652   3.960   9.248  1.3892  3.3650 -2.6516
  588MOL0     H79316   8.717   3.850   9.376  1.1925 -2.2662 -2.4652
  588MOL0     H79317   8.915   4.010   9.413  0.1844  0.4015 -0.5828
  588MOL0     H79318   8.760   4.060   9.464 -1.0956 -0.8948  0.9283
  588MOL0     H79319   8.738   4.157   9.209 -0.1200  0.2269 -1.2862
  588MOL0     H79320   8.921   4.134   9.210 -0.7158 -1.5181 -0.1263
  588MOL0     H79321   8.768   4.324   9.378 -0.0640  2.9557 -1.9708
  588MOL0     H79322   8.931   4.284   9.412  0.0709 -2.8444 -0.1831
  588MOL0     H79323   8.993   4.341   9.196 -1.9760 -1.4302  0.3887
  588MOL0     H79324   8.829   4.407   9.143  0.0697 -1.1285 -0.8593
  588MOL0     H79325   8.846   4.582   9.318 -0.4517  1.1443 -1.1704
  588MOL0     H79326   9.013   4.516   9.354 -2.4419 -2.8121  2.3100
  588MOL0     H79327   8.948   4.604   9.077 -0.3939 -2.5839  0.7914
  588MOL0     H79328   9.093   4.580   9.152 -0.0759 -0.2887 -0.2423
  588MOL0     H79329   8.905   4.813   9.179 -0.5170 -0.2992  0.2996
  588MOL0     H79330   9.019   4.777   9.326 -2.0442 -1.3187  0.6677
  588MOL0     H79331   9.114   4.808   8.928  0.1363  1.3489 -1.0199
  588MOL0     H79332   9.428   4.999   8.934 -0.5744 -0.2278 -0.5199
  588MOL0     H79333   9.308   4.924   8.821 -1.3143  1.1758 -1.5365
  588MOL0     H79334   9.176   5.118   8.809  1.1920 -3.5900 -1.5671
  588MOL0     H79335   9.261   5.189   8.951  0.2413 -1.3652  0.6922
  588MOL0     H79336   9.476   5.193   8.826 -0.5597 -3.3764 -0.4767
  588MOL0     H79337   9.348   5.306   8.790  0.1127 -0.2393  0.5843
  588MOL0     H79338   9.450   5.224   8.573  0.0243 -3.2378 -3.5005
  588MOL0     H79339   9.286   5.169   8.581  0.6821 -0.3316 -2.6725
  588MOL0     H79340   9.282   5.073   8.385  0.0539 -0.3301 -1.1741
  588MOL0     H79341   9.290   4.946   8.215 -0.0691  4.4934  2.7065
  588MOL0     H79342   9.358   4.600   7.869  0.5417  1.5592  4.1732
  588MOL0     H79343   9.259   4.443   7.742 -0.2239 -1.3508 -0.0749
  588MOL0     H79344   9.115   4.291   7.614 -1.6683  1.5463 -0.4152
  588MOL0     H79345   9.189   4.191   7.747  1.0064 -0.9931 -2.1298
  588MOL0     H79346   8.909   4.148   7.673  0.0198  0.1310 -1.7776
  588MOL0     H79347   9.032   4.079   7.576  2.3343  2.3637 -0.3933
  588MOL0     H79348   9.130   3.965   7.741 -0.0980 -2.6399  0.4871
  588MOL0     H79349   9.018   4.019   7.874  1.0710  1.1147 -0.2967
  588MOL0     H79350   8.847   3.872   7.774 -0.6293 -1.0547 -2.6881
  588MOL0     H79351   8.991   3.790   7.822  0.2316 -0.9022  0.6454
  588MOL0     H79352   9.024   3.694   7.624  2.0073  1.0203 -1.2400
  588MOL0     H79353   9.024   3.842   7.533 -1.2271 -0.6913 -0.9765
  588MOL0     H79354   8.807   3.651   7.601  3.5943 -0.6301 -0.1898
  588MOL0     H79355   8.761   3.825   7.585 -2.4119 -1.9984  2.7405
  588MOL0     H79356   8.917   3.663   7.378  1.0554  0.2588 -2.2895
  588MOL0     H79357   8.860   3.838   7.359 -1.4054  0.9477  0.8946
  588MOL0     H79358   8.671   3.601   7.382  1.3001 -1.2376 -1.8073
  588MOL0     H79359   8.645   3.776   7.351  1.4708  0.6071  0.4890
  588MOL0     H79360   8.939   4.418   8.052  0.2585  1.2443  1.1711
  588MOL0     H79361   9.067   4.586   8.182 -1.5044 -1.2242 -1.2085
  588MOL0     H79362   9.513   4.635   8.413  3.8319  0.9438  2.8327
  588MOL0     H79363   9.534   4.792   8.605  2.0402  1.2932 -1.1423
  588MOL0     H79364   8.932   3.659   9.121 -0.2240 -1.9554 -1.0147
  588MOL0     H79365   8.888   3.561   8.904 -1.1858 -0.6862  1.9097
  588MOL0     H79366   8.837   3.534   8.516 -1.3863  2.3985 -0.1365
  588MOL0     H79367   8.854   3.427   8.317  0.6104  2.1824 -0.3649
  588MOL0     H79368   8.832   3.295   8.098 -0.8216  0.3028  0.7250
  588MOL0     H79369   8.849   3.468   8.093  0.9335  0.4179 -0.7365
  588MOL0     H79370   8.698   3.460   7.871  0.6847  1.8512  1.7465
  588MOL0     H79371   8.762   3.295   7.873 -4.6847 -0.4089  0.7001
  588MOL0     H79372   8.908   3.558   7.871 -0.7574  0.0759 -0.6491
  588MOL0     H79373   8.908   3.437   7.749  2.0311 -2.2733  0.9807
  588MOL0     H79374   9.052   3.417   8.004  0.9197 -2.1985  0.5359
  588MOL0     H79375   9.015   3.268   7.912 -2.4326  0.9691  0.2501
  588MOL0     H79376   9.292   3.483   7.653  0.0752 -0.7325 -0.4950
  588MOL0     H79377   8.439   3.534   8.218  2.2340 -1.1303 -2.6548
  588MOL0     H79378   8.323   3.549   8.546 -1.4303  1.4804  0.8554
  588MOL0     H79379   8.336   3.700   8.474 -0.0599 -0.4958 -1.1916
  588MOL0     H79380   8.301   3.554   8.375 -0.2695 -0.1888 -0.9661
  589MOL0     O79381   3.089   1.177   4.154 -0.0816  0.1949  0.3127
  589MOL0     C79382   3.182   1.183   4.232 -0.4448  0.5888 -0.1976
  589MOL0     O79383   3.181   1.141   4.360 -0.2360 -0.3927 -0.0435
  589MOL0     C79384   3.072   1.074   4.424 -0.4098  0.1539  0.6777
  589MOL0     C79385   2.973   1.009   4.344  0.3524  0.3891  0.0800
  589MOL0     C79386   2.865   0.935   4.406  0.2411 -0.4838 -0.1534
  589MOL0     C79387   2.864   0.918   4.544 -0.0684 -0.0453  0.1871
  589MOL0     O79388   2.785   0.834   4.619  0.6464  0.5651 -0.1669
  589MOL0     C79389   2.691   0.749   4.546 -0.1220  0.8584  0.0451
  589MOL0     C79390   2.619   0.667   4.645 -0.4961  0.4128  1.0283
  589MOL0     C79391   2.511   0.584   4.574  0.5186  0.3507 -0.5650
  589MOL0     C79392   2.398   0.563   4.674  0.7640 -0.2712  0.0626
  589MOL0     C79393   2.266   0.516   4.603 -0.5650 -0.1753 -0.7783
  589MOL0     C79394   2.159   0.485   4.717  0.1656 -0.0622  1.3152
  589MOL0     C79395   2.033   0.435   4.650  0.5167 -0.2650  0.1687
  589MOL0     C79396   1.901   0.488   4.697 -0.2282 -0.0591 -0.0320
  589MOL0     N79397   1.785   0.436   4.616 -0.2256  0.4387 -0.2611
  589MOL0     C79398   1.738   0.498   4.507  0.3036 -0.5804 -0.0455
  589MOL0     C79399   1.634   0.423   4.468 -0.4834 -0.3468 -0.1854
  589MOL0     C79400   1.546   0.453   4.349  0.6027 -0.6441  0.1300
  589MOL0     C79401   1.398   0.425   4.383 -0.5066 -0.7863  0.7525
  589MOL0     C79402   1.309   0.441   4.259  0.3586 -0.4665 -0.6930
  589MOL0     C79403   1.167   0.408   4.298 -0.2877  0.1758  0.3843
  589MOL0     O79404   1.115   0.482   4.406 -0.3129 -0.4511 -0.1260
  589MOL0     C79405   0.973   0.466   4.428 -0.1151 -0.6608  0.0976
  589MOL0     C79406   0.924   0.527   4.541 -0.1247 -0.2313  0.6285
  589MOL0     C79407   0.790   0.522   4.570 -0.0568 -0.1312  0.5545
  589MOL0     C79408   0.705   0.436   4.503  0.1236  0.2600 -0.0885
  589MOL0     C79409   0.566   0.444   4.546 -0.8262  0.1276 -0.3083
  589MOL0     O79410   0.521   0.547   4.629  1.0423 -0.5681  0.2048
  589MOL0     C79411   0.394   0.528   4.689  1.3613  0.0238  0.1351
  589MOL0     C79412   0.366   0.637   4.782  0.0292  0.6013 -0.0303
  589MOL0     C79413   0.251   0.647   4.853 -1.1692 -0.9243 -0.0811
  589MOL0     C79414   0.154   0.553   4.827  0.3328 -0.6407 -0.6582
  589MOL0     O79415   0.060   0.546   4.923  0.0675  0.7056 -0.2559
  589MOL0     C79416  -0.038   0.656   4.929  0.3811  0.3412  0.2404
  589MOL0     C79417  -0.160   0.625   4.839 -0.2372 -0.2107  0.4079
  589MOL0     C79418  -0.256   0.501   4.857  0.5067 -0.3145 -0.4350
  589MOL0     C79419  -0.384   0.551   4.778 -0.3513 -0.2502 -0.9562
  589MOL0     C79420  -0.507   0.464   4.799  0.5152  0.4535 -0.2894
  589MOL0     C79421  -0.611   0.498   4.694  0.1123 -0.8920  1.1865
  589MOL0     C79422  -0.753   0.469   4.749 -1.3891 -0.7499  0.0433
  589MOL0     C79423  -0.870   0.504   4.655 -0.0277  0.2023 -0.1317
  589MOL0    Cl79424  -0.849   0.411   4.499  0.1822  0.3123 -0.7492
  589MOL0     C79425   0.170   0.461   4.728 -0.5688  0.6034 -0.8946
  589MOL0     C79426   0.292   0.435   4.668 -0.3406 -0.8100  0.1258
  589MOL0     O79427   0.499   0.353   4.501 -0.6954 -0.3138  0.3931
  589MOL0     C79428   0.753   0.354   4.400  0.5274 -0.6442 -0.0962
  589MOL0     C79429   0.889   0.365   4.359 -0.2061 -0.2794 -0.2496
  589MOL0     N79430   1.631   0.313   4.549 -0.1435 -0.2471 -0.1994
  589MOL0     N79431   1.721   0.322   4.634  0.2793 -0.0724 -0.2326
  589MOL0     C79432   2.957   0.988   4.628 -0.4883  0.3688  0.3637
  589MOL0     C79433   3.065   1.064   4.566 -0.4355 -0.5528  0.2643
  589MOL0     C79434   3.319   1.234   4.178  0.6055 -0.4500  0.2334
  589MOL0     C79435   3.423   1.235   4.269 -0.5231 -1.2111  0.2759
  589MOL0     C79436   3.554   1.258   4.230  0.0084 -0.2054 -0.4199
  589MOL0     C79437   3.584   1.285   4.092  1.0238  0.3411 -0.3790
  589MOL0     O79438   3.707   1.298   4.050 -0.0926 -0.1593  0.5045
  589MOL0     C79439   3.756   1.187   3.982 -0.0775 -0.2045 -0.1323
  589MOL0     C79440   3.862   1.228   3.885 -0.5619  0.1662  0.3768
  589MOL0     C79441   4.003   1.267   3.957 -0.0423  0.0460 -0.0328
  589MOL0     C79442   4.106   1.352   3.876 -0.1562 -0.8653  0.8479
  589MOL0     C79443   4.195   1.447   3.951 -0.3769  0.7626  0.1781
  589MOL0     C79444   4.268   1.514   4.024  0.5581 -0.0916 -0.1822
  589MOL0     C79445   3.479   1.299   4.002 -0.4146 -0.0608  0.2852
  589MOL0     C79446   3.347   1.269   4.035 -0.6271  0.2336  0.4339
  589MOL0     C79447   3.248   1.270   3.923 -0.0011 -0.3292 -0.6012
  589MOL0     H79448   2.979   0.997   4.236  0.9414  0.5766  0.0913
  589MOL0     H79449   2.800   0.868   4.351 -0.6476 -1.1418  1.6090
  589MOL0     H79450   2.612   0.802   4.493 -1.4320 -0.9350  0.1239
  589MOL0     H79451   2.746   0.676   4.486 -0.5478  0.4579  0.1412
  589MOL0     H79452   2.589   0.733   4.727 -0.4377 -1.4274  2.5985
  589MOL0     H79453   2.684   0.591   4.690 -1.2202 -0.3569  0.7879
  589MOL0     H79454   2.551   0.487   4.544 -2.3980 -1.7188  1.5999
  589MOL0     H79455   2.471   0.644   4.492 -1.2487  0.2664  0.1756
  589MOL0     H79456   2.435   0.479   4.732  1.1774 -0.6489 -0.7317
  589MOL0     H79457   2.388   0.640   4.751  1.1123  1.0675 -1.1638
  589MOL0     H79458   2.232   0.579   4.521  1.3100  1.4320 -0.3821
  589MOL0     H79459   2.281   0.417   4.558 -1.1950 -0.4101 -0.4910
  589MOL0     H79460   2.197   0.410   4.788  1.4758  0.2877  1.0076
  589MOL0     H79461   2.135   0.580   4.765 -2.9287  3.9395 -6.5106
  589MOL0     H79462   2.034   0.326   4.655  1.6199 -0.2038  1.7877
  589MOL0     H79463   2.044   0.461   4.544  1.9192 -4.5616 -0.9392
  589MOL0     H79464   1.888   0.457   4.802  0.8346  0.5871  0.2966
  589MOL0     H79465   1.894   0.597   4.688  0.1525  0.0611  1.0125
  589MOL0     H79466   1.783   0.592   4.478 -0.6567 -0.2732 -0.5806
  589MOL0     H79467   1.561   0.556   4.316  0.1305 -1.1354 -1.6939
  589MOL0     H79468   1.578   0.393   4.264 -1.6986 -0.2768 -1.0983
  589MOL0     H79469   1.407   0.320   4.413  0.8100 -1.2370 -1.0361
  589MOL0     H79470   1.367   0.478   4.473  0.2102 -1.3464  1.3458
  589MOL0     H79471   1.343   0.372   4.182  1.9570 -2.6279  1.7924
  589MOL0     H79472   1.298   0.545   4.228 -2.2792 -0.7737 -1.0570
  589MOL0     H79473   1.154   0.301   4.314 -0.3793  0.1944  0.4344
  589MOL0     H79474   1.107   0.435   4.210 -0.7367  1.3445  1.0305
  589MOL0     H79475   0.994   0.589   4.596  1.5083  1.3164 -2.8391
  589MOL0     H79476   0.746   0.587   4.645 -1.3276 -0.2687 -0.0462
  589MOL0     H79477   0.443   0.710   4.804  0.5162 -0.6104  2.6248
  589MOL0     H79478   0.233   0.724   4.927  0.7792  0.6191 -1.1201
  589MOL0     H79479  -0.076   0.676   5.030 -1.3226 -1.1677 -0.0388
  589MOL0     H79480   0.013   0.742   4.885 -0.6247  1.0440  0.3899
  589MOL0     H79481  -0.212   0.721   4.832 -2.7790 -1.5982 -3.1507
  589MOL0     H79482  -0.103   0.602   4.749  2.0646  2.6152  0.9837
  589MOL0     H79483  -0.211   0.413   4.810  1.9639  0.5931 -0.8150
  589MOL0     H79484  -0.290   0.471   4.956 -1.2636 -3.2630 -1.8008
  589MOL0     H79485  -0.354   0.553   4.672  1.8090 -0.5838 -0.3991
  589MOL0     H79486  -0.411   0.655   4.795 -1.3073 -0.3456 -1.7725
  589MOL0     H79487  -0.547   0.474   4.900 -1.6919 -2.1988 -0.7828
  589MOL0     H79488  -0.480   0.358   4.789  1.2941  0.4089  1.7665
  589MOL0     H79489  -0.608   0.605   4.671 -0.5153 -0.9752  0.6619
  589MOL0     H79490  -0.600   0.451   4.596  0.2416 -3.5852  2.4108
  589MOL0     H79491  -0.759   0.522   4.844  0.1609 -1.4729  0.5809
  589MOL0     H79492  -0.757   0.364   4.781  0.0383 -1.4854 -1.9768
  589MOL0     H79493  -0.965   0.490   4.707  0.1284  1.9118  0.6815
  589MOL0     H79494  -0.850   0.609   4.632  4.7424 -0.7786 -1.7209
  589MOL0     H79495   0.094   0.385   4.712  1.5371 -1.3390 -2.3392
  589MOL0     H79496   0.304   0.349   4.603  3.0960 -0.2936 -0.1137
  589MOL0     H79497   0.692   0.289   4.338  0.5859 -0.7102 -0.0851
  589MOL0     H79498   0.922   0.297   4.280  1.7101 -1.8697  1.7897
  589MOL0     H79499   2.934   0.967   4.732  0.9655 -0.2208  0.5897
  589MOL0     H79500   3.143   1.093   4.636  0.1516 -3.4839  0.9735
  589MOL0     H79501   3.403   1.196   4.369 -1.5389  1.7655  1.3395
  589MOL0     H79502   3.635   1.234   4.299  1.8873  1.7808 -1.7772
  589MOL0     H79503   3.684   1.130   3.923  2.2410 -4.2705  0.6112
  589MOL0     H79504   3.793   1.108   4.047  4.4414  1.6836 -0.0393
  589MOL0     H79505   3.820   1.311   3.827 -1.5823 -0.2594  0.4895
  589MOL0     H79506   3.877   1.152   3.808 -4.2977  0.2052 -0.5644
  589MOL0     H79507   4.063   1.186   3.998 -0.2053  0.2249  0.5699
  589MOL0     H79508   3.970   1.311   4.052  0.3094 -1.3615  0.7623
  589MOL0     H79509   4.169   1.289   3.813  0.0863 -1.3307  1.5478
  589MOL0     H79510   4.052   1.419   3.808  1.9206 -0.7208 -0.7792
  589MOL0     H79511   4.335   1.558   4.094  2.1717 -0.7473 -1.2463
  589MOL0     H79512   3.505   1.338   3.905  0.7562  2.2042  1.4447
  589MOL0     H79513   3.177   1.187   3.931 -1.2244  0.6353 -1.2398
  589MOL0     H79514   3.193   1.364   3.918  1.7146  0.6565 -2.1200
  589MOL0     H79515   3.291   1.258   3.823  1.1189 -2.2886  0.0692
  590MOL0     O79516  10.892   7.098   8.951  0.6002  0.4288  0.0357
  590MOL0     C79517  10.822   7.003   8.994  0.8791  0.3306 -0.1523
  590MOL0     O79518  10.871   6.885   9.051 -0.1799  0.8602  0.2492
  590MOL0     C79519  11.004   6.860   9.045  0.1797 -1.1641 -0.0992
  590MOL0     C79520  11.068   6.834   8.920  0.6451 -0.4389 -0.2067
  590MOL0     C79521  11.203   6.798   8.920  0.4127  0.3982  0.3742
  590MOL0     C79522  11.266   6.767   9.039  0.1483 -0.3216  0.3075
  590MOL0     O79523  11.396   6.721   9.024  0.6772  0.1220 -0.6064
  590MOL0     C79524  11.448   6.663   9.146  0.2145 -0.3424  0.1330
  590MOL0     C79525  11.591   6.620   9.115  0.5096  0.5087 -0.7460
  590MOL0     C79526  11.602   6.499   9.020 -0.0667 -0.6129  0.9034
  590MOL0     C79527  11.743   6.466   8.997  0.7732 -0.1428  0.5401
  590MOL0     C79528  11.754   6.340   8.906  0.2495  0.1835 -1.0506
  590MOL0     C79529  11.686   6.206   8.951  0.2271  0.1995 -0.7576
  590MOL0     C79530  11.706   6.176   9.100 -1.2142  0.3538 -0.4657
  590MOL0     C79531  11.696   6.029   9.127 -0.8489 -0.0300  0.6300
  590MOL0     N79532  11.802   5.934   9.094 -0.2092  1.2354  0.4324
  590MOL0     C79533  11.873   5.876   9.195 -0.1575 -0.0373  0.4323
  590MOL0     C79534  11.929   5.768   9.138  0.1348  0.1761 -1.1289
  590MOL0     C79535  12.010   5.678   9.222 -0.4475 -0.1933  0.0841
  590MOL0     C79536  12.162   5.686   9.190 -0.9315 -1.2316  1.0440
  590MOL0     C79537  12.233   5.813   9.241 -0.7167 -1.2839 -0.2747
  590MOL0     C79538  12.258   5.819   9.395  0.3319  0.8010  0.7841
  590MOL0     O79539  12.146   5.871   9.461 -0.1873  0.1499  0.3268
  590MOL0     C79540  12.157   5.913   9.593 -0.6676 -0.1966  0.4868
  590MOL0     C79541  12.045   5.978   9.653  0.3667 -0.0287 -0.4979
  590MOL0     C79542  12.045   6.026   9.779 -0.5232 -0.3308 -0.2599
  590MOL0     C79543  12.177   6.046   9.847  0.0181 -0.3517  0.2152
  590MOL0     C79544  12.190   6.092   9.991 -1.1536 -0.4152  0.1727
  590MOL0     O79545  12.081   6.059  10.082  0.4024  0.7559  0.1561
  590MOL0     C79546  12.035   6.145  10.184 -0.1826  0.5123 -0.7317
  590MOL0     C79547  12.103   6.258  10.230 -0.0787  0.0382  0.7655
  590MOL0     C79548  12.059   6.341  10.327 -0.1629 -0.8286  0.7553
  590MOL0     C79549  11.923   6.315  10.378 -0.4231 -1.2357 -0.5630
  590MOL0     O79550  11.863   6.397  10.477  0.2608 -0.0696 -0.1430
  590MOL0     C79551  11.907   6.531  10.497 -0.4111 -0.4197  0.3161
  590MOL0     C79552  11.796   6.618  10.556 -0.3599 -0.6627  0.0580
  590MOL0     C79553  11.684   6.657  10.453 -0.1298 -0.5135 -0.4023
  590MOL0     C79554  11.578   6.739  10.515 -0.2095 -0.2086 -0.3124
  590MOL0     C79555  11.485   6.652  10.604 -1.5853 -0.4039  0.3254
  590MOL0     C79556  11.370   6.730  10.658 -0.2274 -0.5707  0.3287
  590MOL0     C79557  11.404   6.851  10.747 -0.0958 -0.0959 -0.0816
  590MOL0     C79558  11.475   6.814  10.875  0.4164 -0.2763  0.3503
  590MOL0    Cl79559  11.476   6.980  10.958 -0.4020  0.3301 -0.1085
  590MOL0     C79560  11.840   6.208  10.329 -0.0619 -1.1156  0.3474
  590MOL0     C79561  11.905   6.124  10.231  0.8955 -0.8017  0.5469
  590MOL0     O79562  12.295   6.159  10.012 -0.0629 -1.0333  0.3674
  590MOL0     C79563  12.289   5.986   9.785 -0.3597 -0.0291  0.2602
  590MOL0     C79564  12.277   5.919   9.660 -0.1069  1.0584  0.0858
  590MOL0     N79565  11.908   5.755   9.004 -0.8517 -0.1540  0.3974
  590MOL0     N79566  11.831   5.857   8.980  0.6277  0.6395  0.0238
  590MOL0     C79567  11.206   6.794   9.165 -0.1588 -0.0756 -0.2293
  590MOL0     C79568  11.068   6.835   9.162 -0.7507 -0.7127  0.8096
  590MOL0     C79569  10.673   7.032   9.010 -0.1108 -0.2349 -1.5499
  590MOL0     C79570  10.629   7.166   8.999  1.1544 -0.1017 -0.1548
  590MOL0     C79571  10.498   7.203   9.036 -0.2753  0.6656 -0.1585
  590MOL0     C79572  10.401   7.107   9.074  0.4765  0.8429 -0.3394
  590MOL0     O79573  10.275   7.157   9.107  0.6548 -0.0861  0.0697
  590MOL0     C79574  10.171   7.059   9.124  0.4732 -0.3494 -0.5819
  590MOL0     C79575  10.041   7.149   9.137  0.5355  0.5125  0.2233
  590MOL0     C79576   9.904   7.074   9.126 -0.0689  0.9117  0.0013
  590MOL0     C79577   9.871   6.997   9.264 -0.1827 -1.0237  0.3776
  590MOL0     C79578   9.746   6.920   9.264 -0.2400 -0.9387  1.2336
  590MOL0     C79579   9.647   6.855   9.222  1.4747 -0.9225 -0.0571
  590MOL0     C79580  10.439   6.977   9.089  0.2870 -0.2947  0.0050
  590MOL0     C79581  10.571   6.943   9.048 -0.9831 -0.3670  0.4621
  590MOL0     C79582  10.591   6.796   9.074 -1.0967 -0.0278  0.1052
  590MOL0     H79583  11.007   6.843   8.831 -3.1765 -0.0222  2.2250
  590MOL0     H79584  11.258   6.787   8.827 -2.0817 -2.7418 -0.9180
  590MOL0     H79585  11.452   6.735   9.228  3.2847  0.6438 -0.7446
  590MOL0     H79586  11.385   6.580   9.180  0.2626  0.0408  1.2023
  590MOL0     H79587  11.636   6.587   9.209  1.6254  2.0899 -0.6917
  590MOL0     H79588  11.643   6.712   9.087  0.3690  0.5274 -0.9470
  590MOL0     H79589  11.556   6.512   8.922  0.6270 -1.4339  0.4540
  590MOL0     H79590  11.544   6.418   9.063  1.7049 -2.7921 -0.5928
  590MOL0     H79591  11.784   6.555   8.949  1.0300 -0.7407 -0.3948
  590MOL0     H79592  11.778   6.449   9.099 -1.6545 -1.9190  1.1735
  590MOL0     H79593  11.714   6.368   8.808  1.2771 -0.1278 -1.5715
  590MOL0     H79594  11.862   6.327   8.896  0.1881  0.0003 -1.4688
  590MOL0     H79595  11.577   6.205   8.938 -0.1678 -1.2134  1.8954
  590MOL0     H79596  11.729   6.127   8.889 -4.1480 -1.1311 -2.5149
  590MOL0     H79597  11.636   6.225   9.168 -1.5652  0.5591 -0.9684
  590MOL0     H79598  11.804   6.215   9.128 -2.6312  1.0821  4.4976
  590MOL0     H79599  11.705   6.027   9.236  0.7507  1.0089  0.5505
  590MOL0     H79600  11.593   6.002   9.099 -0.9010  2.1746 -1.6238
  590MOL0     H79601  11.885   5.897   9.301  2.2897 -1.1850  0.4370
  590MOL0     H79602  11.991   5.688   9.329  0.6790 -0.2264  0.3024
  590MOL0     H79603  11.969   5.579   9.198 -2.2045  0.2014  1.3037
  590MOL0     H79604  12.222   5.604   9.232  2.1963 -0.7233 -1.9738
  590MOL0     H79605  12.170   5.678   9.082 -0.6303 -2.3025  1.1322
  590MOL0     H79606  12.187   5.908   9.212  0.9668 -0.1988  0.4589
  590MOL0     H79607  12.328   5.804   9.188 -1.2306 -4.1366 -0.8965
  590MOL0     H79608  12.344   5.886   9.405 -0.8699  2.2656  1.6911
  590MOL0     H79609  12.296   5.724   9.434  1.4618  0.2979 -1.3422
  590MOL0     H79610  11.953   5.993   9.596 -0.5615 -2.7015  0.1207
  590MOL0     H79611  11.957   6.066   9.828  1.6611  0.2239  3.6296
  590MOL0     H79612  12.201   6.288  10.196  1.5319 -0.2194  4.6640
  590MOL0     H79613  12.110   6.430  10.361  1.8043 -1.9050  0.7743
  590MOL0     H79614  11.999   6.520  10.555  0.6983 -1.6011 -1.5606
  590MOL0     H79615  11.941   6.568  10.400 -0.7766 -2.7700 -0.7742
  590MOL0     H79616  11.761   6.555  10.639 -1.8522 -3.8416 -2.7492
  590MOL0     H79617  11.841   6.704  10.607 -2.3334  0.4594  0.0386
  590MOL0     H79618  11.739   6.707  10.373  0.8778 -0.8416  0.0688
  590MOL0     H79619  11.641   6.565  10.412  1.1979 -0.5410 -1.8098
  590MOL0     H79620  11.517   6.789  10.439  0.6430 -1.7663 -2.1138
  590MOL0     H79621  11.625   6.814  10.579  0.3596 -1.7530  1.1535
  590MOL0     H79622  11.547   6.606  10.681  1.8347  2.3766 -0.5244
  590MOL0     H79623  11.458   6.583  10.524 -1.3381  0.0719 -0.1738
  590MOL0     H79624  11.318   6.771  10.571  0.7979 -0.8227 -0.4225
  590MOL0     H79625  11.310   6.655  10.710  0.5344  0.1518  2.3328
  590MOL0     H79626  11.310   6.896  10.780  0.0680  0.2641 -0.1040
  590MOL0     H79627  11.458   6.933  10.698 -2.1595  2.3312  1.4430
  590MOL0     H79628  11.420   6.746  10.940 -1.4659  1.1600  0.3450
  590MOL0     H79629  11.577   6.775  10.861  1.2295  1.5795  0.8023
  590MOL0     H79630  11.742   6.188  10.371 -0.5391  2.3538  1.1744
  590MOL0     H79631  11.852   6.040  10.188 -3.1422  0.8230  1.8705
  590MOL0     H79632  12.386   5.982   9.834  1.1495 -0.7791 -2.5856
  590MOL0     H79633  12.363   5.861   9.629 -1.6959 -1.0019 -0.7508
  590MOL0     H79634  11.248   6.769   9.262  0.4232 -3.2267 -1.1889
  590MOL0     H79635  11.011   6.839   9.254 -1.0021 -3.0377  0.8067
  590MOL0     H79636  10.692   7.248   8.966  2.3913 -0.4560  1.1838
  590MOL0     H79637  10.478   7.310   9.039 -0.5339  0.6023  0.6493
  590MOL0     H79638  10.174   7.012   9.222 -3.7197 -1.8918 -0.9977
  590MOL0     H79639  10.169   6.984   9.045  4.0910  0.8652 -2.0380
  590MOL0     H79640  10.052   7.228   9.062  3.0695  0.3352  0.3286
  590MOL0     H79641  10.054   7.191   9.237 -0.3865 -2.4614  1.7198
  590MOL0     H79642   9.901   7.001   9.045 -1.0473 -3.0360  3.2420
  590MOL0     H79643   9.830   7.152   9.109  0.0597  1.5850  2.2208
  590MOL0     H79644   9.952   6.928   9.289 -0.5625 -1.7855 -0.4200
  590MOL0     H79645   9.857   7.076   9.338 -2.9354 -1.2703  0.2517
  590MOL0     H79646   9.564   6.788   9.213 -1.0739  1.4771  3.0383
  590MOL0     H79647  10.369   6.914   9.143 -2.8642  2.1088 -0.9945
  590MOL0     H79648  10.649   6.776   9.165 -0.8594  2.3722  0.5399
  590MOL0     H79649  10.496   6.742   9.077 -1.3656  0.4717  0.7845
  590MOL0     H79650  10.646   6.750   8.991  1.4927  0.3440  1.4903
  591MOL0     O79651   9.486   7.695   3.127  0.4599 -0.4306 -0.1487
  591MOL0     C79652   9.484   7.818   3.155  0.1880  0.2918  0.2975
  591MOL0     O79653   9.579   7.880   3.226 -0.0591 -0.0763 -0.0379
  591MOL0     C79654   9.708   7.838   3.247  0.5357 -0.7550 -0.5072
  591MOL0     C79655   9.760   7.908   3.362  0.2766 -0.8160  0.2455
  591MOL0     C79656   9.901   7.871   3.395  0.5264  0.4259  0.0479
  591MOL0     C79657   9.977   7.789   3.312 -0.8523  0.4230 -0.1878
  591MOL0     O79658  10.111   7.751   3.347 -0.0621  0.0627  0.4661
  591MOL0     C79659  10.125   7.713   3.486  0.0984 -1.4146  0.5030
  591MOL0     C79660  10.256   7.641   3.501 -0.4021  0.0107 -0.2350
  591MOL0     C79661  10.284   7.631   3.649 -1.1229  0.8670 -1.4236
  591MOL0     C79662  10.424   7.680   3.691  0.5232 -0.3515  0.1188
  591MOL0     C79663  10.427   7.835   3.735 -1.1491 -0.4079  0.5387
  591MOL0     C79664  10.418   7.936   3.622  0.1925  1.0585 -0.3829
  591MOL0     C79665  10.556   7.954   3.558 -0.0501 -0.3905  0.7928
  591MOL0     C79666  10.577   7.884   3.417  0.6947 -0.3518 -0.5073
  591MOL0     N79667  10.491   7.958   3.323  0.0261 -0.1332 -0.3005
  591MOL0     C79668  10.380   7.911   3.250 -0.6003  0.0455  0.5415
  591MOL0     C79669  10.347   7.998   3.152 -0.4766 -0.0909 -0.7790
  591MOL0     C79670  10.236   7.985   3.045 -0.3152  0.7825 -0.1133
  591MOL0     C79671  10.218   8.082   2.937 -0.1809 -0.5462 -0.4250
  591MOL0     C79672  10.337   8.063   2.841  0.4571 -0.7974 -0.1630
  591MOL0     C79673  10.370   8.199   2.799 -0.6288 -0.9022 -1.2473
  591MOL0     O79674  10.456   8.199   2.686 -0.1679  1.2402 -0.3021
  591MOL0     C79675  10.599   8.213   2.690  0.6011 -0.5341 -0.4573
  591MOL0     C79676  10.656   8.183   2.569  0.1898  0.3868  0.1023
  591MOL0     C79677  10.791   8.205   2.553 -0.0430  1.1747 -0.4702
  591MOL0     C79678  10.874   8.249   2.659 -0.1506 -0.3546  0.2922
  591MOL0     C79679  11.016   8.254   2.645 -1.5186 -0.2413  0.0170
  591MOL0     O79680  11.095   8.248   2.759  0.3164  0.5903 -0.8791
  591MOL0     C79681  11.215   8.318   2.755  0.4323 -0.0777  0.0892
  591MOL0     C79682  11.337   8.264   2.792  0.0544  0.5805  0.9715
  591MOL0     C79683  11.449   8.343   2.786 -0.4287  1.0264  0.3833
  591MOL0     C79684  11.456   8.469   2.726 -0.0039  0.3315  0.4567
  591MOL0     O79685  11.567   8.542   2.698 -0.0388 -0.4808 -0.4336
  591MOL0     C79686  11.690   8.482   2.742 -0.1120 -0.0626  0.5678
  591MOL0     C79687  11.809   8.562   2.692 -0.0686 -0.3706 -1.2748
  591MOL0     C79688  11.937   8.532   2.767 -0.8051 -0.6818  0.4863
  591MOL0     C79689  11.939   8.598   2.899 -0.4648 -0.0154  0.5200
  591MOL0     C79690  12.075   8.598   2.952 -0.0682  0.7852  0.1955
  591MOL0     C79691  12.112   8.461   3.004  0.4511  0.6556 -1.3771
  591MOL0     C79692  12.222   8.472   3.111 -0.0433 -0.1435  0.2421
  591MOL0     C79693  12.160   8.481   3.246  0.4385  0.1803 -0.1890
  591MOL0    Cl79694  12.100   8.317   3.284  0.0576 -0.1168  0.1815
  591MOL0     C79695  11.333   8.527   2.695 -0.4794 -1.3662 -0.1501
  591MOL0     C79696  11.214   8.454   2.716  0.2680 -0.6305 -0.5465
  591MOL0     O79697  11.056   8.260   2.533  1.2065 -0.2203  0.3649
  591MOL0     C79698  10.815   8.275   2.782  0.8899  0.2844  0.5360
  591MOL0     C79699  10.675   8.265   2.797  0.5663  0.0277 -1.5049
  591MOL0     N79700  10.444   8.097   3.163 -0.2810 -0.2767  0.4166
  591MOL0     N79701  10.527   8.073   3.259 -0.5936 -0.3906 -0.6099
  591MOL0     C79702   9.915   7.730   3.204 -0.8304  0.6611  0.1415
  591MOL0     C79703   9.782   7.753   3.175  0.7103  1.2673 -0.3147
  591MOL0     C79704   9.370   7.902   3.105 -0.9340  0.5588  0.2173
  591MOL0     C79705   9.407   8.033   3.059  0.0999 -0.2762  0.1449
  591MOL0     C79706   9.314   8.125   3.008 -0.3541 -0.0144  0.6327
  591MOL0     C79707   9.184   8.090   3.015  0.7224  0.1192 -0.1679
  591MOL0     O79708   9.094   8.188   2.963 -0.6620  0.5385  0.2435
  591MOL0     C79709   8.967   8.140   2.919 -0.5598 -0.2215  0.3989
  591MOL0     C79710   8.925   8.250   2.822  0.5685  0.3840 -1.1767
  591MOL0     C79711   9.023   8.253   2.712 -0.3893 -0.3158  1.1048
  591MOL0     C79712   9.007   8.344   2.595  0.8578  0.6347  0.0143
  591MOL0     C79713   8.874   8.331   2.526 -0.3823 -0.8380  0.2871
  591MOL0     C79714   8.767   8.307   2.462  0.7657 -0.6714 -0.0467
  591MOL0     C79715   9.146   7.956   3.049 -0.0108  0.5825  0.8358
  591MOL0     C79716   9.234   7.859   3.097 -0.4441 -0.1241 -0.6643
  591MOL0     C79717   9.192   7.720   3.129  0.4093  0.3378 -1.0797
  591MOL0     H79718   9.709   7.984   3.419 -0.3418  0.5240 -1.9620
  591MOL0     H79719   9.945   7.923   3.480  0.7832 -0.1531  0.2768
  591MOL0     H79720  10.132   7.798   3.555  2.5510  0.0061 -1.3674
  591MOL0     H79721  10.040   7.647   3.507 -1.0708  0.2218  1.1276
  591MOL0     H79722  10.333   7.679   3.433 -2.1312 -2.9040 -4.2347
  591MOL0     H79723  10.245   7.540   3.461 -1.3133 -0.8618  2.0563
  591MOL0     H79724  10.281   7.527   3.683  2.4383  0.8006 -0.9659
  591MOL0     H79725  10.213   7.682   3.714 -1.2420 -0.6623 -0.3011
  591MOL0     H79726  10.459   7.618   3.774 -0.5436  0.2716  1.0735
  591MOL0     H79727  10.493   7.672   3.607 -0.5640 -1.4481 -0.6999
  591MOL0     H79728  10.354   7.862   3.811 -0.2728  0.6972  1.0277
  591MOL0     H79729  10.520   7.844   3.791 -0.6542 -2.4478  0.1178
  591MOL0     H79730  10.333   7.915   3.557 -1.9716  2.5176  1.8035
  591MOL0     H79731  10.375   8.031   3.654 -2.4825  0.0056 -0.5784
  591MOL0     H79732  10.638   7.926   3.624  1.7213  0.5041 -0.9273
  591MOL0     H79733  10.571   8.060   3.536  0.1637 -0.2241  1.7120
  591MOL0     H79734  10.682   7.900   3.389  0.3296  1.9288 -0.8341
  591MOL0     H79735  10.557   7.777   3.414  1.9031 -0.5827 -0.8857
  591MOL0     H79736  10.329   7.817   3.269  0.2266 -0.8903 -1.5591
  591MOL0     H79737  10.249   7.887   2.998 -0.2765  1.5494 -1.7612
  591MOL0     H79738  10.141   7.981   3.099  1.9310 -2.4957  4.1939
  591MOL0     H79739  10.128   8.066   2.877 -0.6907  1.2617 -0.2094
  591MOL0     H79740  10.205   8.182   2.980  0.9165 -0.4410 -0.2901
  591MOL0     H79741  10.292   8.010   2.756 -0.0253  1.1106 -1.1503
  591MOL0     H79742  10.424   8.009   2.879  0.3556  0.4274  1.9558
  591MOL0     H79743  10.424   8.249   2.879  1.7920 -2.7736 -1.5981
  591MOL0     H79744  10.278   8.251   2.769 -1.1641 -0.3365  1.1778
  591MOL0     H79745  10.600   8.146   2.484  4.2422 -2.0915 -1.8129
  591MOL0     H79746  10.843   8.196   2.458  3.4081  4.3090  0.8784
  591MOL0     H79747  11.351   8.163   2.829  0.9735  0.3125 -0.0542
  591MOL0     H79748  11.542   8.298   2.818  0.2994  1.7726 -0.6126
  591MOL0     H79749  11.690   8.458   2.848  2.6025  0.9245  0.8819
  591MOL0     H79750  11.712   8.394   2.681 -1.0781  1.4651 -2.1535
  591MOL0     H79751  11.820   8.539   2.585 -0.2961  2.5177 -1.9922
  591MOL0     H79752  11.788   8.669   2.696 -2.0734 -0.6749 -2.2702
  591MOL0     H79753  11.947   8.424   2.776  1.3841 -0.3365  3.7587
  591MOL0     H79754  12.024   8.569   2.713 -2.3723 -2.0083 -3.3211
  591MOL0     H79755  11.862   8.538   2.950 -0.5244 -1.9349 -1.6581
  591MOL0     H79756  11.888   8.694   2.909 -2.7852 -1.3138  2.3444
  591MOL0     H79757  12.078   8.669   3.035 -0.0525 -0.4238  1.2712
  591MOL0     H79758  12.146   8.636   2.878  2.2692 -2.9552  0.2530
  591MOL0     H79759  12.025   8.405   3.042 -2.4918  5.8281  0.5633
  591MOL0     H79760  12.155   8.396   2.928  4.5441 -2.2781  2.9179
  591MOL0     H79761  12.291   8.556   3.095  2.6405 -1.9260  1.7852
  591MOL0     H79762  12.273   8.376   3.117 -0.2083 -0.1688  1.6425
  591MOL0     H79763  12.232   8.521   3.318  0.5288  0.2848 -0.3365
  591MOL0     H79764  12.078   8.554   3.243  1.6742  1.6411  0.4373
  591MOL0     H79765  11.322   8.630   2.664 -2.6264 -1.3179  0.6258
  591MOL0     H79766  11.124   8.511   2.701  0.3247  0.2316  1.8997
  591MOL0     H79767  10.876   8.320   2.859  1.1632  1.8089 -0.5089
  591MOL0     H79768  10.637   8.298   2.893  3.6871  0.6023 -0.3572
  591MOL0     H79769   9.975   7.661   3.144 -0.0537  1.2947  0.1713
  591MOL0     H79770   9.726   7.699   3.099  1.7911 -2.7646  1.5348
  591MOL0     H79771   9.509   8.070   3.054  0.0269 -0.2441 -3.1710
  591MOL0     H79772   9.353   8.217   2.965  2.4140 -1.9344 -1.2910
  591MOL0     H79773   8.894   8.123   2.999  0.8300 -0.1707  1.7286
  591MOL0     H79774   8.975   8.047   2.862  1.2206 -0.3228  0.7469
  591MOL0     H79775   8.918   8.345   2.876 -0.7283  0.6438 -1.7469
  591MOL0     H79776   8.822   8.246   2.785 -0.4973  2.6394  1.2585
  591MOL0     H79777   9.028   8.153   2.667 -0.9503 -0.5861  1.6305
  591MOL0     H79778   9.127   8.269   2.744  0.9737  1.1806 -3.4156
  591MOL0     H79779   9.026   8.447   2.628  0.3741  1.4852 -2.2256
  591MOL0     H79780   9.091   8.332   2.526 -0.1527 -0.0506 -1.1266
  591MOL0     H79781   8.670   8.290   2.420 -0.5452 -1.3023  2.9225
  591MOL0     H79782   9.043   7.923   3.063  0.9240 -4.2704 -1.4611
  591MOL0     H79783   9.083   7.724   3.137  0.1920 -1.0129 -2.8319
  591MOL0     H79784   9.223   7.655   3.047 -0.6846 -1.9832  0.2288
  591MOL0     H79785   9.226   7.692   3.229 -5.6403  3.2423  2.4252
  592MOL0     O79786   9.746   0.917   1.098  0.7876 -0.2734  0.1519
  592MOL0     C79787   9.748   0.795   1.069  0.0452  0.0987  1.0416
  592MOL0     O79788   9.838   0.726   0.978  0.1840  0.2563  0.4044
  592MOL0     C79789   9.930   0.814   0.911  0.2656  0.1788 -0.0965
  592MOL0     C79790   9.908   0.862   0.783  0.3226  0.3101 -0.3231
  592MOL0     C79791   9.993   0.955   0.725  0.3721 -0.0999  0.1335
  592MOL0     C79792  10.105   1.002   0.793  0.1360 -0.5214 -0.8879
  592MOL0     O79793  10.187   1.100   0.741  0.0555  0.0424  0.8585
  592MOL0     C79794  10.271   1.043   0.642 -0.0780 -0.2241  0.4912
  592MOL0     C79795  10.323   1.149   0.550  0.1565  0.3588 -0.0673
  592MOL0     C79796  10.201   1.223   0.490 -0.1647 -0.4212  0.0325
  592MOL0     C79797  10.220   1.282   0.342 -0.2624 -0.0051  0.5329
  592MOL0     C79798  10.263   1.175   0.242 -0.1510  0.2514  0.2368
  592MOL0     C79799  10.225   1.236   0.101 -0.1336 -0.5772  0.0899
  592MOL0     C79800  10.254   1.124  -0.009  0.3821 -1.0212  0.7555
  592MOL0     C79801  10.399   1.084  -0.036 -0.4633  0.5342 -1.2264
  592MOL0     N79802  10.468   1.205  -0.078 -0.0628 -0.7695 -0.5214
  592MOL0     C79803  10.462   1.255  -0.206  0.4908  0.3655  0.4906
  592MOL0     C79804  10.512   1.381  -0.203  0.0036  0.8082 -0.6051
  592MOL0     C79805  10.515   1.469  -0.326 -0.0192  0.7200 -0.0910
  592MOL0     C79806  10.654   1.449  -0.393 -0.1622 -0.9866 -0.1878
  592MOL0     C79807  10.680   1.553  -0.502  0.1905  0.1910 -0.0102
  592MOL0     C79808  10.811   1.534  -0.577  0.0705 -0.2774 -0.0315
  592MOL0     O79809  10.821   1.617  -0.694 -0.4809  0.6017  0.1874
  592MOL0     C79810  10.933   1.607  -0.775 -0.0537 -0.1963  0.4065
  592MOL0     C79811  10.945   1.682  -0.886  0.0718  0.8460  0.9001
  592MOL0     C79812  11.059   1.676  -0.975 -0.1717  1.4836  0.0864
  592MOL0     C79813  11.161   1.581  -0.947 -0.5726  0.7014  0.1091
  592MOL0     C79814  11.280   1.569  -1.033  1.0283  0.5885 -0.7132
  592MOL0     O79815  11.394   1.550  -0.957 -0.0038 -0.0219  0.1513
  592MOL0     C79816  11.519   1.552  -1.020  0.6278  0.4225 -0.4528
  592MOL0     C79817  11.556   1.469  -1.129  0.6171 -0.3159 -0.1154
  592MOL0     C79818  11.684   1.487  -1.181 -0.2049  0.3510 -0.1055
  592MOL0     C79819  11.783   1.566  -1.120  0.9614 -0.2451 -0.0379
  592MOL0     O79820  11.908   1.563  -1.177  0.9110 -0.1878  0.5543
  592MOL0     C79821  11.931   1.675  -1.269 -0.4835 -0.3301 -0.4144
  592MOL0     C79822  11.986   1.802  -1.202  0.4950  0.0082 -0.2459
  592MOL0     C79823  12.031   1.918  -1.309  0.9829  0.2652  0.4446
  592MOL0     C79824  12.163   1.880  -1.370 -0.4415 -0.4174  0.1589
  592MOL0     C79825  12.212   1.986  -1.466  0.5816 -0.3778  0.0678
  592MOL0     C79826  12.295   2.088  -1.391 -0.2262 -0.6613  1.4926
  592MOL0     C79827  12.348   2.197  -1.482  0.4368  0.0379  0.9986
  592MOL0     C79828  12.376   2.328  -1.417  0.0850  0.5450  0.2900
  592MOL0    Cl79829  12.449   2.446  -1.547  0.2059  0.0094  0.1653
  592MOL0     C79830  11.752   1.632  -0.998  0.2000  0.3554 -0.4943
  592MOL0     C79831  11.617   1.638  -0.967  0.7790  0.4030 -0.6312
  592MOL0     O79832  11.281   1.580  -1.156  0.5127 -0.4294 -0.0402
  592MOL0     C79833  11.153   1.520  -0.816  0.6264 -0.7365 -0.6518
  592MOL0     C79834  11.037   1.537  -0.736  0.2014  0.0191  0.2428
  592MOL0     N79835  10.560   1.407  -0.077 -0.2402  0.6653 -0.1278
  592MOL0     N79836  10.547   1.301  -0.007  0.7039 -0.4386 -0.8777
  592MOL0     C79837  10.129   0.957   0.923  0.4381 -0.1949 -0.0614
  592MOL0     C79838  10.042   0.862   0.989  0.7455 -0.1138  0.9547
  592MOL0     C79839   9.662   0.723   1.162 -0.2411  0.2060  0.9576
  592MOL0     C79840   9.655   0.763   1.302  0.5872  0.0468  0.8403
  592MOL0     C79841   9.575   0.687   1.389 -0.6244 -0.0172 -0.4352
  592MOL0     C79842   9.494   0.579   1.348 -0.6989  0.3777  0.7511
  592MOL0     O79843   9.420   0.500   1.428  0.4455 -0.2137  0.5956
  592MOL0     C79844   9.427   0.501   1.570  0.2922  0.3952 -0.3987
  592MOL0     C79845   9.555   0.443   1.633  0.8653 -0.2581 -0.2724
  592MOL0     C79846   9.539   0.409   1.783 -0.0202  0.8563  0.4091
  592MOL0     C79847   9.496   0.522   1.880  0.0592  0.4209  0.9425
  592MOL0     C79848   9.538   0.505   2.018  0.0256  0.1329 -0.4963
  592MOL0     C79849   9.547   0.477   2.133 -0.2216  0.9199  0.1805
  592MOL0     C79850   9.495   0.557   1.215  0.7816  0.3246 -0.3548
  592MOL0     C79851   9.577   0.619   1.117 -0.9351  0.1712  0.0485
  592MOL0     C79852   9.563   0.571   0.977 -1.1631 -0.2677 -0.4872
  592MOL0     H79853   9.809   0.851   0.739 -0.6891 -2.0218  2.2482
  592MOL0     H79854   9.991   0.990   0.622  0.0536  0.7946  0.4368
  592MOL0     H79855  10.364   1.009   0.689  0.8428  2.3465  0.6875
  592MOL0     H79856  10.219   0.968   0.582  0.5658 -0.0099 -0.3604
  592MOL0     H79857  10.379   1.081   0.485  0.4107 -0.3652  0.8998
  592MOL0     H79858  10.391   1.219   0.597 -1.5910  2.8154 -0.9863
  592MOL0     H79859  10.196   1.316   0.548  2.2028  1.0873 -1.9449
  592MOL0     H79860  10.110   1.163   0.493 -1.3059  0.9749 -2.8392
  592MOL0     H79861  10.129   1.334   0.312  1.5949  1.2444 -3.7763
  592MOL0     H79862  10.304   1.352   0.338 -1.0395  1.1140  2.4050
  592MOL0     H79863  10.371   1.159   0.248 -0.0181 -0.6565 -2.9820
  592MOL0     H79864  10.212   1.080   0.259  3.5880 -2.4000 -1.7248
  592MOL0     H79865  10.121   1.272   0.101  0.8794  2.6894 -0.2050
  592MOL0     H79866  10.284   1.324   0.073  0.3983 -1.6734 -2.5754
  592MOL0     H79867  10.211   1.168  -0.100 -0.9638 -1.2191  1.2779
  592MOL0     H79868  10.198   1.032   0.010 -1.4772 -0.5709 -1.9688
  592MOL0     H79869  10.451   1.049   0.053 -0.5999  1.4733 -0.7599
  592MOL0     H79870  10.408   1.008  -0.114 -0.6724  0.1194 -0.8455
  592MOL0     H79871  10.435   1.207  -0.300  0.6329 -1.7918  1.5114
  592MOL0     H79872  10.433   1.438  -0.391  0.2050 -0.7356  0.2797
  592MOL0     H79873  10.491   1.572  -0.297 -1.4647  0.1678  0.8052
  592MOL0     H79874  10.736   1.464  -0.323 -0.9637  0.2081  0.5218
  592MOL0     H79875  10.667   1.350  -0.440  0.5607 -0.2058 -1.7079
  592MOL0     H79876  10.672   1.651  -0.454 -1.4087 -0.2162  0.6169
  592MOL0     H79877  10.601   1.543  -0.576 -0.9473  2.7266  0.7696
  592MOL0     H79878  10.828   1.430  -0.605 -2.0191 -0.3422 -1.2564
  592MOL0     H79879  10.890   1.556  -0.504  0.0948 -3.7130  1.1296
  592MOL0     H79880  10.858   1.733  -0.927 -0.5936  0.0428  1.2785
  592MOL0     H79881  11.062   1.726  -1.071  1.8640  1.4519  0.0858
  592MOL0     H79882  11.478   1.405  -1.168  0.2465  0.4023 -0.5915
  592MOL0     H79883  11.717   1.432  -1.269  1.1987 -3.0948  2.3534
  592MOL0     H79884  12.008   1.634  -1.335 -1.1178  0.3679 -1.6442
  592MOL0     H79885  11.843   1.688  -1.334 -1.2251 -2.5106  0.0792
  592MOL0     H79886  11.900   1.843  -1.148  1.5528  1.1742  0.6048
  592MOL0     H79887  12.068   1.774  -1.136  3.2088  0.8741 -3.0341
  592MOL0     H79888  11.954   1.914  -1.386  1.4700  1.7005 -0.1435
  592MOL0     H79889  12.023   2.019  -1.268  1.8888  1.2607 -1.6813
  592MOL0     H79890  12.164   1.778  -1.410 -1.7163 -0.2752 -0.2922
  592MOL0     H79891  12.230   1.868  -1.284  1.2068 -2.9998 -1.3649
  592MOL0     H79892  12.126   2.036  -1.512  0.1061 -2.1620 -1.0533
  592MOL0     H79893  12.261   1.941  -1.552 -0.7787 -0.6080 -0.6132
  592MOL0     H79894  12.231   2.121  -1.309 -1.4587  1.4265 -0.2073
  592MOL0     H79895  12.384   2.040  -1.349 -0.0995 -0.5650  1.3383
  592MOL0     H79896  12.278   2.221  -1.562  0.4405  0.8781  1.2398
  592MOL0     H79897  12.440   2.163  -1.530 -0.5293  0.8255 -1.5422
  592MOL0     H79898  12.281   2.366  -1.377  1.0283  4.5457 -0.8363
  592MOL0     H79899  12.434   2.313  -1.325  1.8940  0.1487 -0.8824
  592MOL0     H79900  11.821   1.695  -0.943  0.2750  1.6063 -1.9544
  592MOL0     H79901  11.571   1.691  -0.884 -1.6496 -0.4143 -1.3751
  592MOL0     H79902  11.249   1.482  -0.784 -0.0223 -0.6596  1.5497
  592MOL0     H79903  11.036   1.500  -0.634 -2.5450 -1.1973 -0.1242
  592MOL0     H79904  10.205   0.996   0.990  0.9534 -1.8486  0.3629
  592MOL0     H79905  10.049   0.819   1.088  2.6356 -0.9515  0.5200
  592MOL0     H79906   9.709   0.848   1.342 -1.1289  1.5772  0.0449
  592MOL0     H79907   9.589   0.707   1.495  0.2494  0.4771 -0.6334
  592MOL0     H79908   9.338   0.464   1.622  1.1316  1.5387  2.0245
  592MOL0     H79909   9.423   0.602   1.612  1.3047  0.1827  0.2396
  592MOL0     H79910   9.631   0.520   1.616 -0.3645  1.6938  2.2680
  592MOL0     H79911   9.586   0.348   1.591 -1.3293 -2.0522  1.8371
  592MOL0     H79912   9.633   0.356   1.800 -0.7825 -0.4738  0.6805
  592MOL0     H79913   9.461   0.332   1.789  2.4829 -1.8352  0.4993
  592MOL0     H79914   9.521   0.616   1.831 -2.4522 -0.4763 -2.4874
  592MOL0     H79915   9.387   0.518   1.892  0.2124  0.5448  2.6529
  592MOL0     H79916   9.539   0.443   2.234  1.3743  0.3307  0.1362
  592MOL0     H79917   9.422   0.482   1.185  0.5948  0.6926 -0.8358
  592MOL0     H79918   9.485   0.494   0.972 -1.6119  0.2186 -1.0963
  592MOL0     H79919   9.531   0.655   0.915  1.5484  0.0055 -1.6478
  592MOL0     H79920   9.656   0.522   0.945 -0.5378 -2.6864  4.1085
  593MOL0     O79921   7.716  11.050   8.871 -0.0315 -0.6507 -0.1079
  593MOL0     C79922   7.728  10.969   8.968  0.1366 -0.2109 -0.3051
  593MOL0     O79923   7.840  10.956   9.047  0.3687  0.2959 -0.9544
  593MOL0     C79924   7.940  11.047   9.013  0.9002 -0.5865  0.1258
  593MOL0     C79925   8.033  11.034   8.907  0.4814  0.0947 -0.6535
  593MOL0     C79926   8.137  11.120   8.887 -0.2607 -0.9221 -0.1856
  593MOL0     C79927   8.152  11.231   8.978 -0.2062  0.2906  0.2430
  593MOL0     O79928   8.270  11.307   8.972  0.2876 -0.4449  0.5849
  593MOL0     C79929   8.250  11.440   8.941 -0.4815  0.1835  0.7598
  593MOL0     C79930   8.379  11.511   8.908 -1.0323 -0.1461 -0.8919
  593MOL0     C79931   8.456  11.441   8.797  0.6916  0.7591  0.8206
  593MOL0     C79932   8.577  11.529   8.764  0.4319  1.3080  0.2572
  593MOL0     C79933   8.557  11.600   8.628 -0.0758 -0.1819 -0.8803
  593MOL0     C79934   8.628  11.733   8.609 -0.6247 -0.8400  0.9500
  593MOL0     C79935   8.614  11.787   8.461  0.4933  0.9763  0.3935
  593MOL0     C79936   8.655  11.931   8.446  0.4413 -0.3401 -0.2991
  593MOL0     N79937   8.646  11.992   8.306 -0.1984  0.5390 -0.2182
  593MOL0     C79938   8.545  12.075   8.272 -1.2187 -0.6638 -0.5458
  593MOL0     C79939   8.567  12.120   8.148  0.6293  0.8762 -0.1334
  593MOL0     C79940   8.483  12.204   8.070  0.0677  0.6001 -0.1660
  593MOL0     C79941   8.512  12.228   7.927  0.5416  0.7103 -0.6012
  593MOL0     C79942   8.388  12.265   7.843 -0.4510 -0.0363  0.5004
  593MOL0     C79943   8.312  12.397   7.880  0.4853  0.1779 -0.4028
  593MOL0     O79944   8.221  12.420   7.773 -0.0784  0.3385  0.3012
  593MOL0     C79945   8.123  12.328   7.744 -0.4344 -0.1479 -0.4158
  593MOL0     C79946   8.023  12.305   7.833  0.1422 -0.2528  0.2113
  593MOL0     C79947   7.929  12.211   7.803 -0.5844 -0.2277  1.0507
  593MOL0     C79948   7.946  12.122   7.692 -0.5182  0.7948  0.8172
  593MOL0     C79949   7.857  12.011   7.668  0.0733  0.5854  0.1817
  593MOL0     O79950   7.893  11.922   7.569  0.5018  0.5288 -0.5305
  593MOL0     C79951   7.797  11.831   7.515  0.4764 -0.5058  0.6432
  593MOL0     C79952   7.658  11.872   7.506  0.0613  0.2074  0.1141
  593MOL0     C79953   7.556  11.793   7.453 -0.3811 -0.9044  0.8379
  593MOL0     C79954   7.599  11.673   7.396  0.2424 -0.1163  0.5723
  593MOL0     O79955   7.506  11.590   7.337 -0.6611 -0.0543  0.7274
  593MOL0     C79956   7.493  11.465   7.413  0.1959 -0.0439  0.6664
  593MOL0     C79957   7.361  11.391   7.373 -0.3644 -0.0659 -0.4448
  593MOL0     C79958   7.357  11.345   7.232  0.1617  0.1400  0.5115
  593MOL0     C79959   7.207  11.319   7.201 -0.3160 -0.6974  0.1535
  593MOL0     C79960   7.196  11.251   7.065  0.3186  0.1381  0.7309
  593MOL0     C79961   7.053  11.261   7.015  0.5279  0.0891  0.6875
  593MOL0     C79962   7.027  11.223   6.869 -0.8189  0.4285 -0.8631
  593MOL0     C79963   6.884  11.183   6.838  0.7228  0.6797 -0.2651
  593MOL0    Cl79964   6.769  11.331   6.832  0.0784 -0.0753  0.2047
  593MOL0     C79965   7.729  11.634   7.408 -0.3854  0.3705 -0.5464
  593MOL0     C79966   7.825  11.709   7.470 -0.4807  0.6615  0.9022
  593MOL0     O79967   7.763  11.998   7.743 -0.0120 -0.0658  0.7871
  593MOL0     C79968   8.036  12.157   7.593 -1.1204  0.6729 -0.5671
  593MOL0     C79969   8.133  12.256   7.619  0.1784 -0.1123 -1.2390
  593MOL0     N79970   8.675  12.054   8.106  0.7657  0.0473  0.3076
  593MOL0     N79971   8.725  11.980   8.197 -0.5117  0.2385  0.6708
  593MOL0     C79972   8.061  11.243   9.079  0.8257 -0.4461 -0.1799
  593MOL0     C79973   7.958  11.154   9.096 -0.1973  0.1549 -0.6965
  593MOL0     C79974   7.614  10.882   9.011 -1.2230 -0.8404  0.6327
  593MOL0     C79975   7.642  10.763   9.080 -0.2407 -0.1783 -0.2057
  593MOL0     C79976   7.540  10.678   9.118  0.0469  0.4849  0.6618
  593MOL0     C79977   7.402  10.703   9.098  0.0304 -0.6223 -0.1021
  593MOL0     O79978   7.299  10.622   9.126 -0.3558 -1.3992 -0.1019
  593MOL0     C79979   7.325  10.479   9.133 -0.4002 -1.0324  0.2684
  593MOL0     C79980   7.203  10.400   9.087  0.4852 -0.0860 -0.3081
  593MOL0     C79981   7.251  10.254   9.093 -0.1272 -0.5339 -0.4870
  593MOL0     C79982   7.260  10.192   9.232  0.4956 -0.2519 -0.0424
  593MOL0     C79983   7.138  10.207   9.313 -0.1135 -0.0048  0.3943
  593MOL0     C79984   7.028  10.216   9.376 -1.0596 -0.7612  0.4565
  593MOL0     C79985   7.375  10.823   9.022  0.0534  0.3657  0.1444
  593MOL0     C79986   7.477  10.902   8.971  0.4448  1.1345 -0.1052
  593MOL0     C79987   7.431  11.011   8.883 -0.3140  0.2706 -0.7931
  593MOL0     H79988   8.006  10.963   8.830 -1.2500 -1.7202  1.4568
  593MOL0     H79989   8.212  11.092   8.814  0.8269 -2.9674  1.6292
  593MOL0     H79990   8.190  11.447   8.850  0.7298 -1.9027 -0.2889
  593MOL0     H79991   8.201  11.480   9.030 -1.5629 -3.2611  1.8552
  593MOL0     H79992   8.437  11.526   9.000  1.3530 -1.5682 -2.0667
  593MOL0     H79993   8.347  11.611   8.876 -2.1326  0.0661  0.7681
  593MOL0     H79994   8.378  11.433   8.721 -1.5776 -0.2656  3.0945
  593MOL0     H79995   8.499  11.344   8.823  4.8244  1.3109 -2.7344
  593MOL0     H79996   8.606  11.588   8.852 -2.6441 -0.5132  2.7278
  593MOL0     H79997   8.659  11.460   8.740  0.3524  2.2711 -3.3543
  593MOL0     H79998   8.578  11.529   8.547 -1.8382 -0.2719 -1.3058
  593MOL0     H79999   8.451  11.619   8.608 -0.5363  0.2252  1.6268
  593MOL0     H80000   8.581  11.811   8.669  1.0054  2.8090 -2.1519
  593MOL0     H80001   8.735  11.732   8.633 -0.5053  2.2050  0.8695
  593MOL0     H80002   8.509  11.784   8.431  1.0364  4.0331 -2.5213
  593MOL0     H80003   8.659  11.723   8.385 -0.9903  0.2345  0.1003
  593MOL0     H80004   8.608  11.994   8.521  0.7548 -1.4213  0.8397
  593MOL0     H80005   8.764  11.937   8.459  0.1011 -0.0578  3.2293
  593MOL0     H80006   8.456  12.110   8.325 -1.7985 -1.1306 -1.1934
  593MOL0     H80007   8.385  12.156   8.079  1.1536 -1.8477 -0.7575
  593MOL0     H80008   8.480  12.306   8.110 -0.4757  0.2151  0.8173
  593MOL0     H80009   8.585  12.309   7.924 -1.2885  2.4642  0.2421
  593MOL0     H80010   8.542  12.140   7.869 -0.6742 -0.1318  0.0086
  593MOL0     H80011   8.325  12.177   7.829 -0.7005 -0.0488  1.5761
  593MOL0     H80012   8.435  12.288   7.747  1.4841 -0.4588  1.2974
  593MOL0     H80013   8.391  12.469   7.904  0.5957 -0.2918  0.6926
  593MOL0     H80014   8.255  12.371   7.970  0.4024 -2.5942 -1.1660
  593MOL0     H80015   8.022  12.362   7.926 -0.1294 -0.6651  0.4633
  593MOL0     H80016   7.844  12.190   7.868  0.0443 -2.1339  1.3255
  593MOL0     H80017   7.621  11.969   7.538 -1.4082  0.6941 -2.7006
  593MOL0     H80018   7.453  11.826   7.454  0.1744  1.2112 -1.5640
  593MOL0     H80019   7.577  11.399   7.391  0.7938  0.9409 -0.1231
  593MOL0     H80020   7.490  11.499   7.517  1.2339 -1.1127  1.0594
  593MOL0     H80021   7.370  11.297   7.428  0.3225 -0.6375 -1.5246
  593MOL0     H80022   7.270  11.449   7.394 -0.1700 -0.5060  1.9644
  593MOL0     H80023   7.398  11.426   7.170 -0.8168 -0.5657 -1.1163
  593MOL0     H80024   7.421  11.257   7.220  2.5999  2.0542 -1.6812
  593MOL0     H80025   7.145  11.409   7.202 -1.8251 -1.6958  1.5748
  593MOL0     H80026   7.175  11.249   7.279 -3.6851 -1.7329 -1.9246
  593MOL0     H80027   7.248  11.155   7.061  2.8568  1.2646  3.1471
  593MOL0     H80028   7.250  11.310   6.990 -1.9195  0.7776 -0.4790
  593MOL0     H80029   6.989  11.201   7.081  1.4992  0.2297  1.7879
  593MOL0     H80030   7.011  11.360   7.035 -0.1870 -0.2655  0.9986
  593MOL0     H80031   7.091  11.140   6.840 -0.9770 -0.1327  0.3515
  593MOL0     H80032   7.066  11.313   6.819 -0.6446  0.4837 -0.6254
  593MOL0     H80033   6.870  11.117   6.752 -1.8899  1.4469 -0.5170
  593MOL0     H80034   6.861  11.113   6.919  0.4559 -0.7602 -1.5409
  593MOL0     H80035   7.757  11.538   7.367 -0.8290  0.2327 -0.5324
  593MOL0     H80036   7.925  11.669   7.486 -0.9682  0.0217  2.6015
  593MOL0     H80037   8.049  12.097   7.503 -2.5482  2.3641 -1.9680
  593MOL0     H80038   8.204  12.272   7.539 -0.2629 -0.6383 -1.7391
  593MOL0     H80039   8.075  11.314   9.160 -2.0377  0.4697 -0.3523
  593MOL0     H80040   7.903  11.158   9.190 -4.9063 -1.7701 -3.0256
  593MOL0     H80041   7.742  10.751   9.121 -0.4486 -0.1128  0.3324
  593MOL0     H80042   7.557  10.587   9.174 -2.1137 -0.5474 -0.2476
  593MOL0     H80043   7.349  10.451   9.236 -2.4993  2.8564  2.0111
  593MOL0     H80044   7.408  10.464   9.063  0.7109  1.7509  0.8591
  593MOL0     H80045   7.184  10.421   8.981  1.1573  0.1958 -0.3812
  593MOL0     H80046   7.115  10.421   9.147 -0.6147 -0.3963 -1.7570
  593MOL0     H80047   7.345  10.233   9.042 -0.2767 -1.2763 -0.4805
  593MOL0     H80048   7.180  10.189   9.041 -1.7416  0.7925 -0.0299
  593MOL0     H80049   7.274  10.084   9.229  0.2179 -0.2777 -0.7025
  593MOL0     H80050   7.343  10.244   9.280  0.3589  1.1514 -1.2521
  593MOL0     H80051   6.927  10.237   9.405 -2.1656 -2.4562 -1.8997
  593MOL0     H80052   7.270  10.843   9.007 -0.1137  0.6457  1.5432
  593MOL0     H80053   7.478  10.988   8.787  0.4893 -0.4444 -0.2475
  593MOL0     H80054   7.324  11.008   8.860 -0.8475  1.9524  1.1292
  593MOL0     H80055   7.456  11.110   8.922  0.7287 -0.3266  0.1120
  594MOL0     O80056   3.286   4.702   2.950  0.3848 -0.3036 -0.2003
  594MOL0     C80057   3.283   4.636   3.053  0.5338  0.6347  0.2293
  594MOL0     O80058   3.296   4.501   3.057 -0.8479 -0.3351  0.3376
  594MOL0     C80059   3.354   4.431   2.958 -0.0633  0.5533 -0.7919
  594MOL0     C80060   3.476   4.376   2.994 -0.3205  0.4707 -0.4905
  594MOL0     C80061   3.542   4.290   2.898 -0.5248 -0.2114 -1.2564
  594MOL0     C80062   3.488   4.258   2.777  0.1892  0.0978  0.1728
  594MOL0     O80063   3.554   4.182   2.690  0.1104  0.6281  0.2688
  594MOL0     C80064   3.663   4.096   2.728 -0.8011 -0.1183  0.2829
  594MOL0     C80065   3.711   4.016   2.600  0.3860  0.3098  0.1178
  594MOL0     C80066   3.630   3.891   2.584  0.5928  0.9302  0.6170
  594MOL0     C80067   3.492   3.913   2.528 -0.6992  0.6161  0.6549
  594MOL0     C80068   3.407   3.790   2.518 -0.4491  0.6352  0.4350
  594MOL0     C80069   3.476   3.663   2.451 -0.1205 -1.2301 -0.6425
  594MOL0     C80070   3.519   3.686   2.310 -0.1140  0.2489  0.1717
  594MOL0     C80071   3.405   3.721   2.215 -0.6640  0.0695  0.0828
  594MOL0     N80072   3.451   3.689   2.075  0.0584 -0.2456  0.2727
  594MOL0     C80073   3.405   3.591   1.993 -0.0920  0.7815 -0.8297
  594MOL0     C80074   3.454   3.619   1.877 -1.0257 -0.1713 -0.0312
  594MOL0     C80075   3.440   3.526   1.760  0.5051 -0.6791 -0.2591
  594MOL0     C80076   3.335   3.594   1.667  0.2358  0.3525 -0.6052
  594MOL0     C80077   3.298   3.499   1.562 -0.2871 -0.3507  0.6133
  594MOL0     C80078   3.235   3.565   1.447 -0.1028 -0.1558  0.3413
  594MOL0     O80079   3.236   3.483   1.324  0.5371 -0.8755 -0.3661
  594MOL0     C80080   3.157   3.376   1.314 -0.2569 -0.1829 -0.4402
  594MOL0     C80081   3.035   3.368   1.386 -0.6709 -1.0204 -0.1545
  594MOL0     C80082   2.957   3.253   1.382 -1.0331 -0.1311  0.4089
  594MOL0     C80083   2.982   3.138   1.305 -0.2860 -0.1702 -0.5689
  594MOL0     C80084   2.884   3.032   1.284 -0.0871  0.3118 -0.2528
  594MOL0     O80085   2.911   2.956   1.173  0.5062  0.2889  0.0775
  594MOL0     C80086   2.852   2.829   1.161  0.1209 -0.5861  0.1019
  594MOL0     C80087   2.821   2.740   1.269  0.4343 -0.0513 -0.6081
  594MOL0     C80088   2.772   2.615   1.244  0.6695 -0.0729  0.3157
  594MOL0     C80089   2.742   2.566   1.116 -0.1403 -0.7031 -0.0914
  594MOL0     O80090   2.692   2.442   1.107  0.4308 -0.1818 -0.2366
  594MOL0     C80091   2.760   2.362   1.000  0.4821  0.5650  0.4552
  594MOL0     C80092   2.700   2.216   0.997  0.5539  0.3467 -0.2268
  594MOL0     C80093   2.551   2.212   0.971  1.0733 -0.2727  0.7814
  594MOL0     C80094   2.514   2.067   0.972 -0.3988  0.2137  0.6815
  594MOL0     C80095   2.363   2.042   0.994  0.6537 -0.2787 -0.9171
  594MOL0     C80096   2.319   1.903   0.980  1.2498 -0.4226 -0.5046
  594MOL0     C80097   2.163   1.908   0.981 -0.7487 -0.2588  0.4174
  594MOL0     C80098   2.093   1.791   0.902 -0.4387  0.0301  0.0658
  594MOL0    Cl80099   2.113   1.634   0.989 -0.0095 -0.8005 -0.2478
  594MOL0     C80100   2.760   2.658   1.013 -0.4918  0.3684  0.9354
  594MOL0     C80101   2.820   2.789   1.030  1.1460  0.2859  0.0952
  594MOL0     O80102   2.787   3.018   1.362 -0.1078  0.5607  0.1438
  594MOL0     C80103   3.107   3.149   1.233 -0.9850 -0.1119 -0.3160
  594MOL0     C80104   3.192   3.270   1.236 -0.7631 -0.2777  0.2850
  594MOL0     N80105   3.513   3.742   1.886 -0.5099  0.3277  0.1988
  594MOL0     N80106   3.523   3.785   2.006 -0.6160 -0.0267 -0.5735
  594MOL0     C80107   3.367   4.324   2.743  0.5356 -0.6349  0.4917
  594MOL0     C80108   3.299   4.395   2.839  0.4977 -1.0796 -0.1944
  594MOL0     C80109   3.270   4.695   3.193  0.0670 -1.2574 -0.0593
  594MOL0     C80110   3.301   4.604   3.296 -0.1736 -0.9126  0.6479
  594MOL0     C80111   3.345   4.656   3.421  0.0362  0.4367 -0.3867
  594MOL0     C80112   3.342   4.789   3.447 -0.7899 -0.2652 -0.8680
  594MOL0     O80113   3.378   4.825   3.572  0.2039  0.4464 -0.4028
  594MOL0     C80114   3.285   4.831   3.675  0.3275  0.2212  0.3582
  594MOL0     C80115   3.326   4.923   3.793 -0.4947  0.1258  0.9877
  594MOL0     C80116   3.335   5.069   3.752 -0.7044 -1.8999  0.9669
  594MOL0     C80117   3.470   5.107   3.697  0.5477 -0.3593  0.6522
  594MOL0     C80118   3.488   5.251   3.707  1.2402  0.4066  0.3280
  594MOL0     C80119   3.505   5.369   3.715  1.1431  0.7038 -0.9796
  594MOL0     C80120   3.281   4.870   3.353  0.2455  0.3782 -0.1599
  594MOL0     C80121   3.249   4.833   3.225  0.1758  0.6619 -0.4368
  594MOL0     C80122   3.204   4.943   3.130 -0.1830 -0.7690  0.0919
  594MOL0     H80123   3.525   4.407   3.085 -1.3634  2.4859 -0.5610
  594MOL0     H80124   3.634   4.239   2.925  1.5346  2.5242 -2.6556
  594MOL0     H80125   3.744   4.159   2.767  0.7281 -0.6640 -1.8404
  594MOL0     H80126   3.626   4.025   2.802  0.6050 -2.1128 -0.8443
  594MOL0     H80127   3.817   3.990   2.593  0.0871 -1.0555  0.3769
  594MOL0     H80128   3.695   4.090   2.521 -2.1579  0.1182  0.3504
  594MOL0     H80129   3.622   3.826   2.671 -0.8287 -3.2454 -2.2764
  594MOL0     H80130   3.682   3.834   2.506 -3.6892  1.7939 -3.3320
  594MOL0     H80131   3.435   3.981   2.592 -2.5621  0.5755 -0.8654
  594MOL0     H80132   3.511   3.964   2.433  0.7628 -1.0400  0.0080
  594MOL0     H80133   3.386   3.763   2.622 -1.6712  3.7284  1.0879
  594MOL0     H80134   3.318   3.809   2.458 -0.9540 -2.7436 -0.0886
  594MOL0     H80135   3.566   3.645   2.509  0.0571  0.1538 -0.4634
  594MOL0     H80136   3.411   3.575   2.454 -0.2210 -1.1257  0.6143
  594MOL0     H80137   3.574   3.595   2.282  1.7397 -0.1962  4.5075
  594MOL0     H80138   3.593   3.767   2.313 -3.0184  3.1619 -1.2903
  594MOL0     H80139   3.322   3.654   2.240  1.4783 -3.0686 -0.6487
  594MOL0     H80140   3.379   3.827   2.222  2.0084  0.7224  1.4136
  594MOL0     H80141   3.347   3.507   2.031  0.6101 -0.1522 -1.7677
  594MOL0     H80142   3.537   3.515   1.710 -0.0125  2.0168 -2.0467
  594MOL0     H80143   3.406   3.431   1.802 -2.2790 -0.0693 -0.9551
  594MOL0     H80144   3.245   3.617   1.725  0.5397  0.4145 -0.1530
  594MOL0     H80145   3.384   3.685   1.632 -1.9885  2.6642  1.8161
  594MOL0     H80146   3.240   3.415   1.601 -1.5961  0.2256 -0.0296
  594MOL0     H80147   3.391   3.449   1.534  0.0163  1.0100 -0.9579
  594MOL0     H80148   3.287   3.660   1.428  2.6746 -1.7750 -0.7287
  594MOL0     H80149   3.135   3.594   1.479  0.3720  0.0093  1.7522
  594MOL0     H80150   3.011   3.436   1.468  1.5052 -2.5847  1.9114
  594MOL0     H80151   2.882   3.249   1.461  0.5312 -0.8185  1.9215
  594MOL0     H80152   2.836   2.774   1.371  3.2709 -1.4335 -0.4689
  594MOL0     H80153   2.768   2.539   1.322  1.3834 -0.5684 -0.1205
  594MOL0     H80154   2.753   2.400   0.898  5.6475  0.7645 -0.0919
  594MOL0     H80155   2.865   2.344   1.023  0.3997  0.4725  0.7727
  594MOL0     H80156   2.756   2.162   0.920  0.1603 -1.5979  0.7974
  594MOL0     H80157   2.728   2.171   1.093  0.2554 -4.2654 -2.0640
  594MOL0     H80158   2.497   2.270   1.047  0.0006 -0.7050  0.3781
  594MOL0     H80159   2.528   2.263   0.877  0.9122  5.5255  3.5185
  594MOL0     H80160   2.565   2.018   1.055 -0.7846  0.4012  1.0307
  594MOL0     H80161   2.546   2.020   0.878 -1.8226  0.8687 -0.1772
  594MOL0     H80162   2.307   2.109   0.928 -2.6284 -1.2460  0.6893
  594MOL0     H80163   2.330   2.092   1.086  1.7335 -0.2828 -0.5038
  594MOL0     H80164   2.359   1.877   0.881  0.5231 -1.6596 -0.4892
  594MOL0     H80165   2.354   1.849   1.069  1.0506  3.2712  2.0162
  594MOL0     H80166   2.130   1.999   0.929 -0.1232 -1.0069 -1.3733
  594MOL0     H80167   2.129   1.901   1.084 -1.3629 -1.5162  0.1544
  594MOL0     H80168   1.988   1.816   0.886 -0.1144  0.6586 -1.2271
  594MOL0     H80169   2.129   1.800   0.799  0.2888  3.8979  0.5097
  594MOL0     H80170   2.747   2.627   0.910 -1.3587 -0.4070  1.2649
  594MOL0     H80171   2.865   2.839   0.944  2.4006 -0.2069  0.4364
  594MOL0     H80172   3.139   3.061   1.179  1.6484 -2.1505  4.0403
  594MOL0     H80173   3.290   3.267   1.191  0.4781  0.2260  2.7842
  594MOL0     H80174   3.332   4.311   2.641  0.0786  2.5218  0.1372
  594MOL0     H80175   3.198   4.430   2.820 -0.7723 -2.2627  3.4729
  594MOL0     H80176   3.294   4.496   3.284 -1.4728 -1.5355  5.1448
  594MOL0     H80177   3.366   4.590   3.504 -0.3279 -1.1884 -1.5437
  594MOL0     H80178   3.287   4.728   3.711 -1.1988 -0.0524 -0.2697
  594MOL0     H80179   3.179   4.848   3.655  0.4742  1.8221  0.7473
  594MOL0     H80180   3.420   4.897   3.843  1.7756 -0.6834 -3.2303
  594MOL0     H80181   3.245   4.915   3.866  2.0010 -1.7386  3.8324
  594MOL0     H80182   3.321   5.129   3.843  1.3737 -1.3588  0.9932
  594MOL0     H80183   3.260   5.086   3.674 -0.4808 -1.5574  0.8231
  594MOL0     H80184   3.541   5.049   3.757 -1.0599 -3.0749  0.0928
  594MOL0     H80185   3.490   5.071   3.595  1.8823 -1.0717  1.1360
  594MOL0     H80186   3.534   5.472   3.709  0.7880  0.7857 -1.3240
  594MOL0     H80187   3.266   4.975   3.375  0.7269  0.7875 -1.6318
  594MOL0     H80188   3.096   4.960   3.139  0.0748 -0.1676  3.4941
  594MOL0     H80189   3.261   5.035   3.145 -1.1763 -0.0578 -0.4231
  594MOL0     H80190   3.231   4.930   3.025 -0.9048  2.5666 -0.6069
  595MOL0     O80191   6.695   7.211   2.441  0.3698  0.1595  0.3439
  595MOL0     C80192   6.639   7.311   2.391  0.8059  0.5889 -0.6973
  595MOL0     O80193   6.515   7.320   2.338 -0.2594 -0.2033 -0.3424
  595MOL0     C80194   6.448   7.195   2.328 -0.4270 -0.1378 -0.5172
  595MOL0     C80195   6.465   7.114   2.212  0.2363  0.8312 -0.4299
  595MOL0     C80196   6.393   6.989   2.210  0.1855 -0.2924  0.7489
  595MOL0     C80197   6.303   6.947   2.300 -0.0711  0.7151  0.9615
  595MOL0     O80198   6.243   6.831   2.293  0.5018  0.4017  0.8300
  595MOL0     C80199   6.104   6.839   2.277  0.8828  0.4056  0.4500
  595MOL0     C80200   6.053   6.722   2.195 -0.5703  0.1421  0.3057
  595MOL0     C80201   6.091   6.582   2.257 -0.1700 -0.5941 -0.2075
  595MOL0     C80202   5.993   6.480   2.219 -0.7605 -0.9618  0.3782
  595MOL0     C80203   6.043   6.345   2.279  0.1144  0.3876  0.3239
  595MOL0     C80204   5.950   6.233   2.240  0.4584 -0.2536 -0.3348
  595MOL0     C80205   6.004   6.096   2.287 -0.4011  0.6728  0.5627
  595MOL0     C80206   5.980   5.984   2.182  0.4482 -0.1004  0.1779
  595MOL0     N80207   6.011   5.861   2.258 -0.5899 -0.1413  0.7618
  595MOL0     C80208   6.091   5.758   2.211  0.3667 -0.0933  0.5397
  595MOL0     C80209   6.056   5.648   2.282 -0.9621 -1.0263  0.3167
  595MOL0     C80210   6.127   5.515   2.274  0.3706 -0.9621  0.0121
  595MOL0     C80211   6.287   5.533   2.258  0.4394 -0.0487  0.7582
  595MOL0     C80212   6.373   5.446   2.344 -0.9246 -0.7982  0.0578
  595MOL0     C80213   6.521   5.459   2.307 -0.0786  0.2370 -0.8550
  595MOL0     O80214   6.591   5.401   2.420  0.6607  0.2272 -0.4203
  595MOL0     C80215   6.590   5.469   2.538 -0.0725 -0.2967  0.4682
  595MOL0     C80216   6.601   5.617   2.546 -0.3016 -0.0194  0.8247
  595MOL0     C80217   6.606   5.680   2.666 -0.0809  0.5329 -1.0249
  595MOL0     C80218   6.625   5.601   2.784 -0.3335 -0.6388 -0.9695
  595MOL0     C80219   6.669   5.668   2.908  0.4223 -0.2554  0.0532
  595MOL0     O80220   6.626   5.800   2.909  0.5835 -0.2746  0.0348
  595MOL0     C80221   6.661   5.891   3.009  0.3140 -0.2684  0.1125
  595MOL0     C80222   6.679   5.867   3.150  0.6218  0.2698  0.2204
  595MOL0     C80223   6.724   5.964   3.235 -0.1110 -0.0007 -0.0862
  595MOL0     C80224   6.749   6.094   3.193  0.1732 -0.2499  0.7084
  595MOL0     O80225   6.789   6.201   3.277  0.1845 -0.4861  0.5650
  595MOL0     C80226   6.930   6.229   3.281 -0.8496 -0.8753  0.3424
  595MOL0     C80227   6.943   6.385   3.283 -0.2504  0.1487  0.0774
  595MOL0     C80228   7.057   6.440   3.198  0.3001  0.4272  0.2189
  595MOL0     C80229   7.086   6.583   3.251  0.0511 -0.5118  0.0597
  595MOL0     C80230   7.205   6.639   3.174 -0.4176  0.0576  0.3603
  595MOL0     C80231   7.198   6.798   3.154  1.2372  0.2588  0.5349
  595MOL0     C80232   7.314   6.859   3.072 -0.0508 -0.2167 -0.0267
  595MOL0     C80233   7.349   6.779   2.946  0.6272  0.2241  0.4393
  595MOL0    Cl80234   7.449   6.632   2.980 -0.3077 -0.5864  0.4516
  595MOL0     C80235   6.713   6.122   3.054  0.0202  0.4700 -0.2673
  595MOL0     C80236   6.673   6.025   2.958  0.3453  0.3800 -0.7724
  595MOL0     O80237   6.746   5.611   2.993  0.2064 -0.3330 -0.7506
  595MOL0     C80238   6.625   5.464   2.775 -0.4831 -0.2483  0.9919
  595MOL0     C80239   6.602   5.400   2.655 -0.3308  0.3144 -0.2510
  595MOL0     N80240   5.951   5.675   2.361 -0.8181 -0.1643  0.4929
  595MOL0     N80241   5.933   5.805   2.351 -1.3353 -0.1457  0.3489
  595MOL0     C80242   6.280   7.037   2.410 -0.0792  0.6615  0.2366
  595MOL0     C80243   6.352   7.159   2.421 -0.2762 -0.2842 -0.1743
  595MOL0     C80244   6.716   7.443   2.400  0.7905 -0.5303 -0.1371
  595MOL0     C80245   6.674   7.533   2.306  0.0821  0.0658 -0.2636
  595MOL0     C80246   6.721   7.666   2.308 -0.1771  0.7113  0.2801
  595MOL0     C80247   6.813   7.703   2.409  0.1782 -0.8410 -0.1211
  595MOL0     O80248   6.862   7.833   2.400  0.4352 -0.0616 -0.0404
  595MOL0     C80249   6.980   7.872   2.464  0.5549 -0.3927  1.5066
  595MOL0     C80250   7.105   7.803   2.407 -0.8929  0.1083  0.4579
  595MOL0     C80251   7.117   7.804   2.252 -0.4343 -1.2693 -0.5119
  595MOL0     C80252   7.261   7.750   2.215  0.9741 -0.0205 -0.4552
  595MOL0     C80253   7.343   7.856   2.160 -0.7210  0.1770  0.8020
  595MOL0     C80254   7.413   7.939   2.102 -0.4536  0.7016 -0.8179
  595MOL0     C80255   6.867   7.607   2.492  1.5677  0.4748 -0.1112
  595MOL0     C80256   6.812   7.476   2.497 -0.7327  0.7061 -0.0825
  595MOL0     C80257   6.887   7.378   2.592 -0.2127  0.4191  0.6549
  595MOL0     H80258   6.542   7.135   2.138  2.8484 -1.9362  1.2731
  595MOL0     H80259   6.398   6.918   2.128  3.0128  0.6517 -0.0040
  595MOL0     H80260   6.049   6.836   2.372  0.3505 -2.4157  0.1424
  595MOL0     H80261   6.066   6.931   2.232  0.7841  0.6709  1.0693
  595MOL0     H80262   6.105   6.731   2.100  0.6351 -1.9115  0.7227
  595MOL0     H80263   5.944   6.731   2.199 -0.7388 -1.3060 -0.3570
  595MOL0     H80264   6.090   6.596   2.366  2.8404  0.2911 -0.2118
  595MOL0     H80265   6.195   6.556   2.236 -0.3822 -1.4302 -0.2723
  595MOL0     H80266   5.893   6.502   2.259 -1.0481  2.4348 -1.7433
  595MOL0     H80267   5.984   6.474   2.110 -1.8377 -0.2474  0.4081
  595MOL0     H80268   6.148   6.330   2.254  0.9494  0.1551  3.4612
  595MOL0     H80269   6.045   6.360   2.388  0.9674  1.4585  0.1741
  595MOL0     H80270   5.850   6.260   2.276  1.3943  2.2762  0.5665
  595MOL0     H80271   5.948   6.227   2.130  2.9067  0.8056 -0.4840
  595MOL0     H80272   5.964   6.082   2.388 -1.6837 -1.3084 -0.1641
  595MOL0     H80273   6.113   6.106   2.283  0.1476 -3.4457  1.1499
  595MOL0     H80274   5.881   5.979   2.137  0.6118 -4.2902 -0.1206
  595MOL0     H80275   6.041   5.991   2.091 -1.4085 -1.1410 -1.2038
  595MOL0     H80276   6.178   5.767   2.147  0.8497  2.8346  1.4703
  595MOL0     H80277   6.106   5.454   2.363 -0.0600 -0.3208  0.3609
  595MOL0     H80278   6.081   5.462   2.191  2.6298 -3.7914  0.4170
  595MOL0     H80279   6.321   5.528   2.154  0.8956 -0.5680  0.9344
  595MOL0     H80280   6.316   5.634   2.289  1.2440 -0.7498  2.3587
  595MOL0     H80281   6.340   5.342   2.350 -0.7237 -0.8228  0.9611
  595MOL0     H80282   6.365   5.491   2.443 -0.9917  2.1026 -1.1644
  595MOL0     H80283   6.561   5.558   2.286  4.2051 -1.3959 -1.4523
  595MOL0     H80284   6.524   5.391   2.221 -3.0924 -2.5068  0.9989
  595MOL0     H80285   6.603   5.684   2.461  4.7318  0.0186  0.6636
  595MOL0     H80286   6.604   5.788   2.679  0.2581  0.3625  0.7853
  595MOL0     H80287   6.666   5.769   3.196  0.8419 -0.3528 -1.0169
  595MOL0     H80288   6.742   5.944   3.340 -0.0589  0.7181  0.0462
  595MOL0     H80289   6.965   6.186   3.375 -0.1939  4.4508  2.8684
  595MOL0     H80290   6.990   6.193   3.197  1.4692 -0.1853  1.6390
  595MOL0     H80291   6.848   6.431   3.253  1.5051  2.3826 -2.3933
  595MOL0     H80292   6.963   6.402   3.389 -4.5290  0.9798  0.9384
  595MOL0     H80293   7.140   6.369   3.196 -0.2529 -0.2089 -0.5719
  595MOL0     H80294   7.032   6.442   3.091  1.1826  0.5148  0.0026
  595MOL0     H80295   7.095   6.578   3.360 -2.0457  0.2433  0.3060
  595MOL0     H80296   6.998   6.644   3.229  0.9166  1.4397  1.6833
  595MOL0     H80297   7.197   6.596   3.074 -6.5344  1.8271 -0.2991
  595MOL0     H80298   7.301   6.606   3.215 -0.0840  0.7125  0.1297
  595MOL0     H80299   7.100   6.831   3.118  1.0988  1.3157  1.8156
  595MOL0     H80300   7.198   6.844   3.253 -3.0627 -1.2349  1.4328
  595MOL0     H80301   7.398   6.874   3.140 -0.0077 -0.8726  0.0719
  595MOL0     H80302   7.280   6.956   3.035 -1.4223 -1.0826 -1.1682
  595MOL0     H80303   7.258   6.731   2.910  0.0684 -0.0005  2.0801
  595MOL0     H80304   7.397   6.837   2.867  3.0214  0.5182  2.0174
  595MOL0     H80305   6.734   6.225   3.027  0.8832  0.4677  0.3710
  595MOL0     H80306   6.650   6.055   2.856 -2.9102  0.4492 -0.1160
  595MOL0     H80307   6.653   5.405   2.862  1.1366  0.5341  1.0332
  595MOL0     H80308   6.610   5.292   2.661 -0.4874  0.2235 -1.4681
  595MOL0     H80309   6.207   7.024   2.489  0.0056 -2.8755 -0.1195
  595MOL0     H80310   6.326   7.230   2.500  3.5816  2.4616 -1.0983
  595MOL0     H80311   6.600   7.514   2.230  0.8317  0.0025 -0.9847
  595MOL0     H80312   6.687   7.733   2.230  0.1007 -2.9794 -3.3964
  595MOL0     H80313   6.973   7.834   2.567  1.1844  1.4609  2.2707
  595MOL0     H80314   6.996   7.980   2.469  2.7014 -0.4822 -1.1109
  595MOL0     H80315   7.119   7.704   2.451  0.5622 -0.1201 -0.4497
  595MOL0     H80316   7.188   7.861   2.449 -2.4445  2.4231  0.5325
  595MOL0     H80317   7.105   7.906   2.214 -0.5860 -0.0453  2.5638
  595MOL0     H80318   7.030   7.744   2.221 -3.6387  1.9517  1.4282
  595MOL0     H80319   7.313   7.706   2.301 -0.4628 -1.1171 -0.0960
  595MOL0     H80320   7.248   7.682   2.130  0.6237  2.4157 -2.4555
  595MOL0     H80321   7.463   8.017   2.049 -0.4660  0.0981 -1.7323
  595MOL0     H80322   6.948   7.634   2.560  1.0337 -0.1436  0.7924
  595MOL0     H80323   6.816   7.338   2.666 -3.2036 -1.4134 -2.8425
  595MOL0     H80324   6.929   7.294   2.538 -0.9836  0.4468 -0.0098
  595MOL0     H80325   6.977   7.433   2.622 -0.1321  1.3375 -1.1490
  596MOL0     O80326   1.344   0.153   6.170 -0.1910  1.1911 -0.7326
  596MOL0     C80327   1.442   0.113   6.106 -0.4713  0.1433 -0.8034
  596MOL0     O80328   1.574   0.133   6.126 -0.4364  0.7299  0.0814
  596MOL0     C80329   1.615   0.183   6.251  0.2061  0.2633  0.2475
  596MOL0     C80330   1.589   0.306   6.308 -0.0188  0.1846 -0.2010
  596MOL0     C80331   1.647   0.342   6.430 -0.0261 -0.3589 -0.0748
  596MOL0     C80332   1.729   0.257   6.493  0.1977 -0.4156 -0.2524
  596MOL0     O80333   1.785   0.290   6.614 -0.2943  0.4267  0.2186
  596MOL0     C80334   1.921   0.344   6.605  0.0987 -0.4739 -0.3929
  596MOL0     C80335   2.033   0.251   6.658  0.5293 -0.7991  0.2749
  596MOL0     C80336   1.987   0.162   6.770  0.2941 -0.5207  0.2614
  596MOL0     C80337   2.110   0.103   6.835  0.1853  0.0370  0.0507
  596MOL0     C80338   2.086  -0.019   6.922 -0.3702  0.1588 -0.1080
  596MOL0     C80339   2.225  -0.088   6.956  0.5835 -1.1178  0.5274
  596MOL0     C80340   2.213  -0.195   7.063  0.4244  0.3298  0.8887
  596MOL0     C80341   2.237  -0.156   7.208  0.2609  0.1606  1.0511
  596MOL0     N80342   2.122  -0.074   7.245 -0.2455  0.2036  0.2625
  596MOL0     C80343   2.140   0.061   7.271  0.7380  0.4235 -0.9579
  596MOL0     C80344   2.016   0.103   7.299 -0.4534 -0.9107  0.0898
  596MOL0     C80345   1.976   0.232   7.338 -0.2445  0.6726  0.9187
  596MOL0     C80346   1.912   0.311   7.218  1.1989  0.5617 -0.2255
  596MOL0     C80347   2.020   0.367   7.128  0.2294 -0.4104 -0.2121
  596MOL0     C80348   1.982   0.463   7.021  0.8400 -0.1229  0.4174
  596MOL0     O80349   2.102   0.521   6.959  0.4440  0.0000 -0.0719
  596MOL0     C80350   2.073   0.589   6.846  0.0056  1.0166  0.2403
  596MOL0     C80351   1.953   0.650   6.811  0.0035 -0.9159 -0.3003
  596MOL0     C80352   1.928   0.694   6.681 -0.5384 -1.5104 -0.2084
  596MOL0     C80353   2.033   0.688   6.588  0.0521  0.3891  0.5796
  596MOL0     C80354   2.005   0.715   6.442 -0.2784  0.5854 -0.0408
  596MOL0     O80355   1.910   0.801   6.413 -0.0152 -0.3794 -0.9973
  596MOL0     C80356   1.867   0.803   6.283 -0.2247  0.7333 -0.8647
  596MOL0     C80357   1.809   0.684   6.244  0.8518  0.8002 -0.3287
  596MOL0     C80358   1.749   0.655   6.120  1.0081  0.2096  0.3646
  596MOL0     C80359   1.747   0.756   6.018  0.1835  0.9073 -0.1073
  596MOL0     O80360   1.687   0.730   5.900 -0.5069  0.5688 -0.7131
  596MOL0     C80361   1.625   0.837   5.827 -0.0197  1.1989 -0.2730
  596MOL0     C80362   1.520   0.926   5.901 -0.5216 -0.5668  0.1658
  596MOL0     C80363   1.398   0.842   5.948  0.5174 -0.1622 -0.5375
  596MOL0     C80364   1.283   0.949   5.979 -1.0058 -0.8185 -0.7995
  596MOL0     C80365   1.146   0.885   5.995  0.7173 -0.3023 -0.7913
  596MOL0     C80366   1.041   0.997   5.990 -0.0257  0.3317  0.0640
  596MOL0     C80367   0.909   0.943   6.032  0.0062 -0.3929 -0.4756
  596MOL0     C80368   0.805   0.997   5.932 -0.2358 -1.0113 -0.4265
  596MOL0    Cl80369   0.832   0.956   5.754  0.3346 -0.0594 -0.1823
  596MOL0     C80370   1.814   0.881   6.067 -0.0912  0.1526 -0.0740
  596MOL0     C80371   1.870   0.896   6.190 -0.2668  0.2532 -0.8024
  596MOL0     O80372   2.078   0.666   6.363 -0.7884 -0.3669  0.5175
  596MOL0     C80373   2.151   0.640   6.630 -1.0369 -0.4946  0.1047
  596MOL0     C80374   2.176   0.589   6.753 -0.0507  0.0732  0.5972
  596MOL0     N80375   1.925  -0.005   7.286 -0.9568 -0.2198  0.2946
  596MOL0     N80376   1.989  -0.111   7.263 -0.4827  0.3243 -0.7572
  596MOL0     C80377   1.746   0.132   6.444  0.0381  0.8196  0.2989
  596MOL0     C80378   1.699   0.093   6.316 -0.4647 -0.6639 -0.2106
  596MOL0     C80379   1.416   0.033   5.980  0.4799  0.7353 -0.2873
  596MOL0     C80380   1.514   0.033   5.880  0.7584  0.0670  0.1438
  596MOL0     C80381   1.501  -0.056   5.765 -0.8155  0.3864 -0.5708
  596MOL0     C80382   1.382  -0.126   5.740  1.4335 -0.2133  0.0036
  596MOL0     O80383   1.372  -0.187   5.619  0.7288  0.6581 -0.3556
  596MOL0     C80384   1.274  -0.287   5.604  0.0495  0.1846  1.1619
  596MOL0     C80385   1.152  -0.230   5.536 -0.0468 -0.3741 -0.3509
  596MOL0     C80386   1.049  -0.336   5.503 -0.7712  0.3254 -0.4671
  596MOL0     C80387   0.944  -0.275   5.422  0.1722  0.5247  0.2714
  596MOL0     C80388   0.832  -0.372   5.399 -0.6174  0.0289 -0.0393
  596MOL0     C80389   0.742  -0.452   5.379 -1.3893  0.2294 -0.8367
  596MOL0     C80390   1.282  -0.114   5.838  0.2670 -0.8733 -0.6749
  596MOL0     C80391   1.292  -0.037   5.945  0.0176 -1.2363 -0.3178
  596MOL0     C80392   1.177  -0.034   6.050  0.3019  0.5086  0.0644
  596MOL0     H80393   1.527   0.378   6.256 -0.2930  1.0149  1.2435
  596MOL0     H80394   1.610   0.441   6.456 -2.4908 -1.4491  0.8896
  596MOL0     H80395   1.941   0.398   6.512 -2.3820  3.2157  0.9683
  596MOL0     H80396   1.914   0.427   6.676 -2.0908 -0.2784 -0.7845
  596MOL0     H80397   2.123   0.308   6.681  0.9968  0.0205 -2.9861
  596MOL0     H80398   2.072   0.185   6.580  2.9730 -1.0818  1.6494
  596MOL0     H80399   1.934   0.076   6.729  2.9834 -2.3495  0.3259
  596MOL0     H80400   1.926   0.216   6.844  2.5803  3.9426 -0.7631
  596MOL0     H80401   2.174   0.065   6.754  0.9669  0.3616  0.5161
  596MOL0     H80402   2.168   0.185   6.878  1.0469 -0.7599  0.4326
  596MOL0     H80403   2.027   0.009   7.010 -1.9024  0.4986 -1.2175
  596MOL0     H80404   2.016  -0.084   6.867 -1.6367  1.3404  0.0593
  596MOL0     H80405   2.269  -0.135   6.867  2.5689 -0.0129  0.8615
  596MOL0     H80406   2.293  -0.007   6.986  0.8879 -1.1174 -0.1257
  596MOL0     H80407   2.287  -0.269   7.032 -0.9025  0.5923 -3.4893
  596MOL0     H80408   2.123  -0.255   7.046 -0.4629  1.9984 -0.6671
  596MOL0     H80409   2.248  -0.252   7.259  2.1268 -1.3790 -1.9234
  596MOL0     H80410   2.326  -0.094   7.221 -0.0733  1.8211 -2.9630
  596MOL0     H80411   2.235   0.111   7.288  0.8520  0.1377 -0.7506
  596MOL0     H80412   1.898   0.205   7.409 -1.2367 -2.0477 -1.0148
  596MOL0     H80413   2.067   0.275   7.382 -0.0058  1.4843 -0.3184
  596MOL0     H80414   1.842   0.257   7.155  0.9482 -1.2313  1.4804
  596MOL0     H80415   1.863   0.399   7.260  1.5729 -0.7496  3.3656
  596MOL0     H80416   2.071   0.282   7.080  0.8883 -0.0828 -0.1081
  596MOL0     H80417   2.087   0.421   7.196  0.8641  1.2633 -2.0920
  596MOL0     H80418   1.918   0.542   7.061  2.0726  1.2669 -0.2571
  596MOL0     H80419   1.921   0.423   6.939  1.4912 -0.3494  0.0401
  596MOL0     H80420   1.870   0.668   6.879  1.6371  1.1462  1.2812
  596MOL0     H80421   1.834   0.727   6.637 -0.0132  1.0240  0.4454
  596MOL0     H80422   1.789   0.619   6.329  0.7295 -0.1225 -1.0390
  596MOL0     H80423   1.681   0.573   6.099 -1.8446  2.9647 -2.3120
  596MOL0     H80424   1.713   0.892   5.791  0.2626  0.2568 -1.0723
  596MOL0     H80425   1.575   0.792   5.741 -0.0751 -0.4175  0.5691
  596MOL0     H80426   1.557   0.997   5.976 -1.7319 -1.3273  1.5197
  596MOL0     H80427   1.485   0.998   5.827 -2.3221 -1.0558  0.4838
  596MOL0     H80428   1.378   0.777   5.863  1.4742 -0.7878 -0.2949
  596MOL0     H80429   1.414   0.782   6.038  0.1892  1.1658  0.4505
  596MOL0     H80430   1.272   1.027   5.904 -0.2876  0.4934  0.4161
  596MOL0     H80431   1.318   1.004   6.067 -0.5078 -1.2555 -0.7136
  596MOL0     H80432   1.143   0.833   6.092 -0.0107 -0.4469 -0.8859
  596MOL0     H80433   1.124   0.816   5.914 -0.5135  1.0944 -1.6975
  596MOL0     H80434   1.072   1.080   6.053  4.0036 -0.6547 -0.3425
  596MOL0     H80435   1.036   1.038   5.889 -1.4888  1.1642  0.4490
  596MOL0     H80436   0.881   0.942   6.137 -1.7312 -3.2401 -0.8569
  596MOL0     H80437   0.899   0.836   6.011 -0.5846 -0.4430  0.0343
  596MOL0     H80438   0.705   0.966   5.965 -1.4473  2.5913 -0.1741
  596MOL0     H80439   0.800   1.107   5.935 -2.6751 -1.0027 -1.4872
  596MOL0     H80440   1.810   0.962   5.995 -1.7635  0.1788 -0.0004
  596MOL0     H80441   1.930   0.981   6.221 -0.3811  0.6999 -1.7750
  596MOL0     H80442   2.235   0.651   6.562 -0.3925 -1.1457  0.7713
  596MOL0     H80443   2.268   0.534   6.769  0.7175  1.1035 -0.1820
  596MOL0     H80444   1.809   0.066   6.504  1.8202  1.7993 -0.3959
  596MOL0     H80445   1.732  -0.005   6.283 -2.9024 -1.1061 -1.5230
  596MOL0     H80446   1.599   0.100   5.891  0.6908 -0.2041  3.5027
  596MOL0     H80447   1.573  -0.045   5.685 -2.4270  2.6139 -1.8229
  596MOL0     H80448   1.249  -0.341   5.696  1.5516 -3.0201 -0.1597
  596MOL0     H80449   1.317  -0.365   5.542 -1.8167 -0.7217  0.9428
  596MOL0     H80450   1.182  -0.183   5.442 -2.3470  0.5413 -0.7049
  596MOL0     H80451   1.114  -0.153   5.603  2.5827 -1.7005  2.9383
  596MOL0     H80452   1.012  -0.367   5.601  0.4142 -3.3736 -1.0511
  596MOL0     H80453   1.104  -0.418   5.457  2.9534  3.0294 -1.2640
  596MOL0     H80454   0.904  -0.194   5.483 -2.9718 -1.0298  0.4560
  596MOL0     H80455   0.970  -0.238   5.322  0.7791 -0.5196  0.0231
  596MOL0     H80456   0.652  -0.509   5.385  0.4060 -2.7119  0.4767
  596MOL0     H80457   1.184  -0.159   5.820 -0.1287 -1.3395  2.1295
  596MOL0     H80458   1.209  -0.053   6.153  2.5251 -1.3432 -0.8640
  596MOL0     H80459   1.142   0.069   6.052  1.7214  1.0367 -0.7474
  596MOL0     H80460   1.096  -0.101   6.022 -0.1295  2.4718 -4.1728
  597MOL0     O80461   8.573   6.517   1.788 -0.4221  0.3141 -0.2388
  597MOL0     C80462   8.453   6.528   1.761 -0.6125  0.2394 -0.6589
  597MOL0     O80463   8.377   6.435   1.705  0.0051  0.0091  0.0186
  597MOL0     C80464   8.433   6.314   1.675  0.2989  0.1705  0.0989
  597MOL0     C80465   8.392   6.267   1.558  0.4774 -1.2379  0.1079
  597MOL0     C80466   8.432   6.138   1.508 -0.3605 -1.0879  1.2449
  597MOL0     C80467   8.519   6.060   1.586 -0.7942 -0.4462  0.5338
  597MOL0     O80468   8.582   5.940   1.550  0.2030 -1.0772 -0.1592
  597MOL0     C80469   8.559   5.873   1.424  0.3612 -0.2040 -0.1110
  597MOL0     C80470   8.691   5.816   1.363  0.0918  0.6403 -0.5260
  597MOL0     C80471   8.786   5.918   1.313 -0.0039 -0.0518 -0.4215
  597MOL0     C80472   8.898   5.858   1.237  0.1319  0.5221  0.1830
  597MOL0     C80473   8.969   5.964   1.162 -0.6748 -0.7725  0.1607
  597MOL0     C80474   9.116   5.930   1.164 -0.5196 -0.8330  0.3634
  597MOL0     C80475   9.152   5.790   1.108  0.4373 -0.0968 -0.4365
  597MOL0     C80476   9.106   5.791   0.952  0.4415 -0.1440  0.0616
  597MOL0     N80477   9.206   5.709   0.876  0.5863  0.1401 -0.2553
  597MOL0     C80478   9.214   5.568   0.877  0.5940  1.5300  0.7251
  597MOL0     C80479   9.307   5.535   0.788  0.8434  0.6947 -0.2976
  597MOL0     C80480   9.340   5.388   0.768  0.1393  0.2296  0.4158
  597MOL0     C80481   9.423   5.323   0.880 -0.0087 -0.9800  0.0100
  597MOL0     C80482   9.571   5.358   0.849 -0.1993 -0.3971 -0.2785
  597MOL0     C80483   9.668   5.288   0.940 -0.4301 -0.5817  0.0120
  597MOL0     O80484   9.654   5.157   0.954  0.3598  0.3603 -0.1084
  597MOL0     C80485   9.738   5.077   0.884  0.0050  0.4682 -0.4527
  597MOL0     C80486   9.863   5.042   0.933  0.2783 -0.5793 -0.0810
  597MOL0     C80487   9.941   4.943   0.873 -0.5571  0.6761  0.0298
  597MOL0     C80488   9.888   4.880   0.757  0.1306 -0.0049  0.6433
  597MOL0     C80489   9.971   4.787   0.678  0.2893  0.1815 -0.3726
  597MOL0     O80490  10.096   4.760   0.735 -1.2215 -0.3855 -0.4853
  597MOL0     C80491  10.192   4.698   0.657 -0.2993  0.1973  0.6457
  597MOL0     C80492  10.174   4.576   0.599  0.2873  0.9597 -0.5903
  597MOL0     C80493  10.271   4.525   0.520  0.1567  0.3286  0.0448
  597MOL0     C80494  10.395   4.586   0.504 -0.1717  0.4151 -0.1671
  597MOL0     O80495  10.496   4.509   0.445 -0.4397  0.0913 -0.3778
  597MOL0     C80496  10.617   4.573   0.398  0.4583  0.1963  0.4008
  597MOL0     C80497  10.698   4.471   0.310  0.4184 -1.3880  0.0791
  597MOL0     C80498  10.805   4.385   0.399  0.0185 -0.4814 -0.3746
  597MOL0     C80499  10.737   4.254   0.448  0.2215 -0.4524  0.8088
  597MOL0     C80500  10.767   4.214   0.593 -0.4463 -0.0918 -0.2269
  597MOL0     C80501  10.736   4.065   0.615 -0.1854 -0.4777 -0.1102
  597MOL0     C80502  10.770   4.041   0.761  0.2593  0.5675  0.6259
  597MOL0     C80503  10.701   3.913   0.819 -0.8037  0.6617  0.7594
  597MOL0    Cl80504  10.794   3.859   0.959  0.4363  0.4876 -0.2265
  597MOL0     C80505  10.415   4.711   0.560 -0.0046  0.4913  0.3220
  597MOL0     C80506  10.310   4.768   0.635 -0.0490 -0.6961  0.3677
  597MOL0     O80507   9.935   4.744   0.568  0.6315 -0.1463  0.0722
  597MOL0     C80508   9.765   4.919   0.708 -0.3372 -1.5461  0.0424
  597MOL0     C80509   9.692   5.020   0.767  0.5247  0.6519  1.0606
  597MOL0     N80510   9.347   5.657   0.728  0.7119  0.6758 -0.4423
  597MOL0     N80511   9.288   5.764   0.781 -0.2330  0.3004  0.0715
  597MOL0     C80512   8.552   6.108   1.716  0.2385 -0.2772 -0.7754
  597MOL0     C80513   8.514   6.233   1.759  0.2614 -1.0140  0.9756
  597MOL0     C80514   8.396   6.673   1.779 -0.2695  0.3291  0.1128
  597MOL0     C80515   8.260   6.690   1.774  0.0941  0.1996  0.0671
  597MOL0     C80516   8.196   6.812   1.793  0.2830 -0.0926  0.3969
  597MOL0     C80517   8.268   6.930   1.798 -0.0404  0.5385 -0.3468
  597MOL0     O80518   8.209   7.059   1.799 -0.4102 -0.5575 -0.1264
  597MOL0     C80519   8.070   7.066   1.776 -0.1663 -0.8543 -0.3780
  597MOL0     C80520   8.034   7.220   1.776  0.4530 -0.2052  0.9633
  597MOL0     C80521   8.042   7.294   1.641 -0.1411  0.1605 -0.7544
  597MOL0     C80522   8.180   7.302   1.591 -0.1406 -0.1055 -0.0544
  597MOL0     C80523   8.181   7.389   1.472 -0.3847  0.9330  0.9141
  597MOL0     C80524   8.178   7.461   1.376 -0.0696  0.3495  0.0538
  597MOL0     C80525   8.406   6.924   1.790 -1.3020  1.1626  0.7494
  597MOL0     C80526   8.472   6.790   1.777  0.1297  0.6923  0.3407
  597MOL0     C80527   8.625   6.792   1.752 -0.6048  0.3270  0.0949
  597MOL0     H80528   8.317   6.328   1.509  0.8077  1.4283  2.6651
  597MOL0     H80529   8.390   6.113   1.412  1.1935  1.8886 -0.3412
  597MOL0     H80530   8.497   5.785   1.444  0.6477 -0.6155 -1.0148
  597MOL0     H80531   8.505   5.935   1.352 -3.0231 -1.2262  1.2929
  597MOL0     H80532   8.664   5.746   1.283  1.5875 -0.9739  0.3249
  597MOL0     H80533   8.741   5.750   1.434 -1.1874 -1.0470 -1.1195
  597MOL0     H80534   8.821   5.961   1.407 -1.3564 -0.8791  0.4970
  597MOL0     H80535   8.730   5.994   1.257  1.5281  2.2207  0.9851
  597MOL0     H80536   8.965   5.800   1.300 -0.8503  0.0788  0.8443
  597MOL0     H80537   8.863   5.788   1.160  1.5584 -2.3044  1.9164
  597MOL0     H80538   8.921   5.974   1.064  0.5782 -0.5934 -0.4561
  597MOL0     H80539   8.962   6.061   1.213  2.7253  0.0167 -0.6377
  597MOL0     H80540   9.175   6.001   1.106  0.4581 -0.2509  1.9819
  597MOL0     H80541   9.145   5.941   1.269 -1.4134  1.3041  0.4448
  597MOL0     H80542   9.111   5.706   1.164  1.7867 -0.8104 -0.4692
  597MOL0     H80543   9.261   5.779   1.108  0.8054  2.6640 -1.3076
  597MOL0     H80544   9.004   5.757   0.936 -0.3499  2.3819 -0.6648
  597MOL0     H80545   9.115   5.892   0.910 -0.2537 -0.0793  0.0593
  597MOL0     H80546   9.150   5.499   0.932 -1.0551  0.0079 -2.7862
  597MOL0     H80547   9.254   5.332   0.729  0.9806  0.1611 -1.4948
  597MOL0     H80548   9.398   5.395   0.675 -0.9832 -0.1822 -0.3299
  597MOL0     H80549   9.397   5.370   0.976  1.5960  3.0148 -1.2817
  597MOL0     H80550   9.406   5.215   0.882 -1.0006 -0.8418  1.9595
  597MOL0     H80551   9.586   5.466   0.852  1.6865 -0.5951 -1.2086
  597MOL0     H80552   9.586   5.329   0.745  0.2816  0.4130 -0.4416
  597MOL0     H80553   9.655   5.332   1.040 -1.4142 -2.0884  0.5938
  597MOL0     H80554   9.769   5.314   0.909 -0.2511  1.6138  2.1126
  597MOL0     H80555   9.892   5.083   1.030 -1.9732  2.8334 -0.6664
  597MOL0     H80556  10.040   4.921   0.910  0.0591 -1.1624 -2.4320
  597MOL0     H80557  10.088   4.511   0.616  1.4272 -0.3740  0.3424
  597MOL0     H80558  10.257   4.430   0.470  1.7416 -0.8822  1.7615
  597MOL0     H80559  10.592   4.660   0.336 -2.2773 -1.2026 -0.6279
  597MOL0     H80560  10.680   4.611   0.479 -1.5257  1.5524  1.3978
  597MOL0     H80561  10.623   4.415   0.254 -2.5423  2.7897 -0.5944
  597MOL0     H80562  10.756   4.537   0.245  1.4608 -0.2208  2.0830
  597MOL0     H80563  10.894   4.350   0.345 -0.5401 -2.6292 -0.0027
  597MOL0     H80564  10.830   4.445   0.487  0.6940  1.1583 -1.6420
  597MOL0     H80565  10.764   4.176   0.375 -2.6075 -1.9944  1.2714
  597MOL0     H80566  10.628   4.256   0.440  0.2443 -2.1177 -0.4973
  597MOL0     H80567  10.697   4.273   0.652 -1.1038 -2.9666  2.1193
  597MOL0     H80568  10.865   4.245   0.630 -1.6289  1.6526  1.6489
  597MOL0     H80569  10.632   4.037   0.597 -0.1692 -0.5883 -0.0296
  597MOL0     H80570  10.812   4.009   0.561  0.0030  0.2898 -0.6619
  597MOL0     H80571  10.718   4.114   0.824 -1.8613 -0.8429  0.6277
  597MOL0     H80572  10.877   4.049   0.782  0.3616  2.6067 -0.3958
  597MOL0     H80573  10.602   3.940   0.859 -1.5989 -1.8356  0.6696
  597MOL0     H80574  10.691   3.832   0.746 -1.5821  0.9855  0.4985
  597MOL0     H80575  10.506   4.765   0.536 -0.0997  0.9389  0.9462
  597MOL0     H80576  10.325   4.868   0.673 -1.8922 -0.9326  1.9002
  597MOL0     H80577   9.717   4.880   0.619 -2.4298  0.0111  0.4001
  597MOL0     H80578   9.595   5.044   0.724  0.9464  2.3891  1.0083
  597MOL0     H80579   8.625   6.057   1.778 -1.3648 -0.1596  1.2871
  597MOL0     H80580   8.560   6.263   1.853  1.7528 -1.1587  0.3267
  597MOL0     H80581   8.208   6.595   1.772  1.7668 -0.7353 -1.3127
  597MOL0     H80582   8.088   6.819   1.802 -0.0923 -0.6346 -2.6268
  597MOL0     H80583   8.011   7.034   1.862  0.7423 -0.3513  0.4474
  597MOL0     H80584   8.037   7.018   1.683 -0.3573 -1.2589 -0.1045
  597MOL0     H80585   8.106   7.255   1.850  1.8025  0.0209 -0.4005
  597MOL0     H80586   7.933   7.239   1.813 -0.6221  0.4813 -2.0082
  597MOL0     H80587   8.004   7.396   1.651 -0.4297  0.0954 -1.2043
  597MOL0     H80588   7.980   7.240   1.570  0.4892 -3.1327  0.9906
  597MOL0     H80589   8.255   7.336   1.663 -0.8622 -1.0490  1.1790
  597MOL0     H80590   8.213   7.202   1.563 -3.0343 -1.2532  0.2831
  597MOL0     H80591   8.165   7.542   1.307  2.5094  0.5505 -0.2981
  597MOL0     H80592   8.467   7.012   1.774  0.0372  0.1777  0.3280
  597MOL0     H80593   8.679   6.774   1.845  3.7063  0.6542 -2.1284
  597MOL0     H80594   8.666   6.724   1.678  6.6483  3.7225  0.1736
  597MOL0     H80595   8.662   6.893   1.733 -0.7052  0.3713  0.1352
  598MOL0     O80596   5.697   8.869   8.781 -0.3179 -0.7511  0.6064
  598MOL0     C80597   5.664   8.941   8.871  1.0105  0.0087 -0.4296
  598MOL0     O80598   5.620   9.074   8.861 -1.3880  0.3685 -0.0420
  598MOL0     C80599   5.675   9.129   8.745  0.0403 -1.1532 -0.3722
  598MOL0     C80600   5.798   9.186   8.733 -0.7820 -0.1670 -0.1480
  598MOL0     C80601   5.839   9.252   8.619 -0.4671  0.6373  0.4015
  598MOL0     C80602   5.758   9.248   8.506  0.3309  0.1913 -0.1227
  598MOL0     O80603   5.798   9.302   8.387 -0.0417  0.1217  0.0251
  598MOL0     C80604   5.929   9.284   8.345 -0.8301 -0.4961 -0.2925
  598MOL0     C80605   5.944   9.301   8.189  0.0012  0.0995  1.2946
  598MOL0     C80606   5.944   9.448   8.152  0.1778  0.0133 -0.7478
  598MOL0     C80607   5.940   9.497   8.007 -0.1834 -0.1009  0.0810
  598MOL0     C80608   6.072   9.447   7.927  0.0184  0.0271 -0.1649
  598MOL0     C80609   6.059   9.471   7.771  0.0304  0.0170  0.9124
  598MOL0     C80610   6.054   9.623   7.744 -0.2594  0.6564  0.3919
  598MOL0     C80611   6.120   9.661   7.609  0.1777 -1.0762 -0.0894
  598MOL0     N80612   6.257   9.721   7.627 -0.7624  0.3179  0.0765
  598MOL0     C80613   6.363   9.656   7.689  0.7341 -1.0656  0.1708
  598MOL0     C80614   6.458   9.752   7.689 -1.4544  0.0611 -0.2032
  598MOL0     C80615   6.597   9.722   7.747  0.2439 -0.0924  0.5947
  598MOL0     C80616   6.633   9.815   7.862 -0.4012 -0.0296 -1.3139
  598MOL0     C80617   6.651   9.963   7.822 -0.5650 -0.2259 -0.0795
  598MOL0     C80618   6.800   9.983   7.759  0.3836 -0.2879 -0.0412
  598MOL0     O80619   6.828  10.126   7.736 -0.6069 -0.3081  0.2441
  598MOL0     C80620   6.767  10.174   7.615 -1.0142 -0.8584  0.2586
  598MOL0     C80621   6.680  10.103   7.537 -0.1525  0.5421 -0.4158
  598MOL0     C80622   6.640  10.134   7.412 -0.0202 -0.7111  0.0377
  598MOL0     C80623   6.704  10.254   7.358  0.7256 -0.6716 -0.2792
  598MOL0     C80624   6.683  10.278   7.218  0.8886 -0.8891 -0.1668
  598MOL0     O80625   6.766  10.367   7.163 -0.2237 -0.1048  0.4471
  598MOL0     C80626   6.756  10.388   7.029 -0.2560 -0.2925 -1.0218
  598MOL0     C80627   6.682  10.506   6.988  0.1486 -0.1191  0.2216
  598MOL0     C80628   6.658  10.526   6.849  0.4374  0.3522  0.1321
  598MOL0     C80629   6.712  10.439   6.754  0.3120  0.2807 -0.5390
  598MOL0     O80630   6.701  10.466   6.622  0.4689 -0.7578 -0.8614
  598MOL0     C80631   6.566  10.475   6.570  0.3010  0.8739 -0.1333
  598MOL0     C80632   6.565  10.541   6.435 -0.2656 -0.1055  0.3065
  598MOL0     C80633   6.438  10.595   6.373  0.2615 -0.6936 -0.3061
  598MOL0     C80634   6.352  10.481   6.307 -0.0784  0.2667 -0.1423
  598MOL0     C80635   6.212  10.521   6.288  0.2771 -0.6173 -0.3118
  598MOL0     C80636   6.188  10.636   6.184 -0.4871 -0.0725  0.4301
  598MOL0     C80637   6.246  10.609   6.046 -0.5418  0.4274 -0.1801
  598MOL0     C80638   6.176  10.712   5.947  0.6092 -0.6494 -0.0949
  598MOL0    Cl80639   6.277  10.734   5.795 -0.0657  0.2111 -0.1345
  598MOL0     C80640   6.811  10.340   6.795  0.5062 -0.6203 -0.5857
  598MOL0     C80641   6.820  10.315   6.932 -0.2310  0.2920 -0.4862
  598MOL0     O80642   6.586  10.227   7.154 -0.5227  0.2595  0.1486
  598MOL0     C80643   6.772  10.339   7.440 -0.3541  0.5390  0.3711
  598MOL0     C80644   6.821  10.289   7.565 -0.1123 -0.3389 -0.1400
  598MOL0     N80645   6.415   9.868   7.624 -0.2349 -0.4056  0.0416
  598MOL0     N80646   6.287   9.846   7.598 -0.2099  0.1186  0.0425
  598MOL0     C80647   5.632   9.190   8.517  0.8463 -0.6640  0.2196
  598MOL0     C80648   5.593   9.130   8.634  0.3646 -0.8209  0.0054
  598MOL0     C80649   5.643   8.881   9.003 -0.4881  0.2951  0.0545
  598MOL0     C80650   5.581   8.958   9.102  0.5083  0.2785 -1.0840
  598MOL0     C80651   5.555   8.912   9.230 -0.1938  0.7142 -1.2066
  598MOL0     C80652   5.584   8.782   9.271  0.4159 -0.4612 -0.4854
  598MOL0     O80653   5.560   8.713   9.390 -0.0886 -0.3500 -0.9931
  598MOL0     C80654   5.488   8.790   9.492 -0.0276  0.0633  0.1696
  598MOL0     C80655   5.566   8.901   9.558 -0.3376  0.7047 -0.1078
  598MOL0     C80656   5.468   8.999   9.615 -0.0918 -0.4015  0.2122
  598MOL0     C80657   5.523   9.110   9.708 -0.8691 -0.4998  0.7167
  598MOL0     C80658   5.532   9.038   9.830 -0.1467  1.0840 -0.2652
  598MOL0     C80659   5.533   8.991   9.944  0.2614 -0.4426 -0.0288
  598MOL0     C80660   5.661   8.706   9.179  0.0661  1.5171  0.3997
  598MOL0     C80661   5.690   8.755   9.049 -0.0815  0.5533 -0.6259
  598MOL0     C80662   5.764   8.657   8.962 -0.1423  0.2929 -0.2101
  598MOL0     H80663   5.861   9.202   8.820 -0.5624  2.0305 -0.6391
  598MOL0     H80664   5.937   9.298   8.609 -0.1025  0.0456  1.1484
  598MOL0     H80665   5.989   9.363   8.392  1.7979 -1.4790 -1.8105
  598MOL0     H80666   5.983   9.197   8.384  0.3098 -0.1560 -1.0803
  598MOL0     H80667   5.858   9.254   8.140 -1.1312  0.5048  2.7879
  598MOL0     H80668   6.034   9.247   8.161  0.2219 -0.7050  3.3519
  598MOL0     H80669   6.041   9.481   8.190 -0.1887  0.1784  0.0588
  598MOL0     H80670   5.865   9.489   8.216  0.6145 -1.9400  1.1400
  598MOL0     H80671   5.846   9.453   7.975  0.7797 -1.2830 -1.2184
  598MOL0     H80672   5.926   9.605   8.007  0.9851  0.0768  0.5892
  598MOL0     H80673   6.156   9.499   7.973 -1.5600  0.6926  2.1633
  598MOL0     H80674   6.079   9.339   7.942  0.7578  0.4017  2.8929
  598MOL0     H80675   6.149   9.419   7.736  1.5291  4.4382 -2.8956
  598MOL0     H80676   5.973   9.414   7.735  0.3898  0.1253 -0.1675
  598MOL0     H80677   6.101   9.690   7.817  0.1413 -0.7541  1.4803
  598MOL0     H80678   5.950   9.656   7.752  1.0084  4.9474  2.5603
  598MOL0     H80679   6.129   9.577   7.539 -2.1997  1.4601 -3.7709
  598MOL0     H80680   6.054   9.737   7.568  1.0602  0.6320  1.5037
  598MOL0     H80681   6.384   9.555   7.723  1.9994 -0.6089  0.7909
  598MOL0     H80682   6.604   9.621   7.790 -0.3311 -0.1399  0.5896
  598MOL0     H80683   6.674   9.740   7.671 -0.1522 -0.8666 -0.0189
  598MOL0     H80684   6.546   9.807   7.927  0.9013  1.1125  0.6707
  598MOL0     H80685   6.714   9.768   7.918 -1.5695  1.2521  1.6158
  598MOL0     H80686   6.632  10.023   7.911 -1.7337 -0.3672 -0.2127
  598MOL0     H80687   6.568   9.999   7.759  0.6708 -0.5104 -1.9658
  598MOL0     H80688   6.806   9.932   7.663  0.5100 -1.7127  0.7107
  598MOL0     H80689   6.871   9.947   7.834  2.3279 -0.1606 -1.7249
  598MOL0     H80690   6.633  10.012   7.573 -1.0348  0.7378 -1.0426
  598MOL0     H80691   6.577  10.070   7.352 -0.0056  1.8121 -2.9440
  598MOL0     H80692   6.643  10.559   7.074 -0.7581  0.2940 -0.4204
  598MOL0     H80693   6.591  10.609   6.832  0.2591 -0.2350 -2.3457
  598MOL0     H80694   6.521  10.375   6.571  0.9487  0.5784  1.1653
  598MOL0     H80695   6.501  10.545   6.624 -0.5196 -1.1974  1.6812
  598MOL0     H80696   6.623  10.632   6.455  0.4192 -0.3349 -0.6366
  598MOL0     H80697   6.617  10.479   6.363 -3.3325 -3.0312  0.3532
  598MOL0     H80698   6.384  10.638   6.458  2.2308  0.3568  0.4975
  598MOL0     H80699   6.458  10.677   6.305  2.7424 -0.3219  0.7515
  598MOL0     H80700   6.356  10.387   6.362 -3.1189 -1.2662 -2.2299
  598MOL0     H80701   6.403  10.457   6.213  1.6724  0.6867  0.6530
  598MOL0     H80702   6.170  10.561   6.380 -0.2463  1.6280 -1.4665
  598MOL0     H80703   6.151  10.437   6.253 -0.0460 -0.2924 -0.5360
  598MOL0     H80704   6.083  10.659   6.165 -0.5549 -1.9842 -2.0109
  598MOL0     H80705   6.240  10.724   6.222  0.4529 -0.7648  0.7939
  598MOL0     H80706   6.219  10.509   6.012  1.3338 -0.4288  0.6654
  598MOL0     H80707   6.353  10.631   6.034  0.1151  0.4556  4.1106
  598MOL0     H80708   6.079  10.664   5.930 -1.2300  1.3968  3.4472
  598MOL0     H80709   6.151  10.811   5.987  0.8089  0.4675 -2.5633
  598MOL0     H80710   6.858  10.285   6.714  2.4738 -2.1827  1.4541
  598MOL0     H80711   6.865  10.230   6.983  1.5830  1.7908  0.5594
  598MOL0     H80712   6.800  10.442   7.424  0.1324  0.5606  1.3187
  598MOL0     H80713   6.882  10.359   7.622 -0.9529  0.8089 -0.6036
  598MOL0     H80714   5.567   9.182   8.430  2.7186  2.3401 -1.6237
  598MOL0     H80715   5.494   9.086   8.637 -0.3202  0.6811  1.5648
  598MOL0     H80716   5.557   9.063   9.089  0.8098  1.0315  3.2301
  598MOL0     H80717   5.512   8.976   9.306 -2.1001  0.8317 -2.3303
  598MOL0     H80718   5.454   8.729   9.576  0.4270  0.7579  0.8597
  598MOL0     H80719   5.401   8.825   9.437  1.0739  1.6328 -0.6505
  598MOL0     H80720   5.641   8.946   9.492  0.5626 -2.8011 -1.7260
  598MOL0     H80721   5.628   8.870   9.642  1.1928  3.8382  0.0645
  598MOL0     H80722   5.383   8.952   9.665  0.5317 -1.9076 -0.0932
  598MOL0     H80723   5.423   9.048   9.529  0.4051  0.0319  0.1959
  598MOL0     H80724   5.619   9.137   9.662 -0.7619 -1.7092  0.1873
  598MOL0     H80725   5.460   9.198   9.721  2.7871  2.6757 -1.0432
  598MOL0     H80726   5.517   8.956  10.045  1.2619  0.9609  0.6398
  598MOL0     H80727   5.693   8.605   9.205 -1.5730  0.9817  0.4671
  598MOL0     H80728   5.705   8.622   8.877 -0.4583 -0.7609  0.4304
  598MOL0     H80729   5.865   8.694   8.938  0.4945 -0.8077  0.7126
  598MOL0     H80730   5.801   8.572   9.020 -1.7285  0.3180  0.8890
  599MOL0     O80731   7.781   6.256   5.167  0.8225  0.3826 -0.1565
  599MOL0     C80732   7.834   6.357   5.200 -0.1426  0.3739 -0.5428
  599MOL0     O80733   7.960   6.365   5.255  0.1169 -0.5447 -0.3456
  599MOL0     C80734   8.023   6.245   5.268 -0.0754 -0.4951 -0.4438
  599MOL0     C80735   8.104   6.201   5.166 -0.2800  0.4865  0.9878
  599MOL0     C80736   8.152   6.071   5.167 -0.7327  0.1663  0.4799
  599MOL0     C80737   8.121   5.991   5.283 -0.1435 -0.6042 -0.3113
  599MOL0     O80738   8.158   5.862   5.298 -0.0842 -0.0965  0.6466
  599MOL0     C80739   8.272   5.811   5.220  0.1148  0.2051  0.1852
  599MOL0     C80740   8.276   5.663   5.220 -0.1776  1.1854 -0.0440
  599MOL0     C80741   8.401   5.605   5.158 -0.2189  0.4769  0.5390
  599MOL0     C80742   8.497   5.587   5.279 -0.5654  0.5299 -0.5418
  599MOL0     C80743   8.632   5.544   5.227  0.4311  0.7029 -0.0899
  599MOL0     C80744   8.724   5.482   5.341 -0.0511 -0.4257 -0.2995
  599MOL0     C80745   8.868   5.443   5.303 -0.4401  0.1452  0.6290
  599MOL0     C80746   8.879   5.320   5.207 -0.1482 -0.2557 -0.1571
  599MOL0     N80747   9.013   5.261   5.215 -0.2687  0.5750 -0.4955
  599MOL0     C80748   9.062   5.196   5.325  0.0144 -0.1679  1.2268
  599MOL0     C80749   9.196   5.172   5.305 -1.4476  0.8044  0.0559
  599MOL0     C80750   9.297   5.130   5.400 -0.1825  0.9859 -0.0622
  599MOL0     C80751   9.391   5.239   5.459  0.1235 -0.7158  0.2131
  599MOL0     C80752   9.516   5.163   5.522  0.3052 -0.6210  0.3946
  599MOL0     C80753   9.605   5.266   5.598  0.0575 -0.1094  0.1722
  599MOL0     O80754   9.726   5.185   5.640 -0.7022 -0.4178  0.7256
  599MOL0     C80755   9.855   5.235   5.655  0.0524 -0.1006 -0.1271
  599MOL0     C80756   9.965   5.152   5.687  0.2081  0.2762  0.2570
  599MOL0     C80757  10.090   5.206   5.713  0.0715  0.0521 -0.8676
  599MOL0     C80758  10.117   5.348   5.711 -0.8901  0.7861 -1.4299
  599MOL0     C80759  10.247   5.412   5.746 -0.8486 -0.7919 -0.1859
  599MOL0     O80760  10.356   5.328   5.748 -0.5262 -0.4178 -0.0921
  599MOL0     C80761  10.475   5.386   5.767  0.8084 -0.9004  0.0781
  599MOL0     C80762  10.539   5.454   5.663 -0.2826  0.3174 -0.0879
  599MOL0     C80763  10.654   5.536   5.694  0.7166 -0.4506 -0.9152
  599MOL0     C80764  10.708   5.531   5.825 -0.2417 -0.0724  0.6083
  599MOL0     O80765  10.829   5.586   5.850  0.5857 -0.8923  0.0992
  599MOL0     C80766  10.837   5.690   5.956 -0.2520  0.1308 -0.8684
  599MOL0     C80767  10.985   5.700   5.998 -0.2924  0.4449  1.0949
  599MOL0     C80768  10.995   5.788   6.114 -0.3354 -0.4697 -0.0778
  599MOL0     C80769  11.138   5.790   6.150 -0.4092 -0.5923 -0.1769
  599MOL0     C80770  11.183   5.871   6.272  0.5430  0.0178 -0.3395
  599MOL0     C80771  11.153   6.021   6.266 -0.2654 -0.3988  0.9610
  599MOL0     C80772  11.204   6.104   6.385 -0.9399  0.5710 -0.0387
  599MOL0     C80773  11.361   6.121   6.379  0.8438  0.0720 -0.7228
  599MOL0    Cl80774  11.412   6.263   6.482 -0.3353 -0.2902  0.0983
  599MOL0     C80775  10.650   5.444   5.921 -1.6525 -0.0410  0.2563
  599MOL0     C80776  10.535   5.374   5.895 -0.2321 -0.4446 -0.0156
  599MOL0     O80777  10.249   5.529   5.793  0.0934 -0.4035  0.2232
  599MOL0     C80778  10.006   5.430   5.670 -0.0138  0.0011  0.8356
  599MOL0     C80779   9.883   5.373   5.640  0.7672  0.4642 -1.2828
  599MOL0     N80780   9.225   5.216   5.183 -0.1214  0.6999  0.0080
  599MOL0     N80781   9.125   5.270   5.131 -0.3969 -0.4259  0.5083
  599MOL0     C80782   8.049   6.034   5.389 -0.4468  0.1580  0.1035
  599MOL0     C80783   8.002   6.163   5.385  0.8642  0.0635 -0.8834
  599MOL0     C80784   7.760   6.472   5.167  0.8752 -0.9734 -0.6494
  599MOL0     C80785   7.619   6.462   5.133  0.4094 -1.1614 -0.0142
  599MOL0     C80786   7.538   6.574   5.111 -0.0954  0.5539 -0.3009
  599MOL0     C80787   7.595   6.698   5.106  0.1440  0.8191  0.5888
  599MOL0     O80788   7.513   6.800   5.063  0.4899 -0.0693  0.6950
  599MOL0     C80789   7.560   6.930   5.019 -0.0903  1.0554  0.6399
  599MOL0     C80790   7.569   7.006   5.157  0.5694  0.4481 -0.6304
  599MOL0     C80791   7.626   7.151   5.164 -0.4350  0.4913 -0.0564
  599MOL0     C80792   7.764   7.165   5.112 -0.0139 -1.2646 -0.3100
  599MOL0     C80793   7.864   7.079   5.185  0.6650 -0.7471  0.1822
  599MOL0     C80794   7.947   7.006   5.236  0.2468 -0.4118 -0.4471
  599MOL0     C80795   7.733   6.715   5.129  0.3730  0.7363  1.2230
  599MOL0     C80796   7.807   6.601   5.159  0.1351 -0.2775 -0.1770
  599MOL0     C80797   7.965   6.631   5.157  0.5385 -0.1244  0.2042
  599MOL0     H80798   8.101   6.261   5.076 -1.5182 -0.7254  0.1781
  599MOL0     H80799   8.209   6.041   5.079 -0.8046  2.9068 -0.6108
  599MOL0     H80800   8.264   5.841   5.115 -4.5625 -0.9245 -0.0114
  599MOL0     H80801   8.367   5.843   5.263 -0.4704  1.5327  0.5700
  599MOL0     H80802   8.187   5.639   5.162  0.3747 -0.5987 -0.1976
  599MOL0     H80803   8.247   5.622   5.317  0.4022  0.3123 -0.2343
  599MOL0     H80804   8.429   5.679   5.083 -1.2618 -1.6038 -2.0527
  599MOL0     H80805   8.390   5.519   5.091 -0.4426  2.8839 -2.7359
  599MOL0     H80806   8.513   5.685   5.327 -0.7699 -0.8212  2.5667
  599MOL0     H80807   8.451   5.521   5.354 -1.1821 -0.5244 -1.8189
  599MOL0     H80808   8.625   5.456   5.162 -2.4231  0.3733  0.5224
  599MOL0     H80809   8.679   5.622   5.168 -1.4376  2.2517  0.3596
  599MOL0     H80810   8.736   5.559   5.419 -0.2346 -0.9364  0.2386
  599MOL0     H80811   8.688   5.392   5.392  1.4042 -0.1678  1.2864
  599MOL0     H80812   8.929   5.435   5.393 -0.2095  0.6457  0.5233
  599MOL0     H80813   8.911   5.534   5.261 -0.9187 -0.0635 -0.3460
  599MOL0     H80814   8.804   5.245   5.233 -1.2657  1.2136  0.9977
  599MOL0     H80815   8.857   5.349   5.104 -2.3585 -1.2904 -0.0170
  599MOL0     H80816   9.008   5.166   5.415  0.0599  0.7119  1.5537
  599MOL0     H80817   9.248   5.077   5.482  3.4280 -0.7919  1.1545
  599MOL0     H80818   9.359   5.066   5.337 -1.9692  0.7838 -1.6996
  599MOL0     H80819   9.425   5.311   5.385 -3.4470  1.3053  0.3382
  599MOL0     H80820   9.335   5.292   5.537  0.5407 -2.3829  1.7241
  599MOL0     H80821   9.566   5.117   5.436  1.2937  3.4609 -1.4434
  599MOL0     H80822   9.492   5.087   5.597  2.7315  2.6366  4.9511
  599MOL0     H80823   9.552   5.306   5.684  1.4747  1.9367  0.1650
  599MOL0     H80824   9.639   5.351   5.537  4.9667 -0.6072  1.7437
  599MOL0     H80825   9.944   5.047   5.670 -1.0469  0.6134 -0.4777
  599MOL0     H80826  10.177   5.143   5.724 -0.4502 -0.5349  0.0430
  599MOL0     H80827  10.490   5.455   5.566  1.2601 -2.2254 -0.9863
  599MOL0     H80828  10.690   5.604   5.617 -2.2341  0.4737 -1.6018
  599MOL0     H80829  10.786   5.784   5.934 -1.7075 -0.5382 -0.4849
  599MOL0     H80830  10.783   5.650   6.043 -0.4817  2.1602 -0.0126
  599MOL0     H80831  11.029   5.602   6.016 -0.1875  0.0738 -0.9758
  599MOL0     H80832  11.035   5.748   5.914  0.4060 -0.6694  0.8528
  599MOL0     H80833  10.974   5.894   6.097 -0.3157 -0.6309 -1.2172
  599MOL0     H80834  10.930   5.757   6.197 -0.9118 -1.8818 -1.0125
  599MOL0     H80835  11.196   5.826   6.065  0.6087 -1.5582  0.0860
  599MOL0     H80836  11.164   5.687   6.177  1.6265 -0.4247 -1.2957
  599MOL0     H80837  11.291   5.863   6.285  0.4955  2.3391  2.7762
  599MOL0     H80838  11.135   5.832   6.363  1.6095  0.6489  0.5252
  599MOL0     H80839  11.191   6.066   6.174  2.3952 -0.5904  1.8773
  599MOL0     H80840  11.044   6.032   6.269 -0.1864  1.1692 -0.3461
  599MOL0     H80841  11.173   6.061   6.480  1.3731 -2.0447 -0.3173
  599MOL0     H80842  11.165   6.203   6.361 -0.2321  0.3889 -2.1421
  599MOL0     H80843  11.402   6.028   6.420 -3.0266 -1.4717  0.0596
  599MOL0     H80844  11.402   6.139   6.280 -1.7395  5.1059 -1.2118
  599MOL0     H80845  10.704   5.435   6.015  3.4576  5.3525 -1.5529
  599MOL0     H80846  10.500   5.309   5.975  1.7946 -1.4343  0.1290
  599MOL0     H80847  10.025   5.537   5.661  2.0258 -0.3345  0.5688
  599MOL0     H80848   9.808   5.452   5.643 -0.9536 -1.0687  2.5509
  599MOL0     H80849   8.042   5.965   5.473 -2.8104 -1.6294 -1.4675
  599MOL0     H80850   7.932   6.184   5.464  0.5103 -3.4931 -0.0539
  599MOL0     H80851   7.570   6.365   5.134  1.6789 -1.8864  2.9787
  599MOL0     H80852   7.436   6.549   5.086 -0.2093 -0.3812  0.9879
  599MOL0     H80853   7.478   6.981   4.967 -0.3389  0.1437  0.1240
  599MOL0     H80854   7.652   6.925   4.960 -0.5973  0.3784 -0.1152
  599MOL0     H80855   7.636   6.954   5.226 -3.9307 -1.2442  2.9489
  599MOL0     H80856   7.477   7.004   5.216  2.3819  4.1310  2.7817
  599MOL0     H80857   7.628   7.180   5.269 -1.4661  0.9085 -0.1434
  599MOL0     H80858   7.560   7.217   5.107 -0.4033 -1.2965 -2.3150
  599MOL0     H80859   7.755   7.124   5.010  0.8852 -0.1727 -0.8517
  599MOL0     H80860   7.796   7.270   5.109 -1.4824 -0.7953  0.0176
  599MOL0     H80861   8.008   6.937   5.290  0.1141  1.0759  1.7142
  599MOL0     H80862   7.789   6.807   5.121  1.1073  0.3291  1.6093
  599MOL0     H80863   8.012   6.561   5.087 -1.1780 -1.5495  0.4062
  599MOL0     H80864   7.993   6.735   5.142  0.3641 -0.2152 -0.7692
  599MOL0     H80865   7.994   6.611   5.261 -0.4125  0.3325  0.5709
  600MOL0     O80866   8.814   8.755   5.779  0.3412 -0.1457  0.3607
  600MOL0     C80867   8.915   8.827   5.755  1.2826 -0.6479 -0.1330
  600MOL0     O80868   8.932   8.916   5.655 -0.2436 -0.4956 -0.1682
  600MOL0     C80869   8.845   8.977   5.575  0.0798  0.5893 -0.2224
  600MOL0     C80870   8.707   8.949   5.582  1.4379  0.0577 -0.4898
  600MOL0     C80871   8.609   9.026   5.516  0.2042  0.2343  0.7392
  600MOL0     C80872   8.656   9.124   5.417  0.8350 -0.1733  0.2552
  600MOL0     O80873   8.570   9.200   5.343  0.0704 -0.6508  0.5841
  600MOL0     C80874   8.460   9.264   5.404  0.0461 -0.3858 -0.1788
  600MOL0     C80875   8.445   9.413   5.393  0.3378  0.0527 -0.4417
  600MOL0     C80876   8.417   9.463   5.250 -0.8403  0.3708  0.3523
  600MOL0     C80877   8.550   9.472   5.173  0.2151  1.4010 -0.2231
  600MOL0     C80878   8.525   9.457   5.029 -0.2957 -0.1324  0.3477
  600MOL0     C80879   8.663   9.454   4.962  0.2117  0.5938  0.2701
  600MOL0     C80880   8.647   9.484   4.805 -0.6179 -0.5358 -1.5754
  600MOL0     C80881   8.762   9.455   4.717 -0.3405 -0.7678 -0.5062
  600MOL0     N80882   8.874   9.538   4.757  0.0469  0.4379  0.0148
  600MOL0     C80883   8.925   9.645   4.689 -0.6180  0.1412  0.9056
  600MOL0     C80884   9.043   9.678   4.749 -0.5376  0.0664  0.3941
  600MOL0     C80885   9.149   9.788   4.722  0.1360 -0.0314  0.6575
  600MOL0     C80886   9.120   9.897   4.823 -0.2518 -0.3278  0.1700
  600MOL0     C80887   9.200  10.030   4.789 -0.0270  0.3422 -0.4553
  600MOL0     C80888   9.349  10.007   4.785 -0.5403  0.5529  0.4335
  600MOL0     O80889   9.395   9.937   4.900 -0.6952  0.4376  0.6121
  600MOL0     C80890   9.485  10.009   4.976 -0.3398  0.3124  0.9146
  600MOL0     C80891   9.439  10.119   5.050  0.4766 -0.4679  0.1005
  600MOL0     C80892   9.525  10.189   5.131 -1.4042 -0.7899  0.1857
  600MOL0     C80893   9.658  10.160   5.139 -0.5019  0.3296 -0.4559
  600MOL0     C80894   9.751  10.236   5.228 -0.0552 -0.0694 -0.5048
  600MOL0     O80895   9.698  10.318   5.323 -0.0732 -0.4882 -0.4720
  600MOL0     C80896   9.776  10.350   5.431 -0.4440 -0.2659 -0.2245
  600MOL0     C80897   9.778  10.484   5.475 -0.0182  0.3791 -0.5710
  600MOL0     C80898   9.837  10.516   5.593 -0.6087  0.7252 -0.4110
  600MOL0     C80899   9.912  10.429   5.662 -0.3661  0.1322 -0.1468
  600MOL0     O80900   9.986  10.457   5.776  0.2663  0.1202 -0.3989
  600MOL0     C80901   9.955  10.574   5.861  0.4351  0.0340  0.2773
  600MOL0     C80902  10.054  10.576   5.971 -0.3415  0.0658 -0.1457
  600MOL0     C80903  10.040  10.703   6.060 -0.0389 -0.0995  0.8342
  600MOL0     C80904  10.169  10.722   6.135  0.6584 -0.0267 -0.5194
  600MOL0     C80905  10.179  10.850   6.219  0.3606  0.1366 -0.5766
  600MOL0     C80906  10.315  10.866   6.266  0.3400  0.2346  0.0838
  600MOL0     C80907  10.330  10.980   6.359 -0.9101  0.3350 -1.0659
  600MOL0     C80908  10.474  10.991   6.407 -0.4607  0.0793 -0.2084
  600MOL0    Cl80909  10.471  11.142   6.513 -0.2449  0.0017 -0.3696
  600MOL0     C80910   9.927  10.299   5.619 -0.1694  0.2346  0.0712
  600MOL0     C80911   9.853  10.255   5.506  0.2635  0.0054 -0.7263
  600MOL0     O80912   9.868  10.209   5.220 -0.0075 -1.0425 -0.1333
  600MOL0     C80913   9.700  10.045   5.076 -0.2095 -1.2468 -0.7721
  600MOL0     C80914   9.617   9.971   4.988  0.7817  0.1156 -0.6057
  600MOL0     N80915   9.064   9.608   4.865  0.2273 -0.4558 -0.3836
  600MOL0     N80916   8.961   9.522   4.862 -0.5718 -0.0919 -0.3587
  600MOL0     C80917   8.797   9.152   5.404  0.5000  0.8005  1.1158
  600MOL0     C80918   8.893   9.077   5.485 -0.2100 -0.2688 -0.2454
  600MOL0     C80919   9.045   8.820   5.829  0.0117  0.5947  0.3825
  600MOL0     C80920   9.075   8.695   5.890  0.2265 -0.2088  0.0478
  600MOL0     C80921   9.198   8.667   5.968  0.2995  1.1684  0.8120
  600MOL0     C80922   9.292   8.768   5.968  0.2602 -0.3961  0.7943
  600MOL0     O80923   9.406   8.734   6.034 -0.3991  0.0451  0.0440
  600MOL0     C80924   9.532   8.806   6.014 -0.6108  0.5904  0.8416
  600MOL0     C80925   9.642   8.723   6.090  0.3273  0.4218 -0.0727
  600MOL0     C80926   9.771   8.720   6.005 -0.0220 -0.3551  0.2214
  600MOL0     C80927   9.896   8.705   6.086 -0.5257  0.0960  0.3925
  600MOL0     C80928   9.929   8.827   6.165  0.3415  0.1131 -0.0908
  600MOL0     C80929   9.961   8.934   6.210  1.0643  0.0514  0.1707
  600MOL0     C80930   9.273   8.896   5.910  0.3164 -0.1073 -0.0026
  600MOL0     C80931   9.148   8.923   5.839  0.4884  0.7829  0.3302
  600MOL0     C80932   9.130   9.063   5.796  1.1033  0.2484  0.1130
  600MOL0     H80933   8.667   8.860   5.631  0.8504  0.5214 -0.1026
  600MOL0     H80934   8.503   9.008   5.523  0.5576 -2.3063  0.5576
  600MOL0     H80935   8.376   9.210   5.360 -0.3454  1.9027 -2.4615
  600MOL0     H80936   8.450   9.244   5.511  0.9622 -0.7369 -0.1515
  600MOL0     H80937   8.529   9.458   5.446  0.9405 -1.6164  0.1101
  600MOL0     H80938   8.352   9.431   5.447 -0.5575 -5.7072  0.6085
  600MOL0     H80939   8.369   9.558   5.271  1.1430  1.3796  0.5624
  600MOL0     H80940   8.347   9.395   5.201  0.7861 -1.1042 -0.0487
  600MOL0     H80941   8.600   9.566   5.200 -2.8132  2.9793  0.3855
  600MOL0     H80942   8.617   9.391   5.204 -1.2359  0.1183 -0.3413
  600MOL0     H80943   8.465   9.370   4.999  1.4745 -0.5734 -2.3548
  600MOL0     H80944   8.486   9.549   4.985  2.1299  0.7524 -0.0893
  600MOL0     H80945   8.707   9.547   4.998  1.6826  0.6948 -1.6235
  600MOL0     H80946   8.737   9.383   5.001  1.1867  1.0444 -0.7102
  600MOL0     H80947   8.601   9.578   4.774  0.0317 -0.6045 -2.8591
  600MOL0     H80948   8.569   9.416   4.770 -1.5576 -0.5589  0.4503
  600MOL0     H80949   8.781   9.347   4.719 -0.9464 -0.8886  1.8881
  600MOL0     H80950   8.741   9.484   4.614 -2.8989  0.8984  0.3858
  600MOL0     H80951   8.888   9.685   4.595 -2.4770 -0.5914  1.2862
  600MOL0     H80952   9.245   9.742   4.748  0.4321  1.3607  2.2766
  600MOL0     H80953   9.138   9.824   4.620 -0.4736 -1.4823  0.1953
  600MOL0     H80954   9.014   9.925   4.823  0.0226  0.7496 -0.1824
  600MOL0     H80955   9.155   9.856   4.919  2.7713 -0.5076 -0.8968
  600MOL0     H80956   9.174  10.104   4.865 -0.0167 -1.1153  1.0370
  600MOL0     H80957   9.168  10.061   4.689 -0.2332  0.2900 -0.4067
  600MOL0     H80958   9.404  10.101   4.775 -0.6185  1.4832  5.9413
  600MOL0     H80959   9.373   9.941   4.700 -0.6459 -0.3054  1.0575
  600MOL0     H80960   9.332  10.135   5.055  0.3173 -1.8338  1.9672
  600MOL0     H80961   9.475  10.273   5.176 -1.1998 -0.3606 -0.3720
  600MOL0     H80962   9.723  10.563   5.425 -0.9226  0.9616  1.2353
  600MOL0     H80963   9.823  10.616   5.633  0.0521 -0.3391  2.7337
  600MOL0     H80964   9.961  10.666   5.802  0.1574 -0.9446 -1.3199
  600MOL0     H80965   9.856  10.577   5.909  0.1597  0.4013 -0.3022
  600MOL0     H80966  10.037  10.487   6.032 -2.7844  0.4490 -0.1620
  600MOL0     H80967  10.154  10.575   5.925 -0.9475  0.7262 -1.5394
  600MOL0     H80968  10.005  10.794   6.011  0.6813  1.2059  2.6275
  600MOL0     H80969   9.954  10.684   6.125 -1.4097 -0.4581 -0.9974
  600MOL0     H80970  10.248  10.712   6.059 -0.4685  0.5639 -1.8077
  600MOL0     H80971  10.174  10.633   6.198 -1.3729 -0.4503 -0.8892
  600MOL0     H80972  10.113  10.841   6.306  0.2591  0.1336 -0.6528
  600MOL0     H80973  10.139  10.937   6.167 -1.1600 -2.2263 -3.7106
  600MOL0     H80974  10.341  10.771   6.313 -0.1432  0.8560  1.6829
  600MOL0     H80975  10.376  10.886   6.178 -1.0502 -2.0237 -1.4928
  600MOL0     H80976  10.275  10.964   6.451  1.1852 -2.0447 -0.0840
  600MOL0     H80977  10.310  11.073   6.305 -0.3594  1.2859  0.3220
  600MOL0     H80978  10.509  10.927   6.488  1.7354  1.4479  0.0068
  600MOL0     H80979  10.556  10.994   6.335  0.2848  3.7688  0.6160
  600MOL0     H80980   9.991  10.228   5.671 -0.5686 -0.0002  0.2479
  600MOL0     H80981   9.854  10.148   5.487 -0.0842  0.3353 -2.8792
  600MOL0     H80982   9.806  10.021   5.082  0.7372  2.5758  0.0819
  600MOL0     H80983   9.654   9.878   4.946  0.2706 -0.4674  0.2156
  600MOL0     H80984   8.824   9.238   5.344  4.0391 -1.8069 -1.4750
  600MOL0     H80985   8.999   9.097   5.490  0.2128 -2.4412  1.3504
  600MOL0     H80986   8.998   8.619   5.882 -0.9493  0.7284  1.8233
  600MOL0     H80987   9.205   8.570   6.016 -0.6138  0.2236 -0.8844
  600MOL0     H80988   9.532   8.911   6.046 -1.9638  1.9733 -3.1611
  600MOL0     H80989   9.552   8.810   5.907 -2.7380 -3.1783  0.1100
  600MOL0     H80990   9.606   8.621   6.104 -0.2699 -0.1550 -4.3412
  600MOL0     H80991   9.670   8.768   6.185  1.6431 -1.2802  0.3865
  600MOL0     H80992   9.781   8.812   5.945  1.5081 -1.2012 -0.8758
  600MOL0     H80993   9.759   8.649   5.923  2.3312  0.7296 -1.1552
  600MOL0     H80994   9.875   8.625   6.158 -1.0864 -0.6370 -0.5711
  600MOL0     H80995   9.984   8.690   6.022  1.5273  2.1464  2.5343
  600MOL0     H80996   9.985   9.033   6.247  2.0887 -1.3348  3.6759
  600MOL0     H80997   9.345   8.977   5.904  1.0716 -0.8048 -0.5349
  600MOL0     H80998   9.224   9.117   5.814  2.5585 -2.7844  2.3969
  600MOL0     H80999   9.112   9.074   5.688  1.7638 -0.6955 -0.1033
  600MOL0     H81000   9.055   9.115   5.856  1.5099  0.5441  0.3708
  601MOL0     O81001  11.384   4.982   1.351  1.2041  0.7772 -0.4010
  601MOL0     C81002  11.457   5.031   1.265 -0.3370  0.3446  0.2528
  601MOL0     O81003  11.458   5.170   1.227 -1.2570 -0.0614  0.0305
  601MOL0     C81004  11.368   5.251   1.289  0.5487  0.3295 -0.3658
  601MOL0     C81005  11.273   5.318   1.213 -0.0549 -1.3703 -0.2060
  601MOL0     C81006  11.179   5.403   1.272 -0.1477 -0.3104  0.0376
  601MOL0     C81007  11.195   5.443   1.407  0.3000  0.4036 -0.0528
  601MOL0     O81008  11.116   5.531   1.476 -0.3310  0.4964  0.0650
  601MOL0     C81009  10.987   5.565   1.428  0.7635  0.0689  0.1652
  601MOL0     C81010  10.933   5.664   1.531 -0.5795  0.9037  0.0364
  601MOL0     C81011  10.797   5.716   1.504  0.2861  0.0177 -0.0321
  601MOL0     C81012  10.759   5.819   1.608 -0.2574  0.1723 -0.3196
  601MOL0     C81013  10.650   5.927   1.569 -0.4370  0.3757 -0.2487
  601MOL0     C81014  10.635   6.026   1.672  0.0463  0.2278  0.9526
  601MOL0     C81015  10.751   6.125   1.704  0.1728 -0.2559 -0.6311
  601MOL0     C81016  10.724   6.217   1.816  0.1120 -0.2674  0.3761
  601MOL0     N81017  10.847   6.274   1.874 -0.1103  0.0382  0.1914
  601MOL0     C81018  10.956   6.325   1.805  0.3538  0.2863 -0.2478
  601MOL0     C81019  11.053   6.333   1.902  0.9005  0.3618 -0.1082
  601MOL0     C81020  11.201   6.343   1.869  0.4634 -0.0920 -0.0788
  601MOL0     C81021  11.273   6.446   1.944 -0.6273 -0.2769 -0.0762
  601MOL0     C81022  11.187   6.546   2.029  0.1603 -0.6260  0.4004
  601MOL0     C81023  11.119   6.637   1.927  0.1619  0.3293 -0.1092
  601MOL0     O81024  11.209   6.738   1.869  0.1345 -0.2393  0.6717
  601MOL0     C81025  11.153   6.851   1.810 -1.0432  0.3162  0.4733
  601MOL0     C81026  11.018   6.862   1.789  0.3321  0.8363 -0.6496
  601MOL0     C81027  10.966   6.974   1.715 -0.3808 -0.4898  0.1768
  601MOL0     C81028  11.049   7.077   1.677  0.1682 -0.7436 -0.0282
  601MOL0     C81029  10.990   7.197   1.609  0.5193 -0.0914  0.0897
  601MOL0     O81030  11.075   7.274   1.540 -1.3131  0.0262  0.1622
  601MOL0     C81031  11.036   7.351   1.431 -0.0273  0.0599  0.2391
  601MOL0     C81032  11.112   7.468   1.414  0.1958  0.5285  0.5643
  601MOL0     C81033  11.079   7.549   1.308  0.4617 -0.5564 -0.7333
  601MOL0     C81034  10.978   7.521   1.212  0.6821  0.5345 -0.5646
  601MOL0     O81035  10.963   7.597   1.098 -0.4385  0.9272  0.0881
  601MOL0     C81036  10.900   7.724   1.121  0.2025  0.1618 -0.1376
  601MOL0     C81037  10.749   7.692   1.159 -0.3286 -0.5119  0.3961
  601MOL0     C81038  10.648   7.785   1.090  0.7907 -0.4517 -0.3709
  601MOL0     C81039  10.517   7.805   1.170  0.1212  0.1329  0.0143
  601MOL0     C81040  10.394   7.857   1.089 -0.0246 -0.7505 -0.5963
  601MOL0     C81041  10.277   7.897   1.178  0.3827 -0.2060  0.0507
  601MOL0     C81042  10.225   7.785   1.268 -0.0174  0.4848 -0.3680
  601MOL0     C81043  10.109   7.832   1.346  0.5930  0.2306 -0.2841
  601MOL0    Cl81044  10.163   7.972   1.444  0.4079  0.5918 -0.0632
  601MOL0     C81045  10.897   7.404   1.241 -0.0738  0.2992  0.3483
  601MOL0     C81046  10.928   7.315   1.345 -0.2146  0.6850 -0.1183
  601MOL0     O81047  10.870   7.214   1.618  0.6383 -0.6373 -0.6998
  601MOL0     C81048  11.186   7.062   1.706 -0.9620 -0.0167 -0.3650
  601MOL0     C81049  11.234   6.948   1.764 -0.6002 -0.1601  0.0769
  601MOL0     N81050  11.004   6.296   2.020  0.0206  0.1877 -0.6289
  601MOL0     N81051  10.887   6.260   2.003 -0.4195 -0.3082 -0.4105
  601MOL0     C81052  11.302   5.382   1.484  0.5999  0.6076  0.1062
  601MOL0     C81053  11.381   5.286   1.423 -1.2303  0.0268  0.3306
  601MOL0     C81054  11.576   4.940   1.217  0.3062 -0.8815 -0.1087
  601MOL0     C81055  11.666   4.995   1.127  0.1724  0.4605  0.5108
  601MOL0     C81056  11.778   4.919   1.081  0.7500 -1.3989 -0.3501
  601MOL0     C81057  11.791   4.790   1.108  0.1767  0.5649  1.6291
  601MOL0     O81058  11.907   4.716   1.076  0.3083  1.1403 -0.0458
  601MOL0     C81059  11.996   4.751   0.966  1.4432 -0.2423  0.5334
  601MOL0     C81060  11.916   4.747   0.837  0.4360 -0.3294  0.7598
  601MOL0     C81061  11.849   4.604   0.831 -0.4938  0.5066  0.0680
  601MOL0     C81062  11.790   4.570   0.688  0.3042 -0.0683  0.0246
  601MOL0     C81063  11.733   4.436   0.689  0.6977 -0.2768 -1.0229
  601MOL0     C81064  11.697   4.320   0.695 -0.7339  0.1771  0.6946
  601MOL0     C81065  11.703   4.731   1.208  1.2972 -0.2775  0.9654
  601MOL0     C81066  11.590   4.807   1.259 -0.3838  0.4429 -0.0392
  601MOL0     C81067  11.499   4.735   1.353 -0.0893  0.5284 -0.1577
  601MOL0     H81068  11.253   5.295   1.108 -1.2593  0.1552 -0.3336
  601MOL0     H81069  11.098   5.445   1.213 -1.9983 -3.7310 -0.1687
  601MOL0     H81070  11.002   5.614   1.332  0.4207 -1.4520 -0.6869
  601MOL0     H81071  10.924   5.477   1.422  1.2863 -0.2169 -1.4195
  601MOL0     H81072  11.010   5.741   1.549  1.8548 -1.5490  0.7964
  601MOL0     H81073  10.926   5.609   1.625 -3.7762  2.9151  1.1436
  601MOL0     H81074  10.721   5.638   1.491 -2.4616  2.1124  2.0388
  601MOL0     H81075  10.806   5.768   1.408  1.6999 -0.1671 -0.0246
  601MOL0     H81076  10.741   5.770   1.704 -0.1520 -0.8794 -0.8257
  601MOL0     H81077  10.850   5.878   1.622 -0.2465  0.0544  0.1286
  601MOL0     H81078  10.669   5.979   1.474  0.3675  1.4465  0.4790
  601MOL0     H81079  10.555   5.877   1.549 -0.3819 -1.2060  2.9354
  601MOL0     H81080  10.545   6.078   1.639  1.9260  0.4902 -5.0221
  601MOL0     H81081  10.611   5.972   1.764 -2.6174 -1.6493 -0.7047
  601MOL0     H81082  10.774   6.182   1.614 -0.6552  1.0754 -0.0325
  601MOL0     H81083  10.833   6.059   1.735 -0.7738 -1.2940 -0.2502
  601MOL0     H81084  10.657   6.301   1.794  1.7612  0.3452 -2.7848
  601MOL0     H81085  10.664   6.158   1.886 -2.5755 -2.0414 -3.1187
  601MOL0     H81086  10.966   6.319   1.697  1.3869  1.1679 -0.2092
  601MOL0     H81087  11.252   6.247   1.879 -0.6698 -0.6162  0.8786
  601MOL0     H81088  11.206   6.381   1.766 -0.0057  1.4808  0.4461
  601MOL0     H81089  11.334   6.402   2.023 -0.6614  1.2831  0.8747
  601MOL0     H81090  11.342   6.512   1.890 -0.6661  1.1117  1.4794
  601MOL0     H81091  11.258   6.592   2.098 -0.1954  0.6849 -0.0775
  601MOL0     H81092  11.106   6.498   2.085 -2.7949  0.4227 -2.6181
  601MOL0     H81093  11.041   6.688   1.984 -1.7395  2.7104 -4.3597
  601MOL0     H81094  11.055   6.592   1.850 -1.4683  0.4957  1.0964
  601MOL0     H81095  10.941   6.791   1.819 -1.3642  2.8930  0.1647
  601MOL0     H81096  10.861   6.969   1.688  0.6545 -2.7617 -4.4516
  601MOL0     H81097  11.191   7.511   1.474  1.5586  2.5090 -2.4237
  601MOL0     H81098  11.150   7.631   1.306 -0.3521  0.2012  0.4583
  601MOL0     H81099  10.954   7.791   1.189  2.0656  0.2488 -1.6311
  601MOL0     H81100  10.899   7.769   1.022 -2.1796  1.5201  0.4206
  601MOL0     H81101  10.725   7.589   1.132 -0.4908 -0.8938  1.8810
  601MOL0     H81102  10.756   7.702   1.268 -0.7380  0.7309  0.3265
  601MOL0     H81103  10.692   7.885   1.080  3.4177 -1.6269 -1.5032
  601MOL0     H81104  10.632   7.747   0.989  1.4323  2.6744 -1.7875
  601MOL0     H81105  10.522   7.870   1.259  0.2443 -1.2645  1.0597
  601MOL0     H81106  10.493   7.704   1.203  1.3648 -1.4713 -3.5296
  601MOL0     H81107  10.354   7.779   1.022  0.5981 -0.9156 -0.7855
  601MOL0     H81108  10.431   7.939   1.027  1.9056 -2.2929 -1.6297
  601MOL0     H81109  10.294   7.996   1.220  2.6357  1.1941 -3.6958
  601MOL0     H81110  10.193   7.918   1.111 -0.3123 -3.7139 -0.4130
  601MOL0     H81111  10.302   7.756   1.340  0.1818  2.5722  0.3490
  601MOL0     H81112  10.183   7.709   1.203 -1.0533  2.8377 -2.6496
  601MOL0     H81113  10.028   7.853   1.276  0.1912  0.1510  0.1532
  601MOL0     H81114  10.077   7.754   1.415 -2.2687  0.4253 -1.2895
  601MOL0     H81115  10.812   7.372   1.182  0.7801 -4.7664  1.3921
  601MOL0     H81116  10.883   7.216   1.344 -0.0248  0.5684 -2.6630
  601MOL0     H81117  11.266   7.133   1.689  1.3714 -1.4839  3.2919
  601MOL0     H81118  11.340   6.937   1.784 -0.1097  0.5806 -1.8647
  601MOL0     H81119  11.316   5.399   1.590 -2.6763 -1.2028  0.9499
  601MOL0     H81120  11.455   5.230   1.479 -1.4259 -0.0134  0.5455
  601MOL0     H81121  11.637   5.091   1.084  0.7191  1.3690  2.0622
  601MOL0     H81122  11.845   4.971   1.013  0.2506 -1.4539 -0.8871
  601MOL0     H81123  12.078   4.679   0.958 -1.2246 -3.3025 -1.7940
  601MOL0     H81124  12.052   4.844   0.984  1.1667 -0.0625  0.4585
  601MOL0     H81125  11.979   4.774   0.752 -1.5378  2.5575  0.0827
  601MOL0     H81126  11.840   4.825   0.836  0.5844 -0.1679  1.4119
  601MOL0     H81127  11.763   4.602   0.899 -1.3334  4.6208 -0.6211
  601MOL0     H81128  11.919   4.526   0.863  0.8413  1.1450 -1.1795
  601MOL0     H81129  11.729   4.657   0.661  2.4611  0.8128 -2.4561
  601MOL0     H81130  11.857   4.577   0.602 -0.2796 -3.2602 -0.8419
  601MOL0     H81131  11.666   4.218   0.681  0.3133 -0.1553  0.7416
  601MOL0     H81132  11.713   4.627   1.237 -0.2862 -1.5362 -2.4354
  601MOL0     H81133  11.527   4.629   1.355 -0.5410  0.3953  2.0812
  601MOL0     H81134  11.505   4.774   1.455  0.6690 -0.4946  0.2082
  601MOL0     H81135  11.395   4.729   1.318  0.0145 -0.8819 -0.2729
  602MOL0     O81136   9.583   1.059   4.929 -0.1741 -0.0191  0.0889
  602MOL0     C81137   9.615   1.099   5.043  0.0825 -0.1198  0.3956
  602MOL0     O81138   9.552   1.200   5.109  0.8026  0.2093 -0.2309
  602MOL0     C81139   9.435   1.249   5.049  0.1974  0.6077 -0.4155
  602MOL0     C81140   9.314   1.175   5.062 -0.8537  0.7884 -0.2181
  602MOL0     C81141   9.196   1.218   5.017 -0.1284 -0.5225 -1.2027
  602MOL0     C81142   9.195   1.327   4.935 -0.6220 -1.0610  0.5913
  602MOL0     O81143   9.074   1.369   4.900  0.1048 -0.1175 -0.3257
  602MOL0     C81144   9.051   1.502   4.855 -0.2277 -0.2081 -0.9025
  602MOL0     C81145   8.900   1.527   4.853  0.5729 -0.1506  0.1631
  602MOL0     C81146   8.835   1.454   4.735  0.0362 -0.6479 -1.5129
  602MOL0     C81147   8.686   1.499   4.731 -0.6310  0.3417  0.3413
  602MOL0     C81148   8.638   1.460   4.590  0.2528  0.5591 -0.7532
  602MOL0     C81149   8.649   1.578   4.502  0.0425 -0.2089 -1.0217
  602MOL0     C81150   8.590   1.543   4.352  0.3779  0.7613 -0.4237
  602MOL0     C81151   8.490   1.643   4.305  0.3395 -0.4974 -0.9358
  602MOL0     N81152   8.456   1.637   4.158  0.0208  0.5313  0.1537
  602MOL0     C81153   8.526   1.677   4.049  0.1302 -0.6954  0.1160
  602MOL0     C81154   8.442   1.655   3.949  0.4825  0.8191  0.6530
  602MOL0     C81155   8.445   1.693   3.803 -0.3915  0.1061 -0.1408
  602MOL0     C81156   8.495   1.830   3.778  0.1013 -0.3117  0.6695
  602MOL0     C81157   8.489   1.849   3.622  0.1392 -0.2046 -1.0690
  602MOL0     C81158   8.565   1.975   3.585 -0.0174  0.1743 -0.0037
  602MOL0     O81159   8.516   2.013   3.453  0.6514  0.4961  0.0714
  602MOL0     C81160   8.561   2.115   3.385  0.8648  0.1352 -0.8398
  602MOL0     C81161   8.663   2.209   3.436  0.8026  0.0503 -1.0814
  602MOL0     C81162   8.689   2.317   3.355 -0.5545  0.0989 -0.5125
  602MOL0     C81163   8.616   2.348   3.235  0.3591 -0.6746 -0.8481
  602MOL0     C81164   8.639   2.461   3.147  0.0758 -0.4462  0.5488
  602MOL0     O81165   8.753   2.529   3.180 -0.2598  0.1893  0.2558
  602MOL0     C81166   8.770   2.653   3.131 -0.3951  0.9734 -0.0577
  602MOL0     C81167   8.661   2.748   3.118  0.7753 -0.8855 -0.6290
  602MOL0     C81168   8.702   2.879   3.072  1.4569 -0.2593  0.4955
  602MOL0     C81169   8.837   2.928   3.054  0.3089  0.7807 -0.0906
  602MOL0     O81170   8.880   3.052   3.010  0.6811 -0.2662 -0.3204
  602MOL0     C81171   8.773   3.138   2.946  0.0164 -0.6082  0.2105
  602MOL0     C81172   8.814   3.290   2.946  1.0061 -0.0580 -0.5025
  602MOL0     C81173   8.846   3.336   3.091 -1.1990 -0.5585  0.3003
  602MOL0     C81174   8.851   3.500   3.099  0.0940 -0.9212  0.0293
  602MOL0     C81175   8.901   3.545   3.236 -0.5027  0.0076 -0.0686
  602MOL0     C81176   8.920   3.696   3.224  0.6437  0.7392  0.4084
  602MOL0     C81177   8.937   3.760   3.357  1.0451  0.0276  0.2624
  602MOL0     C81178   8.821   3.763   3.452 -0.4326  0.0664 -0.7211
  602MOL0    Cl81179   8.701   3.880   3.400 -0.0635  0.0819 -0.3579
  602MOL0     C81180   8.929   2.825   3.051  0.0879  0.4290 -0.3344
  602MOL0     C81181   8.896   2.693   3.089 -0.2906 -0.5376 -1.2362
  602MOL0     O81182   8.571   2.480   3.046 -0.4307 -0.0836  0.1081
  602MOL0     C81183   8.520   2.252   3.191 -0.7621  0.2368 -1.6241
  602MOL0     C81184   8.502   2.130   3.261 -0.1494 -0.7864 -1.0893
  602MOL0     N81185   8.333   1.577   3.991  0.4745 -0.3506 -0.6818
  602MOL0     N81186   8.345   1.581   4.119  1.0050  0.0925  0.8499
  602MOL0     C81187   9.315   1.405   4.917 -0.8866 -0.0208  0.2915
  602MOL0     C81188   9.433   1.370   4.983  0.2596  0.4980  1.0732
  602MOL0     C81189   9.727   1.023   5.114  0.2847 -0.9470  1.1610
  602MOL0     C81190   9.829   0.981   5.033  0.1908  0.4366 -0.1818
  602MOL0     C81191   9.951   0.929   5.088  0.4117  0.9170  0.5966
  602MOL0     C81192   9.957   0.905   5.231 -0.6160 -1.0756 -0.3923
  602MOL0     O81193  10.056   0.838   5.305  0.1232 -0.1934 -0.6266
  602MOL0     C81194  10.151   0.748   5.237  0.2132 -0.1902  0.7477
  602MOL0     C81195  10.223   0.641   5.328 -0.4528  0.1826  0.3049
  602MOL0     C81196  10.329   0.698   5.423  0.5804  1.2677  0.4113
  602MOL0     C81197  10.471   0.660   5.390  0.7079 -0.0908  0.4510
  602MOL0     C81198  10.565   0.706   5.487  0.1825 -0.4058  0.3276
  602MOL0     C81199  10.642   0.732   5.575  0.0652  0.5819  0.1368
  602MOL0     C81200   9.854   0.962   5.313  0.9526 -0.0537 -0.0632
  602MOL0     C81201   9.738   1.020   5.261 -0.1475 -0.3556 -0.9004
  602MOL0     C81202   9.635   1.073   5.364 -0.0161 -0.3337  0.8125
  602MOL0     H81203   9.308   1.099   5.139 -1.8541 -0.8980 -1.8689
  602MOL0     H81204   9.103   1.175   5.055 -2.4620  3.4364 -1.9152
  602MOL0     H81205   9.086   1.568   4.935 -0.8698 -0.6538 -0.2404
  602MOL0     H81206   9.097   1.526   4.759 -1.7868 -1.7611 -2.1073
  602MOL0     H81207   8.882   1.635   4.853  3.5123  0.4331 -0.1874
  602MOL0     H81208   8.844   1.489   4.938 -1.6721 -1.0364 -1.6128
  602MOL0     H81209   8.843   1.345   4.747 -1.4763 -0.5669  0.9211
  602MOL0     H81210   8.883   1.479   4.640 -0.3381  0.3766 -1.4382
  602MOL0     H81211   8.642   1.436   4.809  1.2456 -3.3962 -1.3643
  602MOL0     H81212   8.686   1.607   4.745  3.5879  1.2964 -4.0447
  602MOL0     H81213   8.711   1.388   4.551 -1.5338 -0.9198 -1.5511
  602MOL0     H81214   8.537   1.417   4.588  0.2998  0.3328  0.5320
  602MOL0     H81215   8.592   1.657   4.552  0.9387  0.6649 -1.3511
  602MOL0     H81216   8.751   1.618   4.502 -0.3765  0.9353 -0.2113
  602MOL0     H81217   8.541   1.446   4.353  1.2791  0.2985  1.1699
  602MOL0     H81218   8.683   1.536   4.294  0.5229 -3.6698  0.0636
  602MOL0     H81219   8.392   1.628   4.351 -0.4931 -1.0234 -2.7616
  602MOL0     H81220   8.520   1.746   4.328  3.1374 -1.1500 -1.2437
  602MOL0     H81221   8.621   1.729   4.045 -0.5143  0.5012 -0.4942
  602MOL0     H81222   8.505   1.623   3.745 -1.9976 -3.2070  1.9145
  602MOL0     H81223   8.344   1.684   3.761 -0.1516  0.2093 -0.7447
  602MOL0     H81224   8.438   1.903   3.836  0.9056  1.0853 -0.2492
  602MOL0     H81225   8.601   1.837   3.802  0.5242 -1.1700 -0.8080
  602MOL0     H81226   8.385   1.852   3.589 -0.1487 -0.9083 -0.2762
  602MOL0     H81227   8.537   1.765   3.571  1.1833 -0.7426  0.7090
  602MOL0     H81228   8.671   1.952   3.568  0.7291  1.8333  1.9673
  602MOL0     H81229   8.563   2.053   3.661  0.6482  0.1807  0.0166
  602MOL0     H81230   8.722   2.185   3.524 -0.8627  0.5393  0.2339
  602MOL0     H81231   8.758   2.390   3.397 -0.1450 -0.5676 -0.0185
  602MOL0     H81232   8.556   2.725   3.132  1.1801 -2.7275 -0.3691
  602MOL0     H81233   8.617   2.943   3.054  1.1002 -0.4535  1.4316
  602MOL0     H81234   8.755   3.106   2.843 -0.9332 -3.7074  1.2308
  602MOL0     H81235   8.671   3.133   2.985 -0.0725  0.2165  0.1056
  602MOL0     H81236   8.897   3.317   2.880 -0.7310  2.3416 -1.8415
  602MOL0     H81237   8.740   3.361   2.909  0.6067  1.2894  2.5803
  602MOL0     H81238   8.773   3.292   3.159 -0.6474 -2.2011 -0.1090
  602MOL0     H81239   8.945   3.300   3.122  0.0649  1.9685 -0.5352
  602MOL0     H81240   8.759   3.554   3.074  0.2892  1.3223  3.4633
  602MOL0     H81241   8.924   3.531   3.024  2.7868 -2.5691  1.7855
  602MOL0     H81242   8.987   3.488   3.273 -1.6000 -2.4011 -1.0693
  602MOL0     H81243   8.821   3.525   3.308  0.0864  0.4803  0.7341
  602MOL0     H81244   9.013   3.726   3.174 -0.9604  0.1323 -3.3305
  602MOL0     H81245   8.838   3.743   3.168  0.9814  0.6593 -0.1655
  602MOL0     H81246   8.977   3.861   3.353 -0.8662  1.0120  2.9488
  602MOL0     H81247   9.011   3.699   3.411  0.4325 -0.0561  1.0271
  602MOL0     H81248   8.779   3.663   3.466 -0.4159  0.3967  2.4302
  602MOL0     H81249   8.864   3.804   3.544  3.1787 -3.0058 -0.7731
  602MOL0     H81250   9.026   2.841   3.004 -1.3980  2.5858 -2.9550
  602MOL0     H81251   8.969   2.613   3.083 -0.2230 -0.3953 -2.8039
  602MOL0     H81252   8.460   2.265   3.102  1.0632 -0.7883 -3.0753
  602MOL0     H81253   8.447   2.048   3.215  1.9494 -2.0254 -1.5274
  602MOL0     H81254   9.311   1.501   4.865  0.0150  0.1887  0.5879
  602MOL0     H81255   9.521   1.432   4.972  1.8071 -1.9092 -0.9808
  602MOL0     H81256   9.833   0.988   4.925 -0.8160  0.1363 -0.2542
  602MOL0     H81257  10.036   0.904   5.026  0.3056 -1.6965  1.3949
  602MOL0     H81258  10.233   0.802   5.187  2.2400 -3.0225  0.7494
  602MOL0     H81259  10.097   0.693   5.160  1.4479 -0.8803  0.3346
  602MOL0     H81260  10.274   0.561   5.273 -2.1562  1.2787 -3.1725
  602MOL0     H81261  10.143   0.600   5.390  0.5679 -1.6373  0.4950
  602MOL0     H81262  10.297   0.673   5.525  0.9442  1.9788  0.7107
  602MOL0     H81263  10.330   0.808   5.417 -3.2515  1.4617  0.8242
  602MOL0     H81264  10.476   0.551   5.381  3.0078  0.1584 -4.6127
  602MOL0     H81265  10.505   0.701   5.295 -0.9100 -0.3723 -0.2692
  602MOL0     H81266  10.715   0.778   5.638  1.5702  2.6890 -2.9148
  602MOL0     H81267   9.851   0.966   5.421  0.8141  2.5576 -0.0865
  602MOL0     H81268   9.656   1.060   5.470  1.8867  4.8271  1.3652
  602MOL0     H81269   9.631   1.182   5.360 -1.2824 -0.3860 -0.1155
  602MOL0     H81270   9.537   1.030   5.339 -0.0513 -0.4390  1.1275
  603MOL0     O81271  11.053   5.821   7.599  0.2687 -0.1884 -0.3597
  603MOL0     C81272  11.162   5.867   7.554  0.0052 -0.2410 -0.2869
  603MOL0     O81273  11.200   5.863   7.430  0.0420  0.2027  0.1662
  603MOL0     C81274  11.173   5.760   7.342 -0.1888 -0.3728  0.2972
  603MOL0     C81275  11.196   5.622   7.364 -0.2073  0.8226  0.2278
  603MOL0     C81276  11.181   5.526   7.255 -0.1919 -0.8038 -0.2298
  603MOL0     C81277  11.166   5.567   7.125 -0.3713 -1.0160 -0.6079
  603MOL0     O81278  11.168   5.469   7.030 -0.1093  0.2324 -0.5509
  603MOL0     C81279  11.173   5.496   6.888  0.5513  0.1563 -0.3600
  603MOL0     C81280  11.035   5.503   6.817 -0.3568  0.6322 -0.2254
  603MOL0     C81281  10.951   5.376   6.850 -0.1375 -0.6479  0.5430
  603MOL0     C81282  10.833   5.408   6.942  0.9016  0.1314 -0.0612
  603MOL0     C81283  10.809   5.302   7.056 -0.4258  0.4939 -0.2792
  603MOL0     C81284  10.789   5.157   7.000  0.1854  0.0725  0.6208
  603MOL0     C81285  10.728   5.054   7.104  0.2852 -0.6519 -0.0576
  603MOL0     C81286  10.642   4.938   7.057  0.9389 -0.1630 -0.2254
  603MOL0     N81287  10.507   4.986   7.011 -0.7503  0.0597 -0.0374
  603MOL0     C81288  10.410   4.900   6.954 -0.4076  0.5434  0.3196
  603MOL0     C81289  10.325   4.985   6.890 -0.4144 -0.4125  0.0354
  603MOL0     C81290  10.218   4.939   6.794  0.2495  0.1815 -0.2425
  603MOL0     C81291  10.123   4.838   6.861 -0.4551 -0.0299 -0.2794
  603MOL0     C81292   9.998   4.796   6.781  0.3163 -0.4874 -0.7551
  603MOL0     C81293  10.032   4.739   6.646 -0.5568  0.6198  0.0798
  603MOL0     O81294   9.907   4.714   6.581  0.6976 -0.1862  0.4520
  603MOL0     C81295   9.910   4.663   6.443 -0.7145  0.7445  0.5228
  603MOL0     C81296   9.790   4.653   6.375  1.2489  0.3060 -0.1579
  603MOL0     C81297   9.786   4.614   6.238 -0.5148  0.7312  0.1279
  603MOL0     C81298   9.905   4.590   6.165 -0.8428  0.9544 -0.2893
  603MOL0     C81299   9.897   4.583   6.021  0.8366  0.1154 -0.7841
  603MOL0     O81300   9.775   4.551   5.957 -0.3798 -0.0823 -0.1133
  603MOL0     C81301   9.773   4.540   5.821  0.1888  0.2589 -0.1618
  603MOL0     C81302   9.684   4.444   5.768  0.0638 -0.0814 -0.1811
  603MOL0     C81303   9.661   4.437   5.634 -0.3183 -0.3047  0.3516
  603MOL0     C81304   9.731   4.523   5.548  0.7902 -0.1970  0.6783
  603MOL0     O81305   9.702   4.505   5.414 -0.1501  0.1397 -0.2348
  603MOL0     C81306   9.811   4.528   5.324  0.0162 -0.7734 -0.2177
  603MOL0     C81307   9.915   4.417   5.327 -0.3357  0.0780  0.1389
  603MOL0     C81308   9.872   4.265   5.328  0.5620 -0.6977 -0.9072
  603MOL0     C81309   9.996   4.184   5.361  0.1039  0.5525  1.1518
  603MOL0     C81310  10.056   4.195   5.498  0.0468 -1.0540 -0.7084
  603MOL0     C81311   9.948   4.184   5.605  0.4350 -1.0223 -0.3189
  603MOL0     C81312   9.988   4.147   5.748 -0.1361  0.4713  0.1404
  603MOL0     C81313  10.025   4.265   5.837 -0.4232  0.5555  0.2585
  603MOL0    Cl81314  10.110   4.211   5.991  0.4447  0.0547 -0.2242
  603MOL0     C81315   9.821   4.624   5.594  0.4499  0.2294 -0.1577
  603MOL0     C81316   9.837   4.632   5.735 -0.1294 -0.4033  0.5130
  603MOL0     O81317  10.004   4.598   5.964 -0.1823 -0.2848 -0.8840
  603MOL0     C81318  10.035   4.591   6.238 -0.4522  0.6122  0.6710
  603MOL0     C81319  10.031   4.627   6.375 -0.3967 -0.9322  1.3750
  603MOL0     N81320  10.361   5.117   6.915 -0.2571 -0.6480 -0.2606
  603MOL0     N81321  10.474   5.118   6.989  0.7320 -0.3249  0.4432
  603MOL0     C81322  11.150   5.706   7.106  0.6237 -0.0188  0.9062
  603MOL0     C81323  11.153   5.797   7.209  0.8726 -0.2352 -0.6014
  603MOL0     C81324  11.237   5.956   7.646 -0.4762  0.4768 -0.1454
  603MOL0     C81325  11.166   6.047   7.723  0.5861 -0.1950 -0.3784
  603MOL0     C81326  11.244   6.146   7.789 -0.5856 -0.1311 -0.1919
  603MOL0     C81327  11.379   6.135   7.808 -0.1098  0.0892 -0.6258
  603MOL0     O81328  11.450   6.227   7.879 -0.5695 -0.9360  0.2020
  603MOL0     C81329  11.476   6.354   7.807 -0.1274  0.1012 -1.4176
  603MOL0     C81330  11.549   6.438   7.911  0.8807 -0.6493  0.2004
  603MOL0     C81331  11.562   6.578   7.856 -0.6313 -0.5115  0.3989
  603MOL0     C81332  11.647   6.663   7.956 -0.5728  0.6799  0.9775
  603MOL0     C81333  11.582   6.676   8.091 -0.6198  0.1525  0.6442
  603MOL0     C81334  11.547   6.681   8.207 -0.3073  0.1466  0.4965
  603MOL0     C81335  11.442   6.031   7.742  0.2487  0.4354 -0.2729
  603MOL0     C81336  11.376   5.943   7.656 -0.7550 -0.3391  0.0721
  603MOL0     C81337  11.443   5.832   7.589 -1.1656 -0.6553 -0.0196
  603MOL0     H81338  11.192   5.593   7.468  0.1615 -1.6182 -0.3824
  603MOL0     H81339  11.189   5.419   7.271  1.5395 -0.5822  0.5646
  603MOL0     H81340  11.232   5.586   6.867 -1.0039  0.6750 -2.9446
  603MOL0     H81341  11.229   5.409   6.853  0.2272 -0.9860  1.7967
  603MOL0     H81342  11.041   5.507   6.708 -0.8059 -0.6565 -0.3213
  603MOL0     H81343  10.984   5.596   6.842  0.3826  1.3138 -1.1978
  603MOL0     H81344  11.006   5.296   6.900  1.0392 -0.4302 -0.3622
  603MOL0     H81345  10.908   5.337   6.758 -1.9484  1.1183  0.5730
  603MOL0     H81346  10.834   5.508   6.986  0.5176  0.9198 -1.7493
  603MOL0     H81347  10.743   5.398   6.881  2.0132 -2.5736 -1.4606
  603MOL0     H81348  10.889   5.299   7.131 -1.7780 -0.9403  1.1873
  603MOL0     H81349  10.717   5.332   7.108  1.1385  0.1269  2.9264
  603MOL0     H81350  10.726   5.167   6.911  1.4357 -0.8899 -0.4031
  603MOL0     H81351  10.887   5.128   6.962 -0.3464 -0.2822 -0.5081
  603MOL0     H81352  10.680   5.106   7.187 -1.3207  0.4488 -1.5961
  603MOL0     H81353  10.819   5.009   7.146 -0.6213 -1.9130  0.6499
  603MOL0     H81354  10.682   4.882   6.972 -2.4378  0.1585 -2.2397
  603MOL0     H81355  10.614   4.867   7.135 -3.5440  0.3801 -1.0518
  603MOL0     H81356  10.406   4.791   6.951  1.1919  0.4458  0.5617
  603MOL0     H81357  10.150   5.020   6.764 -0.0818  0.0346  0.0985
  603MOL0     H81358  10.263   4.894   6.705 -1.0476 -3.0009  0.5698
  603MOL0     H81359  10.179   4.752   6.899 -0.7557  0.0512  0.3616
  603MOL0     H81360  10.081   4.886   6.950 -0.8922 -0.6904 -0.1140
  603MOL0     H81361   9.932   4.882   6.768  0.2084 -0.3950  0.3531
  603MOL0     H81362   9.934   4.723   6.831  2.1260 -1.9497 -0.4575
  603MOL0     H81363  10.095   4.650   6.651 -0.1869  0.8852  0.1648
  603MOL0     H81364  10.084   4.812   6.584  0.8346  2.2990  3.0246
  603MOL0     H81365   9.691   4.683   6.406  1.6831  1.1023  0.5054
  603MOL0     H81366   9.688   4.619   6.193 -0.3606  1.4040 -0.1472
  603MOL0     H81367   9.614   4.391   5.833 -3.6016 -0.4270 -3.9782
  603MOL0     H81368   9.595   4.359   5.596  1.3780 -1.2707 -0.7565
  603MOL0     H81369   9.777   4.548   5.222  2.4038 -0.7799 -1.0875
  603MOL0     H81370   9.864   4.622   5.342 -0.0400 -0.7653 -0.0949
  603MOL0     H81371   9.975   4.433   5.237  2.6022 -2.2773  1.5012
  603MOL0     H81372   9.984   4.428   5.412 -0.2312  1.4024 -0.1012
  603MOL0     H81373   9.782   4.251   5.389 -0.1244 -2.0398 -2.1695
  603MOL0     H81374   9.856   4.231   5.225 -1.2805 -3.1824  0.1031
  603MOL0     H81375  10.071   4.199   5.283 -2.4273  3.3832 -0.9692
  603MOL0     H81376   9.962   4.080   5.347 -0.8019  0.9260  0.4169
  603MOL0     H81377  10.109   4.290   5.508  1.7712 -2.0626  0.0966
  603MOL0     H81378  10.119   4.108   5.517  0.1420 -1.2125 -1.7082
  603MOL0     H81379   9.909   4.287   5.607  0.6624 -0.9440  0.6655
  603MOL0     H81380   9.877   4.111   5.566 -2.5267  0.5012  1.8642
  603MOL0     H81381  10.072   4.076   5.744  0.8151  1.6152 -1.1076
  603MOL0     H81382   9.914   4.096   5.810  1.0714 -0.8050  0.5982
  603MOL0     H81383  10.098   4.330   5.788 -2.7826  3.5379  0.4612
  603MOL0     H81384   9.942   4.329   5.867  0.9642  2.9666 -0.7309
  603MOL0     H81385   9.876   4.695   5.534  0.3672  0.7374  0.3567
  603MOL0     H81386   9.885   4.711   5.791 -0.7272  1.0577 -0.9576
  603MOL0     H81387  10.129   4.564   6.193  1.3126  3.3356  2.4147
  603MOL0     H81388  10.127   4.658   6.415  0.0385  1.0829 -0.9312
  603MOL0     H81389  11.135   5.741   7.005  1.4007  0.7569  1.0429
  603MOL0     H81390  11.151   5.903   7.187  1.6808 -0.5662 -2.5069
  603MOL0     H81391  11.061   6.070   7.707  1.0743  1.8884 -0.8237
  603MOL0     H81392  11.188   6.227   7.835  1.2575  0.9289  0.3018
  603MOL0     H81393  11.378   6.399   7.792 -0.2381  0.6258  0.5757
  603MOL0     H81394  11.529   6.332   7.714  1.5320 -1.9106 -0.0997
  603MOL0     H81395  11.649   6.403   7.938  0.0885 -1.1885  2.7335
  603MOL0     H81396  11.490   6.443   8.004  0.3386  2.0583 -0.2096
  603MOL0     H81397  11.466   6.622   7.829 -0.0945  2.7398  3.1586
  603MOL0     H81398  11.626   6.579   7.766 -0.1068 -1.5746  0.7497
  603MOL0     H81399  11.745   6.615   7.970 -1.1675 -0.3531  1.6901
  603MOL0     H81400  11.664   6.763   7.916 -0.0780  0.9628  1.8556
  603MOL0     H81401  11.528   6.708   8.309  2.6153  3.9231  0.2677
  603MOL0     H81402  11.551   6.023   7.746  0.1259 -1.5378  0.1862
  603MOL0     H81403  11.387   5.740   7.608  0.1302 -1.7874 -1.3996
  603MOL0     H81404  11.454   5.855   7.483  0.8905  3.5394  0.9025
  603MOL0     H81405  11.547   5.817   7.621 -0.9527 -0.1330 -0.4455
  604MOL0     O81406   9.979   8.595  11.249 -0.7746 -0.3561 -0.5517
  604MOL0     C81407  10.086   8.616  11.194 -0.1818  0.0216  0.1910
  604MOL0     O81408  10.195   8.668  11.251 -0.0058 -0.3712  0.1536
  604MOL0     C81409  10.194   8.706  11.385 -0.2563 -0.5688 -0.1455
  604MOL0     C81410  10.220   8.610  11.494 -0.7081  0.4507  0.4457
  604MOL0     C81411  10.223   8.639  11.631 -0.4459  0.1272  0.3220
  604MOL0     C81412  10.226   8.774  11.670 -0.3713  0.9041  0.4539
  604MOL0     O81413  10.247   8.822  11.797  0.0004  0.6488 -0.8507
  604MOL0     C81414  10.195   8.737  11.902  0.4584 -0.2137  0.4525
  604MOL0     C81415  10.162   8.822  12.027 -0.5679  0.9398 -0.3027
  604MOL0     C81416  10.152   8.729  12.151 -0.2350  0.5319  0.3079
  604MOL0     C81417  10.212   8.774  12.280 -0.1987 -0.2136 -0.0916
  604MOL0     C81418  10.363   8.792  12.279  0.5410 -0.3057 -0.4748
  604MOL0     C81419  10.422   8.819  12.416 -0.0879  0.2255  0.0048
  604MOL0     C81420  10.395   8.966  12.457  0.0289 -0.0447  0.0657
  604MOL0     C81421  10.522   9.054  12.463  0.6797  0.3146  0.0027
  604MOL0     N81422  10.554   9.106  12.329 -0.5684  0.8392  0.4094
  604MOL0     C81423  10.644   9.048  12.238 -0.9461 -0.0530 -0.2048
  604MOL0     C81424  10.670   9.133  12.138  0.2040  0.2577 -0.8764
  604MOL0     C81425  10.770   9.115  12.020 -0.1954 -0.5393 -0.2502
  604MOL0     C81426  10.697   9.085  11.893 -0.3119  0.8739  0.0769
  604MOL0     C81427  10.616   8.954  11.906 -0.3383 -1.0063  0.4824
  604MOL0     C81428  10.585   8.889  11.769  0.0901  0.6646 -0.4743
  604MOL0     O81429  10.706   8.846  11.705 -0.0154  0.2743 -0.2364
  604MOL0     C81430  10.695   8.797  11.574  0.3316 -1.1945 -0.1668
  604MOL0     C81431  10.805   8.742  11.510  0.2847  0.5680  0.3404
  604MOL0     C81432  10.803   8.705  11.379 -0.8573  0.0055  0.0322
  604MOL0     C81433  10.692   8.715  11.298  0.3289 -0.0908  0.2183
  604MOL0     C81434  10.702   8.676  11.151 -0.3273 -0.2898 -0.1796
  604MOL0     O81435  10.803   8.586  11.120 -0.0774  0.1033 -0.5228
  604MOL0     C81436  10.820   8.566  10.989 -0.5205 -0.0831  1.5085
  604MOL0     C81437  10.943   8.579  10.929 -0.1294 -0.4297 -0.3767
  604MOL0     C81438  10.969   8.529  10.803  0.3203 -0.0906  0.9542
  604MOL0     C81439  10.869   8.471  10.712 -0.2647 -0.4050  0.1793
  604MOL0     O81440  10.889   8.418  10.584 -0.7334  0.5672 -0.2000
  604MOL0     C81441  11.020   8.413  10.524  0.6655 -0.8072 -0.0425
  604MOL0     C81442  11.095   8.277  10.535  0.2765  0.0244 -0.5719
  604MOL0     C81443  11.232   8.284  10.466 -1.0900  0.0599 -0.0312
  604MOL0     C81444  11.303   8.155  10.511  0.5086 -0.0632 -0.3982
  604MOL0     C81445  11.456   8.166  10.510  1.2701  0.0897  0.3423
  604MOL0     C81446  11.528   8.049  10.588 -0.5724 -0.4981  0.1248
  604MOL0     C81447  11.677   8.043  10.591  0.1676 -0.3674 -0.0053
  604MOL0     C81448  11.755   7.979  10.475  0.0434 -0.7923  0.8123
  604MOL0    Cl81449  11.723   8.044  10.307  0.6189 -0.0169 -0.2418
  604MOL0     C81450  10.746   8.473  10.768  0.7644  0.1882  0.3987
  604MOL0     C81451  10.721   8.517  10.902 -0.7166  0.5845  0.2598
  604MOL0     O81452  10.628   8.739  11.076  0.4607 -0.4795  0.1567
  604MOL0     C81453  10.580   8.783  11.354  0.3017  0.4212  0.6814
  604MOL0     C81454  10.584   8.825  11.492  0.1156 -0.4415 -0.3331
  604MOL0     N81455  10.590   9.243  12.170  0.0118 -0.2674 -0.3225
  604MOL0     N81456  10.514   9.232  12.284 -0.3489  0.2226  0.2882
  604MOL0     C81457  10.226   8.876  11.566  0.6953  0.5183 -0.3833
  604MOL0     C81458  10.226   8.842  11.421  0.7323 -0.8190 -0.2047
  604MOL0     C81459  10.091   8.578  11.043  0.3276  0.1440  0.2351
  604MOL0     C81460   9.979   8.507  10.993  0.4485 -0.1106  0.0472
  604MOL0     C81461   9.983   8.464  10.865  0.0950 -1.5735  0.5451
  604MOL0     C81462  10.081   8.485  10.779  0.7166 -0.3206  0.4708
  604MOL0     O81463  10.067   8.424  10.651  0.7447 -0.0715  0.0214
  604MOL0     C81464  10.179   8.389  10.575  0.5209 -0.4919  0.4661
  604MOL0     C81465  10.148   8.246  10.531  0.4299 -0.2008 -1.1680
  604MOL0     C81466  10.269   8.167  10.499  0.3342  0.2262  0.0895
  604MOL0     C81467  10.367   8.235  10.392 -0.5765  0.5053 -0.4250
  604MOL0     C81468  10.425   8.133  10.306 -0.3159 -0.1100 -0.3592
  604MOL0     C81469  10.465   8.063  10.213  0.2116 -1.0571 -0.5356
  604MOL0     C81470  10.187   8.562  10.817 -0.4606  0.3951 -0.2671
  604MOL0     C81471  10.188   8.617  10.942 -0.4736 -0.5578 -0.3537
  604MOL0     C81472  10.290   8.723  10.980 -0.1212 -0.3968  0.4829
  604MOL0     H81473  10.217   8.506  11.462  1.1425 -0.3944  2.7353
  604MOL0     H81474  10.236   8.557  11.701 -0.7176 -1.1039 -1.0035
  604MOL0     H81475  10.098   8.695  11.873  1.7561 -2.1341 -1.4076
  604MOL0     H81476  10.260   8.653  11.926 -3.6291 -4.2072 -1.0134
  604MOL0     H81477  10.069   8.875  12.007 -0.5734  1.2791  0.5912
  604MOL0     H81478  10.244   8.892  12.045  0.8608 -0.4849 -0.9544
  604MOL0     H81479  10.191   8.632  12.119 -0.5423  1.3964 -3.0552
  604MOL0     H81480  10.046   8.704  12.165 -0.3451  0.8026 -0.0277
  604MOL0     H81481  10.165   8.868  12.308 -2.8059 -1.7622  1.0975
  604MOL0     H81482  10.185   8.703  12.359 -1.4673  0.1544 -0.1735
  604MOL0     H81483  10.413   8.702  12.243 -1.7894 -3.2230  2.9443
  604MOL0     H81484  10.393   8.868  12.206  0.5225 -0.8473 -1.0531
  604MOL0     H81485  10.368   8.747  12.479 -3.4518 -1.4466 -4.2337
  604MOL0     H81486  10.528   8.792  12.420  0.4854  1.9109 -2.0803
  604MOL0     H81487  10.362   8.959  12.561  0.5505 -0.6962  0.1969
  604MOL0     H81488  10.311   9.008  12.401 -0.7116 -2.4889 -0.8064
  604MOL0     H81489  10.507   9.140  12.529  1.2743  0.8653 -0.5523
  604MOL0     H81490  10.605   9.002  12.511  0.2630  0.9493  1.4522
  604MOL0     H81491  10.689   8.950  12.231  0.6181  0.4356  1.8858
  604MOL0     H81492  10.817   9.211  11.996 -1.6869  0.0602 -0.9292
  604MOL0     H81493  10.841   9.039  12.053  0.4082  0.5757  1.1197
  604MOL0     H81494  10.636   9.172  11.867  1.2796  2.4598  1.3981
  604MOL0     H81495  10.776   9.081  11.817 -0.9898  0.5869 -0.6268
  604MOL0     H81496  10.523   8.989  11.953 -0.2711 -0.8664  0.5126
  604MOL0     H81497  10.670   8.881  11.968  2.1242  0.2092 -0.1280
  604MOL0     H81498  10.521   8.956  11.712  0.3809  1.8774  0.5747
  604MOL0     H81499  10.526   8.802  11.801  2.5898 -1.0118 -0.1631
  604MOL0     H81500  10.902   8.722  11.556  1.5642  0.9044 -2.0536
  604MOL0     H81501  10.889   8.655  11.335 -1.8251 -1.5756 -0.1462
  604MOL0     H81502  11.018   8.625  10.994 -1.8779  0.6099  1.0100
  604MOL0     H81503  11.076   8.524  10.782  0.0651 -0.2284 -0.4184
  604MOL0     H81504  11.007   8.431  10.417 -1.6522  1.1851  0.4824
  604MOL0     H81505  11.077   8.498  10.564 -0.5731 -0.3923  0.8916
  604MOL0     H81506  11.115   8.263  10.642  1.2781  0.8392 -0.6318
  604MOL0     H81507  11.031   8.194  10.505  0.2492  0.3248 -1.3639
  604MOL0     H81508  11.218   8.290  10.357 -1.3489  2.3609  0.0890
  604MOL0     H81509  11.293   8.367  10.502 -0.0780 -2.1317  3.8375
  604MOL0     H81510  11.262   8.074  10.450 -0.0400  0.4364 -0.7047
  604MOL0     H81511  11.275   8.124  10.612  1.9018  1.4516  0.4957
  604MOL0     H81512  11.495   8.262  10.546 -0.2661  0.9283 -0.1558
  604MOL0     H81513  11.479   8.167  10.403 -1.7363  2.9188 -0.4550
  604MOL0     H81514  11.498   8.075  10.690  0.9204  5.4864 -0.5857
  604MOL0     H81515  11.494   7.950  10.555 -2.1971  0.1244 -0.1793
  604MOL0     H81516  11.720   7.986  10.674  0.9784  0.8206  0.4248
  604MOL0     H81517  11.710   8.147  10.592 -0.9832  0.0158 -0.3985
  604MOL0     H81518  11.860   8.009  10.486  0.3852 -1.1331 -1.1208
  604MOL0     H81519  11.748   7.870  10.480 -1.7577 -0.6694  1.3620
  604MOL0     H81520  10.676   8.427  10.700  0.0550 -0.9445  1.8498
  604MOL0     H81521  10.623   8.497  10.943 -0.6659  0.6940  0.4329
  604MOL0     H81522  10.488   8.802  11.300 -1.2856 -0.4108  2.9211
  604MOL0     H81523  10.500   8.874  11.540  0.4200 -1.2345  1.0729
  604MOL0     H81524  10.216   8.978  11.601  3.2746  1.7411 -2.8629
  604MOL0     H81525  10.221   8.922  11.348  0.9011  0.8788  1.5764
  604MOL0     H81526   9.884   8.484  11.040  0.7164  2.3772  2.0075
  604MOL0     H81527   9.893   8.411  10.835 -1.8921 -0.0702  3.3493
  604MOL0     H81528  10.270   8.386  10.635  1.9491  0.6242 -1.5057
  604MOL0     H81529  10.200   8.460  10.495  1.1706 -0.2524  0.8489
  604MOL0     H81530  10.081   8.230  10.446  0.8445 -0.4966 -1.4439
  604MOL0     H81531  10.106   8.184  10.610 -0.2789  1.0639 -0.5241
  604MOL0     H81532  10.239   8.070  10.460 -1.4169  0.2571  1.2165
  604MOL0     H81533  10.334   8.151  10.586 -0.1283  3.1939  1.1130
  604MOL0     H81534  10.312   8.319  10.349 -1.2976 -0.0822 -0.6627
  604MOL0     H81535  10.456   8.270  10.445 -0.6883  0.4529 -0.1987
  604MOL0     H81536  10.496   8.000  10.133  0.4488  0.3037 -1.5572
  604MOL0     H81537  10.258   8.591  10.741 -1.8399 -0.9498 -2.1761
  604MOL0     H81538  10.358   8.682  11.056  2.0222  0.4257 -0.9132
  604MOL0     H81539  10.333   8.776  10.895  2.5206  0.3298  2.1620
  604MOL0     H81540  10.247   8.816  11.018 -2.1644 -0.6480 -1.0100
  605MOL0     O81541   0.321  11.009   2.618  0.3407  0.1760  1.0166
  605MOL0     C81542   0.254  10.997   2.720  0.4917  0.0868 -0.3234
  605MOL0     O81543   0.119  11.017   2.728 -0.6359  0.5589 -0.6890
  605MOL0     C81544   0.051  11.065   2.622 -0.0173  0.3427  0.8460
  605MOL0     C81545   0.097  11.184   2.568 -0.5779 -0.4286 -0.1319
  605MOL0     C81546   0.041  11.226   2.446 -0.8460 -0.1096 -0.2998
  605MOL0     C81547  -0.065  11.157   2.385 -0.0638  0.3137 -0.8359
  605MOL0     O81548  -0.107  11.215   2.275  0.7175 -0.2815 -0.9291
  605MOL0     C81549  -0.160  11.134   2.168 -0.2235  0.1621  0.1051
  605MOL0     C81550  -0.244  11.223   2.076 -0.2964  0.2552 -0.1740
  605MOL0     C81551  -0.351  11.299   2.147  0.2641  0.0001  0.6633
  605MOL0     C81552  -0.418  11.215   2.253 -1.1867 -1.0205  0.4330
  605MOL0     C81553  -0.542  11.285   2.322 -0.0375  0.7745  0.1749
  605MOL0     C81554  -0.530  11.427   2.367 -0.2206 -0.8753  1.0346
  605MOL0     C81555  -0.438  11.446   2.489 -0.3258  0.5007 -0.6311
  605MOL0     C81556  -0.428  11.586   2.547  0.3542  0.4977 -0.8815
  605MOL0     N81557  -0.543  11.617   2.642 -0.6265  0.1659 -0.7905
  605MOL0     C81558  -0.526  11.620   2.783  0.0339 -0.5483 -0.9665
  605MOL0     C81559  -0.654  11.633   2.827  0.2061 -0.0460 -0.0771
  605MOL0     C81560  -0.696  11.632   2.973 -0.3079 -0.7023  0.4114
  605MOL0     C81561  -0.731  11.488   3.013  0.8892 -0.0546 -0.2360
  605MOL0     C81562  -0.783  11.480   3.154  0.1182  0.3476 -1.1623
  605MOL0     C81563  -0.675  11.475   3.268 -0.3273 -0.5138  0.0687
  605MOL0     O81564  -0.582  11.379   3.239  0.1309 -0.2768  0.2146
  605MOL0     C81565  -0.455  11.382   3.293  0.8670 -0.6638  0.7051
  605MOL0     C81566  -0.429  11.462   3.396 -0.7103 -0.5028 -0.5376
  605MOL0     C81567  -0.294  11.482   3.450 -0.4551 -0.2174 -1.6597
  605MOL0     C81568  -0.187  11.413   3.392  0.3773  0.7133 -0.2821
  605MOL0     C81569  -0.050  11.413   3.445 -0.0988 -1.7032  0.3498
  605MOL0     O81570   0.034  11.330   3.389  0.4013  0.1647 -0.2200
  605MOL0     C81571   0.164  11.314   3.444 -0.1435 -0.0042 -0.6012
  605MOL0     C81572   0.280  11.344   3.372 -0.1606 -0.1295  0.3027
  605MOL0     C81573   0.411  11.324   3.423  0.7161  0.1642  0.6157
  605MOL0     C81574   0.417  11.291   3.558 -0.2371  0.3030 -0.1386
  605MOL0     O81575   0.546  11.277   3.601  0.0206  0.1587  0.3185
  605MOL0     C81576   0.576  11.192   3.712  0.9634 -0.3363  0.6871
  605MOL0     C81577   0.731  11.210   3.742 -0.1479 -0.3098 -0.0755
  605MOL0     C81578   0.814  11.117   3.661  0.4918  0.0692 -0.5711
  605MOL0     C81579   0.971  11.126   3.695  0.0642 -0.5460 -0.6711
  605MOL0     C81580   1.058  11.103   3.573  0.2956  0.4005 -0.1564
  605MOL0     C81581   1.059  10.957   3.520 -0.3749  0.7602  0.2439
  605MOL0     C81582   1.162  10.938   3.405 -0.2760 -0.6259  0.7483
  605MOL0     C81583   1.137  10.821   3.319  1.2523 -0.4664 -0.3565
  605MOL0    Cl81584   1.179  10.673   3.412  0.0006  0.3474 -0.1642
  605MOL0     C81585   0.302  11.250   3.636  0.2306  0.2185  0.2515
  605MOL0     C81586   0.174  11.262   3.571 -0.6250  0.8045 -0.1180
  605MOL0     O81587  -0.020  11.490   3.533  0.3665  0.3544 -0.6178
  605MOL0     C81588  -0.221  11.325   3.290  0.0457 -0.2567 -0.2443
  605MOL0     C81589  -0.349  11.308   3.245 -1.0197  0.4609 -0.3014
  605MOL0     N81590  -0.739  11.641   2.720 -0.1851  0.4048  0.0784
  605MOL0     N81591  -0.674  11.619   2.610  0.8379 -1.0942 -1.1714
  605MOL0     C81592  -0.115  11.048   2.456  0.4179 -0.5244 -0.9908
  605MOL0     C81593  -0.052  10.995   2.565 -0.1013  0.5173  0.7734
  605MOL0     C81594   0.322  10.930   2.832 -0.1419  0.8235  0.2519
  605MOL0     C81595   0.238  10.866   2.925  0.0486 -0.2615  0.5302
  605MOL0     C81596   0.296  10.803   3.034 -0.2182 -0.4665 -0.9000
  605MOL0     C81597   0.435  10.802   3.061  0.7831 -0.8635 -0.6579
  605MOL0     O81598   0.477  10.721   3.173  1.1159  0.0769  0.9206
  605MOL0     C81599   0.612  10.706   3.212 -0.6073  1.4208  0.2972
  605MOL0     C81600   0.618  10.628   3.344  0.4105  0.3126 -0.4148
  605MOL0     C81601   0.762  10.617   3.399 -0.4179 -0.3031  0.4202
  605MOL0     C81602   0.761  10.544   3.535  0.5072  0.1248 -0.4522
  605MOL0     C81603   0.886  10.484   3.559  0.4038 -0.3002 -0.2573
  605MOL0     C81604   0.995  10.432   3.573  0.5620  0.7298  0.4352
  605MOL0     C81605   0.510  10.878   2.980  0.0167 -0.4846  0.3855
  605MOL0     C81606   0.460  10.937   2.862 -0.0617 -0.5296 -0.6529
  605MOL0     C81607   0.563  11.023   2.778  0.0154  0.5625  0.3317
  605MOL0     H81608   0.184  11.231   2.611 -2.5638  0.5049  3.2654
  605MOL0     H81609   0.088  11.316   2.407  2.5009 -1.6489 -0.1167
  605MOL0     H81610  -0.070  11.100   2.116 -1.4659 -1.0302 -1.3839
  605MOL0     H81611  -0.223  11.050   2.200 -1.9742  0.9785 -1.0800
  605MOL0     H81612  -0.303  11.160   2.010  0.0813 -0.2142 -0.0692
  605MOL0     H81613  -0.172  11.290   2.028  1.4361 -1.0539  0.4737
  605MOL0     H81614  -0.426  11.339   2.078  0.1832  1.1033  1.3700
  605MOL0     H81615  -0.316  11.395   2.187 -1.2742  0.6984  0.3986
  605MOL0     H81616  -0.457  11.121   2.214 -0.7286 -0.5987 -1.1032
  605MOL0     H81617  -0.347  11.194   2.333 -0.9432 -1.7353  0.0349
  605MOL0     H81618  -0.620  11.282   2.245 -1.1284 -1.9698  1.2469
  605MOL0     H81619  -0.570  11.220   2.406 -0.6206 -0.1084 -0.6771
  605MOL0     H81620  -0.502  11.483   2.277  2.7286  1.2965  3.0749
  605MOL0     H81621  -0.632  11.448   2.400 -0.7835 -2.1177  0.1057
  605MOL0     H81622  -0.337  11.410   2.466 -0.4933 -0.0513 -0.5043
  605MOL0     H81623  -0.465  11.382   2.573  2.5050  4.1971  3.5537
  605MOL0     H81624  -0.338  11.591   2.610 -1.0773  0.5823  1.2503
  605MOL0     H81625  -0.411  11.657   2.466  0.4099 -0.1082 -1.4080
  605MOL0     H81626  -0.440  11.615   2.848  0.0738 -2.0663 -1.0874
  605MOL0     H81627  -0.617  11.664   3.041  2.2735 -2.1754 -1.6956
  605MOL0     H81628  -0.777  11.705   2.979  0.0529 -0.4284  3.5480
  605MOL0     H81629  -0.820  11.440   2.972  0.3582 -2.7616  3.5759
  605MOL0     H81630  -0.649  11.422   2.983 -0.7684 -0.9927 -3.0735
  605MOL0     H81631  -0.838  11.387   3.168  0.8807 -0.2472 -1.9716
  605MOL0     H81632  -0.850  11.565   3.171  2.7285  2.3195  0.0620
  605MOL0     H81633  -0.728  11.461   3.362 -0.3707  0.1392  0.1491
  605MOL0     H81634  -0.614  11.566   3.270  2.1370 -1.9987 -1.9762
  605MOL0     H81635  -0.501  11.527   3.445  0.6740  0.1400  0.7277
  605MOL0     H81636  -0.286  11.545   3.538 -1.3726 -1.9027 -0.2931
  605MOL0     H81637   0.264  11.376   3.270 -0.2272  1.7019  0.8571
  605MOL0     H81638   0.493  11.361   3.362 -0.2290  0.3575 -0.5810
  605MOL0     H81639   0.521  11.212   3.804  1.4159  1.5066  0.5808
  605MOL0     H81640   0.574  11.085   3.687  2.2734 -0.3124  0.3946
  605MOL0     H81641   0.769  11.312   3.724  0.0751 -0.7116 -2.1005
  605MOL0     H81642   0.744  11.183   3.848  0.3399 -1.0033 -0.3099
  605MOL0     H81643   0.777  11.014   3.669 -0.8415  0.4436 -1.5290
  605MOL0     H81644   0.799  11.136   3.554 -1.0258 -0.6394 -0.5071
  605MOL0     H81645   1.005  11.054   3.770  2.0275  0.8813 -0.1078
  605MOL0     H81646   1.003  11.225   3.729  1.9232 -1.6210  0.9049
  605MOL0     H81647   1.156  11.113   3.620 -0.6043  3.1001  1.3326
  605MOL0     H81648   1.040  11.170   3.489 -2.8427 -1.7261 -1.3868
  605MOL0     H81649   1.092  10.888   3.598  1.1903 -1.9561 -2.5624
  605MOL0     H81650   0.960  10.917   3.497 -1.2976  2.4758  1.1150
  605MOL0     H81651   1.266  10.932   3.439  1.7774  0.1706 -4.4769
  605MOL0     H81652   1.138  11.028   3.349 -2.6170 -0.7704  1.4053
  605MOL0     H81653   1.030  10.808   3.297  1.1588 -4.3427  1.4594
  605MOL0     H81654   1.190  10.810   3.224  1.1186 -5.0843 -0.1243
  605MOL0     H81655   0.310  11.207   3.735  0.6524 -2.8983 -0.9990
  605MOL0     H81656   0.086  11.235   3.629  1.8669  2.4599  4.9404
  605MOL0     H81657  -0.149  11.258   3.244 -0.9003 -1.5147  0.0343
  605MOL0     H81658  -0.382  11.231   3.177 -1.9344 -0.1562  0.8199
  605MOL0     H81659  -0.194  10.997   2.403  0.5629 -1.5581 -0.2333
  605MOL0     H81660  -0.089  10.900   2.603 -1.8617 -0.6899 -3.3127
  605MOL0     H81661   0.132  10.858   2.904 -0.2233  1.5500  1.0209
  605MOL0     H81662   0.223  10.765   3.104  0.2515  0.5707  0.2001
  605MOL0     H81663   0.650  10.807   3.231 -0.3376  1.9603 -2.7089
  605MOL0     H81664   0.672  10.664   3.131 -1.8767 -1.3022  0.6723
  605MOL0     H81665   0.570  10.530   3.337  1.4617 -0.3831  1.3548
  605MOL0     H81666   0.566  10.679   3.426  2.0329  0.5739  0.4954
  605MOL0     H81667   0.802  10.718   3.410  0.1913 -0.4227 -0.6005
  605MOL0     H81668   0.828  10.571   3.325  0.7669  1.3971  0.3506
  605MOL0     H81669   0.747  10.612   3.619  3.2433  1.1958 -0.7598
  605MOL0     H81670   0.683  10.468   3.548 -0.0716  1.0289  1.7448
  605MOL0     H81671   1.091  10.384   3.579 -0.0766 -1.2375 -2.5756
  605MOL0     H81672   0.615  10.889   3.005  0.5267 -2.2904 -0.7762
  605MOL0     H81673   0.563  10.990   2.674 -4.8423  0.9015  0.0142
  605MOL0     H81674   0.535  11.129   2.786  1.1563  0.7198  3.9382
  605MOL0     H81675   0.659  11.025   2.830  0.7395 -0.2394 -0.9255
  606MOL0     O81676   1.570  10.374   5.115 -0.0667 -0.6701 -0.1407
  606MOL0     C81677   1.507  10.290   5.048 -0.1086 -0.7898 -0.4076
  606MOL0     O81678   1.527  10.160   5.056  0.1835 -0.4050 -0.3650
  606MOL0     C81679   1.636  10.109   5.119  0.2471 -0.7303 -0.0485
  606MOL0     C81680   1.763  10.127   5.070  0.2943 -0.8308  0.9781
  606MOL0     C81681   1.870  10.080   5.154 -0.3309  0.6447  0.4393
  606MOL0     C81682   1.844  10.022   5.284 -0.1864  0.7384  0.3301
  606MOL0     O81683   1.936   9.985   5.378 -0.3116  0.0745 -0.7280
  606MOL0     C81684   2.059   9.944   5.351 -0.2676 -0.3043 -0.2479
  606MOL0     C81685   2.162  10.046   5.417 -0.2558 -0.5772 -0.4759
  606MOL0     C81686   2.147  10.184   5.343  0.5892  0.2570 -0.4831
  606MOL0     C81687   2.234  10.182   5.211 -0.1589  0.1530  0.5195
  606MOL0     C81688   2.214  10.322   5.138 -0.0246  0.6421 -0.3296
  606MOL0     C81689   2.285  10.441   5.204 -0.2593  0.1523 -0.1021
  606MOL0     C81690   2.311  10.562   5.116  0.4303 -0.0564  1.2029
  606MOL0     C81691   2.363  10.670   5.215 -0.5998 -0.3462 -0.4932
  606MOL0     N81692   2.402  10.794   5.148 -0.4120 -0.7049  0.0244
  606MOL0     C81693   2.318  10.901   5.130  0.2900 -0.2342  0.4441
  606MOL0     C81694   2.385  10.979   5.042  0.4586 -0.8943  0.6655
  606MOL0     C81695   2.321  11.104   4.983 -0.6144  0.6588  0.6449
  606MOL0     C81696   2.206  11.075   4.882 -0.9057  0.1354 -0.1160
  606MOL0     C81697   2.179  11.194   4.783 -0.4751  0.6758 -0.3107
  606MOL0     C81698   2.201  11.151   4.633  0.2097 -0.1460  1.1285
  606MOL0     O81699   2.340  11.112   4.602  0.7469 -0.4681 -0.3163
  606MOL0     C81700   2.445  11.200   4.620 -1.0234 -0.7979 -0.2505
  606MOL0     C81701   2.426  11.340   4.608 -0.0556  0.0876 -0.5091
  606MOL0     C81702   2.530  11.429   4.612  0.3123  0.0723 -0.4855
  606MOL0     C81703   2.664  11.380   4.638  0.6138 -0.8108  0.7209
  606MOL0     C81704   2.776  11.467   4.648  0.2306 -0.6805 -1.1044
  606MOL0     O81705   2.753  11.605   4.643 -0.1743 -0.8454  0.5167
  606MOL0     C81706   2.843  11.706   4.674 -0.4113  0.2627 -0.6138
  606MOL0     C81707   2.834  11.828   4.618 -0.4849 -0.5011  0.2851
  606MOL0     C81708   2.915  11.931   4.643 -0.0127 -0.1139 -0.2131
  606MOL0     C81709   3.026  11.902   4.733  0.2599 -0.7569  1.2509
  606MOL0     O81710   3.091  12.002   4.791 -0.0186  0.8505 -0.7311
  606MOL0     C81711   3.085  12.139   4.740 -0.5580  0.1048 -0.2446
  606MOL0     C81712   3.197  12.230   4.764 -0.3467  0.7878 -0.0905
  606MOL0     C81713   3.339  12.176   4.729 -0.4786  0.3406 -0.4069
  606MOL0     C81714   3.354  12.148   4.581 -0.8060 -0.5876 -0.6645
  606MOL0     C81715   3.509  12.143   4.550 -0.0295 -0.4087  0.5084
  606MOL0     C81716   3.602  12.259   4.582 -0.1898  0.0168 -0.2447
  606MOL0     C81717   3.751  12.236   4.540  1.6470  0.1328  0.5409
  606MOL0     C81718   3.778  12.270   4.397  0.4378 -0.0872 -0.1104
  606MOL0    Cl81719   3.750  12.443   4.383  0.0089 -0.0198 -0.2277
  606MOL0     C81720   3.046  11.778   4.780  0.4669 -0.4384  0.1917
  606MOL0     C81721   2.955  11.677   4.753  0.1539 -0.0398 -0.8382
  606MOL0     O81722   2.881  11.419   4.669 -0.4110 -0.6172 -0.3894
  606MOL0     C81723   2.679  11.244   4.649  0.1917  0.6273  0.6557
  606MOL0     C81724   2.577  11.150   4.637  0.6803 -0.0672 -0.2216
  606MOL0     N81725   2.510  10.923   5.013  0.6492  0.7259 -1.0853
  606MOL0     N81726   2.512  10.813   5.075  0.0552  0.2594 -0.1218
  606MOL0     C81727   1.708  10.017   5.325 -1.1505  1.2032  0.0074
  606MOL0     C81728   1.607  10.054   5.239  0.8320  0.9300  0.1068
  606MOL0     C81729   1.398  10.335   4.959 -0.2272 -0.9564 -0.0337
  606MOL0     C81730   1.326  10.448   5.002 -0.2655 -0.0349  0.4923
  606MOL0     C81731   1.214  10.499   4.931 -1.2570 -0.1704  0.1240
  606MOL0     C81732   1.160  10.431   4.813 -0.7982  0.7666 -0.0361
  606MOL0     O81733   1.050  10.476   4.736 -0.1186  0.1800  0.0936
  606MOL0     C81734   1.004  10.609   4.745 -0.3606 -0.5470 -0.5775
  606MOL0     C81735   0.896  10.637   4.636  0.2393  0.1953 -0.1505
  606MOL0     C81736   0.928  10.634   4.489 -0.1444 -0.7616 -0.2682
  606MOL0     C81737   0.958  10.498   4.436  0.0058 -0.8763  0.1923
  606MOL0     C81738   0.963  10.483   4.285 -0.4908  0.6237 -0.6927
  606MOL0     C81739   0.969  10.462   4.166 -0.6209 -0.1259 -0.3523
  606MOL0     C81740   1.229  10.312   4.779 -0.0740  0.1274 -1.1182
  606MOL0     C81741   1.350  10.267   4.843  0.5908  0.0174 -0.2241
  606MOL0     C81742   1.411  10.138   4.799 -0.3425  0.5526  0.5876
  606MOL0     H81743   1.772  10.177   4.974 -1.4206  1.9009  2.0976
  606MOL0     H81744   1.972  10.084   5.115 -1.7147  3.1611 -3.5637
  606MOL0     H81745   2.069   9.842   5.390 -2.7637 -0.3699  0.4040
  606MOL0     H81746   2.081   9.940   5.244 -0.4186 -0.3943 -0.2757
  606MOL0     H81747   2.267  10.022   5.402 -0.4755 -1.1319 -1.1583
  606MOL0     H81748   2.129  10.049   5.522 -3.6539 -0.9443 -1.4258
  606MOL0     H81749   2.187  10.264   5.407  0.4852  0.7014 -0.9667
  606MOL0     H81750   2.044  10.206   5.314  0.1133 -3.4361 -2.1674
  606MOL0     H81751   2.341  10.168   5.231 -0.1052 -0.7547 -0.3347
  606MOL0     H81752   2.201  10.103   5.144  1.3655 -0.8583  0.8955
  606MOL0     H81753   2.249  10.306   5.035  1.8205  1.1716  0.1778
  606MOL0     H81754   2.105  10.330   5.133  0.1423  2.4317 -3.1663
  606MOL0     H81755   2.233  10.477   5.293  1.1255  2.4600 -0.1486
  606MOL0     H81756   2.378  10.405   5.247  0.3136  2.9551  1.1962
  606MOL0     H81757   2.224  10.595   5.060  1.8271  3.3549  0.8096
  606MOL0     H81758   2.386  10.526   5.045 -2.8144 -3.0508 -1.0632
  606MOL0     H81759   2.287  10.686   5.292 -1.5204  0.7084 -1.5691
  606MOL0     H81760   2.443  10.621   5.269 -3.1264 -0.8326  3.2117
  606MOL0     H81761   2.215  10.908   5.164  0.5280  2.0237  0.8257
  606MOL0     H81762   2.288  11.179   5.055  0.7403  0.4811  1.4880
  606MOL0     H81763   2.394  11.167   4.931 -0.5955  2.8490  3.0767
  606MOL0     H81764   2.218  10.980   4.830  0.2957 -0.4458  1.1529
  606MOL0     H81765   2.118  11.058   4.945 -1.1037 -0.6399 -0.6016
  606MOL0     H81766   2.254  11.270   4.805 -0.4930  0.5926  0.0381
  606MOL0     H81767   2.084  11.247   4.798 -2.1632 -1.4572 -2.5756
  606MOL0     H81768   2.164  11.230   4.566  0.4338 -1.5614 -0.7455
  606MOL0     H81769   2.134  11.065   4.622  3.8548 -3.2749  1.5501
  606MOL0     H81770   2.325  11.379   4.600 -1.2223 -2.9492 -1.9375
  606MOL0     H81771   2.510  11.536   4.614  0.8100  0.2216  2.9312
  606MOL0     H81772   2.746  11.851   4.558 -2.0976  1.9375  3.2793
  606MOL0     H81773   2.895  12.030   4.604  0.4028  0.6299  1.3755
  606MOL0     H81774   3.085  12.134   4.631  1.8631  2.0532 -0.4111
  606MOL0     H81775   2.991  12.190   4.760  1.0935  2.4335  2.3648
  606MOL0     H81776   3.172  12.327   4.719 -1.8680  1.6688  2.4346
  606MOL0     H81777   3.208  12.253   4.871  0.8830  1.6286 -0.3697
  606MOL0     H81778   3.408  12.253   4.763 -1.4277  0.0487  2.4106
  606MOL0     H81779   3.350  12.088   4.793  0.6837  2.3319  2.3425
  606MOL0     H81780   3.315  12.232   4.523 -2.8981 -1.0166  0.0138
  606MOL0     H81781   3.299  12.061   4.545 -0.0337 -1.1297 -0.5631
  606MOL0     H81782   3.533  12.106   4.450  1.6788  1.8718 -0.0127
  606MOL0     H81783   3.536  12.048   4.598 -3.0427 -2.7063 -1.9224
  606MOL0     H81784   3.558  12.347   4.535 -0.6002 -1.0360 -1.9024
  606MOL0     H81785   3.597  12.266   4.691  2.1109 -2.0192  0.0861
  606MOL0     H81786   3.778  12.133   4.562 -3.0365 -1.0394  2.1165
  606MOL0     H81787   3.811  12.297   4.609  0.2767  2.0215  0.1583
  606MOL0     H81788   3.880  12.239   4.373  0.8489 -1.7982  3.1737
  606MOL0     H81789   3.706  12.227   4.326  1.1108  0.7832 -1.3501
  606MOL0     H81790   3.116  11.765   4.862  0.7667 -1.7326 -0.2299
  606MOL0     H81791   2.976  11.582   4.802  1.5689  1.8968  2.7414
  606MOL0     H81792   2.781  11.208   4.655  1.5212  3.1793 -3.2167
  606MOL0     H81793   2.587  11.042   4.639  0.2235 -0.2243 -2.7638
  606MOL0     H81794   1.690   9.963   5.417  3.5645 -1.6070 -0.3954
  606MOL0     H81795   1.503  10.041   5.265  1.4393 -2.2738  1.4877
  606MOL0     H81796   1.347  10.492   5.099 -0.0135  0.9923 -0.0227
  606MOL0     H81797   1.156  10.580   4.972 -3.3237 -2.8069  2.8950
  606MOL0     H81798   1.077  10.688   4.724 -0.0193 -0.6475  0.2124
  606MOL0     H81799   0.965  10.636   4.843  1.0873  0.4260 -0.2412
  606MOL0     H81800   0.853  10.735   4.655 -1.4706 -0.6688  0.5985
  606MOL0     H81801   0.807  10.574   4.642  1.4231 -1.5797 -0.3864
  606MOL0     H81802   1.011  10.703   4.476 -1.1666  1.2407  2.8117
  606MOL0     H81803   0.840  10.677   4.440 -0.4996  2.9836  3.1520
  606MOL0     H81804   1.057  10.486   4.482 -1.2350 -0.4034  3.1563
  606MOL0     H81805   0.891  10.423   4.479 -0.8658 -0.3489 -0.2254
  606MOL0     H81806   0.964  10.441   4.061 -2.3701  1.1237 -0.5611
  606MOL0     H81807   1.180  10.250   4.705 -2.6457  1.5662 -0.7319
  606MOL0     H81808   1.518  10.161   4.797  0.2311 -1.8902 -1.0804
  606MOL0     H81809   1.400  10.060   4.874 -1.1379  0.5659  0.4968
  606MOL0     H81810   1.376  10.114   4.698  0.2984  2.7500 -0.2173
  607MOL0     O81811   5.657   1.530   0.879 -0.4086 -0.3256  1.0111
  607MOL0     C81812   5.605   1.476   0.781  1.7005 -0.3965  0.3363
  607MOL0     O81813   5.546   1.348   0.783 -0.2398  1.2539  0.7171
  607MOL0     C81814   5.570   1.246   0.881  1.3522 -0.0051  0.9026
  607MOL0     C81815   5.620   1.129   0.829  0.3999  0.8453 -0.3636
  607MOL0     C81816   5.650   1.029   0.921 -0.4208 -0.4495 -0.1438
  607MOL0     C81817   5.608   1.041   1.052 -0.0855  1.0551 -1.0473
  607MOL0     O81818   5.638   0.927   1.121  0.2519  0.3726  0.4275
  607MOL0     C81819   5.597   0.924   1.251  0.1917 -0.3264  0.2992
  607MOL0     C81820   5.656   0.794   1.317  0.9329  0.0270 -0.5892
  607MOL0     C81821   5.572   0.662   1.292  0.2919  0.6300 -0.5231
  607MOL0     C81822   5.585   0.608   1.147  0.5294 -0.3651 -0.1493
  607MOL0     C81823   5.545   0.459   1.116 -0.4467  0.0430 -0.1363
  607MOL0     C81824   5.395   0.429   1.118 -0.3536 -0.0178 -0.5254
  607MOL0     C81825   5.358   0.285   1.086 -0.2437 -0.5687  0.9356
  607MOL0     C81826   5.218   0.252   1.036 -0.5934 -0.3494 -0.2896
  607MOL0     N81827   5.197   0.284   0.897 -0.9407 -0.3624  0.5641
  607MOL0     C81828   5.112   0.222   0.812  0.0629  0.5351 -0.2377
  607MOL0     C81829   5.125   0.279   0.691  0.2172 -1.0136 -0.0273
  607MOL0     C81830   5.060   0.240   0.569  0.0147  0.1062  0.0456
  607MOL0     C81831   4.918   0.302   0.561  0.0496  0.2891  0.2933
  607MOL0     C81832   4.898   0.452   0.593 -0.2567  0.9206  0.3922
  607MOL0     C81833   4.983   0.540   0.504 -0.4221  0.6886  0.3769
  607MOL0     O81834   4.985   0.488   0.374  0.5909 -0.8585  0.6158
  607MOL0     C81835   5.012   0.576   0.264  1.0023 -0.4373  0.9254
  607MOL0     C81836   5.030   0.717   0.276  0.2611  0.0758  0.3067
  607MOL0     C81837   5.011   0.798   0.163  0.6325 -0.4191  0.0945
  607MOL0     C81838   4.990   0.747   0.037  0.5020  0.7014  0.2368
  607MOL0     C81839   4.960   0.838  -0.074 -1.1316  0.3276 -0.0874
  607MOL0     O81840   5.009   0.964  -0.056 -0.1469  0.1187 -0.1084
  607MOL0     C81841   4.955   1.069  -0.127 -0.2759 -0.2114  1.0563
  607MOL0     C81842   4.878   1.161  -0.053 -0.7981 -1.1387  0.4723
  607MOL0     C81843   4.801   1.250  -0.119  0.7143 -0.1468  0.0423
  607MOL0     C81844   4.813   1.270  -0.255  0.6460 -0.8422 -0.2703
  607MOL0     O81845   4.735   1.371  -0.304  0.0210 -0.0620  0.5203
  607MOL0     C81846   4.708   1.370  -0.447  0.2366  1.7813  0.9457
  607MOL0     C81847   4.627   1.488  -0.476 -0.4164  0.3376  0.6774
  607MOL0     C81848   4.513   1.506  -0.379  0.4873 -0.0173 -0.1022
  607MOL0     C81849   4.401   1.611  -0.431  0.5461  0.5134 -1.0433
  607MOL0     C81850   4.317   1.656  -0.305 -0.0108 -0.5952  0.8567
  607MOL0     C81851   4.198   1.738  -0.341  0.2043  0.1916  0.4463
  607MOL0     C81852   4.245   1.871  -0.391 -0.0935 -0.3032  0.1374
  607MOL0     C81853   4.165   2.006  -0.369  0.7792  0.4088 -0.5134
  607MOL0    Cl81854   4.251   2.149  -0.427 -0.0453 -0.3576  0.1964
  607MOL0     C81855   4.905   1.192  -0.330  0.4561  0.2472 -0.8476
  607MOL0     C81856   4.963   1.078  -0.265 -1.1173  0.0884  0.0345
  607MOL0     O81857   4.893   0.801  -0.169 -0.1430  0.0272  0.3816
  607MOL0     C81858   4.982   0.605   0.030  0.3285 -0.4147  0.5544
  607MOL0     C81859   4.998   0.525   0.135 -0.4671 -0.5959  0.1809
  607MOL0     N81860   5.217   0.386   0.708  0.5574 -0.2100 -0.3523
  607MOL0     N81861   5.262   0.381   0.834  0.0917 -0.5249  0.5014
  607MOL0     C81862   5.519   1.146   1.090 -0.9128 -0.0782  0.3405
  607MOL0     C81863   5.511   1.257   1.005  0.2123  0.7635 -0.6829
  607MOL0     C81864   5.590   1.560   0.668  0.1436 -0.2338  0.3624
  607MOL0     C81865   5.622   1.698   0.675  0.0475  0.0272 -0.5228
  607MOL0     C81866   5.597   1.796   0.570 -0.0248  1.0188  0.7176
  607MOL0     C81867   5.557   1.741   0.447  0.9657  0.1830 -0.5353
  607MOL0     O81868   5.529   1.837   0.351  0.3844  0.0647  0.2288
  607MOL0     C81869   5.423   1.927   0.383  0.2595 -1.2916 -0.4488
  607MOL0     C81870   5.484   2.065   0.401 -0.1315 -0.9518 -0.8774
  607MOL0     C81871   5.401   2.163   0.490 -0.4248 -0.1362  0.2047
  607MOL0     C81872   5.457   2.177   0.624 -1.6848 -0.0309 -0.3148
  607MOL0     C81873   5.586   2.249   0.607  0.0714  0.5815 -0.2419
  607MOL0     C81874   5.700   2.293   0.604  0.8120 -0.3329 -0.9261
  607MOL0     C81875   5.539   1.604   0.431  0.6550  0.2837 -0.0402
  607MOL0     C81876   5.556   1.516   0.541 -1.3142  0.1957  0.1082
  607MOL0     C81877   5.525   1.375   0.505 -0.1613  0.4117  0.1781
  607MOL0     H81878   5.654   1.116   0.727  2.3026  1.7838  0.1124
  607MOL0     H81879   5.711   0.944   0.891 -3.1982 -2.5668 -0.1385
  607MOL0     H81880   5.628   1.015   1.304 -0.8732  1.6326 -2.2267
  607MOL0     H81881   5.487   0.923   1.252  0.1720  0.3702 -0.3425
  607MOL0     H81882   5.662   0.805   1.426  2.7922 -2.6672 -0.3289
  607MOL0     H81883   5.761   0.791   1.288  1.8496  1.4143  2.2235
  607MOL0     H81884   5.469   0.680   1.327  1.2652  2.5271  1.6485
  607MOL0     H81885   5.605   0.581   1.357 -2.6779 -0.6169 -0.3806
  607MOL0     H81886   5.539   0.665   1.065  0.9382  1.4000  0.8061
  607MOL0     H81887   5.692   0.619   1.127  0.4759  1.9303  0.5314
  607MOL0     H81888   5.585   0.442   1.015  0.2091  2.4528 -0.3493
  607MOL0     H81889   5.584   0.396   1.196 -1.3331  0.0171  0.2907
  607MOL0     H81890   5.361   0.445   1.221  0.7076  0.1940 -0.1980
  607MOL0     H81891   5.335   0.503   1.064 -0.7012 -1.2122 -1.8477
  607MOL0     H81892   5.383   0.224   1.174  0.8279 -0.7837  0.5014
  607MOL0     H81893   5.420   0.237   1.010 -0.9040 -0.8849  0.5879
  607MOL0     H81894   5.193   0.147   1.054 -2.2493  0.0534 -0.0121
  607MOL0     H81895   5.150   0.312   1.098 -0.1737 -0.4823  0.3042
  607MOL0     H81896   5.048   0.139   0.839  1.8545 -0.6295  0.6184
  607MOL0     H81897   5.114   0.278   0.482  2.8354 -0.9719  1.2379
  607MOL0     H81898   5.067   0.132   0.558 -1.5294 -0.0660  0.4209
  607MOL0     H81899   4.882   0.267   0.464 -0.7048 -0.7429  0.9279
  607MOL0     H81900   4.862   0.240   0.632 -0.1578 -1.8739 -1.6271
  607MOL0     H81901   4.917   0.472   0.699  0.0043  2.3559  0.0863
  607MOL0     H81902   4.793   0.474   0.573 -0.7061 -0.6474  0.8450
  607MOL0     H81903   5.085   0.531   0.544  0.9088 -0.6908 -2.9854
  607MOL0     H81904   4.942   0.642   0.507 -1.3129  0.3925 -1.0041
  607MOL0     H81905   5.054   0.766   0.369 -0.6257  0.9658  0.0791
  607MOL0     H81906   5.019   0.906   0.169  3.1570 -0.3776 -1.9631
  607MOL0     H81907   4.873   1.162   0.055 -0.3960  2.1105  0.5673
  607MOL0     H81908   4.736   1.307  -0.053  0.0035 -1.1912  0.2836
  607MOL0     H81909   4.803   1.368  -0.502 -0.6758  1.1170 -0.6882
  607MOL0     H81910   4.644   1.286  -0.475 -3.2156  4.3613  0.2923
  607MOL0     H81911   4.703   1.565  -0.460  1.6587 -1.7278  1.3033
  607MOL0     H81912   4.591   1.494  -0.579  1.1066 -1.1399  0.0131
  607MOL0     H81913   4.467   1.410  -0.354 -1.1321  0.9213  0.6412
  607MOL0     H81914   4.540   1.543  -0.279  0.0764 -0.8524  0.3288
  607MOL0     H81915   4.342   1.571  -0.514 -0.6489 -0.2099  0.1430
  607MOL0     H81916   4.449   1.701  -0.473 -0.7054  2.0233  0.6470
  607MOL0     H81917   4.381   1.714  -0.238  1.1033 -0.6524 -0.1239
  607MOL0     H81918   4.280   1.565  -0.257 -0.3898 -1.2234 -0.5881
  607MOL0     H81919   4.153   1.691  -0.429  2.0518 -1.9061  0.5514
  607MOL0     H81920   4.122   1.743  -0.262  0.8148 -0.2050  1.0607
  607MOL0     H81921   4.261   1.858  -0.498 -0.4065  3.4899 -0.5217
  607MOL0     H81922   4.336   1.908  -0.344 -2.8204  2.9114  3.5496
  607MOL0     H81923   4.071   2.006  -0.425  1.4107  1.0255 -1.6095
  607MOL0     H81924   4.147   2.032  -0.264  0.5698 -4.0487  0.7693
  607MOL0     H81925   4.926   1.216  -0.434  0.9233  0.8176 -0.6273
  607MOL0     H81926   5.017   0.999  -0.316 -1.3205  1.2428 -2.0682
  607MOL0     H81927   4.952   0.561  -0.065  0.6850 -0.4878  0.4734
  607MOL0     H81928   5.001   0.418   0.120  3.7286 -0.6388  0.3134
  607MOL0     H81929   5.483   1.158   1.192  0.7671 -0.0376  0.9546
  607MOL0     H81930   5.455   1.336   1.054  0.8278 -0.5171  2.2944
  607MOL0     H81931   5.668   1.736   0.765 -5.6121  0.5203  2.5902
  607MOL0     H81932   5.603   1.903   0.590  2.0732  0.8320  1.3593
  607MOL0     H81933   5.363   1.888   0.466 -1.6490  1.4384 -0.4311
  607MOL0     H81934   5.345   1.937   0.307 -1.9931 -1.2133  1.7110
  607MOL0     H81935   5.498   2.107   0.301  1.0762  0.4986 -0.1357
  607MOL0     H81936   5.583   2.041   0.440  0.2834 -2.0128 -2.4452
  607MOL0     H81937   5.303   2.116   0.499 -1.8828  2.5998 -0.3130
  607MOL0     H81938   5.375   2.255   0.436 -1.1904 -0.3913  0.1198
  607MOL0     H81939   5.388   2.247   0.671 -2.2042 -2.1759  2.3869
  607MOL0     H81940   5.463   2.077   0.670 -1.7109  1.0346  2.1786
  607MOL0     H81941   5.802   2.324   0.615  0.6935  0.1914 -1.2444
  607MOL0     H81942   5.520   1.562   0.333  0.7438 -0.3110  0.1943
  607MOL0     H81943   5.611   1.315   0.535 -2.8991 -3.7448  0.4102
  607MOL0     H81944   5.444   1.339   0.569  1.6174 -2.6728  0.8844
  607MOL0     H81945   5.495   1.358   0.401  1.0079  0.8897 -0.2549
  608MOL0     O81946   4.371   9.270   5.717 -0.7976 -0.3188  0.1187
  608MOL0     C81947   4.398   9.238   5.832  1.0293  1.1017  0.9584
  608MOL0     O81948   4.412   9.110   5.873  0.0983 -0.0594  0.5412
  608MOL0     C81949   4.363   9.001   5.816 -0.0636  1.0453  0.3227
  608MOL0     C81950   4.294   8.997   5.698  0.0085  1.1762 -0.0422
  608MOL0     C81951   4.243   8.869   5.648  0.1210  0.3284 -0.1176
  608MOL0     C81952   4.253   8.756   5.721 -0.3210 -0.0719  0.6313
  608MOL0     O81953   4.185   8.642   5.675  0.6323 -0.4500  0.3915
  608MOL0     C81954   4.231   8.517   5.719 -0.2798 -0.9075 -0.0912
  608MOL0     C81955   4.369   8.492   5.658 -0.0784  0.0098 -0.5108
  608MOL0     C81956   4.442   8.372   5.732  0.0805  0.4154  0.4409
  608MOL0     C81957   4.519   8.279   5.636 -0.1285  0.6515 -0.3337
  608MOL0     C81958   4.560   8.157   5.718 -0.8070 -0.0072 -0.0737
  608MOL0     C81959   4.631   8.062   5.629 -0.0883  0.3701  0.2518
  608MOL0     C81960   4.769   8.101   5.586 -0.4606  0.3581 -0.1997
  608MOL0     C81961   4.878   8.066   5.693  0.1682 -0.5089 -0.0404
  608MOL0     N81962   5.019   8.067   5.641  0.3004  0.3656 -0.0804
  608MOL0     C81963   5.120   8.112   5.716 -0.4784 -0.4246  1.0571
  608MOL0     C81964   5.226   8.090   5.639 -0.6192 -0.3388 -0.7146
  608MOL0     C81965   5.357   8.108   5.713 -0.0156 -1.0802 -0.7217
  608MOL0     C81966   5.389   8.003   5.820 -0.0455  0.0959 -0.1700
  608MOL0     C81967   5.464   7.890   5.752 -0.1010 -0.1597  0.1301
  608MOL0     C81968   5.494   7.774   5.847  1.0097 -0.4444 -0.6000
  608MOL0     O81969   5.632   7.726   5.832  0.6472  0.8245  0.0954
  608MOL0     C81970   5.688   7.663   5.945  0.5891  0.5734  0.4693
  608MOL0     C81971   5.614   7.636   6.065 -0.2239 -0.8369  0.5100
  608MOL0     C81972   5.669   7.569   6.169 -0.8207 -0.6099 -0.8630
  608MOL0     C81973   5.808   7.538   6.179  0.4882 -0.1806  0.7647
  608MOL0     C81974   5.861   7.490   6.306  0.1437  0.0352 -0.7732
  608MOL0     O81975   5.981   7.428   6.300  0.2637  0.9280 -0.3412
  608MOL0     C81976   6.037   7.350   6.397  0.2679  1.2297 -0.4541
  608MOL0     C81977   5.963   7.270   6.477  0.7261  0.1656  0.1694
  608MOL0     C81978   6.021   7.169   6.559  0.7936  0.0050  0.2015
  608MOL0     C81979   6.161   7.165   6.572  1.0638  0.7051  0.0879
  608MOL0     O81980   6.197   7.080   6.671  0.4037  0.0851  0.1622
  608MOL0     C81981   6.331   7.049   6.675 -0.5487 -0.3862 -0.0788
  608MOL0     C81982   6.365   6.943   6.780 -0.5784  0.4236 -0.0042
  608MOL0     C81983   6.513   6.912   6.789 -0.7847 -0.0920 -0.6577
  608MOL0     C81984   6.609   7.038   6.817 -0.2298  0.1091 -0.1973
  608MOL0     C81985   6.755   6.986   6.826 -0.8678  0.0911  0.3496
  608MOL0     C81986   6.857   7.101   6.855  0.0049 -0.1536 -0.5473
  608MOL0     C81987   6.984   7.030   6.897 -0.7382 -0.6786  0.3756
  608MOL0     C81988   7.093   7.145   6.917  0.8363 -0.2366 -0.5336
  608MOL0    Cl81989   7.234   7.072   6.983 -0.2341  0.3563  0.5712
  608MOL0     C81990   6.240   7.237   6.484 -0.1311  0.0066  0.3657
  608MOL0     C81991   6.182   7.325   6.400  0.3853 -1.0240 -0.3672
  608MOL0     O81992   5.805   7.521   6.414  0.0342 -0.0426  0.6073
  608MOL0     C81993   5.872   7.556   6.054 -0.3684 -0.3982  0.2772
  608MOL0     C81994   5.817   7.615   5.940 -0.7209  0.2013  0.2772
  608MOL0     N81995   5.186   8.011   5.531 -0.2713  0.1673  0.3586
  608MOL0     N81996   5.064   8.004   5.526 -1.6467 -0.5629 -0.7320
  608MOL0     C81997   4.328   8.757   5.837 -0.4408  0.8384 -0.2590
  608MOL0     C81998   4.382   8.876   5.885 -0.7116 -0.5679  0.0996
  608MOL0     C81999   4.393   9.336   5.946  0.9274 -0.0973  0.4609
  608MOL0     C82000   4.366   9.292   6.072  0.4455  0.4948 -0.7333
  608MOL0     C82001   4.355   9.381   6.176  0.0682  0.4285  0.2605
  608MOL0     C82002   4.376   9.522   6.153 -0.1159  0.1235  0.1440
  608MOL0     O82003   4.382   9.632   6.238  0.3929  1.1421 -0.4893
  608MOL0     C82004   4.317   9.636   6.361 -0.7089 -0.6560 -0.1071
  608MOL0     C82005   4.417   9.613   6.481 -0.1157 -0.4149 -0.0235
  608MOL0     C82006   4.479   9.742   6.539 -0.2928  0.2294  0.7937
  608MOL0     C82007   4.552   9.710   6.673 -0.4915 -1.0176 -0.0234
  608MOL0     C82008   4.520   9.820   6.769 -0.6096  0.3909  0.1256
  608MOL0     C82009   4.496   9.913   6.851  0.5547  0.2784 -0.2477
  608MOL0     C82010   4.419   9.560   6.026 -0.6683  0.7290 -0.6523
  608MOL0     C82011   4.431   9.469   5.926  0.1286 -0.7981  0.0283
  608MOL0     C82012   4.513   9.510   5.809 -0.5862  0.1668 -0.6321
  608MOL0     H82013   4.263   9.083   5.640  1.7376  1.8336 -0.0346
  608MOL0     H82014   4.201   8.849   5.549  1.9012 -1.1068 -0.6218
  608MOL0     H82015   4.239   8.507   5.828  0.8421 -0.3796 -0.1024
  608MOL0     H82016   4.156   8.444   5.688 -1.2450 -1.2129  2.6744
  608MOL0     H82017   4.437   8.575   5.635  0.5184 -1.0647 -2.9741
  608MOL0     H82018   4.346   8.458   5.557  0.7082  2.1918 -1.4942
  608MOL0     H82019   4.362   8.321   5.786 -1.2238  2.7227  0.8028
  608MOL0     H82020   4.519   8.401   5.804 -0.6506  1.6553  0.7461
  608MOL0     H82021   4.472   8.239   5.546  4.7454 -3.3240 -1.5954
  608MOL0     H82022   4.607   8.339   5.609 -1.6473  3.1039 -0.2209
  608MOL0     H82023   4.628   8.186   5.799  0.7618 -1.0615 -0.9634
  608MOL0     H82024   4.477   8.099   5.759  0.2399 -1.2213  0.3741
  608MOL0     H82025   4.641   7.964   5.678 -1.3712  1.4140  2.8116
  608MOL0     H82026   4.571   8.041   5.540 -1.7700  2.8723  0.6983
  608MOL0     H82027   4.775   8.207   5.558 -1.1174  0.5132  0.2063
  608MOL0     H82028   4.807   8.051   5.497  2.0562  0.4371  0.7328
  608MOL0     H82029   4.881   8.133   5.779  2.0172  2.9499 -2.5464
  608MOL0     H82030   4.870   7.961   5.722 -0.0006 -0.7819 -1.0469
  608MOL0     H82031   5.111   8.172   5.806  2.8705 -0.9708  1.9100
  608MOL0     H82032   5.442   8.109   5.644  0.8780 -0.6076  0.3534
  608MOL0     H82033   5.357   8.210   5.755  3.7051 -1.4527  0.5282
  608MOL0     H82034   5.452   8.048   5.897 -0.0293  0.3865 -0.3533
  608MOL0     H82035   5.293   7.974   5.865  0.6906 -1.0696  0.7109
  608MOL0     H82036   5.557   7.923   5.705 -0.9733  3.1201  0.4743
  608MOL0     H82037   5.403   7.848   5.671  2.4289 -0.9554 -1.4793
  608MOL0     H82038   5.422   7.693   5.831 -1.4320  1.0254  1.9430
  608MOL0     H82039   5.475   7.815   5.947 -0.4685 -2.3574 -0.0371
  608MOL0     H82040   5.513   7.674   6.076 -0.1240 -0.4107 -0.0088
  608MOL0     H82041   5.597   7.551   6.248  0.1732 -0.0055  0.2029
  608MOL0     H82042   5.855   7.258   6.480  0.8920 -2.4688 -1.1423
  608MOL0     H82043   5.950   7.104   6.610 -0.3291 -1.3373 -2.8221
  608MOL0     H82044   6.375   7.024   6.578  2.7143  3.6250  0.0828
  608MOL0     H82045   6.387   7.136   6.710 -2.8566  0.3316  2.0479
  608MOL0     H82046   6.323   6.972   6.876  0.9362  0.0871  0.8040
  608MOL0     H82047   6.313   6.850   6.754 -1.7689  1.5391 -1.8318
  608MOL0     H82048   6.527   6.835   6.865 -0.5746 -0.9396 -1.5419
  608MOL0     H82049   6.542   6.855   6.700  1.0064 -3.0302  1.5986
  608MOL0     H82050   6.596   7.070   6.920 -0.4657 -0.5320 -0.0244
  608MOL0     H82051   6.607   7.119   6.743  1.4910 -0.1368 -0.5697
  608MOL0     H82052   6.792   6.936   6.736  3.4631  1.4326  1.1446
  608MOL0     H82053   6.757   6.904   6.898  0.7947  1.5478  2.0660
  608MOL0     H82054   6.875   7.173   6.774  1.1006  0.9161  0.5996
  608MOL0     H82055   6.831   7.169   6.937 -0.5422 -2.9550  1.7469
  608MOL0     H82056   7.025   6.961   6.823 -2.5031  0.2208 -1.5759
  608MOL0     H82057   6.962   6.973   6.988 -1.3734  0.2558  0.8282
  608MOL0     H82058   7.113   7.188   6.819  0.4785 -1.7591 -1.3065
  608MOL0     H82059   7.059   7.223   6.985 -3.0506 -2.9527  0.9693
  608MOL0     H82060   6.348   7.235   6.484 -0.1075  0.7736 -0.0134
  608MOL0     H82061   6.240   7.386   6.332  0.6219  0.2662  0.9301
  608MOL0     H82062   5.976   7.526   6.045 -0.9801 -2.0215 -2.0762
  608MOL0     H82063   5.884   7.612   5.855 -1.8070  0.3767 -0.6099
  608MOL0     H82064   4.356   8.669   5.894 -3.2057  1.6432  2.5930
  608MOL0     H82065   4.442   8.883   5.975  3.0790 -0.6028 -2.2132
  608MOL0     H82066   4.346   9.188   6.093  2.8181  0.5239  2.3552
  608MOL0     H82067   4.339   9.347   6.278  2.5818  2.5700  1.4980
  608MOL0     H82068   4.242   9.557   6.354  1.8541 -3.1428 -1.7827
  608MOL0     H82069   4.270   9.734   6.370  0.6323 -0.0267  0.2281
  608MOL0     H82070   4.490   9.534   6.461 -2.0030 -2.6788  1.3938
  608MOL0     H82071   4.346   9.586   6.560  0.5590  0.9430  1.0707
  608MOL0     H82072   4.398   9.814   6.554 -0.9595 -0.5031  0.7466
  608MOL0     H82073   4.537   9.785   6.456 -1.5065 -3.7141 -2.4734
  608MOL0     H82074   4.508   9.621   6.719 -1.0499 -1.3039 -1.0913
  608MOL0     H82075   4.660   9.699   6.657 -0.3598  2.2574 -2.2591
  608MOL0     H82076   4.489   9.984   6.932  1.3261  1.2185 -0.9877
  608MOL0     H82077   4.449   9.661   6.002 -0.5793  0.5125 -1.4896
  608MOL0     H82078   4.497   9.469   5.709  1.4149 -1.7210 -0.2449
  608MOL0     H82079   4.511   9.619   5.799  2.6860  0.6882  2.3570
  608MOL0     H82080   4.617   9.494   5.837 -0.9047 -2.0125 -0.5102
  609MOL0     O82081   1.034   0.885   6.922 -0.8171 -0.7305  0.4750
  609MOL0     C82082   1.076   0.876   7.034 -0.9383 -0.1641  0.6066
  609MOL0     O82083   1.147   0.760   7.077  0.5095  0.1234  0.0958
  609MOL0     C82084   1.117   0.639   7.022 -0.1383 -0.6649 -0.6681
  609MOL0     C82085   0.989   0.578   7.042 -0.1889 -0.0152  0.7830
  609MOL0     C82086   0.961   0.456   6.987  0.0168  0.2686  0.2238
  609MOL0     C82087   1.062   0.386   6.928 -0.2839  0.0475  0.2378
  609MOL0     O82088   1.032   0.267   6.872  0.2564  0.5162 -0.1024
  609MOL0     C82089   1.043   0.240   6.729 -0.7623  0.2712  0.4658
  609MOL0     C82090   1.044   0.096   6.704  1.0275  0.0141 -0.4148
  609MOL0     C82091   1.061   0.089   6.547 -1.0416 -0.2247  0.2913
  609MOL0     C82092   1.120  -0.044   6.510  0.2652  0.3617  0.1996
  609MOL0     C82093   1.043  -0.173   6.516  0.0119  0.4926  0.0418
  609MOL0     C82094   1.140  -0.281   6.466  0.0523  0.1754 -0.5791
  609MOL0     C82095   1.091  -0.413   6.513 -0.1131 -0.2461 -0.1088
  609MOL0     C82096   1.160  -0.475   6.627 -0.3482 -0.4357 -0.2153
  609MOL0     N82097   1.158  -0.380   6.748 -0.5032 -0.2911  0.2474
  609MOL0     C82098   1.225  -0.263   6.767 -0.7860  0.1074 -0.3501
  609MOL0     C82099   1.198  -0.226   6.893 -0.2051 -0.9063  0.0460
  609MOL0     C82100   1.252  -0.104   6.975 -1.6643  0.0469 -0.0647
  609MOL0     C82101   1.151  -0.027   7.057 -0.4133  1.3225  0.1495
  609MOL0     C82102   1.216   0.101   7.116  0.0421  0.4652  0.0926
  609MOL0     C82103   1.112   0.172   7.206  0.1428  0.6843 -0.2666
  609MOL0     O82104   1.128   0.117   7.340 -0.2247  0.0578 -0.5192
  609MOL0     C82105   1.077   0.192   7.446 -1.8232 -0.5751 -0.0240
  609MOL0     C82106   1.072   0.122   7.572 -1.0289 -0.2601  0.7064
  609MOL0     C82107   1.000   0.166   7.684 -0.2729  0.1151 -0.2474
  609MOL0     C82108   0.930   0.289   7.671 -0.5494 -0.9289  0.0539
  609MOL0     C82109   0.852   0.341   7.786 -0.0234  0.0188  0.2182
  609MOL0     O82110   0.807   0.473   7.767 -0.3126 -0.1866 -0.1867
  609MOL0     C82111   0.749   0.552   7.871  0.0624  0.2602 -0.3033
  609MOL0     C82112   0.785   0.565   8.006 -0.3739 -0.0586 -0.8441
  609MOL0     C82113   0.698   0.600   8.099 -0.0915  0.1121 -0.7725
  609MOL0     C82114   0.565   0.639   8.064 -0.1669  0.3053  0.0756
  609MOL0     O82115   0.474   0.686   8.157 -0.2349 -0.9942  0.3568
  609MOL0     C82116   0.487   0.634   8.290 -0.4012 -0.4023  0.1894
  609MOL0     C82117   0.354   0.585   8.341  0.2434  0.6025 -0.0829
  609MOL0     C82118   0.359   0.567   8.489  0.5329  0.4849 -2.1641
  609MOL0     C82119   0.205   0.573   8.535  0.9526 -0.1947 -0.5781
  609MOL0     C82120   0.188   0.569   8.688  0.3979 -0.1352  0.1362
  609MOL0     C82121   0.278   0.468   8.766 -0.3515  0.3433  0.6056
  609MOL0     C82122   0.255   0.327   8.726  0.2676  0.6877 -0.3726
  609MOL0     C82123   0.367   0.233   8.781  0.1720  0.1264  0.3719
  609MOL0    Cl82124   0.313   0.069   8.744 -0.1746  0.0690  0.0528
  609MOL0     C82125   0.534   0.648   7.931  0.1450 -0.3049  0.0007
  609MOL0     C82126   0.627   0.601   7.836 -0.1129  0.3423 -0.8124
  609MOL0     O82127   0.823   0.258   7.874 -0.0312 -0.4056  0.8541
  609MOL0     C82128   0.946   0.366   7.550 -0.2031  0.2531  0.0591
  609MOL0     C82129   1.024   0.322   7.439  0.0015 -0.2464 -0.3423
  609MOL0     N82130   1.114  -0.314   6.943 -0.1313  0.9098  0.4199
  609MOL0     N82131   1.089  -0.413   6.857 -0.8947  0.4924 -0.1003
  609MOL0     C82132   1.182   0.442   6.905 -0.5162  0.1269 -0.2961
  609MOL0     C82133   1.213   0.572   6.942 -1.1059  0.6878  0.4854
  609MOL0     C82134   1.032   0.976   7.129  0.3096 -0.6019  0.3418
  609MOL0     C82135   1.002   0.933   7.258 -0.4801 -0.3376 -0.5462
  609MOL0     C82136   0.956   1.016   7.356  1.0272  0.3253 -0.2601
  609MOL0     C82137   0.944   1.146   7.329 -0.6852  0.2653 -0.6076
  609MOL0     O82138   0.918   1.242   7.427  0.2711 -0.5792 -0.5934
  609MOL0     C82139   0.896   1.210   7.571 -0.2735 -0.3549  0.1682
  609MOL0     C82140   0.917   1.340   7.650  1.3671  0.0488 -0.7640
  609MOL0     C82141   0.908   1.313   7.801 -1.1722 -0.1077 -0.2336
  609MOL0     C82142   0.958   1.424   7.881 -0.2494 -0.5891 -0.8888
  609MOL0     C82143   0.954   1.379   8.020  1.4953  0.5222  0.1735
  609MOL0     C82144   0.951   1.343   8.136  1.0964  0.3701  0.2027
  609MOL0     C82145   0.984   1.199   7.208  0.2009 -0.1972  0.2920
  609MOL0     C82146   1.025   1.118   7.103 -0.4626 -0.0007 -0.1118
  609MOL0     C82147   1.051   1.186   6.974  1.1951 -0.1848  0.4096
  609MOL0     H82148   0.915   0.626   7.105 -0.4109 -0.2580  0.7099
  609MOL0     H82149   0.863   0.409   6.987 -0.7476  1.4979 -3.5740
  609MOL0     H82150   0.959   0.281   6.673  0.3115  1.4533 -0.3474
  609MOL0     H82151   1.128   0.297   6.691 -1.1533  0.2947 -0.3862
  609MOL0     H82152   0.945   0.056   6.727  1.6910 -2.1867 -1.1542
  609MOL0     H82153   1.117   0.048   6.769 -1.2321 -0.5721  1.8399
  609MOL0     H82154   1.134   0.164   6.514 -2.6028  1.0880 -0.3258
  609MOL0     H82155   0.966   0.094   6.493 -2.5867 -1.2091  2.7465
  609MOL0     H82156   1.168  -0.049   6.412  1.1176  0.8333  0.5804
  609MOL0     H82157   1.204  -0.061   6.578 -0.4960  0.8790  1.2909
  609MOL0     H82158   0.989  -0.201   6.607 -3.4437 -0.4817 -2.1111
  609MOL0     H82159   0.954  -0.164   6.453 -1.0793 -1.9287  1.0960
  609MOL0     H82160   1.156  -0.264   6.359  0.5221 -0.0005 -0.5367
  609MOL0     H82161   1.241  -0.261   6.503 -0.2697  2.0055 -0.6052
  609MOL0     H82162   1.115  -0.484   6.433  1.9852 -1.2048  1.2884
  609MOL0     H82163   0.983  -0.415   6.528  0.0506 -0.5916  1.1098
  609MOL0     H82164   1.123  -0.575   6.650  0.0061 -0.6853 -0.7085
  609MOL0     H82165   1.266  -0.478   6.600 -0.0144  0.3670  0.9246
  609MOL0     H82166   1.290  -0.211   6.697  1.0132  1.5084  2.1709
  609MOL0     H82167   1.324  -0.145   7.046  2.6321  1.9328 -2.9052
  609MOL0     H82168   1.304  -0.036   6.907  2.2878 -0.7242  1.9404
  609MOL0     H82169   1.058  -0.005   7.003 -0.5820 -2.7850 -1.6064
  609MOL0     H82170   1.123  -0.096   7.137  2.3679  0.4162  0.4430
  609MOL0     H82171   1.241   0.171   7.036  0.3961 -0.1811 -0.3812
  609MOL0     H82172   1.306   0.072   7.171 -0.8956 -2.3539  0.3204
  609MOL0     H82173   1.015   0.166   7.157  0.3488  1.8814 -0.8571
  609MOL0     H82174   1.131   0.280   7.200  1.2190  0.4566 -1.5048
  609MOL0     H82175   1.097   0.016   7.577 -0.2025 -0.0421  1.4956
  609MOL0     H82176   0.976   0.101   7.768  1.8661 -0.9807 -0.4153
  609MOL0     H82177   0.887   0.533   8.026  0.4433  2.8433  0.1513
  609MOL0     H82178   0.728   0.608   8.203 -2.8256  2.3343 -0.0096
  609MOL0     H82179   0.543   0.540   8.294  1.0859  0.4517  0.2859
  609MOL0     H82180   0.524   0.708   8.361  0.7245 -0.7143 -0.0519
  609MOL0     H82181   0.267   0.639   8.302  0.0620  0.3648 -0.0125
  609MOL0     H82182   0.341   0.488   8.291 -0.6226  0.2310  0.8262
  609MOL0     H82183   0.397   0.469   8.520 -2.7767  0.2203  1.8312
  609MOL0     H82184   0.419   0.644   8.538 -1.4907  0.2816  0.8445
  609MOL0     H82185   0.148   0.491   8.491  0.0757  0.4755 -0.7045
  609MOL0     H82186   0.164   0.666   8.496  0.3004 -1.1604 -2.2597
  609MOL0     H82187   0.087   0.538   8.714  1.1815 -2.2761  0.8549
  609MOL0     H82188   0.209   0.669   8.727  4.5486 -1.7446  2.6698
  609MOL0     H82189   0.386   0.471   8.750  0.4453 -2.3568  4.0731
  609MOL0     H82190   0.263   0.473   8.874  0.0947 -1.7239  0.8118
  609MOL0     H82191   0.254   0.317   8.617 -1.7634 -0.3363 -0.3114
  609MOL0     H82192   0.158   0.297   8.766 -0.1951  2.3612 -0.1560
  609MOL0     H82193   0.463   0.247   8.730 -0.6420 -0.1182 -1.2658
  609MOL0     H82194   0.375   0.266   8.886 -3.6431 -0.2785  0.9291
  609MOL0     H82195   0.438   0.695   7.913  0.9187  1.6738  0.7005
  609MOL0     H82196   0.585   0.610   7.736 -0.8395  0.0456 -0.5386
  609MOL0     H82197   0.902   0.465   7.550 -0.6220  0.0848 -1.0582
  609MOL0     H82198   1.036   0.375   7.345 -2.8927 -0.2668 -0.8355
  609MOL0     H82199   1.257   0.382   6.854  2.2921  2.5148  0.7594
  609MOL0     H82200   1.307   0.625   6.933 -1.2848  0.7452 -1.6235
  609MOL0     H82201   1.015   0.830   7.290  2.4269 -0.1615 -0.8792
  609MOL0     H82202   0.926   0.964   7.447  1.5345 -1.6808 -1.1891
  609MOL0     H82203   0.987   1.156   7.600  0.9557  0.4222 -2.0035
  609MOL0     H82204   0.795   1.168   7.579  0.2168 -1.8737 -1.2195
  609MOL0     H82205   0.834   1.408   7.629  1.5013 -0.2502 -2.4227
  609MOL0     H82206   1.011   1.388   7.623  0.3731  1.3462 -2.0891
  609MOL0     H82207   0.983   1.238   7.827 -0.6472  0.4723 -0.0603
  609MOL0     H82208   0.807   1.273   7.819 -1.3905  0.9947  1.1583
  609MOL0     H82209   1.059   1.450   7.849  0.1163 -0.4063  0.3817
  609MOL0     H82210   0.905   1.518   7.861  0.3859  0.1013  0.6047
  609MOL0     H82211   0.965   1.323   8.241  1.1188  1.2878  0.3889
  609MOL0     H82212   0.979   1.306   7.193  1.7583  0.1059  1.5508
  609MOL0     H82213   0.956   1.176   6.920  0.8125 -3.4087  1.4676
  609MOL0     H82214   1.076   1.292   6.986 -0.2122  0.0319  1.6879
  609MOL0     H82215   1.123   1.138   6.907  3.9479  1.3068  2.1488
  610MOL0     O82216  10.683   7.429   6.819  0.0920 -0.5451  0.3902
  610MOL0     C82217  10.691   7.507   6.721 -0.6320 -0.1131  0.0291
  610MOL0     O82218  10.797   7.574   6.684 -0.6736  0.1010  0.0285
  610MOL0     C82219  10.917   7.545   6.739 -0.6894  0.3779 -0.3090
  610MOL0     C82220  10.942   7.583   6.873 -0.2997  0.5140  0.3375
  610MOL0     C82221  11.061   7.537   6.931 -0.0172  0.3658  0.1184
  610MOL0     C82222  11.154   7.457   6.862 -0.8646  0.4572 -0.2940
  610MOL0     O82223  11.264   7.416   6.930 -0.8543 -0.2197  0.1419
  610MOL0     C82224  11.240   7.298   7.005  0.1291  0.2557  0.3172
  610MOL0     C82225  11.359   7.304   7.105 -0.2121 -0.0089  0.2999
  610MOL0     C82226  11.339   7.376   7.240 -0.3849 -0.0047  1.0021
  610MOL0     C82227  11.448   7.335   7.333 -0.8829 -0.0443 -0.0805
  610MOL0     C82228  11.435   7.430   7.455 -0.4032  0.2298  0.0525
  610MOL0     C82229  11.297   7.410   7.525 -0.7307  0.4931  0.4247
  610MOL0     C82230  11.311   7.421   7.682 -0.2397  0.1488 -0.5198
  610MOL0     C82231  11.182   7.388   7.753  0.4453 -0.2284 -0.3550
  610MOL0     N82232  11.089   7.504   7.763 -0.6678 -0.6088 -0.4732
  610MOL0     C82233  11.110   7.630   7.818 -0.2492 -0.1892  0.9868
  610MOL0     C82234  11.015   7.711   7.781 -0.4388 -0.7250 -0.4639
  610MOL0     C82235  10.993   7.857   7.797  0.0524  0.1219 -0.1881
  610MOL0     C82236  11.112   7.932   7.849  0.0303 -0.0136  0.4516
  610MOL0     C82237  11.226   7.937   7.748 -0.8164 -0.2628  0.5230
  610MOL0     C82238  11.356   7.970   7.827 -0.1448 -0.2375 -0.8018
  610MOL0     O82239  11.343   8.105   7.883  0.3388 -0.2039  0.2776
  610MOL0     C82240  11.343   8.204   7.790  0.0067 -0.7139 -0.0692
  610MOL0     C82241  11.264   8.309   7.805 -0.1531 -0.0684  0.4016
  610MOL0     C82242  11.264   8.417   7.722 -0.2110  0.6348  0.2356
  610MOL0     C82243  11.348   8.423   7.613 -0.2043  0.3227 -0.0585
  610MOL0     C82244  11.355   8.544   7.528 -0.8214 -0.2586 -0.5434
  610MOL0     O82245  11.474   8.553   7.452 -1.0464 -0.2528 -0.7565
  610MOL0     C82246  11.497   8.658   7.363  0.4126 -0.1631  0.3042
  610MOL0     C82247  11.557   8.629   7.242  1.2670 -0.9450 -0.1122
  610MOL0     C82248  11.568   8.730   7.139 -0.6889 -0.3995  0.4491
  610MOL0     C82249  11.551   8.861   7.172  0.5879 -0.8510  0.3244
  610MOL0     O82250  11.560   8.957   7.067 -0.2872 -0.3217 -0.5032
  610MOL0     C82251  11.637   9.075   7.095  0.6458  0.7007 -0.2437
  610MOL0     C82252  11.786   9.042   7.087 -0.2883 -0.0015  0.8119
  610MOL0     C82253  11.861   9.167   7.151  1.3072 -0.5697 -0.6561
  610MOL0     C82254  11.877   9.292   7.059  1.0086  0.1282  0.5032
  610MOL0     C82255  11.945   9.393   7.141  0.1495 -0.3461  0.1447
  610MOL0     C82256  11.968   9.527   7.047 -0.0811  0.2485 -0.6250
  610MOL0     C82257  12.029   9.500   6.914 -0.8541 -0.3980 -0.2948
  610MOL0     C82258  12.058   9.625   6.827 -0.6197  0.1792  1.8709
  610MOL0    Cl82259  12.192   9.721   6.888  0.5365 -0.2893  0.1506
  610MOL0     C82260  11.499   8.890   7.299  0.8080  0.2555 -0.0409
  610MOL0     C82261  11.472   8.790   7.396  0.7284  0.3804  1.4243
  610MOL0     O82262  11.262   8.621   7.521 -0.2862  1.1348  0.4062
  610MOL0     C82263  11.427   8.314   7.584 -0.5089  0.6642  0.3248
  610MOL0     C82264  11.431   8.207   7.684  0.1185  0.3697 -0.1583
  610MOL0     N82265  10.920   7.624   7.728  0.7488  0.3843 -1.0471
  610MOL0     N82266  10.963   7.503   7.711 -0.5918 -0.1330  0.1925
  610MOL0     C82267  11.129   7.430   6.728  0.3958 -0.1730  0.2265
  610MOL0     C82268  11.013   7.481   6.666 -0.2916 -0.0669 -0.4627
  610MOL0     C82269  10.572   7.556   6.658 -0.7375  0.2022 -0.3390
  610MOL0     C82270  10.580   7.676   6.583  0.2817  0.7807  0.8365
  610MOL0     C82271  10.467   7.722   6.513  0.4894  0.3206 -0.3194
  610MOL0     C82272  10.348   7.670   6.532  0.2670  0.6269  0.1676
  610MOL0     O82273  10.231   7.722   6.475  0.2041 -0.4596  0.1451
  610MOL0     C82274  10.182   7.824   6.562 -0.3560  0.1839 -0.2295
  610MOL0     C82275  10.083   7.910   6.480 -0.1552  0.8816 -0.6863
  610MOL0     C82276  10.023   8.022   6.556  0.3438  0.4528  0.4879
  610MOL0     C82277  10.113   8.137   6.577  0.0388  1.3383  0.3957
  610MOL0     C82278  10.037   8.246   6.649  0.6777 -0.6304  0.1614
  610MOL0     C82279   9.968   8.318   6.721 -0.0160 -0.4955 -0.2627
  610MOL0     C82280  10.332   7.562   6.618 -0.4935  1.6813 -0.3481
  610MOL0     C82281  10.446   7.498   6.681 -0.3313  0.3491  0.7377
  610MOL0     C82282  10.410   7.382   6.773  0.7516  0.7410  0.9524
  610MOL0     H82283  10.875   7.650   6.925 -0.7613  0.0342  0.3713
  610MOL0     H82284  11.083   7.560   7.035  0.0328 -1.7037  0.6193
  610MOL0     H82285  11.146   7.307   7.060  1.0541  2.6214  1.7002
  610MOL0     H82286  11.259   7.212   6.940  3.6728 -1.5642  3.3713
  610MOL0     H82287  11.445   7.352   7.057  0.0642  0.9900  1.7302
  610MOL0     H82288  11.382   7.200   7.128 -0.9932  0.1822  2.0351
  610MOL0     H82289  11.243   7.344   7.281 -1.3668  2.2452  0.6053
  610MOL0     H82290  11.338   7.483   7.215  1.6627 -0.4045 -1.1960
  610MOL0     H82291  11.434   7.234   7.373  0.5614  1.2376  4.2687
  610MOL0     H82292  11.541   7.345   7.278 -0.8197  0.2204  0.0726
  610MOL0     H82293  11.506   7.399   7.532 -2.6647 -1.3480  1.6614
  610MOL0     H82294  11.444   7.534   7.423  0.9520  1.3249  3.5550
  610MOL0     H82295  11.210   7.468   7.492 -2.6985 -0.5010  3.4389
  610MOL0     H82296  11.273   7.306   7.503 -3.0343  1.1419 -0.3234
  610MOL0     H82297  11.353   7.517   7.712  3.4851 -1.1336 -1.1008
  610MOL0     H82298  11.380   7.343   7.717 -0.9812 -0.2885 -0.0044
  610MOL0     H82299  11.135   7.306   7.697 -2.8828  1.4713 -0.3111
  610MOL0     H82300  11.200   7.346   7.852 -0.6238 -1.0288 -0.4785
  610MOL0     H82301  11.211   7.650   7.853 -0.2793 -0.2805  1.1242
  610MOL0     H82302  10.974   7.895   7.696  0.6035 -0.6670 -0.5960
  610MOL0     H82303  10.904   7.872   7.859  0.4837  1.8079  0.0724
  610MOL0     H82304  11.083   8.032   7.885  2.2116  0.8447  0.0186
  610MOL0     H82305  11.142   7.881   7.941 -0.2479  3.8266  2.9024
  610MOL0     H82306  11.209   7.999   7.659 -2.6864  0.6915  1.4963
  610MOL0     H82307  11.240   7.837   7.705 -4.1296 -0.2504 -0.9060
  610MOL0     H82308  11.455   7.963   7.780 -1.2293 -0.2155 -3.2213
  610MOL0     H82309  11.363   7.896   7.908  1.1299  2.2452  1.5188
  610MOL0     H82310  11.204   8.314   7.895 -0.2049  0.0255  0.3617
  610MOL0     H82311  11.205   8.504   7.748  1.5156  2.6942 -2.2952
  610MOL0     H82312  11.565   8.521   7.231 -0.2686 -1.0397 -0.5903
  610MOL0     H82313  11.607   8.695   7.044 -0.0274  2.3353 -0.3835
  610MOL0     H82314  11.607   9.147   7.018 -0.5058 -0.4859 -0.9440
  610MOL0     H82315  11.608   9.110   7.194  4.0642  0.5279  0.9498
  610MOL0     H82316  11.809   8.951   7.142  2.5211  0.1750  0.0829
  610MOL0     H82317  11.817   9.031   6.983  0.1577  1.4349  0.7621
  610MOL0     H82318  11.816   9.192   7.247  1.0274 -2.4958 -0.2430
  610MOL0     H82319  11.963   9.138   7.179  2.5452  2.6229 -1.4408
  610MOL0     H82320  11.777   9.331   7.038  1.4429  1.4651  0.8068
  610MOL0     H82321  11.927   9.256   6.968  0.2753 -1.1188  0.5720
  610MOL0     H82322  12.031   9.362   7.200  0.6257  2.1475  0.8649
  610MOL0     H82323  11.866   9.415   7.213  0.7158 -0.1769  0.7191
  610MOL0     H82324  11.867   9.570   7.040 -1.3965 -2.0319  1.9701
  610MOL0     H82325  12.034   9.595   7.102 -1.2007 -0.2091  1.4253
  610MOL0     H82326  11.957   9.439   6.859  0.1502 -2.0721  0.1695
  610MOL0     H82327  12.122   9.445   6.934  0.9209  2.5294  0.1092
  610MOL0     H82328  12.080   9.585   6.727  0.2101  2.7158  0.9585
  610MOL0     H82329  11.970   9.690   6.825 -0.5973  0.1987  1.5363
  610MOL0     H82330  11.479   8.990   7.336 -0.7264 -0.0171 -0.0383
  610MOL0     H82331  11.424   8.803   7.492  2.6237  1.6746  2.2574
  610MOL0     H82332  11.490   8.317   7.496  2.2222  1.0350  2.1652
  610MOL0     H82333  11.498   8.122   7.673 -0.1394  0.0631  0.6293
  610MOL0     H82334  11.203   7.376   6.670 -0.5786  0.5066 -1.7373
  610MOL0     H82335  10.985   7.435   6.572  1.1806 -2.0122 -0.0388
  610MOL0     H82336  10.673   7.731   6.570 -0.2984  1.5740 -0.1098
  610MOL0     H82337  10.466   7.806   6.445  0.8096  0.8449  0.3087
  610MOL0     H82338  10.262   7.893   6.591  0.4568  0.6467 -3.2340
  610MOL0     H82339  10.137   7.779   6.650  0.9538  0.8738  0.8214
  610MOL0     H82340   9.999   7.856   6.436 -3.2848  4.9487 -0.2591
  610MOL0     H82341  10.134   7.950   6.393  0.3759 -2.1001 -1.8604
  610MOL0     H82342   9.984   7.988   6.652 -3.1761  1.3195 -0.4835
  610MOL0     H82343   9.932   8.065   6.512  2.6224  3.0899 -2.0950
  610MOL0     H82344  10.201   8.102   6.631 -1.9923 -2.6354  1.5083
  610MOL0     H82345  10.130   8.183   6.479 -1.3017  1.2465  0.1014
  610MOL0     H82346   9.905   8.377   6.785  0.7333  0.7425 -0.6245
  610MOL0     H82347  10.230   7.529   6.635 -0.3518  0.7442 -1.2202
  610MOL0     H82348  10.308   7.357   6.744  1.2533 -0.0276 -0.2103
  610MOL0     H82349  10.478   7.300   6.752  0.2447  0.9217 -1.7924
  610MOL0     H82350  10.415   7.407   6.880 -0.9055  0.6729  1.0700
  611MOL0     O82351  11.217   2.701   1.257  0.3929  1.1907  0.4992
  611MOL0     C82352  11.198   2.639   1.365  0.1309 -0.2399 -0.4448
  611MOL0     O82353  11.257   2.667   1.485  0.1025 -0.0389 -0.2184
  611MOL0     C82354  11.348   2.768   1.480  1.1573  0.6087 -0.6316
  611MOL0     C82355  11.311   2.898   1.442 -0.7319  0.3411  0.4606
  611MOL0     C82356  11.407   2.998   1.434 -0.4710 -0.6852  0.7657
  611MOL0     C82357  11.540   2.967   1.452 -0.5138 -0.1859  0.8270
  611MOL0     O82358  11.630   3.067   1.430  0.6633 -0.3325  0.0423
  611MOL0     C82359  11.615   3.176   1.519 -0.1933 -0.1219 -0.1242
  611MOL0     C82360  11.712   3.149   1.636  0.4813 -0.8438 -0.0079
  611MOL0     C82361  11.730   3.280   1.726  0.5308  0.7325 -1.2407
  611MOL0     C82362  11.809   3.391   1.661 -1.2826 -1.0148  0.1608
  611MOL0     C82363  11.899   3.454   1.762 -0.4741  0.0245  0.8487
  611MOL0     C82364  11.831   3.515   1.883  0.5771 -0.0361  0.2012
  611MOL0     C82365  11.918   3.604   1.960 -0.4383 -0.8985 -0.3927
  611MOL0     C82366  12.044   3.530   2.022  0.1732  0.1164 -0.4745
  611MOL0     N82367  11.984   3.424   2.115  0.8182  0.9597  0.2242
  611MOL0     C82368  11.875   3.438   2.199 -0.0889  0.5719 -0.2233
  611MOL0     C82369  11.839   3.316   2.240  0.1392  0.5796  0.0712
  611MOL0     C82370  11.722   3.285   2.338  0.0332  0.0406  0.2099
  611MOL0     C82371  11.595   3.349   2.283 -0.3587 -0.0039 -0.0553
  611MOL0     C82372  11.496   3.354   2.396 -0.4086  0.0662 -0.6909
  611MOL0     C82373  11.362   3.390   2.342  1.7595 -0.4616 -0.0303
  611MOL0     O82374  11.338   3.300   2.227 -0.2409  0.4573  0.4338
  611MOL0     C82375  11.213   3.314   2.167 -0.6367 -0.2575 -0.4197
  611MOL0     C82376  11.162   3.207   2.079  0.5337 -1.1720  0.8771
  611MOL0     C82377  11.042   3.208   2.023  0.7987  0.2191  1.1216
  611MOL0     C82378  10.960   3.325   2.037 -0.6147  1.6933 -0.7630
  611MOL0     C82379  10.835   3.347   1.957 -0.0064  1.4071  0.2450
  611MOL0     O82380  10.775   3.469   1.964  0.2167  0.0189  0.4359
  611MOL0     C82381  10.652   3.496   1.907 -1.2452 -0.7740  1.3654
  611MOL0     C82382  10.555   3.400   1.899  0.3622 -0.0085 -0.3687
  611MOL0     C82383  10.431   3.419   1.831  0.4318  0.1839  0.1344
  611MOL0     C82384  10.410   3.547   1.776  0.7384 -0.0497  0.0244
  611MOL0     O82385  10.298   3.574   1.695 -0.0571  0.6826 -0.8187
  611MOL0     C82386  10.329   3.556   1.555 -0.5298 -0.1710 -0.1757
  611MOL0     C82387  10.213   3.582   1.458 -0.1371 -0.4282 -0.8756
  611MOL0     C82388  10.246   3.517   1.325 -0.1150  0.7461  0.2761
  611MOL0     C82389  10.139   3.563   1.223  0.5196  0.4530  0.4802
  611MOL0     C82390  10.169   3.496   1.084 -0.3144 -0.5810 -0.1932
  611MOL0     C82391  10.087   3.565   0.969 -0.7710  0.4838  0.6830
  611MOL0     C82392   9.940   3.526   0.990  0.2937  0.2581 -0.0666
  611MOL0     C82393   9.854   3.557   0.869 -0.1849 -0.0816  0.0878
  611MOL0    Cl82394   9.924   3.502   0.712 -0.0167 -0.4700  0.6898
  611MOL0     C82395  10.495   3.652   1.809 -0.5361  0.2750 -0.3274
  611MOL0     C82396  10.615   3.625   1.881  0.0279 -0.4026 -1.0366
  611MOL0     O82397  10.800   3.260   1.874  0.8352  0.2742 -0.6004
  611MOL0     C82398  11.001   3.422   2.117  0.3510 -0.1216 -0.0362
  611MOL0     C82399  11.126   3.421   2.188 -0.2386  0.5528  0.2273
  611MOL0     N82400  11.933   3.228   2.188 -0.1357 -0.0569  0.1764
  611MOL0     N82401  12.024   3.298   2.119  0.1296  0.7921  0.3498
  611MOL0     C82402  11.570   2.841   1.489  0.3000  1.0115  0.0656
  611MOL0     C82403  11.483   2.739   1.505  0.0048 -0.0013 -0.3969
  611MOL0     C82404  11.094   2.538   1.363  0.2984  0.1832 -0.0022
  611MOL0     C82405  11.080   2.448   1.473 -0.6014  1.1848 -0.2311
  611MOL0     C82406  10.968   2.372   1.493 -0.0211  0.0092  0.1964
  611MOL0     C82407  10.875   2.373   1.393 -0.1859 -0.9649 -0.7106
  611MOL0     O82408  10.769   2.299   1.431  0.5042 -0.2466  0.4222
  611MOL0     C82409  10.658   2.272   1.345  0.7928  0.3761  0.3982
  611MOL0     C82410  10.560   2.392   1.358  0.0833 -0.1955  0.4321
  611MOL0     C82411  10.498   2.394   1.498 -0.6547 -1.4561  0.1732
  611MOL0     C82412  10.432   2.536   1.521  0.1873 -0.0144  0.1211
  611MOL0     C82413  10.317   2.574   1.437 -0.1027 -0.4027  0.2198
  611MOL0     C82414  10.220   2.606   1.375 -0.5306 -0.4306 -0.5701
  611MOL0     C82415  10.887   2.443   1.276 -0.6237 -1.0127 -0.3973
  611MOL0     C82416  10.998   2.524   1.260  1.0919 -0.4652  0.2730
  611MOL0     C82417  11.007   2.583   1.117  0.8993 -1.6390 -0.0239
  611MOL0     H82418  11.208   2.930   1.425 -0.3682  0.7887 -1.0836
  611MOL0     H82419  11.390   3.101   1.407 -0.3330 -0.7520  0.4217
  611MOL0     H82420  11.632   3.270   1.465 -3.1048  0.7105  0.2348
  611MOL0     H82421  11.515   3.188   1.563 -0.6328  0.4380 -1.2417
  611MOL0     H82422  11.809   3.113   1.601  0.9575 -0.7751  1.1707
  611MOL0     H82423  11.666   3.085   1.712 -1.9313 -1.4999 -1.8834
  611MOL0     H82424  11.762   3.239   1.822  0.1582 -1.0785 -1.8448
  611MOL0     H82425  11.630   3.317   1.749  0.3315 -0.4745 -0.0432
  611MOL0     H82426  11.871   3.346   1.583  0.9329  1.0480  0.6274
  611MOL0     H82427  11.754   3.461   1.597  0.7774  0.5843  0.0422
  611MOL0     H82428  11.981   3.394   1.801 -0.9797 -0.0746  1.7971
  611MOL0     H82429  11.945   3.538   1.709 -1.3734  0.8515  1.3429
  611MOL0     H82430  11.752   3.585   1.855 -2.7416 -3.1734  1.0501
  611MOL0     H82431  11.783   3.435   1.941 -0.3915 -1.9684 -2.9587
  611MOL0     H82432  11.859   3.641   2.045 -0.0850 -2.1962  0.4365
  611MOL0     H82433  11.950   3.691   1.902 -2.6561  0.5081  0.3738
  611MOL0     H82434  12.110   3.485   1.947 -0.2371  0.3451 -0.9710
  611MOL0     H82435  12.092   3.611   2.078 -1.0382  0.4956  0.0370
  611MOL0     H82436  11.812   3.524   2.217  2.4103  1.9926  2.5907
  611MOL0     H82437  11.715   3.180   2.367  1.4466 -0.5536 -1.3866
  611MOL0     H82438  11.748   3.341   2.428  1.1615  0.1857 -0.1901
  611MOL0     H82439  11.613   3.455   2.259 -2.3006 -0.1104 -2.4485
  611MOL0     H82440  11.565   3.296   2.192 -0.7450  1.9737 -1.1563
  611MOL0     H82441  11.515   3.427   2.475 -2.6700 -0.7409  0.7173
  611MOL0     H82442  11.491   3.254   2.442  2.0990  0.5868  0.9214
  611MOL0     H82443  11.363   3.494   2.309 -1.5011 -0.0092  0.9535
  611MOL0     H82444  11.288   3.376   2.421  1.2832 -1.5891 -0.6493
  611MOL0     H82445  11.229   3.121   2.072  2.3611  0.2195  0.6740
  611MOL0     H82446  11.015   3.116   1.972  1.5022  0.5322  0.1514
  611MOL0     H82447  10.589   3.310   1.950  3.0610  1.3084  0.3353
  611MOL0     H82448  10.369   3.333   1.812  0.6459  0.2226 -0.7759
  611MOL0     H82449  10.412   3.619   1.523  0.6145 -0.8236  1.3968
  611MOL0     H82450  10.358   3.453   1.530 -1.7409 -0.1226 -2.0217
  611MOL0     H82451  10.120   3.540   1.498 -0.6221  0.3532 -1.1542
  611MOL0     H82452  10.214   3.691   1.447  3.4062 -0.3760 -1.2305
  611MOL0     H82453  10.347   3.533   1.284  0.1512 -2.1256 -0.4131
  611MOL0     H82454  10.231   3.408   1.330  1.2656  0.4626 -0.9178
  611MOL0     H82455  10.143   3.671   1.210 -1.8237  0.3846 -1.4133
  611MOL0     H82456  10.043   3.532   1.266 -0.5462  2.0694 -0.6245
  611MOL0     H82457  10.134   3.393   1.091 -2.0385  0.1129  4.3019
  611MOL0     H82458  10.277   3.503   1.066 -0.3776 -0.7400 -0.6528
  611MOL0     H82459  10.096   3.674   0.963  2.2151  0.2781 -0.0595
  611MOL0     H82460  10.127   3.529   0.874 -0.3878 -2.2330  1.7608
  611MOL0     H82461   9.899   3.581   1.074  0.3806  1.4495 -0.7859
  611MOL0     H82462   9.935   3.417   1.002  1.5755  0.3508  1.6818
  611MOL0     H82463   9.750   3.528   0.887 -0.4431  0.6093 -0.2608
  611MOL0     H82464   9.850   3.666   0.863  0.1199  0.0517  1.8929
  611MOL0     H82465  10.488   3.756   1.780  0.4222  1.0302  1.9279
  611MOL0     H82466  10.692   3.697   1.907  2.0807 -3.8700  4.0206
  611MOL0     H82467  10.948   3.514   2.139  1.9935  0.1324  3.7203
  611MOL0     H82468  11.158   3.512   2.239  2.0677 -0.3742  0.5814
  611MOL0     H82469  11.676   2.819   1.498 -0.0526 -0.5517  0.7532
  611MOL0     H82470  11.502   2.634   1.523 -0.7152 -0.4921 -2.3046
  611MOL0     H82471  11.157   2.455   1.550 -0.6688  4.1175 -0.3300
  611MOL0     H82472  10.950   2.311   1.581 -0.5545 -3.9212 -2.4228
  611MOL0     H82473  10.606   2.181   1.375  0.6555  0.5727  0.7631
  611MOL0     H82474  10.674   2.264   1.237 -0.8803 -1.1765  0.2189
  611MOL0     H82475  10.489   2.391   1.275 -2.2660  2.3172  2.2419
  611MOL0     H82476  10.623   2.480   1.343 -0.9596  0.5884  0.5397
  611MOL0     H82477  10.576   2.382   1.573  0.1094  0.7450 -0.1971
  611MOL0     H82478  10.426   2.311   1.506 -1.4559 -0.6172  2.1033
  611MOL0     H82479  10.396   2.535   1.624 -0.0216  4.1717  0.2648
  611MOL0     H82480  10.516   2.605   1.528  1.1533 -1.2588  5.1453
  611MOL0     H82481  10.127   2.622   1.324 -2.1137  1.6585  2.6000
  611MOL0     H82482  10.811   2.434   1.198  0.7997 -0.7366 -1.8703
  611MOL0     H82483  11.106   2.564   1.075  0.6020 -0.2716 -1.4277
  611MOL0     H82484  10.929   2.547   1.049  1.0739 -0.2003 -1.0369
  611MOL0     H82485  10.999   2.692   1.117 -0.0680 -1.6937  0.3122
  612MOL0     O82486   2.690   2.748  10.229  0.2837  0.7655  0.0079
  612MOL0     C82487   2.601   2.763  10.316 -0.5754  0.0865 -0.2336
  612MOL0     O82488   2.539   2.657  10.384 -0.2039  0.0023  0.8357
  612MOL0     C82489   2.563   2.526  10.350 -0.2781 -0.9007 -0.2057
  612MOL0     C82490   2.563   2.428  10.452  0.9486  1.0976  0.4652
  612MOL0     C82491   2.576   2.296  10.411  0.4515  0.6952  0.3236
  612MOL0     C82492   2.593   2.257  10.276 -0.4461 -0.0370  0.6543
  612MOL0     O82493   2.611   2.130  10.245  0.0808 -0.3742  0.1460
  612MOL0     C82494   2.741   2.099  10.201  0.2841 -0.5319  0.4895
  612MOL0     C82495   2.733   1.969  10.116  0.2738 -0.0619  0.0918
  612MOL0     C82496   2.868   1.919  10.054  0.2470 -1.0530  0.4441
  612MOL0     C82497   2.969   1.888  10.163 -0.5497  1.2641  0.2953
  612MOL0     C82498   3.105   1.837  10.105 -0.2355  1.1147  0.3288
  612MOL0     C82499   3.104   1.692  10.059 -0.3371  0.1161  0.0260
  612MOL0     C82500   3.222   1.671   9.961  0.6303 -0.9132 -0.7161
  612MOL0     C82501   3.260   1.520   9.940  0.2279 -0.1765 -0.5173
  612MOL0     N82502   3.144   1.448   9.891 -1.0006  0.2856 -0.4081
  612MOL0     C82503   3.076   1.352   9.949  0.3526  0.9235 -0.3303
  612MOL0     C82504   2.987   1.311   9.857  0.9389  0.2191  0.1108
  612MOL0     C82505   2.876   1.200   9.882 -0.5064 -0.9872 -0.3739
  612MOL0     C82506   2.925   1.065   9.804 -0.1252  0.2071  0.4919
  612MOL0     C82507   2.944   0.953   9.902  0.1460 -0.3703  0.8456
  612MOL0     C82508   3.069   0.971   9.995  0.8249 -0.5429 -1.3875
  612MOL0     O82509   3.077   0.867  10.099  0.6113  0.1705  0.1157
  612MOL0     C82510   3.115   0.910  10.230 -0.0310 -0.2776  0.2150
  612MOL0     C82511   3.206   1.012  10.253 -0.7668  0.4243 -0.3390
  612MOL0     C82512   3.252   1.046  10.381  0.6237 -0.6530 -0.8068
  612MOL0     C82513   3.212   0.972  10.494  1.1921  0.0765  0.1400
  612MOL0     C82514   3.262   1.010  10.624  0.0613 -0.0873 -0.0328
  612MOL0     O82515   3.269   0.918  10.718 -0.2905  0.1527 -0.2036
  612MOL0     C82516   3.268   0.952  10.853 -0.6548 -0.2255 -0.0918
  612MOL0     C82517   3.341   0.880  10.952 -0.0746  0.4385  0.0251
  612MOL0     C82518   3.329   0.915  11.086 -0.4640 -0.2475 -0.3263
  612MOL0     C82519   3.253   1.022  11.136 -0.3352  0.6531 -0.7747
  612MOL0     O82520   3.255   1.071  11.263 -0.7503 -0.1104  0.4012
  612MOL0     C82521   3.352   1.009  11.353  0.1927 -0.1368  0.2657
  612MOL0     C82522   3.334   1.061  11.494 -0.6578 -0.0328 -0.6486
  612MOL0     C82523   3.221   1.004  11.573 -0.1152 -0.1701  0.2810
  612MOL0     C82524   3.163   1.108  11.672 -0.5429 -0.3865 -0.3323
  612MOL0     C82525   3.055   1.036  11.748 -0.4541  0.1692  0.5626
  612MOL0     C82526   2.995   1.112  11.862 -0.3790  0.0637 -0.6785
  612MOL0     C82527   2.925   1.025  11.970 -0.4592 -0.4961 -0.7510
  612MOL0     C82528   2.929   1.101  12.101 -0.0247 -0.3601  0.1652
  612MOL0    Cl82529   2.890   0.997  12.235 -0.1784  0.6005 -0.2518
  612MOL0     C82530   3.181   1.085  11.041  0.3722 -0.4018 -0.5553
  612MOL0     C82531   3.186   1.053  10.909  0.7528  0.0356  0.0843
  612MOL0     O82532   3.277   1.132  10.637 -0.2002 -0.3525  0.0886
  612MOL0     C82533   3.111   0.868  10.479 -0.0293 -0.7082 -1.0692
  612MOL0     C82534   3.065   0.841  10.348 -0.0138  0.0388 -0.5090
  612MOL0     N82535   3.003   1.392   9.741  0.0349 -0.8186 -0.7895
  612MOL0     N82536   3.098   1.479   9.766  0.3249  0.1065 -0.0055
  612MOL0     C82537   2.578   2.361  10.185  0.4630 -0.3239 -0.4081
  612MOL0     C82538   2.566   2.495  10.217  0.4855  0.2343  0.7271
  612MOL0     C82539   2.568   2.897  10.361 -0.0787 -1.1184  0.9794
  612MOL0     C82540   2.485   2.903  10.479 -0.4777 -0.3132 -0.8526
  612MOL0     C82541   2.451   3.027  10.527 -0.0316 -0.2748 -0.5962
  612MOL0     C82542   2.475   3.144  10.463 -0.1086 -0.4193  0.0258
  612MOL0     O82543   2.432   3.246  10.534 -0.2044 -0.0928 -0.2706
  612MOL0     C82544   2.494   3.374  10.513 -0.4752 -0.4681  0.4769
  612MOL0     C82545   2.609   3.404  10.614  0.3608  0.5566  0.1481
  612MOL0     C82546   2.734   3.325  10.569  0.1181  0.4220 -0.0428
  612MOL0     C82547   2.859   3.355  10.659 -1.1460 -0.4519 -0.0312
  612MOL0     C82548   2.842   3.280  10.789 -0.7587  0.5192  0.1439
  612MOL0     C82549   2.821   3.235  10.900 -0.2975  0.4817  0.8564
  612MOL0     C82550   2.559   3.140  10.347 -1.1155  0.4374  0.8055
  612MOL0     C82551   2.610   3.021  10.297 -0.3032  0.0537  1.0214
  612MOL0     C82552   2.689   3.028  10.171 -0.0404 -0.0716 -0.1632
  612MOL0     H82553   2.556   2.447  10.559 -0.2903 -0.2190  0.6314
  612MOL0     H82554   2.580   2.209  10.476  1.4233 -0.0431 -0.6748
  612MOL0     H82555   2.778   2.180  10.137 -1.3916 -0.1181  0.0059
  612MOL0     H82556   2.804   2.089  10.290 -0.9277 -2.7384  1.1603
  612MOL0     H82557   2.665   1.982  10.031 -1.0832 -0.9857  1.0071
  612MOL0     H82558   2.683   1.893  10.178  0.9325 -0.9719 -0.4539
  612MOL0     H82559   2.904   1.997   9.986 -1.0150 -0.3855  0.4979
  612MOL0     H82560   2.855   1.832   9.989 -0.3149  0.5147 -1.6701
  612MOL0     H82561   3.001   1.982  10.207  2.0649  0.4001  0.4698
  612MOL0     H82562   2.932   1.815  10.235  1.0824 -0.9204 -0.9443
  612MOL0     H82563   3.157   1.892  10.026  1.6088 -1.5382 -0.4517
  612MOL0     H82564   3.168   1.833  10.194  0.1871 -1.2875 -0.0214
  612MOL0     H82565   3.115   1.616  10.138 -0.9604 -1.0039 -0.9293
  612MOL0     H82566   3.011   1.667  10.008 -0.6328 -2.9252  1.7652
  612MOL0     H82567   3.310   1.717  10.005  0.1373 -0.0388 -0.6153
  612MOL0     H82568   3.190   1.708   9.863  2.1436 -2.7810 -1.9794
  612MOL0     H82569   3.324   1.523   9.851 -0.0935 -0.2999 -0.7534
  612MOL0     H82570   3.304   1.476  10.030  3.2237  1.1291 -1.2127
  612MOL0     H82571   3.101   1.300  10.040  0.0972 -0.1848 -0.8800
  612MOL0     H82572   2.863   1.187   9.990 -1.5410 -0.0660 -0.3744
  612MOL0     H82573   2.784   1.244   9.845  0.6956  1.4001 -0.6854
  612MOL0     H82574   2.857   1.024   9.729 -1.7016 -0.9434  2.4494
  612MOL0     H82575   3.016   1.081   9.746 -0.0780 -0.2354  0.4459
  612MOL0     H82576   2.946   0.855   9.853  2.4772 -1.9869  3.8811
  612MOL0     H82577   2.853   0.940   9.960 -0.6815  2.2115  0.2877
  612MOL0     H82578   3.067   1.070  10.042 -1.6756 -0.4974 -1.4606
  612MOL0     H82579   3.162   0.958   9.939 -0.8168 -1.8696 -3.9910
  612MOL0     H82580   3.239   1.075  10.171 -1.3613 -0.0410 -0.9347
  612MOL0     H82581   3.313   1.132  10.406 -2.4348  1.2835  0.6134
  612MOL0     H82582   3.394   0.791  10.918 -0.5769 -0.4087  1.3956
  612MOL0     H82583   3.375   0.850  11.159 -1.3768 -0.4004  0.1270
  612MOL0     H82584   3.328   0.902  11.359 -5.2247  0.8914  2.8533
  612MOL0     H82585   3.453   1.021  11.313  1.6187 -1.4926  3.0958
  612MOL0     H82586   3.416   1.054  11.566 -1.2555  1.7201  0.2611
  612MOL0     H82587   3.324   1.169  11.480  2.2796  0.1077 -2.3623
  612MOL0     H82588   3.142   0.963  11.510 -1.4487 -1.3984  2.5925
  612MOL0     H82589   3.251   0.915  11.630 -1.0886 -1.3831 -1.0418
  612MOL0     H82590   3.111   1.182  11.609  1.0181 -0.5076 -1.8649
  612MOL0     H82591   3.237   1.163  11.731  0.1743  0.0462 -1.5838
  612MOL0     H82592   3.093   0.951  11.807 -1.1519 -0.5133  0.0554
  612MOL0     H82593   2.978   0.995  11.682  0.9102 -0.9574 -0.3916
  612MOL0     H82594   3.077   1.165  11.910 -1.8613  1.1270  0.8087
  612MOL0     H82595   2.925   1.185  11.818 -2.0446 -1.6167 -0.9258
  612MOL0     H82596   2.974   0.927  11.975  1.9184  0.6546  0.0992
  612MOL0     H82597   2.819   1.018  11.945 -0.4606 -0.5959 -0.7172
  612MOL0     H82598   3.030   1.134  12.127  0.3754 -1.1656 -0.3362
  612MOL0     H82599   2.872   1.194  12.090 -2.1645 -1.8234 -2.2583
  612MOL0     H82600   3.115   1.160  11.084 -0.4258 -1.2246 -0.3363
  612MOL0     H82601   3.117   1.099  10.838  0.9022 -2.1568 -1.6170
  612MOL0     H82602   3.083   0.823  10.574  0.4623  1.9872  0.4472
  612MOL0     H82603   3.006   0.753  10.325  0.2224  0.0184 -1.0535
  612MOL0     H82604   2.580   2.330  10.081 -4.3825  0.8791 -1.0939
  612MOL0     H82605   2.544   2.568  10.140 -1.3857 -0.7682  0.2599
  612MOL0     H82606   2.445   2.817  10.532 -2.0710  2.4335  2.7594
  612MOL0     H82607   2.390   3.030  10.617  0.0498  1.4841 -0.5694
  612MOL0     H82608   2.424   3.458  10.523 -0.0994 -0.0162 -0.5669
  612MOL0     H82609   2.533   3.389  10.412  1.6480 -0.5798  1.2241
  612MOL0     H82610   2.584   3.376  10.717 -0.1777  1.8060  0.3865
  612MOL0     H82611   2.619   3.513  10.623 -2.0540  0.6939  2.4215
  612MOL0     H82612   2.747   3.363  10.467 -0.1132 -2.6707 -1.3395
  612MOL0     H82613   2.719   3.218  10.552  0.7840  0.0839  1.3819
  612MOL0     H82614   2.950   3.312  10.616 -0.8086 -2.6138  2.5592
  612MOL0     H82615   2.876   3.461  10.682  0.9456 -0.2414 -2.2215
  612MOL0     H82616   2.817   3.208  11.004 -1.2302 -1.3446  0.3970
  612MOL0     H82617   2.597   3.231  10.301  1.6693 -0.2925  1.4995
  612MOL0     H82618   2.627   3.011  10.083  1.5038 -2.2695 -0.9135
  612MOL0     H82619   2.723   3.132  10.160 -2.0734  0.6572 -0.0610
  612MOL0     H82620   2.779   2.967  10.183  1.1932  0.8310 -3.6202
  613MOL0     O82621   9.740   7.887   0.831 -0.0453 -0.2941 -0.0532
  613MOL0     C82622   9.835   7.933   0.900  0.7980 -0.1313 -0.1419
  613MOL0     O82623   9.813   7.969   1.027  0.0850  0.0060 -0.5840
  613MOL0     C82624   9.693   7.916   1.085  0.1190  0.0527  0.0319
  613MOL0     C82625   9.683   7.777   1.116  1.0829 -0.5717 -0.7465
  613MOL0     C82626   9.555   7.731   1.166  0.0716  0.7230 -0.8223
  613MOL0     C82627   9.444   7.818   1.190 -0.2443  1.3059  0.2884
  613MOL0     O82628   9.326   7.758   1.226  0.5279 -0.3302 -0.0836
  613MOL0     C82629   9.205   7.830   1.210 -0.9356 -0.2334  0.2008
  613MOL0     C82630   9.097   7.737   1.261 -1.1453 -0.7843 -0.0545
  613MOL0     C82631   8.959   7.797   1.268 -0.3603 -0.5000 -0.0512
  613MOL0     C82632   8.905   7.852   1.133 -0.4812  0.4610  0.1327
  613MOL0     C82633   8.779   7.927   1.158 -0.8232  0.0164  0.4568
  613MOL0     C82634   8.735   7.997   1.032 -0.1792  0.6502  0.4421
  613MOL0     C82635   8.613   8.080   1.055 -0.3963  0.5989  0.0779
  613MOL0     C82636   8.562   8.136   0.922  0.0241 -0.8507 -0.3538
  613MOL0     N82637   8.435   8.202   0.932  0.7440  0.5591  0.0235
  613MOL0     C82638   8.304   8.155   0.919  0.0186 -0.3171  0.1186
  613MOL0     C82639   8.215   8.252   0.964  0.1274  0.6505  1.1623
  613MOL0     C82640   8.060   8.230   0.962  0.8742 -0.6375 -0.5521
  613MOL0     C82641   7.982   8.269   1.090  0.4603  0.0840  0.1726
  613MOL0     C82642   8.001   8.194   1.226 -0.1077  0.7659 -0.8677
  613MOL0     C82643   8.146   8.190   1.268  0.4023  0.2709  0.3334
  613MOL0     O82644   8.144   8.110   1.392 -0.5170  0.0761 -0.2620
  613MOL0     C82645   8.271   8.076   1.441 -0.6244  0.4130  0.5276
  613MOL0     C82646   8.399   8.121   1.395 -0.4754 -0.5813 -0.2992
  613MOL0     C82647   8.518   8.073   1.446  0.0168  0.1516 -0.8572
  613MOL0     C82648   8.516   7.995   1.559  0.3259 -1.2123  0.0483
  613MOL0     C82649   8.644   7.961   1.617  0.9320 -0.9513  0.1934
  613MOL0     O82650   8.654   7.850   1.691 -0.8125 -0.1576 -0.3530
  613MOL0     C82651   8.785   7.824   1.723  0.5959 -1.1797  0.3877
  613MOL0     C82652   8.816   7.800   1.853  0.8636  0.0168 -0.0666
  613MOL0     C82653   8.939   7.754   1.896  0.1367 -0.4039  0.4623
  613MOL0     C82654   9.040   7.731   1.802  0.7869 -1.0640  0.6349
  613MOL0     O82655   9.168   7.691   1.835  0.3174 -0.1200  0.7955
  613MOL0     C82656   9.182   7.631   1.958  0.5911  0.0677  0.1012
  613MOL0     C82657   9.322   7.576   1.972  0.7382  0.2038 -0.1879
  613MOL0     C82658   9.441   7.673   1.947  0.0587  0.8937 -0.0920
  613MOL0     C82659   9.569   7.603   1.950  0.3489  0.4987 -0.5100
  613MOL0     C82660   9.689   7.695   1.923  0.2423 -0.6176 -0.7680
  613MOL0     C82661   9.735   7.794   2.034 -0.1574 -0.0743 -0.6570
  613MOL0     C82662   9.838   7.912   2.002 -0.8508  0.0123  0.3475
  613MOL0     C82663   9.965   7.870   1.920 -0.8513  0.1733 -0.3467
  613MOL0    Cl82664  10.060   7.768   2.033  0.1450  0.2213 -0.0823
  613MOL0     C82665   9.012   7.748   1.664 -1.0560 -0.6199 -0.2331
  613MOL0     C82666   8.878   7.797   1.625 -0.3381  0.4579 -0.0348
  613MOL0     O82667   8.732   8.046   1.607  0.2535  0.3213 -0.3066
  613MOL0     C82668   8.391   7.960   1.618 -1.0150 -0.2586 -0.0531
  613MOL0     C82669   8.271   8.001   1.556 -1.5886  0.2703 -0.7175
  613MOL0     N82670   8.295   8.358   0.997  0.0409  0.1829  1.5769
  613MOL0     N82671   8.423   8.329   0.979 -0.9988 -0.1655  0.0303
  613MOL0     C82672   9.468   7.955   1.169 -0.2169  0.8847 -0.9578
  613MOL0     C82673   9.584   8.002   1.116  0.5086  0.3037  0.6075
  613MOL0     C82674   9.969   7.940   0.837  0.3895  0.4774 -0.0226
  613MOL0     C82675  10.014   7.831   0.765  0.3380  0.0231  0.6691
  613MOL0     C82676  10.132   7.829   0.701  0.1272 -0.0704  0.4049
  613MOL0     C82677  10.215   7.937   0.720  0.1075  0.1378  0.1587
  613MOL0     O82678  10.339   7.931   0.648  0.8517 -0.9412 -0.1139
  613MOL0     C82679  10.450   8.016   0.686 -0.6997  0.7386  0.7446
  613MOL0     C82680  10.579   7.934   0.694 -0.4624  0.0686 -0.3242
  613MOL0     C82681  10.694   8.024   0.752  0.7892 -0.4393 -0.8760
  613MOL0     C82682  10.806   7.932   0.799 -0.3463 -0.0619  0.1679
  613MOL0     C82683  10.910   8.003   0.882  0.2603  0.5148 -0.4528
  613MOL0     C82684  10.995   8.064   0.951  0.9709 -0.0195  0.1291
  613MOL0     C82685  10.179   8.052   0.793  0.0201  0.7975 -0.0362
  613MOL0     C82686  10.057   8.050   0.852  0.7078 -0.2416  0.5367
  613MOL0     C82687  10.021   8.174   0.928 -0.1934  0.1632 -0.8961
  613MOL0     H82688   9.759   7.712   1.075  0.0639 -2.7631  0.6425
  613MOL0     H82689   9.547   7.624   1.153 -2.0682  0.3211  2.5343
  613MOL0     H82690   9.208   7.924   1.267 -3.7681 -0.0047  0.1423
  613MOL0     H82691   9.186   7.867   1.109  1.8774 -1.5890 -0.9256
  613MOL0     H82692   9.129   7.708   1.361  1.2477 -1.6878 -0.9962
  613MOL0     H82693   9.095   7.647   1.199  0.6038 -1.5202  0.8854
  613MOL0     H82694   8.983   7.871   1.345  1.5093  0.4470 -1.4697
  613MOL0     H82695   8.880   7.730   1.304  0.1291  0.2442  2.5996
  613MOL0     H82696   8.978   7.928   1.105 -0.0851 -0.3564 -1.0760
  613MOL0     H82697   8.900   7.771   1.061  0.7506 -0.3108  0.8877
  613MOL0     H82698   8.702   7.859   1.195 -0.5024 -1.9298 -2.1060
  613MOL0     H82699   8.803   8.003   1.233 -0.5789 -0.2756  0.6780
  613MOL0     H82700   8.811   8.068   0.997 -1.9194  5.2097  4.7484
  613MOL0     H82701   8.715   7.925   0.952 -0.1428  1.2857 -0.1494
  613MOL0     H82702   8.629   8.149   1.139  1.0176  0.1266  0.2360
  613MOL0     H82703   8.537   8.005   1.081 -0.3203 -0.5956 -2.7956
  613MOL0     H82704   8.628   8.215   0.886 -3.2408  1.5485 -1.5782
  613MOL0     H82705   8.561   8.052   0.851 -3.0474 -1.3301  0.1223
  613MOL0     H82706   8.285   8.054   0.884 -1.2830  0.5550 -1.8771
  613MOL0     H82707   8.029   8.285   0.873 -0.2065 -0.0609  0.1591
  613MOL0     H82708   8.055   8.121   0.951  3.0250 -0.8424 -0.0604
  613MOL0     H82709   7.989   8.377   1.106 -3.2443  0.4040  0.6062
  613MOL0     H82710   7.874   8.258   1.076 -0.7638  3.9740  4.2137
  613MOL0     H82711   7.979   8.090   1.201 -1.1246  0.1463  2.1943
  613MOL0     H82712   7.946   8.239   1.310 -0.5223 -1.1987 -0.0499
  613MOL0     H82713   8.178   8.291   1.294  0.1365  0.7823 -1.2046
  613MOL0     H82714   8.210   8.149   1.190 -1.9132  2.9635 -3.2941
  613MOL0     H82715   8.394   8.185   1.307 -0.6630 -0.1275  0.0315
  613MOL0     H82716   8.608   8.117   1.403  0.8241 -1.2301 -0.6199
  613MOL0     H82717   8.733   7.817   1.920  1.6150  0.6306  0.7320
  613MOL0     H82718   8.951   7.737   2.003 -1.5457 -0.7325  0.6263
  613MOL0     H82719   9.153   7.684   2.048 -0.8375 -0.7100  0.1267
  613MOL0     H82720   9.105   7.554   1.947 -0.1574  0.7838  0.2873
  613MOL0     H82721   9.324   7.520   2.066  1.7480  1.9016  0.8460
  613MOL0     H82722   9.326   7.505   1.889 -0.1479  1.2927 -1.1974
  613MOL0     H82723   9.422   7.718   1.849  0.9150 -2.2997 -1.8446
  613MOL0     H82724   9.443   7.752   2.023  1.1325 -0.1534  1.0174
  613MOL0     H82725   9.566   7.529   1.870  0.8117  0.0922 -0.1559
  613MOL0     H82726   9.579   7.537   2.036  0.0557  2.1403  0.8389
  613MOL0     H82727   9.664   7.742   1.827 -0.1957  0.9838  0.0838
  613MOL0     H82728   9.780   7.640   1.897  1.7187  0.8949  0.8992
  613MOL0     H82729   9.640   7.842   2.059 -0.4544 -0.2222 -1.4671
  613MOL0     H82730   9.767   7.728   2.115 -2.4068 -1.6118 -0.9360
  613MOL0     H82731   9.878   7.931   2.102 -2.1054 -0.0712  0.8807
  613MOL0     H82732   9.794   8.005   1.965  0.2084  1.0061  1.5096
  613MOL0     H82733   9.940   7.830   1.821 -3.4911 -3.1754  1.4534
  613MOL0     H82734  10.037   7.951   1.908  2.4073 -2.2245  1.3361
  613MOL0     H82735   9.096   7.761   1.596  2.1131  1.4713  3.5623
  613MOL0     H82736   8.854   7.812   1.520  2.3521  1.7267 -0.5415
  613MOL0     H82737   8.383   7.894   1.704  0.2624 -0.8613 -0.3822
  613MOL0     H82738   8.180   7.967   1.602  0.5266 -2.0357  2.1121
  613MOL0     H82739   9.388   8.024   1.195 -0.6838 -0.3979  1.2795
  613MOL0     H82740   9.593   8.107   1.091  0.5428 -0.2173 -1.8385
  613MOL0     H82741   9.960   7.738   0.746  2.1848 -0.6289 -1.8683
  613MOL0     H82742  10.167   7.745   0.641  0.4157 -0.0331  0.5212
  613MOL0     H82743  10.437   8.038   0.792  1.6033 -3.2468  2.0692
  613MOL0     H82744  10.456   8.106   0.625 -0.8826  1.7391  2.1576
  613MOL0     H82745  10.600   7.904   0.591 -0.5703  0.4510 -0.4592
  613MOL0     H82746  10.564   7.839   0.747  0.2236 -0.4450 -1.0394
  613MOL0     H82747  10.639   8.085   0.825  2.1658  3.0591 -2.5154
  613MOL0     H82748  10.720   8.095   0.672 -3.2220  2.6134  0.1815
  613MOL0     H82749  10.764   7.849   0.856  0.3814  0.8632  2.1408
  613MOL0     H82750  10.843   7.895   0.703  3.8911  1.0902  1.1409
  613MOL0     H82751  11.050   8.125   1.019  0.9155  4.1870 -3.1211
  613MOL0     H82752  10.242   8.140   0.801  1.0684  0.2311 -1.6533
  613MOL0     H82753   9.921   8.171   0.972 -0.5219  2.8266 -1.3161
  613MOL0     H82754  10.090   8.161   1.012  0.2170 -2.2613 -1.5269
  613MOL0     H82755  10.025   8.262   0.864 -1.4086  0.3598 -0.7291
  614MOL0     O82756   6.128   6.814   8.520 -0.3119  0.0849  0.1441
  614MOL0     C82757   6.210   6.782   8.605 -0.6854  0.6892 -0.2075
  614MOL0     O82758   6.306   6.691   8.592 -0.5775  0.4752 -0.3232
  614MOL0     C82759   6.337   6.649   8.470 -0.1035 -0.1526  0.5304
  614MOL0     C82760   6.386   6.732   8.365  0.2402  0.7364 -1.4783
  614MOL0     C82761   6.423   6.671   8.243  0.3160 -0.1716  0.9500
  614MOL0     C82762   6.415   6.541   8.215 -1.0276  0.7644  0.4987
  614MOL0     O82763   6.453   6.477   8.097 -0.2252 -0.1419  0.1738
  614MOL0     C82764   6.496   6.561   7.977  0.0976 -1.1723  0.3758
  614MOL0     C82765   6.553   6.498   7.857  0.6308 -0.1471  0.5829
  614MOL0     C82766   6.485   6.372   7.796 -0.3096 -0.1095 -0.3032
  614MOL0     C82767   6.540   6.345   7.659 -1.2688 -0.2106 -0.8952
  614MOL0     C82768   6.500   6.445   7.554 -0.5985  0.0248 -0.0477
  614MOL0     C82769   6.586   6.442   7.421  0.2909  0.2804 -0.6527
  614MOL0     C82770   6.582   6.580   7.346 -0.0607  0.1920  0.5996
  614MOL0     C82771   6.682   6.601   7.233  0.3969  0.9243 -0.0125
  614MOL0     N82772   6.650   6.525   7.112 -0.0005  0.8109 -0.3282
  614MOL0     C82773   6.551   6.553   7.014 -0.6033  0.6730 -0.2110
  614MOL0     C82774   6.582   6.468   6.914  1.3091  1.0806 -1.1722
  614MOL0     C82775   6.529   6.470   6.772  0.6720 -0.4945  0.7436
  614MOL0     C82776   6.375   6.462   6.757  0.4182  0.2118 -0.1902
  614MOL0     C82777   6.313   6.334   6.816  0.0051  0.2213 -1.0384
  614MOL0     C82778   6.370   6.202   6.758 -1.5758 -0.0593 -0.3130
  614MOL0     O82779   6.374   6.212   6.609  0.8667  0.7351 -0.4232
  614MOL0     C82780   6.494   6.235   6.542  0.0698  0.5013  0.3365
  614MOL0     C82781   6.511   6.342   6.452  0.6754  0.0268 -0.5114
  614MOL0     C82782   6.642   6.370   6.399  0.1861  0.4434  0.3927
  614MOL0     C82783   6.750   6.279   6.405 -0.0219  0.2452  0.8287
  614MOL0     C82784   6.887   6.293   6.344  0.3626  0.2109 -0.1879
  614MOL0     O82785   6.914   6.399   6.258  1.0713 -0.3097 -0.3299
  614MOL0     C82786   7.044   6.425   6.220 -0.2573  1.0599  0.5837
  614MOL0     C82787   7.090   6.555   6.222  0.5279  0.4619  0.1931
  614MOL0     C82788   7.218   6.594   6.181 -0.3065 -0.1659 -0.0942
  614MOL0     C82789   7.305   6.493   6.141  0.1933 -0.6874  0.4001
  614MOL0     O82790   7.426   6.538   6.091  0.3238 -0.5867  0.0211
  614MOL0     C82791   7.533   6.447   6.063 -0.2065 -0.0954  0.2377
  614MOL0     C82792   7.648   6.513   5.989 -0.8683 -1.3734 -0.3227
  614MOL0     C82793   7.730   6.601   6.093  0.8955  0.1591  0.7364
  614MOL0     C82794   7.845   6.680   6.035 -0.6542 -0.2343 -0.5492
  614MOL0     C82795   7.927   6.756   6.132  0.2483 -0.6738 -0.2737
  614MOL0     C82796   8.032   6.859   6.074  0.3869  0.2668 -0.1598
  614MOL0     C82797   8.086   6.955   6.190 -0.3356  0.5298 -1.0878
  614MOL0     C82798   8.189   7.056   6.147 -0.5828  0.3241 -0.0375
  614MOL0    Cl82799   8.133   7.178   6.026 -0.0504  0.0083 -0.0349
  614MOL0     C82800   7.263   6.363   6.129 -0.6820  0.4597  0.2798
  614MOL0     C82801   7.134   6.330   6.171 -0.3480 -0.4127  0.3474
  614MOL0     O82802   6.967   6.210   6.376  0.6514 -0.1642  0.2461
  614MOL0     C82803   6.724   6.167   6.484 -0.6263 -0.9362  0.4058
  614MOL0     C82804   6.600   6.144   6.553 -0.0661  0.4848 -0.0171
  614MOL0     N82805   6.676   6.372   6.958 -0.0150  0.7085  0.5076
  614MOL0     N82806   6.714   6.403   7.078  0.5767  0.4160  0.8440
  614MOL0     C82807   6.381   6.462   8.322 -0.2607  0.5391 -0.3110
  614MOL0     C82808   6.341   6.508   8.446  0.3598  0.0070  0.5722
  614MOL0     C82809   6.187   6.849   8.734  0.8465  0.9236  0.7508
  614MOL0     C82810   6.279   6.808   8.835  1.3134 -0.3396  0.1422
  614MOL0     C82811   6.253   6.858   8.970  0.2130  0.0852  1.1350
  614MOL0     C82812   6.142   6.940   8.997 -0.5300  0.7135 -0.8613
  614MOL0     O82813   6.089   6.970   9.124  0.9168 -0.7803  0.0160
  614MOL0     C82814   6.170   6.948   9.236  0.3839  0.4616  0.1472
  614MOL0     C82815   6.115   7.002   9.362 -0.2943  0.0102  0.5071
  614MOL0     C82816   6.037   6.912   9.456  0.2105 -0.2429  1.1675
  614MOL0     C82817   5.982   6.990   9.575 -1.2759 -0.0447  0.3653
  614MOL0     C82818   5.952   6.899   9.689 -0.2516 -0.4420  0.2397
  614MOL0     C82819   5.928   6.808   9.759 -0.0867 -0.0657  1.3777
  614MOL0     C82820   6.060   6.981   8.889  0.5503  0.1927 -0.0912
  614MOL0     C82821   6.073   6.933   8.763  0.0697  0.1589 -0.3565
  614MOL0     C82822   5.968   6.982   8.660  0.6172 -0.0846  0.7745
  614MOL0     H82823   6.385   6.839   8.384  3.5143  0.6134 -0.0292
  614MOL0     H82824   6.453   6.737   8.163 -3.1311 -1.1310 -1.3693
  614MOL0     H82825   6.415   6.629   7.951  2.7955  1.6877 -1.2906
  614MOL0     H82826   6.573   6.625   8.021 -2.0516  0.8893  1.3533
  614MOL0     H82827   6.654   6.465   7.885  1.3719  0.1584 -1.5734
  614MOL0     H82828   6.563   6.569   7.775 -0.9958 -1.8499 -1.2067
  614MOL0     H82829   6.379   6.396   7.785 -0.7043 -1.7031 -0.2640
  614MOL0     H82830   6.477   6.284   7.860 -2.4283  0.3772  0.1917
  614MOL0     H82831   6.646   6.349   7.687 -1.6972 -2.4759  1.4189
  614MOL0     H82832   6.519   6.243   7.627  2.0866 -0.8783 -1.3512
  614MOL0     H82833   6.397   6.416   7.535  0.5981 -2.8971 -3.0124
  614MOL0     H82834   6.507   6.548   7.591  0.3145  0.6261 -1.7965
  614MOL0     H82835   6.689   6.409   7.441 -0.6086 -2.9406 -0.7240
  614MOL0     H82836   6.546   6.359   7.361  0.1178 -1.2481  1.4438
  614MOL0     H82837   6.608   6.664   7.410 -1.3520  1.8789 -0.9684
  614MOL0     H82838   6.478   6.589   7.311 -1.1024 -3.3150  2.3611
  614MOL0     H82839   6.685   6.706   7.202  1.8134  0.2174 -2.6434
  614MOL0     H82840   6.783   6.566   7.258 -0.1098 -0.0494  0.7478
  614MOL0     H82841   6.479   6.634   6.999 -0.3780  0.6298 -1.7085
  614MOL0     H82842   6.563   6.564   6.728 -1.1252  1.7292  3.7442
  614MOL0     H82843   6.572   6.381   6.725  0.2265 -1.4646  2.0942
  614MOL0     H82844   6.332   6.544   6.815  0.1897 -0.3122  0.3875
  614MOL0     H82845   6.344   6.483   6.654  0.7383  0.5903 -0.2128
  614MOL0     H82846   6.207   6.333   6.788 -0.1147 -0.7589 -0.5907
  614MOL0     H82847   6.321   6.335   6.925 -2.0608 -1.6980 -0.7854
  614MOL0     H82848   6.327   6.105   6.786  1.1186 -0.9758  0.9113
  614MOL0     H82849   6.476   6.206   6.785 -1.0840 -2.2930 -1.6399
  614MOL0     H82850   6.426   6.407   6.434  0.1687 -0.4783  0.0262
  614MOL0     H82851   6.674   6.467   6.364  3.0046 -1.0165 -1.3808
  614MOL0     H82852   7.018   6.632   6.247  0.7688  0.3592  1.2417
  614MOL0     H82853   7.256   6.696   6.183  3.0673 -1.3029  0.9695
  614MOL0     H82854   7.579   6.398   6.150  0.5334  0.7371  0.3337
  614MOL0     H82855   7.511   6.359   6.003  1.3330 -0.1376 -0.3141
  614MOL0     H82856   7.722   6.442   5.952  0.8341 -1.4365  2.8390
  614MOL0     H82857   7.600   6.574   5.912  0.7498  0.0910 -0.2339
  614MOL0     H82858   7.665   6.667   6.149  0.8288  0.2585  0.5420
  614MOL0     H82859   7.766   6.541   6.177 -1.2216  1.9807  3.0771
  614MOL0     H82860   7.808   6.742   5.953 -0.5039 -0.8012 -1.0533
  614MOL0     H82861   7.913   6.615   5.980 -0.5680  0.5365 -1.3836
  614MOL0     H82862   7.975   6.677   6.191 -1.1527 -1.3633 -0.0131
  614MOL0     H82863   7.868   6.810   6.206 -0.8883  0.8853 -2.2210
  614MOL0     H82864   8.114   6.796   6.039  0.6317 -0.9468  2.3384
  614MOL0     H82865   7.991   6.932   6.003  0.2604 -0.4654 -0.8466
  614MOL0     H82866   8.133   6.909   6.277 -0.6638  1.8386 -0.1924
  614MOL0     H82867   7.999   7.006   6.233  2.0777  4.6189 -0.5111
  614MOL0     H82868   8.231   7.108   6.234 -2.8026 -1.9338  2.5662
  614MOL0     H82869   8.275   7.005   6.102 -1.2443 -1.2794  0.4636
  614MOL0     H82870   7.324   6.293   6.071 -1.6070  0.1043 -0.2825
  614MOL0     H82871   7.102   6.227   6.158 -2.2729  0.1396  0.3603
  614MOL0     H82872   6.800   6.090   6.491  1.4343  0.5744 -2.9665
  614MOL0     H82873   6.613   6.054   6.611  1.5819 -1.1684 -2.6963
  614MOL0     H82874   6.394   6.355   8.307 -4.4314 -0.5073  1.8726
  614MOL0     H82875   6.311   6.447   8.530 -1.4157 -1.2726 -0.9289
  614MOL0     H82876   6.362   6.744   8.808 -0.9274 -2.6662 -1.6043
  614MOL0     H82877   6.326   6.842   9.048  0.4642  0.1673  0.9188
  614MOL0     H82878   6.266   6.993   9.211  0.2417  0.5548 -0.2323
  614MOL0     H82879   6.193   6.841   9.245 -2.7497 -0.2724  0.5200
  614MOL0     H82880   6.053   7.087   9.331  0.3902  0.5357  0.5547
  614MOL0     H82881   6.205   7.034   9.415  0.8785 -1.4413 -0.5213
  614MOL0     H82882   6.108   6.837   9.493  1.9425 -0.1498 -1.7084
  614MOL0     H82883   5.952   6.875   9.399  1.0928 -0.2505 -0.1801
  614MOL0     H82884   6.052   7.071   9.601 -2.4905  1.5307 -1.1172
  614MOL0     H82885   5.884   7.033   9.552 -2.1347  0.1967  3.8879
  614MOL0     H82886   5.891   6.734   9.827  0.4756 -2.4781 -0.7457
  614MOL0     H82887   5.977   7.048   8.910 -0.3887 -1.8856  3.8408
  614MOL0     H82888   6.017   7.001   8.564 -1.1771 -0.3555 -0.2395
  614MOL0     H82889   5.892   6.908   8.633 -0.4569  0.1911  2.8482
  614MOL0     H82890   5.927   7.079   8.689 -2.7963 -0.5717 -1.7807
  615MOL0     O82891   3.434   4.469   6.869 -0.7295  0.3365  0.5888
  615MOL0     C82892   3.409   4.448   6.986  0.4295 -0.7843 -0.3899
  615MOL0     O82893   3.292   4.401   7.034 -0.3128  0.2545 -0.0339
  615MOL0     C82894   3.166   4.422   6.984  0.5068 -0.0629 -0.0983
  615MOL0     C82895   3.062   4.355   7.044 -0.7738  0.8103  0.0618
  615MOL0     C82896   2.929   4.373   7.005  0.8105 -0.3924 -0.0418
  615MOL0     C82897   2.901   4.454   6.887 -1.0471 -0.3344 -0.5830
  615MOL0     O82898   2.781   4.470   6.827  0.9056  0.3528 -0.1467
  615MOL0     C82899   2.665   4.410   6.888 -0.2484  0.4157 -1.4857
  615MOL0     C82900   2.539   4.444   6.803 -0.9039 -0.6089  0.0178
  615MOL0     C82901   2.411   4.416   6.885 -0.5195  0.2657  0.3357
  615MOL0     C82902   2.277   4.450   6.819  0.2125 -0.2310  0.2749
  615MOL0     C82903   2.158   4.432   6.913  0.1608  0.3740 -0.5912
  615MOL0     C82904   2.027   4.453   6.837  0.0568 -0.2458 -0.2413
  615MOL0     C82905   1.912   4.476   6.940  0.9262  0.5049 -0.3584
  615MOL0     C82906   1.790   4.496   6.860 -0.4855  0.6460 -0.1598
  615MOL0     N82907   1.674   4.553   6.940 -0.0499  0.0999  0.1092
  615MOL0     C82908   1.633   4.515   7.060 -0.4817 -0.3102  0.1782
  615MOL0     C82909   1.509   4.565   7.078  0.8275 -0.0623 -0.0382
  615MOL0     C82910   1.448   4.557   7.214  0.5026 -0.2412  0.5541
  615MOL0     C82911   1.299   4.597   7.228  0.3972  0.5235 -0.1350
  615MOL0     C82912   1.208   4.497   7.144 -0.4447  0.0150  0.3724
  615MOL0     C82913   1.082   4.455   7.215 -0.8801 -0.7623  1.2560
  615MOL0     O82914   0.996   4.576   7.235  0.2447  0.5668 -0.3040
  615MOL0     C82915   0.885   4.565   7.313 -0.1858 -0.7513 -0.7368
  615MOL0     C82916   0.829   4.445   7.357  0.2146 -1.5793  0.2432
  615MOL0     C82917   0.703   4.450   7.437 -0.1468  0.1574 -0.1841
  615MOL0     C82918   0.643   4.569   7.476  0.8264  0.4183  0.8731
  615MOL0     C82919   0.508   4.568   7.531 -0.8775  0.6743  0.6170
  615MOL0     O82920   0.488   4.641   7.646 -0.0746  0.6299  0.0802
  615MOL0     C82921   0.358   4.671   7.662  0.1060  0.3628 -0.2451
  615MOL0     C82922   0.259   4.573   7.695  0.0157 -0.0413  0.0431
  615MOL0     C82923   0.133   4.608   7.739  0.3655 -0.8147 -0.1278
  615MOL0     C82924   0.084   4.738   7.734 -0.1436 -0.9338  0.0974
  615MOL0     O82925  -0.046   4.777   7.739  0.2955  0.5912  1.0539
  615MOL0     C82926  -0.112   4.779   7.614 -0.4539  0.2560  0.6314
  615MOL0     C82927  -0.259   4.776   7.654 -0.5297 -1.1799 -0.2653
  615MOL0     C82928  -0.344   4.833   7.541 -0.2680 -0.2399 -0.4841
  615MOL0     C82929  -0.493   4.828   7.585 -0.0817  0.0905 -0.5922
  615MOL0     C82930  -0.595   4.874   7.485 -0.0124 -0.5402 -0.0660
  615MOL0     C82931  -0.737   4.865   7.541 -0.5736 -0.0894  0.2645
  615MOL0     C82932  -0.769   4.983   7.646 -0.2703 -0.5910  0.0492
  615MOL0     C82933  -0.790   5.120   7.582 -0.1058 -0.0992 -0.1842
  615MOL0    Cl82934  -0.947   5.135   7.511  0.3225 -0.0048  0.2075
  615MOL0     C82935   0.176   4.839   7.696 -0.9424 -0.1544 -0.5183
  615MOL0     C82936   0.311   4.802   7.666 -0.1502 -0.9166 -0.0139
  615MOL0     O82937   0.426   4.505   7.472 -0.4557  0.1760  0.7587
  615MOL0     C82938   0.707   4.690   7.427  0.0803  1.0570  0.1185
  615MOL0     C82939   0.828   4.691   7.350  0.0200 -0.2315  0.8614
  615MOL0     N82940   1.461   4.618   6.960  0.1438  0.6838 -0.2304
  615MOL0     N82941   1.561   4.603   6.886 -0.6811 -0.2177 -0.6305
  615MOL0     C82942   3.009   4.517   6.819 -0.1992  0.0426 -0.1649
  615MOL0     C82943   3.136   4.502   6.876 -0.9599 -0.5925  0.0350
  615MOL0     C82944   3.516   4.496   7.078  0.0810  0.2010 -0.1227
  615MOL0     C82945   3.510   4.440   7.212 -0.0222  0.3465 -0.1510
  615MOL0     C82946   3.622   4.462   7.298  0.1720  0.5706  0.1612
  615MOL0     C82947   3.741   4.514   7.261  0.3849  0.9015  0.7445
  615MOL0     O82948   3.844   4.497   7.356  0.3796  0.0913  0.6032
  615MOL0     C82949   3.979   4.491   7.304 -0.6567  0.8379 -0.2640
  615MOL0     C82950   4.048   4.391   7.398  0.1103  0.3478  0.3390
  615MOL0     C82951   4.205   4.407   7.383  0.9493 -0.1309 -0.2784
  615MOL0     C82952   4.288   4.282   7.425 -0.7692 -0.2366 -0.0167
  615MOL0     C82953   4.265   4.255   7.566  0.4586  0.4963  0.4418
  615MOL0     C82954   4.226   4.258   7.683  0.1352  0.2561 -0.3627
  615MOL0     C82955   3.748   4.567   7.127 -0.5968 -0.0365  0.2376
  615MOL0     C82956   3.637   4.560   7.034 -0.1151  0.8052 -0.1728
  615MOL0     C82957   3.667   4.643   6.908  0.2198  0.4055 -0.0983
  615MOL0     H82958   3.084   4.276   7.115 -0.5071 -0.3445 -1.2456
  615MOL0     H82959   2.859   4.315   7.066  3.7038 -1.1970  2.8062
  615MOL0     H82960   2.690   4.304   6.902  0.8652  1.0016  2.2607
  615MOL0     H82961   2.645   4.447   6.989 -0.5225 -1.6314 -0.7394
  615MOL0     H82962   2.534   4.393   6.706 -4.0534  1.9839 -1.3691
  615MOL0     H82963   2.546   4.548   6.771 -0.3669 -1.5879 -3.5034
  615MOL0     H82964   2.406   4.469   6.981  2.3091  2.9623 -0.8272
  615MOL0     H82965   2.407   4.309   6.905  1.2989 -0.0009 -0.5077
  615MOL0     H82966   2.279   4.555   6.788 -0.0884 -0.9444 -2.4897
  615MOL0     H82967   2.256   4.389   6.730 -2.8256  3.0783 -1.5333
  615MOL0     H82968   2.160   4.331   6.956 -0.2286  0.3330 -0.6718
  615MOL0     H82969   2.159   4.501   6.998  0.5802  0.9852 -1.0881
  615MOL0     H82970   2.044   4.549   6.788 -2.5879  0.8399  0.7595
  615MOL0     H82971   2.018   4.364   6.776  5.1424 -3.1395  2.5965
  615MOL0     H82972   1.939   4.556   7.010  0.3187  0.4086 -0.0065
  615MOL0     H82973   1.897   4.381   6.992 -1.7295 -0.5106 -2.6963
  615MOL0     H82974   1.818   4.561   6.776 -1.1787  3.6951  1.7977
  615MOL0     H82975   1.765   4.399   6.815  0.7488  0.8151 -1.2716
  615MOL0     H82976   1.696   4.475   7.139  0.3514  3.1651  1.4411
  615MOL0     H82977   1.457   4.455   7.252  1.6479 -0.5481 -0.4845
  615MOL0     H82978   1.515   4.620   7.273  0.1797 -1.6997  2.6045
  615MOL0     H82979   1.273   4.590   7.334  0.4404  0.8206 -0.1047
  615MOL0     H82980   1.289   4.699   7.191  1.4112  1.0431  0.9354
  615MOL0     H82981   1.262   4.403   7.130 -2.6564 -1.0125 -2.1151
  615MOL0     H82982   1.175   4.538   7.048  1.5759 -0.4129 -0.5572
  615MOL0     H82983   1.109   4.408   7.311  0.9577 -1.3212  0.5043
  615MOL0     H82984   1.021   4.377   7.168  1.9176  0.0111 -4.4326
  615MOL0     H82985   0.870   4.349   7.326  0.0335 -2.0054  1.2935
  615MOL0     H82986   0.660   4.353   7.456 -2.5186  1.5127  1.9839
  615MOL0     H82987   0.280   4.467   7.705 -0.0189 -0.0148  0.4026
  615MOL0     H82988   0.071   4.526   7.774 -1.6089 -0.4149 -2.3948
  615MOL0     H82989  -0.086   4.873   7.564  0.0124  0.8533  1.9266
  615MOL0     H82990  -0.078   4.699   7.548  0.7146  1.5154 -0.3424
  615MOL0     H82991  -0.290   4.677   7.688  0.3119 -0.8441  1.6418
  615MOL0     H82992  -0.275   4.838   7.743 -1.7047 -0.3619 -1.0164
  615MOL0     H82993  -0.323   4.940   7.530 -0.8310 -0.0708 -0.0047
  615MOL0     H82994  -0.316   4.773   7.454  0.0446  0.0947 -0.6197
  615MOL0     H82995  -0.483   4.903   7.664  1.1382 -1.7806  1.1174
  615MOL0     H82996  -0.529   4.736   7.632 -2.1235  1.0908 -0.1103
  615MOL0     H82997  -0.587   4.816   7.392  1.3077 -0.6487  0.1057
  615MOL0     H82998  -0.581   4.981   7.467  0.3717 -0.4047  0.9728
  615MOL0     H82999  -0.796   4.860   7.449 -0.2074 -3.5410  0.0820
  615MOL0     H83000  -0.753   4.768   7.587 -0.9647 -1.2677 -2.2134
  615MOL0     H83001  -0.675   4.984   7.701  1.9095 -1.8465 -3.3506
  615MOL0     H83002  -0.855   4.958   7.708 -1.6398  2.7391 -0.2769
  615MOL0     H83003  -0.769   5.207   7.644  1.3497 -1.4689  1.3438
  615MOL0     H83004  -0.716   5.130   7.503  2.1907 -1.0801  1.7220
  615MOL0     H83005   0.152   4.944   7.680  1.1515  0.6366  1.0322
  615MOL0     H83006   0.383   4.882   7.652 -0.1896 -0.7986  0.4388
  615MOL0     H83007   0.647   4.779   7.441 -2.0623 -0.0441 -1.4837
  615MOL0     H83008   0.884   4.777   7.313  0.0027 -0.7681 -0.4532
  615MOL0     H83009   2.991   4.593   6.743 -1.5887  2.6037  2.5428
  615MOL0     H83010   3.216   4.556   6.828  0.8952 -2.8577  0.4006
  615MOL0     H83011   3.424   4.399   7.263 -1.7507  1.3882 -2.1026
  615MOL0     H83012   3.614   4.413   7.395 -2.8001  1.5620  0.5177
  615MOL0     H83013   4.023   4.591   7.302 -0.5223  0.7746 -2.0521
  615MOL0     H83014   3.984   4.455   7.200 -3.2000 -1.7821  0.3872
  615MOL0     H83015   4.016   4.292   7.366 -3.6417  1.3617  0.5235
  615MOL0     H83016   4.029   4.409   7.504  2.0201 -0.7283  0.9022
  615MOL0     H83017   4.226   4.490   7.451 -0.7475 -1.9018  2.5959
  615MOL0     H83018   4.226   4.447   7.283 -1.6977  3.1503  0.2934
  615MOL0     H83019   4.264   4.191   7.370  3.4876 -1.6295  0.1199
  615MOL0     H83020   4.393   4.300   7.400 -0.7812 -0.3691 -0.1621
  615MOL0     H83021   4.197   4.266   7.786 -1.2176  0.8673 -0.7673
  615MOL0     H83022   3.846   4.609   7.107 -0.0438 -0.6720  1.4769
  615MOL0     H83023   3.746   4.712   6.941 -1.1656  1.6686  0.6961
  615MOL0     H83024   3.711   4.590   6.823  0.6166  0.2223  0.2176
  615MOL0     H83025   3.574   4.688   6.874 -0.1815 -0.2644  0.0909
  616MOL0     O83026   7.959   1.186   0.888 -0.4510  0.7555  0.0818
  616MOL0     C83027   8.021   1.110   0.968  0.1562  0.5077  0.5931
  616MOL0     O83028   8.142   1.047   0.939  0.1377 -0.6172 -0.4002
  616MOL0     C83029   8.194   1.075   0.813 -1.0147  0.0095 -0.6098
  616MOL0     C83030   8.334   1.102   0.807  0.2437  0.9670  0.0483
  616MOL0     C83031   8.403   1.110   0.682  1.0605 -0.0990 -1.0849
  616MOL0     C83032   8.330   1.100   0.565 -0.2076 -1.1085  0.8848
  616MOL0     O83033   8.404   1.119   0.450  0.2076  0.2308 -0.0242
  616MOL0     C83034   8.339   1.152   0.326  0.9871  0.8699  0.2449
  616MOL0     C83035   8.436   1.154   0.207  0.4875 -0.0895  0.2273
  616MOL0     C83036   8.475   1.005   0.205 -0.9807  0.4357  0.6270
  616MOL0     C83037   8.529   0.978   0.056  0.9802 -0.1114  0.7745
  616MOL0     C83038   8.680   1.026   0.033  0.3874  0.0496  0.5365
  616MOL0     C83039   8.772   0.908   0.046  0.1911  0.3976  0.7927
  616MOL0     C83040   8.913   0.942  -0.018 -0.6031  0.6759 -0.9039
  616MOL0     C83041   8.895   0.950  -0.173 -0.0496  0.3813 -0.0780
  616MOL0     N83042   8.894   0.816  -0.239 -1.2324  0.5881  0.3621
  616MOL0     C83043   8.789   0.733  -0.273  1.2102  0.2639 -0.2599
  616MOL0     C83044   8.844   0.613  -0.313  0.0994 -0.2256 -0.5405
  616MOL0     C83045   8.774   0.488  -0.353 -0.5706  0.1796  0.3669
  616MOL0     C83046   8.796   0.438  -0.493 -0.6236  0.3643 -0.2092
  616MOL0     C83047   8.747   0.555  -0.579  0.2728 -0.0792  0.1916
  616MOL0     C83048   8.725   0.522  -0.721  0.0555  0.4804  0.4678
  616MOL0     O83049   8.758   0.629  -0.816  0.8065 -0.6673 -0.0151
  616MOL0     C83050   8.678   0.745  -0.795  0.2854 -0.6060  0.0973
  616MOL0     C83051   8.542   0.756  -0.769  0.2290  0.1387 -0.4422
  616MOL0     C83052   8.474   0.877  -0.767 -0.7277 -0.2685 -0.1739
  616MOL0     C83053   8.534   0.993  -0.814 -0.0307 -0.2293  0.6644
  616MOL0     C83054   8.462   1.120  -0.824  0.7024 -0.0914  0.4886
  616MOL0     O83055   8.514   1.224  -0.906  0.1866  0.1366 -0.6335
  616MOL0     C83056   8.453   1.342  -0.921 -0.2688 -0.6105 -0.9100
  616MOL0     C83057   8.319   1.347  -0.946 -0.5926 -0.0690 -0.0713
  616MOL0     C83058   8.248   1.462  -0.971  0.6300  0.4671  0.9687
  616MOL0     C83059   8.321   1.588  -0.985  0.6533  0.5361  0.2297
  616MOL0     O83060   8.259   1.706  -1.008  0.1076  0.1258  0.2870
  616MOL0     C83061   8.153   1.708  -1.098  0.6499  0.7802 -0.9959
  616MOL0     C83062   8.134   1.851  -1.144 -0.4011 -0.3412 -0.9666
  616MOL0     C83063   7.992   1.890  -1.187  0.1206  0.5854 -0.0630
  616MOL0     C83064   7.952   1.784  -1.302 -0.0543 -0.5826  0.1200
  616MOL0     C83065   7.822   1.816  -1.376 -1.2985 -0.0566 -0.0857
  616MOL0     C83066   7.808   1.723  -1.496 -0.8466 -0.0820  0.6764
  616MOL0     C83067   7.682   1.758  -1.567  0.6407 -0.2753  0.8071
  616MOL0     C83068   7.682   1.867  -1.663  0.3727 -0.0195  0.1802
  616MOL0    Cl83069   7.521   1.892  -1.732 -0.2663 -0.4218  0.0812
  616MOL0     C83070   8.462   1.579  -0.979 -0.3788  0.0046  0.2148
  616MOL0     C83071   8.530   1.457  -0.942  0.9088 -0.9104 -0.1677
  616MOL0     O83072   8.353   1.117  -0.765 -0.0692  0.3210  0.2957
  616MOL0     C83073   8.671   0.991  -0.852 -0.5764  0.6268 -0.5966
  616MOL0     C83074   8.744   0.863  -0.842 -0.7292  0.4694 -0.5675
  616MOL0     N83075   8.984   0.628  -0.300  0.0533 -0.0921 -0.1657
  616MOL0     N83076   9.012   0.743  -0.247  0.0250  0.8324  0.5341
  616MOL0     C83077   8.193   1.090   0.567  0.7762 -1.0146 -0.0573
  616MOL0     C83078   8.128   1.080   0.689  0.4087 -0.5701  0.1100
  616MOL0     C83079   7.951   1.073   1.094 -0.0191 -0.7420  0.2762
  616MOL0     C83080   8.001   0.969   1.180  0.1340  0.1425  0.4845
  616MOL0     C83081   7.931   0.930   1.292 -0.3105 -0.0211 -0.3389
  616MOL0     C83082   7.805   0.991   1.328 -0.1755 -1.1190  0.4645
  616MOL0     O83083   7.742   0.951   1.440  0.0660 -0.8672  1.0842
  616MOL0     C83084   7.603   0.978   1.469 -0.8065 -1.0984  0.5269
  616MOL0     C83085   7.535   0.864   1.538  0.5199 -0.6283  0.6104
  616MOL0     C83086   7.455   0.769   1.441 -1.0164  0.4810 -0.2391
  616MOL0     C83087   7.535   0.641   1.395 -0.0723 -0.3759 -0.4955
  616MOL0     C83088   7.461   0.537   1.313 -0.2610 -0.0215 -1.2923
  616MOL0     C83089   7.393   0.460   1.259  0.2615  0.8293 -0.0268
  616MOL0     C83090   7.751   1.089   1.246  0.1874  0.1167  1.1136
  616MOL0     C83091   7.828   1.133   1.136  0.5289  0.4326 -0.7211
  616MOL0     C83092   7.778   1.268   1.081  0.3971  0.9709 -0.5583
  616MOL0     H83093   8.371   1.128   0.905 -0.6271  1.7134  0.1888
  616MOL0     H83094   8.510   1.127   0.670  0.9712 -0.2678 -2.3227
  616MOL0     H83095   8.269   1.071   0.304  1.5150  1.0053 -2.2347
  616MOL0     H83096   8.274   1.239   0.327 -1.0660 -0.5920 -0.0470
  616MOL0     H83097   8.523   1.220   0.215  1.5323 -1.2115 -1.2756
  616MOL0     H83098   8.390   1.179   0.112  4.4863 -0.4760 -2.0481
  616MOL0     H83099   8.387   0.941   0.210 -0.2070 -0.6208  0.9681
  616MOL0     H83100   8.549   0.994   0.284  0.0019  1.5711 -0.1045
  616MOL0     H83101   8.519   0.871   0.033  0.4791 -0.0525  0.7141
  616MOL0     H83102   8.457   1.014  -0.018  1.3459 -2.3506 -0.7913
  616MOL0     H83103   8.658   1.072  -0.064 -0.3737 -3.2381 -0.9903
  616MOL0     H83104   8.713   1.095   0.112  1.0361  2.1417 -1.4417
  616MOL0     H83105   8.784   0.879   0.150  0.7911  1.6635  1.1049
  616MOL0     H83106   8.738   0.821  -0.010  0.3607  1.2981 -0.7753
  616MOL0     H83107   8.986   0.863   0.003 -0.7424  0.5717 -0.8041
  616MOL0     H83108   8.950   1.032   0.031 -0.0594  0.7183 -1.3783
  616MOL0     H83109   8.808   1.010  -0.203 -1.6615 -1.6332  0.4180
  616MOL0     H83110   8.977   1.010  -0.215  0.0207 -0.6520 -1.5036
  616MOL0     H83111   8.684   0.762  -0.278  0.5845 -1.7336  0.1387
  616MOL0     H83112   8.820   0.417  -0.284  1.2838  0.5375 -0.4212
  616MOL0     H83113   8.666   0.492  -0.335 -0.4107  0.5420  1.3104
  616MOL0     H83114   8.898   0.400  -0.499 -0.9980 -0.9250  1.0130
  616MOL0     H83115   8.726   0.359  -0.522 -0.0225  0.4368 -2.0018
  616MOL0     H83116   8.829   0.628  -0.574 -0.7288  1.1567 -1.0298
  616MOL0     H83117   8.656   0.597  -0.536  0.1157  1.7333 -1.7699
  616MOL0     H83118   8.619   0.498  -0.735 -0.3620  2.8453 -0.8061
  616MOL0     H83119   8.789   0.436  -0.746 -0.9488  0.0878 -0.8770
  616MOL0     H83120   8.479   0.670  -0.747 -1.6040  1.2503 -1.0438
  616MOL0     H83121   8.374   0.873  -0.725 -1.8961 -4.5876 -2.7227
  616MOL0     H83122   8.269   1.251  -0.957  1.7022 -1.1309 -2.3511
  616MOL0     H83123   8.141   1.446  -0.980  1.0357 -3.6620  1.5369
  616MOL0     H83124   8.165   1.640  -1.183  0.5766  0.5447 -0.8176
  616MOL0     H83125   8.071   1.676  -1.033  1.2964 -1.2690 -1.0950
  616MOL0     H83126   8.174   1.927  -1.077  2.3175 -3.3958  1.2037
  616MOL0     H83127   8.208   1.864  -1.223  1.8347  3.1031  1.4309
  616MOL0     H83128   7.923   1.876  -1.104  2.5328 -1.3151  1.7696
  616MOL0     H83129   8.006   1.997  -1.203  1.8325  0.8399  2.5271
  616MOL0     H83130   7.940   1.685  -1.257  0.4552 -0.9197 -0.4694
  616MOL0     H83131   8.038   1.780  -1.370 -0.5769  1.3188 -0.7243
  616MOL0     H83132   7.813   1.918  -1.417 -3.5515 -0.5494 -0.9587
  616MOL0     H83133   7.739   1.805  -1.306 -2.1104  0.1193 -0.9933
  616MOL0     H83134   7.896   1.743  -1.558  0.6099 -0.7739  2.4371
  616MOL0     H83135   7.802   1.614  -1.484  2.4157 -1.0682 -3.8553
  616MOL0     H83136   7.600   1.778  -1.496 -0.1939  1.1889 -0.5039
  616MOL0     H83137   7.656   1.666  -1.619 -0.2614  0.5525 -0.2708
  616MOL0     H83138   7.718   1.967  -1.634 -1.5733  1.2317 -1.4436
  616MOL0     H83139   7.740   1.825  -1.745 -1.4706 -3.7549  0.5791
  616MOL0     H83140   8.514   1.673  -0.996 -3.1148  1.5999  0.0845
  616MOL0     H83141   8.638   1.458  -0.935  0.8418  1.8251  2.6489
  616MOL0     H83142   8.739   1.071  -0.879  2.3444 -1.0242  1.2825
  616MOL0     H83143   8.845   0.863  -0.882 -0.5518 -1.6356 -0.2452
  616MOL0     H83144   8.135   1.090   0.475 -0.8285  0.3163  0.8970
  616MOL0     H83145   8.020   1.074   0.682  0.4021 -2.1161  1.1549
  616MOL0     H83146   8.103   0.943   1.152 -0.9158 -3.4088 -0.6388
  616MOL0     H83147   7.974   0.862   1.365  0.0546 -0.9253 -1.3806
  616MOL0     H83148   7.540   1.003   1.383 -0.3958  0.6271  0.6911
  616MOL0     H83149   7.595   1.060   1.541 -2.6032 -0.6411 -0.1206
  616MOL0     H83150   7.468   0.906   1.614  2.3737 -0.9019  2.5077
  616MOL0     H83151   7.612   0.811   1.595  1.3008  0.0542  0.2090
  616MOL0     H83152   7.416   0.821   1.353 -0.7960 -1.1821 -1.3530
  616MOL0     H83153   7.368   0.728   1.492 -1.9505  2.0151 -0.5350
  616MOL0     H83154   7.615   0.674   1.329 -1.7666  0.2908 -2.3058
  616MOL0     H83155   7.587   0.595   1.480  1.3637  1.0977 -0.5357
  616MOL0     H83156   7.329   0.394   1.204 -0.0277  2.1776 -1.3793
  616MOL0     H83157   7.662   1.146   1.269 -0.8741 -0.8428 -0.3726
  616MOL0     H83158   7.703   1.311   1.148 -1.2677 -0.6206 -1.3174
  616MOL0     H83159   7.865   1.333   1.069  2.4268 -1.0920  1.7942
  616MOL0     H83160   7.738   1.253   0.980  2.3940 -1.8137 -1.0385
  617MOL0     O83161  10.742   9.660   4.244 -0.4383 -0.6841  0.6352
  617MOL0     C83162  10.647   9.590   4.277 -0.1499 -0.6433 -0.8625
  617MOL0     O83163  10.647   9.508   4.395  0.4029 -0.3237  0.4374
  617MOL0     C83164  10.748   9.520   4.492  1.0225  0.1795 -0.6892
  617MOL0     C83165  10.696   9.545   4.617  0.5873 -0.4865 -0.7595
  617MOL0     C83166  10.769   9.537   4.733 -0.0713 -0.5246  0.3396
  617MOL0     C83167  10.904   9.512   4.711 -0.2124  0.5883  0.3991
  617MOL0     O83168  10.990   9.505   4.813  0.1732  0.6323  0.0624
  617MOL0     C83169  11.024   9.622   4.880  0.4720 -0.9130  0.9440
  617MOL0     C83170  11.140   9.581   4.973  0.1899 -0.0740  1.1115
  617MOL0     C83171  11.198   9.705   5.033  0.0355  0.2754  0.4205
  617MOL0     C83172  11.272   9.682   5.164  0.0097  0.7220  0.0939
  617MOL0     C83173  11.268   9.808   5.251  0.1021  0.3221  0.2723
  617MOL0     C83174  11.364   9.811   5.363 -0.3276  0.4561 -0.2748
  617MOL0     C83175  11.356   9.945   5.441 -0.1109  0.6336 -1.5518
  617MOL0     C83176  11.466   9.959   5.546 -0.1093  0.3967  0.2056
  617MOL0     N83177  11.480   9.862   5.653 -0.8751  0.7477  0.1189
  617MOL0     C83178  11.391   9.809   5.733 -0.8603 -0.2080 -0.0111
  617MOL0     C83179  11.463   9.747   5.836 -0.5501 -0.8364  0.0989
  617MOL0     C83180  11.397   9.693   5.967 -0.4409  0.3868  0.1030
  617MOL0     C83181  11.489   9.616   6.062 -0.2649  0.0791 -0.3609
  617MOL0     C83182  11.406   9.578   6.184 -0.6844 -0.1108  0.2630
  617MOL0     C83183  11.468   9.477   6.285 -0.6300  0.2414 -0.1317
  617MOL0     O83184  11.414   9.494   6.421 -0.5110 -0.1321  0.4276
  617MOL0     C83185  11.291   9.446   6.448 -0.4893 -0.2892  0.1261
  617MOL0     C83186  11.236   9.476   6.568 -0.8228  0.8268 -0.9839
  617MOL0     C83187  11.109   9.432   6.603 -0.2248 -0.0265 -0.7187
  617MOL0     C83188  11.030   9.360   6.515 -0.3712  0.8096 -0.0693
  617MOL0     C83189  10.910   9.298   6.567 -0.1338  0.2040 -0.3071
  617MOL0     O83190  10.907   9.286   6.704 -0.0430 -0.5525  0.0359
  617MOL0     C83191  10.791   9.246   6.771  0.1634  0.3219  0.9236
  617MOL0     C83192  10.665   9.292   6.741  0.7284  0.4678  0.1825
  617MOL0     C83193  10.549   9.254   6.813  0.1849  0.6694 -0.0628
  617MOL0     C83194  10.552   9.165   6.916 -0.7368 -0.1732 -0.3732
  617MOL0     O83195  10.441   9.122   6.988 -0.1467 -0.0183  0.0551
  617MOL0     C83196  10.300   9.164   6.972  0.4582  0.2020  0.9266
  617MOL0     C83197  10.224   9.093   6.860  0.4249  0.3156 -0.3949
  617MOL0     C83198  10.185   8.946   6.874  0.2882  0.6694  0.5606
  617MOL0     C83199  10.289   8.856   6.945 -0.3183  0.4745 -0.7486
  617MOL0     C83200  10.251   8.708   6.927 -0.2653 -0.3496 -0.5243
  617MOL0     C83201  10.132   8.677   7.017  0.9440 -0.2623 -0.1665
  617MOL0     C83202  10.099   8.524   7.000  0.4522 -0.1568 -0.4540
  617MOL0     C83203  10.194   8.435   7.076 -0.6718  0.1795  0.1800
  617MOL0    Cl83204  10.114   8.274   7.119 -0.3900 -0.1155 -0.0601
  617MOL0     C83205  10.680   9.116   6.947  1.0248 -1.7344 -0.0081
  617MOL0     C83206  10.799   9.161   6.876  0.3425  0.4149  0.4842
  617MOL0     O83207  10.827   9.260   6.483 -0.1239  0.2796 -0.9650
  617MOL0     C83208  11.084   9.329   6.390  0.6142  0.0396 -0.5051
  617MOL0     C83209  11.216   9.359   6.365  0.2090 -0.7943  0.4567
  617MOL0     N83210  11.596   9.737   5.791  0.2496  0.1211  0.4670
  617MOL0     N83211  11.596   9.807   5.680 -0.9711 -0.1724  0.9202
  617MOL0     C83212  10.959   9.491   4.585  0.2231  0.2224  0.0673
  617MOL0     C83213  10.884   9.508   4.469  0.1617  0.0805  0.0207
  617MOL0     C83214  10.530   9.588   4.184 -0.2187 -0.7580  1.0209
  617MOL0     C83215  10.558   9.576   4.050 -0.4572  0.8670 -0.0030
  617MOL0     C83216  10.455   9.581   3.955 -0.2782 -0.3656  0.1282
  617MOL0     C83217  10.333   9.612   3.994  0.1600 -0.1561 -0.4594
  617MOL0     O83218  10.237   9.637   3.900  0.2614 -0.8270  0.1651
  617MOL0     C83219  10.105   9.680   3.935  0.4962 -0.4056 -0.8521
  617MOL0     C83220  10.014   9.659   3.809  0.6099  0.3674  0.5578
  617MOL0     C83221   9.950   9.795   3.764  0.3884 -0.8518  0.4598
  617MOL0     C83222   9.839   9.793   3.665  0.6175 -0.0921  0.4281
  617MOL0     C83223   9.858   9.896   3.568 -1.5248 -0.7580  0.4423
  617MOL0     C83224   9.898   9.987   3.485 -0.6504  0.1122 -0.1724
  617MOL0     C83225  10.297   9.628   4.128 -0.6449  0.1446  0.4324
  617MOL0     C83226  10.400   9.624   4.216  0.7843 -0.0502  0.7855
  617MOL0     C83227  10.353   9.633   4.348 -0.3021  0.4536 -0.3919
  617MOL0     H83228  10.594   9.583   4.621  1.5599  2.1900  0.7755
  617MOL0     H83229  10.731   9.551   4.834 -0.9657 -2.5861  0.3424
  617MOL0     H83230  11.043   9.698   4.804  2.5646 -2.4957 -0.2264
  617MOL0     H83231  10.942   9.670   4.933 -1.4643  0.4332 -2.9010
  617MOL0     H83232  11.221   9.538   4.912  0.6919 -0.0915  1.7873
  617MOL0     H83233  11.108   9.522   5.059 -0.4721  2.2022  2.5178
  617MOL0     H83234  11.124   9.781   5.058 -0.6692 -1.0925  2.7847
  617MOL0     H83235  11.277   9.733   4.962 -0.5222 -0.8905 -0.7131
  617MOL0     H83236  11.229   9.597   5.218 -2.5355  4.3165  4.3727
  617MOL0     H83237  11.376   9.658   5.139 -0.4004  0.7337 -1.7784
  617MOL0     H83238  11.302   9.889   5.185  0.0600  2.3575  2.6131
  617MOL0     H83239  11.164   9.821   5.282 -0.0537  0.7391 -0.4009
  617MOL0     H83240  11.327   9.727   5.423 -2.3526  0.4642 -1.4303
  617MOL0     H83241  11.462   9.791   5.320 -1.9105 -1.8321 -3.1935
  617MOL0     H83242  11.266   9.976   5.495  2.2348  2.5823  1.6556
  617MOL0     H83243  11.372  10.022   5.365 -0.5605  1.9081 -0.4106
  617MOL0     H83244  11.564   9.955   5.498  1.3631 -0.3863  3.0226
  617MOL0     H83245  11.465  10.063   5.578 -2.3350  0.2184  0.9109
  617MOL0     H83246  11.290   9.847   5.725 -0.9984 -0.6389 -0.3448
  617MOL0     H83247  11.356   9.775   6.026  1.1152  0.9131  0.4694
  617MOL0     H83248  11.317   9.623   5.938 -0.9127  0.9410  0.0531
  617MOL0     H83249  11.517   9.530   6.002 -0.5628  1.4020 -2.4926
  617MOL0     H83250  11.578   9.678   6.077  0.0832 -0.0945 -1.6376
  617MOL0     H83251  11.308   9.546   6.149  0.3479  0.1274 -3.2581
  617MOL0     H83252  11.399   9.667   6.247 -1.1072  0.9286 -1.1978
  617MOL0     H83253  11.576   9.491   6.279 -0.5406  0.7661  1.8524
  617MOL0     H83254  11.451   9.371   6.262  2.5844 -0.0396 -1.6151
  617MOL0     H83255  11.293   9.532   6.641  1.7603 -0.7281 -1.6695
  617MOL0     H83256  11.082   9.443   6.708  0.2744 -2.7826 -0.2148
  617MOL0     H83257  10.640   9.361   6.662  2.0027 -1.7759 -2.3303
  617MOL0     H83258  10.452   9.290   6.780 -1.3870 -2.2409  1.0419
  617MOL0     H83259  10.242   9.133   7.060  0.3354  0.0456  0.7916
  617MOL0     H83260  10.290   9.269   6.944 -1.2781 -0.9586 -3.9644
  617MOL0     H83261  10.130   9.149   6.860  0.6427  0.7116  0.7733
  617MOL0     H83262  10.286   9.106   6.771  0.6756 -0.2163 -0.3074
  617MOL0     H83263  10.094   8.941   6.935 -0.3246 -1.5204 -0.4113
  617MOL0     H83264  10.160   8.900   6.777 -2.7220  2.0811  0.5482
  617MOL0     H83265  10.302   8.884   7.050  4.6106 -2.8526 -0.1101
  617MOL0     H83266  10.386   8.874   6.898  0.2994  1.2671  0.7424
  617MOL0     H83267  10.335   8.643   6.954  1.4698  1.8477 -0.3848
  617MOL0     H83268  10.206   8.685   6.830 -3.4974  0.8656  0.5499
  617MOL0     H83269  10.160   8.696   7.121  1.8591 -2.3132  0.0104
  617MOL0     H83270  10.040   8.731   6.994  0.3016 -0.9957  0.6010
  617MOL0     H83271  10.080   8.488   6.898 -0.1354  0.5106 -0.5930
  617MOL0     H83272  10.007   8.526   7.059  1.2480  1.1889  0.8244
  617MOL0     H83273  10.272   8.420   7.001 -1.1328 -0.9790 -0.0882
  617MOL0     H83274  10.236   8.480   7.166 -0.2726  0.8707 -0.3389
  617MOL0     H83275  10.677   9.054   7.036 -0.8577 -1.5103  0.1243
  617MOL0     H83276  10.896   9.131   6.914  0.3517 -2.1746 -1.2982
  617MOL0     H83277  11.022   9.278   6.317  1.3870  0.0820 -1.2121
  617MOL0     H83278  11.248   9.329   6.266 -0.3085 -2.5892  0.7917
  617MOL0     H83279  11.061   9.456   4.572  0.4553  1.2119 -0.9222
  617MOL0     H83280  10.919   9.485   4.369 -1.8651 -0.2528 -0.6627
  617MOL0     H83281  10.664   9.563   4.034 -0.7858 -0.1085 -1.5992
  617MOL0     H83282  10.469   9.574   3.847 -1.0947  3.4473 -0.3572
  617MOL0     H83283  10.100   9.781   3.976  1.2072 -0.5168 -0.4818
  617MOL0     H83284  10.053   9.625   4.014 -3.2754  1.4581 -1.7567
  617MOL0     H83285   9.931   9.591   3.832  1.6290 -0.2299  2.7948
  617MOL0     H83286  10.065   9.614   3.724 -1.7943 -1.0231 -0.2350
  617MOL0     H83287  10.030   9.864   3.738 -2.4733  3.2837  1.6459
  617MOL0     H83288   9.904   9.841   3.851 -1.9140 -1.3694 -0.4172
  617MOL0     H83289   9.834   9.691   3.624  3.3650 -0.5874  1.1013
  617MOL0     H83290   9.749   9.826   3.719 -0.2244  1.9932 -2.0538
  617MOL0     H83291   9.941  10.073   3.437  1.5532  0.3859  2.0775
  617MOL0     H83292  10.198   9.660   4.159 -0.7150  0.1221  0.2269
  617MOL0     H83293  10.437   9.656   4.414 -0.8160  0.5517  0.2415
  617MOL0     H83294  10.268   9.699   4.368 -0.6745 -0.9095  3.5060
  617MOL0     H83295  10.332   9.527   4.368  3.9570 -0.1011  2.3593
  618MOL0     O83296   1.306   5.801   5.309  0.3378 -0.1300 -0.0066
  618MOL0     C83297   1.203   5.787   5.234 -0.1432 -0.1793 -0.0272
  618MOL0     O83298   1.146   5.672   5.210  0.2526 -0.1259  0.7011
  618MOL0     C83299   1.155   5.559   5.280  0.2338  0.3698 -0.5241
  618MOL0     C83300   1.116   5.440   5.224  0.6694 -0.1804  0.5275
  618MOL0     C83301   1.117   5.323   5.282  0.5577 -0.0648  0.1652
  618MOL0     C83302   1.177   5.314   5.411 -0.3897 -0.2549  1.1362
  618MOL0     O83303   1.202   5.198   5.488  1.3690  0.5164 -0.2984
  618MOL0     C83304   1.108   5.097   5.466 -0.4586 -0.6682 -0.5744
  618MOL0     C83305   1.074   5.025   5.598 -0.3210 -1.0157 -0.4061
  618MOL0     C83306   1.056   4.875   5.572 -0.0420 -0.8618 -0.4126
  618MOL0     C83307   1.047   4.800   5.711 -0.8440  0.1399  0.2411
  618MOL0     C83308   1.059   4.650   5.687  0.8016  1.4014 -0.7833
  618MOL0     C83309   1.156   4.565   5.778 -0.0801  0.5657  0.3350
  618MOL0     C83310   1.149   4.409   5.749 -0.7043 -0.1568  0.0636
  618MOL0     C83311   1.210   4.319   5.864  0.6354 -0.3069 -0.1056
  618MOL0     N83312   1.169   4.181   5.847 -1.1033  0.2078 -0.0228
  618MOL0     C83313   1.043   4.128   5.843 -0.0895 -0.0322 -0.4043
  618MOL0     C83314   1.066   3.993   5.863  1.1114 -1.6087  0.1240
  618MOL0     C83315   0.953   3.893   5.875 -0.5731 -0.0280 -0.6205
  618MOL0     C83316   0.977   3.811   6.003 -0.0860  0.5118  0.0127
  618MOL0     C83317   0.898   3.677   5.998 -0.4520 -0.0843 -0.9444
  618MOL0     C83318   0.961   3.587   6.109  0.0439 -0.1343  0.4085
  618MOL0     O83319   0.991   3.654   6.238  0.0285 -0.2109  0.4585
  618MOL0     C83320   0.892   3.687   6.333 -0.2384 -0.1429  0.2121
  618MOL0     C83321   0.762   3.621   6.347 -1.0361  0.1004  0.1449
  618MOL0     C83322   0.679   3.654   6.453 -0.6389  0.0215  0.0259
  618MOL0     C83323   0.715   3.754   6.542  0.5941  1.8873 -0.1000
  618MOL0     C83324   0.609   3.798   6.630 -1.1413  0.5273  0.0585
  618MOL0     O83325   0.607   3.929   6.655 -1.2814 -0.2744  0.2778
  618MOL0     C83326   0.523   3.952   6.763 -0.1081 -0.5108 -0.4750
  618MOL0     C83327   0.395   3.992   6.738  0.1282 -0.1973 -0.1886
  618MOL0     C83328   0.314   4.037   6.841  0.3299 -0.9867  0.4747
  618MOL0     C83329   0.357   4.039   6.980  0.0078  0.1730  1.1885
  618MOL0     O83330   0.293   4.102   7.084  0.3370  0.0441 -1.2601
  618MOL0     C83331   0.171   4.159   7.058 -0.1363 -0.3017  0.2219
  618MOL0     C83332   0.104   4.201   7.186  0.9323  0.0527  0.2967
  618MOL0     C83333  -0.048   4.259   7.161 -0.5562 -0.4298 -1.3229
  618MOL0     C83334  -0.139   4.140   7.170 -0.2253  0.0435 -0.9804
  618MOL0     C83335  -0.181   4.075   7.035 -0.4692 -0.4555  0.5278
  618MOL0     C83336  -0.295   3.975   7.066 -1.4774 -1.3961  0.6122
  618MOL0     C83337  -0.426   4.037   7.066  0.6924 -0.2993 -0.0383
  618MOL0     C83338  -0.524   3.933   7.113  1.0509 -0.2199  0.4413
  618MOL0    Cl83339  -0.689   3.993   7.079 -0.4185  0.2473  0.7537
  618MOL0     C83340   0.485   3.989   7.006  0.5515 -0.5113 -0.3068
  618MOL0     C83341   0.568   3.946   6.895 -0.3663 -0.8785  0.7912
  618MOL0     O83342   0.533   3.710   6.676 -0.5353 -0.0644  0.0232
  618MOL0     C83343   0.839   3.815   6.528 -0.0373  0.5367 -0.1259
  618MOL0     C83344   0.929   3.791   6.419 -0.4866 -0.1393 -0.3831
  618MOL0     N83345   1.205   3.977   5.864 -0.0643  0.5089 -0.3807
  618MOL0     N83346   1.263   4.086   5.847 -0.2745 -0.2557 -0.8091
  618MOL0     C83347   1.221   5.432   5.475  0.4550  1.2622  0.9598
  618MOL0     C83348   1.210   5.557   5.408  0.2305  0.1258 -0.5777
  618MOL0     C83349   1.152   5.901   5.146 -0.2955  0.2255 -0.0226
  618MOL0     C83350   1.069   5.861   5.041 -0.3341  0.7530  0.3973
  618MOL0     C83351   1.006   5.955   4.955  0.0300  0.0455  0.5873
  618MOL0     C83352   1.020   6.091   4.991  0.1887  0.2885  0.4372
  618MOL0     O83353   0.960   6.185   4.908  0.3023 -0.5415 -0.1962
  618MOL0     C83354   0.910   6.308   4.965 -0.0088  0.7073 -0.2852
  618MOL0     C83355   0.830   6.380   4.856 -0.2153  0.1834 -0.3136
  618MOL0     C83356   0.926   6.442   4.757  0.2814  0.1143 -0.2941
  618MOL0     C83357   0.860   6.528   4.648  0.4057 -0.5427  0.2653
  618MOL0     C83358   0.840   6.451   4.532  0.3366 -0.5038  0.3870
  618MOL0     C83359   0.826   6.366   4.445  0.7322  0.5667  0.6686
  618MOL0     C83360   1.106   6.133   5.096  0.0290  0.3112  0.2654
  618MOL0     C83361   1.173   6.041   5.176 -0.0815  0.7209 -0.2457
  618MOL0     C83362   1.261   6.099   5.295 -0.6285 -0.3526 -0.6090
  618MOL0     H83363   1.090   5.445   5.119  0.0276  1.1168  0.7285
  618MOL0     H83364   1.082   5.235   5.228 -0.7196  0.4421  0.1553
  618MOL0     H83365   1.019   5.145   5.424 -1.4149 -0.2393  1.7847
  618MOL0     H83366   1.158   5.033   5.393  0.4324  2.7727 -3.2777
  618MOL0     H83367   0.980   5.066   5.637  0.1987  2.1326 -2.0937
  618MOL0     H83368   1.147   5.046   5.676 -3.1251 -0.0029  2.1340
  618MOL0     H83369   1.151   4.847   5.526  1.4511  0.8598  1.4551
  618MOL0     H83370   0.978   4.846   5.501  0.7090 -1.9769 -0.8037
  618MOL0     H83371   1.132   4.826   5.774 -2.0062  1.6793  1.2740
  618MOL0     H83372   0.950   4.828   5.754 -0.4069  0.8757  0.7742
  618MOL0     H83373   0.962   4.601   5.703  1.4228  0.8960  2.0183
  618MOL0     H83374   1.080   4.640   5.581 -2.1054  0.7909 -1.3876
  618MOL0     H83375   1.261   4.591   5.760  0.4682 -1.2371  0.7062
  618MOL0     H83376   1.138   4.578   5.885  2.1220 -2.6480  1.2836
  618MOL0     H83377   1.194   4.390   5.651 -0.1897  3.4418 -0.5543
  618MOL0     H83378   1.041   4.391   5.748 -0.9301  1.0386 -1.5351
  618MOL0     H83379   1.318   4.331   5.876  0.8762 -0.4435 -1.8610
  618MOL0     H83380   1.180   4.348   5.965  0.8811 -2.5776  0.6721
  618MOL0     H83381   0.954   4.190   5.834 -0.4936 -0.7782 -1.8871
  618MOL0     H83382   0.859   3.948   5.883 -1.7272 -2.1405  1.9408
  618MOL0     H83383   0.966   3.827   5.789  3.9101  2.3577 -2.0790
  618MOL0     H83384   1.084   3.798   6.025 -0.0883 -1.4727 -0.9648
  618MOL0     H83385   0.943   3.873   6.087 -2.7050 -0.8911  0.0645
  618MOL0     H83386   0.908   3.630   5.900  0.5343  1.5670 -1.6740
  618MOL0     H83387   0.793   3.686   6.027 -0.1916 -0.2325  0.0739
  618MOL0     H83388   1.053   3.543   6.070 -0.2824  0.2462 -0.8455
  618MOL0     H83389   0.907   3.494   6.129 -1.1185  0.4010 -0.1370
  618MOL0     H83390   0.735   3.546   6.274 -0.3873  1.0591 -1.1091
  618MOL0     H83391   0.581   3.606   6.458 -1.3903  1.3959 -0.8918
  618MOL0     H83392   0.371   4.034   6.640 -2.0771  1.1341  0.8447
  618MOL0     H83393   0.218   4.080   6.814  0.8144 -0.2932 -0.2023
  618MOL0     H83394   0.190   4.247   6.995 -2.3576 -1.4912 -2.3327
  618MOL0     H83395   0.113   4.078   7.013 -0.2834 -0.1695  0.1715
  618MOL0     H83396   0.098   4.123   7.263  1.9961 -0.9971 -0.6590
  618MOL0     H83397   0.168   4.273   7.239 -0.5826  0.8408  1.1346
  618MOL0     H83398  -0.067   4.332   7.241 -2.3744 -0.0080 -2.1119
  618MOL0     H83399  -0.054   4.318   7.069 -0.7793  3.6312  1.0341
  618MOL0     H83400  -0.233   4.171   7.216  0.5389 -2.4460  2.6521
  618MOL0     H83401  -0.108   4.074   7.251 -2.9602  3.5099  3.3850
  618MOL0     H83402  -0.091   4.024   6.999 -1.9014 -3.4148  0.8439
  618MOL0     H83403  -0.202   4.151   6.959  2.6576  1.0447  1.0105
  618MOL0     H83404  -0.293   3.903   6.984 -2.9399 -3.2470  2.1153
  618MOL0     H83405  -0.279   3.922   7.161 -0.6373  0.1392  1.3747
  618MOL0     H83406  -0.447   4.061   6.961  2.4815  3.5233  0.2808
  618MOL0     H83407  -0.433   4.129   7.126  1.4052 -1.0900  1.3189
  618MOL0     H83408  -0.511   3.842   7.055  0.9411 -0.1938  0.3765
  618MOL0     H83409  -0.514   3.915   7.220 -4.2172 -0.4051  1.1680
  618MOL0     H83410   0.522   3.981   7.108 -1.2265  2.1537  0.6564
  618MOL0     H83411   0.667   3.910   6.923  0.3849 -2.6890 -3.4696
  618MOL0     H83412   0.855   3.901   6.592  1.9378  0.1326 -0.0188
  618MOL0     H83413   1.024   3.840   6.399 -0.8173  1.5850  1.9395
  618MOL0     H83414   1.235   5.434   5.582  2.1418  1.8730  0.7590
  618MOL0     H83415   1.239   5.631   5.482 -0.9721 -1.2822  1.4502
  618MOL0     H83416   1.072   5.758   5.007  2.1502  1.7162 -2.8308
  618MOL0     H83417   0.939   5.922   4.876  2.3949  0.3964 -1.7023
  618MOL0     H83418   0.988   6.370   5.008  1.0507 -0.9792  0.3327
  618MOL0     H83419   0.840   6.282   5.044  0.0904  1.2218 -0.0237
  618MOL0     H83420   0.768   6.456   4.905 -2.4987 -2.1079  0.6322
  618MOL0     H83421   0.767   6.315   4.795  0.6783 -1.3681  0.3537
  618MOL0     H83422   0.986   6.362   4.713 -1.7130  0.3850 -3.8711
  618MOL0     H83423   0.980   6.518   4.815 -1.9957  2.6860 -1.3131
  618MOL0     H83424   0.765   6.572   4.681  0.3883 -0.1181 -0.3250
  618MOL0     H83425   0.919   6.617   4.624  0.0732 -0.6975 -1.2377
  618MOL0     H83426   0.809   6.296   4.365  2.7306  1.5698 -0.6996
  618MOL0     H83427   1.116   6.241   5.102  0.9360  0.3260 -1.0312
  618MOL0     H83428   1.234   6.201   5.325  1.2060 -0.6389  2.4222
  618MOL0     H83429   1.249   6.034   5.382 -3.2879 -0.3276 -0.8772
  618MOL0     H83430   1.367   6.101   5.266 -0.3817 -1.5959  0.1576
  619MOL0     O83431  10.820   7.978  11.470  0.5469 -0.4697  0.2282
  619MOL0     C83432  10.841   8.078  11.395  0.6885  0.3156 -0.4917
  619MOL0     O83433  10.889   8.193  11.453 -0.8331 -0.0472 -0.7213
  619MOL0     C83434  10.912   8.220  11.587 -0.6103 -0.2590  0.0423
  619MOL0     C83435  10.996   8.339  11.609  0.1453 -0.0357 -0.5254
  619MOL0     C83436  11.019   8.376  11.744 -0.1865 -1.0062  0.6270
  619MOL0     C83437  10.969   8.305  11.853  0.3451  0.4100  0.7122
  619MOL0     O83438  11.006   8.359  11.975  1.1768  0.3285 -0.0543
  619MOL0     C83439  10.926   8.311  12.091 -0.0236 -0.5689  0.1933
  619MOL0     C83440  10.930   8.394  12.210  0.9525 -0.9272 -0.2355
  619MOL0     C83441  11.065   8.379  12.277 -0.1390 -0.0127  0.9627
  619MOL0     C83442  11.074   8.461  12.410  0.3313  0.2229  0.4244
  619MOL0     C83443  11.209   8.423  12.469 -0.3852 -0.2458 -1.0184
  619MOL0     C83444  11.225   8.487  12.609 -1.0618 -0.3911 -1.9659
  619MOL0     C83445  11.265   8.629  12.607  0.6777 -0.2785 -0.7454
  619MOL0     C83446  11.283   8.682  12.755 -0.3533 -0.0521  0.3950
  619MOL0     N83447  11.220   8.821  12.766 -0.2085  0.5694  0.4592
  619MOL0     C83448  11.253   8.930  12.686 -0.2515 -0.8789 -0.4598
  619MOL0     C83449  11.193   9.030  12.764  0.3252  0.4566 -1.3355
  619MOL0     C83450  11.226   9.174  12.738  0.0978 -0.7335  0.1130
  619MOL0     C83451  11.315   9.232  12.851  0.0550 -0.4518 -0.3595
  619MOL0     C83452  11.342   9.394  12.826  0.6775  0.5141  0.1747
  619MOL0     C83453  11.443   9.443  12.922  0.0644 -0.6142 -0.1092
  619MOL0     O83454  11.386   9.472  13.046 -0.0785 -0.0109 -0.6305
  619MOL0     C83455  11.437   9.568  13.127 -0.5035 -0.4664 -0.2258
  619MOL0     C83456  11.529   9.670  13.092 -0.3386 -0.1154  0.2018
  619MOL0     C83457  11.562   9.772  13.189  0.1715 -0.4563 -0.2745
  619MOL0     C83458  11.500   9.774  13.317  0.4625 -0.4687 -0.7636
  619MOL0     C83459  11.524   9.896  13.400  0.0759 -0.1268  0.1521
  619MOL0     O83460  11.458   9.889  13.523 -0.5307 -0.1019 -0.3628
  619MOL0     C83461  11.456   9.996  13.612 -0.1934  0.3381  0.0814
  619MOL0     C83462  11.334  10.045  13.666 -0.4591  0.4243  0.4911
  619MOL0     C83463  11.324  10.159  13.741 -0.2026  0.3774 -0.5545
  619MOL0     C83464  11.440  10.228  13.785 -0.2454 -0.1136  0.4137
  619MOL0     O83465  11.416  10.328  13.878  0.6440 -0.5248 -0.0591
  619MOL0     C83466  11.529  10.416  13.902  0.0825 -0.2739  0.2581
  619MOL0     C83467  11.499  10.516  14.019 -0.7207 -0.2431 -0.1333
  619MOL0     C83468  11.479  10.440  14.146  0.0988  0.5256 -0.7374
  619MOL0     C83469  11.441  10.544  14.249  0.1014 -0.5012  0.3110
  619MOL0     C83470  11.438  10.485  14.395 -0.0547  0.2477  1.1227
  619MOL0     C83471  11.377  10.587  14.489  0.3791 -0.3716  0.1185
  619MOL0     C83472  11.255  10.539  14.564 -0.3375  0.0153  0.1775
  619MOL0     C83473  11.294  10.415  14.644 -0.7657 -0.1403  0.1649
  619MOL0    Cl83474  11.148  10.377  14.740  0.1470 -0.0059 -0.2258
  619MOL0     C83475  11.564  10.180  13.738  0.0831  1.0354 -0.2117
  619MOL0     C83476  11.573  10.068  13.648 -0.4361  0.3634 -0.2381
  619MOL0     O83477  11.610   9.973  13.368  0.0746  0.0000  0.8920
  619MOL0     C83478  11.398   9.683  13.343 -0.1426  0.3897  0.4567
  619MOL0     C83479  11.373   9.580  13.249 -0.0553  0.8768 -0.7854
  619MOL0     N83480  11.112   8.981  12.862 -0.0031  0.1519 -0.0302
  619MOL0     N83481  11.129   8.849  12.862  0.1682  0.4794  0.2697
  619MOL0     C83482  10.877   8.199  11.828  0.3361  0.1260 -0.5469
  619MOL0     C83483  10.855   8.159  11.697  0.1110  0.5980 -0.0287
  619MOL0     C83484  10.801   8.063  11.252 -0.2929 -1.5827 -0.8147
  619MOL0     C83485  10.689   7.980  11.215 -0.4870  0.5841 -0.8596
  619MOL0     C83486  10.666   7.950  11.082 -0.6254  0.0613  0.3252
  619MOL0     C83487  10.728   8.027  10.981 -0.4546  0.7612  0.5470
  619MOL0     O83488  10.699   8.040  10.850 -0.7954 -0.1402 -0.1830
  619MOL0     C83489  10.593   7.963  10.787  0.3081 -0.7729 -0.1495
  619MOL0     C83490  10.598   8.013  10.646  0.1251  0.2018 -0.4098
  619MOL0     C83491  10.735   7.981  10.578  0.0568 -1.0996 -0.8890
  619MOL0     C83492  10.725   7.994  10.432 -0.3068  1.2302  0.0640
  619MOL0     C83493  10.862   7.986  10.378  0.7342  0.7673 -1.5705
  619MOL0     C83494  10.969   7.984  10.326 -1.0807 -0.1858 -0.3295
  619MOL0     C83495  10.811   8.133  11.020  0.5497  0.5745 -1.3366
  619MOL0     C83496  10.849   8.155  11.153 -1.1312 -0.8087 -0.1101
  619MOL0     C83497  10.942   8.269  11.181 -0.3461  1.1733 -1.1339
  619MOL0     H83498  11.035   8.394  11.524 -3.3410  1.6138 -1.2775
  619MOL0     H83499  11.078   8.466  11.759 -2.2131  0.5212 -0.1161
  619MOL0     H83500  10.821   8.298  12.062  0.5118 -0.0390 -2.1912
  619MOL0     H83501  10.962   8.213  12.122  0.9104 -0.9843 -2.0102
  619MOL0     H83502  10.852   8.366  12.282 -0.4928  1.1197 -0.8897
  619MOL0     H83503  10.909   8.494  12.170 -0.1376 -1.6568 -1.5653
  619MOL0     H83504  11.135   8.426  12.207  1.0231  0.4333  2.3816
  619MOL0     H83505  11.096   8.275  12.284  1.6892  0.1842 -2.4211
  619MOL0     H83506  11.074   8.570  12.398 -1.8552  0.1890 -0.4428
  619MOL0     H83507  11.010   8.428  12.492  0.0322 -0.4443 -0.0690
  619MOL0     H83508  11.209   8.315  12.485  2.6639 -0.9499 -4.3841
  619MOL0     H83509  11.289   8.444  12.396 -1.2953 -0.0668 -1.9912
  619MOL0     H83510  11.135   8.469  12.668  0.3883 -1.1423  0.1516
  619MOL0     H83511  11.300   8.427  12.662 -1.4813 -1.5289 -2.6481
  619MOL0     H83512  11.187   8.682  12.550  1.7849  0.3290 -1.7400
  619MOL0     H83513  11.364   8.639  12.562  1.2293 -0.4466  0.4014
  619MOL0     H83514  11.255   8.611  12.832  0.8817 -2.4891 -1.2637
  619MOL0     H83515  11.391   8.692  12.773 -0.4971  0.5614  0.9545
  619MOL0     H83516  11.318   8.935  12.599 -0.1428  0.5550 -0.3155
  619MOL0     H83517  11.291   9.179  12.650 -0.4142 -0.1290 -0.2406
  619MOL0     H83518  11.150   9.248  12.712  0.6035 -0.9126 -2.0461
  619MOL0     H83519  11.270   9.217  12.950  0.3547 -2.0495 -0.4477
  619MOL0     H83520  11.408   9.175  12.844 -0.5738 -2.4351  4.0523
  619MOL0     H83521  11.248   9.449  12.837  0.4398  0.1372  0.0581
  619MOL0     H83522  11.389   9.415  12.730  2.5362  4.6798  1.7706
  619MOL0     H83523  11.493   9.517  12.859  0.1957 -3.1134 -3.1999
  619MOL0     H83524  11.519   9.366  12.935  1.7907  0.9116 -0.7359
  619MOL0     H83525  11.587   9.673  13.001 -0.0124 -1.3050  0.3583
  619MOL0     H83526  11.635   9.849  13.164 -0.5255  0.6649  1.0368
  619MOL0     H83527  11.245   9.984  13.659 -1.0763  1.0822  2.0286
  619MOL0     H83528  11.225  10.191  13.773  0.0935 -0.6890  1.6750
  619MOL0     H83529  11.621  10.368  13.937  0.7807  2.5704  2.7589
  619MOL0     H83530  11.551  10.476  13.813  0.4635  0.3455  0.7660
  619MOL0     H83531  11.589  10.578  14.024  1.0915 -2.6354 -1.0195
  619MOL0     H83532  11.415  10.576  13.984 -0.3496  0.6504  0.4820
  619MOL0     H83533  11.409  10.357  14.143  2.4313 -1.6036 -0.0402
  619MOL0     H83534  11.571  10.391  14.180 -2.3949 -4.9199 -0.9115
  619MOL0     H83535  11.338  10.574  14.226  0.9135  0.4070 -2.6530
  619MOL0     H83536  11.498  10.636  14.228  1.7079 -2.1798 -3.7686
  619MOL0     H83537  11.541  10.456  14.418 -0.3382 -0.3104  1.6785
  619MOL0     H83538  11.371  10.400  14.386 -0.5639  0.7543 -0.1403
  619MOL0     H83539  11.451  10.628  14.558  0.6593  0.1439 -0.4740
  619MOL0     H83540  11.348  10.673  14.428  1.9881  0.8566  0.9937
  619MOL0     H83541  11.188  10.498  14.488  0.0811  0.0219 -0.2006
  619MOL0     H83542  11.207  10.616  14.625 -2.4892  0.9309 -2.4673
  619MOL0     H83543  11.317  10.324  14.588 -4.2363 -0.9214 -0.2620
  619MOL0     H83544  11.366  10.431  14.725 -1.2501  0.0665  0.5602
  619MOL0     H83545  11.664  10.221  13.751 -0.1661  1.4537  0.4051
  619MOL0     H83546  11.665  10.033  13.603 -0.3960 -0.5458  0.5150
  619MOL0     H83547  11.334   9.684  13.431 -2.3495 -2.8107 -0.9018
  619MOL0     H83548  11.289   9.513  13.258  0.8172 -0.2334 -0.6445
  619MOL0     H83549  10.841   8.147  11.916  2.0076  3.0348  2.0453
  619MOL0     H83550  10.778   8.084  11.688  0.9878 -0.3274  0.0006
  619MOL0     H83551  10.627   7.929  11.287 -1.6304  3.1192  0.0800
  619MOL0     H83552  10.595   7.875  11.049 -0.1667  0.0134 -0.6088
  619MOL0     H83553  10.496   7.982  10.835  0.0032 -0.0617 -1.0312
  619MOL0     H83554  10.615   7.856  10.797 -1.9055 -1.2262  0.4332
  619MOL0     H83555  10.582   8.122  10.647 -2.3609 -0.0922 -0.9434
  619MOL0     H83556  10.517   7.971  10.586  0.2000  0.1996 -0.5116
  619MOL0     H83557  10.759   7.876  10.595 -0.6525 -1.3832 -1.5470
  619MOL0     H83558  10.810   8.045  10.625 -1.3652  0.8366 -1.1305
  619MOL0     H83559  10.675   7.914  10.376  2.9405 -1.2763  0.4645
  619MOL0     H83560  10.689   8.095  10.410 -0.5701  0.5057 -3.4351
  619MOL0     H83561  11.067   7.978  10.284 -0.8792  0.4441  0.0439
  619MOL0     H83562  10.843   8.204  10.945 -1.5311  2.0241 -0.9277
  619MOL0     H83563  11.016   8.249  11.259 -1.3796 -1.7390 -0.7437
  619MOL0     H83564  10.995   8.286  11.087  3.3070 -0.3929  0.4345
  619MOL0     H83565  10.897   8.363  11.215  1.4203  0.8460  2.7007
  620MOL0     O83566   5.428   0.794   2.777 -0.1146  1.1856  0.7753
  620MOL0     C83567   5.373   0.827   2.881 -0.8779  0.2475 -0.3532
  620MOL0     O83568   5.427   0.907   2.981  0.1071  0.1223  0.1354
  620MOL0     C83569   5.557   0.895   2.991 -0.8342  0.7891  0.1949
  620MOL0     C83570   5.601   0.835   3.110  0.7500  0.3769  0.7790
  620MOL0     C83571   5.733   0.820   3.142 -0.2081 -0.1477 -0.1376
  620MOL0     C83572   5.831   0.886   3.064  0.2333  0.3068 -0.2568
  620MOL0     O83573   5.960   0.884   3.099  0.1749  0.0051 -0.1062
  620MOL0     C83574   6.046   0.812   3.011 -0.7180 -0.3596 -0.8490
  620MOL0     C83575   6.132   0.906   2.932 -0.4830 -0.2278 -0.1297
  620MOL0     C83576   6.224   0.993   3.027  0.5357  1.4880  0.1190
  620MOL0     C83577   6.331   1.042   2.929 -0.3272 -0.4378 -0.3710
  620MOL0     C83578   6.439   1.130   2.999  0.2099  0.3540 -0.2382
  620MOL0     C83579   6.534   1.040   3.087 -0.3744  0.2295 -0.1168
  620MOL0     C83580   6.651   1.130   3.143 -1.1113 -0.7592  0.5447
  620MOL0     C83581   6.731   1.050   3.251  0.4076  0.4156 -0.3933
  620MOL0     N83582   6.832   1.137   3.299 -0.5360 -1.1597 -0.4771
  620MOL0     C83583   6.967   1.134   3.287 -0.4127  0.5231 -0.1874
  620MOL0     C83584   7.022   1.246   3.344 -0.7664  0.1326  0.1194
  620MOL0     C83585   7.161   1.288   3.378  0.8698 -0.0265  0.0383
  620MOL0     C83586   7.175   1.352   3.515 -0.2741  0.6706 -0.2544
  620MOL0     C83587   7.111   1.272   3.641  0.1135  0.9993  0.3214
  620MOL0     C83588   7.171   1.130   3.661  0.4750  1.3788  0.6368
  620MOL0     O83589   7.141   1.027   3.562  0.3491  0.9017 -0.1084
  620MOL0     C83590   7.228   0.924   3.571  0.8054 -0.3183  0.0766
  620MOL0     C83591   7.290   0.894   3.447  0.2759  0.0715 -0.8130
  620MOL0     C83592   7.386   0.787   3.448  0.6246  0.0601  0.6356
  620MOL0     C83593   7.427   0.715   3.564  0.5194  0.1081  0.2307
  620MOL0     C83594   7.528   0.604   3.555 -0.7666  0.9582 -1.5005
  620MOL0     O83595   7.601   0.590   3.439  0.0709  0.4210  0.1621
  620MOL0     C83596   7.711   0.506   3.437  0.2305  0.6901 -0.2678
  620MOL0     C83597   7.827   0.569   3.469 -0.6709  0.0207  0.3327
  620MOL0     C83598   7.949   0.503   3.464 -0.6560 -0.2389 -0.5477
  620MOL0     C83599   7.956   0.371   3.416 -0.0752  0.3847 -1.2823
  620MOL0     O83600   8.078   0.310   3.408 -0.6376  0.3607 -0.4268
  620MOL0     C83601   8.125   0.231   3.301 -0.9264  0.0756 -0.2836
  620MOL0     C83602   8.164   0.322   3.179  0.4905 -0.4585  0.3872
  620MOL0     C83603   8.306   0.392   3.222  0.5660  0.2632  0.2092
  620MOL0     C83604   8.293   0.540   3.221 -0.1076  0.1002 -0.4321
  620MOL0     C83605   8.427   0.604   3.273 -0.5838 -0.2151  0.5038
  620MOL0     C83606   8.435   0.600   3.422 -0.7751  0.0146 -0.6250
  620MOL0     C83607   8.571   0.656   3.482  1.2122  0.0628  0.8393
  620MOL0     C83608   8.688   0.581   3.420  0.4808  1.0586  0.2525
  620MOL0    Cl83609   8.754   0.655   3.274 -0.1578  0.3834 -0.4327
  620MOL0     C83610   7.833   0.308   3.375 -0.9658 -0.8065  0.2136
  620MOL0     C83611   7.712   0.368   3.395  0.4408  0.0418  0.4930
  620MOL0     O83612   7.549   0.539   3.663 -0.1341  0.2712 -0.1086
  620MOL0     C83613   7.365   0.752   3.686 -0.6925 -0.3072  0.8494
  620MOL0     C83614   7.272   0.852   3.685  0.2564 -0.5110 -0.1583
  620MOL0     N83615   6.915   1.321   3.387  0.8092 -0.1222  0.2038
  620MOL0     N83616   6.802   1.260   3.352 -1.1330  1.0432 -0.0331
  620MOL0     C83617   5.795   0.948   2.950  1.3514  0.3235 -0.2241
  620MOL0     C83618   5.654   0.968   2.917  0.4531  0.3449  0.6049
  620MOL0     C83619   5.238   0.780   2.907  0.6018 -0.0458 -0.2926
  620MOL0     C83620   5.199   0.782   3.041 -0.4211 -1.1490 -0.7635
  620MOL0     C83621   5.080   0.749   3.096 -0.5900 -0.3431 -0.1789
  620MOL0     C83622   4.986   0.700   3.015  0.2395 -0.8715 -0.8300
  620MOL0     O83623   4.864   0.688   3.075 -0.1958  0.2298 -0.1322
  620MOL0     C83624   4.750   0.656   2.993 -0.8042  0.3712  0.2958
  620MOL0     C83625   4.748   0.507   2.968  0.0219  0.3447  0.2180
  620MOL0     C83626   4.620   0.454   2.901 -0.3392 -0.1916  0.9666
  620MOL0     C83627   4.500   0.448   2.988 -0.7147 -0.1629  0.1043
  620MOL0     C83628   4.401   0.371   2.910  0.7095 -0.4139 -0.0035
  620MOL0     C83629   4.322   0.327   2.823  0.6157  0.0532 -0.2735
  620MOL0     C83630   5.018   0.689   2.875  0.2886 -0.8676  0.3298
  620MOL0     C83631   5.143   0.720   2.820 -0.1525  0.3357 -0.4048
  620MOL0     C83632   5.160   0.688   2.678  0.5367  0.3522 -0.1167
  620MOL0     H83633   5.527   0.794   3.178  0.4578  1.9761  1.4755
  620MOL0     H83634   5.776   0.779   3.233  0.9388 -1.0933 -1.0510
  620MOL0     H83635   6.116   0.747   3.064 -1.2363  1.2547  2.0123
  620MOL0     H83636   5.984   0.757   2.939 -0.2049 -2.1288  0.0099
  620MOL0     H83637   6.064   0.970   2.874 -0.9489 -2.6661 -2.4652
  620MOL0     H83638   6.190   0.860   2.852  1.7055  6.7787 -3.3478
  620MOL0     H83639   6.257   0.931   3.111 -1.9329  0.1875  0.2010
  620MOL0     H83640   6.180   1.086   3.065 -1.5128  1.4743 -1.9826
  620MOL0     H83641   6.387   0.959   2.886 -0.3523  0.7827 -2.9645
  620MOL0     H83642   6.292   1.099   2.844 -1.6777  0.8703  1.0620
  620MOL0     H83643   6.510   1.179   2.932  1.2572 -1.2901 -0.3843
  620MOL0     H83644   6.386   1.199   3.065 -0.0223  1.0535 -1.1376
  620MOL0     H83645   6.470   0.997   3.164 -1.3222  0.4025 -0.7865
  620MOL0     H83646   6.580   0.964   3.024 -1.6027 -0.1751 -0.5362
  620MOL0     H83647   6.597   1.206   3.200 -1.6063 -1.7565  1.4452
  620MOL0     H83648   6.723   1.176   3.075 -1.4295  0.3131  0.9085
  620MOL0     H83649   6.665   1.025   3.335 -0.9753 -2.8105 -2.2876
  620MOL0     H83650   6.775   0.959   3.210  0.4799  0.2482  0.0444
  620MOL0     H83651   7.018   1.040   3.266 -2.2995 -0.8336  1.0414
  620MOL0     H83652   7.225   1.199   3.384 -0.6249 -1.2334 -1.1495
  620MOL0     H83653   7.197   1.356   3.300 -0.9519  0.9723  0.0226
  620MOL0     H83654   7.276   1.390   3.532 -0.3239  0.1152  1.4718
  620MOL0     H83655   7.116   1.443   3.502  0.6364  1.0044 -2.4067
  620MOL0     H83656   7.004   1.265   3.620  0.2190  0.3179 -0.0195
  620MOL0     H83657   7.126   1.345   3.722  3.0230  1.9087 -0.9012
  620MOL0     H83658   7.145   1.091   3.759  1.4884  0.4048  0.5461
  620MOL0     H83659   7.278   1.149   3.649  0.4222  0.7283 -1.3424
  620MOL0     H83660   7.269   0.952   3.358  2.8693 -0.8391 -2.1244
  620MOL0     H83661   7.422   0.758   3.351  1.1556 -2.4107  1.4968
  620MOL0     H83662   7.836   0.671   3.506  2.2498  0.4483 -1.3293
  620MOL0     H83663   8.043   0.550   3.492 -0.4085 -1.2710  0.4448
  620MOL0     H83664   8.214   0.174   3.327 -0.0578  0.3599 -2.4739
  620MOL0     H83665   8.052   0.155   3.270  0.0851 -2.0182  2.1591
  620MOL0     H83666   8.186   0.261   3.091 -1.9631  1.3073 -1.5726
  620MOL0     H83667   8.081   0.389   3.155 -0.7192 -1.1659  2.3744
  620MOL0     H83668   8.340   0.356   3.319 -1.7804  0.3228  1.1072
  620MOL0     H83669   8.378   0.348   3.152 -0.4339 -0.0392 -0.6569
  620MOL0     H83670   8.208   0.570   3.283 -1.1120 -1.4494 -1.0047
  620MOL0     H83671   8.265   0.582   3.124 -4.7146 -3.8214 -1.2107
  620MOL0     H83672   8.429   0.703   3.227  1.2315 -2.1293 -4.1188
  620MOL0     H83673   8.507   0.548   3.224 -1.0891 -1.0015  0.5391
  620MOL0     H83674   8.349   0.642   3.475  0.5872 -1.1292  2.7874
  620MOL0     H83675   8.445   0.494   3.448 -1.5461 -0.1957 -1.1481
  620MOL0     H83676   8.577   0.625   3.587  0.3293 -3.4194 -0.0151
  620MOL0     H83677   8.570   0.764   3.466  0.2165  0.1249  1.3094
  620MOL0     H83678   8.770   0.575   3.492  0.1927 -0.8114  0.4716
  620MOL0     H83679   8.656   0.478   3.404 -2.9387  1.9231  0.6960
  620MOL0     H83680   7.827   0.202   3.350 -1.2497 -0.8930  0.6336
  620MOL0     H83681   7.621   0.319   3.361 -1.9239  0.9692  4.8167
  620MOL0     H83682   7.381   0.703   3.781  1.3054  2.1131  1.8827
  620MOL0     H83683   7.227   0.868   3.783  0.9694 -1.1429  0.2831
  620MOL0     H83684   5.869   1.003   2.893  1.0273 -0.0135 -0.9860
  620MOL0     H83685   5.617   1.028   2.834  1.2487 -0.0838 -0.0720
  620MOL0     H83686   5.271   0.821   3.113  0.9333 -1.4866 -1.8906
  620MOL0     H83687   5.075   0.754   3.204 -1.5888 -2.3074 -0.0870
  620MOL0     H83688   4.755   0.711   2.899  3.6931  1.5932  1.0124
  620MOL0     H83689   4.661   0.691   3.046 -1.3508 -0.9810  0.3017
  620MOL0     H83690   4.761   0.460   3.066 -1.1399 -1.7630 -0.5773
  620MOL0     H83691   4.839   0.481   2.913 -2.1273 -0.4149 -3.3172
  620MOL0     H83692   4.635   0.350   2.869 -1.3958  0.4796 -2.0060
  620MOL0     H83693   4.600   0.517   2.814  1.2486  1.1805  1.5428
  620MOL0     H83694   4.526   0.387   3.075 -1.6832 -1.6245 -0.5859
  620MOL0     H83695   4.476   0.552   3.013  0.2441  0.7163 -2.2903
  620MOL0     H83696   4.247   0.299   2.752 -2.8193  1.1634  2.6339
  620MOL0     H83697   4.944   0.645   2.808 -2.0092 -0.1546  2.2762
  620MOL0     H83698   5.076   0.633   2.634  0.6013  1.4548 -1.7087
  620MOL0     H83699   5.159   0.777   2.615  1.2924 -0.6079 -1.5226
  620MOL0     H83700   5.251   0.629   2.667 -1.2331 -2.6856  0.2910
  621MOL0     O83701  10.666   5.169  11.348  0.5909  0.5566  0.0526
  621MOL0     C83702  10.731   5.169  11.457  0.2480  1.2659 -0.4181
  621MOL0     O83703  10.748   5.267  11.538 -0.3232 -0.7251 -0.1098
  621MOL0     C83704  10.683   5.388  11.519 -0.3165  0.1619  0.2946
  621MOL0     C83705  10.749   5.503  11.468  0.4849  1.0686 -0.1744
  621MOL0     C83706  10.671   5.617  11.449  0.9615 -0.1559  0.6993
  621MOL0     C83707  10.529   5.615  11.469  0.2258 -0.9418  0.0788
  621MOL0     O83708  10.453   5.723  11.425 -0.5149 -0.0290 -0.6062
  621MOL0     C83709  10.473   5.849  11.492  0.1656  0.1629 -0.6742
  621MOL0     C83710  10.354   5.934  11.462 -0.6019 -0.1869  0.3156
  621MOL0     C83711  10.367   6.025  11.336 -0.6901 -0.5063 -0.6910
  621MOL0     C83712  10.267   6.138  11.346 -0.3637  0.2582  0.2421
  621MOL0     C83713  10.299   6.252  11.255  0.5009 -0.1957  0.4779
  621MOL0     C83714  10.247   6.227  11.113 -0.0952 -0.2216  0.1814
  621MOL0     C83715  10.285   6.340  11.020  0.9220 -0.3571  0.0242
  621MOL0     C83716  10.190   6.465  11.033 -0.4658  0.3095 -0.1162
  621MOL0     N83717  10.214   6.572  10.926 -0.5273 -0.0621 -1.3485
  621MOL0     C83718  10.333   6.646  10.921 -0.2647  0.9124 -0.6474
  621MOL0     C83719  10.344   6.693  10.802 -0.1067  0.2407  0.7976
  621MOL0     C83720  10.454   6.774  10.748 -0.4421  0.0581 -0.0865
  621MOL0     C83721  10.549   6.684  10.666 -0.8861  0.0905 -0.5578
  621MOL0     C83722  10.601   6.552  10.731  0.2810  0.9120 -0.0014
  621MOL0     C83723  10.718   6.574  10.826 -0.9271 -0.3031  0.8740
  621MOL0     O83724  10.816   6.659  10.762  0.2500  0.3972 -0.3619
  621MOL0     C83725  10.902   6.607  10.665 -0.2670 -0.3644  0.6263
  621MOL0     C83726  10.915   6.477  10.624 -0.9559  0.8554 -0.2880
  621MOL0     C83727  11.010   6.437  10.537 -0.5620  0.7132 -0.3325
  621MOL0     C83728  11.101   6.522  10.476 -0.0098 -0.1779  0.9386
  621MOL0     C83729  11.205   6.486  10.372 -0.3832 -0.0048  0.1867
  621MOL0     O83730  11.192   6.360  10.310  1.1518 -0.5790 -0.1535
  621MOL0     C83731  11.296   6.296  10.250  0.6585  0.1841 -0.2663
  621MOL0     C83732  11.436   6.335  10.239 -0.4105  0.0733 -0.5790
  621MOL0     C83733  11.526   6.258  10.164 -0.2577 -0.8211  1.0812
  621MOL0     C83734  11.495   6.134  10.097 -0.1013 -0.8609 -0.5973
  621MOL0     O83735  11.588   6.077  10.015  1.2727 -0.1039  0.4231
  621MOL0     C83736  11.603   5.932  10.016  0.2978  0.1261  0.4204
  621MOL0     C83737  11.729   5.878   9.937 -0.7568 -0.2725 -0.6454
  621MOL0     C83738  11.744   5.725   9.942 -0.0223  0.3405  1.1129
  621MOL0     C83739  11.842   5.672   9.830  0.0144  0.5061 -0.7222
  621MOL0     C83740  11.874   5.522   9.844  0.6161  0.3906  0.3151
  621MOL0     C83741  11.961   5.475   9.731 -0.1080  0.7156  0.2535
  621MOL0     C83742  12.099   5.520   9.745 -0.5695 -0.1349  0.3640
  621MOL0     C83743  12.193   5.434   9.654  1.0237  0.0713  0.6978
  621MOL0    Cl83744  12.358   5.509   9.629  0.4220  0.1044  0.2958
  621MOL0     C83745  11.357   6.109  10.108 -0.6910  0.3425  0.1739
  621MOL0     C83746  11.265   6.179  10.186  0.3088  0.8776 -0.1610
  621MOL0     O83747  11.292   6.571  10.338  0.0888 -0.0372 -0.5423
  621MOL0     C83748  11.080   6.654  10.508 -0.0709 -0.3182 -0.2585
  621MOL0     C83749  10.982   6.699  10.598  0.3345 -0.0686  0.6376
  621MOL0     N83750  10.243   6.645  10.721  0.9393  0.5864 -0.2123
  621MOL0     N83751  10.158   6.576  10.802  0.0918  0.7052 -0.1709
  621MOL0     C83752  10.465   5.507  11.515  0.1039  0.4685  0.0022
  621MOL0     C83753  10.546   5.391  11.542 -0.0194  0.2693  0.1492
  621MOL0     C83754  10.814   5.052  11.494 -0.4979 -1.0391 -0.6032
  621MOL0     C83755  10.931   5.086  11.565  0.1034  0.6219  1.2210
  621MOL0     C83756  11.017   4.972  11.605  0.0197 -0.6542  0.6331
  621MOL0     C83757  10.990   4.841  11.572 -0.5607  0.0379  0.2216
  621MOL0     O83758  11.091   4.759  11.615  0.7919  0.0374 -0.1300
  621MOL0     C83759  11.094   4.614  11.588 -0.1630  0.0795 -0.1700
  621MOL0     C83760  11.153   4.533  11.710 -0.2587 -0.1522 -0.0061
  621MOL0     C83761  11.298   4.572  11.738  0.0777 -0.2542  0.0666
  621MOL0     C83762  11.363   4.464  11.816 -0.1600 -0.7304 -0.0878
  621MOL0     C83763  11.376   4.331  11.757 -1.1427  0.6433  0.4846
  621MOL0     C83764  11.389   4.222  11.714 -0.2146  0.4968 -0.4566
  621MOL0     C83765  10.868   4.819  11.505  0.0704  0.4630 -0.6060
  621MOL0     C83766  10.776   4.922  11.456  0.1391  1.1959  0.0451
  621MOL0     C83767  10.656   4.872  11.376 -0.6263 -0.2679  1.4405
  621MOL0     H83768  10.857   5.495  11.468  0.4029 -2.4177  2.7758
  621MOL0     H83769  10.719   5.706  11.411  1.0883 -0.7717 -0.6478
  621MOL0     H83770  10.484   5.822  11.597 -0.3162  1.2772 -0.3212
  621MOL0     H83771  10.568   5.895  11.462  1.3743  1.3956  4.0923
  621MOL0     H83772  10.355   5.992  11.554 -1.2799 -2.1705  1.6331
  621MOL0     H83773  10.259   5.879  11.463 -0.5553 -0.4212 -2.0568
  621MOL0     H83774  10.345   5.968  11.245 -0.4471 -0.4776 -0.7670
  621MOL0     H83775  10.468   6.064  11.326 -1.5135  1.3529 -2.7328
  621MOL0     H83776  10.167   6.095  11.349  0.3703 -1.9618 -2.5117
  621MOL0     H83777  10.289   6.178  11.445  0.8936  0.2291 -0.0117
  621MOL0     H83778  10.252   6.338  11.304 -2.4322 -0.9128 -0.8906
  621MOL0     H83779  10.407   6.267  11.250  0.8054 -2.0306  0.7650
  621MOL0     H83780  10.299   6.133  11.090 -1.3659 -1.0079  0.4338
  621MOL0     H83781  10.140   6.203  11.114 -0.2363  0.3679  1.2211
  621MOL0     H83782  10.264   6.304  10.918 -0.8530 -0.7939  0.5141
  621MOL0     H83783  10.391   6.368  11.031  1.3934 -2.2817  0.8691
  621MOL0     H83784  10.088   6.432  11.015 -0.6688  0.3277  0.9566
  621MOL0     H83785  10.197   6.517  11.129 -0.4032  1.2149 -0.6005
  621MOL0     H83786  10.402   6.663  11.003  0.8327  0.8437 -1.5231
  621MOL0     H83787  10.417   6.857  10.686 -1.0708 -0.8241 -0.9250
  621MOL0     H83788  10.502   6.827  10.831 -1.5960  0.6544  0.2185
  621MOL0     H83789  10.512   6.680  10.563 -0.5925  1.5569 -0.7495
  621MOL0     H83790  10.642   6.739  10.646  0.2465 -1.0532  1.3146
  621MOL0     H83791  10.643   6.490  10.651  2.1757  0.0895  1.5441
  621MOL0     H83792  10.524   6.499  10.788  2.4210  0.4260  2.6803
  621MOL0     H83793  10.753   6.477  10.862 -0.1114 -1.1631 -1.9669
  621MOL0     H83794  10.672   6.635  10.904 -4.0991 -1.3817  0.0146
  621MOL0     H83795  10.864   6.389  10.663  0.5161 -1.1642 -2.6436
  621MOL0     H83796  11.031   6.331  10.527  3.7241  1.2666  0.7232
  621MOL0     H83797  11.470   6.419  10.299 -0.0247 -1.5745  1.6216
  621MOL0     H83798  11.628   6.296  10.165 -1.2828  2.2299  1.0561
  621MOL0     H83799  11.612   5.899  10.121 -1.9361 -1.7259  0.1027
  621MOL0     H83800  11.515   5.881   9.977 -0.1657  1.2741 -0.0590
  621MOL0     H83801  11.723   5.907   9.831 -2.9778 -2.4951 -1.2212
  621MOL0     H83802  11.818   5.919   9.986 -1.7600 -0.6251  1.5850
  621MOL0     H83803  11.779   5.688  10.039 -0.4752 -0.1829  1.0829
  621MOL0     H83804  11.647   5.681   9.917 -0.3435  1.6251 -0.0113
  621MOL0     H83805  11.931   5.734   9.817  0.2887 -0.0524 -1.6498
  621MOL0     H83806  11.787   5.698   9.739 -0.0139 -0.1555 -0.9001
  621MOL0     H83807  11.780   5.467   9.851  0.1062  1.4277  2.5056
  621MOL0     H83808  11.929   5.507   9.938  2.4470 -1.6871 -0.9662
  621MOL0     H83809  11.966   5.365   9.724  3.7111  0.5224  3.0416
  621MOL0     H83810  11.930   5.513   9.633  1.9412 -2.4849 -1.8455
  621MOL0     H83811  12.126   5.487   9.846 -0.8977 -4.5640 -0.8229
  621MOL0     H83812  12.110   5.629   9.740 -0.0877 -0.1860  0.2530
  621MOL0     H83813  12.205   5.336   9.700 -3.7940 -1.5049 -0.7498
  621MOL0     H83814  12.143   5.418   9.558  0.9983 -0.8530  0.8589
  621MOL0     H83815  11.331   6.025  10.045  0.8220 -1.1161  1.3988
  621MOL0     H83816  11.162   6.145  10.185  1.3055 -2.4801 -0.5648
  621MOL0     H83817  11.133   6.726  10.445 -2.2484 -1.3829 -3.5951
  621MOL0     H83818  10.972   6.805  10.617 -0.6852  0.5655 -2.8185
  621MOL0     H83819  10.360   5.522  11.538  0.3442  0.6057  1.1020
  621MOL0     H83820  10.505   5.299  11.583  2.8414 -1.7187 -1.1287
  621MOL0     H83821  10.954   5.189  11.586  0.8830  1.1824 -1.8783
  621MOL0     H83822  11.105   4.991  11.666 -0.7162  0.0384  1.5019
  621MOL0     H83823  11.151   4.604  11.495 -0.1106 -0.7213 -0.0625
  621MOL0     H83824  11.003   4.562  11.557  2.0150 -3.7957 -0.7308
  621MOL0     H83825  11.152   4.426  11.688  2.4022 -0.5346  1.4114
  621MOL0     H83826  11.093   4.546  11.801  1.8826  0.6819  1.3751
  621MOL0     H83827  11.308   4.663  11.798  1.9647 -1.1848  1.2526
  621MOL0     H83828  11.354   4.598  11.648 -0.1704  0.3322  0.0772
  621MOL0     H83829  11.468   4.480  11.841 -0.7066  1.4193  1.1240
  621MOL0     H83830  11.317   4.458  11.916 -0.9199  0.1227 -0.3780
  621MOL0     H83831  11.399   4.120  11.682  0.5821  0.3045  0.3693
  621MOL0     H83832  10.848   4.727  11.451  0.8817  2.2755 -4.3307
  621MOL0     H83833  10.678   4.900  11.272  3.9070  0.7020  2.4415
  621MOL0     H83834  10.643   4.764  11.388 -4.2370 -0.1838 -0.2245
  621MOL0     H83835  10.556   4.906  11.404 -1.4420  0.5469 -1.9574
  622MOL0     O83836   3.394   9.995   0.594 -0.8238 -0.4780  0.3432
  622MOL0     C83837   3.492   9.927   0.610 -0.5363  0.5471 -0.3636
  622MOL0     O83838   3.517   9.807   0.547  0.0565  0.0512 -0.1120
  622MOL0     C83839   3.550   9.698   0.625  0.4152 -0.0032  0.1425
  622MOL0     C83840   3.636   9.599   0.576  0.7532 -0.1831 -0.0483
  622MOL0     C83841   3.661   9.486   0.658 -0.5808 -0.9696  0.3175
  622MOL0     C83842   3.613   9.479   0.785 -0.3526 -0.0447 -0.5357
  622MOL0     O83843   3.630   9.380   0.865  0.3077 -0.4456 -0.7779
  622MOL0     C83844   3.610   9.257   0.799 -0.6722  0.7241 -0.0369
  622MOL0     C83845   3.656   9.144   0.887  0.1529  0.5321 -0.7385
  622MOL0     C83846   3.570   9.106   1.006  0.2537 -0.0773  0.4302
  622MOL0     C83847   3.618   9.173   1.140  0.0835 -0.6445 -0.1803
  622MOL0     C83848   3.519   9.165   1.251  0.0635 -0.3374 -0.4013
  622MOL0     C83849   3.570   9.235   1.383  1.0258  0.4745 -0.3512
  622MOL0     C83850   3.607   9.383   1.370 -0.2043 -0.4413 -0.5255
  622MOL0     C83851   3.494   9.470   1.354 -0.1457  0.3069 -0.2580
  622MOL0     N83852   3.536   9.598   1.302  0.1684 -0.3146  0.1991
  622MOL0     C83853   3.645   9.673   1.342 -0.2815  0.9368 -0.4918
  622MOL0     C83854   3.638   9.796   1.284  0.3899  0.3911 -0.3933
  622MOL0     C83855   3.755   9.897   1.278  0.2238 -0.5305  0.2230
  622MOL0     C83856   3.737  10.023   1.364 -0.6304  0.2762 -0.2784
  622MOL0     C83857   3.861  10.120   1.366  0.0664 -0.1082  1.1176
  622MOL0     C83858   3.833  10.242   1.442  0.5718  0.0709 -0.6869
  622MOL0     O83859   3.954  10.305   1.467  0.0822 -0.1147  0.1051
  622MOL0     C83860   3.957  10.438   1.513  0.4267 -0.4393 -1.7608
  622MOL0     C83861   4.081  10.485   1.541 -0.0226 -0.0899 -0.4976
  622MOL0     C83862   4.091  10.612   1.604 -0.0165  0.8744 -0.0529
  622MOL0     C83863   3.980  10.698   1.611  0.1556 -0.6799  1.1151
  622MOL0     C83864   3.993  10.845   1.640 -0.4347  0.2282 -0.8196
  622MOL0     O83865   4.119  10.898   1.617 -0.4328  0.5166  0.3574
  622MOL0     C83866   4.131  11.034   1.631 -0.2664  0.0595 -0.6157
  622MOL0     C83867   4.132  11.115   1.514 -0.1241  0.7014  0.3596
  622MOL0     C83868   4.128  11.250   1.535 -0.0067  0.0107 -0.0986
  622MOL0     C83869   4.138  11.317   1.663  0.2569 -0.3171  1.0920
  622MOL0     O83870   4.119  11.452   1.659 -0.5174  0.2583 -0.0615
  622MOL0     C83871   4.158  11.537   1.766  0.7525  0.0648 -0.0244
  622MOL0     C83872   4.308  11.549   1.756 -0.2687  0.6856  0.1259
  622MOL0     C83873   4.355  11.666   1.846 -0.4966 -0.3318 -0.1277
  622MOL0     C83874   4.304  11.659   1.988 -0.8522 -0.4724 -0.8942
  622MOL0     C83875   4.390  11.735   2.091 -0.1162 -1.0160 -0.1503
  622MOL0     C83876   4.405  11.883   2.055 -0.6789  1.3994 -0.0972
  622MOL0     C83877   4.442  11.952   2.188 -0.3717 -0.2183  0.1076
  622MOL0     C83878   4.537  12.072   2.160 -0.0051  0.1281  0.2613
  622MOL0    Cl83879   4.459  12.195   2.036  0.0914  0.2362 -0.3631
  622MOL0     C83880   4.146  11.237   1.779 -0.1040 -0.0353  0.0999
  622MOL0     C83881   4.130  11.090   1.761 -0.1072  0.2643  0.9936
  622MOL0     O83882   3.895  10.915   1.677  0.9282  0.0733 -0.8849
  622MOL0     C83883   3.858  10.647   1.574  0.5256 -0.0672  1.0910
  622MOL0     C83884   3.842  10.516   1.524 -0.8000  0.8139  0.5884
  622MOL0     N83885   3.528   9.795   1.193 -0.9821 -0.2114 -0.2442
  622MOL0     N83886   3.472   9.675   1.206  0.1044  0.1430  0.6806
  622MOL0     C83887   3.528   9.573   0.831  0.2912  0.1419 -0.3806
  622MOL0     C83888   3.503   9.685   0.755  0.1355  0.2900  0.4577
  622MOL0     C83889   3.596   9.983   0.696  0.1185  0.4222 -0.3430
  622MOL0     C83890   3.557  10.034   0.823  0.8604 -0.0732 -0.4795
  622MOL0     C83891   3.656  10.083   0.905  0.2483 -0.3651 -0.4120
  622MOL0     C83892   3.793  10.074   0.871  0.4571 -0.5897 -0.2542
  622MOL0     O83893   3.888  10.107   0.968 -0.1513  0.5468 -0.4671
  622MOL0     C83894   4.014  10.161   0.932  0.4381 -0.1536  0.6830
  622MOL0     C83895   4.124  10.173   1.044  0.5788 -0.1143 -0.3303
  622MOL0     C83896   4.124  10.302   1.128 -0.4149  0.1283  0.2853
  622MOL0     C83897   4.266  10.318   1.189 -0.7729  0.6170 -0.9096
  622MOL0     C83898   4.359  10.364   1.087 -0.5036 -0.4731 -0.6386
  622MOL0     C83899   4.435  10.397   0.996 -0.0303 -0.7919  0.4218
  622MOL0     C83900   3.826  10.039   0.741  0.4334  0.9832 -0.2075
  622MOL0     C83901   3.733   9.984   0.655  0.8488 -0.4713 -0.2483
  622MOL0     C83902   3.770   9.950   0.515 -0.6891 -1.1087  0.2831
  622MOL0     H83903   3.666   9.599   0.472 -2.1083  2.0060 -1.0134
  622MOL0     H83904   3.731   9.417   0.613 -0.6682  0.1595 -1.6437
  622MOL0     H83905   3.505   9.247   0.770 -1.6600  1.0350  3.1350
  622MOL0     H83906   3.665   9.251   0.704 -0.7688  0.9990 -0.1137
  622MOL0     H83907   3.759   9.163   0.921 -0.8546  1.6520  1.9639
  622MOL0     H83908   3.661   9.052   0.828 -1.6115 -1.5877  2.1264
  622MOL0     H83909   3.569   8.997   1.015 -0.3327  0.0400  1.9713
  622MOL0     H83910   3.468   9.141   0.988 -0.0173 -0.3634  1.3887
  622MOL0     H83911   3.715   9.134   1.171  0.6689  0.2536 -0.8434
  622MOL0     H83912   3.649   9.276   1.120  3.1294 -0.9083  2.3830
  622MOL0     H83913   3.419   9.202   1.228  0.6990  0.8405 -1.3904
  622MOL0     H83914   3.506   9.060   1.276  0.5823 -0.2503  0.2689
  622MOL0     H83915   3.499   9.235   1.466 -0.7687  5.7613 -1.4699
  622MOL0     H83916   3.662   9.182   1.409  0.5979 -0.7682 -1.2711
  622MOL0     H83917   3.676   9.401   1.287  2.0006  2.8204  1.7707
  622MOL0     H83918   3.663   9.410   1.460  0.8315 -1.5284 -0.8144
  622MOL0     H83919   3.425   9.425   1.282 -0.8745 -0.4947  0.9139
  622MOL0     H83920   3.452   9.485   1.454  0.8661  2.6343 -0.1211
  622MOL0     H83921   3.721   9.627   1.405 -0.3011  2.1549  0.4648
  622MOL0     H83922   3.851   9.846   1.297  1.7941  2.5026  1.0814
  622MOL0     H83923   3.752   9.922   1.172 -0.2054 -1.0638  0.1037
  622MOL0     H83924   3.661  10.085   1.315  1.8695  0.7371 -3.9945
  622MOL0     H83925   3.686  10.004   1.458 -1.0748  1.8019 -0.1874
  622MOL0     H83926   3.874  10.152   1.262 -0.7966  0.3707  1.1518
  622MOL0     H83927   3.945  10.069   1.413  1.8764  1.8073  0.1542
  622MOL0     H83928   3.778  10.216   1.533 -1.6597 -2.4908 -2.6074
  622MOL0     H83929   3.775  10.314   1.383  0.7160  0.1544 -0.7270
  622MOL0     H83930   4.162  10.415   1.524  1.0918  1.4184 -1.6402
  622MOL0     H83931   4.193  10.643   1.621  0.7155 -1.8512  0.9703
  622MOL0     H83932   4.127  11.062   1.419  2.2572 -0.2986  0.7128
  622MOL0     H83933   4.117  11.301   1.440  0.6753  0.1329 -0.1189
  622MOL0     H83934   4.116  11.637   1.750 -3.4161 -1.2118  1.6261
  622MOL0     H83935   4.117  11.503   1.861  2.0205 -0.9190  0.1919
  622MOL0     H83936   4.357  11.460   1.795 -0.7113 -1.1616 -3.2259
  622MOL0     H83937   4.345  11.557   1.653 -3.0874  1.8575 -0.8933
  622MOL0     H83938   4.464  11.653   1.853 -0.5894 -0.1183  2.9927
  622MOL0     H83939   4.330  11.763   1.803 -0.6368 -1.6552 -3.3398
  622MOL0     H83940   4.295  11.554   2.017  1.1314 -0.0739  1.3841
  622MOL0     H83941   4.208  11.711   1.990  0.0590  1.5689 -3.9015
  622MOL0     H83942   4.489  11.688   2.094  0.2570 -0.6627 -3.4812
  622MOL0     H83943   4.351  11.738   2.193  3.1684  0.2108  1.1968
  622MOL0     H83944   4.477  11.898   1.974  1.1416 -1.5445  0.7806
  622MOL0     H83945   4.307  11.924   2.029 -0.7392  1.1695 -0.2391
  622MOL0     H83946   4.498  11.884   2.252  1.1949 -1.4120 -2.3850
  622MOL0     H83947   4.347  11.982   2.234  0.7052 -0.2073  2.4122
  622MOL0     H83948   4.574  12.133   2.242  1.6909  1.0366 -1.1202
  622MOL0     H83949   4.627  12.026   2.117 -0.2085  0.4462 -0.5145
  622MOL0     H83950   4.173  11.278   1.876  3.1766 -0.1637 -0.6370
  622MOL0     H83951   4.125  11.020   1.845 -4.9101 -2.1359 -0.8974
  622MOL0     H83952   3.772  10.714   1.579  0.0338  0.1135 -4.2866
  622MOL0     H83953   3.741  10.489   1.494 -1.3688  2.8193  0.5161
  622MOL0     H83954   3.484   9.563   0.929 -2.2677 -2.3377 -1.6499
  622MOL0     H83955   3.440   9.755   0.810 -1.7558 -2.4179  1.9927
  622MOL0     H83956   3.457  10.035   0.866  0.4058  0.8420 -1.5111
  622MOL0     H83957   3.624  10.122   1.001  1.3639 -0.4476  0.0122
  622MOL0     H83958   4.000  10.257   0.882 -0.9458 -0.0167  1.2844
  622MOL0     H83959   4.042  10.085   0.858 -0.1195  1.9331 -1.7948
  622MOL0     H83960   4.219  10.150   0.994  0.7715  2.7474 -1.4354
  622MOL0     H83961   4.114  10.088   1.113  0.3480 -1.8677 -2.4201
  622MOL0     H83962   4.054  10.292   1.211  1.9602 -2.2963  2.1827
  622MOL0     H83963   4.106  10.397   1.076  2.1943  0.4660 -0.1656
  622MOL0     H83964   4.279  10.388   1.272 -2.3161 -1.9834  1.6970
  622MOL0     H83965   4.305  10.228   1.238  2.2954  3.4502  2.4574
  622MOL0     H83966   4.495  10.411   0.908  1.1704  1.2735  1.4808
  622MOL0     H83967   3.925  10.052   0.699  1.0996 -1.2611  0.5318
  622MOL0     H83968   3.830  10.031   0.472 -0.9961 -1.0992 -0.1309
  622MOL0     H83969   3.828   9.857   0.525  2.9138  1.1509  3.4749
  622MOL0     H83970   3.689   9.937   0.442 -0.6817  3.8763 -0.9693
  623MOL0     O83971   4.126   3.145   0.903 -0.0643  0.0937  0.2448
  623MOL0     C83972   4.216   3.061   0.878  0.1008 -0.7358  0.3076
  623MOL0     O83973   4.342   3.092   0.868 -0.3000  0.5918 -0.0192
  623MOL0     C83974   4.375   3.221   0.844  0.5699 -0.5551  0.7117
  623MOL0     C83975   4.441   3.303   0.944 -0.0052 -0.0677  0.4630
  623MOL0     C83976   4.468   3.437   0.914 -0.4210 -1.1363 -0.2260
  623MOL0     C83977   4.444   3.492   0.791 -0.1573 -0.0040 -0.8179
  623MOL0     O83978   4.475   3.621   0.769 -0.1342 -0.8599  0.3073
  623MOL0     C83979   4.574   3.650   0.665 -0.4913 -0.4919  0.7554
  623MOL0     C83980   4.534   3.778   0.581  0.6765  0.5748  0.4556
  623MOL0     C83981   4.385   3.794   0.557 -0.4579  0.1484  0.4088
  623MOL0     C83982   4.351   3.935   0.503  0.2142  0.5075 -0.2468
  623MOL0     C83983   4.202   3.980   0.495 -0.0427 -0.6544 -0.4495
  623MOL0     C83984   4.176   4.102   0.406  0.1925  0.2589  0.8520
  623MOL0     C83985   4.033   4.117   0.367  0.0587  0.0677 -0.8047
  623MOL0     C83986   4.004   4.237   0.277 -0.7212 -0.1202  0.4464
  623MOL0     N83987   4.052   4.220   0.133  0.9622  0.4670  0.1821
  623MOL0     C83988   4.025   4.110   0.054 -1.2482 -0.2795 -0.5062
  623MOL0     C83989   4.075   4.138  -0.066 -0.8437  0.6125  0.2663
  623MOL0     C83990   4.062   4.033  -0.176  0.0260  0.5545  0.5821
  623MOL0     C83991   3.943   4.050  -0.270 -0.6202  0.4572  1.0651
  623MOL0     C83992   3.954   3.951  -0.383 -0.1909  0.0728 -0.1317
  623MOL0     C83993   3.826   3.941  -0.464  0.1624  0.2032  0.0258
  623MOL0     O83994   3.862   3.892  -0.591 -0.0233  0.1772  0.0312
  623MOL0     C83995   3.822   3.770  -0.629  0.9164  0.6326  0.3298
  623MOL0     C83996   3.746   3.748  -0.746  0.4967  0.2867 -0.1553
  623MOL0     C83997   3.705   3.621  -0.780 -0.0864  0.3920  0.6156
  623MOL0     C83998   3.720   3.511  -0.696 -0.9274 -0.2265  0.3556
  623MOL0     C83999   3.684   3.377  -0.734  0.1556 -0.8681  1.4988
  623MOL0     O84000   3.714   3.276  -0.658 -0.9859  0.2037 -0.3147
  623MOL0     C84001   3.727   3.152  -0.713  0.6932  0.2903  0.5430
  623MOL0     C84002   3.609   3.073  -0.705  0.1366 -0.6660 -0.3648
  623MOL0     C84003   3.607   2.943  -0.744  0.0679 -1.3329 -0.1580
  623MOL0     C84004   3.728   2.888  -0.773 -0.9999  0.1897  0.3826
  623MOL0     O84005   3.720   2.751  -0.812 -0.5090  0.1765  0.1287
  623MOL0     C84006   3.690   2.654  -0.714 -0.1278 -0.0604  0.8235
  623MOL0     C84007   3.668   2.519  -0.782 -1.1117 -0.0076 -0.3484
  623MOL0     C84008   3.806   2.468  -0.830 -0.0350 -0.7587 -0.0632
  623MOL0     C84009   3.787   2.318  -0.868 -0.0793 -0.5552  0.1841
  623MOL0     C84010   3.921   2.261  -0.931  0.8184  0.5406  0.2793
  623MOL0     C84011   4.018   2.235  -0.821 -0.4154 -0.7972  0.1350
  623MOL0     C84012   4.107   2.119  -0.861  0.1109  0.2908 -0.1968
  623MOL0     C84013   4.200   2.084  -0.750  0.4576  0.0348 -0.0324
  623MOL0    Cl84014   4.277   1.927  -0.778  0.1733 -0.1325 -0.2115
  623MOL0     C84015   3.848   2.964  -0.792  0.1324  0.1558  0.4596
  623MOL0     C84016   3.843   3.102  -0.775 -0.8264 -0.1613  0.5819
  623MOL0     O84017   3.616   3.364  -0.835 -0.0627 -0.4578  1.0712
  623MOL0     C84018   3.773   3.537  -0.569  0.8096  0.2832  0.3182
  623MOL0     C84019   3.828   3.661  -0.537  0.2580 -0.6624  0.4732
  623MOL0     N84020   4.127   4.264  -0.061  0.9717  0.2230  0.3116
  623MOL0     N84021   4.105   4.314   0.053  0.8102 -0.5801 -1.0115
  623MOL0     C84022   4.385   3.407   0.700 -0.0110 -0.5321 -0.5039
  623MOL0     C84023   4.341   3.279   0.726 -0.2917 -0.5483 -0.1522
  623MOL0     C84024   4.174   2.923   0.895  0.3759  0.3005  0.8840
  623MOL0     C84025   4.238   2.848   0.801  0.4775  0.1354 -0.6572
  623MOL0     C84026   4.210   2.709   0.810  0.1607  0.7354 -0.3678
  623MOL0     C84027   4.118   2.647   0.894 -0.5811  1.0544 -0.5949
  623MOL0     O84028   4.094   2.506   0.879 -0.1420  0.1174  0.4201
  623MOL0     C84029   4.000   2.431   0.966 -0.0794  0.0244 -0.1690
  623MOL0     C84030   4.075   2.427   1.103 -0.2985  0.3577 -0.5760
  623MOL0     C84031   4.227   2.401   1.085  0.2190  0.1158  0.2841
  623MOL0     C84032   4.284   2.316   1.191  0.5584 -0.8806 -1.5529
  623MOL0     C84033   4.292   2.383   1.320 -0.4905  0.0061  0.2200
  623MOL0     C84034   4.319   2.412   1.436 -0.4258  0.8080 -0.7872
  623MOL0     C84035   4.053   2.736   0.982  0.0524 -0.2689 -0.1333
  623MOL0     C84036   4.071   2.871   0.988 -0.2643  0.0301 -0.2884
  623MOL0     C84037   3.964   2.952   1.064  0.1011 -0.6151  1.4513
  623MOL0     H84038   4.469   3.248   1.034  3.3039 -0.8733 -0.9200
  623MOL0     H84039   4.518   3.507   0.979  0.5176 -0.3928 -1.7005
  623MOL0     H84040   4.676   3.654   0.703 -0.6635  0.4425  1.1710
  623MOL0     H84041   4.578   3.582   0.580  3.2582  1.6788 -1.0513
  623MOL0     H84042   4.592   3.776   0.488  1.4132  0.2025  0.9051
  623MOL0     H84043   4.571   3.861   0.642  0.2812  0.4538  0.8633
  623MOL0     H84044   4.348   3.771   0.658  0.8200 -2.0988  0.4472
  623MOL0     H84045   4.335   3.716   0.498  0.4365  1.2480 -1.8787
  623MOL0     H84046   4.408   4.008   0.562 -2.7011  1.0628  2.1473
  623MOL0     H84047   4.387   3.943   0.400  1.5873 -0.2983  0.1497
  623MOL0     H84048   4.146   3.892   0.463 -0.2404 -0.7339  0.1005
  623MOL0     H84049   4.159   3.994   0.595  0.6628 -0.6344 -0.1457
  623MOL0     H84050   4.199   4.192   0.464  0.4874  1.6257 -1.2518
  623MOL0     H84051   4.237   4.104   0.315 -0.7764 -2.5727  0.0222
  623MOL0     H84052   3.970   4.127   0.457  1.4394  6.1323 -0.0901
  623MOL0     H84053   4.018   4.024   0.312  0.9417 -0.9836  0.6674
  623MOL0     H84054   3.895   4.247   0.266 -0.5884 -1.1349 -2.4520
  623MOL0     H84055   4.040   4.333   0.315 -0.2736 -1.1396  2.8252
  623MOL0     H84056   3.976   4.023   0.096 -2.2493 -0.4753 -2.0016
  623MOL0     H84057   4.153   4.026  -0.236 -1.0414 -0.8947 -0.9553
  623MOL0     H84058   4.054   3.937  -0.124  4.7557 -0.0968  0.5529
  623MOL0     H84059   3.855   4.015  -0.215 -0.9448 -1.0279 -0.3330
  623MOL0     H84060   3.926   4.152  -0.307  1.3924  0.8414  1.0628
  623MOL0     H84061   3.983   3.849  -0.354  1.1616  0.4577 -0.0804
  623MOL0     H84062   4.026   3.996  -0.450  1.3657 -0.3659  1.1741
  623MOL0     H84063   3.783   4.041  -0.473  2.1885  1.1044 -0.2229
  623MOL0     H84064   3.750   3.884  -0.411  1.0699 -1.4124 -0.3455
  623MOL0     H84065   3.721   3.823  -0.820 -0.6838  2.1665  2.0402
  623MOL0     H84066   3.664   3.607  -0.880 -2.6857 -0.6561  1.7662
  623MOL0     H84067   3.526   3.128  -0.661  0.9532  0.4443 -0.1780
  623MOL0     H84068   3.512   2.892  -0.743 -1.4835  1.3366 -0.2611
  623MOL0     H84069   3.778   2.646  -0.650  1.9057  2.2339 -1.4852
  623MOL0     H84070   3.598   2.677  -0.658 -1.3692 -1.9382 -0.3388
  623MOL0     H84071   3.634   2.453  -0.702  1.1616  0.6514  1.2667
  623MOL0     H84072   3.607   2.533  -0.872 -0.6648  3.2777 -0.2882
  623MOL0     H84073   3.831   2.525  -0.920 -1.5763  0.6746  0.3615
  623MOL0     H84074   3.876   2.485  -0.748  0.7616 -0.1257 -0.8466
  623MOL0     H84075   3.711   2.318  -0.947  1.7422 -1.2674 -1.6806
  623MOL0     H84076   3.757   2.269  -0.775 -3.7978  1.0099 -0.0301
  623MOL0     H84077   3.963   2.315  -1.016 -0.2989  2.3291  0.7977
  623MOL0     H84078   3.896   2.161  -0.967 -2.7735  0.7735  1.7254
  623MOL0     H84079   4.079   2.324  -0.809  1.6380 -1.6712 -2.7772
  623MOL0     H84080   3.958   2.213  -0.732 -3.0333 -0.6216 -1.4659
  623MOL0     H84081   4.166   2.144  -0.950  1.6838  0.1078  0.7567
  623MOL0     H84082   4.049   2.031  -0.889 -2.4292  1.3778  1.3886
  623MOL0     H84083   4.271   2.166  -0.736 -2.7320  3.5340 -2.4177
  623MOL0     H84084   4.140   2.074  -0.659 -0.5770  2.6072 -0.3435
  623MOL0     H84085   3.941   2.914  -0.818  2.3290  4.3309 -0.5653
  623MOL0     H84086   3.931   3.162  -0.793 -0.3401 -1.7729 -3.4612
  623MOL0     H84087   3.775   3.448  -0.506 -1.6298 -0.3181 -0.3426
  623MOL0     H84088   3.879   3.673  -0.441  0.7870 -2.6289  0.4798
  623MOL0     H84089   4.357   3.456   0.608  2.4486  2.6200  0.2490
  623MOL0     H84090   4.269   3.221   0.671 -3.6697  1.5678  1.6896
  623MOL0     H84091   4.306   2.888   0.726  0.8047 -1.1916 -1.0980
  623MOL0     H84092   4.253   2.643   0.735  1.8984  0.4331  0.8228
  623MOL0     H84093   3.980   2.329   0.932 -1.6661 -0.0941  0.9956
  623MOL0     H84094   3.905   2.483   0.980 -1.1017 -1.4718 -1.2108
  623MOL0     H84095   4.016   2.355   1.160 -1.7701  0.9630 -1.2842
  623MOL0     H84096   4.066   2.529   1.143  1.4274  1.4519 -2.7716
  623MOL0     H84097   4.284   2.494   1.093  0.6057 -0.2788  3.0463
  623MOL0     H84098   4.249   2.358   0.987  0.0033 -0.3681  0.4443
  623MOL0     H84099   4.226   2.224   1.200 -1.6052  0.5292 -0.4245
  623MOL0     H84100   4.387   2.292   1.162 -0.4768 -3.1419 -3.8110
  623MOL0     H84101   4.343   2.438   1.537 -4.4650 -0.6517  0.7462
  623MOL0     H84102   3.980   2.695   1.051 -0.2382 -4.1877 -2.4441
  623MOL0     H84103   4.013   3.043   1.101  0.9757 -0.7554  0.6636
  623MOL0     H84104   3.889   2.977   0.990  4.5262  1.4464 -2.9232
  623MOL0     H84105   3.921   2.899   1.149 -1.8173  1.6889  2.0306
  624MOL0     O84106   0.612  11.340   6.850  0.1047 -0.2107  0.7009
  624MOL0     C84107   0.625  11.420   6.755  0.3842 -0.8230  0.3163
  624MOL0     O84108   0.658  11.550   6.761 -0.1488  0.1881 -0.0207
  624MOL0     C84109   0.651  11.598   6.886  0.4047 -0.0207 -0.5025
  624MOL0     C84110   0.527  11.651   6.918  0.1416  0.2329 -0.6640
  624MOL0     C84111   0.503  11.692   7.046 -0.2473  0.4815 -0.5509
  624MOL0     C84112   0.602  11.703   7.143 -0.4556 -0.2810 -0.0542
  624MOL0     O84113   0.575  11.769   7.259  0.0968 -0.5844 -0.8992
  624MOL0     C84114   0.629  11.732   7.389 -0.6304 -0.4235 -0.5348
  624MOL0     C84115   0.542  11.816   7.485  0.1332 -0.3369  0.3365
  624MOL0     C84116   0.418  11.728   7.517 -0.5028  0.8080  0.0881
  624MOL0     C84117   0.304  11.802   7.589 -0.6283 -0.2367  0.3263
  624MOL0     C84118   0.335  11.846   7.731  0.1130 -0.3596 -0.1849
  624MOL0     C84119   0.396  11.739   7.815  0.1178  0.6871  0.2319
  624MOL0     C84120   0.415  11.777   7.961 -0.1547  0.1500 -0.2421
  624MOL0     C84121   0.435  11.651   8.057 -0.3301 -0.1699  0.4797
  624MOL0     N84122   0.506  11.684   8.181  0.0853 -0.4974  0.4125
  624MOL0     C84123   0.636  11.727   8.178  0.9190 -0.3007  0.0925
  624MOL0     C84124   0.648  11.765   8.307  0.2342  0.0599 -0.3440
  624MOL0     C84125   0.784  11.803   8.357  0.3253 -0.8567  0.3764
  624MOL0     C84126   0.786  11.875   8.485 -0.5572  0.2651 -0.2716
  624MOL0     C84127   0.932  11.879   8.547  1.1514 -0.3756  0.0568
  624MOL0     C84128   0.930  11.961   8.672  0.2121 -0.4808 -0.4584
  624MOL0     O84129   1.065  11.988   8.727  0.3472 -0.1475  0.1498
  624MOL0     C84130   1.078  12.076   8.830 -0.7813  0.1518 -0.6773
  624MOL0     C84131   1.196  12.046   8.887  0.0885 -0.1509 -0.2583
  624MOL0     C84132   1.231  12.109   8.999 -0.8369  0.3240 -0.1754
  624MOL0     C84133   1.141  12.195   9.066  0.8848 -0.0064  0.4950
  624MOL0     C84134   1.187  12.252   9.195  0.2401  1.1522 -1.2244
  624MOL0     O84135   1.318  12.282   9.201 -0.4835 -0.5370  0.3819
  624MOL0     C84136   1.365  12.314   9.324  0.1492  0.4338  0.3182
  624MOL0     C84137   1.332  12.436   9.400 -0.4616  0.1510 -0.2414
  624MOL0     C84138   1.386  12.459   9.529 -1.0233  0.6548  0.1741
  624MOL0     C84139   1.462  12.358   9.600  0.6301 -0.0822 -0.1641
  624MOL0     O84140   1.498  12.381   9.726 -0.5365 -0.6325 -0.3413
  624MOL0     C84141   1.581  12.282   9.792  0.0323 -0.1851  0.0111
  624MOL0     C84142   1.623  12.339   9.921  0.1289 -0.2147  0.6488
  624MOL0     C84143   1.747  12.265   9.954 -0.9891 -0.1108 -0.5857
  624MOL0     C84144   1.800  12.291  10.101  0.3882  0.9213  0.4497
  624MOL0     C84145   1.921  12.200  10.140 -0.4613 -0.0988 -0.1205
  624MOL0     C84146   1.962  12.209  10.285 -0.7760  0.6156  0.0247
  624MOL0     C84147   2.068  12.116  10.312 -0.2908  0.4610 -0.6820
  624MOL0     C84148   2.141  12.142  10.444 -0.8766  0.9577  0.4804
  624MOL0    Cl84149   2.237  11.991  10.502 -0.0017 -0.5786 -0.2113
  624MOL0     C84150   1.497  12.243   9.521  1.4233 -0.1100 -1.3329
  624MOL0     C84151   1.445  12.225   9.390  0.5663  0.5544 -0.1058
  624MOL0     O84152   1.101  12.278   9.282  0.4150  0.4010 -0.4501
  624MOL0     C84153   1.014  12.221   9.007  0.6798 -0.9321  0.1736
  624MOL0     C84154   0.985  12.163   8.882 -0.2069  0.1014 -0.0672
  624MOL0     N84155   0.538  11.738   8.382 -0.0390  0.1569  0.0037
  624MOL0     N84156   0.450  11.683   8.299 -0.2146 -0.4174  0.3476
  624MOL0     C84157   0.728  11.678   7.105  1.2659 -0.5565 -0.4127
  624MOL0     C84158   0.752  11.616   6.986  0.2069  0.4735  0.2550
  624MOL0     C84159   0.620  11.353   6.615  0.9519 -0.3301 -0.1880
  624MOL0     C84160   0.565  11.428   6.503  0.2060 -0.4159 -0.9478
  624MOL0     C84161   0.558  11.360   6.369 -1.0584  0.1537 -0.3508
  624MOL0     C84162   0.585  11.225   6.354  0.3570  0.2727 -0.4757
  624MOL0     O84163   0.572  11.156   6.235 -0.2905 -0.4057  0.5814
  624MOL0     C84164   0.523  11.024   6.239 -0.8021 -0.0265  0.2130
  624MOL0     C84165   0.470  10.995   6.101  0.1261 -0.1717 -0.1720
  624MOL0     C84166   0.379  10.868   6.092 -0.1200  0.2378  0.2502
  624MOL0     C84167   0.320  10.842   5.957 -0.1916 -0.2005  0.5925
  624MOL0     C84168   0.226  10.726   5.974  0.3833  0.6042  0.4736
  624MOL0     C84169   0.138  10.633   5.979 -0.1689 -0.2733  0.3690
  624MOL0     C84170   0.634  11.161   6.463 -0.1382 -0.0224 -0.4983
  624MOL0     C84171   0.658  11.216   6.588  0.0685  1.3984  0.0844
  624MOL0     C84172   0.703  11.118   6.687  0.2310  0.0896  0.2434
  624MOL0     H84173   0.448  11.624   6.848 -1.3018 -0.3635  1.1138
  624MOL0     H84174   0.407  11.738   7.066 -0.2551  0.4371 -0.4853
  624MOL0     H84175   0.613  11.626   7.409  1.4130 -1.3023 -2.9794
  624MOL0     H84176   0.732  11.768   7.397 -0.4733 -0.3998 -2.3270
  624MOL0     H84177   0.497  11.908   7.446 -0.6554 -1.9682 -3.0325
  624MOL0     H84178   0.598  11.829   7.578  1.0983 -1.7210 -0.0235
  624MOL0     H84179   0.445  11.642   7.580 -1.3245  0.3887 -0.1261
  624MOL0     H84180   0.385  11.690   7.420  2.8631  0.2437 -0.9848
  624MOL0     H84181   0.280  11.884   7.521  0.1639  2.1309  2.7479
  624MOL0     H84182   0.218  11.733   7.586 -1.3189  0.5192 -3.6982
  624MOL0     H84183   0.413  11.923   7.722  0.3058 -0.5401 -0.0565
  624MOL0     H84184   0.240  11.893   7.761 -0.6835 -0.7067 -2.0290
  624MOL0     H84185   0.343  11.644   7.806  0.8722  0.1535  1.1801
  624MOL0     H84186   0.494  11.716   7.771  0.0410  2.7158 -1.1351
  624MOL0     H84187   0.319  11.815   7.998 -0.5215 -0.8865 -0.0859
  624MOL0     H84188   0.493  11.854   7.964  0.3107 -0.3561  0.7730
  624MOL0     H84189   0.341  11.602   8.083 -0.0376 -2.3680 -2.1504
  624MOL0     H84190   0.500  11.576   8.010  0.5030  1.8756 -1.8298
  624MOL0     H84191   0.704  11.733   8.094  2.1565  4.1472  1.1697
  624MOL0     H84192   0.840  11.709   8.356 -0.6672 -1.4720  0.5093
  624MOL0     H84193   0.824  11.872   8.283 -1.2962 -0.4894 -0.2044
  624MOL0     H84194   0.750  11.976   8.464  0.5586  1.0492  1.3635
  624MOL0     H84195   0.724  11.820   8.556  2.1231 -0.8494  1.3661
  624MOL0     H84196   0.999  11.920   8.471 -0.5908  0.4544 -1.0735
  624MOL0     H84197   0.960  11.775   8.569 -2.5749 -1.1362  2.0082
  624MOL0     H84198   0.864  11.916   8.747  0.3222  0.1206  0.0086
  624MOL0     H84199   0.890  12.060   8.649 -0.1018 -0.8209 -1.4403
  624MOL0     H84200   1.259  11.965   8.854 -2.0753 -3.5018  2.9915
  624MOL0     H84201   1.323  12.082   9.050 -1.5633  0.3355  1.2003
  624MOL0     H84202   1.275  12.503   9.336  0.6073 -0.4206 -1.8425
  624MOL0     H84203   1.356  12.553   9.575 -0.7881 -0.3172  2.4460
  624MOL0     H84204   1.525  12.193   9.823  2.4509 -1.9698 -0.4413
  624MOL0     H84205   1.662  12.255   9.723 -0.5142 -1.5711 -0.1085
  624MOL0     H84206   1.642  12.447   9.909 -3.2132  0.3359 -0.4829
  624MOL0     H84207   1.558  12.337  10.009  0.2762  0.4882  0.7864
  624MOL0     H84208   1.711  12.162   9.948 -5.7551  1.1725  1.6665
  624MOL0     H84209   1.826  12.292   9.883 -2.3653  1.6870 -1.4982
  624MOL0     H84210   1.727  12.266  10.178  0.6869  0.9515  0.7449
  624MOL0     H84211   1.827  12.398  10.102 -0.7043  1.2445 -1.1266
  624MOL0     H84212   2.010  12.231  10.084 -0.7425  0.3687 -0.3165
  624MOL0     H84213   1.899  12.095  10.120 -0.8174 -1.1825  4.7191
  624MOL0     H84214   1.988  12.310  10.316  0.0715  0.0479  1.2548
  624MOL0     H84215   1.870  12.176  10.334  0.0815  0.8998  1.9194
  624MOL0     H84216   2.147  12.138  10.240  1.5442 -2.6383  0.2191
  624MOL0     H84217   2.037  12.012  10.298 -0.5165  0.7389 -2.4425
  624MOL0     H84218   2.214  12.222  10.429  1.7380 -1.4789 -0.7922
  624MOL0     H84219   2.069  12.179  10.518 -0.7409  0.1868  1.0218
  624MOL0     H84220   1.547  12.154   9.561  0.9171 -0.4025 -1.3457
  624MOL0     H84221   1.473  12.136   9.335 -0.0608 -0.1678  0.7072
  624MOL0     H84222   0.952  12.289   9.064  0.7110 -1.7606  1.2126
  624MOL0     H84223   0.889  12.192   8.840  0.3721 -0.9458 -2.2215
  624MOL0     H84224   0.806  11.706   7.175 -1.3298 -0.6075  2.7129
  624MOL0     H84225   0.849  11.567   6.980 -0.2202 -1.4410  4.8784
  624MOL0     H84226   0.533  11.531   6.521 -2.8326 -1.8990  4.1306
  624MOL0     H84227   0.506  11.419   6.293 -3.4231  0.5111  1.4405
  624MOL0     H84228   0.443  11.019   6.313 -0.5690  0.6646  0.5216
  624MOL0     H84229   0.610  10.961   6.265 -0.9626 -0.8474 -1.1696
  624MOL0     H84230   0.546  10.997   6.022 -0.4558  2.1774 -0.7651
  624MOL0     H84231   0.409  11.086   6.091  0.9359  0.2028 -2.3469
  624MOL0     H84232   0.306  10.856   6.173  1.2418 -1.1145  1.3596
  624MOL0     H84233   0.441  10.780   6.109 -1.2275 -0.6471 -0.2021
  624MOL0     H84234   0.265  10.931   5.925 -0.9042 -1.0462 -0.6189
  624MOL0     H84235   0.403  10.828   5.887  0.5708  2.3408  0.8908
  624MOL0     H84236   0.061  10.559   5.977 -1.2558  0.8070 -2.3474
  624MOL0     H84237   0.671  11.059   6.450  2.0048  0.2312  2.7076
  624MOL0     H84238   0.770  11.179   6.748 -0.9945  0.9645  0.7615
  624MOL0     H84239   0.613  11.082   6.739 -0.6079  2.6378  0.7193
  624MOL0     H84240   0.767  11.037   6.651  1.9383  0.3539  2.4828
  625MOL0     O84241  10.235   8.869   8.803  0.2337  0.9571 -0.0253
  625MOL0     C84242  10.344   8.821   8.757  0.4468 -0.7677  0.6710
  625MOL0     O84243  10.423   8.888   8.654  0.3815  0.0849 -0.1910
  625MOL0     C84244  10.380   8.999   8.590  0.4035  0.6964 -0.7167
  625MOL0     C84245  10.287   8.981   8.488 -0.2087 -0.3806  0.8462
  625MOL0     C84246  10.257   9.103   8.414 -0.1702 -0.0266  1.0264
  625MOL0     C84247  10.305   9.229   8.447 -0.7211 -0.2264  0.6843
  625MOL0     O84248  10.273   9.335   8.368 -0.1741 -0.8935  0.2924
  625MOL0     C84249  10.297   9.466   8.412 -0.8359  0.0119 -0.1157
  625MOL0     C84250  10.277   9.554   8.277 -0.8396  0.6548  1.2116
  625MOL0     C84251  10.128   9.578   8.240 -0.1933 -0.0678  0.1665
  625MOL0     C84252  10.092   9.697   8.313  0.0915 -0.1102 -0.6192
  625MOL0     C84253   9.953   9.730   8.265 -0.7605  0.4007  0.2185
  625MOL0     C84254   9.884   9.841   8.342 -0.4463  0.0719  0.3495
  625MOL0     C84255   9.763   9.899   8.266  0.1317 -0.7185 -0.7587
  625MOL0     C84256   9.639   9.821   8.286  0.9015 -0.2104  0.0024
  625MOL0     N84257   9.555   9.816   8.162  0.8566  0.5742 -0.6875
  625MOL0     C84258   9.580   9.752   8.047  0.5883 -0.6080 -0.2867
  625MOL0     C84259   9.483   9.791   7.961 -0.0122 -0.0543 -0.4722
  625MOL0     C84260   9.499   9.781   7.818  0.6087 -0.6526 -0.4759
  625MOL0     C84261   9.609   9.857   7.750 -0.3271  0.1504  0.3495
  625MOL0     C84262   9.589  10.014   7.732 -0.0416 -1.0609 -0.2504
  625MOL0     C84263   9.619  10.108   7.852 -0.4086  0.6681  0.0242
  625MOL0     O84264   9.736  10.062   7.929 -0.1655  0.4281  0.0960
  625MOL0     C84265   9.765  10.153   8.034 -1.1356 -0.1844  1.6804
  625MOL0     C84266   9.665  10.190   8.121  0.6199 -0.2870  0.6951
  625MOL0     C84267   9.707  10.277   8.228  0.6075  0.0310  0.0521
  625MOL0     C84268   9.831  10.333   8.226 -0.9985 -0.4875  0.3417
  625MOL0     C84269   9.864  10.422   8.336  0.6564  0.6808 -0.2636
  625MOL0     O84270   9.975  10.483   8.319  0.0381 -0.9061 -0.2402
  625MOL0     C84271  10.037  10.548   8.422 -1.0649  0.2728  0.3609
  625MOL0     C84272  10.079  10.484   8.538 -0.4184 -1.0425 -0.5507
  625MOL0     C84273  10.156  10.552   8.638 -0.2084 -1.3188  0.6345
  625MOL0     C84274  10.176  10.692   8.636  0.1491  0.1334 -0.1464
  625MOL0     O84275  10.245  10.743   8.746  0.2403  0.1526 -0.0630
  625MOL0     C84276  10.263  10.885   8.751 -0.3328  0.4672 -0.1567
  625MOL0     C84277  10.149  10.932   8.836  0.5943  0.3528 -1.6827
  625MOL0     C84278  10.157  11.082   8.876 -1.2077  0.4193  0.6362
  625MOL0     C84279  10.043  11.163   8.849  0.2021  0.2878  0.4581
  625MOL0     C84280  10.039  11.307   8.888 -0.7934  0.3326  0.2482
  625MOL0     C84281   9.915  11.373   8.836  0.5807 -0.5149 -0.4324
  625MOL0     C84282   9.881  11.508   8.890  0.6637  0.0923 -0.3349
  625MOL0     C84283   9.988  11.616   8.866  0.5646 -0.3284  0.7278
  625MOL0    Cl84284  10.132  11.613   8.960 -0.0220 -0.0372 -0.1207
  625MOL0     C84285  10.139  10.750   8.511 -1.1553 -0.2661 -0.4818
  625MOL0     C84286  10.075  10.680   8.414  0.7976  0.1007  0.7753
  625MOL0     O84287   9.781  10.434   8.427 -0.4082 -0.8127 -1.1613
  625MOL0     C84288   9.927  10.289   8.136  0.3612 -0.1767 -0.5041
  625MOL0     C84289   9.897  10.192   8.050  0.9104 -0.9855  0.1652
  625MOL0     N84290   9.390   9.858   8.033  0.1346 -0.0453  0.4880
  625MOL0     N84291   9.429   9.871   8.151 -0.0989  0.3308 -0.0970
  625MOL0     C84292  10.390   9.239   8.560  0.4761 -0.5017 -0.8588
  625MOL0     C84293  10.430   9.122   8.626 -0.7871 -0.0955 -0.5735
  625MOL0     C84294  10.394   8.696   8.811 -1.3690 -0.0241 -0.6598
  625MOL0     C84295  10.534   8.667   8.809  0.0478 -0.0057  0.2427
  625MOL0     C84296  10.593   8.579   8.896  0.4683  0.1010 -0.8455
  625MOL0     C84297  10.507   8.512   8.988 -1.1073 -0.2454  0.8134
  625MOL0     O84298  10.562   8.432   9.087  0.6471 -0.0042 -0.4750
  625MOL0     C84299  10.691   8.436   9.128 -0.4687  0.3758 -0.1737
  625MOL0     C84300  10.720   8.346   9.250  1.3386 -1.1751 -0.4732
  625MOL0     C84301  10.678   8.203   9.225 -0.8656 -0.5120 -0.3010
  625MOL0     C84302  10.765   8.142   9.118  0.3957 -0.2166 -0.1119
  625MOL0     C84303  10.904   8.151   9.147 -0.4526  0.0703 -0.2492
  625MOL0     C84304  11.019   8.181   9.161 -0.7888 -0.2970  0.5190
  625MOL0     C84305  10.368   8.526   8.987 -0.0751 -1.0174  0.2902
  625MOL0     C84306  10.308   8.617   8.900  0.3385  0.9890  0.1009
  625MOL0     C84307  10.147   8.606   8.890 -0.4046  0.3222 -0.3972
  625MOL0     H84308  10.239   8.889   8.457 -0.6237 -0.0454  0.4729
  625MOL0     H84309  10.196   9.081   8.328 -1.1857  1.3109  1.3687
  625MOL0     H84310  10.226   9.490   8.492  0.0708 -2.1502  1.4193
  625MOL0     H84311  10.401   9.474   8.444 -2.1569  0.0806  4.9529
  625MOL0     H84312  10.321   9.506   8.189 -2.1911 -2.0682  1.9081
  625MOL0     H84313  10.331   9.648   8.293 -0.5516  0.9228 -1.0421
  625MOL0     H84314  10.069   9.495   8.280  3.2583 -1.6642  2.4397
  625MOL0     H84315  10.107   9.583   8.133 -0.5381 -0.5477  0.2048
  625MOL0     H84316  10.091   9.674   8.420 -2.4577  0.6032 -0.4184
  625MOL0     H84317  10.156   9.784   8.295 -0.1390  1.1462  3.5816
  625MOL0     H84318   9.955   9.757   8.159 -2.9868 -1.5768 -0.4097
  625MOL0     H84319   9.893   9.639   8.263 -2.9030  1.6794  1.8196
  625MOL0     H84320   9.856   9.806   8.442 -1.8131  1.7291  0.6086
  625MOL0     H84321   9.948   9.930   8.346  1.3417 -1.1152 -0.7982
  625MOL0     H84322   9.787   9.923   8.162  2.8676 -0.8367 -0.2190
  625MOL0     H84323   9.744   9.998   8.308  1.5311 -1.4932  1.8867
  625MOL0     H84324   9.674   9.720   8.312 -0.1657 -0.7308 -0.4992
  625MOL0     H84325   9.592   9.867   8.373  0.7713  1.2585 -0.8092
  625MOL0     H84326   9.673   9.719   8.003 -0.0635 -1.8256 -0.7841
  625MOL0     H84327   9.481   9.677   7.791 -0.4445 -1.2506  2.1745
  625MOL0     H84328   9.413   9.838   7.782  1.5724  1.4958  0.4444
  625MOL0     H84329   9.696   9.835   7.813 -0.2378 -0.0125  0.1709
  625MOL0     H84330   9.625   9.806   7.655  0.5353 -2.4967  1.8103
  625MOL0     H84331   9.491  10.042   7.692  0.0539 -1.4478 -0.7608
  625MOL0     H84332   9.650  10.045   7.647  0.9231 -0.1102  0.7435
  625MOL0     H84333   9.532  10.090   7.916 -0.1544 -0.5881  0.0454
  625MOL0     H84334   9.629  10.212   7.819  2.8599  0.7115  0.7571
  625MOL0     H84335   9.560  10.162   8.110  1.1163 -1.1888 -2.8936
  625MOL0     H84336   9.640  10.300   8.311 -1.0397 -0.0487 -1.2039
  625MOL0     H84337  10.058  10.378   8.552 -1.5648 -0.5113  2.4566
  625MOL0     H84338  10.184  10.489   8.721  1.7367 -2.3045 -0.6902
  625MOL0     H84339  10.360  10.908   8.797  0.3792  0.6121 -1.6564
  625MOL0     H84340  10.276  10.931   8.653  1.2009 -1.7390 -1.0745
  625MOL0     H84341  10.064  10.924   8.768  0.1448  1.0109 -1.2119
  625MOL0     H84342  10.146  10.870   8.926  1.2328 -0.3348 -2.1179
  625MOL0     H84343  10.163  11.088   8.985  0.2574 -3.2920  0.8935
  625MOL0     H84344  10.245  11.127   8.830 -0.4053 -1.7815 -0.1070
  625MOL0     H84345   9.951  11.126   8.895  1.5351 -0.7492  2.4536
  625MOL0     H84346  10.025  11.162   8.741 -2.7488  1.2976  0.8363
  625MOL0     H84347  10.131  11.354   8.851 -1.8339  3.9233  1.8030
  625MOL0     H84348  10.048  11.312   8.997  1.9352 -2.4604  0.2984
  625MOL0     H84349   9.907  11.377   8.727  2.6262  0.2873 -0.5852
  625MOL0     H84350   9.835  11.307   8.872  2.7009 -2.4537  0.9728
  625MOL0     H84351   9.854  11.505   8.996  4.0695 -3.0408  0.6596
  625MOL0     H84352   9.790  11.542   8.840  0.3813  1.3687  0.9582
  625MOL0     H84353   9.996  11.606   8.758 -2.6138 -1.3555  0.4799
  625MOL0     H84354   9.946  11.717   8.870 -0.1399 -0.6186  0.9778
  625MOL0     H84355  10.177  10.846   8.479  1.0337 -0.6817  0.6461
  625MOL0     H84356  10.057  10.726   8.317  0.7572  0.4614  0.9528
  625MOL0     H84357  10.031  10.320   8.128 -0.2990  1.9448 -1.4257
  625MOL0     H84358   9.979  10.148   7.995  1.8450  1.1874 -0.2460
  625MOL0     H84359  10.443   9.329   8.591 -1.5501 -0.7016  4.0782
  625MOL0     H84360  10.505   9.119   8.705  1.3724 -1.8623 -2.5156
  625MOL0     H84361  10.599   8.725   8.744  1.9419  0.1587  2.1904
  625MOL0     H84362  10.696   8.545   8.901 -0.6720 -3.9474 -1.5005
  625MOL0     H84363  10.719   8.536   9.161 -1.5303  0.9123 -0.8673
  625MOL0     H84364  10.768   8.417   9.053 -0.6387 -2.5534  0.2756
  625MOL0     H84365  10.667   8.387   9.337  0.4474 -2.2677 -0.4796
  625MOL0     H84366  10.822   8.361   9.286 -0.3388  2.6531  3.7877
  625MOL0     H84367  10.573   8.197   9.196 -2.2249  1.6348  3.5758
  625MOL0     H84368  10.677   8.141   9.315 -3.1895 -1.6055 -1.0050
  625MOL0     H84369  10.731   8.038   9.116 -2.2470  0.5460  0.9697
  625MOL0     H84370  10.757   8.193   9.021 -1.9454  1.2510  0.7721
  625MOL0     H84371  11.122   8.209   9.151 -1.8357  3.7165 -1.2243
  625MOL0     H84372  10.298   8.480   9.056  1.4089 -1.6524  1.4304
  625MOL0     H84373  10.108   8.507   8.915 -0.6511  0.4795 -0.1460
  625MOL0     H84374  10.103   8.683   8.954 -0.1760  2.6383 -2.8169
  625MOL0     H84375  10.132   8.633   8.784  2.7247  1.0346 -0.7565
  626MOL0     O84376   9.572   5.761  10.932 -0.1021  0.0035  0.5034
  626MOL0     C84377   9.481   5.825  10.986 -0.5355 -0.1528  0.5086
  626MOL0     O84378   9.416   5.775  11.088  0.0526  0.0666 -0.5643
  626MOL0     C84379   9.468   5.676  11.167  0.1529  0.7574  0.2248
  626MOL0     C84380   9.390   5.561  11.200 -1.6205  0.5255  0.1136
  626MOL0     C84381   9.449   5.455  11.269 -0.3098 -0.2481  0.1185
  626MOL0     C84382   9.582   5.466  11.304  0.8931 -0.4223 -0.7774
  626MOL0     O84383   9.655   5.372  11.361  0.5244  0.1261 -0.2616
  626MOL0     C84384   9.613   5.238  11.338 -0.0671 -1.0886 -0.7994
  626MOL0     C84385   9.718   5.143  11.382 -0.2838  0.2007 -0.1796
  626MOL0     C84386   9.719   5.099  11.535 -0.2894  0.5031  0.5880
  626MOL0     C84387   9.853   5.048  11.573  0.3373  0.1672 -0.0025
  626MOL0     C84388   9.869   5.048  11.724  0.5149  0.4951  0.0149
  626MOL0     C84389  10.016   5.034  11.780  0.9817  0.1480  0.1503
  626MOL0     C84390  10.077   4.890  11.736 -0.3622 -0.1007 -0.8545
  626MOL0     C84391  10.222   4.881  11.779 -0.1086 -1.0864 -0.1991
  626MOL0     N84392  10.304   4.785  11.709 -0.8100  0.7855  0.4322
  626MOL0     C84393  10.251   4.666  11.669  0.6321 -0.3433 -0.3092
  626MOL0     C84394  10.336   4.608  11.583  0.9588  0.2477 -0.2386
  626MOL0     C84395  10.330   4.470  11.526  0.2667 -0.6322  0.1105
  626MOL0     C84396  10.347   4.358  11.615  1.1849 -0.3975  0.0016
  626MOL0     C84397  10.258   4.230  11.575 -0.0389  0.6615  0.0896
  626MOL0     C84398  10.297   4.097  11.651  0.0040 -0.6072 -0.2350
  626MOL0     O84399  10.266   4.091  11.796  0.8765  0.4999 -0.0646
  626MOL0     C84400  10.306   3.974  11.859 -0.0119 -0.2876 -0.6196
  626MOL0     C84401  10.215   3.885  11.903  0.0061  0.2864 -0.1775
  626MOL0     C84402  10.251   3.774  11.982 -0.6389  0.0435  0.3345
  626MOL0     C84403  10.385   3.747  12.013 -0.3160 -0.2038 -0.5016
  626MOL0     C84404  10.422   3.638  12.107  0.4581 -0.3950  0.1256
  626MOL0     O84405  10.547   3.598  12.101  0.4351  0.1608 -0.2294
  626MOL0     C84406  10.575   3.481  12.170 -0.1151 -0.0826 -0.5473
  626MOL0     C84407  10.554   3.454  12.310 -0.1601  0.1659 -0.4372
  626MOL0     C84408  10.596   3.338  12.372  0.3825 -0.0291  0.4718
  626MOL0     C84409  10.670   3.242  12.299  0.2319  0.7278  0.5205
  626MOL0     O84410  10.723   3.131  12.363  0.5752 -0.3250 -0.5154
  626MOL0     C84411  10.857   3.097  12.338 -0.1522  0.1500  0.9681
  626MOL0     C84412  10.896   2.991  12.434 -0.6285 -1.0788  0.0978
  626MOL0     C84413  11.023   3.042  12.518  0.4537  0.1013  1.3542
  626MOL0     C84414  10.983   3.151  12.617 -0.1958 -0.6850  0.5788
  626MOL0     C84415  11.117   3.189  12.688  0.1073 -0.3912 -1.1981
  626MOL0     C84416  11.100   3.304  12.793  0.5194  0.3225  0.0066
  626MOL0     C84417  11.123   3.433  12.703  0.5466 -0.1897 -0.2509
  626MOL0     C84418  11.180   3.541  12.792  0.8753 -0.2790 -0.1638
  626MOL0    Cl84419  11.350   3.527  12.832 -0.8418 -0.3786 -0.0538
  626MOL0     C84420  10.691   3.264  12.155  0.5634  0.6223 -0.7499
  626MOL0     C84421  10.637   3.381  12.095  0.9245  1.0039  0.6690
  626MOL0     O84422  10.335   3.592  12.183  0.1392 -1.0084  0.5005
  626MOL0     C84423  10.485   3.831  11.953  0.0860  0.3893 -0.2627
  626MOL0     C84424  10.451   3.943  11.881  0.1265 -0.3706 -0.1777
  626MOL0     N84425  10.441   4.694  11.558 -0.0775 -0.7921  0.0446
  626MOL0     N84426  10.417   4.800  11.635  0.0848  0.9278 -0.3183
  626MOL0     C84427   9.648   5.583  11.278  0.3085  0.0323 -0.7431
  626MOL0     C84428   9.598   5.690  11.213  0.0415  0.4582  0.1551
  626MOL0     C84429   9.444   5.955  10.917 -0.4781  0.7129 -0.1400
  626MOL0     C84430   9.448   5.969  10.781 -0.2342 -0.0995  0.4230
  626MOL0     C84431   9.390   6.080  10.708  0.7583 -0.0466  0.1800
  626MOL0     C84432   9.319   6.173  10.779 -0.1615 -0.1052  1.2159
  626MOL0     O84433   9.246   6.280  10.724  0.5644  0.5220 -0.6119
  626MOL0     C84434   9.225   6.284  10.576  0.4441 -0.1444 -0.6418
  626MOL0     C84435   9.120   6.391  10.538  0.0521 -0.2941  0.2201
  626MOL0     C84436   9.156   6.532  10.594  0.6677  0.1866 -0.4234
  626MOL0     C84437   9.299   6.589  10.553  0.7057  0.2403  0.5625
  626MOL0     C84438   9.305   6.593  10.404 -0.0815  0.2248 -0.4827
  626MOL0     C84439   9.299   6.594  10.285 -0.4093  0.1028 -0.3956
  626MOL0     C84440   9.314   6.161  10.923 -0.3258  0.7890  0.2747
  626MOL0     C84441   9.374   6.050  10.994  0.8449  0.9575  0.7484
  626MOL0     C84442   9.343   6.025  11.146 -0.3552  0.1530  0.2883
  626MOL0     H84443   9.292   5.540  11.157 -1.0553 -1.6855 -0.2067
  626MOL0     H84444   9.389   5.366  11.288 -0.9718  0.2493  0.4056
  626MOL0     H84445   9.518   5.216  11.388 -0.4647  3.9965  1.2806
  626MOL0     H84446   9.605   5.224  11.230 -0.7908  2.0382 -1.2402
  626MOL0     H84447   9.815   5.188  11.360  1.3714 -2.7150  0.5046
  626MOL0     H84448   9.685   5.061  11.318 -2.6473  1.7136 -1.0236
  626MOL0     H84449   9.638   5.030  11.559 -1.2894  1.0475 -1.0937
  626MOL0     H84450   9.699   5.195  11.584 -1.2477  0.0508  1.1014
  626MOL0     H84451   9.881   4.954  11.525  1.0572 -0.1344  0.9725
  626MOL0     H84452   9.928   5.116  11.530  0.8168 -0.1947  0.2516
  626MOL0     H84453   9.823   5.137  11.768  0.2973 -0.5365  1.9861
  626MOL0     H84454   9.809   4.971  11.774  0.3897  1.6118  1.6398
  626MOL0     H84455  10.082   5.119  11.760  1.5873 -0.1969  0.6404
  626MOL0     H84456  10.004   5.036  11.889 -0.3394 -0.1635  0.0258
  626MOL0     H84457  10.071   4.883  11.627 -0.1445  2.0747 -1.0480
  626MOL0     H84458  10.033   4.807  11.793  2.8924 -0.9352  0.6886
  626MOL0     H84459  10.264   4.982  11.769 -1.5650 -0.1627  2.2280
  626MOL0     H84460  10.225   4.866  11.887 -1.5151  1.0486  0.1855
  626MOL0     H84461  10.153   4.637  11.703  1.4440 -1.6697  1.0101
  626MOL0     H84462  10.236   4.447  11.474  1.0987 -0.7861 -1.3868
  626MOL0     H84463  10.408   4.456  11.450 -0.0034 -2.1223  0.0751
  626MOL0     H84464  10.452   4.332  11.605  1.5750  1.3739 -0.9111
  626MOL0     H84465  10.338   4.389  11.720 -2.6084 -0.7095 -0.0857
  626MOL0     H84466  10.268   4.197  11.471 -3.7937 -3.5941  0.7611
  626MOL0     H84467  10.153   4.257  11.585  0.1023  0.7900  1.4654
  626MOL0     H84468  10.405   4.083  11.636  0.1973  1.5814 -1.3287
  626MOL0     H84469  10.249   4.011  11.603  1.2991 -0.6819 -1.4835
  626MOL0     H84470  10.111   3.908  11.882 -0.0986  0.6251  0.6906
  626MOL0     H84471  10.168   3.711  12.012 -0.5972 -0.5890 -0.8305
  626MOL0     H84472  10.500   3.520  12.378 -0.1350 -0.1411 -0.1172
  626MOL0     H84473  10.578   3.327  12.478  1.5384  2.2851  0.9625
  626MOL0     H84474  10.860   3.053  12.238 -1.0195  1.6517  0.2477
  626MOL0     H84475  10.915   3.190  12.339 -1.9757  1.6030 -3.4151
  626MOL0     H84476  10.813   2.977  12.503 -2.7016  1.8245 -1.5701
  626MOL0     H84477  10.923   2.902  12.377 -3.1456 -0.6812 -1.9084
  626MOL0     H84478  11.071   2.960  12.572  3.4390  0.9774  0.2479
  626MOL0     H84479  11.083   3.090  12.439 -0.0755  0.8890  1.4234
  626MOL0     H84480  10.904   3.122  12.687  0.4806  1.1271  2.1806
  626MOL0     H84481  10.955   3.239  12.559  2.3229  1.7267  2.7357
  626MOL0     H84482  11.193   3.218  12.616  0.4141 -0.2534 -0.8215
  626MOL0     H84483  11.167   3.100  12.727 -3.2175 -1.3027  1.5320
  626MOL0     H84484  11.001   3.301  12.838  1.6211 -2.9669  2.6350
  626MOL0     H84485  11.160   3.299  12.884 -0.5930 -2.4524  0.7027
  626MOL0     H84486  11.023   3.459  12.666  1.4222  0.5242 -2.2102
  626MOL0     H84487  11.185   3.412  12.616 -0.0460 -1.9122 -0.3042
  626MOL0     H84488  11.162   3.632  12.734  0.5474  0.1280  0.5686
  626MOL0     H84489  11.126   3.549  12.887 -1.2449 -0.0961 -1.3253
  626MOL0     H84490  10.730   3.183  12.093 -2.3668 -2.1921  0.7468
  626MOL0     H84491  10.656   3.393  11.989 -0.3987  2.7677  0.5908
  626MOL0     H84492  10.592   3.821  11.972  0.9629 -0.8329 -4.6818
  626MOL0     H84493  10.532   4.009  11.849  0.3380 -0.2620  0.5788
  626MOL0     H84494   9.749   5.596  11.316  1.3514 -0.1783 -3.2652
  626MOL0     H84495   9.651   5.781  11.189 -1.3528  1.1765 -0.2650
  626MOL0     H84496   9.488   5.883  10.729 -1.3116 -1.4032  1.6868
  626MOL0     H84497   9.401   6.098  10.601  0.7794 -0.7596  0.0583
  626MOL0     H84498   9.193   6.186  10.539  2.4903 -0.5962 -1.3693
  626MOL0     H84499   9.322   6.309  10.532  0.7629 -2.0548 -1.0948
  626MOL0     H84500   9.024   6.362  10.580 -0.2561  1.9398  1.1774
  626MOL0     H84501   9.098   6.388  10.431 -0.9813 -1.4751  0.4457
  626MOL0     H84502   9.142   6.557  10.700 -1.9632  5.0972 -1.6363
  626MOL0     H84503   9.089   6.594  10.533 -1.1414 -2.7816 -1.6561
  626MOL0     H84504   9.329   6.691  10.580  0.1979  0.0835  1.7831
  626MOL0     H84505   9.375   6.525  10.597 -0.8763 -1.3347  1.1291
  626MOL0     H84506   9.281   6.592  10.179 -0.5971  3.1441 -0.5255
  626MOL0     H84507   9.244   6.229  10.969  0.6527  1.9851  0.0428
  626MOL0     H84508   9.272   5.944  11.163  1.6105 -1.3817  1.5751
  626MOL0     H84509   9.434   5.997  11.200 -1.3428 -3.0738  0.4844
  626MOL0     H84510   9.301   6.112  11.198  2.4654 -0.7926  4.7615
  627MOL0     O84511   6.913   2.149   3.522  0.1921  0.7659  0.2035
  627MOL0     C84512   6.850   2.250   3.485  0.2480  0.2885 -0.3223
  627MOL0     O84513   6.896   2.381   3.496 -0.4579  0.2140  0.5886
  627MOL0     C84514   7.017   2.404   3.563 -0.1322  0.0845  1.2692
  627MOL0     C84515   7.018   2.522   3.634 -0.0212  0.3912 -0.2025
  627MOL0     C84516   7.140   2.551   3.700 -0.2431 -0.2726 -0.0935
  627MOL0     C84517   7.257   2.484   3.673  0.3847  0.8227 -0.1120
  627MOL0     O84518   7.370   2.521   3.735  0.3304  0.0716  0.3141
  627MOL0     C84519   7.412   2.665   3.733 -0.3369 -0.0151  0.3197
  627MOL0     C84520   7.529   2.658   3.633  0.4434  0.6542 -0.4375
  627MOL0     C84521   7.559   2.790   3.580 -0.1128 -0.0046  0.3125
  627MOL0     C84522   7.673   2.867   3.658  0.5048  0.2874 -0.1985
  627MOL0     C84523   7.667   3.013   3.604  0.6084 -0.6701 -0.1081
  627MOL0     C84524   7.782   3.088   3.658  0.0131 -0.4770  0.7755
  627MOL0     C84525   7.763   3.241   3.640  0.2608  0.0413  0.7539
  627MOL0     C84526   7.898   3.307   3.666  0.1608 -0.1742 -0.3275
  627MOL0     N84527   7.907   3.456   3.670  0.3938 -0.2275 -0.6737
  627MOL0     C84528   7.848   3.546   3.591  0.2379  1.4754 -0.2538
  627MOL0     C84529   7.900   3.663   3.637 -0.1606  0.4369 -0.4097
  627MOL0     C84530   7.843   3.787   3.572 -0.3687  0.2744  0.3680
  627MOL0     C84531   7.841   3.906   3.678  0.1497 -0.2868  0.0442
  627MOL0     C84532   7.963   3.998   3.652  0.9127  0.4680 -0.1069
  627MOL0     C84533   7.949   4.096   3.534  0.3142  0.1954 -0.3069
  627MOL0     O84534   7.878   4.036   3.421 -0.2667  0.7339  0.0301
  627MOL0     C84535   7.933   4.047   3.299  0.0288 -0.2555 -0.0494
  627MOL0     C84536   7.995   4.168   3.252 -0.6509  0.3593  0.5627
  627MOL0     C84537   8.050   4.171   3.129 -0.5007 -0.3870  0.5630
  627MOL0     C84538   8.050   4.069   3.041 -0.4041  0.5345 -0.7166
  627MOL0     C84539   8.112   4.072   2.909 -1.1802 -0.3497  0.4723
  627MOL0     O84540   8.083   3.975   2.823 -0.3641  0.5250 -0.4763
  627MOL0     C84541   8.146   3.974   2.699 -0.3660  0.0752  0.8224
  627MOL0     C84542   8.097   4.066   2.605 -0.8726  0.8110  0.4127
  627MOL0     C84543   8.148   4.068   2.475  1.0503 -0.7312 -0.3999
  627MOL0     C84544   8.257   3.985   2.446  0.0804 -0.0779 -0.5463
  627MOL0     O84545   8.337   3.989   2.335  0.3359  0.4510  0.0969
  627MOL0     C84546   8.331   4.097   2.241  0.2125 -0.4745 -0.3152
  627MOL0     C84547   8.448   4.095   2.144 -0.0480  0.7185 -0.2834
  627MOL0     C84548   8.589   4.096   2.204 -0.1042 -0.0254 -1.1036
  627MOL0     C84549   8.622   4.237   2.254  0.1338  0.1182  0.3428
  627MOL0     C84550   8.717   4.242   2.371  1.2389 -0.3998  0.1482
  627MOL0     C84551   8.860   4.186   2.362  0.1381  0.9552  0.8585
  627MOL0     C84552   8.920   4.167   2.503  0.4189 -0.1145 -0.2167
  627MOL0     C84553   9.066   4.125   2.512  0.0800 -1.0365  0.5805
  627MOL0    Cl84554   9.128   4.123   2.692 -0.1326  0.0937 -0.2666
  627MOL0     C84555   8.305   3.892   2.542 -0.0005 -0.1669 -0.1869
  627MOL0     C84556   8.244   3.886   2.665 -0.6658  0.3317  0.4120
  627MOL0     O84557   8.194   4.156   2.892 -0.4640 -0.5019  0.4125
  627MOL0     C84558   7.986   3.949   3.082  0.0920  0.4800 -0.0714
  627MOL0     C84559   7.933   3.942   3.213 -0.1196  0.1866  0.5697
  627MOL0     N84560   7.989   3.650   3.742 -0.1598  0.0438 -0.6608
  627MOL0     N84561   7.988   3.521   3.762  0.5178  0.5804 -0.6136
  627MOL0     C84562   7.252   2.367   3.605  0.4140 -0.1977  0.3966
  627MOL0     C84563   7.134   2.327   3.545 -0.1272  0.8078  0.6435
  627MOL0     C84564   6.725   2.228   3.409  0.0569 -0.2864  0.0693
  627MOL0     C84565   6.638   2.338   3.391  0.2401  0.2080 -0.7567
  627MOL0     C84566   6.519   2.311   3.316 -0.3867  0.0652  0.8936
  627MOL0     C84567   6.488   2.188   3.253  0.1599 -0.1871 -0.8507
  627MOL0     O84568   6.361   2.182   3.201  1.0235  0.0717 -0.1898
  627MOL0     C84569   6.309   2.068   3.148 -0.4729 -0.4367  0.1626
  627MOL0     C84570   6.198   2.103   3.052 -0.7433  0.2448 -0.2280
  627MOL0     C84571   6.125   1.989   2.977  0.8534  0.7852 -0.9544
  627MOL0     C84572   6.015   2.031   2.874 -0.5945 -0.2987  0.8919
  627MOL0     C84573   5.938   1.916   2.816 -0.2978  1.0800 -0.1444
  627MOL0     C84574   5.894   1.802   2.782  0.1692  0.4637 -0.3513
  627MOL0     C84575   6.577   2.090   3.277 -0.5681  0.3588  0.2915
  627MOL0     C84576   6.700   2.105   3.349  0.2299 -0.9697  0.7369
  627MOL0     C84577   6.762   1.972   3.363 -1.0023 -0.6062 -0.3118
  627MOL0     H84578   6.927   2.581   3.635 -1.7503 -1.8663 -3.9058
  627MOL0     H84579   7.131   2.648   3.749  0.4220  1.3917 -3.0636
  627MOL0     H84580   7.330   2.725   3.694 -2.0218 -1.2554  1.7941
  627MOL0     H84581   7.440   2.705   3.830 -0.8797 -1.6922  1.2121
  627MOL0     H84582   7.517   2.594   3.545  3.1191  0.0912 -0.4750
  627MOL0     H84583   7.610   2.618   3.695  1.0016  1.4381 -0.6426
  627MOL0     H84584   7.478   2.862   3.566  3.2507  3.9568 -0.8904
  627MOL0     H84585   7.589   2.780   3.475  0.3784 -1.9095  0.5934
  627MOL0     H84586   7.676   2.858   3.767 -0.2184 -0.3803 -0.2248
  627MOL0     H84587   7.765   2.825   3.615 -0.2774  1.2579 -3.0619
  627MOL0     H84588   7.655   3.035   3.497 -2.5081  1.2887  0.5152
  627MOL0     H84589   7.568   3.049   3.634  0.9262 -0.5577  0.8415
  627MOL0     H84590   7.801   3.066   3.763 -0.6911  0.8533  1.1992
  627MOL0     H84591   7.868   3.046   3.605  0.6519  1.3464  0.2857
  627MOL0     H84592   7.685   3.279   3.708 -1.9132  1.6824 -2.3834
  627MOL0     H84593   7.738   3.264   3.536 -0.2884 -0.4084  0.7822
  627MOL0     H84594   7.938   3.278   3.764 -1.6033  1.8247  1.0794
  627MOL0     H84595   7.974   3.290   3.590  1.7047  2.6364  0.4273
  627MOL0     H84596   7.759   3.531   3.531 -1.0841  3.0033  1.2315
  627MOL0     H84597   7.911   3.822   3.493 -2.2604  1.8282 -0.6580
  627MOL0     H84598   7.743   3.778   3.530 -0.3922 -1.0226  0.6588
  627MOL0     H84599   7.748   3.961   3.674 -0.2162 -0.9392 -0.8334
  627MOL0     H84600   7.841   3.864   3.779  3.1599  0.6133  0.5417
  627MOL0     H84601   8.045   3.927   3.649 -0.1316 -0.8310  0.8870
  627MOL0     H84602   7.983   4.045   3.749  3.2544 -2.7783  1.1665
  627MOL0     H84603   8.048   4.139   3.513 -0.0887  1.0617 -0.4650
  627MOL0     H84604   7.876   4.169   3.567 -0.8759  0.0810 -2.4807
  627MOL0     H84605   7.995   4.256   3.315  2.3780  0.8836 -0.0339
  627MOL0     H84606   8.081   4.265   3.085  0.6977 -1.5580 -1.2046
  627MOL0     H84607   8.020   4.133   2.640 -1.0151  1.9962 -1.9641
  627MOL0     H84608   8.118   4.146   2.405 -0.3724 -0.6765  0.2331
  627MOL0     H84609   8.238   4.084   2.184 -1.3942 -2.8633  2.5000
  627MOL0     H84610   8.309   4.193   2.290 -2.9977 -1.2495  0.0068
  627MOL0     H84611   8.437   3.999   2.092  0.9152  0.7230 -0.5256
  627MOL0     H84612   8.437   4.176   2.072 -4.7306 -1.1133 -1.9945
  627MOL0     H84613   8.602   4.026   2.287  2.5515  2.3466  0.6847
  627MOL0     H84614   8.652   4.073   2.117  1.3217  1.4853 -0.5332
  627MOL0     H84615   8.529   4.276   2.297 -1.6735 -0.3042 -2.8715
  627MOL0     H84616   8.650   4.307   2.174 -2.1913  3.8095  2.4809
  627MOL0     H84617   8.672   4.190   2.456  2.7355  1.2695  2.0359
  627MOL0     H84618   8.717   4.349   2.394 -2.6518  0.8270 -4.0614
  627MOL0     H84619   8.861   4.092   2.306  0.6433  1.4466  0.0235
  627MOL0     H84620   8.928   4.254   2.310  1.1986  0.4001  1.4642
  627MOL0     H84621   8.859   4.102   2.567  2.6393 -1.9209  0.2161
  627MOL0     H84622   8.915   4.272   2.534 -3.1537 -0.3122  0.3041
  627MOL0     H84623   9.084   4.027   2.466 -0.6278  0.1237 -2.3325
  627MOL0     H84624   9.111   4.205   2.453 -1.1606 -1.9053 -1.6613
  627MOL0     H84625   8.376   3.818   2.508 -1.5823 -0.6151 -2.7910
  627MOL0     H84626   8.271   3.806   2.734  0.6956  1.6537  1.4933
  627MOL0     H84627   7.981   3.867   3.011  1.6448 -0.1467  0.4772
  627MOL0     H84628   7.900   3.844   3.247  0.1974  0.2271  0.9996
  627MOL0     H84629   7.341   2.305   3.593  1.8289  2.1648 -2.4167
  627MOL0     H84630   7.139   2.241   3.479  1.6702 -1.0660  3.0460
  627MOL0     H84631   6.659   2.432   3.440  1.6327 -0.9216  0.9481
  627MOL0     H84632   6.443   2.389   3.308 -0.9209 -0.6767 -2.6865
  627MOL0     H84633   6.277   2.000   3.228  0.0286 -0.9202 -0.0359
  627MOL0     H84634   6.387   2.009   3.100 -1.4533 -1.5164 -0.1715
  627MOL0     H84635   6.254   2.168   2.983  0.7188  0.5212  1.1411
  627MOL0     H84636   6.123   2.165   3.100 -1.0864  0.5707 -1.1564
  627MOL0     H84637   6.089   1.919   3.054  3.5653  0.5543  0.2367
  627MOL0     H84638   6.206   1.932   2.930 -2.3431 -3.1300 -2.3902
  627MOL0     H84639   5.948   2.095   2.932 -0.6959 -0.1132  0.5759
  627MOL0     H84640   6.062   2.098   2.801  2.2505 -0.2602  2.6035
  627MOL0     H84641   5.867   1.707   2.741 -1.2153  0.1378  1.2096
  627MOL0     H84642   6.553   1.997   3.228  0.1483  0.3293 -0.0209
  627MOL0     H84643   6.737   1.895   3.290 -0.4259  0.4988 -1.7451
  627MOL0     H84644   6.871   1.985   3.355 -0.6629 -0.6726  2.9734
  627MOL0     H84645   6.747   1.928   3.462 -0.2180  1.6420  0.8928
  628MOL0     O84646   3.569  11.079   5.519 -0.4326  0.0798  0.2419
  628MOL0     C84647   3.635  10.983   5.484  0.0999 -0.1743 -0.9506
  628MOL0     O84648   3.659  10.949   5.354 -0.3390 -0.4293 -0.0898
  628MOL0     C84649   3.599  11.022   5.255 -0.6743 -0.6864  0.2036
  628MOL0     C84650   3.493  10.982   5.169  0.0369 -0.3373 -0.3370
  628MOL0     C84651   3.444  11.070   5.076 -0.1735 -0.4906 -0.3255
  628MOL0     C84652   3.488  11.208   5.073  0.1727  0.8303  0.6465
  628MOL0     O84653   3.436  11.303   4.987 -0.2177  0.2713 -0.0511
  628MOL0     C84654   3.299  11.275   4.950 -0.4699 -0.3678  0.5964
  628MOL0     C84655   3.223  11.399   4.898  0.8700  1.0624  0.3749
  628MOL0     C84656   3.201  11.507   4.995 -0.1477 -0.0882 -0.7472
  628MOL0     C84657   3.138  11.456   5.132 -0.0731 -0.3326  0.0654
  628MOL0     C84658   3.066  11.571   5.204  0.4507  0.1598  0.0257
  628MOL0     C84659   3.024  11.523   5.344  0.2686 -0.0491 -0.3994
  628MOL0     C84660   2.990  11.652   5.421  0.7707 -0.0785  0.1099
  628MOL0     C84661   2.923  11.625   5.549  0.0064  0.7754  0.7099
  628MOL0     N84662   2.785  11.562   5.527  0.0280 -0.2508 -0.6229
  628MOL0     C84663   2.737  11.430   5.527 -0.9286 -0.1958 -0.3063
  628MOL0     C84664   2.604  11.432   5.551 -0.5488 -0.1060  0.0682
  628MOL0     C84665   2.508  11.321   5.554 -0.2261  0.3348 -0.7246
  628MOL0     C84666   2.411  11.306   5.446  0.3471 -0.0951  0.0203
  628MOL0     C84667   2.333  11.166   5.428  0.0168 -0.1369  0.6570
  628MOL0     C84668   2.240  11.139   5.538  0.5938  1.0158  0.0358
  628MOL0     O84669   2.124  11.074   5.496 -0.6319 -0.9955  0.4032
  628MOL0     C84670   2.099  10.944   5.535 -0.0849 -0.2497  1.0648
  628MOL0     C84671   1.975  10.913   5.586  0.0006  0.3213 -0.5346
  628MOL0     C84672   1.939  10.784   5.641  0.1284 -0.4946 -0.8518
  628MOL0     C84673   2.032  10.679   5.627 -0.6965 -0.2397 -0.0131
  628MOL0     C84674   2.012  10.540   5.667  0.6287 -1.0377  0.9821
  628MOL0     O84675   1.880  10.504   5.706 -0.2060 -0.3401 -0.0846
  628MOL0     C84676   1.872  10.376   5.752  0.3211  0.0209  0.7766
  628MOL0     C84677   1.924  10.341   5.882 -0.4171 -0.8645  1.0024
  628MOL0     C84678   1.924  10.213   5.929  0.3226  0.4727  0.0838
  628MOL0     C84679   1.847  10.119   5.853  0.0387  0.1576  0.8523
  628MOL0     O84680   1.813   9.992   5.896  0.0665  0.0223  0.1956
  628MOL0     C84681   1.870   9.944   6.021 -0.0139 -0.3126  0.0668
  628MOL0     C84682   1.848   9.792   6.025 -0.4316 -0.4475  0.1864
  628MOL0     C84683   1.884   9.732   6.165 -0.7644 -0.1165 -0.4898
  628MOL0     C84684   1.861   9.823   6.281  0.3006  0.4782  0.6373
  628MOL0     C84685   1.919   9.775   6.413  0.4291  0.1191  0.4925
  628MOL0     C84686   1.823   9.675   6.470 -0.1272  0.0086  0.6139
  628MOL0     C84687   1.851   9.629   6.616  0.1111  0.1631  0.8090
  628MOL0     C84688   1.770   9.505   6.634  0.1969 -0.1622 -0.2430
  628MOL0    Cl84689   1.794   9.466   6.811  0.1135  0.4027  0.2727
  628MOL0     C84690   1.810  10.140   5.724  0.2958 -0.3760 -0.1176
  628MOL0     C84691   1.823  10.272   5.671  0.4034  0.1202  0.9821
  628MOL0     O84692   2.109  10.470   5.656 -0.3607  0.0710 -0.0632
  628MOL0     C84693   2.157  10.717   5.572  0.1839  0.2328 -0.6513
  628MOL0     C84694   2.192  10.841   5.527 -0.6350 -0.7074 -0.7009
  628MOL0     N84695   2.562  11.559   5.532 -0.1071 -0.5151 -0.5888
  628MOL0     N84696   2.671  11.637   5.520 -0.2748  0.3272 -0.3133
  628MOL0     C84697   3.599  11.245   5.154  0.0180  0.0844 -0.8001
  628MOL0     C84698   3.654  11.152   5.238 -0.0145  0.6310 -0.3190
  628MOL0     C84699   3.665  10.873   5.583 -0.4777  0.4720  0.3386
  628MOL0     C84700   3.629  10.742   5.548  0.0396  0.3421  0.0524
  628MOL0     C84701   3.635  10.631   5.636  0.5171  0.4727 -0.0149
  628MOL0     C84702   3.690  10.648   5.761  1.5866  0.9382  0.3644
  628MOL0     O84703   3.682  10.542   5.846  0.2213  0.1404  0.2182
  628MOL0     C84704   3.796  10.504   5.916 -0.3630 -0.4095 -0.0382
  628MOL0     C84705   3.894  10.436   5.807  0.1629  1.0694 -0.2259
  628MOL0     C84706   3.824  10.323   5.735 -0.5725 -0.4634  0.4210
  628MOL0     C84707   3.910  10.280   5.608  0.5369  0.8626 -0.4340
  628MOL0     C84708   3.862  10.154   5.544 -0.0149 -0.1439  0.5623
  628MOL0     C84709   3.817  10.051   5.498 -0.2643 -0.0490 -0.1992
  628MOL0     C84710   3.719  10.780   5.801  0.0147 -0.2722  0.7568
  628MOL0     C84711   3.710  10.887   5.712  1.0220 -0.4719  0.5569
  628MOL0     C84712   3.742  11.024   5.768  0.4229 -0.8551  0.6662
  628MOL0     H84713   3.464  10.877   5.172  0.5346 -0.4672  0.1466
  628MOL0     H84714   3.361  11.052   5.008 -2.9694  1.4861  2.3496
  628MOL0     H84715   3.301  11.210   4.862 -2.9729  1.6649 -1.1209
  628MOL0     H84716   3.239  11.235   5.032  1.3144 -0.1915  2.0339
  628MOL0     H84717   3.125  11.357   4.874  1.4426 -2.8997  3.7611
  628MOL0     H84718   3.276  11.438   4.811  0.9698  0.3705  0.1159
  628MOL0     H84719   3.134  11.588   4.962  3.6642  4.6914  1.7938
  628MOL0     H84720   3.293  11.562   5.014 -0.2455  0.4444 -1.7286
  628MOL0     H84721   3.066  11.374   5.127 -0.6670  0.1491  0.6203
  628MOL0     H84722   3.222  11.419   5.192 -0.3308 -1.7171 -0.4002
  628MOL0     H84723   3.129  11.660   5.213 -0.7236  0.9717  0.5203
  628MOL0     H84724   2.980  11.587   5.138  1.7051  1.1328 -1.4705
  628MOL0     H84725   2.946  11.447   5.353  0.0157  0.4119  5.5960
  628MOL0     H84726   3.113  11.472   5.384 -1.4738 -1.8311  1.4330
  628MOL0     H84727   2.908  11.700   5.366 -0.2610  0.3226  1.9310
  628MOL0     H84728   3.081  11.712   5.430  0.5117  0.1442  1.3589
  628MOL0     H84729   2.980  11.544   5.596 -1.9992 -1.2780 -0.1551
  628MOL0     H84730   2.911  11.709   5.618  2.1935 -0.9500  3.4021
  628MOL0     H84731   2.796  11.344   5.497 -0.4318  0.3930 -1.0398
  628MOL0     H84732   2.569  11.231   5.570  0.8668  1.4581  2.0951
  628MOL0     H84733   2.457  11.354   5.645 -0.3151 -0.2355 -0.5646
  628MOL0     H84734   2.330  11.380   5.444  1.3494  1.0609  0.2793
  628MOL0     H84735   2.464  11.334   5.354  2.0890  2.1956  1.5999
  628MOL0     H84736   2.401  11.081   5.412 -1.3658 -1.0832 -0.5066
  628MOL0     H84737   2.265  11.165   5.342  1.3851 -1.5063 -0.4815
  628MOL0     H84738   2.201  11.230   5.584  0.4243  0.5214  0.8862
  628MOL0     H84739   2.289  11.083   5.618 -2.4360  0.5119  1.6803
  628MOL0     H84740   1.904  10.993   5.602  2.0228  1.8724  1.5032
  628MOL0     H84741   1.837  10.762   5.673  0.0547 -5.4216 -3.4870
  628MOL0     H84742   1.975  10.422   5.934 -0.8652 -1.1935  1.9836
  628MOL0     H84743   1.974  10.194   6.023 -3.7202  0.2975  2.4364
  628MOL0     H84744   1.977   9.963   6.028  0.4702 -2.0183 -1.7063
  628MOL0     H84745   1.813  10.000   6.096  1.6392  1.7063 -0.0929
  628MOL0     H84746   1.746   9.759   6.006 -0.0639 -1.6173  0.1634
  628MOL0     H84747   1.909   9.744   5.947 -1.3242  0.2126 -0.9572
  628MOL0     H84748   1.828   9.639   6.180 -0.7266 -0.1070 -0.2978
  628MOL0     H84749   1.992   9.717   6.169 -0.3031  2.8236  0.7660
  628MOL0     H84750   1.752   9.826   6.289  0.0463 -2.1879 -0.9825
  628MOL0     H84751   1.904   9.924   6.274 -3.0951  2.2252  2.4314
  628MOL0     H84752   1.930   9.854   6.487  0.1667  0.2142  0.4305
  628MOL0     H84753   2.017   9.728   6.400  2.1334  2.6391  3.2603
  628MOL0     H84754   1.719   9.711   6.473 -1.7594 -4.1342  3.2735
  628MOL0     H84755   1.825   9.592   6.398  2.9893  3.4379 -3.8552
  628MOL0     H84756   1.814   9.701   6.689  0.3487 -1.4648  2.6436
  628MOL0     H84757   1.956   9.600   6.628  0.0724 -0.3604 -0.0430
  628MOL0     H84758   1.669   9.542   6.617  0.7906  1.4353 -0.4797
  628MOL0     H84759   1.796   9.420   6.570  1.5801 -1.1744  1.5589
  628MOL0     H84760   1.765  10.057   5.671 -0.2703  0.1718 -0.5056
  628MOL0     H84761   1.788  10.302   5.573 -1.3767 -0.8550  1.2552
  628MOL0     H84762   2.238  10.651   5.544 -0.8635 -1.6725  0.5671
  628MOL0     H84763   2.287  10.863   5.480  1.3955 -0.7937  2.9926
  628MOL0     H84764   3.646  11.341   5.137  1.5995 -0.1869  1.6008
  628MOL0     H84765   3.741  11.185   5.294 -0.0050  0.7601 -0.4094
  628MOL0     H84766   3.572  10.752   5.457 -1.7314  1.0612  1.1808
  628MOL0     H84767   3.588  10.534   5.624  2.5456 -1.0721  3.0682
  628MOL0     H84768   3.765  10.437   5.997  0.4947 -1.9065 -0.8905
  628MOL0     H84769   3.842  10.594   5.957 -4.9561  2.5895 -0.7395
  628MOL0     H84770   3.983  10.395   5.855  1.1824  2.5092 -0.8088
  628MOL0     H84771   3.923  10.525   5.750  0.4419  3.5914  3.4760
  628MOL0     H84772   3.729  10.356   5.692  0.3298 -3.2501 -4.4479
  628MOL0     H84773   3.802  10.236   5.798 -4.0919 -0.6265 -0.8040
  628MOL0     H84774   3.916  10.365   5.539 -0.9811  2.9216  1.7734
  628MOL0     H84775   4.013  10.254   5.634  0.0345 -0.4993  0.2810
  628MOL0     H84776   3.750   9.975   5.463 -0.6616  0.2597 -0.1152
  628MOL0     H84777   3.752  10.813   5.899 -0.3423  1.5143  0.3144
  628MOL0     H84778   3.674  11.060   5.846  0.6416  0.1185  0.4289
  628MOL0     H84779   3.846  11.028   5.801  1.0601  0.9588 -1.2973
  628MOL0     H84780   3.743  11.102   5.691 -1.2615 -2.0480 -0.6196
  629MOL0     O84781   4.052   0.957   6.462  0.1311  0.1571  0.5221
  629MOL0     C84782   4.140   0.879   6.509 -0.1833 -0.2162  0.7602
  629MOL0     O84783   4.171   0.879   6.631  0.4058  0.1740 -0.1761
  629MOL0     C84784   4.091   0.933   6.729 -0.5036  0.0743  1.1871
  629MOL0     C84785   3.959   0.891   6.754  0.3597  0.7253  0.6004
  629MOL0     C84786   3.868   0.951   6.841  0.6483 -0.3568 -0.0128
  629MOL0     C84787   3.921   1.065   6.908  0.4425 -0.6304  0.5205
  629MOL0     O84788   3.851   1.146   6.996  0.5065 -0.3758 -0.5658
  629MOL0     C84789   3.778   1.245   6.921  0.0216  0.1171 -1.3039
  629MOL0     C84790   3.743   1.354   7.027  0.3188  0.7326  0.0404
  629MOL0     C84791   3.662   1.284   7.145 -0.3144 -0.3519  0.6344
  629MOL0     C84792   3.605   1.396   7.228 -0.9305  0.2023  0.3521
  629MOL0     C84793   3.515   1.340   7.335  0.6022 -0.4964 -0.2600
  629MOL0     C84794   3.460   1.432   7.445  0.2201 -0.0669 -0.0720
  629MOL0     C84795   3.346   1.375   7.535 -0.1603 -0.7584  0.6286
  629MOL0     C84796   3.391   1.296   7.645  0.5675  0.9938  0.3611
  629MOL0     N84797   3.290   1.237   7.738  0.8633 -0.5006  0.6315
  629MOL0     C84798   3.217   1.314   7.830  0.1956  0.2388  0.7554
  629MOL0     C84799   3.129   1.224   7.880  0.4759 -0.0280 -0.6383
  629MOL0     C84800   3.024   1.262   7.982 -0.5069  0.4391 -0.1868
  629MOL0     C84801   2.916   1.357   7.919 -0.4301 -0.5704  0.7919
  629MOL0     C84802   2.843   1.301   7.796 -0.2050 -0.3188 -1.1716
  629MOL0     C84803   2.707   1.362   7.779  0.6628  0.3215 -0.0910
  629MOL0     O84804   2.714   1.505   7.774 -0.8664  0.2250  0.1983
  629MOL0     C84805   2.603   1.579   7.808  0.4443  0.3845 -0.8819
  629MOL0     C84806   2.479   1.522   7.779  0.4159  0.1296  0.7381
  629MOL0     C84807   2.371   1.595   7.800 -0.2125 -0.2275 -0.8159
  629MOL0     C84808   2.381   1.727   7.848 -0.4564  0.0643 -0.1722
  629MOL0     C84809   2.255   1.800   7.871 -0.1566  0.0034 -0.3635
  629MOL0     O84810   2.266   1.893   7.974 -0.9019 -0.5123  0.7112
  629MOL0     C84811   2.168   1.979   8.005  0.2508 -0.8296 -0.3357
  629MOL0     C84812   2.151   2.000   8.143 -0.4836  0.3582  0.4393
  629MOL0     C84813   2.065   2.105   8.182 -0.3904 -0.6114 -0.5223
  629MOL0     C84814   1.990   2.180   8.094  0.3714  0.5541  0.4477
  629MOL0     O84815   1.895   2.275   8.135 -0.9622  0.3177  0.0010
  629MOL0     C84816   1.865   2.281   8.276  0.1452  0.9609  0.6596
  629MOL0     C84817   1.783   2.403   8.309 -0.3409 -1.1047 -0.0866
  629MOL0     C84818   1.724   2.389   8.451  0.3001  0.3657  0.5778
  629MOL0     C84819   1.646   2.511   8.516 -0.5230  0.4908  0.4815
  629MOL0     C84820   1.600   2.485   8.660 -0.7441  0.3553 -0.5747
  629MOL0     C84821   1.588   2.626   8.721 -0.2358 -0.0797  0.6943
  629MOL0     C84822   1.536   2.619   8.864  0.5280  0.2916 -0.9507
  629MOL0     C84823   1.380   2.594   8.881 -0.5157  0.0924 -1.1366
  629MOL0    Cl84824   1.303   2.758   8.857  0.3006  0.2517  0.5155
  629MOL0     C84825   1.999   2.150   7.956  0.5542 -0.7767  1.2429
  629MOL0     C84826   2.081   2.047   7.917 -0.7003 -0.8492  0.1035
  629MOL0     O84827   2.151   1.762   7.823  0.4125 -0.5563 -0.4594
  629MOL0     C84828   2.511   1.789   7.861 -0.6093 -0.3322 -0.2744
  629MOL0     C84829   2.625   1.712   7.847  0.6704  0.6180 -0.0635
  629MOL0     N84830   3.156   1.094   7.833  0.0652 -0.7500  1.0204
  629MOL0     N84831   3.263   1.105   7.750  0.5486  0.4799 -0.4280
  629MOL0     C84832   4.051   1.112   6.886  0.2146  0.5961 -0.5304
  629MOL0     C84833   4.136   1.040   6.809 -0.6282 -0.8619  0.8024
  629MOL0     C84834   4.227   0.812   6.411  0.1958  0.6135 -0.0020
  629MOL0     C84835   4.166   0.701   6.361 -0.3183  0.2002  0.2863
  629MOL0     C84836   4.226   0.614   6.280 -0.3421 -0.9091 -0.3937
  629MOL0     C84837   4.363   0.632   6.240  0.2730 -0.0639  0.5789
  629MOL0     O84838   4.427   0.524   6.187  0.2051  0.0041  0.3005
  629MOL0     C84839   4.570   0.527   6.177  0.6442 -0.0443  0.0939
  629MOL0     C84840   4.616   0.597   6.043 -0.6611 -0.5042 -0.7708
  629MOL0     C84841   4.564   0.531   5.916 -0.0236  0.1770  0.0686
  629MOL0     C84842   4.648   0.541   5.785 -0.6913 -0.2949 -0.6277
  629MOL0     C84843   4.643   0.672   5.710  0.6672  0.7097 -0.0079
  629MOL0     C84844   4.646   0.770   5.643  0.1491  0.3702 -0.7778
  629MOL0     C84845   4.422   0.753   6.278 -0.2431 -0.9756  0.8756
  629MOL0     C84846   4.365   0.839   6.374 -0.1110  0.7596 -0.6783
  629MOL0     C84847   4.434   0.953   6.432 -0.1657  0.3026 -0.0440
  629MOL0     H84848   3.918   0.815   6.687 -2.6294  0.7629  2.2173
  629MOL0     H84849   3.765   0.915   6.846  0.5485 -0.4166 -1.8210
  629MOL0     H84850   3.841   1.311   6.860 -0.0812  2.3346  0.8567
  629MOL0     H84851   3.701   1.195   6.861 -1.2019 -1.0735  1.1372
  629MOL0     H84852   3.686   1.434   6.978 -1.6076 -1.0506 -0.7435
  629MOL0     H84853   3.834   1.394   7.073  1.0210 -3.5287  2.9289
  629MOL0     H84854   3.735   1.223   7.198  0.6968  1.9472  2.0586
  629MOL0     H84855   3.584   1.225   7.096 -0.1330 -0.1571  0.1068
  629MOL0     H84856   3.686   1.449   7.279  1.9644 -2.1624 -1.4449
  629MOL0     H84857   3.541   1.469   7.176 -1.5701 -0.3427  0.3687
  629MOL0     H84858   3.433   1.296   7.276  1.7746 -0.8429 -1.7060
  629MOL0     H84859   3.565   1.257   7.385 -1.9999 -2.6997 -1.0054
  629MOL0     H84860   3.541   1.474   7.504 -2.2179  0.1091  3.4652
  629MOL0     H84861   3.412   1.513   7.389 -2.4709  0.0251  2.1719
  629MOL0     H84862   3.281   1.335   7.457 -0.4235  2.8944 -1.2085
  629MOL0     H84863   3.295   1.458   7.586  0.2555 -1.3400  2.0536
  629MOL0     H84864   3.452   1.223   7.591  3.3335  0.8425  3.4033
  629MOL0     H84865   3.462   1.361   7.696  0.4115  0.4750  1.2694
  629MOL0     H84866   3.227   1.421   7.840  3.1409  0.2310 -1.0371
  629MOL0     H84867   2.969   1.175   8.018 -0.3883  1.1755  1.9536
  629MOL0     H84868   3.071   1.314   8.066 -0.2597 -0.7943  0.4660
  629MOL0     H84869   2.849   1.388   8.000 -0.4564  1.5463  0.0392
  629MOL0     H84870   2.959   1.454   7.892 -2.2353 -0.0134 -0.2304
  629MOL0     H84871   2.829   1.194   7.810 -2.8394 -0.1960 -2.2683
  629MOL0     H84872   2.886   1.313   7.696  2.1270 -0.5289 -0.2463
  629MOL0     H84873   2.638   1.331   7.859  1.5423  1.3637  1.1273
  629MOL0     H84874   2.663   1.327   7.685 -2.8729 -0.2448  1.5730
  629MOL0     H84875   2.481   1.424   7.733 -0.2666  0.7264 -0.6035
  629MOL0     H84876   2.271   1.551   7.795  0.5780 -2.1548 -0.5821
  629MOL0     H84877   2.196   1.940   8.221  1.3527 -1.0508 -1.5726
  629MOL0     H84878   2.049   2.124   8.288 -0.1759  3.2905 -1.0549
  629MOL0     H84879   1.800   2.195   8.296 -0.6899  1.2708 -0.6006
  629MOL0     H84880   1.956   2.291   8.336 -1.5776  1.3955  3.4124
  629MOL0     H84881   1.848   2.491   8.309 -2.3360  0.4481  0.4622
  629MOL0     H84882   1.701   2.420   8.239  0.3392  0.0823 -0.6281
  629MOL0     H84883   1.650   2.309   8.456  0.1384  0.6119  3.9069
  629MOL0     H84884   1.807   2.359   8.516  1.1004 -0.2343 -0.6497
  629MOL0     H84885   1.557   2.539   8.460 -0.5970  1.1427  0.9185
  629MOL0     H84886   1.712   2.598   8.517 -1.7074  1.4494  2.5178
  629MOL0     H84887   1.673   2.416   8.704  0.1635 -0.3238 -2.9689
  629MOL0     H84888   1.507   2.432   8.684  0.9403 -1.2604  3.3702
  629MOL0     H84889   1.691   2.660   8.717 -0.2655  0.2323  2.0870
  629MOL0     H84890   1.519   2.685   8.660  1.0076 -0.0699 -0.7660
  629MOL0     H84891   1.556   2.706   8.928 -2.8088  1.6648 -1.5684
  629MOL0     H84892   1.579   2.532   8.915 -1.3768  0.3260  0.8190
  629MOL0     H84893   1.338   2.517   8.815 -0.7781 -1.0932  0.3559
  629MOL0     H84894   1.359   2.559   8.983  0.1644 -0.2218 -1.0985
  629MOL0     H84895   1.939   2.197   7.879  0.1607 -3.2166 -0.0072
  629MOL0     H84896   2.088   2.028   7.810  1.7316 -2.7510  0.4915
  629MOL0     H84897   2.534   1.894   7.880 -0.2543 -0.5799  0.7050
  629MOL0     H84898   2.727   1.747   7.854  1.3089 -1.3543  1.8486
  629MOL0     H84899   4.084   1.206   6.930  1.4645 -0.0466 -0.0337
  629MOL0     H84900   4.231   1.085   6.783 -0.7591 -2.0787 -2.2562
  629MOL0     H84901   4.066   0.664   6.379 -0.3620 -0.7106 -1.5952
  629MOL0     H84902   4.176   0.520   6.256  0.5433 -1.3553 -0.5468
  629MOL0     H84903   4.604   0.423   6.178  0.8364  0.0141  1.3371
  629MOL0     H84904   4.606   0.573   6.270  1.2473  0.1712 -0.2379
  629MOL0     H84905   4.725   0.596   6.054 -0.8500 -0.4057  1.5080
  629MOL0     H84906   4.577   0.698   6.038 -0.4608 -0.4811 -2.1181
  629MOL0     H84907   4.470   0.579   5.890  0.5303  0.4293 -1.5485
  629MOL0     H84908   4.548   0.423   5.928  0.2303  0.3273  2.1952
  629MOL0     H84909   4.744   0.505   5.823 -0.5230  0.4058 -0.3598
  629MOL0     H84910   4.623   0.463   5.712 -0.9214  1.7837 -2.9022
  629MOL0     H84911   4.652   0.862   5.588 -0.6951  2.7715  2.7889
  629MOL0     H84912   4.522   0.770   6.239 -1.3420 -0.9777 -2.2117
  629MOL0     H84913   4.445   0.942   6.540 -1.3990  0.4862  0.1114
  629MOL0     H84914   4.528   0.974   6.379 -1.8917  2.6819 -2.4347
  629MOL0     H84915   4.373   1.043   6.415 -0.7525 -0.2077 -0.6815
  630MOL0     O84916   1.088   6.024   8.001 -0.3499 -0.6838  0.2133
  630MOL0     C84917   1.156   6.010   7.898 -0.3540 -0.3551  1.0628
  630MOL0     O84918   1.179   5.888   7.829  0.4788 -0.4762  0.0376
  630MOL0     C84919   1.102   5.780   7.863 -0.5367 -0.0824  0.4915
  630MOL0     C84920   0.986   5.757   7.794  0.2170 -0.3066  0.4422
  630MOL0     C84921   0.904   5.654   7.815 -0.0521 -0.6502 -0.4813
  630MOL0     C84922   0.942   5.556   7.912 -0.3572  0.2547  0.1850
  630MOL0     O84923   0.872   5.439   7.933  0.2495 -0.3331 -0.1855
  630MOL0     C84924   0.844   5.368   7.814  0.1978  0.2568 -0.2814
  630MOL0     C84925   0.967   5.307   7.755 -0.6002  0.3209 -0.2893
  630MOL0     C84926   0.930   5.177   7.672  0.3903 -0.2365  0.3832
  630MOL0     C84927   0.829   5.208   7.562  0.2927 -0.4567  0.5892
  630MOL0     C84928   0.724   5.101   7.556 -0.2217 -0.0813  0.2660
  630MOL0     C84929   0.586   5.143   7.488  0.1085  0.1909  0.0195
  630MOL0     C84930   0.599   5.220   7.355  0.7684  0.3727 -0.1933
  630MOL0     C84931   0.705   5.180   7.248 -0.2740  1.4481  0.2483
  630MOL0     N84932   0.677   5.045   7.194  0.6799 -0.1570 -0.3280
  630MOL0     C84933   0.774   4.985   7.121  0.6745  0.8376  0.0861
  630MOL0     C84934   0.723   4.870   7.073 -0.6601 -0.2733  0.4501
  630MOL0     C84935   0.796   4.784   6.975 -0.3765 -0.1190  0.3651
  630MOL0     C84936   0.934   4.836   6.928  0.2657  0.3228  0.6460
  630MOL0     C84937   1.007   4.709   6.877  0.4915 -0.5887  0.3374
  630MOL0     C84938   1.144   4.741   6.833  0.6598 -0.1861  0.6816
  630MOL0     O84939   1.125   4.803   6.705 -0.5559 -0.2584  0.2032
  630MOL0     C84940   1.235   4.856   6.645 -0.4677 -0.6133 -0.4574
  630MOL0     C84941   1.367   4.865   6.702 -0.0747  0.9441 -0.3341
  630MOL0     C84942   1.471   4.928   6.640  0.5089 -0.0773 -0.2166
  630MOL0     C84943   1.455   4.999   6.520  1.4857 -0.1002  0.0040
  630MOL0     C84944   1.572   5.067   6.470 -0.3462 -0.3537 -0.4654
  630MOL0     O84945   1.686   4.997   6.478  0.3579 -1.4705 -0.0449
  630MOL0     C84946   1.790   5.052   6.405  0.4120 -0.4186  0.5599
  630MOL0     C84947   1.826   5.010   6.275 -0.1817  0.9249  0.4960
  630MOL0     C84948   1.926   5.065   6.197  0.3007  0.4775 -0.7276
  630MOL0     C84949   2.005   5.176   6.238  1.1401  0.5465 -0.7728
  630MOL0     O84950   2.082   5.249   6.149 -0.0427 -0.0139 -0.3627
  630MOL0     C84951   2.176   5.343   6.214  0.4409 -0.5599 -0.1212
  630MOL0     C84952   2.303   5.375   6.134  1.1080 -0.4901 -0.1524
  630MOL0     C84953   2.383   5.240   6.101 -0.9021  0.4819  0.4434
  630MOL0     C84954   2.542   5.250   6.063  0.5439 -0.7790  0.1072
  630MOL0     C84955   2.624   5.122   6.083 -0.0450  0.4362 -0.9792
  630MOL0     C84956   2.684   5.122   6.222  0.5857 -0.6424 -0.7455
  630MOL0     C84957   2.713   4.981   6.255 -0.0707 -0.6718 -0.0639
  630MOL0     C84958   2.792   4.967   6.393  0.4065  1.0439 -0.9400
  630MOL0    Cl84959   2.711   5.047   6.529 -0.0447 -0.4678  0.3421
  630MOL0     C84960   1.978   5.209   6.373 -0.0811 -0.6409  0.2200
  630MOL0     C84961   1.868   5.163   6.453  0.0832 -0.1540  0.3049
  630MOL0     O84962   1.552   5.166   6.397 -0.2772 -0.1899 -0.3488
  630MOL0     C84963   1.326   5.012   6.467 -0.6341 -0.4305  0.8652
  630MOL0     C84964   1.223   4.937   6.530  0.3590 -1.2768  0.2300
  630MOL0     N84965   0.598   4.857   7.129 -0.1719 -1.4215 -0.4714
  630MOL0     N84966   0.574   4.966   7.208 -0.3432 -0.8102  0.1090
  630MOL0     C84967   1.045   5.593   8.001 -0.2570  0.1496  0.3053
  630MOL0     C84968   1.131   5.705   7.977  0.2699  0.7221  0.7769
  630MOL0     C84969   1.231   6.122   7.852  0.5394  0.1936  0.2872
  630MOL0     C84970   1.370   6.123   7.873 -0.1100  0.5036  0.8719
  630MOL0     C84971   1.440   6.240   7.844  0.5706  0.4643 -0.8550
  630MOL0     C84972   1.369   6.353   7.798  0.1092 -0.3643 -0.1314
  630MOL0     O84973   1.445   6.460   7.761  0.3043 -0.0696 -0.3419
  630MOL0     C84974   1.418   6.578   7.844  0.1098  0.9776  1.0870
  630MOL0     C84975   1.438   6.713   7.765 -0.0677  0.1647 -0.5667
  630MOL0     C84976   1.334   6.732   7.657 -0.1232  0.4476  0.2267
  630MOL0     C84977   1.380   6.708   7.516  0.2315  0.8762  0.7871
  630MOL0     C84978   1.268   6.699   7.425 -0.0358  1.2123  0.0769
  630MOL0     C84979   1.184   6.709   7.340 -0.5264  0.0408  0.7754
  630MOL0     C84980   1.232   6.357   7.788  0.3232  0.7945 -0.3934
  630MOL0     C84981   1.160   6.241   7.812  0.0205  0.0018 -0.3285
  630MOL0     C84982   1.008   6.261   7.811  0.8567  0.2210  0.2163
  630MOL0     H84983   0.960   5.816   7.706  0.8617  0.1295  0.5356
  630MOL0     H84984   0.816   5.628   7.756 -0.6186 -1.0213  0.4923
  630MOL0     H84985   0.768   5.292   7.838 -1.5120  1.6973 -0.8988
  630MOL0     H84986   0.797   5.431   7.738 -1.3642 -0.4747  0.0375
  630MOL0     H84987   1.020   5.276   7.846  1.0052 -1.7734 -1.8159
  630MOL0     H84988   1.021   5.371   7.684 -3.2080  0.5036 -2.2320
  630MOL0     H84989   0.871   5.106   7.731 -4.4800 -0.5397 -4.0629
  630MOL0     H84990   1.017   5.124   7.633 -2.0893 -2.9462 -1.9825
  630MOL0     H84991   0.786   5.305   7.590 -1.3844 -0.8907 -0.3709
  630MOL0     H84992   0.876   5.221   7.464 -1.2501 -2.5074 -0.5071
  630MOL0     H84993   0.763   5.011   7.506 -0.0854  0.5276 -0.7536
  630MOL0     H84994   0.687   5.074   7.655  1.0914  2.5965  1.5557
  630MOL0     H84995   0.528   5.051   7.475 -1.6476  1.1556  0.7236
  630MOL0     H84996   0.523   5.201   7.557 -0.9229 -0.2595 -0.5289
  630MOL0     H84997   0.621   5.325   7.376 -1.5940  0.6696  1.0563
  630MOL0     H84998   0.497   5.214   7.317  0.3531 -3.2011  1.0777
  630MOL0     H84999   0.697   5.256   7.169  3.4762 -0.4074 -2.2194
  630MOL0     H85000   0.809   5.182   7.281 -1.2680  2.3828  3.6792
  630MOL0     H85001   0.875   5.021   7.104  1.5058 -1.3772  0.0988
  630MOL0     H85002   0.801   4.682   7.016  0.2818 -0.7319 -1.1485
  630MOL0     H85003   0.724   4.772   6.893 -1.5260  3.1033  0.7966
  630MOL0     H85004   0.926   4.916   6.855  4.4535  1.1063  0.7585
  630MOL0     H85005   0.993   4.880   7.010 -0.2790 -0.0539  1.2504
  630MOL0     H85006   0.956   4.673   6.788 -0.3435  3.2186 -0.9040
  630MOL0     H85007   1.023   4.631   6.951  1.3076 -0.6885  0.0648
  630MOL0     H85008   1.204   4.650   6.820 -1.4583 -1.3837 -1.7029
  630MOL0     H85009   1.194   4.813   6.898  0.1764  0.1831  0.6496
  630MOL0     H85010   1.378   4.812   6.796 -0.2108  0.1091 -0.7772
  630MOL0     H85011   1.567   4.928   6.690  0.7080 -0.2216 -0.5920
  630MOL0     H85012   1.762   4.934   6.233  0.9131  0.0298  0.3931
  630MOL0     H85013   1.937   5.027   6.095 -1.8222 -1.5619 -0.2943
  630MOL0     H85014   2.123   5.437   6.233 -1.1371 -1.8018  1.9029
  630MOL0     H85015   2.214   5.301   6.307 -2.0845 -1.8623  0.4074
  630MOL0     H85016   2.287   5.442   6.049  0.9845  1.6311  1.4813
  630MOL0     H85017   2.373   5.434   6.194  0.0740 -0.2273  0.8316
  630MOL0     H85018   2.382   5.177   6.190 -4.0764  1.2498  1.0742
  630MOL0     H85019   2.321   5.194   6.023 -1.9127 -0.5613  1.8218
  630MOL0     H85020   2.579   5.327   6.131 -2.6909  0.6466  0.4542
  630MOL0     H85021   2.544   5.292   5.962 -2.5537  0.1813  0.3462
  630MOL0     H85022   2.703   5.122   6.007 -1.0055  0.9900 -2.0077
  630MOL0     H85023   2.562   5.033   6.068  0.7313 -0.2020 -0.4311
  630MOL0     H85024   2.774   5.183   6.233 -1.0953  1.9467 -0.7113
  630MOL0     H85025   2.603   5.145   6.291  1.2556 -0.6517  0.0550
  630MOL0     H85026   2.773   4.930   6.179  0.9036 -0.0052  0.2304
  630MOL0     H85027   2.616   4.935   6.275 -0.8867 -0.2701 -2.6899
  630MOL0     H85028   2.816   4.863   6.412  0.5113  0.4530 -3.8087
  630MOL0     H85029   2.889   5.018   6.389 -1.0011  3.9606 -0.6129
  630MOL0     H85030   2.041   5.285   6.416 -1.7181  0.0708  1.4583
  630MOL0     H85031   1.858   5.197   6.555 -3.1094 -3.4921  1.3371
  630MOL0     H85032   1.303   5.070   6.379  0.2304 -0.5449  0.5527
  630MOL0     H85033   1.124   4.960   6.492 -0.6512  0.6401  3.5447
  630MOL0     H85034   1.068   5.541   8.093  1.3754 -0.8611 -0.6314
  630MOL0     H85035   1.224   5.738   8.022  1.1802  1.6463 -1.5864
  630MOL0     H85036   1.419   6.031   7.902 -1.4514 -1.0475 -1.4760
  630MOL0     H85037   1.547   6.252   7.855  0.6532 -0.9120  0.1919
  630MOL0     H85038   1.491   6.562   7.924  2.5865 -0.3707 -1.2714
  630MOL0     H85039   1.313   6.572   7.874 -1.7043  2.7770 -3.9453
  630MOL0     H85040   1.544   6.717   7.737  0.4970 -0.2592  1.3512
  630MOL0     H85041   1.422   6.791   7.839 -1.5433  0.5433 -1.2651
  630MOL0     H85042   1.301   6.836   7.662  1.0763  0.7993  1.6713
  630MOL0     H85043   1.245   6.671   7.672  1.6851 -2.3298  0.3150
  630MOL0     H85044   1.457   6.781   7.493  0.9922 -0.6827 -2.0510
  630MOL0     H85045   1.443   6.618   7.509 -0.1969  0.6984 -1.1532
  630MOL0     H85046   1.108   6.708   7.264 -0.4483 -2.1348  0.6643
  630MOL0     H85047   1.185   6.448   7.752 -0.3818  0.1428 -1.1413
  630MOL0     H85048   0.963   6.252   7.911 -3.3770  2.0052 -1.2759
  630MOL0     H85049   0.981   6.358   7.769  1.4768  0.6080  0.6981
  630MOL0     H85050   0.967   6.181   7.749  0.7403  2.1222 -2.2922
  631MOL0     O85051   0.847   0.516   5.436  0.7617  0.4715 -0.1037
  631MOL0     C85052   0.797   0.446   5.348 -1.3168  0.5146 -0.0345
  631MOL0     O85053   0.863   0.356   5.269  0.2963  1.0962  0.5715
  631MOL0     C85054   1.005   0.341   5.267 -0.8600 -0.2421 -0.4466
  631MOL0     C85055   1.054   0.226   5.191 -0.1120  0.2178 -1.2395
  631MOL0     C85056   1.196   0.195   5.187 -0.0432 -0.7491  0.2777
  631MOL0     C85057   1.290   0.289   5.233  0.3267 -0.8032 -0.1605
  631MOL0     O85058   1.424   0.250   5.227  0.0520  0.0095 -0.2603
  631MOL0     C85059   1.487   0.261   5.356 -0.2391  0.3691  0.3149
  631MOL0     C85060   1.598   0.153   5.379  0.6503 -0.5650 -1.0038
  631MOL0     C85061   1.546   0.002   5.368 -0.5875 -1.1694 -0.5910
  631MOL0     C85062   1.500  -0.034   5.224  0.5974  0.3283  0.5719
  631MOL0     C85063   1.504  -0.183   5.202  0.2175  0.6704  0.0248
  631MOL0     C85064   1.399  -0.250   5.111  0.6578  0.1142  0.4516
  631MOL0     C85065   1.379  -0.166   4.987 -0.6720  0.1257  0.1130
  631MOL0     C85066   1.271  -0.227   4.910  0.8066 -0.4880  0.5869
  631MOL0     N85067   1.137  -0.169   4.931 -0.9093  0.1800  0.0693
  631MOL0     C85068   1.076  -0.090   4.836 -0.0545  0.0712 -0.6392
  631MOL0     C85069   0.970  -0.038   4.916 -0.0145  0.2800  1.0033
  631MOL0     C85070   0.870   0.066   4.856 -0.4326 -0.3431 -0.3263
  631MOL0     C85071   0.924   0.148   4.737 -0.0617  0.1113  0.4434
  631MOL0     C85072   0.990   0.285   4.776 -0.6648 -0.4403  0.1835
  631MOL0     C85073   1.130   0.265   4.822 -0.4291  0.6166  0.2200
  631MOL0     O85074   1.219   0.206   4.725 -0.3706 -1.0913  0.4551
  631MOL0     C85075   1.351   0.157   4.766  0.3721 -1.2959  0.6822
  631MOL0     C85076   1.432   0.071   4.687 -0.5717  0.1976 -0.2418
  631MOL0     C85077   1.564   0.042   4.729 -0.5952 -0.0707 -0.0720
  631MOL0     C85078   1.615   0.102   4.840 -0.0005 -0.8154 -0.2653
  631MOL0     C85079   1.749   0.076   4.888 -0.5327  0.0491 -0.3977
  631MOL0     O85080   1.833   0.177   4.911  1.2165 -0.3912  0.5245
  631MOL0     C85081   1.962   0.156   4.917 -0.1215  0.4645 -0.3859
  631MOL0     C85082   2.027   0.110   4.798  1.3906 -0.0275 -0.0655
  631MOL0     C85083   2.167   0.096   4.813  0.5614  0.4945  0.1257
  631MOL0     C85084   2.234   0.114   4.938 -0.1210  1.0131  0.7001
  631MOL0     O85085   2.371   0.084   4.943 -0.3101 -0.1395 -0.6139
  631MOL0     C85086   2.451   0.177   5.026  1.3502 -1.1740 -0.2659
  631MOL0     C85087   2.490   0.121   5.162 -0.1791 -0.5169 -0.3524
  631MOL0     C85088   2.624   0.056   5.182  0.4104 -0.6564  0.4266
  631MOL0     C85089   2.693   0.005   5.048  0.0825 -0.2414 -0.0525
  631MOL0     C85090   2.781  -0.119   5.075 -0.2456  0.3274  0.2173
  631MOL0     C85091   2.696  -0.245   5.087 -0.2098 -0.3701  0.3172
  631MOL0     C85092   2.769  -0.372   5.119 -0.6585 -0.0924  0.0416
  631MOL0     C85093   2.831  -0.457   5.005 -0.1092  0.0787 -0.2104
  631MOL0    Cl85094   2.970  -0.380   4.931 -0.2746  0.2395 -0.2206
  631MOL0     C85095   2.168   0.143   5.054  1.0171  0.1311  0.3665
  631MOL0     C85096   2.028   0.163   5.043  0.0582 -0.1714  0.3464
  631MOL0     O85097   1.776  -0.040   4.909 -0.5760  0.4406 -0.7740
  631MOL0     C85098   1.536   0.180   4.925  0.6858  0.0451 -0.0238
  631MOL0     C85099   1.407   0.210   4.880 -0.8421  0.0038 -0.9487
  631MOL0     N85100   0.966  -0.092   5.041  0.3630 -0.0256 -0.1463
  631MOL0     N85101   1.065  -0.175   5.045 -0.4879  0.5211 -0.0563
  631MOL0     C85102   1.238   0.404   5.294  0.5899 -0.5037 -0.7740
  631MOL0     C85103   1.101   0.421   5.318  0.8669  0.3223  0.2082
  631MOL0     C85104   0.653   0.441   5.338  0.3389  0.1668  1.0588
  631MOL0     C85105   0.579   0.457   5.458 -0.9370 -0.6780 -0.5091
  631MOL0     C85106   0.456   0.430   5.473 -0.1683 -0.0270 -0.1162
  631MOL0     C85107   0.379   0.401   5.363  0.3699  0.2193 -1.2199
  631MOL0     O85108   0.242   0.402   5.382  0.1879 -0.0065  0.6148
  631MOL0     C85109   0.146   0.396   5.289  0.2850 -0.7666 -0.8521
  631MOL0     C85110   0.091   0.251   5.309 -0.1225  0.0183 -0.1940
  631MOL0     C85111  -0.040   0.237   5.248 -0.2825  0.1437  0.3834
  631MOL0     C85112  -0.090   0.093   5.240  0.3760  0.3765 -0.2973
  631MOL0     C85113  -0.218   0.056   5.181 -0.1062  0.1410  0.3028
  631MOL0     C85114  -0.338   0.045   5.154 -0.2140  0.1666 -0.5888
  631MOL0     C85115   0.447   0.382   5.237 -0.1734  0.1544 -0.8987
  631MOL0     C85116   0.582   0.415   5.218 -0.4456  1.1281  0.2503
  631MOL0     C85117   0.638   0.422   5.078 -0.3739 -0.8292 -0.2584
  631MOL0     H85118   0.988   0.153   5.145  0.9692 -0.7035 -1.3593
  631MOL0     H85119   1.221   0.103   5.135  0.5278 -1.3681  1.6083
  631MOL0     H85120   1.536   0.359   5.359  1.9045 -0.6378  0.3512
  631MOL0     H85121   1.415   0.260   5.438  0.6087  0.7801  1.0947
  631MOL0     H85122   1.627   0.165   5.484  1.0805  0.6838 -1.2419
  631MOL0     H85123   1.684   0.178   5.317  0.6833  3.1585  0.2849
  631MOL0     H85124   1.464  -0.011   5.439  0.3333 -2.4624  0.3011
  631MOL0     H85125   1.623  -0.068   5.405 -1.7846 -1.5336  1.3654
  631MOL0     H85126   1.397   0.002   5.215  0.6534  0.4018  0.2196
  631MOL0     H85127   1.559   0.013   5.144 -2.3268  0.3182 -1.7614
  631MOL0     H85128   1.600  -0.217   5.164 -0.0281 -1.4113  1.1605
  631MOL0     H85129   1.496  -0.240   5.295 -1.2719  4.5387  2.5339
  631MOL0     H85130   1.444  -0.348   5.091  2.8837  1.1261  0.1651
  631MOL0     H85131   1.302  -0.260   5.160  0.9269  0.9620  1.1807
  631MOL0     H85132   1.477  -0.169   4.938 -0.4153  0.6321  0.5937
  631MOL0     H85133   1.349  -0.066   5.019 -4.6736 -0.4086 -1.3769
  631MOL0     H85134   1.287  -0.207   4.803 -2.5324  1.8547  0.3552
  631MOL0     H85135   1.261  -0.333   4.933 -0.4653 -0.8217 -1.2685
  631MOL0     H85136   1.119  -0.046   4.747  4.8376 -0.3749  1.1989
  631MOL0     H85137   0.770   0.025   4.838 -0.8628  0.8157 -0.6472
  631MOL0     H85138   0.845   0.143   4.929 -1.1372 -0.8546 -0.0153
  631MOL0     H85139   0.998   0.094   4.679 -2.0066 -2.2149 -0.0254
  631MOL0     H85140   0.841   0.165   4.668  0.8382 -3.3044 -1.7012
  631MOL0     H85141   0.924   0.352   4.831 -0.2285 -0.7848  1.1518
  631MOL0     H85142   1.000   0.332   4.678  0.5196 -0.0200  0.4810
  631MOL0     H85143   1.126   0.211   4.917  1.3518  1.3691  0.7757
  631MOL0     H85144   1.176   0.360   4.852 -1.7754  0.5130  2.8129
  631MOL0     H85145   1.384   0.017   4.606 -0.3406 -1.1520  0.4791
  631MOL0     H85146   1.637  -0.022   4.680 -0.0897  0.3170  0.1760
  631MOL0     H85147   1.963   0.092   4.712 -1.1025 -0.6054  1.8070
  631MOL0     H85148   2.226   0.066   4.727 -3.0234  1.6247 -2.9928
  631MOL0     H85149   2.531   0.226   4.970  1.2964 -0.9274 -0.1283
  631MOL0     H85150   2.382   0.259   5.045 -0.8323 -2.9688 -0.0720
  631MOL0     H85151   2.492   0.212   5.221 -0.0921  0.5480 -1.9292
  631MOL0     H85152   2.410   0.060   5.205 -0.3952  2.4226  3.9538
  631MOL0     H85153   2.693   0.130   5.223  3.7459 -3.7067  0.7785
  631MOL0     H85154   2.610  -0.026   5.254  0.3049  0.8047  2.1467
  631MOL0     H85155   2.760   0.082   5.008 -0.5743  0.2895 -0.1456
  631MOL0     H85156   2.624  -0.009   4.964 -0.6873  0.7851  0.3893
  631MOL0     H85157   2.829  -0.111   5.173 -0.4665  2.0043  0.2129
  631MOL0     H85158   2.853  -0.126   4.993  0.1661 -0.2487  0.6166
  631MOL0     H85159   2.632  -0.231   5.175  1.0244  1.9684  0.9213
  631MOL0     H85160   2.632  -0.257   5.000  1.0121  0.4082 -0.7239
  631MOL0     H85161   2.693  -0.435   5.166 -2.4499  2.6649  1.1168
  631MOL0     H85162   2.842  -0.357   5.199 -0.3200 -0.4527 -0.2017
  631MOL0     H85163   2.852  -0.559   5.037  1.8242 -0.4046 -2.7436
  631MOL0     H85164   2.743  -0.472   4.941 -0.6918 -0.6945  0.7348
  631MOL0     H85165   2.213   0.154   5.152  0.2767 -0.7128  0.8192
  631MOL0     H85166   1.975   0.206   5.127 -0.7274 -0.3765 -0.0335
  631MOL0     H85167   1.571   0.218   5.021 -1.4210  0.2752  0.7055
  631MOL0     H85168   1.351   0.280   4.942 -0.1096 -0.3526  0.1434
  631MOL0     H85169   1.303   0.482   5.329  1.2984 -1.0910 -0.7572
  631MOL0     H85170   1.081   0.510   5.376  0.0238 -0.2188  0.7534
  631MOL0     H85171   0.628   0.493   5.548  0.5788 -3.7933  0.0431
  631MOL0     H85172   0.415   0.449   5.571  0.7764 -0.6316  0.4064
  631MOL0     H85173   0.184   0.413   5.188  0.3505  1.2152 -0.5315
  631MOL0     H85174   0.082   0.481   5.310 -0.3268 -0.8856 -2.1046
  631MOL0     H85175   0.079   0.236   5.417  1.4758  1.3118  0.2032
  631MOL0     H85176   0.163   0.175   5.276  2.6564  3.2078 -2.0704
  631MOL0     H85177  -0.017   0.267   5.145  3.8104  1.5269  1.5240
  631MOL0     H85178  -0.120   0.303   5.284  0.2683  0.8407  0.3442
  631MOL0     H85179  -0.009   0.035   5.193 -0.8958 -0.2485 -1.7975
  631MOL0     H85180  -0.100   0.064   5.345  0.4888 -2.8594 -1.0651
  631MOL0     H85181  -0.444   0.033   5.160 -0.3330 -0.0551 -2.4746
  631MOL0     H85182   0.392   0.360   5.146  2.3727 -3.1823 -1.8253
  631MOL0     H85183   0.695   0.333   5.048 -0.6070 -0.7274 -1.0247
  631MOL0     H85184   0.559   0.443   5.006  0.0351  3.7101  0.3377
  631MOL0     H85185   0.700   0.512   5.072  2.1524 -2.5037 -0.8884
  632MOL0     O85186   5.712  10.958   8.774 -0.1965 -0.0971  0.2259
  632MOL0     C85187   5.602  10.990   8.806 -0.5343 -0.4899  0.1961
  632MOL0     O85188   5.569  11.023   8.931  0.4423 -0.0656  0.4953
  632MOL0     C85189   5.661  11.063   9.024 -1.8550 -0.3313 -0.4902
  632MOL0     C85190   5.710  11.194   9.014 -0.3664 -0.4740  1.2794
  632MOL0     C85191   5.759  11.243   9.127 -0.4919  0.3579  0.3767
  632MOL0     C85192   5.771  11.179   9.251 -1.5242 -0.1715 -0.1017
  632MOL0     O85193   5.846  11.257   9.343 -0.0261  0.1068  0.3453
  632MOL0     C85194   5.870  11.212   9.480 -0.3146 -0.2346 -0.5373
  632MOL0     C85195   5.892  11.328   9.578 -0.1077  0.3511 -0.4480
  632MOL0     C85196   5.772  11.404   9.599 -0.7277 -0.6679 -1.0316
  632MOL0     C85197   5.669  11.333   9.684 -0.6322  0.9398 -0.7716
  632MOL0     C85198   5.567  11.422   9.733 -1.1826  0.3299 -1.0483
  632MOL0     C85199   5.489  11.513   9.627 -0.6239 -0.2138 -0.1069
  632MOL0     C85200   5.364  11.565   9.693 -0.6090 -0.5429  0.3097
  632MOL0     C85201   5.274  11.632   9.590  1.2122 -0.3191 -0.0503
  632MOL0     N85202   5.167  11.703   9.666  0.0686  0.1605 -0.3200
  632MOL0     C85203   5.038  11.673   9.639 -0.1704  0.1164  0.0443
  632MOL0     C85204   4.976  11.744   9.731  0.3568 -0.0330  0.4722
  632MOL0     C85205   4.829  11.735   9.755  0.3291  0.1534  0.1621
  632MOL0     C85206   4.738  11.832   9.691  0.8911 -0.1711 -0.3693
  632MOL0     C85207   4.593  11.815   9.751 -0.2789 -0.7613  0.6794
  632MOL0     C85208   4.505  11.943   9.736 -0.2080 -0.1276  0.2377
  632MOL0     O85209   4.382  11.906   9.789 -0.7475 -0.3695 -0.0288
  632MOL0     C85210   4.262  11.966   9.752 -0.3445  0.1934  0.0554
  632MOL0     C85211   4.263  12.073   9.666 -0.1321 -0.5134 -0.1770
  632MOL0     C85212   4.146  12.135   9.644  0.5617 -0.7536  0.4864
  632MOL0     C85213   4.022  12.090   9.705  0.9146 -0.2615  0.7103
  632MOL0     C85214   3.886  12.156   9.659  0.2406 -0.0779 -0.2219
  632MOL0     O85215   3.901  12.236   9.552 -0.2248  0.0393 -0.5561
  632MOL0     C85216   3.799  12.323   9.518  0.6178 -0.0263  0.5281
  632MOL0     C85217   3.738  12.329   9.387 -0.2637  0.1268  0.3419
  632MOL0     C85218   3.633  12.415   9.361  0.1123 -0.1238  0.4048
  632MOL0     C85219   3.586  12.499   9.446  0.1655 -1.1496 -0.8547
  632MOL0     O85220   3.482  12.587   9.400  0.4575 -0.0732 -0.2661
  632MOL0     C85221   3.518  12.713   9.368  0.5091  0.2015  0.2638
  632MOL0     C85222   3.384  12.782   9.344 -0.5939  0.0669 -0.0619
  632MOL0     C85223   3.408  12.939   9.344  0.0625  0.1025  0.1647
  632MOL0     C85224   3.280  13.012   9.333  0.0865 -0.2434  0.3339
  632MOL0     C85225   3.271  13.152   9.393  0.4869 -0.7248  0.4713
  632MOL0     C85226   3.131  13.206   9.377  0.0683 -0.0379 -0.1759
  632MOL0     C85227   3.112  13.345   9.447  0.5668 -0.0402 -0.0357
  632MOL0     C85228   2.985  13.408   9.406  0.4960  0.4253 -0.3940
  632MOL0    Cl85229   3.035  13.479   9.245  0.4442  0.3547  0.2253
  632MOL0     C85230   3.645  12.504   9.575 -0.1276  0.1836 -0.1151
  632MOL0     C85231   3.749  12.418   9.612  0.0323 -0.0016  1.2235
  632MOL0     O85232   3.783  12.132   9.728 -0.6176  0.0589  0.6237
  632MOL0     C85233   4.023  11.976   9.787  0.0142  0.3512  1.3807
  632MOL0     C85234   4.151  11.917   9.819  0.3572 -0.8541 -0.2084
  632MOL0     N85235   5.062  11.829   9.787  0.3152 -1.0021  0.4913
  632MOL0     N85236   5.182  11.796   9.758 -0.6111  0.7803 -0.3733
  632MOL0     C85237   5.725  11.048   9.259  0.2342  0.7833  1.1718
  632MOL0     C85238   5.676  10.981   9.140  0.2619  0.1195 -0.7579
  632MOL0     C85239   5.485  10.971   8.718  0.6387 -0.6256 -0.3794
  632MOL0     C85240   5.364  11.035   8.753 -0.5752 -0.1400 -0.4752
  632MOL0     C85241   5.265  11.038   8.661 -0.3893 -1.5528  1.1012
  632MOL0     C85242   5.270  10.969   8.539  0.2869 -1.0142 -0.2819
  632MOL0     O85243   5.164  10.971   8.454 -0.5470 -0.2482 -0.1736
  632MOL0     C85244   5.167  10.935   8.311  0.6530 -0.1552 -1.2945
  632MOL0     C85245   5.272  11.018   8.236  0.4635 -0.2839  0.2890
  632MOL0     C85246   5.249  11.003   8.082 -1.6512 -0.1991 -0.3306
  632MOL0     C85247   5.366  11.045   8.003 -0.3233 -0.4842 -0.3960
  632MOL0     C85248   5.346  11.025   7.865  0.0558  0.0185 -0.0573
  632MOL0     C85249   5.354  11.007   7.745  0.7200  0.6644 -0.6056
  632MOL0     C85250   5.374  10.886   8.520 -0.4839  0.2338 -0.1195
  632MOL0     C85251   5.492  10.881   8.605 -0.6405 -0.4720  0.5522
  632MOL0     C85252   5.604  10.790   8.575  0.4868  0.1435  0.4083
  632MOL0     H85253   5.693  11.260   8.929  1.3969 -0.6638  0.7234
  632MOL0     H85254   5.775  11.351   9.119 -0.9982  0.3046 -2.3297
  632MOL0     H85255   5.796  11.142   9.519  0.8727 -0.5611  1.2878
  632MOL0     H85256   5.962  11.152   9.484  1.3261  2.1063 -0.8121
  632MOL0     H85257   5.967  11.396   9.537 -1.5044  2.7059  0.7039
  632MOL0     H85258   5.919  11.286   9.676 -0.2115 -0.2646 -0.6771
  632MOL0     H85259   5.723  11.436   9.507 -4.4056 -3.6259 -0.3745
  632MOL0     H85260   5.788  11.497   9.654  1.4742 -0.4735 -1.9353
  632MOL0     H85261   5.619  11.250   9.633  0.2076  0.1070 -0.2782
  632MOL0     H85262   5.712  11.291   9.775 -4.9524 -2.0937  0.1683
  632MOL0     H85263   5.493  11.366   9.791  1.5286 -2.9485 -0.4124
  632MOL0     H85264   5.612  11.491   9.806 -0.1181  0.2750 -1.6246
  632MOL0     H85265   5.538  11.599   9.579 -0.8853 -0.6111 -1.1266
  632MOL0     H85266   5.461  11.457   9.537  1.4450 -0.7619 -0.4676
  632MOL0     H85267   5.399  11.638   9.767  4.2049 -2.8139  0.6203
  632MOL0     H85268   5.308  11.480   9.734  2.8774 -2.0539  2.3542
  632MOL0     H85269   5.328  11.713   9.539  1.6736 -1.2923 -1.1526
  632MOL0     H85270   5.244  11.567   9.507  1.4289  3.9651 -3.9560
  632MOL0     H85271   4.996  11.588   9.586  0.1377  0.9839 -1.6440
  632MOL0     H85272   4.810  11.632   9.724  2.2107 -0.2564  0.2854
  632MOL0     H85273   4.800  11.731   9.860 -1.5902 -0.7649 -0.3419
  632MOL0     H85274   4.765  11.937   9.705 -0.8678  0.3311 -0.5181
  632MOL0     H85275   4.742  11.814   9.583  0.1736 -3.4127  0.0274
  632MOL0     H85276   4.586  11.804   9.860 -3.8338  0.2208  0.6871
  632MOL0     H85277   4.531  11.742   9.699 -2.7726  3.1660 -2.4744
  632MOL0     H85278   4.499  11.983   9.635 -4.0497 -0.6569  0.1159
  632MOL0     H85279   4.553  12.024   9.791  1.6272 -2.4551  2.3530
  632MOL0     H85280   4.354  12.108   9.618 -0.7844  0.6463 -0.5900
  632MOL0     H85281   4.167  12.217   9.575  3.0498  0.1976  2.2219
  632MOL0     H85282   3.778  12.260   9.314  2.5650  2.8356 -0.9282
  632MOL0     H85283   3.591  12.407   9.261 -0.6910  1.4191  0.5922
  632MOL0     H85284   3.570  12.744   9.459 -2.5418  1.9796  1.5709
  632MOL0     H85285   3.591  12.707   9.288  0.3226 -1.2084  0.1672
  632MOL0     H85286   3.336  12.754   9.250 -0.7714  2.2199 -0.6579
  632MOL0     H85287   3.324  12.768   9.435 -4.7406  1.2572 -2.3675
  632MOL0     H85288   3.450  12.963   9.442 -1.8426 -3.4010  2.0349
  632MOL0     H85289   3.489  12.967   9.276 -0.3327 -1.2638 -0.9129
  632MOL0     H85290   3.193  12.955   9.367 -1.4706  1.2574 -0.9235
  632MOL0     H85291   3.264  13.021   9.225  3.3979  0.7872 -0.1904
  632MOL0     H85292   3.335  13.216   9.330 -0.5993 -2.0120 -2.1089
  632MOL0     H85293   3.308  13.151   9.496  1.5070 -2.0948  0.1163
  632MOL0     H85294   3.122  13.222   9.269  3.1054 -1.0905 -0.6641
  632MOL0     H85295   3.052  13.136   9.406  1.2625 -1.2673  0.1756
  632MOL0     H85296   3.197  13.410   9.424  0.5377  1.2993  3.1868
  632MOL0     H85297   3.113  13.333   9.555  0.5048  0.5490  0.0339
  632MOL0     H85298   2.899  13.341   9.395 -2.2366  3.7205 -0.7108
  632MOL0     H85299   2.963  13.492   9.472  1.3167  2.2901 -2.3573
  632MOL0     H85300   3.613  12.581   9.645  1.3527  1.1211 -0.4374
  632MOL0     H85301   3.804  12.420   9.705  0.7117 -2.5517  0.9588
  632MOL0     H85302   3.932  11.935   9.829 -0.2301  2.2874  2.8944
  632MOL0     H85303   4.164  11.837   9.891 -3.0108 -1.6366 -0.2884
  632MOL0     H85304   5.752  10.981   9.340  1.1183 -2.7309 -1.7621
  632MOL0     H85305   5.638  10.880   9.146 -2.0102  0.9405 -0.3722
  632MOL0     H85306   5.350  11.087   8.847  0.8214 -2.8682  1.3711
  632MOL0     H85307   5.179  11.102   8.677 -0.3750  0.2761 -4.1185
  632MOL0     H85308   5.071  10.962   8.266  2.2165  2.4322 -3.3067
  632MOL0     H85309   5.165  10.825   8.306 -2.3847 -0.2636 -0.0647
  632MOL0     H85310   5.373  10.987   8.266 -0.2562 -1.4848  1.5541
  632MOL0     H85311   5.254  11.121   8.268  0.6880 -0.0279 -0.3926
  632MOL0     H85312   5.160  11.064   8.064 -1.4540  0.3982  0.6620
  632MOL0     H85313   5.232  10.896   8.066 -0.2111 -0.1279 -2.8180
  632MOL0     H85314   5.387  11.152   8.015  0.5103 -0.7175  0.3871
  632MOL0     H85315   5.455  10.997   8.043  0.7932  0.9853 -1.0236
  632MOL0     H85316   5.380  10.995   7.642  2.7666  4.3334 -0.7098
  632MOL0     H85317   5.371  10.823   8.432 -0.5459 -0.1346  0.1463
  632MOL0     H85318   5.618  10.707   8.645 -0.5970 -2.2925 -2.0852
  632MOL0     H85319   5.576  10.735   8.485  1.8154 -1.7319  1.0720
  632MOL0     H85320   5.698  10.842   8.557  0.4664  1.0424  2.5733
  633MOL0     O85321   9.498   6.222   2.039 -0.0961  0.3771 -0.3458
  633MOL0     C85322   9.497   6.208   2.161  0.3164  0.2471 -0.3175
  633MOL0     O85323   9.416   6.122   2.235 -0.7000  0.6561 -0.3476
  633MOL0     C85324   9.336   6.023   2.184  0.3360  0.2448  0.3367
  633MOL0     C85325   9.242   5.974   2.273  0.1626  0.3627 -0.7129
  633MOL0     C85326   9.147   5.866   2.244 -0.6795 -0.3019  0.0220
  633MOL0     C85327   9.170   5.796   2.128  0.9330  1.2970  0.0014
  633MOL0     O85328   9.095   5.685   2.089 -0.6213 -0.3335 -0.5953
  633MOL0     C85329   9.013   5.627   2.189  0.1547  0.2922  0.0615
  633MOL0     C85330   8.961   5.499   2.132  0.0992 -0.0766  0.1413
  633MOL0     C85331   8.838   5.436   2.204  0.7175  1.0015 -0.1443
  633MOL0     C85332   8.738   5.364   2.113  1.2200  0.3734 -1.0808
  633MOL0     C85333   8.687   5.236   2.187 -0.7656  0.5263 -0.9306
  633MOL0     C85334   8.594   5.132   2.100  0.0841 -0.0360  0.0656
  633MOL0     C85335   8.497   5.211   2.020 -0.3184 -0.7944 -0.3120
  633MOL0     C85336   8.359   5.147   2.043  0.3044 -0.0360  0.0369
  633MOL0     N85337   8.334   5.049   1.932  0.0472  0.9041  0.0990
  633MOL0     C85338   8.297   5.075   1.801  0.7578  0.4441  0.4171
  633MOL0     C85339   8.286   4.963   1.735  0.4746  0.3648  0.1970
  633MOL0     C85340   8.251   4.926   1.592  0.5650 -0.0715 -0.8501
  633MOL0     C85341   8.093   4.929   1.568  0.4841 -0.2700 -0.1584
  633MOL0     C85342   8.021   4.822   1.663 -0.0755 -0.1115 -0.1413
  633MOL0     C85343   8.058   4.671   1.641 -0.3352 -0.4129  0.5617
  633MOL0     O85344   8.066   4.625   1.511  0.2129 -0.2179  0.1264
  633MOL0     C85345   7.955   4.614   1.421 -0.1777 -0.1622 -0.6478
  633MOL0     C85346   7.970   4.630   1.282  0.0890  0.4909 -0.3344
  633MOL0     C85347   7.854   4.617   1.201  0.4319 -0.8046 -0.7953
  633MOL0     C85348   7.730   4.579   1.251  0.0964  0.2893  0.3020
  633MOL0     C85349   7.616   4.545   1.155 -0.0034  0.7380  0.5819
  633MOL0     O85350   7.641   4.537   1.023  0.8289  0.2889  0.1541
  633MOL0     C85351   7.545   4.488   0.937  0.3257  0.3532 -0.0672
  633MOL0     C85352   7.444   4.388   0.966  0.1638 -1.4217 -0.3354
  633MOL0     C85353   7.364   4.337   0.864  0.5085 -0.3923 -0.8305
  633MOL0     C85354   7.362   4.386   0.731 -0.0672 -0.0828 -0.4223
  633MOL0     O85355   7.274   4.336   0.641 -0.0903  0.4878  0.1149
  633MOL0     C85356   7.322   4.318   0.507 -0.8356 -0.5159 -0.3085
  633MOL0     C85357   7.258   4.194   0.456 -0.4613 -0.0205 -0.0873
  633MOL0     C85358   7.109   4.185   0.477  0.4659 -0.7131 -0.2428
  633MOL0     C85359   7.041   4.082   0.384 -0.6777 -0.1380  0.0925
  633MOL0     C85360   7.095   3.930   0.393  0.2404 -0.2198  0.3128
  633MOL0     C85361   7.066   3.855   0.253  1.1380 -1.2002 -0.7239
  633MOL0     C85362   7.120   3.712   0.263  0.2790 -0.3996 -0.3633
  633MOL0     C85363   7.271   3.702   0.261  0.1029 -0.2223 -0.6932
  633MOL0    Cl85364   7.348   3.818   0.144  0.2153  0.0364 -0.0952
  633MOL0     C85365   7.455   4.488   0.709  0.2729 -0.7064 -0.7355
  633MOL0     C85366   7.553   4.529   0.807 -0.1530 -0.1189  0.4892
  633MOL0     O85367   7.508   4.528   1.207 -1.3538 -0.1130 -0.5447
  633MOL0     C85368   7.710   4.569   1.387 -0.8022 -0.9725 -0.0899
  633MOL0     C85369   7.823   4.580   1.473  0.3140 -0.1262  0.2148
  633MOL0     N85370   8.321   4.869   1.827  0.3322 -1.0439 -0.4744
  633MOL0     N85371   8.360   4.917   1.941 -0.4399  0.1424 -0.4882
  633MOL0     C85372   9.277   5.832   2.046  0.1654 -0.0051 -0.0319
  633MOL0     C85373   9.351   5.955   2.066  0.6945  0.1532  0.6708
  633MOL0     C85374   9.592   6.293   2.242  0.6770  0.1004 -0.0706
  633MOL0     C85375   9.573   6.293   2.389 -0.2023  0.8791 -1.4327
  633MOL0     C85376   9.651   6.363   2.473 -0.5797 -0.4647  1.1508
  633MOL0     C85377   9.724   6.468   2.424 -0.3163  0.4182  0.5593
  633MOL0     O85378   9.800   6.537   2.523 -0.9057 -0.6719  0.3790
  633MOL0     C85379   9.938   6.576   2.513 -0.3972  0.3486  0.0089
  633MOL0     C85380  10.042   6.461   2.517 -0.4202 -0.1860  0.2358
  633MOL0     C85381  10.037   6.393   2.649  0.4755  0.4992 -0.7422
  633MOL0     C85382  10.182   6.352   2.707 -0.2730 -0.7307  0.5933
  633MOL0     C85383  10.179   6.261   2.817 -0.2431  1.2687 -0.1687
  633MOL0     C85384  10.175   6.185   2.909  0.3688  0.0263 -0.3685
  633MOL0     C85385   9.749   6.466   2.288 -0.3141 -0.4016  0.7222
  633MOL0     C85386   9.689   6.382   2.191 -0.2237  0.1799  0.1311
  633MOL0     C85387   9.732   6.397   2.048 -0.6823 -0.2394  1.0123
  633MOL0     H85388   9.235   6.014   2.374  1.7675  0.9376 -0.8122
  633MOL0     H85389   9.071   5.848   2.319  0.0868 -0.4155  0.7819
  633MOL0     H85390   9.077   5.606   2.275  2.0277  1.7293 -0.9090
  633MOL0     H85391   8.932   5.695   2.218 -1.8546 -1.2021 -1.7020
  633MOL0     H85392   9.044   5.428   2.123  0.3970  0.2810  0.0377
  633MOL0     H85393   8.931   5.519   2.029  0.0144  1.7859  0.5036
  633MOL0     H85394   8.784   5.510   2.263  1.7065 -0.0350  2.1858
  633MOL0     H85395   8.869   5.369   2.285 -0.5859 -1.8413 -1.8336
  633MOL0     H85396   8.657   5.433   2.090  1.7395  0.9797 -1.1401
  633MOL0     H85397   8.775   5.340   2.013 -2.1213 -0.1500 -2.3074
  633MOL0     H85398   8.764   5.177   2.237 -2.1033 -0.3824  0.1504
  633MOL0     H85399   8.627   5.261   2.275  1.7869 -0.4687  1.2116
  633MOL0     H85400   8.653   5.077   2.026 -0.5223 -1.0128  0.2923
  633MOL0     H85401   8.539   5.067   2.168  0.7509 -1.5983 -0.8279
  633MOL0     H85402   8.526   5.197   1.916  1.2082  2.9562 -0.5249
  633MOL0     H85403   8.486   5.318   2.041  1.5641 -0.4966 -0.7177
  633MOL0     H85404   8.332   5.108   2.142 -3.5969  0.7016 -0.5407
  633MOL0     H85405   8.289   5.231   2.032 -1.6217 -1.8308 -2.9448
  633MOL0     H85406   8.277   5.173   1.759  0.4249 -0.8852 -2.8062
  633MOL0     H85407   8.289   5.003   1.525  0.3446 -1.0674 -2.1458
  633MOL0     H85408   8.291   4.826   1.576 -1.6803 -1.1577 -0.1583
  633MOL0     H85409   8.066   5.035   1.579  1.8052  0.1803 -0.9149
  633MOL0     H85410   8.064   4.914   1.464 -2.8088  2.2729  0.2399
  633MOL0     H85411   7.916   4.840   1.640  1.0773  2.8969 -4.1349
  633MOL0     H85412   8.058   4.845   1.764 -0.1394  3.1673 -0.7569
  633MOL0     H85413   7.984   4.611   1.693 -0.0456 -1.4764 -0.2256
  633MOL0     H85414   8.158   4.655   1.684  1.2053  0.5629 -2.4060
  633MOL0     H85415   8.072   4.635   1.244 -0.2057 -1.8611 -1.5999
  633MOL0     H85416   7.864   4.635   1.095 -2.6463 -1.2705 -1.2537
  633MOL0     H85417   7.428   4.356   1.069  0.6486 -0.7928 -0.0523
  633MOL0     H85418   7.302   4.249   0.879  1.5198 -1.3372 -2.0000
  633MOL0     H85419   7.290   4.400   0.442 -1.9237 -0.9201 -0.2886
  633MOL0     H85420   7.431   4.319   0.498 -0.9233  2.7445 -3.8263
  633MOL0     H85421   7.295   4.180   0.354 -0.9414  0.3680 -0.3192
  633MOL0     H85422   7.304   4.118   0.521  1.5514  1.2457  0.0549
  633MOL0     H85423   7.087   4.152   0.579 -1.1017 -0.6024 -0.5209
  633MOL0     H85424   7.063   4.280   0.449  2.6559 -0.4721 -3.6542
  633MOL0     H85425   7.063   4.131   0.289 -0.5595 -1.9496 -0.8633
  633MOL0     H85426   6.934   4.086   0.404 -0.7774 -2.8679  0.5085
  633MOL0     H85427   7.035   3.880   0.471 -0.5904  1.1098  0.5700
  633MOL0     H85428   7.203   3.926   0.408  0.0734 -0.2015  1.7189
  633MOL0     H85429   6.960   3.865   0.228  1.3902 -1.8330 -2.1830
  633MOL0     H85430   7.117   3.917   0.178 -1.0417  3.0067  0.9737
  633MOL0     H85431   7.075   3.658   0.179 -3.6331  0.2390  1.1170
  633MOL0     H85432   7.072   3.666   0.350  0.5179  1.7083  0.9533
  633MOL0     H85433   7.309   3.726   0.361 -0.2240 -0.0476 -0.6075
  633MOL0     H85434   7.309   3.600   0.253  2.3074  0.3949  0.9127
  633MOL0     H85435   7.463   4.522   0.606  1.9895  0.2369 -0.3292
  633MOL0     H85436   7.632   4.600   0.784 -1.1501  1.8711  2.7927
  633MOL0     H85437   7.614   4.535   1.423 -1.7496 -1.4429 -2.8190
  633MOL0     H85438   7.821   4.549   1.577  3.1798  0.2063  0.4394
  633MOL0     H85439   9.293   5.778   1.953  0.8547  0.0994  0.0224
  633MOL0     H85440   9.419   5.985   1.987  1.0048  1.7763  1.5104
  633MOL0     H85441   9.490   6.231   2.423 -0.0830  0.8081 -1.2743
  633MOL0     H85442   9.657   6.340   2.578  0.7756 -0.5098  1.0787
  633MOL0     H85443   9.961   6.638   2.600  0.7629 -0.2021  0.1119
  633MOL0     H85444   9.953   6.636   2.423  0.8437 -0.3869 -0.2962
  633MOL0     H85445  10.139   6.506   2.498 -0.9622  1.5480  1.3575
  633MOL0     H85446  10.021   6.388   2.438  2.1922 -0.0684 -0.6574
  633MOL0     H85447   9.989   6.295   2.651 -0.2920  0.8389  2.0744
  633MOL0     H85448   9.998   6.456   2.730  2.7272  0.3676  0.5263
  633MOL0     H85449  10.249   6.324   2.625  2.0795  2.3341  1.2822
  633MOL0     H85450  10.234   6.443   2.738 -0.3328 -0.5967  0.3156
  633MOL0     H85451  10.171   6.124   2.996 -3.7465  2.7979  1.7068
  633MOL0     H85452   9.807   6.548   2.248 -0.4010 -0.7981 -0.2323
  633MOL0     H85453   9.815   6.465   2.029  1.2086 -2.7657 -0.3433
  633MOL0     H85454   9.771   6.300   2.016  0.1274  0.5141 -0.4011
  633MOL0     H85455   9.641   6.425   1.992 -0.7232 -0.0712  1.1636
  634MOL0     O85456  10.632   5.700   2.896 -0.1331 -0.0537  0.2095
  634MOL0     C85457  10.516   5.664   2.925  0.4978  0.3392 -0.7190
  634MOL0     O85458  10.429   5.749   2.983 -0.3723 -0.3502  0.4674
  634MOL0     C85459  10.459   5.880   3.007  0.0242  1.0965 -0.0814
  634MOL0     C85460  10.451   5.962   2.892  0.8433  0.3689 -0.9071
  634MOL0     C85461  10.489   6.091   2.907 -0.0506 -0.3900 -0.3491
  634MOL0     C85462  10.533   6.139   3.029 -0.5937 -0.3773  0.0052
  634MOL0     O85463  10.577   6.273   3.039 -0.1285  0.3693 -0.2581
  634MOL0     C85464  10.704   6.313   3.092  0.0722  0.8797  0.9138
  634MOL0     C85465  10.713   6.455   3.135  0.5645 -0.4928 -0.9447
  634MOL0     C85466  10.649   6.557   3.048 -0.5218  0.1300  0.1736
  634MOL0     C85467  10.668   6.704   3.085  0.0065  0.1790 -0.3654
  634MOL0     C85468  10.658   6.815   2.970 -0.9136 -0.4773 -0.8666
  634MOL0     C85469  10.661   6.952   3.038 -0.4518 -0.0340 -0.5308
  634MOL0     C85470  10.700   7.068   2.941 -0.2408  1.5573 -0.6603
  634MOL0     C85471  10.603   7.071   2.817 -0.2767  0.3147 -0.7292
  634MOL0     N85472  10.653   7.171   2.727 -0.2094 -0.8336 -0.0471
  634MOL0     C85473  10.737   7.149   2.619 -0.0185 -0.8719 -0.0462
  634MOL0     C85474  10.731   7.268   2.548  0.7653 -0.4415  0.7357
  634MOL0     C85475  10.796   7.313   2.422  0.5706 -0.9914 -1.2984
  634MOL0     C85476  10.727   7.276   2.294 -0.1723 -0.3806  0.6813
  634MOL0     C85477  10.657   7.395   2.226 -0.3131  0.2050 -0.5190
  634MOL0     C85478  10.543   7.471   2.306 -0.8145  0.4274  0.3217
  634MOL0     O85479  10.487   7.563   2.221 -0.0128  0.5818  0.7818
  634MOL0     C85480  10.352   7.570   2.250 -0.2380  0.3372  0.1731
  634MOL0     C85481  10.262   7.461   2.242 -0.0580 -0.0149 -0.1242
  634MOL0     C85482  10.122   7.484   2.276  0.2049  0.5141 -0.7006
  634MOL0     C85483  10.068   7.600   2.333  0.1048  0.3818  0.2593
  634MOL0     C85484   9.927   7.605   2.362  0.3447 -0.5285 -0.0184
  634MOL0     O85485   9.853   7.492   2.350 -1.3599  0.1710 -0.1138
  634MOL0     C85486   9.722   7.482   2.372  0.3438  0.7441  0.0331
  634MOL0     C85487   9.668   7.350   2.387  0.1761 -0.9961  0.4863
  634MOL0     C85488   9.529   7.328   2.391 -0.6495 -1.6357  0.1245
  634MOL0     C85489   9.434   7.434   2.387 -0.0009  0.7265  0.0065
  634MOL0     O85490   9.296   7.412   2.382  0.3034  0.4971  0.8869
  634MOL0     C85491   9.242   7.276   2.400  0.7712  0.5592 -1.0072
  634MOL0     C85492   9.248   7.217   2.539 -0.3010  0.0029  0.5691
  634MOL0     C85493   9.249   7.062   2.551 -0.5883  0.8059 -1.4560
  634MOL0     C85494   9.291   7.016   2.698  0.1678 -0.0464  0.6263
  634MOL0     C85495   9.317   6.872   2.716 -0.9104  0.0819  0.4500
  634MOL0     C85496   9.414   6.844   2.835  0.5409  0.3295  0.3982
  634MOL0     C85497   9.422   6.690   2.859  0.3923 -0.4223  0.3291
  634MOL0     C85498   9.520   6.619   2.767 -0.3052 -0.4146  0.2925
  634MOL0    Cl85499   9.679   6.646   2.816 -0.0675 -0.4485  0.3401
  634MOL0     C85500   9.487   7.558   2.362 -0.1995  0.2716 -0.0414
  634MOL0     C85501   9.630   7.580   2.350 -0.2279 -0.3418  0.1397
  634MOL0     O85502   9.893   7.710   2.421 -0.1939 -0.5551 -1.1691
  634MOL0     C85503  10.159   7.704   2.352 -0.5468  1.0762  0.9321
  634MOL0     C85504  10.294   7.689   2.309  0.1859 -0.3292 -0.1185
  634MOL0     N85505  10.654   7.361   2.616  0.5626 -0.9986 -0.4245
  634MOL0     N85506  10.599   7.299   2.725 -0.6082  0.1609  0.2019
  634MOL0     C85507  10.527   6.056   3.142 -0.4603 -0.2883 -0.2787
  634MOL0     C85508  10.502   5.924   3.130  1.1086  1.9528  0.3191
  634MOL0     C85509  10.476   5.516   2.916 -0.9125  0.0820 -0.7034
  634MOL0     C85510  10.388   5.467   3.013  0.3795  0.1600 -0.1979
  634MOL0     C85511  10.329   5.339   3.015  0.7876  0.3823  1.1020
  634MOL0     C85512  10.388   5.246   2.921  0.6510 -0.4733 -0.1685
  634MOL0     O85513  10.353   5.112   2.916  0.0362 -0.6759  0.2767
  634MOL0     C85514  10.317   5.057   3.039  1.2363  0.1817 -0.3716
  634MOL0     C85515  10.158   5.072   3.062 -0.1393  0.4378  0.8666
  634MOL0     C85516  10.114   5.097   3.207  0.3011 -0.9837  0.3853
  634MOL0     C85517  10.074   4.977   3.304 -0.5515 -0.5435  0.7195
  634MOL0     C85518   9.982   4.881   3.248  0.0798 -0.1419  0.8538
  634MOL0     C85519   9.896   4.812   3.190 -1.0310 -0.2301  0.4741
  634MOL0     C85520  10.482   5.294   2.829  0.2068  0.7336 -1.3602
  634MOL0     C85521  10.529   5.425   2.827  0.2380  0.2662 -1.1323
  634MOL0     C85522  10.623   5.467   2.708 -0.3524  0.0512 -0.6882
  634MOL0     H85523  10.413   5.923   2.798  0.3437 -0.4039 -0.3969
  634MOL0     H85524  10.484   6.156   2.821  0.3645  0.1206  0.0038
  634MOL0     H85525  10.724   6.251   3.179 -0.6871  1.4938  1.5343
  634MOL0     H85526  10.786   6.272   3.031  0.7548  1.6843  1.2623
  634MOL0     H85527  10.818   6.482   3.151  0.1381 -0.2282  1.9296
  634MOL0     H85528  10.675   6.469   3.236 -0.3694  0.7075 -1.4429
  634MOL0     H85529  10.545   6.535   3.023  0.0525 -0.5050 -1.8893
  634MOL0     H85530  10.701   6.547   2.952 -1.1539 -1.3420 -0.0488
  634MOL0     H85531  10.589   6.724   3.159  1.2373  1.6903  0.5976
  634MOL0     H85532  10.765   6.707   3.135  0.0733  1.0328 -0.5287
  634MOL0     H85533  10.747   6.804   2.907  0.8671 -3.7055  1.8918
  634MOL0     H85534  10.567   6.802   2.910 -0.6951 -1.9082 -0.9376
  634MOL0     H85535  10.567   6.959   3.094  1.2725 -0.5835  2.6340
  634MOL0     H85536  10.740   6.956   3.113 -0.8892 -0.0540 -0.0635
  634MOL0     H85537  10.802   7.059   2.905 -1.1029  0.5415 -3.0362
  634MOL0     H85538  10.700   7.166   2.991  1.0405  1.4678 -0.4605
  634MOL0     H85539  10.585   6.977   2.763  1.9868  1.1493 -3.1715
  634MOL0     H85540  10.504   7.089   2.859  0.5251  1.9014  0.5634
  634MOL0     H85541  10.795   7.059   2.607  0.8283 -1.0661  3.9772
  634MOL0     H85542  10.805   7.420   2.442 -3.3570 -0.4978 -1.3916
  634MOL0     H85543  10.897   7.271   2.421  0.9452 -0.2108  0.3013
  634MOL0     H85544  10.803   7.244   2.223 -1.2411  0.6794 -0.9901
  634MOL0     H85545  10.666   7.186   2.310  3.0109 -3.3230 -2.1362
  634MOL0     H85546  10.604   7.357   2.138 -0.8636  1.0550 -0.5627
  634MOL0     H85547  10.736   7.466   2.198 -2.7153  4.1057  1.6207
  634MOL0     H85548  10.582   7.529   2.391  2.2262  1.9996 -1.9247
  634MOL0     H85549  10.480   7.391   2.347  0.5143 -0.3269  0.9557
  634MOL0     H85550  10.298   7.365   2.207 -0.2582 -0.7449  1.6023
  634MOL0     H85551  10.060   7.395   2.272  0.9695 -0.0243 -0.8811
  634MOL0     H85552   9.741   7.269   2.384  3.7715  2.0007 -0.5445
  634MOL0     H85553   9.506   7.223   2.400  4.0127 -2.8289  0.5983
  634MOL0     H85554   9.140   7.268   2.362  0.5514  2.0705 -0.7986
  634MOL0     H85555   9.291   7.219   2.320 -1.6452  0.6859 -2.6777
  634MOL0     H85556   9.340   7.256   2.584 -1.8488  1.3800  2.7700
  634MOL0     H85557   9.165   7.246   2.604  0.9096 -2.1240  3.2577
  634MOL0     H85558   9.149   7.020   2.533 -2.2600  3.9393 -0.2898
  634MOL0     H85559   9.318   7.021   2.477 -1.3002  1.0793 -2.2886
  634MOL0     H85560   9.214   7.047   2.769  1.9703 -3.5230  4.5534
  634MOL0     H85561   9.388   7.066   2.709 -0.6079  1.7583 -0.2889
  634MOL0     H85562   9.367   6.833   2.627  2.7133 -1.8886  3.0444
  634MOL0     H85563   9.218   6.827   2.726 -2.3408  2.9633  0.1888
  634MOL0     H85564   9.512   6.882   2.808  0.6584 -2.1237 -3.3627
  634MOL0     H85565   9.373   6.883   2.928 -1.6010 -0.5110 -0.1115
  634MOL0     H85566   9.322   6.647   2.861 -0.9564  2.3775 -1.0048
  634MOL0     H85567   9.468   6.664   2.954  2.1902 -2.0802 -0.9139
  634MOL0     H85568   9.505   6.511   2.775  1.2539 -0.6587  0.1286
  634MOL0     H85569   9.506   6.643   2.662 -0.7404 -0.5136  0.3255
  634MOL0     H85570   9.427   7.648   2.361 -1.1039 -0.2989  0.8494
  634MOL0     H85571   9.653   7.684   2.327 -1.2869 -0.2398 -0.5061
  634MOL0     H85572  10.125   7.799   2.392  0.6235  1.3979  1.1888
  634MOL0     H85573  10.355   7.778   2.318  2.1050 -1.5078 -1.0133
  634MOL0     H85574  10.564   6.108   3.229  3.6610  0.5902 -2.2980
  634MOL0     H85575  10.514   5.858   3.216 -1.6888  0.7877 -0.0945
  634MOL0     H85576  10.328   5.527   3.082 -1.5256 -0.8289 -0.9408
  634MOL0     H85577  10.252   5.313   3.087  0.2043  2.1001  1.1412
  634MOL0     H85578  10.366   5.109   3.122  0.1014  2.6872 -1.1529
  634MOL0     H85579  10.336   4.950   3.031  4.7711  0.5033  1.4685
  634MOL0     H85580  10.109   4.980   3.029 -2.7350  0.6434  3.6543
  634MOL0     H85581  10.122   5.161   3.009 -1.9060 -1.3637 -1.1223
  634MOL0     H85582  10.027   5.162   3.204  3.0761  3.1793  2.0094
  634MOL0     H85583  10.198   5.140   3.261 -0.1936 -0.5331  0.7994
  634MOL0     H85584  10.158   4.912   3.332 -1.1357 -2.7871 -2.2626
  634MOL0     H85585  10.031   5.012   3.398  0.9629  0.7290  0.9753
  634MOL0     H85586   9.812   4.774   3.135 -2.2033  0.8292  1.4611
  634MOL0     H85587  10.524   5.215   2.766 -0.0899  0.9163 -1.7917
  634MOL0     H85588  10.594   5.409   2.620  1.5105  3.5971 -3.9174
  634MOL0     H85589  10.610   5.569   2.672 -0.1255 -0.1255 -1.2753
  634MOL0     H85590  10.728   5.457   2.738 -0.2408 -1.2267 -1.4438
  635MOL0     O85591   0.017   9.012   7.644 -0.0644  0.1129  0.1517
  635MOL0     C85592   0.095   8.968   7.725 -0.1462  0.1331 -1.0192
  635MOL0     O85593   0.222   9.006   7.740  0.3411 -0.2719 -0.7100
  635MOL0     C85594   0.280   9.102   7.674  0.9893 -0.4317 -0.0282
  635MOL0     C85595   0.218   9.229   7.675  0.2284  0.3111 -0.4219
  635MOL0     C85596   0.269   9.335   7.597 -0.4749  0.5711 -0.8696
  635MOL0     C85597   0.396   9.318   7.542 -0.9607  1.0339 -0.6647
  635MOL0     O85598   0.458   9.417   7.486 -0.3992 -0.6611 -0.0923
  635MOL0     C85599   0.453   9.562   7.527  0.2419  0.7820 -0.2134
  635MOL0     C85600   0.518   9.588   7.662  0.1388  0.3702  0.8298
  635MOL0     C85601   0.562   9.731   7.684  0.2704  1.0557  0.2186
  635MOL0     C85602   0.646   9.736   7.818  0.5958  0.4024  0.2016
  635MOL0     C85603   0.687   9.889   7.849 -0.2896  0.5035 -0.2024
  635MOL0     C85604   0.782   9.951   7.745  0.9608 -0.4334 -0.0607
  635MOL0     C85605   0.918   9.880   7.729  0.1786 -0.0810 -0.1072
  635MOL0     C85606   0.999   9.952   7.623 -0.6133  0.6597 -0.4267
  635MOL0     N85607   1.083  10.060   7.678  0.1608  0.4864 -0.1660
  635MOL0     C85608   1.041  10.194   7.709  0.0984  1.0348 -0.0178
  635MOL0     C85609   1.146  10.258   7.755  0.3258 -0.5947  0.3560
  635MOL0     C85610   1.148  10.405   7.803 -0.3515  0.3500  0.2955
  635MOL0     C85611   1.136  10.505   7.687  0.0869 -0.5540 -1.0192
  635MOL0     C85612   1.259  10.523   7.599  0.1270 -0.0291  0.1773
  635MOL0     C85613   1.326  10.655   7.624  0.7909 -0.8577  0.3069
  635MOL0     O85614   1.385  10.663   7.751  1.2209  0.2993 -0.1894
  635MOL0     C85615   1.435  10.789   7.786 -0.2029  0.4413 -0.4412
  635MOL0     C85616   1.502  10.888   7.706  0.8526 -0.3753 -0.3080
  635MOL0     C85617   1.555  11.009   7.765  0.3993  0.7611 -0.1279
  635MOL0     C85618   1.530  11.039   7.907 -0.3699  0.1665  0.3000
  635MOL0     C85619   1.572  11.166   7.969  0.7306 -0.5996  0.2578
  635MOL0     O85620   1.626  11.261   7.890 -0.1046  0.0146  0.6577
  635MOL0     C85621   1.619  11.391   7.914  0.6956 -0.7611 -0.0265
  635MOL0     C85622   1.518  11.458   7.994  0.2917  0.9338 -0.1040
  635MOL0     C85623   1.516  11.590   8.017 -1.1249 -1.0558  0.4040
  635MOL0     C85624   1.630  11.667   7.983 -0.6128  0.2986 -0.1758
  635MOL0     O85625   1.632  11.801   8.001  0.5094  0.1562 -0.2193
  635MOL0     C85626   1.753  11.874   8.004  0.7037  0.2251 -0.4063
  635MOL0     C85627   1.720  11.994   8.107  0.3691 -0.1274  0.3551
  635MOL0     C85628   1.825  12.100   8.132  0.5113 -0.1706  0.1792
  635MOL0     C85629   1.766  12.203   8.231  0.0521  0.5206 -0.3755
  635MOL0     C85630   1.867  12.318   8.244 -0.5885  0.3199  0.4136
  635MOL0     C85631   1.802  12.429   8.328 -0.5536 -0.2784  0.0131
  635MOL0     C85632   1.917  12.505   8.386 -0.8763 -0.7128 -0.9766
  635MOL0     C85633   1.876  12.650   8.430  0.3127 -0.2458 -0.0435
  635MOL0    Cl85634   2.010  12.735   8.503  0.2631 -0.3137 -0.2728
  635MOL0     C85635   1.727  11.601   7.904 -0.1639 -0.2691  0.9412
  635MOL0     C85636   1.720  11.470   7.871  0.3300 -0.1527  0.6311
  635MOL0     O85637   1.545  11.182   8.086 -0.3132  0.1020 -0.2509
  635MOL0     C85638   1.479  10.942   7.983  0.2744  0.7561 -0.5260
  635MOL0     C85639   1.431  10.820   7.931  0.1395  0.6995  0.3215
  635MOL0     N85640   1.255  10.174   7.727  0.5059  1.0037 -0.4049
  635MOL0     N85641   1.216  10.058   7.689 -0.6523  0.8359  0.1279
  635MOL0     C85642   0.468   9.193   7.544 -0.8373  0.4337  0.2102
  635MOL0     C85643   0.398   9.081   7.600  0.1567 -0.4931 -0.3340
  635MOL0     C85644   0.044   8.855   7.814  0.3255 -0.0645  1.0967
  635MOL0     C85645   0.137   8.756   7.851  0.1897  0.0179 -1.5841
  635MOL0     C85646   0.099   8.641   7.923 -1.1650  0.3067  1.6471
  635MOL0     C85647  -0.032   8.622   7.968  0.1353 -0.6238  0.1180
  635MOL0     O85648  -0.069   8.511   8.043  0.4170 -0.0830  0.0500
  635MOL0     C85649   0.037   8.439   8.107  0.0848  0.5986 -0.2078
  635MOL0     C85650  -0.030   8.319   8.183  0.0147 -0.1231  0.2618
  635MOL0     C85651   0.058   8.215   8.260 -0.4683 -0.8209 -0.6339
  635MOL0     C85652   0.201   8.218   8.215 -0.3913  0.7095  0.3665
  635MOL0     C85653   0.282   8.132   8.310 -0.0139 -0.4875  0.2463
  635MOL0     C85654   0.362   8.084   8.385 -0.0654  0.2280  0.0624
  635MOL0     C85655  -0.124   8.716   7.930 -0.3380  0.0535 -0.0457
  635MOL0     C85656  -0.086   8.840   7.861 -0.4433  0.9903 -0.4506
  635MOL0     C85657  -0.200   8.940   7.841  0.2146  0.7086  1.1356
  635MOL0     H85658   0.121   9.251   7.720  0.2626  1.4037 -0.8509
  635MOL0     H85659   0.208   9.424   7.582  0.6900  1.3949 -0.8600
  635MOL0     H85660   0.496   9.617   7.443 -0.2814  2.5327  0.6037
  635MOL0     H85661   0.349   9.597   7.523 -0.8164 -2.0190  0.3391
  635MOL0     H85662   0.607   9.526   7.676  0.8089  0.9959 -0.4668
  635MOL0     H85663   0.448   9.560   7.741 -0.9716 -1.2088 -0.6251
  635MOL0     H85664   0.472   9.792   7.693 -2.4782 -1.9532 -3.4208
  635MOL0     H85665   0.623   9.773   7.604 -1.5264  1.8721 -0.7742
  635MOL0     H85666   0.582   9.691   7.893  1.3605 -2.7384 -0.8945
  635MOL0     H85667   0.740   9.683   7.802 -0.3195 -0.5821 -2.3660
  635MOL0     H85668   0.599   9.954   7.856  0.3848  1.6565 -1.6448
  635MOL0     H85669   0.747   9.887   7.940  2.1122  3.1051 -1.5728
  635MOL0     H85670   0.733   9.956   7.647 -2.4041  1.3092  1.5439
  635MOL0     H85671   0.794  10.056   7.772 -0.1551 -0.8643  2.3179
  635MOL0     H85672   0.914   9.784   7.675  0.7601  0.4751 -1.1839
  635MOL0     H85673   0.966   9.868   7.827 -0.3599 -1.5619 -0.0030
  635MOL0     H85674   1.067   9.888   7.566  1.9672  3.7726 -1.0824
  635MOL0     H85675   0.938  10.009   7.553  1.9387  1.4855 -2.0895
  635MOL0     H85676   0.939  10.231   7.695  0.0486  0.0008 -3.5432
  635MOL0     H85677   1.056  10.420   7.860 -1.3896 -1.6672 -0.7332
  635MOL0     H85678   1.227  10.428   7.875 -0.1677  2.2173 -0.4511
  635MOL0     H85679   1.058  10.463   7.623 -2.6385  1.3121  0.8413
  635MOL0     H85680   1.104  10.602   7.726  1.3822 -1.5585  3.0583
  635MOL0     H85681   1.226  10.528   7.495  0.9787 -1.1316 -0.1694
  635MOL0     H85682   1.336  10.449   7.620  1.8228  1.9934  1.4742
  635MOL0     H85683   1.255  10.738   7.619  1.2397 -0.3647  1.5906
  635MOL0     H85684   1.400  10.676   7.547 -1.3518  0.4325 -1.5319
  635MOL0     H85685   1.510  10.866   7.600 -0.8783  3.9523 -1.5429
  635MOL0     H85686   1.604  11.085   7.704 -2.4397  1.3232 -1.9057
  635MOL0     H85687   1.447  11.404   8.056 -0.2663  0.2834 -1.2869
  635MOL0     H85688   1.445  11.650   8.073 -0.8600  0.3066 -0.6743
  635MOL0     H85689   1.830  11.808   8.046 -0.1875 -0.0675  0.8350
  635MOL0     H85690   1.770  11.916   7.905 -1.9661  2.2364 -0.1265
  635MOL0     H85691   1.639  12.050   8.060  1.7593  1.0860 -0.6810
  635MOL0     H85692   1.667  11.958   8.196  0.3995 -1.2095 -0.0620
  635MOL0     H85693   1.913  12.044   8.164 -0.5717 -3.0515 -1.4955
  635MOL0     H85694   1.850  12.149   8.037 -0.4687  1.0227  0.5045
  635MOL0     H85695   1.754  12.158   8.330  4.3037 -3.3652 -1.2829
  635MOL0     H85696   1.669  12.240   8.199  1.0061  1.6026 -2.1914
  635MOL0     H85697   1.909  12.349   8.149  0.4666 -1.1960  0.3553
  635MOL0     H85698   1.946  12.272   8.304 -0.9249 -0.3667  0.3410
  635MOL0     H85699   1.732  12.483   8.264 -0.6822  3.1906  2.7976
  635MOL0     H85700   1.756  12.387   8.418  1.3119  1.7552  2.0315
  635MOL0     H85701   1.993  12.515   8.308  0.7231 -4.8337 -0.1939
  635MOL0     H85702   1.956  12.453   8.474  2.2900  2.8105 -0.0310
  635MOL0     H85703   1.851  12.705   8.338  3.1341  0.7031 -0.3308
  635MOL0     H85704   1.794  12.640   8.501  0.1816 -0.4238 -0.2184
  635MOL0     H85705   1.809  11.656   7.859 -1.4717  1.9886  1.2090
  635MOL0     H85706   1.792  11.426   7.802  0.1662  0.1319  0.2747
  635MOL0     H85707   1.459  10.953   8.089  2.4570 -1.3967  0.2042
  635MOL0     H85708   1.387  10.747   7.998  0.5227 -1.3991 -1.5973
  635MOL0     H85709   0.564   9.182   7.496 -0.5967  1.6404  0.3845
  635MOL0     H85710   0.448   8.985   7.612  3.8316  1.5716  4.5700
  635MOL0     H85711   0.234   8.761   7.802  0.8675  1.5538 -0.1878
  635MOL0     H85712   0.175   8.566   7.941 -0.1377  0.1445 -2.5353
  635MOL0     H85713   0.086   8.504   8.180 -1.0653 -0.0210  1.1509
  635MOL0     H85714   0.102   8.394   8.030  1.4154 -0.6937  1.5794
  635MOL0     H85715  -0.092   8.262   8.113  2.8971 -0.0314 -2.5976
  635MOL0     H85716  -0.099   8.365   8.253 -1.9804 -2.6800  0.1395
  635MOL0     H85717   0.012   8.116   8.258  0.8370 -1.4439 -1.1491
  635MOL0     H85718   0.052   8.256   8.361 -0.7226 -0.7153 -0.6910
  635MOL0     H85719   0.209   8.187   8.111  2.1913  3.0085 -0.2513
  635MOL0     H85720   0.239   8.320   8.224 -1.8481  1.2123  1.2220
  635MOL0     H85721   0.434   8.061   8.461 -0.1911  1.4958  0.5894
  635MOL0     H85722  -0.222   8.692   7.968 -1.0119 -0.6078 -2.0460
  635MOL0     H85723  -0.217   8.928   7.734 -0.3085 -0.2874  1.3083
  635MOL0     H85724  -0.295   8.902   7.880 -0.4970 -1.4471 -2.3046
  635MOL0     H85725  -0.163   9.037   7.873 -0.5490  0.9013  1.4639
  636MOL0     O85726   4.737   8.532   1.500 -0.6245  0.1566  0.2198
  636MOL0     C85727   4.716   8.656   1.521  0.3594  0.6196  0.0215
  636MOL0     O85728   4.779   8.736   1.617 -0.0554 -0.5714 -0.0767
  636MOL0     C85729   4.906   8.691   1.645 -0.2670 -0.8219  0.1285
  636MOL0     C85730   5.017   8.751   1.582 -0.2615 -0.4226 -0.1635
  636MOL0     C85731   5.153   8.708   1.612 -0.6602 -0.2388 -0.9213
  636MOL0     C85732   5.179   8.615   1.714 -0.1483 -0.0196  0.4477
  636MOL0     O85733   5.297   8.562   1.748  0.5892  0.3303 -0.6955
  636MOL0     C85734   5.405   8.655   1.764  0.8931 -0.4572 -0.3444
  636MOL0     C85735   5.517   8.637   1.657 -0.0012  1.1733 -0.0812
  636MOL0     C85736   5.640   8.735   1.661  0.2341 -0.4952  0.3192
  636MOL0     C85737   5.726   8.726   1.534  0.5050  0.3789  0.5279
  636MOL0     C85738   5.856   8.809   1.561 -0.0330 -0.1066 -0.6678
  636MOL0     C85739   5.944   8.807   1.439 -0.4519 -0.0920 -0.2278
  636MOL0     C85740   6.055   8.929   1.449  0.5852  0.4474 -0.1289
  636MOL0     C85741   6.181   8.894   1.368 -0.1261 -0.0230 -0.0007
  636MOL0     N85742   6.158   8.882   1.225  0.5845  0.1122  0.5003
  636MOL0     C85743   6.133   8.978   1.130 -0.7053  0.0588 -0.0105
  636MOL0     C85744   6.119   8.900   1.017 -0.9823  0.4474  0.1537
  636MOL0     C85745   6.055   8.934   0.886 -0.0458  0.1816 -1.0347
  636MOL0     C85746   6.155   9.022   0.813 -0.1741 -0.6400 -0.4738
  636MOL0     C85747   6.283   8.949   0.768  1.1714  1.0812  0.1753
  636MOL0     C85748   6.402   8.941   0.865  1.2321 -0.8950 -0.2950
  636MOL0     O85749   6.453   9.076   0.857 -0.0348 -0.2046 -1.0126
  636MOL0     C85750   6.564   9.114   0.931 -0.2874 -0.6313  0.5812
  636MOL0     C85751   6.633   9.019   1.012  0.4810  1.4646 -0.4755
  636MOL0     C85752   6.752   9.063   1.080 -0.2199  0.2019 -0.3159
  636MOL0     C85753   6.784   9.201   1.088 -0.3973 -1.3927  0.0556
  636MOL0     C85754   6.889   9.248   1.188 -0.2032 -0.0685  0.1978
  636MOL0     O85755   6.932   9.369   1.179  0.3507  0.3355  0.3810
  636MOL0     C85756   7.005   9.424   1.277 -0.1302  0.3678 -0.2835
  636MOL0     C85757   7.112   9.521   1.247  0.9011 -0.4763 -0.2640
  636MOL0     C85758   7.204   9.562   1.344  0.7253 -0.2053 -0.7351
  636MOL0     C85759   7.189   9.538   1.479  0.7303  0.2290  0.2094
  636MOL0     O85760   7.289   9.579   1.568  0.5649  0.5223  0.1201
  636MOL0     C85761   7.279   9.542   1.706  0.1682 -0.2228 -0.0643
  636MOL0     C85762   7.409   9.525   1.781 -1.0276 -0.5590 -0.7931
  636MOL0     C85763   7.483   9.653   1.764 -0.5531 -0.0868 -0.1785
  636MOL0     C85764   7.611   9.653   1.856  0.6393 -0.1558 -0.5491
  636MOL0     C85765   7.690   9.780   1.825 -0.6458 -0.2365  0.6282
  636MOL0     C85766   7.641   9.907   1.882 -0.1201 -0.7691 -0.6426
  636MOL0     C85767   7.747  10.024   1.873  0.4075  0.3486  0.2235
  636MOL0     C85768   7.713  10.143   1.971 -0.3504 -0.6556  0.6126
  636MOL0    Cl85769   7.559  10.231   1.933 -0.1562 -0.2909 -0.0078
  636MOL0     C85770   7.067   9.461   1.512 -0.1214 -0.5252  0.2087
  636MOL0     C85771   6.980   9.409   1.415  0.1270 -0.5745  0.6334
  636MOL0     O85772   6.937   9.169   1.268  0.0791 -0.4075 -0.3265
  636MOL0     C85773   6.714   9.288   1.003 -0.3278 -0.5252 -0.4917
  636MOL0     C85774   6.599   9.251   0.940 -0.2886 -0.1037  1.1139
  636MOL0     N85775   6.157   8.769   1.040  0.6079 -0.3811  0.0039
  636MOL0     N85776   6.173   8.758   1.168  0.2442 -0.3302 -0.0103
  636MOL0     C85777   5.062   8.555   1.779 -0.3249  0.2321  0.3160
  636MOL0     C85778   4.932   8.586   1.739 -0.1780  0.3515 -0.5205
  636MOL0     C85779   4.606   8.704   1.435  1.2453  0.8625 -0.7031
  636MOL0     C85780   4.580   8.630   1.318  0.1757  0.8310 -0.3965
  636MOL0     C85781   4.477   8.664   1.232 -0.0563  0.8708  0.3291
  636MOL0     C85782   4.405   8.779   1.248  0.1034  0.0170 -0.1325
  636MOL0     O85783   4.288   8.797   1.174 -0.7396  0.4253  0.0232
  636MOL0     C85784   4.304   8.857   1.041  0.2393 -1.2523  0.4577
  636MOL0     C85785   4.168   8.898   0.975 -0.0820  0.2684 -0.3573
  636MOL0     C85786   4.170   8.885   0.826  0.3033 -0.1027  0.8895
  636MOL0     C85787   4.260   8.990   0.769 -0.9969  0.0036 -0.5858
  636MOL0     C85788   4.302   8.965   0.636 -0.6100  0.0318  0.1146
  636MOL0     C85789   4.340   8.951   0.521  0.2362 -0.2453  0.1348
  636MOL0     C85790   4.430   8.860   1.363  0.4189  0.7067 -0.1653
  636MOL0     C85791   4.524   8.822   1.451 -0.2247  1.2460 -0.4768
  636MOL0     C85792   4.553   8.912   1.567  0.4524 -0.3395 -0.5126
  636MOL0     H85793   5.001   8.810   1.492 -0.2319 -1.0359 -0.5747
  636MOL0     H85794   5.238   8.742   1.553 -1.1936  1.2747 -0.8584
  636MOL0     H85795   5.362   8.755   1.749  3.1813  0.7940  0.8674
  636MOL0     H85796   5.447   8.639   1.864  0.9650  0.9834 -0.1169
  636MOL0     H85797   5.463   8.643   1.562  1.2826 -3.2210 -1.3525
  636MOL0     H85798   5.562   8.537   1.663  1.4924  1.7565 -0.9503
  636MOL0     H85799   5.693   8.704   1.752  0.7600 -2.1329 -0.4964
  636MOL0     H85800   5.599   8.835   1.671 -2.8770 -1.8245  2.4788
  636MOL0     H85801   5.738   8.622   1.502 -1.6457  0.8138 -2.0557
  636MOL0     H85802   5.674   8.777   1.452 -0.3046  0.7774  1.2666
  636MOL0     H85803   5.805   8.904   1.585 -0.1423 -0.2994 -0.1262
  636MOL0     H85804   5.909   8.774   1.650  0.4279  0.7219 -0.6056
  636MOL0     H85805   5.989   8.707   1.433 -1.2936 -0.7577  2.7335
  636MOL0     H85806   5.879   8.830   1.355 -2.4893 -1.5562  0.8633
  636MOL0     H85807   6.081   8.952   1.552 -0.7968  2.0916 -0.1086
  636MOL0     H85808   6.009   9.020   1.410  1.4072  2.4799  3.3174
  636MOL0     H85809   6.260   8.965   1.392  0.8998 -0.8514 -0.8053
  636MOL0     H85810   6.198   8.793   1.406  0.9097 -1.0605 -2.9578
  636MOL0     H85811   6.117   9.084   1.147  0.8268  0.4959 -1.1124
  636MOL0     H85812   6.030   8.844   0.828 -0.6063  0.8374 -1.8362
  636MOL0     H85813   5.965   8.992   0.907 -0.1597 -0.2251 -0.3843
  636MOL0     H85814   6.094   9.070   0.737  0.9031 -3.2091 -3.1801
  636MOL0     H85815   6.193   9.100   0.880 -2.6708  0.2585 -0.0200
  636MOL0     H85816   6.305   9.001   0.675 -1.4315  3.2691  0.6775
  636MOL0     H85817   6.250   8.847   0.746 -0.9363  2.1112 -1.8362
  636MOL0     H85818   6.483   8.873   0.838  1.8935  0.6361 -2.5108
  636MOL0     H85819   6.370   8.931   0.969  2.8796  0.1046  0.3474
  636MOL0     H85820   6.621   8.912   1.003 -0.7445  1.5013  0.5835
  636MOL0     H85821   6.816   8.984   1.117  0.6452  0.8138 -0.4842
  636MOL0     H85822   7.120   9.538   1.140 -0.2782 -3.2438 -0.8839
  636MOL0     H85823   7.292   9.617   1.313  0.5741  1.6265  1.8159
  636MOL0     H85824   7.224   9.621   1.759 -0.4325  0.5491 -1.7829
  636MOL0     H85825   7.213   9.455   1.711 -2.4426  1.6761  0.5238
  636MOL0     H85826   7.397   9.497   1.886  2.2852 -0.0728 -0.1776
  636MOL0     H85827   7.464   9.439   1.743  0.0323 -0.9385  1.4754
  636MOL0     H85828   7.519   9.656   1.660 -0.6580  1.2765 -0.1964
  636MOL0     H85829   7.426   9.744   1.787  0.0369 -0.4131  2.9856
  636MOL0     H85830   7.675   9.566   1.839  3.1701  1.5371 -0.3216
  636MOL0     H85831   7.577   9.657   1.960 -1.6980  0.8713 -1.2840
  636MOL0     H85832   7.705   9.802   1.719 -2.4041 -3.9121 -0.5608
  636MOL0     H85833   7.788   9.761   1.869  0.7707  1.9893 -1.3360
  636MOL0     H85834   7.550   9.938   1.829 -1.0174  0.7754  1.6153
  636MOL0     H85835   7.626   9.896   1.990  1.4327  0.3882 -0.2728
  636MOL0     H85836   7.758  10.064   1.771 -2.5274  2.3298  0.5491
  636MOL0     H85837   7.848   9.990   1.897  0.8855  0.9523 -0.8336
  636MOL0     H85838   7.711  10.113   2.076 -0.0348  3.9542  2.1944
  636MOL0     H85839   7.797  10.213   1.973  1.1199 -2.3701  1.8761
  636MOL0     H85840   7.031   9.439   1.612  0.8426 -1.5688  0.3446
  636MOL0     H85841   6.895   9.352   1.451  0.9340 -2.4411 -0.2857
  636MOL0     H85842   6.742   9.393   1.012 -3.7802  0.3143  4.2607
  636MOL0     H85843   6.538   9.325   0.889  0.6730 -1.6315 -2.5043
  636MOL0     H85844   5.075   8.474   1.850 -2.9677  1.1314  1.9479
  636MOL0     H85845   4.855   8.524   1.785  1.2669 -0.2727  1.1899
  636MOL0     H85846   4.619   8.530   1.302  1.2936  1.1840  0.0260
  636MOL0     H85847   4.456   8.598   1.149  2.1766  2.4554 -1.6316
  636MOL0     H85848   4.353   8.794   0.967 -3.4359  1.1820 -4.7057
  636MOL0     H85849   4.374   8.942   1.037  0.3855 -1.4014 -0.4603
  636MOL0     H85850   4.145   9.005   0.977  0.4691  0.4081 -0.8946
  636MOL0     H85851   4.084   8.845   1.020  0.7868  0.5301  1.6674
  636MOL0     H85852   4.064   8.886   0.797  0.8262  0.5681 -1.1304
  636MOL0     H85853   4.206   8.786   0.796  0.2312 -0.6308  2.4500
  636MOL0     H85854   4.201   9.082   0.776 -0.6806  0.0947  1.6832
  636MOL0     H85855   4.352   9.006   0.827 -0.8661  2.8368 -1.4413
  636MOL0     H85856   4.378   8.948   0.421 -2.0532  1.2967 -0.8580
  636MOL0     H85857   4.371   8.950   1.373 -0.5670  0.1602 -0.8605
  636MOL0     H85858   4.653   8.955   1.554  1.1877 -2.0278 -0.6624
  636MOL0     H85859   4.475   8.988   1.575 -1.6523 -2.4923  0.8370
  636MOL0     H85860   4.535   8.849   1.655 -1.8853 -0.5608 -1.0687
  637MOL0     O85861   8.948   6.587   3.382 -0.2502  0.5068 -0.5308
  637MOL0     C85862   8.937   6.481   3.317  0.8959 -0.7162  0.1984
  637MOL0     O85863   8.931   6.470   3.183  0.1345 -0.1808 -0.1811
  637MOL0     C85864   8.920   6.592   3.123 -0.0592  0.2995 -0.4274
  637MOL0     C85865   9.038   6.651   3.075 -0.0048  0.8379 -0.9901
  637MOL0     C85866   9.028   6.781   3.026 -0.0015  0.0752  0.1376
  637MOL0     C85867   8.902   6.835   2.992  0.0108 -0.1536 -0.0402
  637MOL0     O85868   8.905   6.964   2.949 -0.0927 -0.0012  1.0300
  637MOL0     C85869   8.922   6.965   2.803  0.4151 -0.2605 -1.1323
  637MOL0     C85870   8.925   7.109   2.751  0.0411 -0.4623  0.6737
  637MOL0     C85871   8.810   7.194   2.805  0.2242  0.9034  0.1928
  637MOL0     C85872   8.741   7.272   2.698 -0.3927 -0.0843  0.2328
  637MOL0     C85873   8.606   7.333   2.734  1.3645  0.0866 -0.5686
  637MOL0     C85874   8.588   7.377   2.882  0.1622 -0.3468 -0.5847
  637MOL0     C85875   8.668   7.505   2.899 -0.1049  0.1972  0.0768
  637MOL0     C85876   8.669   7.540   3.045 -0.3819  0.5166  0.3709
  637MOL0     N85877   8.689   7.681   3.054 -0.4906 -0.2117  0.5051
  637MOL0     C85878   8.589   7.768   3.091 -0.1613 -1.7275 -0.2327
  637MOL0     C85879   8.649   7.893   3.098 -0.3102 -0.0965 -0.5404
  637MOL0     C85880   8.582   8.027   3.127 -0.0851  1.1931  0.3558
  637MOL0     C85881   8.483   8.057   3.009 -0.1222 -0.8384 -0.6496
  637MOL0     C85882   8.561   8.069   2.875  0.2063  0.3070  0.0522
  637MOL0     C85883   8.502   8.193   2.793  0.2338 -0.3515 -0.2487
  637MOL0     O85884   8.566   8.306   2.839 -0.2000 -0.2813 -0.0306
  637MOL0     C85885   8.539   8.427   2.782 -0.4691  0.4627 -0.3079
  637MOL0     C85886   8.539   8.536   2.862 -0.1916  0.0573  0.9870
  637MOL0     C85887   8.522   8.667   2.819 -0.1372 -0.4878 -0.8541
  637MOL0     C85888   8.483   8.692   2.692 -0.0044 -0.4971  0.2856
  637MOL0     C85889   8.457   8.822   2.636  1.2468  0.2191  0.2507
  637MOL0     O85890   8.388   8.816   2.519 -0.1554 -1.2169 -0.1231
  637MOL0     C85891   8.351   8.929   2.450 -0.9692 -0.6046  1.4006
  637MOL0     C85892   8.434   9.043   2.425 -0.4464  0.9529  0.0985
  637MOL0     C85893   8.388   9.152   2.357 -0.4874  0.1984 -0.6918
  637MOL0     C85894   8.260   9.164   2.310 -0.2378 -0.3039  0.5725
  637MOL0     O85895   8.212   9.280   2.253  0.1426 -0.6790  0.0429
  637MOL0     C85896   8.263   9.413   2.276 -0.0435  0.6531  0.7404
  637MOL0     C85897   8.331   9.464   2.154 -0.0355 -0.5736 -0.1118
  637MOL0     C85898   8.323   9.616   2.127  0.3874  0.3672 -0.4638
  637MOL0     C85899   8.390   9.697   2.238  0.4968 -1.2004  0.0351
  637MOL0     C85900   8.545   9.673   2.241 -0.3969 -0.6919  0.4910
  637MOL0     C85901   8.605   9.764   2.349 -0.0205 -0.0678 -0.0266
  637MOL0     C85902   8.580   9.716   2.497  0.2830 -1.1555  0.0923
  637MOL0     C85903   8.648   9.813   2.598  0.0034  0.3014 -0.4719
  637MOL0    Cl85904   8.542   9.822   2.736 -0.5139  0.6606 -0.0318
  637MOL0     C85905   8.179   9.051   2.317 -1.3234 -0.2958 -0.4579
  637MOL0     C85906   8.230   8.939   2.378  1.0384  0.1992 -0.9973
  637MOL0     O85907   8.467   8.921   2.702  0.1576  0.2112  0.5927
  637MOL0     C85908   8.486   8.577   2.604 -1.1085 -0.6279 -0.5142
  637MOL0     C85909   8.513   8.446   2.649 -0.6412  0.5599 -0.3000
  637MOL0     N85910   8.786   7.865   3.068  0.1078 -0.5577  0.0350
  637MOL0     N85911   8.807   7.741   3.035 -0.3625  0.0561 -0.4625
  637MOL0     C85912   8.790   6.767   3.023 -0.8354 -0.2904 -1.1285
  637MOL0     C85913   8.795   6.648   3.088 -0.8852 -0.1219  0.1042
  637MOL0     C85914   8.943   6.357   3.398 -0.7533  0.1998  0.3788
  637MOL0     C85915   9.030   6.260   3.349  0.5302  0.0003 -0.2491
  637MOL0     C85916   9.057   6.145   3.429 -0.0698  0.8462  0.2719
  637MOL0     C85917   8.978   6.122   3.545  0.3133  0.4122  0.0385
  637MOL0     O85918   8.975   6.016   3.636 -0.5558  0.2699  0.0402
  637MOL0     C85919   9.083   5.918   3.629 -0.1271  1.4063  0.2854
  637MOL0     C85920   9.204   5.964   3.715  0.5449 -0.0530 -0.3168
  637MOL0     C85921   9.163   6.009   3.855 -0.2164  0.1672 -1.3361
  637MOL0     C85922   9.277   6.077   3.929  0.5292 -0.1925  0.2745
  637MOL0     C85923   9.364   5.981   3.994  0.3248  0.4596 -0.3127
  637MOL0     C85924   9.456   5.912   4.033 -0.6506 -1.2628 -0.1332
  637MOL0     C85925   8.894   6.223   3.592  0.5249  0.6707  0.0460
  637MOL0     C85926   8.869   6.328   3.511 -0.3958 -0.7466 -0.0835
  637MOL0     C85927   8.768   6.428   3.561  0.3100 -0.0094 -0.8518
  637MOL0     H85928   9.136   6.607   3.090 -1.2758 -2.1114 -0.5012
  637MOL0     H85929   9.109   6.851   3.006 -1.2511  1.1351 -1.4453
  637MOL0     H85930   9.019   6.921   2.779  0.7165 -0.8854  1.0345
  637MOL0     H85931   8.834   6.914   2.764 -2.6650  0.5888  3.8402
  637MOL0     H85932   8.929   7.094   2.643  3.0669 -0.8375  0.7541
  637MOL0     H85933   9.015   7.159   2.788 -0.1392  1.8103 -1.6530
  637MOL0     H85934   8.835   7.264   2.885  0.4710  1.1797 -0.1215
  637MOL0     H85935   8.738   7.121   2.843 -0.7707  0.6622 -1.9599
  637MOL0     H85936   8.818   7.348   2.682  0.7848 -0.6301  2.8816
  637MOL0     H85937   8.722   7.216   2.606  0.1622 -0.9870  0.6486
  637MOL0     H85938   8.580   7.417   2.669  0.5710 -0.2587 -0.7123
  637MOL0     H85939   8.533   7.255   2.713  1.0781  0.7032 -1.9842
  637MOL0     H85940   8.480   7.383   2.898  0.5078  1.4757  1.4642
  637MOL0     H85941   8.623   7.297   2.947  1.1204 -1.9696 -2.9668
  637MOL0     H85942   8.625   7.575   2.827 -1.8764 -0.7550  0.1736
  637MOL0     H85943   8.771   7.490   2.863  0.4529  1.8308  0.8846
  637MOL0     H85944   8.574   7.516   3.094 -0.9008  0.7645 -0.4937
  637MOL0     H85945   8.744   7.482   3.100 -0.9262 -3.2764 -2.4502
  637MOL0     H85946   8.485   7.743   3.112 -0.8682  2.0157  1.6496
  637MOL0     H85947   8.525   8.014   3.220 -1.0466  1.3333 -0.1968
  637MOL0     H85948   8.658   8.105   3.117  1.5818 -0.4489 -0.3586
  637MOL0     H85949   8.420   7.967   3.007  0.0415 -0.9498 -0.8932
  637MOL0     H85950   8.422   8.145   3.029 -0.0598 -1.3147  2.0350
  637MOL0     H85951   8.532   7.977   2.823 -3.3428  0.0525  2.1884
  637MOL0     H85952   8.669   8.086   2.877  0.2055  0.3136  0.0622
  637MOL0     H85953   8.394   8.195   2.810  0.0325  0.4079 -1.5094
  637MOL0     H85954   8.515   8.191   2.685 -1.8507  0.7717 -0.5780
  637MOL0     H85955   8.550   8.525   2.970 -1.5691 -1.1912  1.0209
  637MOL0     H85956   8.540   8.746   2.892  1.1898 -0.7158 -0.9099
  637MOL0     H85957   8.535   9.028   2.460 -0.1631 -5.2947 -2.2194
  637MOL0     H85958   8.459   9.234   2.347  1.1947 -1.3598 -2.3814
  637MOL0     H85959   8.171   9.465   2.301 -0.3229 -1.0592  3.8329
  637MOL0     H85960   8.329   9.414   2.364  2.4127 -0.2741 -0.9766
  637MOL0     H85961   8.432   9.424   2.167 -0.0564  0.0811  3.0598
  637MOL0     H85962   8.281   9.415   2.070  2.1103  2.2164 -3.2745
  637MOL0     H85963   8.385   9.622   2.038  1.3026 -1.3431  0.0100
  637MOL0     H85964   8.215   9.632   2.117 -0.4866 -3.5925  0.8204
  637MOL0     H85965   8.352   9.667   2.337  3.3502 -2.4486  0.8438
  637MOL0     H85966   8.363   9.802   2.227 -0.4282 -1.5427 -1.2979
  637MOL0     H85967   8.597   9.680   2.145  0.2308 -4.2163  0.4415
  637MOL0     H85968   8.570   9.569   2.263  0.6256 -1.0585 -2.0881
  637MOL0     H85969   8.713   9.756   2.337  0.1331  0.7113  0.7388
  637MOL0     H85970   8.585   9.868   2.319 -2.4535 -0.0442  1.4133
  637MOL0     H85971   8.627   9.618   2.507 -1.9803 -2.5792 -2.1393
  637MOL0     H85972   8.475   9.704   2.525  0.5715 -0.9671  1.3222
  637MOL0     H85973   8.746   9.774   2.626  0.5097  1.0547 -1.1386
  637MOL0     H85974   8.665   9.912   2.555 -0.9372  0.1610 -1.2235
  637MOL0     H85975   8.076   9.056   2.285 -1.7189  3.5380  0.9247
  637MOL0     H85976   8.167   8.851   2.373  2.5857 -0.8988 -2.1703
  637MOL0     H85977   8.439   8.583   2.506 -2.0803 -0.0143 -0.0353
  637MOL0     H85978   8.518   8.363   2.580 -2.0796  1.0692 -1.0619
  637MOL0     H85979   8.692   6.813   3.008 -1.5456 -1.7198 -1.0966
  637MOL0     H85980   8.699   6.610   3.123 -0.3927 -1.9031 -0.4027
  637MOL0     H85981   9.087   6.268   3.257  2.3747 -3.7282  0.3452
  637MOL0     H85982   9.130   6.069   3.401  0.8175  1.0813  1.8776
  637MOL0     H85983   9.111   5.898   3.525 -0.2494  0.8451  0.3523
  637MOL0     H85984   9.037   5.823   3.659 -0.3927  1.3315 -0.3366
  637MOL0     H85985   9.249   6.050   3.665 -0.2684  0.7963  0.3697
  637MOL0     H85986   9.266   5.875   3.712 -2.0800 -1.9771 -1.2830
  637MOL0     H85987   9.125   5.924   3.912 -0.4474 -0.4552 -2.3926
  637MOL0     H85988   9.072   6.069   3.853 -0.6476  0.6192  6.0466
  637MOL0     H85989   9.335   6.151   3.873  2.0948  0.1226  2.1990
  637MOL0     H85990   9.237   6.138   4.011  1.1488 -2.3157  2.2806
  637MOL0     H85991   9.549   5.861   4.047  0.2876  0.2531 -0.4933
  637MOL0     H85992   8.831   6.226   3.681  1.6548  2.6588  0.8489
  637MOL0     H85993   8.688   6.382   3.620 -0.6454 -1.1094 -2.8965
  637MOL0     H85994   8.812   6.495   3.635 -1.9099  1.5922 -0.8796
  637MOL0     H85995   8.714   6.481   3.482  0.2818 -0.9812 -1.5111
  638MOL0     O85996   1.083   9.127   9.634 -0.7760  0.5631 -0.8231
  638MOL0     C85997   1.174   9.057   9.586  0.1072 -0.1839 -0.2026
  638MOL0     O85998   1.208   8.936   9.621 -0.0171 -0.0236 -0.7221
  638MOL0     C85999   1.153   8.870   9.724  1.0023 -0.0712 -0.6792
  638MOL0     C86000   1.066   8.766   9.686 -0.0684  0.2489  0.1375
  638MOL0     C86001   0.996   8.702   9.786 -0.3861 -0.4831 -0.0145
  638MOL0     C86002   1.012   8.741   9.923  0.9487  0.2344 -0.5635
  638MOL0     O86003   0.940   8.666  10.013  0.2812 -0.3461  0.3752
  638MOL0     C86004   0.909   8.711  10.150 -0.4086  0.5572  0.3930
  638MOL0     C86005   0.844   8.853  10.169 -0.5071 -0.7121 -0.2193
  638MOL0     C86006   0.699   8.869  10.139 -0.4026 -0.3264 -0.2968
  638MOL0     C86007   0.600   8.794  10.233  0.5015  0.1353 -0.3963
  638MOL0     C86008   0.444   8.828  10.214  0.0854  0.4734 -0.5728
  638MOL0     C86009   0.357   8.754  10.309  0.5355  0.4902 -0.1425
  638MOL0     C86010   0.334   8.608  10.263  0.1798 -0.8235  0.3293
  638MOL0     C86011   0.237   8.508  10.338 -0.7280  0.1758  0.1508
  638MOL0     N86012   0.132   8.459  10.251  0.5286  0.5285  0.1660
  638MOL0     C86013   0.156   8.400  10.128 -0.3992 -0.5732  0.1737
  638MOL0     C86014   0.026   8.364  10.084 -0.6919  0.4633 -0.6078
  638MOL0     C86015  -0.009   8.312   9.951  0.4011  0.5883  0.1738
  638MOL0     C86016   0.078   8.372   9.841  0.6040  0.1233 -0.3988
  638MOL0     C86017   0.046   8.338   9.693  0.5697  0.1508  0.5135
  638MOL0     C86018   0.084   8.445   9.588 -0.7418  0.8687 -0.1367
  638MOL0     O86019   0.050   8.576   9.636 -0.2398  0.7302  0.0686
  638MOL0     C86020   0.072   8.684   9.553  1.1099 -0.4600  0.9414
  638MOL0     C86021   0.158   8.676   9.443 -0.1324  1.4796 -0.0900
  638MOL0     C86022   0.160   8.778   9.349 -0.3071  0.1671 -0.5573
  638MOL0     C86023   0.078   8.893   9.358  0.0373  0.4354 -0.1086
  638MOL0     C86024   0.084   8.984   9.252 -0.5347 -0.5349 -0.9392
  638MOL0     O86025   0.210   9.035   9.211 -0.6118  0.2914 -0.2436
  638MOL0     C86026   0.205   9.170   9.176  0.3977  0.5447 -0.3800
  638MOL0     C86027   0.230   9.265   9.277  0.3387 -0.7766 -0.2636
  638MOL0     C86028   0.215   9.395   9.227  0.3878  0.7471 -0.5313
  638MOL0     C86029   0.194   9.431   9.088  0.1835  0.1632  0.1170
  638MOL0     O86030   0.150   9.547   9.028 -0.9036 -0.7648 -0.1312
  638MOL0     C86031   0.166   9.660   9.116  0.4982  0.2523  0.1255
  638MOL0     C86032   0.098   9.784   9.063 -0.1495  0.3184 -0.7559
  638MOL0     C86033  -0.053   9.786   9.072 -0.2800  0.6073  0.4022
  638MOL0     C86034  -0.100   9.928   9.019 -0.5904  1.4325 -0.0183
  638MOL0     C86035  -0.249   9.933   8.977  0.0355  0.5847 -0.0513
  638MOL0     C86036  -0.269  10.077   8.924 -0.3804  1.4631 -0.6026
  638MOL0     C86037  -0.402  10.113   8.868  0.6092  0.3196  0.1408
  638MOL0     C86038  -0.401  10.258   8.804 -0.3075  0.1209  0.3133
  638MOL0    Cl86039  -0.570  10.308   8.762  0.4591  0.6984  0.4426
  638MOL0     C86040   0.202   9.330   8.996 -0.8989  0.4499  0.2847
  638MOL0     C86041   0.204   9.207   9.041  0.0874  0.1195 -0.1259
  638MOL0     O86042  -0.021   9.018   9.204  0.0444 -0.2940  0.5605
  638MOL0     C86043   0.002   8.905   9.472 -0.2979 -0.3097 -0.6243
  638MOL0     C86044   0.015   8.812   9.576 -0.0317  0.2635  0.6170
  638MOL0     N86045  -0.068   8.399  10.182 -0.1961  0.4016 -0.4655
  638MOL0     N86046  -0.003   8.460  10.275  0.7160  0.9109 -0.1559
  638MOL0     C86047   1.097   8.842   9.961  0.5362 -1.0668  0.3606
  638MOL0     C86048   1.163   8.908   9.855 -0.0384  1.0035 -0.0429
  638MOL0     C86049   1.238   9.113   9.469  0.4942 -0.5204 -0.0251
  638MOL0     C86050   1.255   9.037   9.350 -0.7385  0.2450 -0.1006
  638MOL0     C86051   1.323   9.085   9.242  1.1955 -0.8137  0.2431
  638MOL0     C86052   1.365   9.215   9.237  0.5417 -0.0899 -0.4049
  638MOL0     O86053   1.448   9.249   9.131  0.2343 -0.1096  0.2033
  638MOL0     C86054   1.496   9.379   9.109  0.6269 -0.2731 -1.2101
  638MOL0     C86055   1.644   9.384   9.154 -0.1196 -0.1126  0.2952
  638MOL0     C86056   1.700   9.530   9.149 -0.7640 -0.2822  0.0912
  638MOL0     C86057   1.653   9.620   9.266  0.5945 -0.2574  0.0873
  638MOL0     C86058   1.538   9.703   9.223 -0.0773 -0.0280  1.0612
  638MOL0     C86059   1.440   9.752   9.183 -0.1229 -1.0464 -0.6573
  638MOL0     C86060   1.348   9.295   9.351  0.4913  0.3318 -0.2389
  638MOL0     C86061   1.290   9.249   9.470 -0.1860  0.9182 -0.5129
  638MOL0     C86062   1.282   9.335   9.588 -0.0134 -0.2440  0.0901
  638MOL0     H86063   1.059   8.738   9.582  2.8654 -2.3351  0.4919
  638MOL0     H86064   0.928   8.628   9.746 -0.8904  2.5671 -5.8251
  638MOL0     H86065   0.844   8.636  10.197  1.7062 -0.3006  2.1259
  638MOL0     H86066   0.998   8.701  10.213  0.0270  1.1617 -0.1099
  638MOL0     H86067   0.901   8.919  10.103  1.4213 -1.5173  0.5561
  638MOL0     H86068   0.866   8.893  10.268  0.5498 -0.6103 -0.4800
  638MOL0     H86069   0.684   8.851  10.032 -1.1504 -0.7322 -0.1310
  638MOL0     H86070   0.671   8.974  10.154 -3.2828 -0.5968 -2.8855
  638MOL0     H86071   0.630   8.690  10.223  2.0033  0.2413  2.1316
  638MOL0     H86072   0.626   8.821  10.336 -2.0343  1.0008  0.0989
  638MOL0     H86073   0.419   8.934  10.218 -2.9312 -0.1459  2.8946
  638MOL0     H86074   0.408   8.806  10.113  2.1110 -2.3958 -0.7924
  638MOL0     H86075   0.397   8.745  10.410 -0.6893 -0.5210  0.2690
  638MOL0     H86076   0.261   8.804  10.322  1.0253  1.1352  1.1478
  638MOL0     H86077   0.430   8.557  10.255 -0.9351 -2.9212 -0.1668
  638MOL0     H86078   0.298   8.609  10.160 -1.1069 -3.4275  0.6786
  638MOL0     H86079   0.287   8.421  10.381 -0.7637 -0.1329 -0.4375
  638MOL0     H86080   0.202   8.569  10.423  0.8572  0.4391  0.6551
  638MOL0     H86081   0.254   8.399  10.083 -0.1163  3.0094  0.3714
  638MOL0     H86082   0.003   8.204   9.963 -3.7227 -0.0697 -0.2220
  638MOL0     H86083  -0.113   8.328   9.924  0.1251 -2.8107 -1.3262
  638MOL0     H86084   0.066   8.478   9.864  1.9995  0.7227 -2.2350
  638MOL0     H86085   0.181   8.343   9.862  0.9826  0.0651 -2.2048
  638MOL0     H86086  -0.059   8.325   9.664  1.2829  0.1339 -2.3303
  638MOL0     H86087   0.099   8.246   9.667 -0.5549 -1.0027  2.0844
  638MOL0     H86088   0.019   8.443   9.501 -0.3139  3.5842 -0.6081
  638MOL0     H86089   0.192   8.433   9.572 -0.6527 -2.9178  2.0595
  638MOL0     H86090   0.218   8.587   9.424  0.4502  1.9601 -0.5280
  638MOL0     H86091   0.209   8.765   9.252 -2.6007 -3.1515 -1.4595
  638MOL0     H86092   0.216   9.238   9.381 -0.1055 -0.8267 -0.3319
  638MOL0     H86093   0.219   9.470   9.304  1.4572  0.2067 -0.0336
  638MOL0     H86094   0.135   9.650   9.221  1.7871  4.6302  1.1261
  638MOL0     H86095   0.274   9.675   9.125  0.4095  0.1416  1.7672
  638MOL0     H86096   0.125   9.871   9.124  0.7057 -0.6736  0.3374
  638MOL0     H86097   0.131   9.796   8.959  1.3192  3.5383 -0.0269
  638MOL0     H86098  -0.090   9.703   9.012 -0.9446  0.3372  1.1684
  638MOL0     H86099  -0.077   9.759   9.175  2.7653 -0.4187  0.9458
  638MOL0     H86100  -0.050   9.926   8.922  0.7976 -0.8141  0.6517
  638MOL0     H86101  -0.066  10.000   9.094  1.3858 -0.8163  1.4072
  638MOL0     H86102  -0.306   9.912   9.068  1.4191  1.5081  1.0712
  638MOL0     H86103  -0.261   9.850   8.907 -1.0580 -0.2731  1.1226
  638MOL0     H86104  -0.264  10.140   9.014  1.4618 -1.5329  1.5717
  638MOL0     H86105  -0.183  10.102   8.860  1.6151 -1.4243  0.7634
  638MOL0     H86106  -0.481  10.111   8.944 -0.6082 -0.4298 -1.0868
  638MOL0     H86107  -0.440  10.030   8.807 -1.6803  1.6275 -0.3356
  638MOL0     H86108  -0.364  10.331   8.877 -0.6589 -1.3395  2.0305
  638MOL0     H86109  -0.338  10.260   8.715 -2.2882 -0.7703 -1.1720
  638MOL0     H86110   0.203   9.358   8.892  1.0360  0.7908  0.3618
  638MOL0     H86111   0.193   9.124   8.972 -2.3131 -0.0097  0.2975
  638MOL0     H86112  -0.061   8.992   9.485  2.7790  1.8986  0.7605
  638MOL0     H86113  -0.049   8.811   9.664 -0.7804 -2.4769  0.1244
  638MOL0     H86114   1.118   8.887  10.057 -1.2318  2.7638 -0.8595
  638MOL0     H86115   1.244   8.977   9.878  3.4114 -3.0748  1.4124
  638MOL0     H86116   1.196   8.946   9.344  0.0434 -0.2469 -0.4713
  638MOL0     H86117   1.347   9.027   9.153  0.3610  0.3088 -0.7531
  638MOL0     H86118   1.432   9.454   9.157  3.0131  0.9253  0.2901
  638MOL0     H86119   1.489   9.395   9.001 -1.1833 -2.2862 -1.4606
  638MOL0     H86120   1.697   9.328   9.076 -5.7589 -3.3829 -1.7603
  638MOL0     H86121   1.675   9.332   9.245  1.4772 -1.2793 -0.8635
  638MOL0     H86122   1.665   9.579   9.057 -1.7349 -1.6594 -0.3076
  638MOL0     H86123   1.809   9.522   9.149 -0.6376 -1.5947 -4.3665
  638MOL0     H86124   1.614   9.557   9.346 -2.4303  0.1109 -0.9619
  638MOL0     H86125   1.731   9.681   9.312  0.1944 -0.0626  0.5121
  638MOL0     H86126   1.359   9.790   9.126 -2.1325  0.5093  2.8821
  638MOL0     H86127   1.388   9.396   9.350  0.3986  0.3809  0.4480
  638MOL0     H86128   1.177   9.349   9.618 -0.5535 -0.6614 -1.5023
  638MOL0     H86129   1.342   9.292   9.668  2.7027  3.7085  0.4266
  638MOL0     H86130   1.337   9.427   9.565  1.5606 -1.6977 -2.4817
  639MOL0     O86131   2.491   4.646   3.526  0.2775 -0.4815  0.1062
  639MOL0     C86132   2.568   4.611   3.434 -0.2283 -0.1706  0.5733
  639MOL0     O86133   2.615   4.483   3.420  0.1156  0.4067  0.0552
  639MOL0     C86134   2.534   4.395   3.488  0.2579 -0.0885  0.7899
  639MOL0     C86135   2.417   4.356   3.421 -0.3463 -1.2068  0.8085
  639MOL0     C86136   2.335   4.262   3.474  1.6496 -0.0811 -1.6207
  639MOL0     C86137   2.353   4.229   3.611 -0.1881  0.2852 -0.6899
  639MOL0     O86138   2.258   4.158   3.682  0.5786  0.4109  0.2179
  639MOL0     C86139   2.230   4.205   3.812  0.4941 -0.3556 -0.8975
  639MOL0     C86140   2.118   4.124   3.874  0.4175  0.0741 -0.6093
  639MOL0     C86141   1.984   4.168   3.825 -0.3461 -0.2222 -0.7779
  639MOL0     C86142   1.939   4.286   3.897  0.1580  1.1226 -0.2391
  639MOL0     C86143   1.808   4.333   3.843  0.3362 -0.4014 -0.0636
  639MOL0     C86144   1.686   4.247   3.877  0.0808 -0.6323  0.9582
  639MOL0     C86145   1.558   4.320   3.831 -0.1296 -0.3404  0.1668
  639MOL0     C86146   1.444   4.229   3.785 -0.1455 -0.3578 -0.6744
  639MOL0     N86147   1.482   4.166   3.655  0.7134  0.0635 -0.7396
  639MOL0     C86148   1.414   4.175   3.532  0.6906 -0.3756  0.2585
  639MOL0     C86149   1.468   4.085   3.446  0.6490  0.8624 -0.2770
  639MOL0     C86150   1.436   4.078   3.297 -0.0920 -0.8716 -1.3468
  639MOL0     C86151   1.504   4.180   3.208  0.4371  0.0227  0.7315
  639MOL0     C86152   1.653   4.202   3.249  0.4103 -0.2488 -0.4119
  639MOL0     C86153   1.700   4.317   3.172 -0.0545  0.3468 -0.4215
  639MOL0     O86154   1.831   4.344   3.217 -0.4338 -0.0420  0.7401
  639MOL0     C86155   1.884   4.459   3.163  0.1889  0.2950 -0.1771
  639MOL0     C86156   1.847   4.525   3.044 -0.9005 -0.2118  0.4818
  639MOL0     C86157   1.882   4.660   3.015  0.0453  0.0783  0.2482
  639MOL0     C86158   1.980   4.720   3.091  0.6986  0.2280  0.1366
  639MOL0     C86159   2.043   4.839   3.040 -0.2196 -0.3293 -0.2670
  639MOL0     O86160   2.097   4.917   3.138  0.6110 -0.2860 -1.2906
  639MOL0     C86161   2.164   5.032   3.115 -0.3812 -0.1195 -0.8695
  639MOL0     C86162   2.184   5.109   3.228 -0.0702 -0.2880  0.1577
  639MOL0     C86163   2.245   5.234   3.232  0.2400 -0.1452 -1.0898
  639MOL0     C86164   2.298   5.283   3.114 -0.9263  0.3343 -0.2600
  639MOL0     O86165   2.396   5.374   3.110 -0.0420 -0.3231 -0.2019
  639MOL0     C86166   2.408   5.474   3.216  0.2254  0.3858  0.3003
  639MOL0     C86167   2.425   5.615   3.151 -0.0327 -0.2455  0.3515
  639MOL0     C86168   2.432   5.731   3.249 -0.0224 -0.5056 -0.5174
  639MOL0     C86169   2.315   5.759   3.336  0.1232 -0.2928 -1.1114
  639MOL0     C86170   2.323   5.895   3.409  0.1718 -0.4277 -0.1553
  639MOL0     C86171   2.219   5.887   3.524  0.3408  0.3335  0.4074
  639MOL0     C86172   2.229   6.015   3.616  0.6951 -0.3494  0.1012
  639MOL0     C86173   2.151   5.991   3.745  0.8113 -0.0677  0.4253
  639MOL0    Cl86174   2.161   6.151   3.840 -0.1394  0.3372  0.2851
  639MOL0     C86175   2.275   5.212   2.996  0.1312  1.0830 -0.2240
  639MOL0     C86176   2.207   5.092   2.989  0.9869  0.5746  0.2392
  639MOL0     O86177   2.022   4.863   2.924 -0.4206 -0.0817 -0.2513
  639MOL0     C86178   2.020   4.656   3.218  0.3735  1.0658  0.4986
  639MOL0     C86179   1.972   4.531   3.244  0.0691 -0.0329  0.1472
  639MOL0     N86180   1.562   4.010   3.514  0.2244  0.8160  0.6013
  639MOL0     N86181   1.566   4.059   3.638 -0.7856 -0.4573 -0.3625
  639MOL0     C86182   2.474   4.266   3.675  0.4853 -1.3164 -1.0062
  639MOL0     C86183   2.564   4.344   3.612  0.0148  0.4304  0.3106
  639MOL0     C86184   2.621   4.719   3.349  0.3339 -0.4216 -0.4129
  639MOL0     C86185   2.743   4.701   3.291 -1.3433 -0.7668 -0.1048
  639MOL0     C86186   2.803   4.787   3.206  0.0871 -0.4894  0.6690
  639MOL0     C86187   2.736   4.909   3.174  0.3858 -0.7226  0.1147
  639MOL0     O86188   2.809   5.010   3.110 -0.0416  0.2312 -1.1642
  639MOL0     C86189   2.743   5.124   3.048 -0.8097 -0.4847 -0.3589
  639MOL0     C86190   2.843   5.172   2.941 -0.6580 -0.4075 -0.2303
  639MOL0     C86191   2.926   5.058   2.879  0.0325 -0.3133  0.6459
  639MOL0     C86192   3.031   5.117   2.775  0.2025  0.1260 -0.3959
  639MOL0     C86193   2.988   5.207   2.669  0.5106 -0.2594 -0.2841
  639MOL0     C86194   2.936   5.263   2.569 -0.8358  0.4714 -0.3506
  639MOL0     C86195   2.602   4.934   3.231  0.4835  0.1978 -0.1063
  639MOL0     C86196   2.543   4.833   3.304 -0.2284  0.4840 -0.3157
  639MOL0     C86197   2.400   4.865   3.352  0.5842 -0.4458 -0.4805
  639MOL0     H86198   2.378   4.406   3.333  1.8793 -0.0675  0.3841
  639MOL0     H86199   2.236   4.236   3.439  1.0086 -1.6670  1.1197
  639MOL0     H86200   2.314   4.181   3.877  0.0896 -0.3370 -0.3606
  639MOL0     H86201   2.207   4.312   3.811 -3.9479 -1.0428  1.4017
  639MOL0     H86202   2.114   4.130   3.983 -2.2818  0.3930 -0.6770
  639MOL0     H86203   2.127   4.016   3.854 -1.1105 -0.3336  0.6870
  639MOL0     H86204   1.909   4.090   3.825 -0.5965 -0.0171 -2.5624
  639MOL0     H86205   1.991   4.183   3.717  0.8880 -4.1239 -1.3870
  639MOL0     H86206   1.916   4.265   4.002 -3.6453 -0.5318 -1.2108
  639MOL0     H86207   2.014   4.364   3.885  0.5253  0.4517 -2.9453
  639MOL0     H86208   1.784   4.432   3.884  1.4856 -0.2800  0.3517
  639MOL0     H86209   1.817   4.336   3.734  1.3053  0.4079  0.0266
  639MOL0     H86210   1.698   4.148   3.834  3.1677  0.2865 -0.5956
  639MOL0     H86211   1.685   4.232   3.986  1.4718  2.6698  1.5540
  639MOL0     H86212   1.585   4.395   3.756 -2.4562 -0.8768 -1.2903
  639MOL0     H86213   1.514   4.373   3.915  0.9069  0.3837  0.2766
  639MOL0     H86214   1.443   4.146   3.856  1.2909  1.4654  1.6428
  639MOL0     H86215   1.345   4.274   3.778 -0.2773 -0.9291 -4.7298
  639MOL0     H86216   1.337   4.247   3.505  0.5793 -0.1736  1.0676
  639MOL0     H86217   1.462   3.977   3.262  2.0253 -0.8615  0.0064
  639MOL0     H86218   1.331   4.106   3.281 -0.0094 -0.7534 -1.6837
  639MOL0     H86219   1.489   4.131   3.111 -2.2721  2.5334 -0.2614
  639MOL0     H86220   1.447   4.273   3.214  0.2269 -0.0945  0.5415
  639MOL0     H86221   1.698   4.107   3.217 -0.5969 -1.1079  0.6111
  639MOL0     H86222   1.668   4.228   3.354  0.6890 -1.0486 -0.2413
  639MOL0     H86223   1.639   4.407   3.184  0.0630  0.7635 -2.5496
  639MOL0     H86224   1.698   4.281   3.069  2.8789 -3.5367  0.6449
  639MOL0     H86225   1.770   4.486   2.978 -0.6438  0.7843 -0.4359
  639MOL0     H86226   1.828   4.712   2.936  1.5082 -0.1240 -0.9265
  639MOL0     H86227   2.137   5.065   3.315 -1.8396 -0.6506 -0.9152
  639MOL0     H86228   2.274   5.268   3.331  1.1670  0.2004 -1.4718
  639MOL0     H86229   2.319   5.480   3.281 -1.4557 -2.8872 -1.4599
  639MOL0     H86230   2.501   5.456   3.270  0.5751 -3.7572 -1.3328
  639MOL0     H86231   2.509   5.600   3.082 -0.5630 -0.3873 -0.2735
  639MOL0     H86232   2.338   5.644   3.092  0.9178 -0.1065 -1.0486
  639MOL0     H86233   2.516   5.712   3.316 -0.3319 -0.5643 -0.1468
  639MOL0     H86234   2.455   5.821   3.192 -1.3510 -1.6530 -3.0340
  639MOL0     H86235   2.308   5.681   3.413  2.2010 -0.4191 -0.9940
  639MOL0     H86236   2.223   5.759   3.277 -0.2315  1.4785 -0.6049
  639MOL0     H86237   2.303   5.976   3.339 -1.2095  3.1522  3.9196
  639MOL0     H86238   2.420   5.920   3.454 -0.8558 -0.0877  2.0099
  639MOL0     H86239   2.115   5.891   3.492  0.5938  0.8809 -0.3680
  639MOL0     H86240   2.225   5.798   3.588 -0.3784  0.0913  0.1460
  639MOL0     H86241   2.203   6.110   3.568 -0.6616 -1.6947 -2.0172
  639MOL0     H86242   2.336   6.013   3.636  0.6058 -0.4136  0.5774
  639MOL0     H86243   2.046   5.968   3.729  0.7936 -0.1218  0.6215
  639MOL0     H86244   2.190   5.910   3.806  0.9639 -0.4030 -0.1079
  639MOL0     H86245   2.308   5.235   2.895 -1.0047  0.2788 -0.7933
  639MOL0     H86246   2.182   5.043   2.896 -1.4312 -0.8612  1.5574
  639MOL0     H86247   2.096   4.698   3.283  1.6447 -1.1612  0.5669
  639MOL0     H86248   2.007   4.478   3.332 -1.2132  1.1104  1.4071
  639MOL0     H86249   2.489   4.232   3.777 -0.4668 -1.9422 -1.0604
  639MOL0     H86250   2.659   4.371   3.657  1.9492 -2.5512 -1.6372
  639MOL0     H86251   2.807   4.614   3.306 -1.7288 -1.2288 -1.0560
  639MOL0     H86252   2.900   4.768   3.159  1.5087  2.2709  2.2698
  639MOL0     H86253   2.733   5.204   3.122  0.8815 -1.1878  0.6849
  639MOL0     H86254   2.642   5.100   3.012 -0.7224 -0.5885 -0.5367
  639MOL0     H86255   2.909   5.240   2.995 -0.1339 -1.4814  0.5187
  639MOL0     H86256   2.794   5.222   2.857  0.8875  1.0092 -0.3464
  639MOL0     H86257   2.858   4.996   2.821 -1.6930  3.4664 -1.7431
  639MOL0     H86258   2.986   4.993   2.943  1.2255  1.7670  1.7462
  639MOL0     H86259   3.102   5.174   2.836  0.6479 -2.2832  1.4713
  639MOL0     H86260   3.091   5.037   2.731  0.2731 -0.9305  1.5300
  639MOL0     H86261   2.900   5.319   2.485 -2.7295  1.5248  1.0971
  639MOL0     H86262   2.553   5.029   3.214 -0.6786 -0.2824  0.5087
  639MOL0     H86263   2.395   4.918   3.447 -1.3392 -1.9038  0.3038
  639MOL0     H86264   2.343   4.919   3.275  1.0831 -1.2360 -1.4223
  639MOL0     H86265   2.349   4.770   3.366 -0.0824 -0.0396 -0.0606
  640MOL0     O86266   3.675  11.089   3.974  0.0351  1.0483 -0.1032
  640MOL0     C86267   3.611  11.179   3.915 -0.1697 -0.3528  0.0171
  640MOL0     O86268   3.668  11.292   3.864  0.0790 -0.4191  0.2748
  640MOL0     C86269   3.802  11.316   3.888  0.5775  0.0388 -0.0251
  640MOL0     C86270   3.858  11.408   3.974  0.6267 -1.9604  0.5172
  640MOL0     C86271   3.998  11.410   3.990  0.1022 -0.2073  0.3210
  640MOL0     C86272   4.078  11.324   3.920  0.5198 -0.1329  0.6390
  640MOL0     O86273   4.207  11.350   3.948 -0.3784 -0.2473 -0.0559
  640MOL0     C86274   4.318  11.273   3.890 -0.2456  0.7663 -0.4547
  640MOL0     C86275   4.448  11.356   3.903  0.8222  0.4395  0.2574
  640MOL0     C86276   4.553  11.288   3.818  0.3691  0.0203  0.1019
  640MOL0     C86277   4.680  11.377   3.790 -0.3143 -0.0570 -0.1553
  640MOL0     C86278   4.767  11.317   3.671  0.2751 -0.1213 -1.0194
  640MOL0     C86279   4.908  11.363   3.664 -0.6336  0.2136 -0.6441
  640MOL0     C86280   5.001  11.299   3.561  0.8984  0.9883 -1.2304
  640MOL0     C86281   5.123  11.376   3.509  0.4258  0.6333 -0.5504
  640MOL0     N86282   5.065  11.498   3.447  1.1373 -0.3957 -0.6947
  640MOL0     C86283   4.968  11.506   3.355  0.6646 -0.1147 -0.3869
  640MOL0     C86284   4.937  11.631   3.335  0.7572  0.4431  0.0822
  640MOL0     C86285   4.819  11.690   3.259 -0.3273  0.5623 -0.0233
  640MOL0     C86286   4.714  11.769   3.332 -0.5316 -0.9351  0.2784
  640MOL0     C86287   4.678  11.698   3.468  1.0826  0.6683 -0.1797
  640MOL0     C86288   4.564  11.775   3.545  0.5635  0.6707 -1.1662
  640MOL0     O86289   4.445  11.803   3.459 -0.2080 -0.6271  0.0522
  640MOL0     C86290   4.343  11.715   3.447 -0.3913  1.2152 -0.6471
  640MOL0     C86291   4.267  11.738   3.332 -0.0009 -0.0519  0.2140
  640MOL0     C86292   4.159  11.658   3.305 -0.0569  0.0142  0.0298
  640MOL0     C86293   4.109  11.559   3.401  0.4330 -0.8212  0.4289
  640MOL0     C86294   3.983  11.480   3.375  0.4649  0.2979 -0.0047
  640MOL0     O86295   3.987  11.358   3.427  0.6075  0.2588 -0.5355
  640MOL0     C86296   3.884  11.268   3.417 -0.3002 -0.0429  0.1422
  640MOL0     C86297   3.749  11.294   3.403  0.3896 -0.1586 -0.5132
  640MOL0     C86298   3.659  11.189   3.407  0.1576  0.1987  1.1024
  640MOL0     C86299   3.700  11.060   3.399 -1.0972  0.3419  1.0337
  640MOL0     O86300   3.613  10.958   3.398 -0.0183  0.9076 -0.0976
  640MOL0     C86301   3.533  10.946   3.520 -0.3579 -0.7594  0.9875
  640MOL0     C86302   3.546  10.811   3.565 -0.7259  1.2438 -0.1594
  640MOL0     C86303   3.477  10.761   3.696 -0.3276 -0.2684 -0.5851
  640MOL0     C86304   3.333  10.809   3.717  1.0207  1.2929  0.1438
  640MOL0     C86305   3.248  10.737   3.821  0.8260  0.0544 -0.3631
  640MOL0     C86306   3.096  10.739   3.798  0.1576 -0.1312  0.2378
  640MOL0     C86307   3.031  10.654   3.909  0.2942  0.9839  0.1792
  640MOL0     C86308   2.876  10.635   3.889 -0.7255 -0.4047  0.2207
  640MOL0    Cl86309   2.809  10.632   4.056  0.0984  0.4171 -0.5338
  640MOL0     C86310   3.836  11.029   3.403 -0.3016 -0.0681  0.4891
  640MOL0     C86311   3.927  11.132   3.409 -0.4962 -0.1546  0.2695
  640MOL0     O86312   3.898  11.526   3.290  0.4127  0.5157 -0.4005
  640MOL0     C86313   4.194  11.532   3.500  0.1315 -0.0635 -0.4146
  640MOL0     C86314   4.313  11.602   3.524  0.1429 -0.4578 -0.2207
  640MOL0     N86315   5.025  11.707   3.414 -0.5542  0.5951  0.0468
  640MOL0     N86316   5.101  11.621   3.471 -0.9023 -1.0505  0.7638
  640MOL0     C86317   4.020  11.232   3.832  0.3498  0.4624 -0.6539
  640MOL0     C86318   3.884  11.237   3.809 -0.3965  0.1690 -0.0302
  640MOL0     C86319   3.460  11.173   3.896 -0.2232  0.0987 -0.8265
  640MOL0     C86320   3.382  11.098   3.986 -0.3286  1.1727 -0.3967
  640MOL0     C86321   3.244  11.071   3.967 -0.4495  1.2879 -0.2580
  640MOL0     C86322   3.175  11.138   3.870 -0.9447 -0.2785 -0.1537
  640MOL0     O86323   3.049  11.096   3.845  0.5238  0.1766 -0.5570
  640MOL0     C86324   2.950  11.155   3.932 -0.2734  0.1974 -0.0432
  640MOL0     C86325   2.810  11.091   3.903  0.2618 -0.1238  0.1796
  640MOL0     C86326   2.781  11.085   3.747  0.1698 -0.2147  0.6600
  640MOL0     C86327   2.772  10.951   3.684  0.0791  0.3254  0.0151
  640MOL0     C86328   2.727  10.967   3.541 -0.5300  0.2382 -1.3713
  640MOL0     C86329   2.715  10.998   3.426  0.0219 -0.0577 -0.1782
  640MOL0     C86330   3.249  11.215   3.785  0.6640  0.1558 -0.1508
  640MOL0     C86331   3.389  11.237   3.784  0.4867 -0.3371 -0.5245
  640MOL0     C86332   3.463  11.310   3.672  0.0774  0.4261  0.2164
  640MOL0     H86333   3.801  11.477   4.036  3.3748 -0.2248  1.2826
  640MOL0     H86334   4.047  11.477   4.060  2.7414 -0.5588 -1.0844
  640MOL0     H86335   4.338  11.187   3.955 -0.0332 -0.7985 -2.4859
  640MOL0     H86336   4.303  11.234   3.789  0.7197 -2.3827  0.4903
  640MOL0     H86337   4.478  11.364   4.008  0.4865  3.0859  0.2101
  640MOL0     H86338   4.423  11.459   3.875 -0.4252 -0.5207 -2.5148
  640MOL0     H86339   4.504  11.263   3.724  2.0916  1.6560 -1.3013
  640MOL0     H86340   4.589  11.194   3.860  0.0731  0.7085  2.0449
  640MOL0     H86341   4.661  11.483   3.770 -0.0241 -0.1847 -1.1599
  640MOL0     H86342   4.736  11.369   3.883  0.7984 -3.2020 -0.9824
  640MOL0     H86343   4.766  11.209   3.684  4.4648 -0.2541 -0.3163
  640MOL0     H86344   4.720  11.342   3.576 -2.5521 -0.5458  0.1573
  640MOL0     H86345   4.901  11.471   3.656 -0.5004  0.4135  1.3207
  640MOL0     H86346   4.948  11.341   3.764 -2.0465  0.1339 -0.0581
  640MOL0     H86347   4.943  11.276   3.470 -0.6204  0.0645 -0.0881
  640MOL0     H86348   5.024  11.205   3.611 -4.0777 -0.4561 -1.1011
  640MOL0     H86349   5.188  11.391   3.595  0.5394  0.0250 -0.5282
  640MOL0     H86350   5.168  11.320   3.426 -1.6592 -1.1821 -0.5531
  640MOL0     H86351   4.926  11.412   3.322  2.0053 -1.3289  1.1769
  640MOL0     H86352   4.861  11.758   3.184  1.7088 -0.6540 -0.0753
  640MOL0     H86353   4.753  11.613   3.217 -0.7142  0.1590  1.2778
  640MOL0     H86354   4.755  11.868   3.350 -3.2361  0.4844 -0.8191
  640MOL0     H86355   4.624  11.776   3.270 -2.5785 -1.1596  3.0260
  640MOL0     H86356   4.756  11.679   3.543 -0.5570 -0.4128  1.3504
  640MOL0     H86357   4.638  11.601   3.438  4.1620 -0.2026 -1.9312
  640MOL0     H86358   4.600  11.867   3.591  0.6151 -1.0573  2.6351
  640MOL0     H86359   4.541  11.710   3.630  1.2014 -0.5006 -1.8547
  640MOL0     H86360   4.304  11.817   3.267  0.6241 -0.6649 -0.1790
  640MOL0     H86361   4.094  11.679   3.220 -1.5479  2.6398  1.6578
  640MOL0     H86362   3.717  11.397   3.399  2.5968  0.8660  3.1408
  640MOL0     H86363   3.556  11.216   3.385  0.7988 -0.8634 -4.6160
  640MOL0     H86364   3.565  11.024   3.590  0.2417  0.0641 -0.1641
  640MOL0     H86365   3.428  10.970   3.504  0.5309  4.0341  0.9223
  640MOL0     H86366   3.514  10.738   3.490  2.5005 -0.3382 -0.1429
  640MOL0     H86367   3.653  10.804   3.583 -1.0292  0.9938  1.8089
  640MOL0     H86368   3.458  10.653   3.689  0.9795 -0.4270 -3.8983
  640MOL0     H86369   3.538  10.776   3.785 -1.2067 -1.6154  0.2828
  640MOL0     H86370   3.293  10.778   3.620  1.9330  1.0760 -0.1729
  640MOL0     H86371   3.322  10.916   3.732  2.9815  1.4869  0.5410
  640MOL0     H86372   3.282  10.782   3.915  2.2884 -0.5612 -0.5679
  640MOL0     H86373   3.284  10.634   3.824  1.5059  0.2662 -0.9746
  640MOL0     H86374   3.061  10.842   3.809  4.1002  1.3500  0.8210
  640MOL0     H86375   3.073  10.706   3.697 -2.5205  0.1335  0.7010
  640MOL0     H86376   3.048  10.691   4.011  0.3125 -1.2290  1.0272
  640MOL0     H86377   3.077  10.555   3.908 -0.2835  0.6519 -2.8906
  640MOL0     H86378   2.825  10.715   3.834 -2.4883 -1.6835 -0.1091
  640MOL0     H86379   2.844  10.549   3.830  3.1143  0.4661 -3.6464
  640MOL0     H86380   3.859  10.923   3.391 -1.4330 -0.4538  1.5175
  640MOL0     H86381   4.035  11.118   3.408 -0.7104 -2.9221 -3.3748
  640MOL0     H86382   4.160  11.459   3.573 -2.9690  1.7236  0.1057
  640MOL0     H86383   4.370  11.577   3.613  0.6174 -0.1957 -0.4477
  640MOL0     H86384   4.074  11.151   3.784 -0.5308  1.3190 -3.2263
  640MOL0     H86385   3.837  11.167   3.741  1.5535  2.2803 -3.8764
  640MOL0     H86386   3.424  11.039   4.066  0.8949  2.1298 -0.3144
  640MOL0     H86387   3.190  10.994   4.023  0.7261 -0.2351 -1.1350
  640MOL0     H86388   2.946  11.262   3.905  0.5453  0.3928  0.5994
  640MOL0     H86389   2.961  11.145   4.040 -2.4183 -0.9894  0.1227
  640MOL0     H86390   2.734  11.151   3.951  2.6130  2.5706  0.8085
  640MOL0     H86391   2.800  10.995   3.954  0.4452 -0.3590 -0.2201
  640MOL0     H86392   2.853  11.152   3.699 -0.6724  1.0506  1.1096
  640MOL0     H86393   2.686  11.134   3.722  0.9503  0.6498 -0.7683
  640MOL0     H86394   2.865  10.894   3.687  0.4221  0.7919 -0.9682
  640MOL0     H86395   2.695  10.897   3.740  1.0221 -0.7581  0.2961
  640MOL0     H86396   2.688  11.018   3.324  0.8412  1.2346 -0.1630
  640MOL0     H86397   3.201  11.247   3.693 -1.0615  0.2990  0.7445
  640MOL0     H86398   3.394  11.341   3.594 -0.3315 -0.7678  0.0921
  640MOL0     H86399   3.530  11.391   3.705  1.9269  1.1173 -4.4580
  640MOL0     H86400   3.537  11.236   3.640  2.4377  0.4516  4.7187
  641MOL0     O86401  10.580  10.315  10.745 -0.1772 -0.6751 -0.2897
  641MOL0     C86402  10.644  10.404  10.795  0.9386 -1.2672 -0.6129
  641MOL0     O86403  10.632  10.433  10.925  0.0232 -0.0232  0.3357
  641MOL0     C86404  10.546  10.369  11.001 -0.4505 -0.3494  0.9462
  641MOL0     C86405  10.427  10.436  11.037 -1.0573  0.0069 -0.6838
  641MOL0     C86406  10.338  10.378  11.122 -0.2406  0.3248 -1.4564
  641MOL0     C86407  10.373  10.253  11.183 -0.6704  0.2815 -0.0014
  641MOL0     O86408  10.288  10.196  11.279  0.1265  0.4033 -0.1411
  641MOL0     C86409  10.339  10.174  11.414  0.2315 -0.5901 -1.0146
  641MOL0     C86410  10.349  10.314  11.487  0.3417 -0.9872 -0.9070
  641MOL0     C86411  10.211  10.387  11.492  0.9436 -0.2270 -0.2927
  641MOL0     C86412  10.117  10.326  11.594  0.6850 -0.4547  0.2216
  641MOL0     C86413   9.993  10.404  11.613 -0.4443 -0.1598 -0.3345
  641MOL0     C86414   9.893  10.341  11.709 -0.1271 -0.0621 -1.2235
  641MOL0     C86415   9.764  10.425  11.745  0.5638  1.0369  0.6925
  641MOL0     C86416   9.663  10.330  11.805  0.1821  0.2546  0.7366
  641MOL0     N86417   9.608  10.245  11.688  0.5446  0.0607 -0.3096
  641MOL0     C86418   9.518  10.303  11.594  0.0341  0.2293 -0.1501
  641MOL0     C86419   9.520  10.218  11.489 -0.2669  0.2475  0.1288
  641MOL0     C86420   9.459  10.249  11.353 -0.1698  0.3043 -1.5933
  641MOL0     C86421   9.549  10.302  11.253 -1.0487  0.1554  0.5539
  641MOL0     C86422   9.482  10.364  11.127  0.1129 -1.1224  0.2901
  641MOL0     C86423   9.558  10.323  11.000  0.3738  0.5792  0.7347
  641MOL0     O86424   9.506  10.193  10.974 -0.6657  0.1549 -0.1058
  641MOL0     C86425   9.546  10.127  10.856 -0.2404 -0.0635  0.1531
  641MOL0     C86426   9.625  10.181  10.760  0.7323  0.6097  0.5772
  641MOL0     C86427   9.658  10.108  10.650  0.0159 -0.9840 -0.7978
  641MOL0     C86428   9.618   9.977  10.629 -0.0618 -1.3515  0.2387
  641MOL0     C86429   9.656   9.910  10.503 -1.1893  0.1415 -0.0249
  641MOL0     O86430   9.583   9.801  10.474 -0.6390 -0.5266 -1.2925
  641MOL0     C86431   9.625   9.730  10.364 -0.0469 -0.0942  0.2737
  641MOL0     C86432   9.755   9.684  10.336  0.2461 -1.3856 -0.0076
  641MOL0     C86433   9.790   9.598  10.234  0.8374  0.7168 -0.1130
  641MOL0     C86434   9.684   9.573  10.136 -0.2529 -0.3666  0.4991
  641MOL0     O86435   9.722   9.498  10.029  0.2974  0.4121  0.1269
  641MOL0     C86436   9.634   9.415   9.956 -0.3205  0.2823  0.8597
  641MOL0     C86437   9.691   9.321   9.865 -0.3775  1.2257  0.6311
  641MOL0     C86438   9.832   9.350   9.828 -0.4250 -1.1045 -0.3848
  641MOL0     C86439   9.892   9.278   9.704  1.0232  0.3662 -0.1720
  641MOL0     C86440   9.997   9.377   9.632 -0.5955 -0.0696  0.1467
  641MOL0     C86441  10.035   9.335   9.496  1.1128  0.2290 -0.3534
  641MOL0     C86442   9.916   9.314   9.402 -0.4563  0.1392 -0.4589
  641MOL0     C86443   9.968   9.313   9.254 -0.0659 -0.5614 -0.5280
  641MOL0    Cl86444  10.027   9.466   9.188 -0.5679 -0.1967 -0.3381
  641MOL0     C86445   9.553   9.619  10.154 -0.4702  0.0403  0.0052
  641MOL0     C86446   9.524   9.696  10.269  0.0235 -0.0005 -0.7067
  641MOL0     O86447   9.744   9.966  10.431 -0.1771 -0.4768 -0.2873
  641MOL0     C86448   9.570   9.911  10.743  0.0422 -0.4578 -0.3041
  641MOL0     C86449   9.523   9.987  10.850 -0.5946  0.6607 -0.6455
  641MOL0     N86450   9.603  10.115  11.514 -0.5653  0.1998  0.3795
  641MOL0     N86451   9.656  10.129  11.635 -0.5198 -0.6293  0.1394
  641MOL0     C86452  10.490  10.187  11.154 -0.6970  0.2492 -0.1096
  641MOL0     C86453  10.574  10.245  11.066  0.1874  0.1434 -0.8604
  641MOL0     C86454  10.739  10.469  10.709  0.0335  0.3512  0.7518
  641MOL0     C86455  10.801  10.388  10.611  0.4062  0.0291  0.6067
  641MOL0     C86456  10.893  10.435  10.519 -0.4159  1.3745  0.5815
  641MOL0     C86457  10.926  10.568  10.519 -0.4055 -0.5157 -0.0735
  641MOL0     O86458  11.019  10.631  10.432  0.1080 -0.2313 -0.1930
  641MOL0     C86459  11.087  10.561  10.322  0.0422 -0.5474 -0.2400
  641MOL0     C86460  10.980  10.536  10.208  0.4181 -0.2135 -0.7612
  641MOL0     C86461  11.046  10.482  10.084  0.3470 -0.2802  0.3817
  641MOL0     C86462  11.117  10.348  10.101 -0.3338 -0.5159 -0.1423
  641MOL0     C86463  11.059  10.252  10.195 -0.7534  0.5325  0.4865
  641MOL0     C86464  10.996  10.173  10.264  1.0023 -0.2665 -1.0178
  641MOL0     C86465  10.875  10.647  10.619 -1.0573  0.2714  0.1406
  641MOL0     C86466  10.784  10.602  10.714  0.2681 -0.4954  0.9733
  641MOL0     C86467  10.737  10.695  10.820 -0.6630  0.5299 -0.5993
  641MOL0     H86468  10.399  10.536  11.005 -1.0109  2.2371  5.0488
  641MOL0     H86469  10.251  10.436  11.150 -1.6805 -1.6094 -1.7617
  641MOL0     H86470  10.272  10.112  11.474 -1.5594  1.2626 -0.9894
  641MOL0     H86471  10.437  10.126  11.404 -0.0298 -1.4642  0.3745
  641MOL0     H86472  10.410  10.378  11.423 -1.7313 -0.0950 -2.0967
  641MOL0     H86473  10.396  10.304  11.585 -3.5372 -0.0638  1.2970
  641MOL0     H86474  10.164  10.380  11.394  0.5171  0.1950 -0.1233
  641MOL0     H86475  10.226  10.492  11.522 -0.7912 -0.0654  0.1478
  641MOL0     H86476  10.095  10.229  11.548  1.8365 -0.0976 -1.1570
  641MOL0     H86477  10.168  10.311  11.689  0.6649  1.2156  0.5282
  641MOL0     H86478  10.032  10.500  11.649  1.3916 -0.6006 -1.0629
  641MOL0     H86479   9.939  10.420  11.518 -3.7241 -2.2841  0.9822
  641MOL0     H86480   9.860  10.247  11.664  0.8499 -1.4870  0.8514
  641MOL0     H86481   9.946  10.320  11.802  0.1543  0.9144 -1.1531
  641MOL0     H86482   9.710  10.463  11.657  0.2369  1.0163  0.8862
  641MOL0     H86483   9.800  10.492  11.823 -0.1505  0.0545  1.8946
  641MOL0     H86484   9.709  10.278  11.890 -0.2193  2.1483  2.1855
  641MOL0     H86485   9.574  10.384  11.837 -0.5120  0.1640 -0.9406
  641MOL0     H86486   9.466  10.398  11.592  0.8541  0.6871 -0.0824
  641MOL0     H86487   9.415  10.155  11.320 -3.2740  0.5854  1.2438
  641MOL0     H86488   9.386  10.329  11.358  0.5164  0.8481  0.9376
  641MOL0     H86489   9.615  10.381  11.288 -0.8607  0.3295 -0.1731
  641MOL0     H86490   9.618  10.222  11.224 -0.9889  0.7069 -0.9200
  641MOL0     H86491   9.468  10.471  11.144  0.4744 -0.5908 -2.3483
  641MOL0     H86492   9.379  10.327  11.117  0.4060 -1.5875 -1.2555
  641MOL0     H86493   9.664  10.309  11.021  0.8898  0.3874 -1.6779
  641MOL0     H86494   9.544  10.394  10.918  0.6981 -1.4934 -1.1908
  641MOL0     H86495   9.642  10.288  10.756 -1.8502  1.0709 -1.0131
  641MOL0     H86496   9.716  10.159  10.574  1.1859 -2.5346 -0.9843
  641MOL0     H86497   9.826   9.718  10.411  2.4852 -1.9503 -1.7406
  641MOL0     H86498   9.890   9.558  10.223 -0.0131 -1.7765  0.5499
  641MOL0     H86499   9.558   9.358  10.009 -0.3375 -1.0966 -0.5534
  641MOL0     H86500   9.584   9.487   9.891 -0.0798  1.6367  2.1376
  641MOL0     H86501   9.689   9.219   9.906  2.9794 -0.1857 -2.1642
  641MOL0     H86502   9.619   9.320   9.782 -4.2066 -0.6814  3.6277
  641MOL0     H86503   9.838   9.455   9.797 -0.8448 -0.6656  0.9635
  641MOL0     H86504   9.906   9.335   9.907  2.6688  1.8994 -2.4457
  641MOL0     H86505   9.815   9.239   9.637  0.3845  0.0758  0.7119
  641MOL0     H86506   9.939   9.185   9.737 -0.5983 -0.3317  0.2896
  641MOL0     H86507  10.092   9.384   9.686 -0.7863 -0.9983  0.6203
  641MOL0     H86508   9.958   9.479   9.627  0.2981  0.2215 -2.1096
  641MOL0     H86509  10.101   9.408   9.449  3.4654 -1.4579  0.1245
  641MOL0     H86510  10.089   9.241   9.513  2.4741  0.9494 -0.5247
  641MOL0     H86511   9.846   9.397   9.416 -1.9196 -0.9504 -0.9659
  641MOL0     H86512   9.872   9.216   9.422  2.3755 -1.3386 -1.0316
  641MOL0     H86513  10.049   9.242   9.239  0.3239 -0.7692  2.0441
  641MOL0     H86514   9.884   9.283   9.192 -1.1278 -2.4646  1.6800
  641MOL0     H86515   9.478   9.602  10.077 -2.1257  1.2852  1.2521
  641MOL0     H86516   9.418   9.715  10.283 -0.3889 -1.7106 -1.2986
  641MOL0     H86517   9.540   9.807  10.733  0.8209 -0.8054  0.8750
  641MOL0     H86518   9.468   9.945  10.933 -0.2296 -3.9450 -2.4517
  641MOL0     H86519  10.506  10.090  11.200 -3.5096 -1.3098 -2.1264
  641MOL0     H86520  10.661  10.181  11.053  0.0380 -0.0992 -0.6834
  641MOL0     H86521  10.784  10.282  10.597  0.1730  0.2786 -1.2068
  641MOL0     H86522  10.956  10.369  10.461 -0.4412  1.6820  0.2064
  641MOL0     H86523  11.122  10.464  10.359 -2.0803 -0.9438  0.8956
  641MOL0     H86524  11.163  10.623  10.274 -0.9767 -0.7407 -2.1815
  641MOL0     H86525  10.934  10.634  10.192  0.9402  0.1140 -0.3234
  641MOL0     H86526  10.903  10.463  10.237  0.3089  0.2195  0.0910
  641MOL0     H86527  11.121  10.546  10.037  0.3538 -0.0411  0.7166
  641MOL0     H86528  10.969  10.471  10.007  0.1029 -1.2152  0.7473
  641MOL0     H86529  11.118  10.291  10.007 -2.1108 -1.6378  0.4725
  641MOL0     H86530  11.216  10.375  10.138  0.2337  1.9126 -3.0569
  641MOL0     H86531  10.962  10.094  10.328  1.0667  0.2461 -0.3463
  641MOL0     H86532  10.905  10.750  10.605 -1.6637  0.6120  1.2394
  641MOL0     H86533  10.764  10.666  10.922 -0.9466  1.9586 -0.0893
  641MOL0     H86534  10.779  10.796  10.808  0.8733 -0.0754 -0.5143
  641MOL0     H86535  10.629  10.705  10.817 -0.6787  1.2051  0.8804
  642MOL0     O86536   0.764   5.704   0.774 -0.0181 -0.2788 -0.1809
  642MOL0     C86537   0.654   5.698   0.716 -0.1814 -0.0439 -0.0545
  642MOL0     O86538   0.532   5.696   0.776  0.0478 -1.2062  0.3485
  642MOL0     C86539   0.533   5.681   0.913 -0.9218 -0.0501  0.8797
  642MOL0     C86540   0.501   5.567   0.963 -0.1974 -0.0212 -0.6234
  642MOL0     C86541   0.486   5.544   1.100  0.4333  0.7612  1.4262
  642MOL0     C86542   0.493   5.654   1.184  0.1930 -0.3574 -0.0539
  642MOL0     O86543   0.469   5.645   1.315 -0.1446  0.9299 -0.5109
  642MOL0     C86544   0.584   5.608   1.394  0.7985  0.2347 -0.2972
  642MOL0     C86545   0.561   5.654   1.539 -0.5356  0.1332 -0.1941
  642MOL0     C86546   0.581   5.799   1.557  0.5806 -0.3606  0.8255
  642MOL0     C86547   0.507   5.839   1.688  0.2997 -0.9965  1.2038
  642MOL0     C86548   0.550   5.983   1.717 -0.1872 -0.0437  0.5187
  642MOL0     C86549   0.491   6.044   1.835 -1.1293 -0.5318  0.1899
  642MOL0     C86550   0.536   5.981   1.967  0.7371  0.4595  0.5019
  642MOL0     C86551   0.526   6.062   2.094  0.4054 -0.4504  0.9288
  642MOL0     N86552   0.398   6.119   2.141  1.2686  0.4873  0.3084
  642MOL0     C86553   0.390   6.228   2.217  0.9751 -0.6449 -0.4724
  642MOL0     C86554   0.253   6.245   2.246 -0.1475  1.0105  0.0334
  642MOL0     C86555   0.186   6.352   2.335  0.5364  0.8399 -0.3325
  642MOL0     C86556   0.039   6.340   2.319  0.1452  0.0892  0.0546
  642MOL0     C86557  -0.051   6.431   2.408 -0.7693 -0.4134 -0.0395
  642MOL0     C86558  -0.193   6.403   2.374  0.1327  0.7432  0.3414
  642MOL0     O86559  -0.286   6.471   2.452  0.2234 -0.7225  0.3713
  642MOL0     C86560  -0.357   6.571   2.384 -0.2850  0.3702 -0.2792
  642MOL0     C86561  -0.313   6.704   2.383 -0.0801  0.3880 -0.0942
  642MOL0     C86562  -0.385   6.809   2.318  0.6612  0.8193 -0.1998
  642MOL0     C86563  -0.509   6.774   2.258 -0.8339 -1.4843  1.5672
  642MOL0     C86564  -0.584   6.882   2.187  0.1106 -0.4755 -1.3275
  642MOL0     O86565  -0.695   6.857   2.115  0.8943  0.3232 -0.3409
  642MOL0     C86566  -0.755   6.939   2.029  0.2709 -0.3422  0.0289
  642MOL0     C86567  -0.716   7.066   1.980  0.5393  0.4438 -0.7217
  642MOL0     C86568  -0.793   7.132   1.888 -0.5762 -0.3143  0.6498
  642MOL0     C86569  -0.918   7.079   1.846 -0.6162 -0.5460  0.0313
  642MOL0     O86570  -0.989   7.156   1.755  0.5495 -0.1899 -0.1927
  642MOL0     C86571  -1.107   7.098   1.689  0.0936 -0.7679 -0.7784
  642MOL0     C86572  -1.083   7.005   1.570 -0.4998  0.3430 -0.5374
  642MOL0     C86573  -1.226   6.952   1.528  0.3455 -0.5348 -0.1816
  642MOL0     C86574  -1.215   6.850   1.412  0.9590 -0.4616  0.8978
  642MOL0     C86575  -1.354   6.793   1.390  0.0854 -0.3940 -0.6895
  642MOL0     C86576  -1.435   6.894   1.308  0.1029 -0.4717 -0.1574
  642MOL0     C86577  -1.586   6.916   1.332  0.5920  0.5009 -0.4712
  642MOL0     C86578  -1.616   6.989   1.465  0.2194 -0.3260  0.0658
  642MOL0    Cl86579  -1.623   6.884   1.601 -0.1402 -0.2203 -0.2173
  642MOL0     C86580  -0.955   6.955   1.881  0.1448  1.0412 -0.2225
  642MOL0     C86581  -0.878   6.888   1.979 -0.5831  0.4013 -0.4601
  642MOL0     O86582  -0.536   6.994   2.202  0.8812 -0.4277  0.1782
  642MOL0     C86583  -0.553   6.643   2.255  0.0159 -0.5753 -0.0992
  642MOL0     C86584  -0.484   6.545   2.329  0.5019 -0.0113 -0.0360
  642MOL0     N86585   0.186   6.163   2.161  0.2700 -0.1338 -0.0020
  642MOL0     N86586   0.273   6.100   2.091  0.5441  0.3000 -0.2519
  642MOL0     C86587   0.527   5.781   1.132 -0.1352  0.7871  0.0006
  642MOL0     C86588   0.540   5.795   0.993 -0.5364 -0.4744 -0.2138
  642MOL0     C86589   0.660   5.693   0.566 -0.6176  0.7467  0.0027
  642MOL0     C86590   0.785   5.737   0.504  0.4610  0.7112  0.4854
  642MOL0     C86591   0.810   5.729   0.368  0.4466 -0.7127 -0.6354
  642MOL0     C86592   0.708   5.670   0.284  0.0873  0.8530  0.4810
  642MOL0     O86593   0.749   5.648   0.155 -0.3978 -0.3774  0.2178
  642MOL0     C86594   0.657   5.605   0.049 -0.0147 -1.2960 -0.6640
  642MOL0     C86595   0.675   5.686  -0.082  0.6745  0.7780 -0.1662
  642MOL0     C86596   0.792   5.619  -0.160  0.4699  0.2196  0.1999
  642MOL0     C86597   0.803   5.692  -0.298 -0.4054  0.4874  0.2398
  642MOL0     C86598   0.925   5.652  -0.373 -0.3182 -0.7473 -0.1507
  642MOL0     C86599   1.021   5.635  -0.444  0.2504  0.1348  0.3031
  642MOL0     C86600   0.587   5.628   0.341 -0.1037 -0.0350  0.3610
  642MOL0     C86601   0.567   5.636   0.482 -0.4995  0.8031  0.4236
  642MOL0     C86602   0.443   5.574   0.536  0.3707  0.9563  0.4157
  642MOL0     H86603   0.497   5.478   0.901  0.7065 -1.5004  1.3331
  642MOL0     H86604   0.472   5.447   1.146  1.6847 -0.7579 -1.1492
  642MOL0     H86605   0.599   5.501   1.408  1.2769  0.4682  1.1793
  642MOL0     H86606   0.680   5.654   1.366  3.2039 -1.2156  4.5239
  642MOL0     H86607   0.624   5.602   1.612  0.2931 -0.3074 -1.2009
  642MOL0     H86608   0.458   5.631   1.568  0.3260 -0.0676  3.1043
  642MOL0     H86609   0.546   5.857   1.472 -1.4259 -0.4661  1.5214
  642MOL0     H86610   0.686   5.820   1.578  0.0092  2.6367  1.1503
  642MOL0     H86611   0.398   5.838   1.679  0.2172  0.9908  1.4630
  642MOL0     H86612   0.540   5.781   1.775  0.0561 -1.5234  0.9519
  642MOL0     H86613   0.658   5.987   1.735  0.7862 -3.1301 -3.2215
  642MOL0     H86614   0.539   6.044   1.626 -0.0909  0.9304  1.1476
  642MOL0     H86615   0.508   6.152   1.835  3.2420 -1.0379 -0.0706
  642MOL0     H86616   0.383   6.025   1.829 -0.9150 -1.7610 -0.2545
  642MOL0     H86617   0.643   5.958   1.976  0.2090 -2.3525  0.5804
  642MOL0     H86618   0.482   5.888   1.986  0.7177  0.3173 -0.2247
  642MOL0     H86619   0.571   6.002   2.173  1.4769  0.7819  1.2735
  642MOL0     H86620   0.603   6.140   2.087  1.6796 -1.7705 -0.6889
  642MOL0     H86621   0.464   6.286   2.271  0.7243 -0.2373 -0.5569
  642MOL0     H86622   0.196   6.332   2.442  1.7840 -1.2441 -0.7875
  642MOL0     H86623   0.230   6.451   2.314 -0.7378  0.8050 -3.7930
  642MOL0     H86624   0.019   6.361   2.214  1.1736 -0.9978 -0.3850
  642MOL0     H86625  -0.000   6.241   2.343 -1.6251  0.4956 -1.0114
  642MOL0     H86626  -0.036   6.539   2.393  0.5038 -0.4923  0.5513
  642MOL0     H86627  -0.039   6.399   2.512  0.4072 -0.8848 -0.3066
  642MOL0     H86628  -0.216   6.296   2.378  0.3323  0.3078 -4.4350
  642MOL0     H86629  -0.219   6.421   2.269 -2.6067  0.7444  0.9452
  642MOL0     H86630  -0.217   6.731   2.426  1.2344  0.2624 -2.7210
  642MOL0     H86631  -0.347   6.911   2.316  0.7566  0.8035 -2.6112
  642MOL0     H86632  -0.624   7.115   2.010  0.5851  0.1040 -0.2873
  642MOL0     H86633  -0.765   7.230   1.850  1.0425  0.4555  3.4803
  642MOL0     H86634  -1.169   7.048   1.764 -1.3222 -0.6349 -1.8176
  642MOL0     H86635  -1.170   7.178   1.648 -0.9937 -2.1717 -1.9717
  642MOL0     H86636  -1.030   7.058   1.490  1.2904 -0.9828 -0.3056
  642MOL0     H86637  -1.013   6.926   1.598 -0.2483  0.0667 -1.8999
  642MOL0     H86638  -1.280   6.909   1.612  0.7519 -3.7821 -1.4373
  642MOL0     H86639  -1.282   7.033   1.481  2.3713  1.8722  1.2906
  642MOL0     H86640  -1.139   6.776   1.441 -1.0842 -3.6715 -1.1842
  642MOL0     H86641  -1.170   6.887   1.319  1.5977 -0.8626  1.0354
  642MOL0     H86642  -1.402   6.787   1.488 -3.2418 -3.0429 -2.2683
  642MOL0     H86643  -1.356   6.692   1.348 -2.8820 -1.3852  1.5047
  642MOL0     H86644  -1.393   6.995   1.312  0.4687 -0.5420 -1.5945
  642MOL0     H86645  -1.426   6.869   1.202 -2.9822 -3.9872  0.1843
  642MOL0     H86646  -1.623   6.813   1.322  1.5997 -0.2538  2.3955
  642MOL0     H86647  -1.627   6.980   1.254 -1.4677  1.3195  1.1987
  642MOL0     H86648  -1.546   7.071   1.483  0.8923 -0.8110 -0.2969
  642MOL0     H86649  -1.710   7.041   1.447  0.2991  0.4776  1.8012
  642MOL0     H86650  -1.038   6.902   1.835  1.5737 -0.0927 -1.6082
  642MOL0     H86651  -0.910   6.793   2.021 -0.1407  1.7589  3.3441
  642MOL0     H86652  -0.642   6.607   2.204  0.2148 -0.2205 -0.7030
  642MOL0     H86653  -0.538   6.451   2.337 -0.6357  0.6609  0.4017
  642MOL0     H86654   0.535   5.870   1.194  0.4056  0.5468  0.2821
  642MOL0     H86655   0.562   5.890   0.946 -1.2071  0.5306  1.4255
  642MOL0     H86656   0.859   5.795   0.559  1.1521  1.1579 -0.8524
  642MOL0     H86657   0.912   5.758   0.343 -0.0129  2.5611  0.7827
  642MOL0     H86658   0.556   5.624   0.087  0.5416  1.3014 -0.3016
  642MOL0     H86659   0.671   5.497   0.042  1.8241 -1.0329 -1.5797
  642MOL0     H86660   0.683   5.794  -0.063 -1.1292  1.2579 -1.7276
  642MOL0     H86661   0.584   5.675  -0.142  0.3897  0.3569  0.3482
  642MOL0     H86662   0.770   5.515  -0.185 -1.8160  0.7533 -0.2078
  642MOL0     H86663   0.883   5.616  -0.100  1.3917  0.5760 -1.1240
  642MOL0     H86664   0.713   5.674  -0.358  0.1301 -1.2023 -0.1210
  642MOL0     H86665   0.820   5.799  -0.286  2.4148 -0.0029  1.3764
  642MOL0     H86666   1.111   5.602  -0.492 -0.7582 -2.7022  0.1722
  642MOL0     H86667   0.515   5.579   0.277  1.6005 -0.7079 -1.1517
  642MOL0     H86668   0.379   5.650   0.582  0.0011 -1.3502  4.1355
  642MOL0     H86669   0.376   5.529   0.462  1.7386  0.3394 -0.5139
  642MOL0     H86670   0.468   5.503   0.615 -1.4292  0.1670  0.3313
  643MOL0     O86671  11.374   2.301   8.607  0.3056 -0.5661 -0.4234
  643MOL0     C86672  11.498   2.289   8.607  0.4658 -0.0474 -0.0920
  643MOL0     O86673  11.583   2.262   8.720  0.0316 -0.6599 -0.0492
  643MOL0     C86674  11.516   2.221   8.828 -0.2599  1.2390  0.4165
  643MOL0     C86675  11.489   2.081   8.835 -0.8435 -0.5504 -0.3989
  643MOL0     C86676  11.409   2.039   8.943  0.8859 -0.6328  0.6584
  643MOL0     C86677  11.357   2.135   9.037 -0.6465  1.1312 -0.5059
  643MOL0     O86678  11.282   2.095   9.143  0.2669 -0.3059  0.9062
  643MOL0     C86679  11.270   1.958   9.185 -0.0338 -1.4844  0.4038
  643MOL0     C86680  11.146   1.949   9.274 -0.5956  0.6599 -0.5333
  643MOL0     C86681  11.136   1.813   9.347 -0.0004  0.0943  0.4657
  643MOL0     C86682  11.130   1.697   9.242  1.3236  0.0241 -0.0563
  643MOL0     C86683  11.098   1.562   9.308  0.1577 -0.5446  0.5892
  643MOL0     C86684  11.034   1.471   9.209  0.0136 -0.0182  0.8169
  643MOL0     C86685  10.879   1.496   9.199 -0.6974  0.4514 -0.1060
  643MOL0     C86686  10.793   1.369   9.206  0.4171 -0.4860  0.1889
  643MOL0     N86687  10.820   1.306   9.083 -0.0685 -0.1405  0.4277
  643MOL0     C86688  10.753   1.301   8.962 -0.1649 -0.6319  0.1378
  643MOL0     C86689  10.796   1.203   8.883  0.0718  0.4553  0.4992
  643MOL0     C86690  10.764   1.157   8.742 -0.2353 -0.0559 -0.1310
  643MOL0     C86691  10.654   1.050   8.750 -0.5928  0.1906  0.7678
  643MOL0     C86692  10.701   0.923   8.816  0.4223  0.5705 -0.2171
  643MOL0     C86693  10.598   0.818   8.792 -0.7692 -0.3920 -0.4041
  643MOL0     O86694  10.666   0.694   8.758  0.1962  0.3724 -0.3379
  643MOL0     C86695  10.725   0.610   8.846  0.0734 -0.4530  0.8158
  643MOL0     C86696  10.801   0.509   8.796  0.6498  0.1103 -0.8573
  643MOL0     C86697  10.867   0.415   8.876 -0.9392 -0.3160 -0.2352
  643MOL0     C86698  10.859   0.427   9.013 -0.2694  0.9227 -0.2334
  643MOL0     C86699  10.941   0.349   9.110  0.5194  0.4918  0.3193
  643MOL0     O86700  10.979   0.226   9.070 -0.6697  0.8682 -0.3533
  643MOL0     C86701  11.039   0.137   9.157 -0.1211 -0.3084  0.5812
  643MOL0     C86702  11.014  -0.001   9.146 -0.1448 -0.1507  0.1217
  643MOL0     C86703  11.081  -0.086   9.230  0.6544  1.1462 -0.6900
  643MOL0     C86704  11.174  -0.043   9.324  0.8514  0.2939 -0.6323
  643MOL0     O86705  11.227  -0.141   9.400 -0.4814  0.5203  0.2562
  643MOL0     C86706  11.361  -0.131   9.440  0.6420  0.4931 -0.0062
  643MOL0     C86707  11.393  -0.225   9.564 -0.2495 -0.0429 -0.6158
  643MOL0     C86708  11.330  -0.368   9.550  0.2261 -0.9986 -0.2687
  643MOL0     C86709  11.415  -0.465   9.628 -0.8111 -0.0774 -0.1582
  643MOL0     C86710  11.334  -0.590   9.664 -0.7287 -0.8288 -0.5322
  643MOL0     C86711  11.438  -0.685   9.735  0.0646 -0.3566  1.1982
  643MOL0     C86712  11.360  -0.814   9.776 -0.4689 -0.4910 -0.9413
  643MOL0     C86713  11.458  -0.920   9.843  0.5766 -0.0020  0.8134
  643MOL0    Cl86714  11.379  -1.047   9.946  0.3296  0.0775  0.1560
  643MOL0     C86715  11.205   0.093   9.328 -0.8860 -0.2221  0.7359
  643MOL0     C86716  11.143   0.180   9.237 -0.0142 -0.1800 -0.3222
  643MOL0     O86717  10.965   0.395   9.221 -0.1810 -0.2215  0.2930
  643MOL0     C86718  10.776   0.531   9.064 -0.1551 -0.4582  0.5348
  643MOL0     C86719  10.713   0.626   8.986  1.0431  0.3473  0.5001
  643MOL0     N86720  10.884   1.136   8.971 -0.6718  0.0382  0.3314
  643MOL0     N86721  10.906   1.206   9.078  0.6011 -0.6170  0.7094
  643MOL0     C86722  11.391   2.267   9.024  0.1726 -0.1504  0.4299
  643MOL0     C86723  11.468   2.314   8.916  1.0725 -0.8474 -0.1157
  643MOL0     C86724  11.572   2.314   8.470 -0.3896  0.2502  0.0516
  643MOL0     C86725  11.713   2.338   8.476  0.0257 -0.0872 -0.7785
  643MOL0     C86726  11.779   2.380   8.361 -0.0594  0.1640  0.2718
  643MOL0     C86727  11.716   2.379   8.236 -0.1367 -0.3268  0.2123
  643MOL0     O86728  11.783   2.436   8.131 -0.4426 -0.4993  0.3197
  643MOL0     C86729  11.791   2.364   8.009 -0.3895 -0.0148  0.5124
  643MOL0     C86730  11.914   2.408   7.936  0.0953  1.1002 -0.1317
  643MOL0     C86731  12.048   2.339   7.993 -0.0191 -0.5797 -0.5316
  643MOL0     C86732  12.171   2.400   7.918  0.5011  1.2070 -0.3588
  643MOL0     C86733  12.288   2.321   7.946  0.8196  0.7249 -0.5171
  643MOL0     C86734  12.386   2.261   7.984 -0.7832  0.4022  0.1757
  643MOL0     C86735  11.584   2.356   8.226  0.5043  1.3828 -0.9394
  643MOL0     C86736  11.511   2.317   8.342  0.5676 -0.4483  0.2205
  643MOL0     C86737  11.362   2.297   8.324  0.6841  0.8094 -0.0535
  643MOL0     H86738  11.544   2.013   8.771 -0.0698  0.3151 -0.6801
  643MOL0     H86739  11.406   1.931   8.954  1.2891 -1.2679 -3.7371
  643MOL0     H86740  11.264   1.893   9.097  0.1307 -1.0829  0.0902
  643MOL0     H86741  11.366   1.946   9.235  1.3534  4.2903 -0.2497
  643MOL0     H86742  11.061   1.973   9.210  0.4787  3.2451 -1.1107
  643MOL0     H86743  11.150   2.024   9.354  0.1996 -2.5673  2.7110
  643MOL0     H86744  11.056   1.803   9.421  0.3063 -1.0773  0.6583
  643MOL0     H86745  11.230   1.809   9.403 -0.0720 -0.5983  0.5436
  643MOL0     H86746  11.052   1.714   9.167 -0.1054  0.5650  1.4706
  643MOL0     H86747  11.219   1.685   9.181  0.7268  0.4460 -1.0365
  643MOL0     H86748  11.192   1.520   9.345 -0.0278  1.1434  3.2135
  643MOL0     H86749  11.042   1.576   9.401 -2.1215  4.4574 -1.1569
  643MOL0     H86750  11.079   1.494   9.112 -1.2047 -0.7394  0.0501
  643MOL0     H86751  11.065   1.369   9.233  0.5628 -0.3373 -1.0746
  643MOL0     H86752  10.853   1.561   9.115  0.6876  0.6559 -0.4022
  643MOL0     H86753  10.857   1.554   9.289 -2.1469 -2.7174  1.7700
  643MOL0     H86754  10.826   1.309   9.292  1.5101 -1.4811 -0.8656
  643MOL0     H86755  10.688   1.398   9.214  0.4779  1.0881 -3.0916
  643MOL0     H86756  10.673   1.372   8.943 -0.4007 -0.6765  0.9246
  643MOL0     H86757  10.720   1.229   8.673 -1.9658 -0.1033  0.8592
  643MOL0     H86758  10.860   1.121   8.705  0.1152 -2.7141  2.8342
  643MOL0     H86759  10.570   1.089   8.809 -0.4068 -0.6459  1.6118
  643MOL0     H86760  10.620   1.024   8.650 -0.5750 -0.1076  0.8376
  643MOL0     H86761  10.713   0.940   8.924 -0.6169  0.8569 -0.1430
  643MOL0     H86762  10.794   0.900   8.763 -0.9836  1.0285 -3.0371
  643MOL0     H86763  10.538   0.849   8.706  2.1457  1.8116 -1.8174
  643MOL0     H86764  10.524   0.815   8.873  0.2537 -0.5293  0.5492
  643MOL0     H86765  10.803   0.494   8.689 -0.8170 -1.1399 -0.7451
  643MOL0     H86766  10.939   0.347   8.831 -0.1853  2.0021 -2.7882
  643MOL0     H86767  10.949  -0.045   9.071  2.3136  2.0606 -3.5923
  643MOL0     H86768  11.057  -0.192   9.224  0.7902  1.0786 -0.1063
  643MOL0     H86769  11.427  -0.154   9.356 -2.2592 -0.3068 -2.2511
  643MOL0     H86770  11.381  -0.029   9.475 -1.1857  1.3226 -1.2195
  643MOL0     H86771  11.501  -0.230   9.584 -0.7433  1.1431  3.1852
  643MOL0     H86772  11.349  -0.178   9.652 -0.4207 -0.4475 -0.4857
  643MOL0     H86773  11.226  -0.365   9.584  0.9854 -3.4999  2.7995
  643MOL0     H86774  11.335  -0.403   9.447  0.5230  0.7104 -0.8569
  643MOL0     H86775  11.451  -0.407   9.714  0.7842 -0.0503 -0.8077
  643MOL0     H86776  11.499  -0.500   9.567 -0.6845 -2.6518  1.3431
  643MOL0     H86777  11.303  -0.639   9.571 -0.5500 -0.2265 -0.9159
  643MOL0     H86778  11.254  -0.570   9.735 -0.6150  0.7038 -0.7890
  643MOL0     H86779  11.515  -0.722   9.667  0.8630 -3.5707  3.6245
  643MOL0     H86780  11.481  -0.625   9.816 -0.5361  1.2628  0.3690
  643MOL0     H86781  11.317  -0.861   9.687 -2.5739 -1.8205  0.6822
  643MOL0     H86782  11.281  -0.795   9.849 -0.2822  0.0042 -0.8692
  643MOL0     H86783  11.515  -0.974   9.767  0.3492 -0.7242  1.1477
  643MOL0     H86784  11.521  -0.866   9.914 -2.2649  1.9727  2.0008
  643MOL0     H86785  11.289   0.132   9.386 -0.6650  0.0284  0.2544
  643MOL0     H86786  11.181   0.281   9.229  0.3750 -0.3598 -0.8292
  643MOL0     H86787  10.759   0.533   9.171  1.5309 -1.7477  0.8706
  643MOL0     H86788  10.644   0.701   9.025 -0.2100  1.1797 -2.9289
  643MOL0     H86789  11.353   2.349   9.084 -2.0299 -0.3245 -0.6229
  643MOL0     H86790  11.478   2.420   8.893 -1.3273 -1.0521 -2.7016
  643MOL0     H86791  11.770   2.333   8.568 -2.1005 -0.3163  0.6006
  643MOL0     H86792  11.882   2.412   8.369  0.0440  0.4312 -1.6126
  643MOL0     H86793  11.711   2.410   7.950  0.5234  1.3449  0.2790
  643MOL0     H86794  11.771   2.257   8.016 -0.9100  0.1465  1.6180
  643MOL0     H86795  11.919   2.517   7.945  2.1266  1.0813 -0.7054
  643MOL0     H86796  11.914   2.381   7.830 -0.1758 -2.0372  0.5781
  643MOL0     H86797  12.038   2.235   7.963 -0.6985 -1.3190  1.9934
  643MOL0     H86798  12.052   2.343   8.102 -1.9262 -0.6208 -0.4386
  643MOL0     H86799  12.152   2.390   7.810 -0.7566  1.1024 -0.1486
  643MOL0     H86800  12.173   2.505   7.946 -0.7854  0.9971  0.6058
  643MOL0     H86801  12.480   2.213   8.000 -1.2198 -0.8331 -0.8162
  643MOL0     H86802  11.534   2.358   8.130  0.6298 -0.9108 -1.1037
  643MOL0     H86803  11.336   2.194   8.351  0.4464  0.8357 -0.1847
  643MOL0     H86804  11.301   2.357   8.392 -1.6038 -2.2417  0.7919
  643MOL0     H86805  11.327   2.304   8.221 -1.7163  1.1866  0.7389
  644MOL0     O86806   8.777  10.038   8.763  0.2756  0.2695 -0.4224
  644MOL0     C86807   8.794   9.926   8.712 -0.4546 -0.4733  0.1559
  644MOL0     O86808   8.714   9.866   8.610 -0.7503  0.4460 -0.2421
  644MOL0     C86809   8.596   9.919   8.592 -0.4956 -0.7510  0.6949
  644MOL0     C86810   8.571  10.030   8.512  0.2800 -0.4658 -0.7576
  644MOL0     C86811   8.446  10.082   8.508  0.2883 -0.4478  0.3299
  644MOL0     C86812   8.342  10.036   8.586 -1.1007 -0.3510  0.0514
  644MOL0     O86813   8.221  10.098   8.607  0.5161  0.4725  0.4450
  644MOL0     C86814   8.176  10.220   8.531 -1.0579 -0.0012  0.0730
  644MOL0     C86815   8.037  10.276   8.575  0.1729 -0.2750  0.3427
  644MOL0     C86816   7.929  10.250   8.471  0.2920 -0.5982 -0.8487
  644MOL0     C86817   7.922  10.346   8.351  0.4826  0.0527  0.3219
  644MOL0     C86818   7.803  10.329   8.261 -0.3748  0.1373  0.0327
  644MOL0     C86819   7.683  10.347   8.353  0.4953 -0.2701 -0.4525
  644MOL0     C86820   7.609  10.217   8.368  0.4372  1.2452  0.5534
  644MOL0     C86821   7.489  10.231   8.466  0.0097  0.7278 -0.8119
  644MOL0     N86822   7.531  10.248   8.599  0.3670 -0.0228 -0.1419
  644MOL0     C86823   7.622  10.168   8.660  0.2408  0.1697 -0.7756
  644MOL0     C86824   7.614  10.205   8.791  0.5557 -0.0567 -0.5535
  644MOL0     C86825   7.677  10.153   8.913  0.6266  0.7147  0.8656
  644MOL0     C86826   7.660   9.997   8.939  0.0555  0.2545  0.1339
  644MOL0     C86827   7.522   9.965   8.976 -0.0252  0.8838  0.7733
  644MOL0     C86828   7.520   9.845   9.069  0.2260  1.3696  0.4574
  644MOL0     O86829   7.550   9.896   9.200  0.2759  0.1185 -0.2211
  644MOL0     C86830   7.556   9.805   9.305  0.2166 -0.1350  0.5289
  644MOL0     C86831   7.470   9.700   9.321  0.0624  0.4485 -0.0235
  644MOL0     C86832   7.490   9.610   9.421 -0.2819 -0.6233  0.6956
  644MOL0     C86833   7.578   9.626   9.524 -0.2112 -0.3009  0.3546
  644MOL0     C86834   7.578   9.539   9.648 -0.3497 -0.5651 -0.1430
  644MOL0     O86835   7.515   9.414   9.653  0.2681 -0.1961 -0.3146
  644MOL0     C86836   7.554   9.331   9.757  0.0862 -0.1632 -0.0133
  644MOL0     C86837   7.670   9.256   9.755  0.1279 -0.1170 -0.1759
  644MOL0     C86838   7.717   9.181   9.867 -0.0493  1.1090  0.5582
  644MOL0     C86839   7.637   9.158   9.974  0.2026 -0.6893  0.3163
  644MOL0     O86840   7.659   9.066  10.070  0.1528  0.7337  0.1552
  644MOL0     C86841   7.797   9.023  10.075 -1.2171 -0.8032  0.4960
  644MOL0     C86842   7.825   8.897  10.004 -0.3890 -0.2483 -0.4580
  644MOL0     C86843   7.802   8.781  10.097 -1.0832  0.6731 -0.5118
  644MOL0     C86844   7.664   8.717  10.091  0.4613 -0.3947  0.1841
  644MOL0     C86845   7.669   8.570  10.114  0.1488 -0.2795 -0.3917
  644MOL0     C86846   7.536   8.511  10.046 -0.1186  0.1139 -0.4923
  644MOL0     C86847   7.509   8.361  10.085  0.7897  0.1828 -0.6532
  644MOL0     C86848   7.600   8.260  10.018  0.0447 -0.6970 -0.1789
  644MOL0    Cl86849   7.545   8.102  10.072 -0.1950  0.0327 -0.8561
  644MOL0     C86850   7.513   9.227   9.972  0.0678  0.0670  0.6473
  644MOL0     C86851   7.475   9.314   9.870  0.7772  0.8299  1.4703
  644MOL0     O86852   7.652   9.587   9.735  0.1679  0.3222 -0.1708
  644MOL0     C86853   7.665   9.739   9.512 -0.1951 -0.2880  0.2178
  644MOL0     C86854   7.654   9.824   9.407 -0.4138  1.0160  0.4587
  644MOL0     N86855   7.517  10.306   8.808  0.6845  0.3601 -1.0978
  644MOL0     N86856   7.479  10.333   8.692  0.8904 -0.0491  0.2777
  644MOL0     C86857   8.368   9.926   8.666  0.5921  0.5968  0.3131
  644MOL0     C86858   8.493   9.860   8.670  0.2447  0.2451 -0.0086
  644MOL0     C86859   8.918   9.856   8.746 -0.5113 -0.1035 -1.0168
  644MOL0     C86860   9.042   9.913   8.739  0.4964 -0.6847  0.0343
  644MOL0     C86861   9.157   9.850   8.787 -0.3389  0.0099 -0.4104
  644MOL0     C86862   9.158   9.724   8.835 -0.0077 -0.0936  0.1679
  644MOL0     O86863   9.286   9.672   8.868  1.1158 -0.7913  0.7627
  644MOL0     C86864   9.291   9.580   8.979  0.2989 -0.0015 -0.0595
  644MOL0     C86865   9.427   9.604   9.042 -0.1026  0.2395 -0.2323
  644MOL0     C86866   9.472   9.738   9.105 -0.6217  0.3065  0.1087
  644MOL0     C86867   9.598   9.719   9.193 -0.3082  0.1533  1.1720
  644MOL0     C86868   9.709   9.668   9.111 -0.3163 -0.5215  0.8929
  644MOL0     C86869   9.798   9.626   9.045  0.0028  0.7216  0.0820
  644MOL0     C86870   9.032   9.659   8.846 -0.0559 -0.8070 -0.0081
  644MOL0     C86871   8.910   9.724   8.801 -1.0934 -0.8260  0.4049
  644MOL0     C86872   8.779   9.664   8.831 -0.0818  0.9966 -0.4171
  644MOL0     H86873   8.652  10.085   8.466 -1.1897  0.3696 -2.4536
  644MOL0     H86874   8.432  10.170   8.447  0.6758 -0.8322 -0.3249
  644MOL0     H86875   8.259  10.291   8.537  0.5757 -1.5687 -2.0634
  644MOL0     H86876   8.181  10.207   8.423  2.5071  1.9798 -0.1645
  644MOL0     H86877   8.062  10.383   8.569  2.1255 -0.3455  4.1755
  644MOL0     H86878   8.009  10.255   8.678 -0.9577 -2.3476 -0.3279
  644MOL0     H86879   7.833  10.240   8.523  0.8258 -4.5535 -0.3485
  644MOL0     H86880   7.955  10.150   8.436 -1.8198 -1.7606  0.6628
  644MOL0     H86881   7.922  10.446   8.393 -1.1244 -0.1099  0.7625
  644MOL0     H86882   8.014  10.329   8.294 -1.7792 -0.4591 -3.5609
  644MOL0     H86883   7.795  10.416   8.194 -0.0480 -0.3617 -0.6712
  644MOL0     H86884   7.798  10.233   8.210  0.5915  0.7593 -1.2965
  644MOL0     H86885   7.702  10.393   8.450 -1.5360 -3.8846  1.9125
  644MOL0     H86886   7.611  10.416   8.307 -1.4385 -2.4573 -0.9133
  644MOL0     H86887   7.677  10.133   8.382  0.2526  0.1812 -3.5911
  644MOL0     H86888   7.555  10.196   8.276  2.6892  2.5487 -1.1612
  644MOL0     H86889   7.426  10.311   8.428  0.5445  0.6331 -1.9619
  644MOL0     H86890   7.432  10.137   8.462  1.2201 -0.0003 -2.2173
  644MOL0     H86891   7.695  10.097   8.621  3.1679  1.3926  2.0414
  644MOL0     H86892   7.784  10.175   8.914  1.8640 -4.0972  0.6007
  644MOL0     H86893   7.628  10.206   8.995  0.9380  3.2367 -0.5040
  644MOL0     H86894   7.686   9.949   8.845  0.3542  1.6770 -0.5308
  644MOL0     H86895   7.735   9.967   9.013  1.0805 -2.2507 -1.7831
  644MOL0     H86896   7.467   9.932   8.888  1.7753 -1.5141  0.4597
  644MOL0     H86897   7.474  10.057   9.010  2.9379  2.5136  0.9030
  644MOL0     H86898   7.590   9.767   9.036 -1.7101 -0.8747  1.3144
  644MOL0     H86899   7.421   9.798   9.070  0.6227  0.4562 -0.5472
  644MOL0     H86900   7.384   9.685   9.257 -0.2729 -1.3856  0.7907
  644MOL0     H86901   7.414   9.534   9.435  0.1131 -0.8364  1.7813
  644MOL0     H86902   7.739   9.265   9.671  1.3764 -0.9364  0.7250
  644MOL0     H86903   7.810   9.127   9.852 -0.1940  0.3242  2.2248
  644MOL0     H86904   7.870   9.104  10.060 -0.8070 -0.2592  4.3948
  644MOL0     H86905   7.823   9.006  10.180 -1.4922 -3.4476  0.2103
  644MOL0     H86906   7.756   8.893   9.919  0.1748 -0.7773 -0.8975
  644MOL0     H86907   7.930   8.890   9.974  1.4574  1.9883  4.3914
  644MOL0     H86908   7.868   8.701  10.061 -0.8500  0.6826 -0.1150
  644MOL0     H86909   7.838   8.801  10.198 -0.2421 -0.7931 -0.4925
  644MOL0     H86910   7.613   8.738   9.996  0.5930  4.1298  0.8980
  644MOL0     H86911   7.609   8.768  10.171  0.3258  2.3628 -1.5341
  644MOL0     H86912   7.674   8.556  10.222  2.3502  0.4468 -0.3646
  644MOL0     H86913   7.761   8.521  10.081  0.7571  0.0585  0.7462
  644MOL0     H86914   7.453   8.570  10.086 -0.3922 -0.5549 -0.0530
  644MOL0     H86915   7.540   8.516   9.937 -0.9080 -3.1932 -0.7674
  644MOL0     H86916   7.403   8.336  10.071  0.3679  2.3398 -1.6869
  644MOL0     H86917   7.522   8.335  10.190  1.3933 -0.3658 -0.8594
  644MOL0     H86918   7.595   8.262   9.909 -0.1109 -0.9251 -0.1776
  644MOL0     H86919   7.703   8.282  10.048  0.0209  0.1965 -0.6975
  644MOL0     H86920   7.440   9.202  10.049 -0.7929  2.0729  0.5299
  644MOL0     H86921   7.384   9.372   9.882  0.4018  0.2813  1.2865
  644MOL0     H86922   7.730   9.762   9.596 -3.1283  0.1591  2.5230
  644MOL0     H86923   7.723   9.902   9.375  0.6035 -0.4109 -1.0004
  644MOL0     H86924   8.285   9.898   8.729  0.6100  0.8726  0.4626
  644MOL0     H86925   8.513   9.777   8.737 -0.9763  0.6983  0.9739
  644MOL0     H86926   9.053  10.014   8.702  2.5496 -0.0100  2.2297
  644MOL0     H86927   9.254   9.898   8.785  0.6264 -1.8621 -1.1536
  644MOL0     H86928   9.283   9.476   8.946 -0.2907 -0.2622  0.8363
  644MOL0     H86929   9.212   9.597   9.053  0.1319 -2.8521  0.5132
  644MOL0     H86930   9.491   9.587   8.955  0.4649 -1.1611  0.4230
  644MOL0     H86931   9.439   9.538   9.129 -2.8525 -0.2139 -0.1101
  644MOL0     H86932   9.401   9.785   9.174 -0.3978  2.5118 -1.0799
  644MOL0     H86933   9.484   9.809   9.023  3.4034 -1.0828 -0.7313
  644MOL0     H86934   9.640   9.813   9.230  1.1593 -0.3173  0.7849
  644MOL0     H86935   9.570   9.660   9.281 -3.8435  1.4098  1.0444
  644MOL0     H86936   9.869   9.562   8.997 -3.0613 -3.4389  0.5437
  644MOL0     H86937   9.017   9.556   8.878  0.3381 -1.2491 -1.1825
  644MOL0     H86938   8.721   9.735   8.889  0.0026  0.7135  0.0186
  644MOL0     H86939   8.741   9.636   8.732 -1.2964 -0.8089  0.5110
  644MOL0     H86940   8.786   9.567   8.881 -0.2799 -0.5157 -3.0894
  645MOL0     O86941   6.226  10.075  10.346 -0.3680 -0.1395  1.7198
  645MOL0     C86942   6.135  10.135  10.399  0.0026 -0.5874 -0.2207
  645MOL0     O86943   6.004  10.091  10.393  0.4070  0.1081  0.1546
  645MOL0     C86944   5.986   9.971  10.337 -0.2673 -0.5226  1.0360
  645MOL0     C86945   5.992   9.857  10.417 -1.0234  0.4882  0.3814
  645MOL0     C86946   5.960   9.731  10.362 -0.3281 -0.4737 -0.3343
  645MOL0     C86947   5.928   9.721  10.224 -0.3760  0.3480 -0.1112
  645MOL0     O86948   5.909   9.605  10.157  0.4078  0.8948 -0.7186
  645MOL0     C86949   5.982   9.575  10.042  0.0533  0.2710 -0.1942
  645MOL0     C86950   5.885   9.495   9.960  0.3112  0.2340 -0.5474
  645MOL0     C86951   5.935   9.452   9.828 -0.0675  0.3254  0.0691
  645MOL0     C86952   6.012   9.557   9.746 -0.2450  0.3781  1.3004
  645MOL0     C86953   6.021   9.505   9.589 -0.5862 -0.6986 -0.3911
  645MOL0     C86954   6.100   9.601   9.509 -0.5269 -0.1335  0.0493
  645MOL0     C86955   6.146   9.551   9.369 -0.2131  0.3689  0.2377
  645MOL0     C86956   6.261   9.640   9.327 -0.5300 -1.1814  0.0591
  645MOL0     N86957   6.332   9.604   9.200 -0.0047  1.4527  0.1524
  645MOL0     C86958   6.272   9.540   9.093 -0.7772  0.2828 -0.3762
  645MOL0     C86959   6.370   9.508   9.007 -0.6620 -0.6765  0.4115
  645MOL0     C86960   6.374   9.417   8.888  0.7738 -0.1060  0.3703
  645MOL0     C86961   6.240   9.351   8.850 -0.4751  0.1745 -0.2912
  645MOL0     C86962   6.248   9.274   8.715 -0.3393 -0.5861 -0.2221
  645MOL0     C86963   6.265   9.362   8.597 -0.1075 -0.5528 -0.2908
  645MOL0     O86964   6.214   9.282   8.486  0.1362 -0.2209 -0.1353
  645MOL0     C86965   6.269   9.301   8.365 -0.9671 -0.2699 -0.5372
  645MOL0     C86966   6.304   9.181   8.295  0.3117  0.5605  0.5155
  645MOL0     C86967   6.353   9.179   8.171 -0.6451  0.3739  0.4117
  645MOL0     C86968   6.356   9.295   8.095  0.6447 -0.6036  0.2218
  645MOL0     C86969   6.393   9.295   7.953  0.6778  0.2672 -0.5883
  645MOL0     O86970   6.406   9.175   7.889 -0.0087 -0.0933  0.1544
  645MOL0     C86971   6.463   9.181   7.766  0.3257  0.0667  0.7520
  645MOL0     C86972   6.592   9.128   7.743 -0.3934  0.3956 -0.1894
  645MOL0     C86973   6.631   9.109   7.608  0.3108 -0.0190 -0.5229
  645MOL0     C86974   6.548   9.150   7.502 -0.0579 -0.3961 -0.6352
  645MOL0     O86975   6.593   9.155   7.375  0.6894 -0.1578 -0.3213
  645MOL0     C86976   6.606   9.026   7.315  0.2027  0.1416  0.2780
  645MOL0     C86977   6.503   9.021   7.200  0.0362  0.2556 -0.0192
  645MOL0     C86978   6.487   8.878   7.134  0.7483  0.5314 -0.0018
  645MOL0     C86979   6.415   8.767   7.220 -0.0742  1.5806 -1.1521
  645MOL0     C86980   6.493   8.635   7.212  0.3238  0.5435 -0.4277
  645MOL0     C86981   6.448   8.530   7.318 -0.1298  0.5870  0.0694
  645MOL0     C86982   6.321   8.459   7.267 -0.4107  0.9376 -0.1431
  645MOL0     C86983   6.267   8.336   7.354  0.4356  0.0711 -0.6476
  645MOL0    Cl86984   6.113   8.275   7.279 -0.4413  0.0972  0.3146
  645MOL0     C86985   6.437   9.227   7.534  0.5094  0.8059  0.9341
  645MOL0     C86986   6.391   9.238   7.669  0.2003 -0.4217  0.3003
  645MOL0     O86987   6.406   9.403   7.897  0.4106 -0.5377 -0.7155
  645MOL0     C86988   6.336   9.418   8.158 -0.0842 -0.8880 -0.3411
  645MOL0     C86989   6.295   9.425   8.297  0.0893 -0.5026 -0.2084
  645MOL0     N86990   6.490   9.540   9.073 -0.7426 -0.3554  0.3841
  645MOL0     N86991   6.470   9.600   9.190  0.5179  0.5458  0.2368
  645MOL0     C86992   5.930   9.836  10.142 -1.0438 -0.8723 -0.6576
  645MOL0     C86993   5.968   9.964  10.201  0.4658  1.2999 -0.6739
  645MOL0     C86994   6.161  10.275  10.449 -0.3438  0.1579 -0.8097
  645MOL0     C86995   6.290  10.333  10.422  0.7382 -0.2062 -0.4316
  645MOL0     C86996   6.329  10.452  10.481 -0.1044 -1.4466  0.5223
  645MOL0     C86997   6.247  10.525  10.561  0.2315 -0.8892  0.5505
  645MOL0     O86998   6.295  10.646  10.614  0.9196 -0.3120  0.2752
  645MOL0     C86999   6.196  10.735  10.658 -0.3345 -0.4914 -0.9546
  645MOL0     C87000   6.118  10.793  10.545 -0.0826 -0.6018  0.0889
  645MOL0     C87001   6.191  10.886  10.447  0.9022 -0.8165 -0.5113
  645MOL0     C87002   6.274  10.810  10.346  1.0633  0.3948  0.7982
  645MOL0     C87003   6.185  10.766  10.234 -0.4830  0.3127 -1.1924
  645MOL0     C87004   6.105  10.736  10.155 -0.1619  0.9087  0.8159
  645MOL0     C87005   6.124  10.462  10.597 -0.0583 -0.8286 -0.3265
  645MOL0     C87006   6.077  10.343  10.536 -0.9021 -0.4817 -0.3870
  645MOL0     C87007   5.957  10.281  10.597  0.4436 -0.7676  0.8271
  645MOL0     H87008   6.023   9.873  10.520 -2.9678 -0.1530  1.1014
  645MOL0     H87009   5.964   9.649  10.433  2.3898  1.6223  2.2200
  645MOL0     H87010   6.018   9.664   9.989  0.2114 -0.1784 -0.8655
  645MOL0     H87011   6.064   9.507  10.068  1.2808  1.7925  0.0473
  645MOL0     H87012   5.799   9.562   9.952 -0.1330  0.2181  2.8326
  645MOL0     H87013   5.861   9.404  10.015  2.4428  0.2339  0.4695
  645MOL0     H87014   5.854   9.410   9.768  2.2300 -2.8090 -1.1507
  645MOL0     H87015   6.007   9.370   9.837 -1.4333 -1.5025 -3.6423
  645MOL0     H87016   5.965   9.655   9.744  1.2261  1.0902 -0.1733
  645MOL0     H87017   6.107   9.584   9.791  2.2274  0.4612 -3.3185
  645MOL0     H87018   6.073   9.408   9.589  0.6458 -0.1499  2.6658
  645MOL0     H87019   5.925   9.495   9.539  0.2850 -0.6986 -2.1353
  645MOL0     H87020   6.027   9.674   9.472  0.2649  1.4896  1.5355
  645MOL0     H87021   6.180   9.648   9.567 -1.9255  1.1598  0.9930
  645MOL0     H87022   6.061   9.550   9.300  1.4272  0.3085 -1.8919
  645MOL0     H87023   6.189   9.451   9.373  0.0163  0.5168  2.7628
  645MOL0     H87024   6.232   9.745   9.331 -0.1332 -1.0256 -1.0540
  645MOL0     H87025   6.335   9.626   9.407 -0.6407  1.7414  0.7968
  645MOL0     H87026   6.167   9.523   9.069 -1.0721  2.6973 -1.0499
  645MOL0     H87027   6.408   9.488   8.812 -1.4300  1.6357  0.9077
  645MOL0     H87028   6.449   9.339   8.903 -1.4023 -1.8650  3.0529
  645MOL0     H87029   6.224   9.280   8.931  4.8169  0.7695  1.6724
  645MOL0     H87030   6.158   9.424   8.847 -1.1029 -0.4944  0.2579
  645MOL0     H87031   6.161   9.209   8.725 -0.2153 -0.6547  0.5426
  645MOL0     H87032   6.337   9.211   8.722 -1.3340 -1.8823  3.9861
  645MOL0     H87033   6.366   9.401   8.579 -0.4343  0.0083 -0.9677
  645MOL0     H87034   6.197   9.448   8.606  2.6513  1.6146  2.0044
  645MOL0     H87035   6.287   9.085   8.343 -3.3986 -2.8776 -6.1704
  645MOL0     H87036   6.373   9.085   8.120 -4.1256  0.5627 -1.6336
  645MOL0     H87037   6.656   9.087   7.820 -1.1651 -2.0944 -0.7680
  645MOL0     H87038   6.715   9.051   7.574 -1.6174 -3.5116  0.2030
  645MOL0     H87039   6.710   9.015   7.282 -0.2149  0.7931 -1.3217
  645MOL0     H87040   6.588   8.945   7.388  2.1691  1.7662  2.7485
  645MOL0     H87041   6.406   9.057   7.236  0.5027 -0.7661  2.4796
  645MOL0     H87042   6.538   9.095   7.127  0.4326  0.6874  0.5998
  645MOL0     H87043   6.432   8.884   7.039  1.3385  2.9200 -0.2645
  645MOL0     H87044   6.590   8.849   7.111  0.4650 -0.1475 -0.4729
  645MOL0     H87045   6.314   8.751   7.184  0.9841 -0.6909 -3.4633
  645MOL0     H87046   6.391   8.791   7.324 -1.0767 -1.8804 -0.4475
  645MOL0     H87047   6.601   8.650   7.227  0.3428 -1.1280  1.4730
  645MOL0     H87048   6.494   8.610   7.105 -4.0585  1.6764 -0.9157
  645MOL0     H87049   6.535   8.466   7.330  0.7130  0.9604 -3.1443
  645MOL0     H87050   6.428   8.576   7.415 -1.6457 -0.8395  0.4783
  645MOL0     H87051   6.333   8.425   7.163 -1.4811 -0.5174  0.1657
  645MOL0     H87052   6.241   8.532   7.279 -0.6495  0.3686  2.3706
  645MOL0     H87053   6.351   8.266   7.358 -3.2301 -4.9245  2.9677
  645MOL0     H87054   6.241   8.363   7.457  1.5641  1.7669 -0.7878
  645MOL0     H87055   6.392   9.272   7.446  2.9613  3.5059  0.8799
  645MOL0     H87056   6.302   9.297   7.689  0.3870  0.2388 -0.7186
  645MOL0     H87057   6.361   9.511   8.109  0.7027 -0.7926  0.2318
  645MOL0     H87058   6.269   9.514   8.353 -2.1798 -1.9117  1.1142
  645MOL0     H87059   5.898   9.839  10.038 -3.0833  0.1474 -0.0363
  645MOL0     H87060   5.948  10.054  10.143 -2.2408  0.1767 -1.6612
  645MOL0     H87061   6.360  10.285  10.355 -1.3090 -2.4219 -1.1509
  645MOL0     H87062   6.421  10.494  10.442  0.6166 -5.1340 -2.3950
  645MOL0     H87063   6.241  10.813  10.722 -1.0494 -2.6697  2.4991
  645MOL0     H87064   6.134  10.680  10.729  0.0956 -2.3081 -1.9418
  645MOL0     H87065   6.027  10.841  10.583  0.8214 -0.8537  2.7755
  645MOL0     H87066   6.091  10.708  10.481 -0.4067  0.8190 -1.7623
  645MOL0     H87067   6.248  10.958  10.507 -0.3126 -1.8535  2.0719
  645MOL0     H87068   6.112  10.934  10.389 -0.6422 -2.5839  0.0352
  645MOL0     H87069   6.357  10.859  10.296 -0.2162 -3.1195 -5.9435
  645MOL0     H87070   6.316  10.726  10.402 -0.9320 -1.0431  0.2803
  645MOL0     H87071   6.027  10.707  10.088  2.1608 -5.5444  0.1854
  645MOL0     H87072   6.070  10.513  10.676  0.2453  0.5657 -0.9928
  645MOL0     H87073   5.873  10.278  10.527  0.3831  2.9183  0.5365
  645MOL0     H87074   5.972  10.177  10.628  1.0638 -0.7872  0.4674
  645MOL0     H87075   5.910  10.338  10.678 -0.0051 -0.0243  0.0535
  646MOL0     O87076   7.673   2.265   1.273 -0.8368 -0.7934 -0.1941
  646MOL0     C87077   7.607   2.168   1.244  0.6503  0.7026  0.2457
  646MOL0     O87078   7.516   2.116   1.327 -0.2902  0.2412 -0.7339
  646MOL0     C87079   7.541   2.116   1.459  0.7409 -0.1801 -0.1174
  646MOL0     C87080   7.469   2.204   1.536 -0.3058 -0.1529 -0.0713
  646MOL0     C87081   7.495   2.203   1.674 -0.1480  0.3631  0.3146
  646MOL0     C87082   7.595   2.127   1.730 -0.2723  1.2206 -0.2852
  646MOL0     O87083   7.617   2.145   1.871  0.3943 -0.1989  0.3011
  646MOL0     C87084   7.745   2.099   1.925  1.3316 -0.0066  0.6675
  646MOL0     C87085   7.798   2.207   2.014 -0.4960 -0.9505 -0.5424
  646MOL0     C87086   7.821   2.343   1.957 -0.3030  1.1246 -0.9419
  646MOL0     C87087   7.963   2.355   1.895 -0.7508 -0.1055 -0.7968
  646MOL0     C87088   8.016   2.504   1.905 -0.7419  0.2333  0.4605
  646MOL0     C87089   7.953   2.585   1.791 -1.1815 -0.4276 -0.0232
  646MOL0     C87090   7.967   2.735   1.835 -0.1619 -0.4448  0.2956
  646MOL0     C87091   7.963   2.843   1.725 -0.4623  0.0455  0.7600
  646MOL0     N87092   7.918   2.959   1.798  0.1257  0.4776 -0.2541
  646MOL0     C87093   7.991   3.081   1.814  0.1610  0.2265 -0.5785
  646MOL0     C87094   7.907   3.158   1.890 -0.7409 -0.0713  0.5000
  646MOL0     C87095   7.950   3.292   1.954  0.9195  0.9352  0.6101
  646MOL0     C87096   7.822   3.382   1.960 -0.5274 -0.8415  0.3284
  646MOL0     C87097   7.832   3.510   2.045 -0.9281 -0.1725 -1.3243
  646MOL0     C87098   7.712   3.594   2.034 -0.5813 -0.8558  0.0242
  646MOL0     O87099   7.597   3.541   2.095 -0.4907  0.5553  0.3097
  646MOL0     C87100   7.583   3.559   2.230 -0.7065  0.3707  0.6409
  646MOL0     C87101   7.618   3.458   2.323  0.7072  0.2490  0.7107
  646MOL0     C87102   7.599   3.477   2.459 -0.1907  0.1386  0.8576
  646MOL0     C87103   7.563   3.602   2.512  0.2008 -0.6345  0.0844
  646MOL0     C87104   7.545   3.606   2.657 -0.8756 -0.1387  0.1457
  646MOL0     O87105   7.552   3.737   2.714  0.4641 -0.2471  0.1654
  646MOL0     C87106   7.523   3.747   2.845  0.6485 -0.4053 -0.0768
  646MOL0     C87107   7.608   3.702   2.946 -0.0407 -0.5089 -0.8338
  646MOL0     C87108   7.577   3.743   3.076 -0.3788  0.8652 -0.7142
  646MOL0     C87109   7.465   3.812   3.114 -0.5718  0.1854  0.3826
  646MOL0     O87110   7.430   3.851   3.238 -0.2516  0.7184 -0.6319
  646MOL0     C87111   7.448   3.741   3.342  0.7559  0.0191 -0.2850
  646MOL0     C87112   7.330   3.781   3.442 -0.5856 -0.5484 -0.5186
  646MOL0     C87113   7.335   3.927   3.494  0.2090 -0.8779  0.3017
  646MOL0     C87114   7.450   3.964   3.570 -0.7350  0.7997  0.1465
  646MOL0     C87115   7.412   4.082   3.664  0.4464  1.0587  0.1266
  646MOL0     C87116   7.527   4.151   3.724 -0.6288  0.6863  0.6961
  646MOL0     C87117   7.502   4.220   3.860 -1.0151  0.2992  0.6332
  646MOL0     C87118   7.627   4.314   3.891  1.0734  0.7448  0.3752
  646MOL0    Cl87119   7.777   4.211   3.877  0.0209 -0.0027 -0.0984
  646MOL0     C87120   7.373   3.849   3.012  0.2126  1.0954 -0.5662
  646MOL0     C87121   7.405   3.817   2.873  1.0269  0.2815  0.1237
  646MOL0     O87122   7.541   3.501   2.717 -0.0327  0.5580  0.0979
  646MOL0     C87123   7.529   3.705   2.423 -0.4555  0.1935 -0.3889
  646MOL0     C87124   7.530   3.680   2.282  0.0885 -0.3599  0.2543
  646MOL0     N87125   7.789   3.084   1.914  0.0414  0.4602  0.1042
  646MOL0     N87126   7.800   2.961   1.870  0.2628  0.3005  0.4197
  646MOL0     C87127   7.668   2.037   1.652 -0.0570 -0.7043 -0.5121
  646MOL0     C87128   7.637   2.030   1.515 -1.2500  0.2325 -0.4355
  646MOL0     C87129   7.617   2.110   1.104 -0.9234 -0.6028 -0.3153
  646MOL0     C87130   7.509   2.022   1.064  0.7219 -0.5346  0.0242
  646MOL0     C87131   7.514   1.973   0.928 -0.6225  0.6152 -0.6388
  646MOL0     C87132   7.626   1.996   0.843  0.1647  0.0035  0.4508
  646MOL0     O87133   7.639   1.960   0.715  0.4940  0.8232  0.1857
  646MOL0     C87134   7.538   1.871   0.666 -0.2526  0.8512 -0.5483
  646MOL0     C87135   7.579   1.813   0.530  0.0632 -0.6624 -0.5756
  646MOL0     C87136   7.709   1.725   0.545  1.9693  0.3523  0.4304
  646MOL0     C87137   7.708   1.598   0.464  0.0092 -1.0960  0.0211
  646MOL0     C87138   7.687   1.632   0.320  0.5777 -0.3027 -0.4146
  646MOL0     C87139   7.653   1.661   0.203  0.7034 -0.1743  0.3018
  646MOL0     C87140   7.728   2.064   0.895 -0.4083 -0.1730  0.4515
  646MOL0     C87141   7.731   2.118   1.021 -0.9857  0.1276  0.4601
  646MOL0     C87142   7.862   2.189   1.061 -0.3217  0.3764  0.6498
  646MOL0     H87143   7.409   2.275   1.480  0.3102 -1.2840 -2.2761
  646MOL0     H87144   7.456   2.279   1.741 -0.0035  0.2973  0.4728
  646MOL0     H87145   7.730   2.007   1.982  1.2418  0.0373  0.7149
  646MOL0     H87146   7.824   2.069   1.856  0.0144 -2.0206 -0.0568
  646MOL0     H87147   7.895   2.168   2.046  0.8874  0.7652 -2.3935
  646MOL0     H87148   7.740   2.212   2.107  0.5682 -0.6781  0.1160
  646MOL0     H87149   7.814   2.407   2.046  0.3226 -0.5516  0.3729
  646MOL0     H87150   7.746   2.369   1.882 -1.9288 -0.6400 -0.0091
  646MOL0     H87151   8.036   2.294   1.949 -0.3440 -0.3642 -1.6181
  646MOL0     H87152   7.962   2.332   1.788  0.7044 -1.0153 -0.6493
  646MOL0     H87153   7.991   2.540   2.006 -0.0757 -1.2805  1.2028
  646MOL0     H87154   8.124   2.521   1.903 -1.0036  2.0445 -1.0669
  646MOL0     H87155   7.985   2.568   1.688 -1.3718  1.1469 -0.3554
  646MOL0     H87156   7.847   2.561   1.779 -0.8414 -2.6356  0.8047
  646MOL0     H87157   8.054   2.750   1.900  0.8959 -1.2587 -0.8725
  646MOL0     H87158   7.871   2.738   1.886 -0.5263  0.9028 -0.4249
  646MOL0     H87159   8.058   2.859   1.675 -1.1593 -0.1822 -0.6891
  646MOL0     H87160   7.899   2.811   1.642  0.7117 -0.0214 -0.1393
  646MOL0     H87161   8.095   3.085   1.782  0.3953 -2.5437 -0.4467
  646MOL0     H87162   7.979   3.269   2.057 -0.1537  0.2605  0.7771
  646MOL0     H87163   8.033   3.335   1.898 -0.0589  1.3115 -0.6090
  646MOL0     H87164   7.780   3.403   1.861 -1.4662 -0.5862  0.7671
  646MOL0     H87165   7.738   3.318   1.991  0.1326 -2.6506 -1.3733
  646MOL0     H87166   7.920   3.563   2.007  2.5050 -2.2013  2.8951
  646MOL0     H87167   7.856   3.489   2.150 -0.3551  1.6664 -1.0392
  646MOL0     H87168   7.690   3.614   1.929  0.5835  0.1558 -0.0425
  646MOL0     H87169   7.742   3.688   2.079  5.0684 -3.0927  1.7895
  646MOL0     H87170   7.652   3.363   2.285  0.2766  1.5033 -3.3357
  646MOL0     H87171   7.620   3.393   2.525 -0.6522 -1.7051 -1.2336
  646MOL0     H87172   7.707   3.658   2.940  1.9028  3.5954 -1.8745
  646MOL0     H87173   7.643   3.709   3.156 -0.0907  3.9385  0.5218
  646MOL0     H87174   7.428   3.640   3.305 -1.0734  0.4355 -0.5116
  646MOL0     H87175   7.547   3.747   3.389 -0.1507  2.6647  1.5388
  646MOL0     H87176   7.245   3.772   3.374 -1.3060  0.4772  0.2197
  646MOL0     H87177   7.327   3.716   3.530  1.1132  1.7512  1.3843
  646MOL0     H87178   7.319   3.993   3.408 -0.2354 -0.8304  0.4199
  646MOL0     H87179   7.246   3.932   3.556  0.1741  1.3940  0.1285
  646MOL0     H87180   7.540   3.985   3.511 -0.3431  0.0067  0.4536
  646MOL0     H87181   7.477   3.884   3.639 -0.9797 -0.4787 -1.1907
  646MOL0     H87182   7.354   4.040   3.746  0.2243  1.6804  0.2966
  646MOL0     H87183   7.353   4.160   3.614 -2.1553 -1.7183 -1.4678
  646MOL0     H87184   7.610   4.081   3.740  2.0426  3.3679 -0.4938
  646MOL0     H87185   7.562   4.234   3.662  2.0573 -1.2603 -0.6261
  646MOL0     H87186   7.503   4.143   3.937  2.0662 -0.4321 -0.0083
  646MOL0     H87187   7.413   4.284   3.858  0.0094  1.7937  1.1519
  646MOL0     H87188   7.629   4.398   3.820  1.9152  0.2090 -0.2525
  646MOL0     H87189   7.611   4.346   3.995 -0.1341 -0.8022  0.6938
  646MOL0     H87190   7.278   3.892   3.043  0.3469 -0.3324  2.1525
  646MOL0     H87191   7.343   3.860   2.794  0.8942  1.7750  0.9989
  646MOL0     H87192   7.487   3.800   2.456 -1.2786 -0.5279  0.7052
  646MOL0     H87193   7.518   3.753   2.202 -1.9802  0.6282  1.3951
  646MOL0     H87194   7.745   1.971   1.691 -0.9754 -1.4328  0.1306
  646MOL0     H87195   7.692   1.958   1.455  1.4103 -0.3884  2.4781
  646MOL0     H87196   7.413   2.007   1.110  1.0277  2.5628  1.9344
  646MOL0     H87197   7.431   1.916   0.888  0.7694 -0.0182 -2.8071
  646MOL0     H87198   7.438   1.916   0.678 -1.3006 -1.8460  1.8531
  646MOL0     H87199   7.552   1.797   0.745 -0.9952  0.4178 -0.8067
  646MOL0     H87200   7.607   1.898   0.468 -1.7999  2.0300  1.9761
  646MOL0     H87201   7.493   1.760   0.488 -0.1131  0.5827 -1.8354
  646MOL0     H87202   7.715   1.692   0.650 -4.0557  1.8711  1.5940
  646MOL0     H87203   7.795   1.791   0.527  3.0002 -1.3727 -1.4026
  646MOL0     H87204   7.806   1.553   0.484  1.1799  1.2383 -0.1359
  646MOL0     H87205   7.620   1.543   0.499 -0.7214  0.2020  0.2504
  646MOL0     H87206   7.626   1.688   0.103  2.5379  1.5936  0.2061
  646MOL0     H87207   7.821   2.068   0.840 -1.9810 -1.0681 -2.5037
  646MOL0     H87208   7.906   2.138   1.148  2.9333  0.2658 -0.9124
  646MOL0     H87209   7.935   2.194   0.980  2.1105 -1.9781  2.5255
  646MOL0     H87210   7.840   2.291   1.093 -1.8636  0.3041 -0.0912
  647MOL0     O87211   9.045   2.208   0.983 -0.4098 -0.1872  0.2392
  647MOL0     C87212   9.087   2.251   1.089  0.2968  0.0181  0.5439
  647MOL0     O87213   9.215   2.238   1.135  0.6343 -0.2757 -0.5950
  647MOL0     C87214   9.310   2.207   1.049 -0.3490 -0.5060 -0.0802
  647MOL0     C87215   9.337   2.072   1.016  0.1795  0.3677 -1.4166
  647MOL0     C87216   9.445   2.037   0.937  0.8056  0.4431  0.8535
  647MOL0     C87217   9.540   2.134   0.898 -0.4827  0.7205  0.2486
  647MOL0     O87218   9.633   2.091   0.807  1.0533  0.0475  0.1295
  647MOL0     C87219   9.658   2.170   0.691 -0.9732 -0.9655 -0.9396
  647MOL0     C87220   9.786   2.106   0.633  0.3176  0.0267  0.6341
  647MOL0     C87221   9.812   2.170   0.498 -0.0664 -0.4799  0.4139
  647MOL0     C87222   9.950   2.117   0.430  0.4572  0.4544  0.5037
  647MOL0     C87223   9.982   2.212   0.314 -0.0833  0.1960 -0.0667
  647MOL0     C87224  10.093   2.160   0.228 -0.7592  0.2941  0.3384
  647MOL0     C87225  10.224   2.162   0.300 -0.3764 -0.4340 -0.1141
  647MOL0     C87226  10.346   2.133   0.206 -0.8896  0.5515 -0.0547
  647MOL0     N87227  10.392   2.249   0.138 -0.3408 -0.4241 -0.9475
  647MOL0     C87228  10.404   2.265   0.009 -0.1801  0.0594  1.1632
  647MOL0     C87229  10.446   2.391  -0.008 -0.5897 -0.2404  0.1272
  647MOL0     C87230  10.485   2.456  -0.139  0.2611 -0.1625  0.6058
  647MOL0     C87231  10.381   2.554  -0.187 -0.2011 -0.6413  0.2453
  647MOL0     C87232  10.384   2.688  -0.111 -0.3836 -0.7569  0.4560
  647MOL0     C87233  10.269   2.760  -0.178 -0.2703 -0.1458 -1.1671
  647MOL0     O87234  10.318   2.823  -0.297  0.4268  0.7352  0.2926
  647MOL0     C87235  10.397   2.939  -0.295 -0.0439 -0.0070 -0.1547
  647MOL0     C87236  10.409   3.033  -0.197 -0.0079  0.7570  1.1929
  647MOL0     C87237  10.489   3.145  -0.223 -0.5684 -0.4266 -0.0103
  647MOL0     C87238  10.556   3.164  -0.344  0.3516 -0.3059  0.2345
  647MOL0     C87239  10.634   3.289  -0.373 -0.1885  0.2181  0.6912
  647MOL0     O87240  10.597   3.405  -0.321  0.1302  0.3356  0.1259
  647MOL0     C87241  10.657   3.522  -0.354  0.1427  1.1477  0.7942
  647MOL0     C87242  10.786   3.554  -0.406 -0.3123 -0.4960 -0.7208
  647MOL0     C87243  10.815   3.682  -0.437  0.4358  0.0934  0.1965
  647MOL0     C87244  10.720   3.794  -0.414  0.4298  1.5104  0.2623
  647MOL0     O87245  10.754   3.924  -0.440  1.0080  0.2876  0.0776
  647MOL0     C87246  10.815   3.949  -0.567  0.4515 -0.2380 -0.0311
  647MOL0     C87247  10.819   4.093  -0.586  0.9791  0.2945 -0.3841
  647MOL0     C87248  10.679   4.161  -0.608 -0.1368 -1.1499  0.0392
  647MOL0     C87249  10.581   4.124  -0.719 -0.6080  0.0930  0.7214
  647MOL0     C87250  10.481   4.243  -0.763 -1.3524  0.2069  0.0940
  647MOL0     C87251  10.382   4.192  -0.850 -0.5851 -0.2729  0.4175
  647MOL0     C87252  10.264   4.283  -0.881 -1.1903 -0.3349 -0.4345
  647MOL0     C87253  10.291   4.416  -0.938 -0.0558  0.5589  0.2206
  647MOL0    Cl87254  10.364   4.521  -0.809  0.0592 -0.3818  0.2148
  647MOL0     C87255  10.595   3.763  -0.353  0.0852  0.3377 -0.1098
  647MOL0     C87256  10.570   3.627  -0.322  0.5412 -0.1718 -1.0233
  647MOL0     O87257  10.728   3.268  -0.442  0.2313 -0.8037  0.2227
  647MOL0     C87258  10.554   3.057  -0.436 -0.3946 -0.0847  0.2378
  647MOL0     C87259  10.462   2.957  -0.411  0.5664  0.4252 -0.2044
  647MOL0     N87260  10.467   2.448   0.117 -0.5594  0.4148 -0.2657
  647MOL0     N87261  10.423   2.367   0.203  0.1228  0.2548 -0.5523
  647MOL0     C87262   9.510   2.266   0.933 -0.9359  0.0873  0.5158
  647MOL0     C87263   9.396   2.301   1.002 -0.5750 -0.3115 -0.4859
  647MOL0     C87264   8.986   2.276   1.203  0.2494  0.1113  0.2414
  647MOL0     C87265   9.019   2.257   1.339 -0.0372 -0.3849 -0.5985
  647MOL0     C87266   8.928   2.291   1.441  0.5191  0.1332 -0.2061
  647MOL0     C87267   8.805   2.334   1.402  0.5117  0.1082  0.3725
  647MOL0     O87268   8.711   2.389   1.490  0.3920 -0.0697  0.0431
  647MOL0     C87269   8.748   2.420   1.621 -0.0879  0.5761  0.4319
  647MOL0     C87270   8.642   2.509   1.689  0.1315  0.1832 -1.2079
  647MOL0     C87271   8.521   2.431   1.730  0.1855  0.3288  0.7427
  647MOL0     C87272   8.424   2.495   1.821 -0.1915 -0.0617  0.4594
  647MOL0     C87273   8.336   2.576   1.739  0.8858  0.0622  0.0096
  647MOL0     C87274   8.253   2.632   1.674 -0.2050  0.1580 -0.3825
  647MOL0     C87275   8.761   2.342   1.274 -0.4765 -0.2142  0.1593
  647MOL0     C87276   8.852   2.308   1.171 -0.9299 -0.6169  0.1151
  647MOL0     C87277   8.807   2.336   1.026  0.5257 -0.4877 -0.0704
  647MOL0     H87278   9.267   1.996   1.051  2.0215 -0.0219  1.9039
  647MOL0     H87279   9.454   1.937   0.896  0.4510  0.1434  1.4951
  647MOL0     H87280   9.577   2.168   0.617 -2.1480  2.8331  0.0022
  647MOL0     H87281   9.677   2.275   0.715 -1.2243 -0.3206 -3.2501
  647MOL0     H87282   9.780   1.997   0.623 -1.2641  0.3044 -3.5719
  647MOL0     H87283   9.878   2.124   0.689  0.0932 -0.0074  1.0215
  647MOL0     H87284   9.827   2.278   0.506 -1.9503 -0.0006 -1.5879
  647MOL0     H87285   9.726   2.154   0.433  0.5688 -0.1735 -0.5205
  647MOL0     H87286  10.035   2.132   0.497 -0.6594  0.1505  2.0462
  647MOL0     H87287   9.945   2.013   0.400 -1.1426  0.0109  2.1134
  647MOL0     H87288   9.890   2.222   0.255  1.1736 -0.6765 -2.2557
  647MOL0     H87289  10.014   2.310   0.351  1.8334  0.1654 -1.4916
  647MOL0     H87290  10.069   2.061   0.188  0.2201  0.4681 -0.6912
  647MOL0     H87291  10.102   2.225   0.141 -3.8628  0.5424  0.0766
  647MOL0     H87292  10.220   2.091   0.383  3.5080  1.5302  2.0353
  647MOL0     H87293  10.233   2.262   0.345 -0.1387 -0.2533 -0.5556
  647MOL0     H87294  10.430   2.115   0.274  0.7683  2.3802 -1.5090
  647MOL0     H87295  10.315   2.046   0.148 -0.4478  0.1640  0.2831
  647MOL0     H87296  10.393   2.199  -0.076  1.3477 -0.1797  1.1243
  647MOL0     H87297  10.587   2.494  -0.137  0.4082 -0.5698  2.8503
  647MOL0     H87298  10.489   2.376  -0.214  1.9028 -1.1416  1.6992
  647MOL0     H87299  10.407   2.567  -0.292  1.7348 -1.2624  0.6133
  647MOL0     H87300  10.279   2.515  -0.174 -0.1923 -0.6226  0.3711
  647MOL0     H87301  10.477   2.744  -0.125 -0.2284 -1.6228 -2.7167
  647MOL0     H87302  10.367   2.679  -0.003 -4.8035  1.7538  0.1852
  647MOL0     H87303  10.226   2.832  -0.108 -0.8382 -2.4720  1.0528
  647MOL0     H87304  10.187   2.696  -0.212 -2.6869  1.4234  1.2441
  647MOL0     H87305  10.355   3.023  -0.104 -2.7215  0.6192 -0.2867
  647MOL0     H87306  10.504   3.212  -0.138 -0.1322  1.2498 -1.3632
  647MOL0     H87307  10.867   3.484  -0.419 -1.4890 -1.6751 -2.0835
  647MOL0     H87308  10.913   3.692  -0.482  0.1842 -0.6785 -0.5463
  647MOL0     H87309  10.916   3.910  -0.555 -0.0917 -2.0003 -0.8544
  647MOL0     H87310  10.759   3.894  -0.643 -2.8158  2.1963  0.4192
  647MOL0     H87311  10.859   4.137  -0.495  0.9752 -0.8934  0.2067
  647MOL0     H87312  10.890   4.122  -0.664 -0.0150 -1.1339 -1.9117
  647MOL0     H87313  10.627   4.147  -0.513 -1.7068  2.6617 -0.0844
  647MOL0     H87314  10.700   4.268  -0.606 -1.9934 -0.7222 -0.9485
  647MOL0     H87315  10.526   4.034  -0.689  1.6537 -0.8206  2.4330
  647MOL0     H87316  10.638   4.104  -0.811  0.4618  2.9392  0.6692
  647MOL0     H87317  10.533   4.325  -0.813 -3.2852  1.5352  0.1758
  647MOL0     H87318  10.425   4.280  -0.677  0.1401 -0.9347  1.6410
  647MOL0     H87319  10.432   4.180  -0.946 -1.7403  0.7007 -0.3364
  647MOL0     H87320  10.343   4.092  -0.827 -0.6983 -0.5169 -0.7604
  647MOL0     H87321  10.193   4.295  -0.799 -0.2990 -2.5710  0.7299
  647MOL0     H87322  10.206   4.228  -0.956 -1.4794 -0.1955 -0.3155
  647MOL0     H87323  10.366   4.395  -1.015 -2.2915 -2.5418 -1.3559
  647MOL0     H87324  10.204   4.466  -0.981 -0.2716 -0.4852 -0.6123
  647MOL0     H87325  10.513   3.825  -0.318 -0.3908 -0.8874  1.0663
  647MOL0     H87326  10.486   3.586  -0.267  0.1639  0.5503 -1.0522
  647MOL0     H87327  10.609   3.065  -0.529  0.3122 -2.0994  0.4373
  647MOL0     H87328  10.446   2.894  -0.499 -1.3659 -0.2467  0.5710
  647MOL0     H87329   9.580   2.344   0.904  0.5457  0.8451  5.1766
  647MOL0     H87330   9.390   2.404   1.033  4.7231 -0.2834  1.5375
  647MOL0     H87331   9.116   2.239   1.383 -0.7392  0.1442  1.3072
  647MOL0     H87332   8.948   2.278   1.547 -0.5113 -0.0549 -0.0305
  647MOL0     H87333   8.843   2.473   1.613  3.2689 -4.9186 -0.8090
  647MOL0     H87334   8.763   2.331   1.683 -0.2742  0.0405 -0.2844
  647MOL0     H87335   8.604   2.591   1.627  1.1607  1.1475 -0.5955
  647MOL0     H87336   8.690   2.553   1.776  0.5932  1.0404 -1.8772
  647MOL0     H87337   8.559   2.338   1.774  1.4496  1.1741  1.4902
  647MOL0     H87338   8.467   2.395   1.641  0.4894 -1.0072  1.0708
  647MOL0     H87339   8.361   2.415   1.860 -0.8682  1.1556  1.9408
  647MOL0     H87340   8.473   2.553   1.900 -0.9512 -1.0986  1.7373
  647MOL0     H87341   8.182   2.687   1.615 -2.8254 -2.3446  0.1837
  647MOL0     H87342   8.662   2.381   1.253  0.2348  1.8178  0.2936
  647MOL0     H87343   8.893   2.361   0.963  1.6286  0.9883  1.9081
  647MOL0     H87344   8.747   2.253   0.987 -0.8962  0.1898  0.5919
  647MOL0     H87345   8.748   2.427   1.040  0.7513 -0.3981  0.2911
  648MOL0     O87346  10.115   4.332   9.625 -0.2767  0.2589 -0.3686
  648MOL0     C87347  10.077   4.389   9.525  0.4260 -0.8523  0.4658
  648MOL0     O87348  10.145   4.391   9.399  0.1258 -0.5125  0.2342
  648MOL0     C87349  10.253   4.310   9.387 -1.3984 -0.0866  0.0723
  648MOL0     C87350  10.378   4.368   9.345  0.0343 -0.0339 -0.1876
  648MOL0     C87351  10.494   4.286   9.352  0.9325  0.2640 -1.0612
  648MOL0     C87352  10.487   4.149   9.368  0.6924  0.6601  0.1532
  648MOL0     O87353  10.593   4.064   9.354 -0.9771  0.0115  0.6779
  648MOL0     C87354  10.731   4.094   9.317 -0.1883 -0.1712 -0.6765
  648MOL0     C87355  10.819   3.973   9.312 -0.5889 -0.3242  0.5218
  648MOL0     C87356  10.780   3.886   9.196 -0.8593  0.7332  0.6291
  648MOL0     C87357  10.829   3.738   9.212 -0.8820  0.1896  0.4204
  648MOL0     C87358  10.739   3.655   9.287 -0.7710 -0.3694  0.9602
  648MOL0     C87359  10.791   3.510   9.307 -0.0255 -0.4230  0.2114
  648MOL0     C87360  10.832   3.465   9.451 -0.1882  0.3109 -0.3069
  648MOL0     C87361  10.861   3.311   9.469  0.5805  0.1095 -0.7547
  648MOL0     N87362  10.790   3.263   9.591  0.7130  0.8340 -0.5992
  648MOL0     C87363  10.854   3.231   9.704  0.2375  0.5945 -0.5906
  648MOL0     C87364  10.759   3.192   9.794 -0.1313 -0.6398  0.0048
  648MOL0     C87365  10.768   3.139   9.938 -0.1803 -0.5809  0.6783
  648MOL0     C87366  10.812   3.249  10.040  0.8252  0.3962 -0.5557
  648MOL0     C87367  10.686   3.322  10.090 -0.7084 -0.1422 -0.4807
  648MOL0     C87368  10.722   3.460  10.157 -0.5480 -0.6932  0.9630
  648MOL0     O87369  10.800   3.435  10.271  0.1005 -0.4420  0.4738
  648MOL0     C87370  10.720   3.388  10.375  0.2144 -0.1216  1.6707
  648MOL0     C87371  10.719   3.255  10.419  0.3061  1.1036 -0.1303
  648MOL0     C87372  10.637   3.215  10.514 -0.3631  0.3372  0.3015
  648MOL0     C87373  10.561   3.301  10.591  0.3455 -1.1344 -0.0551
  648MOL0     C87374  10.479   3.250  10.694  0.2743 -0.9032  0.0469
  648MOL0     O87375  10.408   3.339  10.765  0.1971 -0.0950  0.0486
  648MOL0     C87376  10.328   3.300  10.868  0.1759  0.8274 -0.3312
  648MOL0     C87377  10.316   3.382  10.983 -0.3695 -0.9083  0.6161
  648MOL0     C87378  10.231   3.354  11.091  0.3035  0.6887 -0.2339
  648MOL0     C87379  10.147   3.245  11.095  0.6396  0.6334  0.8626
  648MOL0     O87380  10.064   3.205  11.203  0.3657  0.5114  0.2032
  648MOL0     C87381  10.083   3.280  11.322  0.6675 -0.0079  0.1285
  648MOL0     C87382  10.007   3.211  11.430 -1.1690  0.8342 -0.3804
  648MOL0     C87383  10.062   3.070  11.460 -0.4285  0.1743  0.8027
  648MOL0     C87384   9.997   2.996  11.581  0.0888 -0.0343  0.2414
  648MOL0     C87385  10.058   2.854  11.590 -0.4375 -0.1503 -1.0102
  648MOL0     C87386  10.026   2.766  11.707  0.3014  1.2796  0.0019
  648MOL0     C87387  10.044   2.832  11.844  1.1344  0.1016  0.0329
  648MOL0     C87388  10.027   2.732  11.949  0.5379 -0.0987 -0.4878
  648MOL0    Cl87389  10.099   2.796  12.094  0.0176 -0.3511 -0.2355
  648MOL0     C87390  10.161   3.157  10.977 -0.7384  1.4040 -0.1864
  648MOL0     C87391  10.250   3.185  10.871  0.1436 -0.0836  0.4816
  648MOL0     O87392  10.463   3.124  10.691  0.3577 -0.0859 -0.3515
  648MOL0     C87393  10.557   3.437  10.553 -0.2170  0.0985 -0.0468
  648MOL0     C87394  10.640   3.477  10.448  0.5879 -1.4496 -0.2230
  648MOL0     N87395  10.635   3.196   9.727 -0.0830  0.3061  0.2711
  648MOL0     N87396  10.656   3.231   9.609  0.2807 -0.5838  0.3469
  648MOL0     C87397  10.365   4.096   9.386 -1.1386 -0.0837 -0.4414
  648MOL0     C87398  10.246   4.175   9.393 -0.0690 -0.1718  0.6322
  648MOL0     C87399   9.951   4.480   9.538  0.7517 -0.1173 -0.7573
  648MOL0     C87400   9.956   4.584   9.447 -0.4933  0.0926  0.6266
  648MOL0     C87401   9.849   4.662   9.427 -0.2671 -0.0945  0.0342
  648MOL0     C87402   9.745   4.660   9.524  1.3428  0.0824  0.5818
  648MOL0     O87403   9.636   4.746   9.527  0.0728 -0.1568  0.8616
  648MOL0     C87404   9.617   4.846   9.420 -0.0288  0.0083 -0.0898
  648MOL0     C87405   9.490   4.922   9.416  0.3604 -0.2216 -0.0216
  648MOL0     C87406   9.471   5.051   9.503 -0.0108  0.3839  0.2536
  648MOL0     C87407   9.548   5.172   9.446 -0.6486  0.7658  0.4768
  648MOL0     C87408   9.548   5.273   9.552 -0.2959 -0.2286  0.7266
  648MOL0     C87409   9.553   5.362   9.629 -0.7050 -1.0872 -0.3456
  648MOL0     C87410   9.744   4.564   9.627 -0.5649 -1.1397 -0.0778
  648MOL0     C87411   9.844   4.469   9.630  0.4568  0.5839 -0.0172
  648MOL0     C87412   9.827   4.366   9.739 -0.4378  0.0161 -0.0514
  648MOL0     H87413  10.390   4.475   9.330  1.5753  0.0189  1.1391
  648MOL0     H87414  10.587   4.330   9.316  0.8014  0.0916 -1.6255
  648MOL0     H87415  10.731   4.144   9.220 -2.0228  0.6757 -0.2943
  648MOL0     H87416  10.766   4.163   9.394 -0.4812  0.4375 -1.0791
  648MOL0     H87417  10.814   3.918   9.407 -0.1600  0.2177  0.8599
  648MOL0     H87418  10.924   4.003   9.305 -0.5118 -0.1227  2.0794
  648MOL0     H87419  10.825   3.932   9.108 -2.9801  0.9536 -0.4049
  648MOL0     H87420  10.672   3.895   9.181 -1.2807 -2.0147  1.3193
  648MOL0     H87421  10.836   3.695   9.112  2.0941 -0.2020  0.6975
  648MOL0     H87422  10.931   3.739   9.252 -1.8513  0.1753  3.0515
  648MOL0     H87423  10.721   3.702   9.384  0.4308  0.3674  0.8525
  648MOL0     H87424  10.643   3.653   9.235 -0.2048 -0.6603 -0.1050
  648MOL0     H87425  10.705   3.448   9.282 -0.9854  1.7992 -2.5061
  648MOL0     H87426  10.875   3.475   9.245 -0.7758 -0.2287 -0.9509
  648MOL0     H87427  10.745   3.486   9.513 -1.1956  1.1086 -1.9212
  648MOL0     H87428  10.924   3.520   9.477  1.4491 -2.0172 -0.8765
  648MOL0     H87429  10.817   3.256   9.385 -0.7159  2.7300 -1.9308
  648MOL0     H87430  10.969   3.293   9.469  0.6605  0.5031  0.6102
  648MOL0     H87431  10.957   3.249   9.733 -0.3536  0.9458  1.4268
  648MOL0     H87432  10.674   3.091   9.969  0.1999 -0.8954  1.3645
  648MOL0     H87433  10.829   3.048   9.943 -2.4519 -2.2167  0.3945
  648MOL0     H87434  10.853   3.199  10.129  2.0292  0.4691 -1.0631
  648MOL0     H87435  10.893   3.314  10.007  1.1223 -0.0030 -0.6240
  648MOL0     H87436  10.651   3.260  10.172  0.5652 -2.4455 -1.5833
  648MOL0     H87437  10.602   3.323  10.021 -1.5472 -0.7070  0.5106
  648MOL0     H87438  10.633   3.510  10.196  1.4604  3.3522  0.7822
  648MOL0     H87439  10.768   3.532  10.089  1.3241 -0.2453  2.6337
  648MOL0     H87440  10.786   3.185  10.371  0.3718  1.4132 -0.4907
  648MOL0     H87441  10.635   3.107  10.527 -3.4834 -0.3173 -3.8889
  648MOL0     H87442  10.377   3.472  10.982 -2.2327  0.4086 -0.8492
  648MOL0     H87443  10.236   3.418  11.178  0.1286 -0.1605  0.4108
  648MOL0     H87444  10.186   3.283  11.358  0.8207 -2.6294  0.1235
  648MOL0     H87445  10.036   3.377  11.307 -0.0416 -0.6932 -2.6777
  648MOL0     H87446  10.019   3.278  11.516 -0.8130  0.8298 -0.4270
  648MOL0     H87447   9.900   3.198  11.412 -0.9620 -3.0586  0.3732
  648MOL0     H87448  10.061   3.019  11.364  1.8744  2.2334 -0.4331
  648MOL0     H87449  10.169   3.073  11.487  0.8909  1.6561 -3.7897
  648MOL0     H87450   9.888   2.997  11.580  0.0299  2.2844  1.3006
  648MOL0     H87451  10.029   3.043  11.675  1.5127 -1.9161  0.7591
  648MOL0     H87452  10.167   2.863  11.580 -0.2447 -0.7907  0.2886
  648MOL0     H87453  10.026   2.790  11.507 -1.0397  0.3010 -1.1288
  648MOL0     H87454   9.933   2.713  11.686  0.7934  0.2612  0.3348
  648MOL0     H87455  10.098   2.685  11.699 -1.9879 -0.7219 -1.7255
  648MOL0     H87456   9.978   2.913  11.876 -0.6765 -0.0122 -3.0498
  648MOL0     H87457  10.150   2.857  11.850  1.2311 -0.3298  0.1212
  648MOL0     H87458   9.922   2.712  11.971  0.6126  1.8126  2.1225
  648MOL0     H87459  10.081   2.638  11.933 -0.7680 -1.4977  2.5138
  648MOL0     H87460  10.096   3.073  10.955  0.5443  0.7327 -1.6331
  648MOL0     H87461  10.255   3.115  10.789 -0.4076 -2.4430  2.3432
  648MOL0     H87462  10.490   3.505  10.605 -0.0992  2.1189 -2.3852
  648MOL0     H87463  10.653   3.582  10.422  3.0115 -1.9206 -1.2266
  648MOL0     H87464  10.356   3.997   9.430  2.2835 -0.8168 -1.1035
  648MOL0     H87465  10.158   4.116   9.418  1.3723 -0.9810  4.3784
  648MOL0     H87466  10.043   4.606   9.385  0.6731  1.4923  2.6479
  648MOL0     H87467   9.851   4.738   9.349 -2.6699  1.4494  1.3146
  648MOL0     H87468   9.630   4.793   9.326 -1.0682  0.8946 -0.7679
  648MOL0     H87469   9.700   4.918   9.424 -0.2789  0.2701  2.8413
  648MOL0     H87470   9.411   4.850   9.440 -0.2156  0.2233 -0.5319
  648MOL0     H87471   9.460   4.947   9.314 -0.6411 -2.8413 -0.4486
  648MOL0     H87472   9.507   5.019   9.601 -0.9944 -0.1486  0.4499
  648MOL0     H87473   9.364   5.071   9.498  0.1221  0.8430 -1.1399
  648MOL0     H87474   9.654   5.154   9.430 -0.9495  0.1918 -1.0518
  648MOL0     H87475   9.494   5.199   9.355  1.6413 -0.7318 -1.4441
  648MOL0     H87476   9.552   5.450   9.690  1.6938 -1.2631  0.0394
  648MOL0     H87477   9.664   4.570   9.701 -0.2604  1.7452  0.1275
  648MOL0     H87478   9.754   4.403   9.811 -0.2398  0.3615 -0.0284
  648MOL0     H87479   9.800   4.267   9.700 -2.7622  0.3024  0.6943
  648MOL0     H87480   9.922   4.338   9.787 -0.7944 -1.2504 -0.0471
  649MOL0     O87481   0.265   0.989   1.778  0.2715  0.0151  0.2967
  649MOL0     C87482   0.223   1.054   1.880 -0.5751 -0.0744  0.0234
  649MOL0     O87483   0.101   1.109   1.895 -0.3125  0.1789  0.6231
  649MOL0     C87484   0.018   1.123   1.788 -0.3174 -0.1874 -0.5239
  649MOL0     C87485   0.055   1.152   1.654 -0.7750  0.3630 -1.0035
  649MOL0     C87486  -0.043   1.170   1.562 -0.0266 -0.1561  0.3885
  649MOL0     C87487  -0.174   1.166   1.587 -0.7565  0.1388 -0.3009
  649MOL0     O87488  -0.250   1.188   1.476 -0.1064  0.1611 -0.2498
  649MOL0     C87489  -0.376   1.256   1.505  0.2145  0.4728 -0.0769
  649MOL0     C87490  -0.411   1.342   1.387  0.0622 -0.1297 -0.2445
  649MOL0     C87491  -0.560   1.368   1.369 -0.2440  0.8254 -0.1878
  649MOL0     C87492  -0.656   1.243   1.364  0.3862 -0.1252 -0.7972
  649MOL0     C87493  -0.617   1.126   1.273 -0.6392  1.1782 -0.7103
  649MOL0     C87494  -0.595   1.179   1.135  0.3717 -0.2047  0.3195
  649MOL0     C87495  -0.574   1.061   1.040 -0.2679 -1.2914  0.4972
  649MOL0     C87496  -0.574   1.092   0.883 -0.6207 -0.3416 -0.5888
  649MOL0     N87497  -0.475   1.190   0.852 -0.4754  0.4229  0.2465
  649MOL0     C87498  -0.334   1.162   0.865 -0.2543  0.0429  0.3659
  649MOL0     C87499  -0.270   1.265   0.795 -0.1572 -1.1258 -0.1446
  649MOL0     C87500  -0.123   1.278   0.779  0.0918 -0.1027  0.4387
  649MOL0     C87501  -0.090   1.169   0.680 -0.0760 -0.2092  0.1669
  649MOL0     C87502   0.046   1.187   0.611 -0.6031  0.0183 -0.0151
  649MOL0     C87503   0.164   1.154   0.703 -0.1040 -0.5742  0.3839
  649MOL0     O87504   0.177   1.014   0.703  0.0328 -0.5049 -0.9850
  649MOL0     C87505   0.285   0.954   0.764 -0.9916 -0.0598  0.0126
  649MOL0     C87506   0.298   0.821   0.740 -0.0268 -0.1917  0.1943
  649MOL0     C87507   0.408   0.751   0.784 -0.4756 -0.0562 -0.6629
  649MOL0     C87508   0.519   0.809   0.850  0.3647 -0.3291  0.0084
  649MOL0     C87509   0.633   0.730   0.903  0.3546 -1.0969 -0.6302
  649MOL0     O87510   0.683   0.784   1.028  0.1975 -0.0517 -0.5821
  649MOL0     C87511   0.758   0.691   1.107 -0.6081 -1.1598 -0.2096
  649MOL0     C87512   0.705   0.582   1.179  0.1040  0.1475  0.3141
  649MOL0     C87513   0.789   0.490   1.240 -0.2651  0.3475  0.2926
  649MOL0     C87514   0.931   0.506   1.237  0.6526  0.0171  0.6648
  649MOL0     O87515   1.020   0.418   1.295 -0.6314 -0.1266 -0.0752
  649MOL0     C87516   1.008   0.285   1.254 -0.8204  0.4275  0.1494
  649MOL0     C87517   1.131   0.191   1.292  0.0783  0.5387 -0.2609
  649MOL0     C87518   1.098   0.044   1.274  0.0208 -0.1859  0.0738
  649MOL0     C87519   0.983  -0.008   1.371  1.4248 -1.1272 -0.0715
  649MOL0     C87520   0.969  -0.162   1.365  0.3823  0.3530  0.7984
  649MOL0     C87521   0.885  -0.211   1.230 -0.7229 -0.4244 -1.8771
  649MOL0     C87522   0.733  -0.187   1.259  0.2818 -0.0175 -0.5582
  649MOL0     C87523   0.656  -0.258   1.150 -0.3258  0.8817 -0.5561
  649MOL0    Cl87524   0.481  -0.217   1.155 -0.3912  0.2820 -0.4819
  649MOL0     C87525   0.978   0.623   1.176  0.2778  0.4205  0.7063
  649MOL0     C87526   0.896   0.713   1.107  0.7255 -0.5712 -0.8378
  649MOL0     O87527   0.658   0.623   0.849 -0.8529 -0.8961 -0.0898
  649MOL0     C87528   0.504   0.949   0.877 -0.4159  0.2773  0.4257
  649MOL0     C87529   0.392   1.021   0.827  0.1229  0.2230 -0.5462
  649MOL0     N87530  -0.373   1.349   0.754 -0.5189 -0.1723 -0.3715
  649MOL0     N87531  -0.494   1.307   0.789  0.5607 -0.5503 -0.7083
  649MOL0     C87532  -0.222   1.141   1.712 -0.3788 -1.1971  0.5456
  649MOL0     C87533  -0.124   1.112   1.812  0.0320  0.1732 -0.9399
  649MOL0     C87534   0.317   1.051   2.001  0.0270 -1.3182 -0.0708
  649MOL0     C87535   0.423   0.960   1.995 -0.1275  0.3693  0.2596
  649MOL0     C87536   0.493   0.927   2.108 -0.5667 -0.6712  0.2623
  649MOL0     C87537   0.476   1.002   2.223 -0.3495 -0.3229  0.1522
  649MOL0     O87538   0.555   0.986   2.337  0.0425 -0.6367  1.2175
  649MOL0     C87539   0.582   0.851   2.378  1.0021  0.9092  0.0825
  649MOL0     C87540   0.627   0.849   2.527 -0.4117  0.1606 -0.7968
  649MOL0     C87541   0.535   0.932   2.615 -0.1567 -0.2188 -0.5154
  649MOL0     C87542   0.395   0.863   2.632 -0.4236 -0.2946  0.1970
  649MOL0     C87543   0.308   0.950   2.711 -0.1307  0.0339 -0.4298
  649MOL0     C87544   0.224   1.032   2.747 -0.1032 -0.5809  1.0167
  649MOL0     C87545   0.393   1.113   2.217 -0.8269  0.4620 -0.3155
  649MOL0     C87546   0.300   1.139   2.108 -0.5379  0.1135 -0.2972
  649MOL0     C87547   0.210   1.267   2.110 -0.5475  0.7780  0.9690
  649MOL0     H87548   0.156   1.145   1.616 -0.2421  3.4308 -0.4900
  649MOL0     H87549  -0.005   1.167   1.460 -1.7632  1.4091 -0.3582
  649MOL0     H87550  -0.448   1.175   1.516  0.4055 -0.5038 -4.3471
  649MOL0     H87551  -0.371   1.325   1.590  1.4385  0.2021  0.0843
  649MOL0     H87552  -0.363   1.298   1.299  2.4006  0.4265  0.6595
  649MOL0     H87553  -0.368   1.441   1.404 -0.6230 -0.0745  1.2966
  649MOL0     H87554  -0.591   1.411   1.274 -0.5161 -2.2024 -1.5991
  649MOL0     H87555  -0.599   1.439   1.442  2.2756  0.8069  1.2787
  649MOL0     H87556  -0.666   1.189   1.460  0.7002  1.4967  0.1818
  649MOL0     H87557  -0.759   1.275   1.346  0.9237  1.5073 -1.1114
  649MOL0     H87558  -0.524   1.081   1.309 -1.3979 -0.5006 -0.7335
  649MOL0     H87559  -0.691   1.046   1.278  1.0268 -0.3669  3.2100
  649MOL0     H87560  -0.687   1.226   1.098  0.9753 -0.8061 -2.1386
  649MOL0     H87561  -0.517   1.256   1.132 -1.0124  1.2228 -0.8863
  649MOL0     H87562  -0.658   0.991   1.044 -0.8386 -0.7380 -0.9659
  649MOL0     H87563  -0.488   1.000   1.068 -1.3326 -2.5081  1.2380
  649MOL0     H87564  -0.549   0.996   0.838 -1.1203 -0.0501 -1.5227
  649MOL0     H87565  -0.675   1.117   0.848 -1.3363  0.0440  1.5751
  649MOL0     H87566  -0.295   1.068   0.904 -2.9497 -1.8750 -1.2024
  649MOL0     H87567  -0.100   1.381   0.749 -0.8034 -0.5708 -2.1106
  649MOL0     H87568  -0.060   1.268   0.867  2.5160  2.6508 -0.8005
  649MOL0     H87569  -0.078   1.073   0.730 -1.8678 -0.4521  0.1641
  649MOL0     H87570  -0.169   1.159   0.606  0.3623 -0.8114 -0.2269
  649MOL0     H87571   0.038   1.289   0.574 -0.6111  0.4259  1.0758
  649MOL0     H87572   0.050   1.124   0.522  0.9334  0.1313 -0.0559
  649MOL0     H87573   0.149   1.197   0.802  2.8703 -0.7571  1.0005
  649MOL0     H87574   0.256   1.193   0.658 -0.8681  0.8395  0.0003
  649MOL0     H87575   0.211   0.773   0.696  0.2454  0.3806 -1.0168
  649MOL0     H87576   0.419   0.645   0.767  1.6935  0.2895 -1.7644
  649MOL0     H87577   0.597   0.575   1.176  0.1793 -1.3770  0.4006
  649MOL0     H87578   0.750   0.409   1.301  0.8553  1.1803  2.2183
  649MOL0     H87579   0.909   0.248   1.284 -2.0969  1.9412 -1.8904
  649MOL0     H87580   1.003   0.290   1.145  1.2671  1.4974  0.0616
  649MOL0     H87581   1.223   0.220   1.241  0.0817 -1.5363 -1.5445
  649MOL0     H87582   1.151   0.205   1.399  1.5057 -0.3332 -0.3922
  649MOL0     H87583   1.068   0.031   1.170  2.0776 -0.3380 -0.5488
  649MOL0     H87584   1.182  -0.024   1.293 -1.8108 -2.3839  0.6281
  649MOL0     H87585   0.886   0.038   1.350  1.2008 -1.7936 -0.5132
  649MOL0     H87586   1.004   0.018   1.476  1.7175 -0.0206 -0.3910
  649MOL0     H87587   0.923  -0.208   1.453 -0.9840  0.2952  0.0823
  649MOL0     H87588   1.065  -0.214   1.370 -0.6768 -1.5772  2.8467
  649MOL0     H87589   0.935  -0.162   1.146 -0.0197  0.8863 -0.7437
  649MOL0     H87590   0.907  -0.318   1.228  1.6246 -0.1325  1.0015
  649MOL0     H87591   0.710  -0.080   1.255 -3.9352 -0.6445  1.1647
  649MOL0     H87592   0.715  -0.223   1.361 -1.7339 -3.5921 -1.9685
  649MOL0     H87593   0.701  -0.236   1.053  0.8889 -0.8064 -0.4290
  649MOL0     H87594   0.667  -0.366   1.165 -1.0795  0.8697 -0.0668
  649MOL0     H87595   1.086   0.630   1.179  0.4766 -0.6012 -1.8798
  649MOL0     H87596   0.938   0.798   1.055 -0.5915 -0.4102 -1.7090
  649MOL0     H87597   0.577   1.009   0.929 -0.8074  0.6270  0.5797
  649MOL0     H87598   0.380   1.128   0.841 -2.6726 -0.3263  2.8157
  649MOL0     H87599  -0.326   1.142   1.743 -0.8572  1.5169 -0.8834
  649MOL0     H87600  -0.169   1.085   1.907  1.8797  2.7712  0.7996
  649MOL0     H87601   0.430   0.896   1.908 -1.0841  0.5119  0.0652
  649MOL0     H87602   0.550   0.836   2.118  3.0059  1.0390 -2.1733
  649MOL0     H87603   0.664   0.809   2.319  0.7811  0.0384  0.3890
  649MOL0     H87604   0.497   0.786   2.355  0.1565  1.8417  0.4682
  649MOL0     H87605   0.727   0.884   2.553  0.9236 -4.2183  0.8270
  649MOL0     H87606   0.631   0.744   2.555  1.8701 -0.8308 -4.2433
  649MOL0     H87607   0.517   1.034   2.581  0.1605  0.1608  0.4080
  649MOL0     H87608   0.584   0.946   2.712  0.6334 -1.0543 -0.7780
  649MOL0     H87609   0.349   0.842   2.535  0.5152  1.7325 -0.7448
  649MOL0     H87610   0.409   0.769   2.687  3.0353  0.0289  0.0845
  649MOL0     H87611   0.155   1.103   2.786 -0.5600  0.0318 -0.8354
  649MOL0     H87612   0.404   1.190   2.293 -0.0747 -1.7476  1.9732
  649MOL0     H87613   0.131   1.254   2.184 -2.4329  1.2457 -0.8920
  649MOL0     H87614   0.282   1.343   2.142  0.9417  0.2782 -0.9867
  649MOL0     H87615   0.167   1.291   2.013  1.2756 -0.4125 -0.2163
  650MOL0     O87616   2.903   9.355   3.715 -0.2038 -0.2201 -0.1651
  650MOL0     C87617   2.810   9.375   3.646  0.2623 -0.6992  0.0314
  650MOL0     O87618   2.673   9.334   3.668  0.1772 -0.4324 -0.1959
  650MOL0     C87619   2.572   9.413   3.622 -0.2558  0.3948 -0.4067
  650MOL0     C87620   2.450   9.348   3.574 -0.1062  0.0462 -0.1054
  650MOL0     C87621   2.341   9.428   3.528 -0.0770 -0.1018 -0.2917
  650MOL0     C87622   2.354   9.562   3.524 -0.1843  0.2589  0.0137
  650MOL0     O87623   2.259   9.636   3.463 -0.2755  1.5980 -0.7730
  650MOL0     C87624   2.252   9.617   3.321  0.2892  0.5678 -0.1105
  650MOL0     C87625   2.197   9.747   3.269 -0.6788 -0.3943 -0.6937
  650MOL0     C87626   2.176   9.743   3.122 -0.7028 -0.2587 -0.6274
  650MOL0     C87627   2.116   9.875   3.076 -0.2872 -0.2812 -0.1578
  650MOL0     C87628   2.072   9.873   2.935 -0.3101 -0.4330  0.1581
  650MOL0     C87629   2.177   9.839   2.829  0.0340 -0.8332  0.2556
  650MOL0     C87630   2.288   9.941   2.823  0.1175 -0.0408 -0.3177
  650MOL0     C87631   2.398   9.922   2.708  0.3951  0.6978 -0.3726
  650MOL0     N87632   2.510  10.013   2.720  1.0967 -0.7761 -0.0815
  650MOL0     C87633   2.574  10.042   2.843  0.2593  0.3827 -0.5133
  650MOL0     C87634   2.655  10.147   2.813  0.6101 -0.8529  1.4109
  650MOL0     C87635   2.705  10.242   2.919 -0.0782  1.0612  1.0627
  650MOL0     C87636   2.852  10.251   2.928 -0.1680  1.1286  0.2350
  650MOL0     C87637   2.916  10.154   3.035  0.2344  0.0240  0.0966
  650MOL0     C87638   3.070  10.188   3.048 -0.0262  1.2632 -0.0588
  650MOL0     O87639   3.133  10.068   3.083  0.1578 -0.4112  0.4407
  650MOL0     C87640   3.270  10.059   3.098 -0.0493  0.7330 -0.4661
  650MOL0     C87641   3.359  10.162   3.064 -0.4628 -0.1319 -0.0522
  650MOL0     C87642   3.498  10.157   3.096 -0.8011  1.0664  0.5349
  650MOL0     C87643   3.538  10.050   3.173 -0.1032 -0.9865 -0.7526
  650MOL0     C87644   3.671  10.057   3.229  0.2134  0.2380 -0.1346
  650MOL0     O87645   3.755  10.126   3.152 -0.1802  0.0207 -0.7419
  650MOL0     C87646   3.883  10.133   3.213 -0.5582  0.2524  0.1535
  650MOL0     C87647   3.921  10.218   3.326  0.1367  0.4339  0.0353
  650MOL0     C87648   4.057  10.230   3.357 -0.2827 -0.2204 -0.3099
  650MOL0     C87649   4.151  10.159   3.285 -0.2401  0.7631  0.5506
  650MOL0     O87650   4.282  10.189   3.292 -0.2150 -0.2949 -0.5413
  650MOL0     C87651   4.325  10.326   3.334 -0.1195  0.8363 -0.2855
  650MOL0     C87652   4.475  10.341   3.312  0.4194  0.3909 -0.6903
  650MOL0     C87653   4.505  10.354   3.167  0.8777  0.0408  0.8049
  650MOL0     C87654   4.645  10.347   3.144 -1.1821  0.5284  0.5453
  650MOL0     C87655   4.677  10.315   2.996  0.4920  0.1305  0.2694
  650MOL0     C87656   4.676  10.442   2.912  0.1272 -0.9256  0.4814
  650MOL0     C87657   4.685  10.422   2.763 -0.1036 -0.1865  0.7735
  650MOL0     C87658   4.794  10.332   2.722  0.6415 -0.0880 -0.3827
  650MOL0    Cl87659   4.830  10.350   2.547 -0.1755 -0.2498 -0.1622
  650MOL0     C87660   4.118  10.066   3.189  0.0033 -0.0620  0.2477
  650MOL0     C87661   3.988  10.062   3.146  0.6183 -0.7491  0.5540
  650MOL0     O87662   3.700   9.989   3.333 -0.3433 -0.8274  0.9739
  650MOL0     C87663   3.444   9.945   3.205 -1.3458 -0.1558 -1.1367
  650MOL0     C87664   3.325   9.940   3.147  0.1872 -0.5082  0.0903
  650MOL0     N87665   2.648  10.174   2.677  0.3055 -0.6573  0.7014
  650MOL0     N87666   2.559  10.095   2.620 -0.2394 -0.9649  0.0572
  650MOL0     C87667   2.465   9.624   3.581  0.6120  0.0211  0.0316
  650MOL0     C87668   2.569   9.553   3.639  0.2456  0.1305 -0.4253
  650MOL0     C87669   2.860   9.454   3.534 -0.3506  0.2703  0.4046
  650MOL0     C87670   2.968   9.545   3.542 -0.2136 -0.2459  0.2305
  650MOL0     C87671   3.015   9.627   3.437  1.1448  0.4775 -0.5404
  650MOL0     C87672   2.971   9.598   3.303 -0.1171  0.0397 -1.0736
  650MOL0     O87673   3.036   9.647   3.190 -0.3553 -0.6423  0.2679
  650MOL0     C87674   2.964   9.639   3.069  0.4084  0.2049  0.6872
  650MOL0     C87675   3.004   9.766   2.990 -0.7190 -0.0389  0.1939
  650MOL0     C87676   2.956   9.742   2.841  0.2387 -1.3024 -0.9671
  650MOL0     C87677   2.944   9.874   2.769  0.4464  0.2330  0.5334
  650MOL0     C87678   3.079   9.935   2.759 -0.8289  0.2482  0.2475
  650MOL0     C87679   3.183   9.997   2.742 -0.5152  0.5274  0.2522
  650MOL0     C87680   2.871   9.494   3.293 -0.7818  0.1227  0.0943
  650MOL0     C87681   2.822   9.416   3.403 -0.1596  0.1781 -0.1141
  650MOL0     C87682   2.725   9.294   3.370  0.6572 -0.1763 -0.1024
  650MOL0     H87683   2.447   9.240   3.584 -1.6926  0.0420 -0.3752
  650MOL0     H87684   2.242   9.392   3.503  0.6144 -0.1595 -3.3556
  650MOL0     H87685   2.344   9.579   3.276  0.0688  0.6338 -0.6264
  650MOL0     H87686   2.176   9.540   3.304 -1.8705  2.3496  0.8864
  650MOL0     H87687   2.265   9.832   3.283  1.1953 -1.3162 -3.3076
  650MOL0     H87688   2.099   9.765   3.313  0.0104  5.5853 -0.7834
  650MOL0     H87689   2.105   9.663   3.099  1.4177 -1.6369 -2.9036
  650MOL0     H87690   2.272   9.722   3.074  0.5384 -1.0806  2.0285
  650MOL0     H87691   2.034   9.905   3.142  0.8921  2.8293  0.0597
  650MOL0     H87692   2.190   9.955   3.080 -0.7249  0.1787 -1.0182
  650MOL0     H87693   1.986   9.807   2.923 -0.8448  0.3279 -0.2664
  650MOL0     H87694   2.037   9.969   2.898  0.1639  0.2109  1.3430
  650MOL0     H87695   2.206   9.734   2.833 -0.2593 -1.0722 -2.0672
  650MOL0     H87696   2.131   9.856   2.731  1.4342 -0.7137 -0.4041
  650MOL0     H87697   2.336   9.945   2.921  0.0971  0.4229 -0.3262
  650MOL0     H87698   2.247  10.041   2.808 -1.4639 -0.5729  0.2103
  650MOL0     H87699   2.441   9.823   2.727  1.2349  1.1504  0.1800
  650MOL0     H87700   2.354   9.929   2.608 -0.7703  3.2861  0.2486
  650MOL0     H87701   2.542  10.011   2.941  0.1833 -0.4552 -0.7990
  650MOL0     H87702   2.658  10.336   2.888 -0.7811 -0.0206 -1.4130
  650MOL0     H87703   2.666  10.214   3.018 -2.6365  2.1514  0.4480
  650MOL0     H87704   2.897  10.243   2.829  1.5226  1.2181  0.9514
  650MOL0     H87705   2.876  10.354   2.960  0.8096  2.2613 -3.6513
  650MOL0     H87706   2.899  10.051   3.001 -1.9020 -0.2929  1.9172
  650MOL0     H87707   2.861  10.149   3.130 -0.2789 -0.4943 -0.2199
  650MOL0     H87708   3.086  10.270   3.119  2.4019  1.6954 -0.9845
  650MOL0     H87709   3.113  10.214   2.951  0.8447 -5.0482 -1.8101
  650MOL0     H87710   3.320  10.249   3.012  0.3114 -1.3872 -2.9743
  650MOL0     H87711   3.570  10.232   3.067  0.6398 -0.7509 -0.8485
  650MOL0     H87712   3.848  10.261   3.395  0.1484 -1.8678  1.5844
  650MOL0     H87713   4.083  10.297   3.438  2.1190 -2.3360  0.8222
  650MOL0     H87714   4.279  10.411   3.282  0.3709  1.6912  0.6178
  650MOL0     H87715   4.300  10.340   3.440  4.0474 -1.6740  1.2399
  650MOL0     H87716   4.523  10.408   3.385  1.7163 -3.1328  2.0246
  650MOL0     H87717   4.529  10.251   3.343  0.4962  1.2158  1.8403
  650MOL0     H87718   4.450  10.269   3.124  0.4893  1.0534 -0.7793
  650MOL0     H87719   4.478  10.446   3.116 -0.2484  0.2404  1.7173
  650MOL0     H87720   4.696  10.278   3.212  0.6549  2.9296  1.7516
  650MOL0     H87721   4.678  10.445   3.178 -0.2727  0.2950  0.3466
  650MOL0     H87722   4.597  10.245   2.969  0.2079  0.0183  1.3754
  650MOL0     H87723   4.776  10.269   3.004  0.1549 -0.4165  1.6314
  650MOL0     H87724   4.583  10.494   2.937  0.2955 -0.6510  0.5440
  650MOL0     H87725   4.765  10.493   2.951 -0.4582  0.3495  0.1927
  650MOL0     H87726   4.706  10.516   2.711 -2.0405 -0.2761 -0.2345
  650MOL0     H87727   4.592  10.381   2.723 -1.4824  1.4271  2.2043
  650MOL0     H87728   4.876  10.363   2.788  0.1554 -0.4726  0.4072
  650MOL0     H87729   4.778  10.231   2.758  0.9056 -0.2472 -0.7080
  650MOL0     H87730   4.187  10.010   3.126 -0.0774  1.3257 -1.1469
  650MOL0     H87731   3.936  10.021   3.060 -2.3845  3.8404 -0.1860
  650MOL0     H87732   3.480   9.861   3.262  1.9063  1.3807 -0.7148
  650MOL0     H87733   3.260   9.857   3.174  2.5462 -1.6149  2.9780
  650MOL0     H87734   2.463   9.731   3.599 -1.2747 -0.0428  0.3956
  650MOL0     H87735   2.629   9.606   3.712 -3.4920  0.4632  2.7239
  650MOL0     H87736   3.004   9.555   3.644  2.1504 -6.6899  0.4876
  650MOL0     H87737   3.095   9.697   3.456  3.1668 -1.7623 -0.3648
  650MOL0     H87738   2.857   9.652   3.091  0.1290 -0.1456 -0.4035
  650MOL0     H87739   2.972   9.541   3.022 -0.4511  0.2211  0.4797
  650MOL0     H87740   3.113   9.760   2.987 -0.8105 -2.6323 -0.4707
  650MOL0     H87741   2.972   9.857   3.041 -0.7356  1.1156 -1.7868
  650MOL0     H87742   2.854   9.704   2.842 -0.3948  0.3256 -0.5215
  650MOL0     H87743   3.018   9.670   2.787  2.3915  0.1249 -0.5448
  650MOL0     H87744   2.922   9.843   2.667  2.5436 -2.4540  0.7747
  650MOL0     H87745   2.860   9.932   2.808 -0.6437 -0.7348 -0.3006
  650MOL0     H87746   3.274  10.049   2.723  0.7102 -1.4989  0.2302
  650MOL0     H87747   2.829   9.458   3.199 -0.2961  1.8041 -0.8005
  650MOL0     H87748   2.730   9.220   3.451  0.6251 -1.1359 -0.9583
  650MOL0     H87749   2.623   9.328   3.355 -0.6360 -2.3621  2.6301
  650MOL0     H87750   2.762   9.233   3.287  0.4803 -1.1900  0.5332
  651MOL0     O87751   5.998   5.045   2.707  0.1101  0.0722  0.1980
  651MOL0     C87752   5.893   5.063   2.765 -0.1508  0.3326 -0.2894
  651MOL0     O87753   5.826   4.968   2.826  0.0029  0.1180  0.8455
  651MOL0     C87754   5.849   4.833   2.782 -0.4916 -1.2401  0.0890
  651MOL0     C87755   5.775   4.760   2.691 -0.4061  0.2431  0.0488
  651MOL0     C87756   5.810   4.631   2.661 -0.8098 -0.2676  0.4425
  651MOL0     C87757   5.905   4.556   2.729 -0.2845  0.9894  0.2080
  651MOL0     O87758   5.901   4.419   2.701 -0.1106  0.1391 -0.7362
  651MOL0     C87759   5.943   4.336   2.810  0.4159  0.6598 -0.0353
  651MOL0     C87760   5.934   4.188   2.777 -0.6564 -0.1446 -0.1540
  651MOL0     C87761   6.041   4.151   2.676 -0.0806  0.0873  0.2014
  651MOL0     C87762   6.025   4.011   2.620 -1.1949  0.3135  0.1388
  651MOL0     C87763   6.159   3.941   2.589 -0.2509  0.6303 -0.0870
  651MOL0     C87764   6.234   4.010   2.475  0.0682 -0.1414 -0.2148
  651MOL0     C87765   6.379   3.982   2.483 -0.3034  0.2089 -0.3434
  651MOL0     C87766   6.464   4.060   2.375 -1.5100 -0.1129  0.7487
  651MOL0     N87767   6.601   4.008   2.357  0.9288  0.4941  0.1280
  651MOL0     C87768   6.617   3.894   2.280 -0.5839  0.0306  0.3600
  651MOL0     C87769   6.750   3.878   2.253  0.4913  1.0226  0.1576
  651MOL0     C87770   6.793   3.766   2.159 -1.1249 -0.5988  0.5667
  651MOL0     C87771   6.726   3.783   2.019 -0.0695 -0.1572 -0.4622
  651MOL0     C87772   6.773   3.905   1.945 -1.4965 -0.5397  0.2307
  651MOL0     C87773   6.865   3.856   1.826 -0.9245 -0.6742  0.6353
  651MOL0     O87774   6.874   3.962   1.727  0.1325 -0.1716 -0.0258
  651MOL0     C87775   6.953   3.935   1.621  0.6761 -0.0260 -0.2467
  651MOL0     C87776   7.057   4.023   1.608 -0.0403  1.0540 -0.1114
  651MOL0     C87777   7.128   4.029   1.494 -0.5659  0.4045  0.0773
  651MOL0     C87778   7.109   3.942   1.381 -0.5168  0.1360  0.0485
  651MOL0     C87779   7.190   3.953   1.259 -0.4302  0.7673 -1.0469
  651MOL0     O87780   7.189   3.850   1.169  0.6618 -0.0378 -0.5534
  651MOL0     C87781   7.238   3.865   1.048  0.2120 -0.3268  0.2471
  651MOL0     C87782   7.366   3.800   1.010 -0.6942  0.3639  0.4823
  651MOL0     C87783   7.422   3.809   0.881 -0.0703  0.9480 -0.5391
  651MOL0     C87784   7.357   3.877   0.782  0.0061 -0.0362  0.0134
  651MOL0     O87785   7.413   3.909   0.656 -0.6905 -0.2050 -0.0702
  651MOL0     C87786   7.548   3.970   0.658  0.4665  0.4983  0.0347
  651MOL0     C87787   7.596   3.953   0.510 -0.2188  0.9465 -0.9615
  651MOL0     C87788   7.742   3.994   0.474  0.0324  0.6225 -0.4982
  651MOL0     C87789   7.747   4.020   0.326 -0.8268  0.3158 -0.4577
  651MOL0     C87790   7.887   4.022   0.268 -0.9018  0.5110  0.2645
  651MOL0     C87791   7.901   4.045   0.111  0.0726  0.5149  0.7885
  651MOL0     C87792   7.796   3.974   0.021  1.1918  1.0245  0.1877
  651MOL0     C87793   7.790   3.814   0.040  0.4099 -0.2734 -0.2260
  651MOL0    Cl87794   7.942   3.741   0.068  0.4093 -0.1986  0.1078
  651MOL0     C87795   7.243   3.947   0.814 -0.3973  0.7319  0.1342
  651MOL0     C87796   7.170   3.930   0.940  0.6103  0.0680  0.6515
  651MOL0     O87797   7.249   4.051   1.241 -1.0080  0.5198  0.1857
  651MOL0     C87798   7.015   3.836   1.403 -0.6446 -0.6036  0.5289
  651MOL0     C87799   6.933   3.842   1.520  0.3720  0.5925 -0.4399
  651MOL0     N87800   6.811   4.000   2.311  0.1645 -0.2747  0.4553
  651MOL0     N87801   6.716   4.075   2.365 -1.0482  0.5848  0.2336
  651MOL0     C87802   5.982   4.634   2.828  0.3351  0.3062  0.2639
  651MOL0     C87803   5.957   4.771   2.846 -0.1403  0.2929 -0.0726
  651MOL0     C87804   5.838   5.201   2.770 -0.6107  0.3826  0.3410
  651MOL0     C87805   5.910   5.306   2.715 -0.7820 -0.1955 -0.2364
  651MOL0     C87806   5.859   5.433   2.700  0.2527 -0.1243 -0.4095
  651MOL0     C87807   5.725   5.468   2.743 -0.0744  0.1557 -0.9005
  651MOL0     O87808   5.658   5.588   2.740 -1.0320 -0.8457  0.7746
  651MOL0     C87809   5.725   5.704   2.683 -0.2498 -0.3131  0.6173
  651MOL0     C87810   5.681   5.831   2.764  0.1141  0.7796 -0.6342
  651MOL0     C87811   5.759   5.959   2.726  1.0169  0.8233  0.5287
  651MOL0     C87812   5.682   6.088   2.737  0.4291 -0.6096 -0.0408
  651MOL0     C87813   5.790   6.188   2.686  0.3901 -0.4649  0.4515
  651MOL0     C87814   5.878   6.265   2.647 -0.1615  0.4763  0.0325
  651MOL0     C87815   5.656   5.354   2.798  0.0821 -0.4223  1.0907
  651MOL0     C87816   5.707   5.225   2.811 -0.3389 -0.4648  1.2777
  651MOL0     C87817   5.631   5.131   2.890  0.7415  0.0628  0.1595
  651MOL0     H87818   5.681   4.811   2.673 -0.4408  0.7772  1.5554
  651MOL0     H87819   5.752   4.572   2.590 -0.4764 -0.7901  0.5965
  651MOL0     H87820   6.039   4.364   2.854  1.4491 -0.9716 -1.1710
  651MOL0     H87821   5.866   4.365   2.882 -0.7462  1.8923 -1.7135
  651MOL0     H87822   5.831   4.177   2.741 -0.9358  0.5349  0.4086
  651MOL0     H87823   5.938   4.121   2.863  0.6293 -2.1316 -1.6823
  651MOL0     H87824   6.137   4.161   2.726 -0.4334 -0.4280  1.0031
  651MOL0     H87825   6.030   4.212   2.586 -1.1715 -2.1520 -1.2549
  651MOL0     H87826   5.981   3.953   2.702 -0.2450 -0.7239 -0.0489
  651MOL0     H87827   5.964   4.015   2.529 -0.7543  0.2498 -0.1661
  651MOL0     H87828   6.214   3.930   2.682  1.0061  0.7918 -0.7850
  651MOL0     H87829   6.141   3.839   2.551  2.3430 -0.3508  1.0788
  651MOL0     H87830   6.196   3.986   2.375  1.6644  1.7418 -1.3565
  651MOL0     H87831   6.213   4.117   2.486 -0.4049 -0.4061  1.6786
  651MOL0     H87832   6.391   3.873   2.483 -3.1599 -0.1674 -1.2064
  651MOL0     H87833   6.414   4.011   2.583 -0.5750 -2.4670  0.6153
  651MOL0     H87834   6.403   4.060   2.284  0.4865 -2.7718 -0.7468
  651MOL0     H87835   6.476   4.167   2.390  0.1760 -0.2118  0.1991
  651MOL0     H87836   6.533   3.836   2.244  0.4131 -1.1011 -0.2303
  651MOL0     H87837   6.902   3.758   2.158 -0.9801 -0.2980 -3.7081
  651MOL0     H87838   6.756   3.668   2.190 -0.3799 -0.6121  1.4552
  651MOL0     H87839   6.745   3.686   1.972 -3.5931 -0.6720 -1.1390
  651MOL0     H87840   6.617   3.793   2.021 -0.2372 -1.8420  0.8537
  651MOL0     H87841   6.826   3.981   2.003 -1.8235  1.1649 -1.5743
  651MOL0     H87842   6.684   3.952   1.900 -0.2913 -0.5854 -2.3897
  651MOL0     H87843   6.813   3.777   1.771 -1.8136  1.1306 -1.2363
  651MOL0     H87844   6.967   3.831   1.857  0.3548  0.3911 -2.3734
  651MOL0     H87845   7.056   4.095   1.689  0.5088 -1.1014  1.9277
  651MOL0     H87846   7.195   4.112   1.473 -2.5835  2.4206  1.2045
  651MOL0     H87847   7.430   3.743   1.076  2.0459  0.1221 -2.1649
  651MOL0     H87848   7.509   3.748   0.860 -0.2746 -0.3349  1.9918
  651MOL0     H87849   7.548   4.077   0.681  1.0877  0.6720 -0.6968
  651MOL0     H87850   7.617   3.919   0.726 -0.6223 -0.3454  0.5282
  651MOL0     H87851   7.571   3.852   0.477  0.1258  0.4540  0.2549
  651MOL0     H87852   7.522   4.015   0.457 -2.2045 -0.0081  0.5627
  651MOL0     H87853   7.784   4.078   0.531  1.1940 -0.6432  0.6117
  651MOL0     H87854   7.803   3.904   0.487 -1.2927 -0.1518  0.6879
  651MOL0     H87855   7.696   4.113   0.299 -2.6752 -1.2624 -2.7819
  651MOL0     H87856   7.687   3.940   0.284  0.3971 -2.1595  2.1928
  651MOL0     H87857   7.935   3.928   0.295  1.6667  1.4890 -0.5628
  651MOL0     H87858   7.945   4.102   0.315  0.7424 -0.9715  0.8644
  651MOL0     H87859   7.883   4.152   0.096 -1.7163 -0.1713 -3.1986
  651MOL0     H87860   8.002   4.029   0.074 -0.7557 -1.1938 -0.8973
  651MOL0     H87861   7.820   3.994  -0.083 -1.9342  2.1189 -0.4259
  651MOL0     H87862   7.699   4.019   0.042  0.5808 -0.4973  0.8089
  651MOL0     H87863   7.725   3.794   0.126  0.3458  2.2100  0.3677
  651MOL0     H87864   7.741   3.764  -0.044 -3.5111 -2.6506  3.0800
  651MOL0     H87865   7.185   4.007   0.745 -0.3652 -1.8307 -2.3211
  651MOL0     H87866   7.070   3.971   0.951 -0.4050 -1.8993 -0.7052
  651MOL0     H87867   6.997   3.758   1.329  1.3311 -0.3032 -0.3445
  651MOL0     H87868   6.862   3.760   1.516 -0.9745  1.7496 -1.2284
  651MOL0     H87869   6.058   4.587   2.889  1.3637  1.4686 -0.0729
  651MOL0     H87870   5.995   4.820   2.935  1.0607  1.4456 -1.1748
  651MOL0     H87871   6.008   5.287   2.671 -0.1787  1.8000  0.1003
  651MOL0     H87872   5.929   5.505   2.658  0.5806  0.0038  0.3434
  651MOL0     H87873   5.706   5.719   2.577 -0.1915  2.4963  0.9427
  651MOL0     H87874   5.833   5.686   2.684 -0.2380 -0.2690 -0.0088
  651MOL0     H87875   5.681   5.807   2.871 -2.9821  4.4047  0.3743
  651MOL0     H87876   5.575   5.846   2.743 -0.5150 -0.1309  1.6269
  651MOL0     H87877   5.771   5.956   2.617  0.6215  1.9491  0.4452
  651MOL0     H87878   5.855   5.962   2.778  2.0438 -0.7846 -1.1479
  651MOL0     H87879   5.594   6.080   2.673  0.4368 -5.1433  0.1970
  651MOL0     H87880   5.663   6.114   2.842 -0.7353 -1.4351 -0.0265
  651MOL0     H87881   5.944   6.328   2.592 -1.2322  0.6673 -1.0966
  651MOL0     H87882   5.554   5.377   2.826 -0.1844  0.7618 -0.6788
  651MOL0     H87883   5.541   5.172   2.938 -0.5211 -0.2574 -1.8000
  651MOL0     H87884   5.596   5.054   2.821  1.3646  0.6320 -0.8170
  651MOL0     H87885   5.690   5.090   2.972  1.8590 -2.8548 -1.9213
  652MOL0     O87886   6.068   3.481   2.370 -0.1110 -0.3257 -0.1672
  652MOL0     C87887   6.138   3.549   2.452  0.7036 -0.7556 -0.8490
  652MOL0     O87888   6.267   3.589   2.432  0.2758 -0.1752 -0.5041
  652MOL0     C87889   6.324   3.573   2.306 -1.0507  0.8103  0.1357
  652MOL0     C87890   6.398   3.461   2.265  0.1028  0.3060  0.8442
  652MOL0     C87891   6.448   3.441   2.131  0.1493  0.7930  0.1111
  652MOL0     C87892   6.426   3.537   2.041 -0.1981  0.4839 -0.4458
  652MOL0     O87893   6.479   3.520   1.914  0.3187 -0.4994  0.9845
  652MOL0     C87894   6.431   3.604   1.807  1.3833 -0.5927 -0.9376
  652MOL0     C87895   6.461   3.542   1.678 -0.8356 -0.7741  0.0086
  652MOL0     C87896   6.612   3.568   1.641  0.8524 -0.3828  0.2307
  652MOL0     C87897   6.651   3.509   1.496 -0.5745 -0.0101 -0.1365
  652MOL0     C87898   6.646   3.353   1.494 -1.3881 -0.3289 -0.3721
  652MOL0     C87899   6.681   3.301   1.350  0.3180 -0.6103  0.3193
  652MOL0     C87900   6.674   3.150   1.333 -0.3317  1.0987  0.4044
  652MOL0     C87901   6.748   3.057   1.420 -0.7352 -0.0018 -0.0634
  652MOL0     N87902   6.893   3.060   1.412 -0.7546 -0.3511  0.0481
  652MOL0     C87903   6.967   3.172   1.449  0.6872 -0.0136 -0.5952
  652MOL0     C87904   7.074   3.177   1.356  0.8693  1.0213 -0.3271
  652MOL0     C87905   7.193   3.266   1.366 -0.6522 -0.3577 -0.7393
  652MOL0     C87906   7.181   3.409   1.298  0.1682  0.4135  0.1837
  652MOL0     C87907   7.285   3.507   1.357  0.2211 -0.5186  0.3197
  652MOL0     C87908   7.432   3.453   1.366  0.8967 -0.4435  0.3455
  652MOL0     O87909   7.526   3.550   1.399 -0.6498 -0.2356 -0.5109
  652MOL0     C87910   7.498   3.628   1.509 -0.9675 -0.4489  0.0405
  652MOL0     C87911   7.506   3.574   1.643  0.3719  0.0519 -0.1140
  652MOL0     C87912   7.465   3.650   1.754 -0.3443  0.8354  0.1536
  652MOL0     C87913   7.417   3.778   1.736 -0.3222  0.0700  0.9982
  652MOL0     C87914   7.378   3.862   1.849  0.2795  0.0102  0.0181
  652MOL0     O87915   7.310   3.980   1.824 -0.0286  0.3523 -0.9365
  652MOL0     C87916   7.266   4.061   1.930 -0.1847  0.3511 -0.9910
  652MOL0     C87917   7.198   4.006   2.039 -0.5660 -2.0219  0.3811
  652MOL0     C87918   7.125   4.095   2.122 -0.2606  0.0673  0.3737
  652MOL0     C87919   7.123   4.234   2.110  0.7993 -0.2253  0.7128
  652MOL0     O87920   7.087   4.332   2.195  0.1549  0.1796  0.1613
  652MOL0     C87921   6.989   4.300   2.285 -0.0927 -0.6819 -0.2752
  652MOL0     C87922   6.875   4.409   2.277  0.2431 -0.4871 -0.1472
  652MOL0     C87923   6.909   4.535   2.360 -0.3321  0.3681  0.0393
  652MOL0     C87924   7.031   4.620   2.315 -0.6872  0.0950 -0.6937
  652MOL0     C87925   7.015   4.759   2.358 -0.3373 -0.3724 -0.9519
  652MOL0     C87926   7.122   4.835   2.289 -0.1114  0.5847  0.0310
  652MOL0     C87927   7.093   4.980   2.309  0.3590  0.4623  0.2837
  652MOL0     C87928   7.197   5.061   2.225  0.2843 -0.5038 -0.2829
  652MOL0    Cl87929   7.186   5.046   2.050 -0.3835  0.6404  0.0279
  652MOL0     C87930   7.188   4.287   1.994  0.1386 -0.8701 -1.3428
  652MOL0     C87931   7.254   4.199   1.910  1.2614 -0.4238  1.0531
  652MOL0     O87932   7.401   3.823   1.960 -0.8072 -0.2637 -0.1299
  652MOL0     C87933   7.401   3.829   1.609 -0.0317 -0.8066  0.3532
  652MOL0     C87934   7.437   3.753   1.492 -0.3983  0.4451 -0.2060
  652MOL0     N87935   7.047   3.069   1.269  0.3506 -0.2763  0.1015
  652MOL0     N87936   6.950   3.005   1.303  0.2187 -0.4098 -0.0968
  652MOL0     C87937   6.353   3.654   2.081 -0.1769  0.0924 -0.3800
  652MOL0     C87938   6.301   3.669   2.214 -0.2179  0.5544 -0.4699
  652MOL0     C87939   6.098   3.544   2.592 -0.0574  0.1107 -0.2905
  652MOL0     C87940   6.192   3.498   2.684  0.2517 -0.7726  0.1411
  652MOL0     C87941   6.165   3.512   2.822  0.2376  1.3419  0.2338
  652MOL0     C87942   6.056   3.578   2.871 -0.6383 -0.3196  0.1887
  652MOL0     O87943   6.063   3.604   3.006 -0.1986  0.0932 -0.1675
  652MOL0     C87944   5.961   3.704   3.033 -0.2440  0.5603  0.5466
  652MOL0     C87945   5.983   3.743   3.183 -0.1133  0.3434  0.4589
  652MOL0     C87946   5.872   3.826   3.240 -1.0550 -0.5190  0.6705
  652MOL0     C87947   5.827   3.761   3.368 -0.3104 -0.1873 -1.0309
  652MOL0     C87948   5.933   3.752   3.471  0.1179  0.2881  0.1652
  652MOL0     C87949   6.033   3.758   3.543 -0.1186  0.7873  0.6210
  652MOL0     C87950   5.957   3.615   2.779 -0.0339  0.4551 -0.4652
  652MOL0     C87951   5.980   3.589   2.640 -0.0043 -0.6296  0.2871
  652MOL0     C87952   5.867   3.629   2.548  0.4609 -0.3160  0.8070
  652MOL0     H87953   6.417   3.383   2.338 -1.4613 -0.5334  0.4148
  652MOL0     H87954   6.498   3.347   2.107  2.2379  1.7097  0.6078
  652MOL0     H87955   6.322   3.604   1.812  1.4234 -0.0015  2.8192
  652MOL0     H87956   6.476   3.704   1.815  0.3876 -0.2627  1.3693
  652MOL0     H87957   6.396   3.585   1.601  2.3310 -0.0579 -2.5151
  652MOL0     H87958   6.449   3.433   1.677  0.9517 -1.0084  0.8345
  652MOL0     H87959   6.684   3.533   1.715  2.6421 -0.9272 -1.6685
  652MOL0     H87960   6.633   3.675   1.648  3.9370 -0.9706  1.6708
  652MOL0     H87961   6.592   3.548   1.413 -0.7168 -1.5162 -0.7748
  652MOL0     H87962   6.754   3.543   1.491 -0.3334  0.1988  3.5901
  652MOL0     H87963   6.715   3.306   1.565 -2.8021 -2.4532 -0.2982
  652MOL0     H87964   6.545   3.323   1.521 -1.1765  2.0191  3.7634
  652MOL0     H87965   6.617   3.355   1.279  0.0098 -1.9267 -0.4488
  652MOL0     H87966   6.779   3.336   1.318  0.4048 -1.0334  0.1149
  652MOL0     H87967   6.692   3.124   1.228 -2.9689 -2.5489  0.6599
  652MOL0     H87968   6.568   3.124   1.329  0.2608 -2.4744  2.7519
  652MOL0     H87969   6.715   3.074   1.523 -0.0276  1.7118 -0.0835
  652MOL0     H87970   6.717   2.957   1.389 -1.0575  0.7248 -2.2583
  652MOL0     H87971   6.937   3.237   1.529 -1.0419  0.4399 -1.5603
  652MOL0     H87972   7.218   3.280   1.471 -0.8984 -3.6351 -0.1478
  652MOL0     H87973   7.280   3.214   1.325 -0.1916  0.1654 -0.4383
  652MOL0     H87974   7.200   3.399   1.191 -0.4546 -2.5214  0.2796
  652MOL0     H87975   7.078   3.446   1.309  0.3608  0.7150  1.1045
  652MOL0     H87976   7.244   3.526   1.457 -2.0176 -3.3752  0.0537
  652MOL0     H87977   7.279   3.600   1.300 -0.1792  0.6112  2.1359
  652MOL0     H87978   7.468   3.411   1.272  1.0407  3.1139 -1.3512
  652MOL0     H87979   7.434   3.367   1.434  1.3458  0.7558  1.8986
  652MOL0     H87980   7.537   3.472   1.663  3.7934  1.2123  1.1295
  652MOL0     H87981   7.472   3.597   1.848  1.5402 -4.4155 -2.5663
  652MOL0     H87982   7.194   3.899   2.054  1.5022 -2.5780 -2.2886
  652MOL0     H87983   7.073   4.040   2.199 -1.7589 -1.1453 -1.4338
  652MOL0     H87984   6.947   4.200   2.269  0.8239 -1.1366  0.1250
  652MOL0     H87985   7.030   4.289   2.386  0.4068  0.2285 -0.3672
  652MOL0     H87986   6.848   4.439   2.175  1.6835 -2.3906 -1.1775
  652MOL0     H87987   6.784   4.377   2.328  0.1913  0.9114  0.6579
  652MOL0     H87988   6.816   4.593   2.355  0.0406  0.9034 -0.9240
  652MOL0     H87989   6.915   4.504   2.465 -2.5692 -1.1420 -0.2154
  652MOL0     H87990   7.034   4.610   2.206 -0.8377  2.9520 -1.0248
  652MOL0     H87991   7.118   4.573   2.361 -1.2382 -0.2026  0.0626
  652MOL0     H87992   7.044   4.765   2.463  0.4830  0.7462 -1.2255
  652MOL0     H87993   6.917   4.803   2.334 -1.3792 -2.5695 -0.9376
  652MOL0     H87994   7.217   4.803   2.332 -1.7906 -0.5858  3.1636
  652MOL0     H87995   7.121   4.820   2.180  1.7807  2.5422 -0.3213
  652MOL0     H87996   7.099   5.015   2.412 -1.4565 -1.8126  1.2493
  652MOL0     H87997   6.996   5.008   2.269  1.1490  2.0909 -0.5898
  652MOL0     H87998   7.195   5.170   2.234  1.3147 -0.4852 -0.1898
  652MOL0     H87999   7.292   5.040   2.274  1.2361  5.6504  1.2531
  652MOL0     H88000   7.198   4.393   1.971  0.9052 -1.0629 -1.9503
  652MOL0     H88001   7.288   4.256   1.825 -0.2678 -1.4188 -0.2709
  652MOL0     H88002   7.365   3.930   1.593  0.2086 -0.4653  1.8754
  652MOL0     H88003   7.437   3.776   1.386  0.0040 -0.6731 -0.4633
  652MOL0     H88004   6.343   3.738   2.013  5.7794  0.2440 -1.5953
  652MOL0     H88005   6.237   3.754   2.235 -0.4929  0.6689 -1.6958
  652MOL0     H88006   6.286   3.449   2.663  0.1906 -3.1267  4.3750
  652MOL0     H88007   6.244   3.488   2.893 -1.8116  1.1634  2.5799
  652MOL0     H88008   5.858   3.668   3.031 -0.4423  0.8948  2.6455
  652MOL0     H88009   5.973   3.796   2.975 -2.4218  2.7055  3.2144
  652MOL0     H88010   6.084   3.785   3.182  1.8907 -3.7694 -2.4623
  652MOL0     H88011   6.000   3.646   3.231  1.1816  0.7318  0.8503
  652MOL0     H88012   5.785   3.840   3.174 -0.6364  0.1596  0.2504
  652MOL0     H88013   5.930   3.916   3.260  0.9726 -0.9721 -2.4152
  652MOL0     H88014   5.748   3.817   3.419  0.8314  1.3375 -0.8543
  652MOL0     H88015   5.794   3.662   3.336 -1.9056  1.0205 -3.4337
  652MOL0     H88016   6.125   3.759   3.597 -0.1211 -0.4591  0.6719
  652MOL0     H88017   5.857   3.638   2.814 -0.1919 -0.5704 -0.2177
  652MOL0     H88018   5.771   3.627   2.600  0.7723 -1.5424  1.3631
  652MOL0     H88019   5.871   3.727   2.498  1.1249 -1.6187 -1.8603
  652MOL0     H88020   5.858   3.549   2.474  1.7252 -0.4321  0.7639
  653MOL0     O88021   0.511  10.209   7.886  0.3547  0.5543  0.3595
  653MOL0     C88022   0.511  10.324   7.934 -0.9599  0.5191  0.3338
  653MOL0     O88023   0.416  10.417   7.918 -0.2080  0.2928  0.3295
  653MOL0     C88024   0.320  10.421   7.818 -0.5155 -0.7302  0.2969
  653MOL0     C88025   0.327  10.357   7.697  0.1939 -0.3287 -0.0513
  653MOL0     C88026   0.238  10.385   7.595  1.2145 -0.6771  0.2315
  653MOL0     C88027   0.132  10.475   7.609  0.1187  0.6414  0.2103
  653MOL0     O88028   0.051  10.495   7.502 -0.2821 -0.0181  0.2010
  653MOL0     C88029  -0.030  10.616   7.495 -0.1043  0.0601 -0.7265
  653MOL0     C88030  -0.083  10.630   7.349  0.0402 -0.4155 -1.4416
  653MOL0     C88031   0.014  10.635   7.247 -0.2433 -0.5128 -0.2275
  653MOL0     C88032  -0.052  10.645   7.108  0.0386  0.3149  0.2479
  653MOL0     C88033  -0.121  10.771   7.055 -0.1753 -0.1895 -0.9151
  653MOL0     C88034  -0.128  10.743   6.901  0.2167 -0.7161  0.1691
  653MOL0     C88035  -0.218  10.856   6.848  0.2143 -0.0079 -0.5292
  653MOL0     C88036  -0.236  10.858   6.696 -0.4640  0.7802  0.1695
  653MOL0     N88037  -0.317  10.968   6.630  0.6275  0.0999 -0.1621
  653MOL0     C88038  -0.423  11.035   6.669  0.3177 -0.8102 -0.5885
  653MOL0     C88039  -0.455  11.124   6.568  0.4585 -0.1318  0.2705
  653MOL0     C88040  -0.589  11.201   6.547  0.6791 -0.1098 -1.1785
  653MOL0     C88041  -0.585  11.331   6.628 -0.0294  0.1107  0.1686
  653MOL0     C88042  -0.687  11.428   6.591  0.8278 -0.4431  0.3355
  653MOL0     C88043  -0.675  11.575   6.652 -0.6500 -0.0433 -0.2069
  653MOL0     O88044  -0.535  11.620   6.666 -0.1416 -0.3832  0.2851
  653MOL0     C88045  -0.528  11.751   6.706 -0.1113  0.1415 -0.2430
  653MOL0     C88046  -0.462  11.836   6.621 -0.0756  0.6512 -0.0080
  653MOL0     C88047  -0.409  11.960   6.660  0.1376  0.2414 -0.1340
  653MOL0     C88048  -0.428  12.009   6.786  0.1754  1.0682 -0.1353
  653MOL0     C88049  -0.371  12.146   6.824 -0.7819  0.2248 -0.4799
  653MOL0     O88050  -0.389  12.189   6.947  0.3326  0.2752 -0.2423
  653MOL0     C88051  -0.332  12.305   6.997 -0.1277 -0.7835  0.2259
  653MOL0     C88052  -0.222  12.377   6.938  0.3125  0.0627  0.0584
  653MOL0     C88053  -0.175  12.491   7.002  0.6820  0.2245  0.1737
  653MOL0     C88054  -0.223  12.542   7.115  0.4768  0.6063  0.4954
  653MOL0     O88055  -0.184  12.640   7.198  0.0299 -0.0343 -0.5482
  653MOL0     C88056  -0.061  12.712   7.153 -0.9259  0.0154 -0.7937
  653MOL0     C88057  -0.029  12.824   7.250  0.3960 -1.0549 -0.2316
  653MOL0     C88058  -0.156  12.921   7.258 -0.7358  0.3848 -0.1808
  653MOL0     C88059  -0.113  13.049   7.333  1.0758 -0.5019 -0.1589
  653MOL0     C88060  -0.094  13.024   7.483  0.8219  0.2798 -0.2138
  653MOL0     C88061  -0.107  13.169   7.546 -0.0313 -0.2359 -0.0474
  653MOL0     C88062  -0.105  13.163   7.700 -0.4566  0.2565 -0.1888
  653MOL0     C88063   0.033  13.122   7.777  0.2342  0.2183 -0.3834
  653MOL0    Cl88064   0.046  13.172   7.953 -0.0048  0.2540  0.0318
  653MOL0     C88065  -0.334  12.471   7.169  0.0289  0.2643 -0.0981
  653MOL0     C88066  -0.381  12.353   7.121 -0.2398  0.7769  0.9110
  653MOL0     O88067  -0.331  12.219   6.731 -0.3246  0.2226 -0.1994
  653MOL0     C88068  -0.504  11.932   6.875 -0.2810 -0.0448  0.5704
  653MOL0     C88069  -0.550  11.803   6.837  0.0536 -1.2179  0.8238
  653MOL0     N88070  -0.365  11.094   6.463  0.8052  0.0021 -0.5508
  653MOL0     N88071  -0.283  11.008   6.505 -0.0312 -0.1899 -0.5590
  653MOL0     C88072   0.122  10.535   7.736  0.4930  0.5780 -0.1083
  653MOL0     C88073   0.210  10.506   7.842  0.0682 -0.9509  1.0311
  653MOL0     C88074   0.601  10.366   8.050 -0.2225 -0.1556  0.4339
  653MOL0     C88075   0.624  10.492   8.074  0.8152  0.4823  0.3167
  653MOL0     C88076   0.701  10.539   8.183  0.9152 -0.2154  0.7224
  653MOL0     C88077   0.772  10.453   8.266  0.4767  0.4982 -0.3557
  653MOL0     O88078   0.849  10.505   8.371  0.1044 -0.4396  0.7954
  653MOL0     C88079   0.902  10.414   8.473  0.1204 -0.8886  1.1177
  653MOL0     C88080   0.920  10.468   8.613  0.4732  0.8967  0.5870
  653MOL0     C88081   1.016  10.584   8.615 -0.9848 -0.7979 -0.5661
  653MOL0     C88082   1.038  10.634   8.758 -0.1694  0.1162 -0.1872
  653MOL0     C88083   1.106  10.534   8.843 -0.0216 -0.3645 -0.0119
  653MOL0     C88084   1.149  10.444   8.910 -0.3397 -0.1525  0.5940
  653MOL0     C88085   0.745  10.315   8.242 -0.2467 -0.2137  0.5369
  653MOL0     C88086   0.656  10.269   8.138 -0.4983 -1.3171 -0.3624
  653MOL0     C88087   0.629  10.120   8.144 -0.7808  0.1753  0.9352
  653MOL0     H88088   0.397  10.276   7.679 -1.7999 -3.0318  3.1424
  653MOL0     H88089   0.248  10.351   7.493 -0.5976  1.3888 -0.7267
  653MOL0     H88090  -0.110  10.610   7.569  2.2066  0.0928  1.9631
  653MOL0     H88091   0.032  10.703   7.520 -1.8474  0.8038  1.3783
  653MOL0     H88092  -0.144  10.721   7.352  1.1835  0.3414  0.8677
  653MOL0     H88093  -0.154  10.550   7.325 -1.0488  0.3377 -0.7966
  653MOL0     H88094   0.077  10.546   7.235  2.4152  0.6970  3.2745
  653MOL0     H88095   0.075  10.726   7.249  2.4354 -2.1301 -1.7058
  653MOL0     H88096   0.026  10.628   7.033 -0.1438  0.9796 -0.0956
  653MOL0     H88097  -0.117  10.557   7.097  1.2565 -1.1144  3.1521
  653MOL0     H88098  -0.218  10.790   7.102  0.2253  0.5163 -0.3603
  653MOL0     H88099  -0.047  10.848   7.077  0.9353 -2.2329  3.6585
  653MOL0     H88100  -0.028  10.734   6.857  2.6360  2.7273  4.1760
  653MOL0     H88101  -0.191  10.655   6.894 -0.5535 -0.2541  0.9785
  653MOL0     H88102  -0.166  10.949   6.872 -0.9718  0.0765  2.0570
  653MOL0     H88103  -0.320  10.858   6.887  0.6274  0.3656  0.5842
  653MOL0     H88104  -0.135  10.847   6.653 -0.6184 -1.3668  0.2730
  653MOL0     H88105  -0.286  10.763   6.674 -0.5213  0.1706  2.7078
  653MOL0     H88106  -0.478  11.019   6.761 -0.0097 -3.7153 -1.2111
  653MOL0     H88107  -0.594  11.240   6.445  0.3638  0.0534 -1.0987
  653MOL0     H88108  -0.674  11.133   6.559 -0.0067  0.3946 -2.8955
  653MOL0     H88109  -0.601  11.296   6.730  1.6041 -1.7934 -0.1737
  653MOL0     H88110  -0.483  11.363   6.606  0.6695 -3.4110 -2.7477
  653MOL0     H88111  -0.784  11.378   6.604 -1.0879  2.8077 -0.2756
  653MOL0     H88112  -0.688  11.443   6.482 -2.5733  1.8944  0.4996
  653MOL0     H88113  -0.731  11.581   6.746 -3.6415  0.5846 -1.8799
  653MOL0     H88114  -0.727  11.635   6.577 -1.4533  0.9278  1.0808
  653MOL0     H88115  -0.427  11.804   6.523 -2.4193  2.4519 -1.5552
  653MOL0     H88116  -0.352  12.001   6.578  1.5246 -4.1413 -1.6103
  653MOL0     H88117  -0.172  12.349   6.846  0.9275  2.0078 -0.2432
  653MOL0     H88118  -0.093  12.546   6.956  0.1859  0.4708 -0.4297
  653MOL0     H88119   0.023  12.645   7.134 -3.1969 -2.9499 -1.2993
  653MOL0     H88120  -0.093  12.760   7.060 -0.4895 -1.6590 -1.8461
  653MOL0     H88121  -0.018  12.783   7.351 -2.9499 -1.9599 -0.1298
  653MOL0     H88122   0.061  12.883   7.228 -2.6039  3.0848 -2.9803
  653MOL0     H88123  -0.190  12.929   7.155  2.4426 -0.6066 -1.4466
  653MOL0     H88124  -0.241  12.882   7.315  0.1106  1.9267  2.2878
  653MOL0     H88125  -0.178  13.135   7.318  3.1500  2.7833  6.0326
  653MOL0     H88126  -0.024  13.083   7.279  1.2274 -1.6680 -0.6919
  653MOL0     H88127  -0.001  12.970   7.503 -1.7113 -5.9431 -2.7250
  653MOL0     H88128  -0.170  12.959   7.526  1.1225  0.0963  0.0494
  653MOL0     H88129  -0.020  13.226   7.510  1.2597 -2.1034 -0.0418
  653MOL0     H88130  -0.206  13.204   7.515 -0.6616 -2.5806 -0.8725
  653MOL0     H88131  -0.185  13.096   7.735  0.1484  0.4233  1.6161
  653MOL0     H88132  -0.147  13.256   7.740 -1.6309 -0.3902  0.1665
  653MOL0     H88133   0.051  13.016   7.758  2.2382  0.6881 -1.3475
  653MOL0     H88134   0.116  13.173   7.726 -0.8556 -0.7787 -3.3324
  653MOL0     H88135  -0.382  12.510   7.259  0.6785 -2.0655  1.3454
  653MOL0     H88136  -0.464  12.303   7.169  0.1419  0.8522  1.6703
  653MOL0     H88137  -0.540  11.965   6.972 -0.3866 -2.6264  1.4782
  653MOL0     H88138  -0.589  11.739   6.916  1.5757 -2.1632  0.8602
  653MOL0     H88139   0.039  10.600   7.763  0.6279 -0.9006  4.8805
  653MOL0     H88140   0.213  10.547   7.942  2.6381 -1.5452  1.2513
  653MOL0     H88141   0.567  10.571   8.026  1.5883  3.2641  3.5832
  653MOL0     H88142   0.714  10.646   8.202 -0.2861  0.1733 -0.5002
  653MOL0     H88143   0.994  10.371   8.432  1.3425  1.8376  0.8135
  653MOL0     H88144   0.828  10.334   8.483 -1.2531 -0.1475 -1.7830
  653MOL0     H88145   0.957  10.383   8.672  1.1949  0.9662  0.2364
  653MOL0     H88146   0.819  10.492   8.647  0.3372 -1.0155  1.6954
  653MOL0     H88147   0.966  10.662   8.557  1.4991  1.5344  0.2098
  653MOL0     H88148   1.114  10.557   8.576 -0.9091 -0.9844 -0.2487
  653MOL0     H88149   1.083  10.733   8.748 -2.3257  1.2621  0.8345
  653MOL0     H88150   0.938  10.649   8.798 -1.0104 -0.2708 -2.0311
  653MOL0     H88151   1.180  10.362   8.970  2.1832  0.9995  0.9809
  653MOL0     H88152   0.789  10.240   8.306  1.3799 -0.4620 -0.7935
  653MOL0     H88153   0.523  10.092   8.153 -0.7855 -0.9921 -1.7696
  653MOL0     H88154   0.658  10.076   8.048  1.0232 -1.7852  2.2923
  653MOL0     H88155   0.689  10.081   8.227  0.8511  0.5192 -0.0338
  654MOL0     O88156   8.381  11.343   7.712  0.0536  0.2903  0.4098
  654MOL0     C88157   8.378  11.222   7.729 -0.0104  0.8757  0.1504
  654MOL0     O88158   8.479  11.136   7.704 -0.2555  0.4256  0.2661
  654MOL0     C88159   8.591  11.174   7.633  0.2820  0.1846  0.5114
  654MOL0     C88160   8.616  11.282   7.549  0.2945 -0.2989  0.1315
  654MOL0     C88161   8.741  11.290   7.484  0.6525 -0.6340  0.0077
  654MOL0     C88162   8.836  11.184   7.487  0.7272 -0.1270 -0.2656
  654MOL0     O88163   8.944  11.171   7.408  0.3229 -0.0212  0.2717
  654MOL0     C88164   8.999  11.282   7.337  0.2687 -0.9658  0.0027
  654MOL0     C88165   9.135  11.255   7.262 -0.1435  0.5030 -0.6438
  654MOL0     C88166   9.118  11.146   7.167 -0.2567 -1.0978 -0.8111
  654MOL0     C88167   9.260  11.106   7.126  0.1834 -0.5283 -0.1997
  654MOL0     C88168   9.254  11.020   6.998  0.5575  0.6870 -0.3721
  654MOL0     C88169   9.380  10.970   6.926  1.0142  0.2905  0.2310
  654MOL0     C88170   9.473  11.084   6.881  0.3200  0.1510  0.3252
  654MOL0     C88171   9.411  11.203   6.808  0.9079  1.0501 -0.4037
  654MOL0     N88172   9.347  11.169   6.683  0.8336 -0.5503  0.3271
  654MOL0     C88173   9.371  11.066   6.601  0.2840  0.0893  0.3393
  654MOL0     C88174   9.286  11.064   6.499  0.4889 -0.1007 -0.3686
  654MOL0     C88175   9.278  10.960   6.389 -0.5097 -0.4836 -0.1895
  654MOL0     C88176   9.219  11.007   6.258  0.2709 -0.2419 -0.5926
  654MOL0     C88177   9.280  10.942   6.141 -0.6533  0.3853  0.6234
  654MOL0     C88178   9.198  10.968   6.010 -0.3165 -0.9010  0.8673
  654MOL0     O88179   9.193  11.110   5.962  0.0424  0.4471 -0.0584
  654MOL0     C88180   9.315  11.157   5.925 -0.1694  0.3143  0.2858
  654MOL0     C88181   9.394  11.239   6.011 -0.1104 -0.1881 -0.0056
  654MOL0     C88182   9.521  11.296   5.981 -0.7577  0.3842  0.8041
  654MOL0     C88183   9.576  11.259   5.858 -0.0751  0.9432 -0.6768
  654MOL0     C88184   9.715  11.320   5.806  0.5836  0.4585  0.4653
  654MOL0     O88185   9.777  11.401   5.892  0.1727  0.7681  0.2715
  654MOL0     C88186   9.894  11.444   5.852 -0.0241 -1.1421  0.4702
  654MOL0     C88187   9.901  11.550   5.757  0.8511  0.4434 -0.0967
  654MOL0     C88188  10.029  11.595   5.717  0.1867  0.9796 -0.1339
  654MOL0     C88189  10.144  11.571   5.789 -0.2965  0.9350  0.5619
  654MOL0     O88190  10.271  11.615   5.754  0.4118 -0.0560  0.6552
  654MOL0     C88191  10.297  11.588   5.614 -0.2411  0.0921  0.8352
  654MOL0     C88192  10.420  11.668   5.580 -0.2963  0.2422  0.0729
  654MOL0     C88193  10.491  11.654   5.437  0.0857 -0.0619 -0.0675
  654MOL0     C88194  10.626  11.729   5.435 -0.1604 -0.3731 -0.1388
  654MOL0     C88195  10.753  11.694   5.516 -0.4044  0.2490 -0.5596
  654MOL0     C88196  10.828  11.570   5.475  0.4922 -0.9176  0.5234
  654MOL0     C88197  10.771  11.439   5.538  0.6083 -0.6596 -0.4330
  654MOL0     C88198  10.772  11.314   5.449 -0.5122 -0.5474 -0.0945
  654MOL0    Cl88199  10.930  11.301   5.363  0.2494  0.2276  0.6043
  654MOL0     C88200  10.135  11.470   5.890 -0.1356 -0.1218  0.9015
  654MOL0     C88201  10.014  11.400   5.912 -0.6342  0.1466 -0.0041
  654MOL0     O88202   9.751  11.294   5.691 -0.1957  0.2832 -0.3740
  654MOL0     C88203   9.495  11.180   5.761  0.5235  0.4282 -1.0041
  654MOL0     C88204   9.363  11.126   5.792  0.5788  0.7989  0.4131
  654MOL0     N88205   9.204  11.176   6.520  0.2938  0.9959 -0.6125
  654MOL0     N88206   9.249  11.234   6.627  0.0433  0.9551  0.3530
  654MOL0     C88207   8.810  11.079   7.578  0.3006 -0.1688  0.6409
  654MOL0     C88208   8.693  11.077   7.649  0.3425 -0.1024  0.4627
  654MOL0     C88209   8.266  11.168   7.813 -0.2129  0.2251  0.3613
  654MOL0     C88210   8.145  11.228   7.787 -0.3966 -0.3650  0.0455
  654MOL0     C88211   8.025  11.186   7.838 -0.3733 -0.6681 -1.0685
  654MOL0     C88212   8.024  11.080   7.925  0.4990 -0.1293 -0.1580
  654MOL0     O88213   7.917  11.050   8.003  0.0621  0.2116 -0.1425
  654MOL0     C88214   7.808  10.999   7.926  0.6326 -0.6327 -0.1863
  654MOL0     C88215   7.770  10.869   7.976  0.0378  0.3273 -0.6813
  654MOL0     C88216   7.705  10.882   8.112  0.0720  0.2110 -0.0242
  654MOL0     C88217   7.700  10.756   8.195 -0.0017  0.4570 -0.5798
  654MOL0     C88218   7.601  10.666   8.129 -0.6751 -0.1444  0.3099
  654MOL0     C88219   7.514  10.595   8.086 -1.2533  1.0997  0.0073
  654MOL0     C88220   8.139  11.021   7.965 -0.3015  1.3287 -0.1747
  654MOL0     C88221   8.262  11.056   7.898 -0.2186  0.9984 -1.3072
  654MOL0     C88222   8.390  10.987   7.943  0.5460 -0.3164  0.0843
  654MOL0     H88223   8.544  11.362   7.531 -0.7873 -1.4870 -1.0938
  654MOL0     H88224   8.762  11.369   7.413 -0.6334 -0.2863 -0.0226
  654MOL0     H88225   8.923  11.294   7.259  2.1428 -1.7511 -2.0575
  654MOL0     H88226   9.006  11.366   7.406  1.2322 -2.4259  1.7464
  654MOL0     H88227   9.212  11.240   7.338  0.1977 -0.7044 -1.1985
  654MOL0     H88228   9.154  11.347   7.206  0.4988  2.5517  2.6434
  654MOL0     H88229   9.066  11.189   7.081 -1.6119 -1.2108 -0.0812
  654MOL0     H88230   9.048  11.069   7.202 -0.8908  0.1131  0.7084
  654MOL0     H88231   9.312  11.200   7.105  3.5769 -2.0755  0.6102
  654MOL0     H88232   9.312  11.056   7.209 -0.3541 -1.9264 -0.6928
  654MOL0     H88233   9.203  10.928   7.027 -1.7585  2.6477  2.2399
  654MOL0     H88234   9.194  11.080   6.929  1.3382  0.6815 -1.0714
  654MOL0     H88235   9.438  10.905   6.992 -1.5579 -2.5802 -0.1033
  654MOL0     H88236   9.354  10.902   6.844 -1.0105  2.1200 -0.7506
  654MOL0     H88237   9.537  11.033   6.809 -0.1971 -2.3877  1.5707
  654MOL0     H88238   9.542  11.120   6.958 -1.0992  0.6718  1.3921
  654MOL0     H88239   9.331  11.238   6.874 -0.8381  1.2568 -2.5105
  654MOL0     H88240   9.482  11.286   6.798  0.3279  1.6553  0.3388
  654MOL0     H88241   9.452  10.995   6.611 -0.4111 -0.5742  1.3988
  654MOL0     H88242   9.376  10.918   6.363  0.4105 -0.7454  3.2475
  654MOL0     H88243   9.213  10.878   6.422  0.8660 -1.8421 -0.7284
  654MOL0     H88244   9.115  10.973   6.259  0.9086 -2.6178 -3.2400
  654MOL0     H88245   9.232  11.116   6.253 -0.2391 -0.0587  1.2759
  654MOL0     H88246   9.288  10.834   6.156 -2.5953  0.0127 -0.7299
  654MOL0     H88247   9.377  10.992   6.126 -1.3117  2.2455  2.1475
  654MOL0     H88248   9.097  10.929   6.027  0.1810 -2.8564 -0.2717
  654MOL0     H88249   9.240  10.901   5.934 -0.6347  1.0392 -1.1163
  654MOL0     H88250   9.348  11.251   6.109 -2.5433  0.6815 -1.1807
  654MOL0     H88251   9.580  11.350   6.055  1.8946  0.9970 -1.5669
  654MOL0     H88252   9.812  11.591   5.711  1.5059 -0.2058 -2.0258
  654MOL0     H88253  10.037  11.660   5.631 -0.8941  3.2606  1.3839
  654MOL0     H88254  10.315  11.484   5.585  0.9038  0.5863 -0.3456
  654MOL0     H88255  10.213  11.616   5.550 -2.0818 -4.1395  1.0676
  654MOL0     H88256  10.387  11.772   5.580 -4.1267 -0.6885 -3.4918
  654MOL0     H88257  10.488  11.663   5.665  1.2994  3.1970 -0.8953
  654MOL0     H88258  10.497  11.553   5.397  0.0799  0.4396 -1.3801
  654MOL0     H88259  10.421  11.702   5.368 -5.3671 -2.6647  2.9551
  654MOL0     H88260  10.597  11.833   5.455  0.7615  0.3756 -2.3808
  654MOL0     H88261  10.661  11.731   5.331  1.3089 -4.2677  0.1267
  654MOL0     H88262  10.741  11.685   5.624  1.8843 -2.3759 -0.4066
  654MOL0     H88263  10.831  11.768   5.494  0.5652 -0.9925 -1.4616
  654MOL0     H88264  10.846  11.555   5.368 -1.0400 -2.3361  0.4137
  654MOL0     H88265  10.926  11.584   5.520  0.3902  0.4878  0.3522
  654MOL0     H88266  10.675  11.467   5.583 -0.2356  0.8430 -2.9405
  654MOL0     H88267  10.829  11.406   5.625 -0.8790 -0.6793  0.6053
  654MOL0     H88268  10.746  11.225   5.507 -5.0010  2.2418  2.8999
  654MOL0     H88269  10.705  11.338   5.366  1.9023  0.7978 -1.7947
  654MOL0     H88270  10.219  11.429   5.945 -0.8177  0.6843  2.6155
  654MOL0     H88271  10.015  11.307   5.970 -0.1046 -1.1703 -2.0289
  654MOL0     H88272   9.560  11.161   5.676 -0.4886 -2.3313 -1.2639
  654MOL0     H88273   9.298  11.069   5.727  0.1579  2.3972 -0.6190
  654MOL0     H88274   8.874  10.992   7.587  0.4858  0.2078  4.1082
  654MOL0     H88275   8.673  10.987   7.705  3.4526 -0.8057  0.6455
  654MOL0     H88276   8.149  11.303   7.708 -0.6473 -2.5651 -2.1964
  654MOL0     H88277   7.945  11.259   7.826 -0.7797 -0.8093  0.5173
  654MOL0     H88278   7.830  10.999   7.818 -0.0619 -1.3809 -0.3381
  654MOL0     H88279   7.728  11.074   7.930  1.5153  0.3608 -0.5078
  654MOL0     H88280   7.847  10.792   7.990 -1.0735 -0.7858 -0.4202
  654MOL0     H88281   7.703  10.818   7.905 -0.8454  1.7183 -0.8827
  654MOL0     H88282   7.606  10.928   8.102  0.8079  2.3944  1.8877
  654MOL0     H88283   7.760  10.949   8.178  0.1100  2.2303 -1.9696
  654MOL0     H88284   7.804  10.722   8.198  0.5069  1.8642 -1.2016
  654MOL0     H88285   7.672  10.781   8.298 -0.4630 -0.0068 -0.5873
  654MOL0     H88286   7.427  10.536   8.064 -0.6943  0.3822 -0.3514
  654MOL0     H88287   8.152  10.949   8.045  0.6380 -0.3827 -1.8036
  654MOL0     H88288   8.451  11.069   7.983  0.0121 -0.8033  1.9885
  654MOL0     H88289   8.357  10.924   8.027  3.2522 -0.4260  1.1475
  654MOL0     H88290   8.429  10.933   7.857  2.5877  0.5207  0.4425
  655MOL0     O88291   4.697   5.868   3.313  0.5830  0.3619 -0.4839
  655MOL0     C88292   4.784   5.889   3.230 -0.1325 -0.9411  0.0230
  655MOL0     O88293   4.833   5.792   3.158 -0.2437 -0.2422 -0.6130
  655MOL0     C88294   4.791   5.662   3.191  0.0167  0.5495  0.5667
  655MOL0     C88295   4.812   5.598   3.317  0.4112 -0.3425  0.7416
  655MOL0     C88296   4.750   5.472   3.341  0.4184 -0.3101 -0.6694
  655MOL0     C88297   4.659   5.405   3.248 -0.8061 -0.5396 -0.5563
  655MOL0     O88298   4.616   5.277   3.274 -0.5195 -0.4335 -0.1093
  655MOL0     C88299   4.479   5.261   3.227  0.1887 -0.9760  0.1011
  655MOL0     C88300   4.424   5.150   3.295  0.3030 -0.0708 -0.2548
  655MOL0     C88301   4.416   5.169   3.446  0.3711  0.4792 -0.5400
  655MOL0     C88302   4.332   5.045   3.497  0.3780 -0.5899  0.0083
  655MOL0     C88303   4.299   5.067   3.645 -0.8194  0.2368 -0.2181
  655MOL0     C88304   4.423   5.029   3.729  0.4832  0.2348  0.1028
  655MOL0     C88305   4.399   5.002   3.875  0.5302  0.2447 -0.0319
  655MOL0     C88306   4.342   5.120   3.952 -0.0871 -0.0679  0.3580
  655MOL0     N88307   4.429   5.237   3.975 -0.2069 -0.8600 -0.2281
  655MOL0     C88308   4.443   5.335   3.882  0.2488 -0.2689  0.2161
  655MOL0     C88309   4.536   5.424   3.938 -0.1857 -1.1147 -0.1864
  655MOL0     C88310   4.578   5.558   3.865  0.2067 -0.0599  0.0664
  655MOL0     C88311   4.470   5.669   3.884 -0.1215 -0.1138  0.4771
  655MOL0     C88312   4.514   5.792   3.802  0.1272 -0.3200  0.4872
  655MOL0     C88313   4.429   5.910   3.839  0.7145  0.0910 -0.9876
  655MOL0     O88314   4.462   5.955   3.973 -0.4397 -0.1117  0.6986
  655MOL0     C88315   4.548   6.062   3.995 -0.2800 -0.4500 -0.3059
  655MOL0     C88316   4.568   6.165   3.902 -0.0356 -0.2269 -0.2116
  655MOL0     C88317   4.669   6.263   3.925  0.9290  0.7843  0.1319
  655MOL0     C88318   4.755   6.263   4.033  0.3354  0.8158 -0.6492
  655MOL0     C88319   4.872   6.355   4.048  0.0241  0.2239 -0.1010
  655MOL0     O88320   4.849   6.481   3.996  0.0288 -0.4539 -0.0144
  655MOL0     C88321   4.958   6.569   4.000 -0.3866  1.0693 -0.7568
  655MOL0     C88322   5.058   6.560   3.913 -0.3006  0.4248  0.3271
  655MOL0     C88323   5.178   6.632   3.928 -0.1422  0.7008  0.3093
  655MOL0     C88324   5.175   6.746   4.013  0.1596  0.0996  0.0064
  655MOL0     O88325   5.286   6.819   4.019 -0.4559 -0.3953  0.1008
  655MOL0     C88326   5.289   6.963   4.030 -0.3192  0.4594 -0.1213
  655MOL0     C88327   5.386   7.013   3.917  0.7289 -0.9481  0.0238
  655MOL0     C88328   5.531   6.992   3.959 -0.3849  0.0779  0.1548
  655MOL0     C88329   5.624   7.000   3.835  0.7780  0.2968 -1.0624
  655MOL0     C88330   5.767   7.008   3.895  0.6547  0.2403 -0.1622
  655MOL0     C88331   5.872   7.056   3.792 -0.3574  0.8378  0.2991
  655MOL0     C88332   5.999   7.106   3.867  0.4116  0.3724 -0.2572
  655MOL0     C88333   6.127   7.110   3.782  0.2077 -0.3512  0.1183
  655MOL0    Cl88334   6.264   7.172   3.876 -0.5644  0.0357 -0.2549
  655MOL0     C88335   5.060   6.770   4.083  0.5623 -0.5238  0.1423
  655MOL0     C88336   4.956   6.674   4.088  0.0515  0.2715 -0.4538
  655MOL0     O88337   4.962   6.326   4.123 -0.0377 -1.2086  0.7417
  655MOL0     C88338   4.728   6.158   4.131 -0.0156 -0.3229 -0.1030
  655MOL0     C88339   4.622   6.063   4.115  1.1746  0.5740  0.2062
  655MOL0     N88340   4.574   5.376   4.058  0.6735 -0.0511 -0.9935
  655MOL0     N88341   4.506   5.264   4.082 -0.2463 -0.2748 -0.1613
  655MOL0     C88342   4.647   5.479   3.127 -0.0592  0.2564 -0.7477
  655MOL0     C88343   4.705   5.599   3.095 -0.8583  0.0820 -0.0748
  655MOL0     C88344   4.834   6.037   3.198  0.4477  0.1777 -0.1380
  655MOL0     C88345   4.895   6.056   3.078 -0.3849  0.4765 -0.4946
  655MOL0     C88346   4.941   6.192   3.042  0.0339 -0.1378 -0.0598
  655MOL0     C88347   4.917   6.302   3.122  0.1089  0.3982  0.3868
  655MOL0     O88348   4.958   6.425   3.086  0.3270 -0.1063 -0.3495
  655MOL0     C88349   5.025   6.444   2.957 -0.1733  0.0658 -0.3231
  655MOL0     C88350   5.100   6.578   2.972 -0.7383  0.0161  0.2559
  655MOL0     C88351   5.148   6.616   2.832 -0.7966 -0.5493 -0.1274
  655MOL0     C88352   5.227   6.744   2.826  1.0449  0.3461  0.9401
  655MOL0     C88353   5.356   6.738   2.898 -0.0558  0.3254  1.1575
  655MOL0     C88354   5.460   6.733   2.950 -0.1527 -0.3376 -0.3414
  655MOL0     C88355   4.853   6.277   3.245  0.4642  0.6683  0.1992
  655MOL0     C88356   4.823   6.153   3.285 -0.0540  1.1814  1.1170
  655MOL0     C88357   4.784   6.136   3.434 -0.0544  0.6059  0.4333
  655MOL0     H88358   4.866   5.661   3.386 -1.3812  2.5164 -0.3182
  655MOL0     H88359   4.770   5.443   3.444 -4.0591  2.7242  1.3693
  655MOL0     H88360   4.421   5.352   3.249  0.2836 -1.0440  0.6537
  655MOL0     H88361   4.475   5.239   3.120  0.9490 -5.2376  0.7851
  655MOL0     H88362   4.488   5.065   3.267 -0.3200 -1.2918  1.7822
  655MOL0     H88363   4.321   5.152   3.260  0.1076  2.7369  0.2580
  655MOL0     H88364   4.367   5.266   3.460 -0.0545  0.0713  1.0341
  655MOL0     H88365   4.511   5.183   3.498 -1.0937  0.1120  2.4957
  655MOL0     H88366   4.239   5.038   3.440  1.5907 -1.5024 -1.9769
  655MOL0     H88367   4.389   4.951   3.489  0.0792 -0.9260  1.4714
  655MOL0     H88368   4.265   5.168   3.668 -1.0172 -0.2204  1.7158
  655MOL0     H88369   4.217   5.007   3.688 -2.7947  1.8149 -1.6138
  655MOL0     H88370   4.460   4.943   3.674 -0.2892  0.8836 -1.4925
  655MOL0     H88371   4.494   5.111   3.713 -2.1242  2.7829  0.6826
  655MOL0     H88372   4.490   4.964   3.924 -0.2158  1.1137  2.1257
  655MOL0     H88373   4.322   4.925   3.885 -0.8053  1.5439 -0.1312
  655MOL0     H88374   4.251   5.147   3.897 -1.5453 -0.3367  2.5036
  655MOL0     H88375   4.304   5.083   4.047 -0.2269  0.1593  0.3911
  655MOL0     H88376   4.384   5.357   3.794 -0.1949  0.9015  0.7864
  655MOL0     H88377   4.670   5.600   3.907  0.1576  1.5543 -1.3351
  655MOL0     H88378   4.606   5.539   3.761 -1.1865  2.0298 -0.7608
  655MOL0     H88379   4.370   5.633   3.857 -0.3311  0.5069  0.4041
  655MOL0     H88380   4.464   5.691   3.991  2.2302  0.8856  0.4641
  655MOL0     H88381   4.493   5.782   3.695  0.8664  0.3246  0.2732
  655MOL0     H88382   4.622   5.809   3.804  0.2940 -1.1842 -0.2358
  655MOL0     H88383   4.322   5.886   3.838  0.3847  1.3811  0.1867
  655MOL0     H88384   4.446   5.992   3.767  2.0949 -0.6666 -1.5551
  655MOL0     H88385   4.512   6.188   3.812  1.1409  1.5718 -0.5555
  655MOL0     H88386   4.674   6.347   3.856 -1.5629  0.3923 -0.6366
  655MOL0     H88387   5.063   6.482   3.838  3.3992 -0.3615  1.1584
  655MOL0     H88388   5.262   6.624   3.859  0.2823  1.5424  0.7098
  655MOL0     H88389   5.190   7.008   4.017 -0.8205 -0.3509  0.6997
  655MOL0     H88390   5.313   7.003   4.129  0.0607 -0.5496  0.2055
  655MOL0     H88391   5.372   6.953   3.827  3.8917 -0.0272 -1.2056
  655MOL0     H88392   5.358   7.116   3.894 -1.1078 -1.5969 -0.7701
  655MOL0     H88393   5.550   7.073   4.029 -3.2256  2.8116 -1.9729
  655MOL0     H88394   5.540   6.894   4.007 -0.3611 -0.6411 -1.2680
  655MOL0     H88395   5.599   7.090   3.778  0.5507  2.8737  2.7084
  655MOL0     H88396   5.621   6.904   3.784  0.6581 -2.5592  3.7537
  655MOL0     H88397   5.793   6.909   3.934  0.2369  0.1175 -0.1961
  655MOL0     H88398   5.772   7.077   3.980  3.0669 -1.7652  1.5048
  655MOL0     H88399   5.906   6.980   3.721  3.8108  2.9629 -0.3373
  655MOL0     H88400   5.819   7.129   3.731  0.0815 -0.6424 -2.0035
  655MOL0     H88401   6.020   7.041   3.953 -2.1183 -0.8853 -0.5071
  655MOL0     H88402   5.967   7.203   3.905  2.7135  0.8479  0.6504
  655MOL0     H88403   6.158   7.010   3.751 -0.1201 -1.0543  1.9210
  655MOL0     H88404   6.108   7.167   3.690  3.1746 -1.2594 -1.1756
  655MOL0     H88405   5.067   6.855   4.150  2.1649 -0.2519 -0.3210
  655MOL0     H88406   4.866   6.681   4.149 -0.1277  0.8258 -0.7693
  655MOL0     H88407   4.802   6.153   4.210 -1.3407 -0.8212  1.1411
  655MOL0     H88408   4.620   5.978   4.182  1.0388  1.1413  0.9387
  655MOL0     H88409   4.582   5.441   3.048 -2.1123  0.0138  0.9633
  655MOL0     H88410   4.692   5.629   2.991 -2.2103 -2.1786 -0.6277
  655MOL0     H88411   4.908   5.967   3.017  3.0396  0.3036  0.2595
  655MOL0     H88412   4.994   6.186   2.947 -1.0536 -0.6079 -0.6561
  655MOL0     H88413   4.954   6.446   2.874 -0.2519  2.0695 -0.2532
  655MOL0     H88414   5.100   6.367   2.937  1.1289  1.0923  0.4769
  655MOL0     H88415   5.174   6.581   3.052 -0.5489  1.0875  0.0485
  655MOL0     H88416   5.029   6.658   2.996  0.5501  1.3560 -0.2687
  655MOL0     H88417   5.058   6.630   2.771 -1.2341 -2.4987 -0.0096
  655MOL0     H88418   5.204   6.533   2.787 -1.3554 -0.8852 -0.2038
  655MOL0     H88419   5.231   6.768   2.720 -3.3740 -1.1141  0.2305
  655MOL0     H88420   5.163   6.820   2.872 -3.1537 -2.9150  1.0869
  655MOL0     H88421   5.549   6.730   3.009 -0.1886  2.3309 -0.0308
  655MOL0     H88422   4.831   6.351   3.321 -0.9290 -1.0983  1.6150
  655MOL0     H88423   4.840   6.055   3.482 -0.4031 -1.7534 -2.8135
  655MOL0     H88424   4.789   6.233   3.483  1.6141  0.5097  0.4917
  655MOL0     H88425   4.681   6.098   3.438  0.5348 -1.4276 -1.5212
  656MOL0     O88426   6.209   5.931   6.925  0.0358 -0.5379 -0.5366
  656MOL0     C88427   6.251   5.841   6.854  1.2000 -0.6220 -0.5091
  656MOL0     O88428   6.175   5.744   6.816  0.4154 -0.0902  0.0168
  656MOL0     C88429   6.056   5.709   6.871 -0.0456  0.5409 -0.1416
  656MOL0     C88430   5.960   5.676   6.783  1.0849  0.3565 -0.0047
  656MOL0     C88431   5.843   5.616   6.821  0.5978  0.4998  0.3177
  656MOL0     C88432   5.809   5.594   6.956  0.9279 -0.3366 -0.3692
  656MOL0     O88433   5.690   5.552   7.004 -0.5939  0.2067  0.0786
  656MOL0     C88434   5.614   5.457   6.933  0.1047 -0.2133  0.4132
  656MOL0     C88435   5.487   5.415   7.008 -0.1384 -0.3094  0.0555
  656MOL0     C88436   5.508   5.359   7.145 -0.4001 -0.5686  1.2028
  656MOL0     C88437   5.383   5.308   7.203  0.2375  0.7557  0.2442
  656MOL0     C88438   5.329   5.176   7.137 -0.2567  0.8079 -0.3899
  656MOL0     C88439   5.242   5.097   7.225  0.3280 -0.4045 -0.3509
  656MOL0     C88440   5.178   4.962   7.165 -0.0864  0.3206 -0.4489
  656MOL0     C88441   5.080   4.972   7.045  0.0145  0.3385  0.6638
  656MOL0     N88442   4.976   4.864   7.051  0.9393  0.5230 -0.1697
  656MOL0     C88443   5.003   4.725   7.044  0.7117 -1.2036  0.2291
  656MOL0     C88444   4.889   4.660   7.052  0.3027  0.5181  0.1786
  656MOL0     C88445   4.879   4.517   7.045  0.2410  0.4986  0.0549
  656MOL0     C88446   5.017   4.443   7.071 -1.0241 -0.3567 -0.0535
  656MOL0     C88447   4.992   4.287   7.090 -0.3836 -0.0286  0.2564
  656MOL0     C88448   5.113   4.216   7.153  0.1812 -0.2614  0.1493
  656MOL0     O88449   5.222   4.198   7.070 -0.0678  0.0930 -1.2813
  656MOL0     C88450   5.337   4.138   7.123  0.0423  0.1768 -0.0142
  656MOL0     C88451   5.343   4.088   7.257 -0.5992 -0.1164  0.1527
  656MOL0     C88452   5.458   4.030   7.311 -0.1576 -0.7444 -0.2209
  656MOL0     C88453   5.575   4.025   7.233 -0.1482  0.5768  0.0789
  656MOL0     C88454   5.709   3.985   7.293  0.6810  0.3150  0.6790
  656MOL0     O88455   5.705   3.931   7.421 -0.1758 -0.0813 -0.6758
  656MOL0     C88456   5.800   3.841   7.473  0.0515 -0.1194 -0.7306
  656MOL0     C88457   5.898   3.775   7.403 -0.0962  0.4211 -0.1987
  656MOL0     C88458   5.992   3.683   7.455 -0.2668 -1.0353  0.4133
  656MOL0     C88459   5.988   3.666   7.593 -0.4168 -0.3268  0.8204
  656MOL0     O88460   6.075   3.580   7.654 -0.4081 -0.3148  0.2002
  656MOL0     C88461   6.206   3.625   7.645 -0.1743  0.2388 -0.0579
  656MOL0     C88462   6.287   3.523   7.727 -0.8231 -0.5887 -1.0222
  656MOL0     C88463   6.277   3.382   7.666  0.5607  1.1374 -0.6132
  656MOL0     C88464   6.274   3.356   7.514 -0.7799  0.8897  0.5066
  656MOL0     C88465   6.269   3.211   7.489 -0.7456  0.1876  0.0747
  656MOL0     C88466   6.249   3.158   7.342 -0.4527  0.1052  0.4637
  656MOL0     C88467   6.155   3.041   7.351 -0.1292  0.0747 -0.1062
  656MOL0     C88468   6.084   3.035   7.207  0.6505  0.5130 -0.6003
  656MOL0    Cl88469   6.186   2.961   7.085  0.0442 -0.3064  0.3091
  656MOL0     C88470   5.886   3.726   7.659  1.3799 -0.8782 -0.2753
  656MOL0     C88471   5.789   3.812   7.605  0.0008 -0.0517 -1.0740
  656MOL0     O88472   5.802   4.001   7.221 -0.1737 -0.4144  1.0943
  656MOL0     C88473   5.574   4.071   7.097  0.6069  0.2653 -1.0852
  656MOL0     C88474   5.459   4.139   7.055  0.1149  0.0627 -0.3272
  656MOL0     N88475   4.785   4.751   7.040  0.2542 -0.2488 -0.0522
  656MOL0     N88476   4.834   4.881   7.050 -1.1941  0.6503  0.7041
  656MOL0     C88477   5.906   5.633   7.046 -0.2216 -0.3656  0.5672
  656MOL0     C88478   6.029   5.685   7.006 -0.0998  0.5251  0.4172
  656MOL0     C88479   6.389   5.824   6.805  0.4283  0.8243  0.6725
  656MOL0     C88480   6.414   5.758   6.685 -0.3468  0.5082 -1.1159
  656MOL0     C88481   6.532   5.719   6.638 -0.9074 -0.2486  0.2670
  656MOL0     C88482   6.645   5.754   6.717 -0.8014 -0.4495 -0.5919
  656MOL0     O88483   6.766   5.714   6.659  0.4884 -0.8035  0.1109
  656MOL0     C88484   6.880   5.787   6.700  1.0116  0.3972 -0.0325
  656MOL0     C88485   6.984   5.759   6.597  0.4402 -0.7057  0.5712
  656MOL0     C88486   7.041   5.610   6.606 -0.3860  0.2972 -0.2821
  656MOL0     C88487   7.157   5.579   6.498  1.2863 -0.9287 -0.3684
  656MOL0     C88488   7.175   5.436   6.480 -0.1190 -0.6705 -0.7239
  656MOL0     C88489   7.179   5.314   6.475 -0.0613 -0.9522  0.6013
  656MOL0     C88490   6.634   5.825   6.835  0.1908 -0.3871  0.5964
  656MOL0     C88491   6.506   5.864   6.876 -0.5800 -0.1109 -0.7610
  656MOL0     C88492   6.484   5.946   7.010 -0.9190  0.5178 -0.3614
  656MOL0     H88493   5.979   5.700   6.679  1.5420 -0.4907 -0.1265
  656MOL0     H88494   5.770   5.590   6.745 -0.4902 -0.3342  1.6075
  656MOL0     H88495   5.587   5.512   6.842  0.5052  3.4438  2.3353
  656MOL0     H88496   5.672   5.370   6.901  1.0873  0.7600 -0.5142
  656MOL0     H88497   5.441   5.340   6.944 -0.7476  2.3285 -2.8447
  656MOL0     H88498   5.414   5.496   7.016  1.0170  1.8724 -5.9187
  656MOL0     H88499   5.560   5.425   7.215  2.1916 -1.4722  0.2626
  656MOL0     H88500   5.577   5.274   7.138 -0.3476 -0.7143  3.1443
  656MOL0     H88501   5.411   5.296   7.308  1.2622  2.8809  0.2533
  656MOL0     H88502   5.300   5.378   7.190 -1.1167 -0.1457  3.0302
  656MOL0     H88503   5.283   5.185   7.038  0.7124 -0.2382 -0.9609
  656MOL0     H88504   5.414   5.110   7.117  0.2642  1.1719  0.5904
  656MOL0     H88505   5.302   5.063   7.310 -1.5706 -3.0064  0.1000
  656MOL0     H88506   5.161   5.158   7.266  0.8933  2.0813 -2.6578
  656MOL0     H88507   5.121   4.911   7.244 -2.4589  0.6743 -1.8157
  656MOL0     H88508   5.263   4.901   7.137 -0.6632 -1.4250  1.3374
  656MOL0     H88509   5.027   5.068   7.044  0.7780  0.7961  1.9640
  656MOL0     H88510   5.127   4.960   6.947 -1.1030 -0.0056  0.1505
  656MOL0     H88511   5.101   4.679   7.040  2.1719  1.7700 -2.1405
  656MOL0     H88512   4.799   4.478   7.109 -0.3228 -0.1629 -1.0264
  656MOL0     H88513   4.849   4.481   6.946  0.4564  0.1881  0.0999
  656MOL0     H88514   5.078   4.466   6.983  2.0669  1.0588  2.2693
  656MOL0     H88515   5.055   4.480   7.166 -3.8249  0.7105  0.7482
  656MOL0     H88516   4.993   4.234   6.995  0.7659 -3.3891  1.9693
  656MOL0     H88517   4.900   4.271   7.148  0.1793  0.9046  1.4745
  656MOL0     H88518   5.066   4.125   7.191 -1.1965 -0.0617 -1.0223
  656MOL0     H88519   5.147   4.282   7.234 -0.5468  0.1192  0.1521
  656MOL0     H88520   5.263   4.103   7.329  0.4443  1.5594  1.0391
  656MOL0     H88521   5.453   3.996   7.413 -1.7994  0.4469  0.1425
  656MOL0     H88522   5.911   3.791   7.297 -1.1999  2.3685 -0.0928
  656MOL0     H88523   6.054   3.622   7.389  1.8737 -2.9376  3.8869
  656MOL0     H88524   6.248   3.621   7.544 -1.1016  0.6554 -0.4662
  656MOL0     H88525   6.220   3.719   7.699 -1.3509 -0.3750  1.3837
  656MOL0     H88526   6.393   3.549   7.737 -0.8448 -0.8341 -0.0657
  656MOL0     H88527   6.249   3.533   7.829  1.3305  0.0767 -0.2364
  656MOL0     H88528   6.358   3.336   7.725 -1.2930 -0.1290  1.0613
  656MOL0     H88529   6.187   3.340   7.711 -0.0218  3.7523  0.8790
  656MOL0     H88530   6.370   3.394   7.476  0.2638  1.7272  3.6470
  656MOL0     H88531   6.193   3.399   7.455 -1.6460 -1.1787  0.1173
  656MOL0     H88532   6.198   3.167   7.559  0.3251 -0.3931  0.8258
  656MOL0     H88533   6.365   3.171   7.523 -0.5814  0.8646  0.4187
  656MOL0     H88534   6.210   3.230   7.270  0.4324 -0.0008 -0.1333
  656MOL0     H88535   6.342   3.121   7.299 -1.2893 -2.4725  0.6957
  656MOL0     H88536   6.082   3.053   7.431 -0.0584  0.2707 -0.0701
  656MOL0     H88537   6.218   2.954   7.369  0.9145  0.3610 -2.1289
  656MOL0     H88538   5.994   2.974   7.191  0.5245  1.2040 -2.7972
  656MOL0     H88539   6.038   3.132   7.189 -1.4583 -0.3199 -0.0598
  656MOL0     H88540   5.884   3.700   7.765  1.5241 -7.8997 -1.5216
  656MOL0     H88541   5.723   3.865   7.673  0.3186  1.2442 -1.7494
  656MOL0     H88542   5.657   4.044   7.032  2.0852  1.5372  0.1957
  656MOL0     H88543   5.454   4.179   6.954  2.8534  0.7799 -0.2533
  656MOL0     H88544   5.886   5.624   7.152 -2.5920 -0.9060  0.1226
  656MOL0     H88545   6.105   5.701   7.082  0.1983  1.6874 -0.1021
  656MOL0     H88546   6.336   5.708   6.628  1.0172 -2.1854 -0.7801
  656MOL0     H88547   6.546   5.661   6.547 -0.8739 -0.1248  0.1928
  656MOL0     H88548   6.912   5.749   6.798  0.1123  3.9338  1.8059
  656MOL0     H88549   6.862   5.894   6.709  2.3624  0.7735 -1.4158
  656MOL0     H88550   7.058   5.839   6.608 -1.4991  1.2256  0.1616
  656MOL0     H88551   6.937   5.762   6.499  0.7890 -3.2504  0.2596
  656MOL0     H88552   6.954   5.545   6.596 -0.9070  0.8496  0.5303
  656MOL0     H88553   7.095   5.591   6.699  1.7009 -1.4492 -1.7408
  656MOL0     H88554   7.138   5.622   6.400  1.0935  0.5559  0.2993
  656MOL0     H88555   7.256   5.617   6.526  2.6582 -2.8119 -2.3150
  656MOL0     H88556   7.186   5.207   6.479  4.1210 -0.8351  0.3173
  656MOL0     H88557   6.719   5.860   6.892  1.4285  0.0902 -1.4185
  656MOL0     H88558   6.440   6.043   6.985 -3.3618 -0.4410 -0.0502
  656MOL0     H88559   6.415   5.883   7.067 -1.0610 -1.8116 -2.9288
  656MOL0     H88560   6.574   5.959   7.071 -1.3867  0.7166  0.2960
  657MOL0     O88561   2.828   8.553   5.388 -0.5609 -0.2768  0.7073
  657MOL0     C88562   2.716   8.535   5.445 -0.3576  0.1197  0.2903
  657MOL0     O88563   2.621   8.635   5.446 -0.2492 -0.1036 -0.0199
  657MOL0     C88564   2.651   8.749   5.385  0.0776 -0.5373  0.2531
  657MOL0     C88565   2.704   8.844   5.466 -0.6086  0.1963  0.2338
  657MOL0     C88566   2.754   8.964   5.416 -0.1952  1.6255  0.4801
  657MOL0     C88567   2.763   8.988   5.278 -0.3524 -0.2240  0.1448
  657MOL0     O88568   2.810   9.107   5.222  0.4438  0.6474 -0.4445
  657MOL0     C88569   2.917   9.182   5.275 -0.0002 -0.1513 -0.8898
  657MOL0     C88570   3.028   9.194   5.186 -0.0947  0.0774  0.2888
  657MOL0     C88571   3.118   9.074   5.176  0.1915 -0.5857  1.1052
  657MOL0     C88572   3.243   9.113   5.108 -0.2723 -0.5519 -0.0885
  657MOL0     C88573   3.347   9.001   5.076 -0.3615  0.2538 -0.1896
  657MOL0     C88574   3.382   8.928   5.203 -0.5372  1.1084 -0.9252
  657MOL0     C88575   3.494   8.820   5.189 -0.7049  0.8201  0.1384
  657MOL0     C88576   3.529   8.766   5.331  0.9186 -0.8220  0.1740
  657MOL0     N88577   3.667   8.790   5.382 -0.2608 -0.2987  0.6037
  657MOL0     C88578   3.700   8.899   5.451 -0.2446 -0.2151 -1.0252
  657MOL0     C88579   3.836   8.896   5.466 -0.1993  0.0232 -0.3172
  657MOL0     C88580   3.915   9.001   5.538  0.0237 -0.3399  0.2712
  657MOL0     C88581   3.945   9.128   5.457 -0.1949  0.3596  0.9415
  657MOL0     C88582   4.033   9.117   5.332  0.5373 -0.4569  0.3194
  657MOL0     C88583   4.061   9.240   5.254 -0.0682 -0.2813  0.1432
  657MOL0     O88584   4.169   9.221   5.164  1.0964  0.5565  0.0166
  657MOL0     C88585   4.196   9.316   5.072  0.3091  0.5470  0.1795
  657MOL0     C88586   4.131   9.441   5.076  0.1738 -0.6766  0.5248
  657MOL0     C88587   4.174   9.535   4.974 -0.0023 -0.6184 -0.4472
  657MOL0     C88588   4.267   9.500   4.874 -0.0686 -0.3260  0.5483
  657MOL0     C88589   4.305   9.600   4.775  0.9157 -0.8072 -0.1739
  657MOL0     O88590   4.241   9.716   4.789  0.3622  0.3759 -0.1510
  657MOL0     C88591   4.274   9.822   4.707 -0.8286 -0.3282 -0.0550
  657MOL0     C88592   4.163   9.899   4.674 -0.6838 -0.6868 -0.0782
  657MOL0     C88593   4.182  10.009   4.587  1.2343  0.8315  0.1532
  657MOL0     C88594   4.291  10.032   4.514  0.0076  0.0300  0.7592
  657MOL0     O88595   4.292  10.118   4.403  0.8992 -0.2721  0.2936
  657MOL0     C88596   4.411  10.188   4.382  0.4083  0.3555  0.5743
  657MOL0     C88597   4.404  10.310   4.292  1.1200 -0.6712 -0.2995
  657MOL0     C88598   4.325  10.426   4.342 -0.2314 -0.0099  0.0657
  657MOL0     C88599   4.340  10.551   4.255 -0.4716  0.5536  0.2248
  657MOL0     C88600   4.457  10.637   4.308  0.2809  1.0942  0.8934
  657MOL0     C88601   4.503  10.751   4.220 -0.0126 -0.3272 -1.3486
  657MOL0     C88602   4.389  10.862   4.199  0.1057 -0.0766  0.1831
  657MOL0     C88603   4.449  11.006   4.177  0.2543 -0.5994  0.7268
  657MOL0    Cl88604   4.538  11.015   4.021 -0.1612  0.5126 -0.6673
  657MOL0     C88605   4.403   9.960   4.552 -0.0714 -0.3918  0.1811
  657MOL0     C88606   4.400   9.860   4.657  0.3453 -0.2204  0.2321
  657MOL0     O88607   4.398   9.583   4.696  1.1426  0.3018  0.0672
  657MOL0     C88608   4.318   9.381   4.870 -0.6500  0.1221  0.5819
  657MOL0     C88609   4.286   9.286   4.972  0.5937  0.7245 -0.1200
  657MOL0     N88610   3.889   8.784   5.396 -0.7392  0.3658 -0.3928
  657MOL0     N88611   3.782   8.729   5.342  0.5330  0.2623 -0.5688
  657MOL0     C88612   2.705   8.885   5.193  0.4318 -0.2150 -1.3588
  657MOL0     C88613   2.654   8.766   5.246 -0.1551 -0.2264 -1.0883
  657MOL0     C88614   2.692   8.420   5.529  0.8759  0.9289 -0.0715
  657MOL0     C88615   2.574   8.348   5.498 -0.2192  0.3304 -0.2115
  657MOL0     C88616   2.536   8.246   5.587  0.2973 -0.0959  0.2279
  657MOL0     C88617   2.617   8.202   5.696 -0.8238  0.4185  0.5224
  657MOL0     O88618   2.561   8.110   5.770 -0.2983 -0.1875  0.5443
  657MOL0     C88619   2.612   8.087   5.906 -0.8244 -0.3202  0.1752
  657MOL0     C88620   2.514   8.007   5.984  0.1445  1.1025  0.4893
  657MOL0     C88621   2.506   7.867   5.926  0.1750  0.8620 -0.3462
  657MOL0     C88622   2.427   7.753   6.006  0.0827 -0.5587 -0.0599
  657MOL0     C88623   2.458   7.742   6.155  0.1733 -0.6806  0.1076
  657MOL0     C88624   2.486   7.718   6.272  0.1012  0.4397  0.1148
  657MOL0     C88625   2.734   8.276   5.725  0.7945  0.5722 -0.4927
  657MOL0     C88626   2.775   8.385   5.641 -0.0313 -0.1095  0.0179
  657MOL0     C88627   2.901   8.448   5.687 -0.4421  0.3781 -0.3158
  657MOL0     H88628   2.712   8.821   5.572 -3.3242  0.1440  0.4768
  657MOL0     H88629   2.804   9.028   5.489  1.1039  2.7240 -1.2830
  657MOL0     H88630   2.884   9.284   5.301  1.1772  0.4206 -1.5729
  657MOL0     H88631   2.933   9.142   5.375 -2.4199 -0.9373 -0.7409
  657MOL0     H88632   3.091   9.267   5.238  1.1797 -0.8835  0.1470
  657MOL0     H88633   3.001   9.229   5.086 -2.0980 -1.0326  0.3949
  657MOL0     H88634   3.057   9.007   5.114 -2.0729  0.9331  1.5415
  657MOL0     H88635   3.141   9.031   5.274 -0.8661 -2.7217  0.4813
  657MOL0     H88636   3.205   9.161   5.017 -1.1762 -1.0006  0.0396
  657MOL0     H88637   3.291   9.188   5.172 -3.5378  0.8605  0.9432
  657MOL0     H88638   3.306   8.926   5.008 -0.1816  0.4771 -0.5467
  657MOL0     H88639   3.438   9.033   5.025 -0.5951 -0.9840 -1.4368
  657MOL0     H88640   3.417   8.999   5.277  1.3849  0.2610 -0.9656
  657MOL0     H88641   3.291   8.879   5.241  0.3625  1.0775  1.3213
  657MOL0     H88642   3.588   8.847   5.140  0.7591 -2.0820  1.1065
  657MOL0     H88643   3.460   8.734   5.131 -0.5500 -1.6513  3.4255
  657MOL0     H88644   3.454   8.798   5.403  3.0508  1.4949  1.5191
  657MOL0     H88645   3.520   8.658   5.312 -1.6232 -0.3118 -2.1918
  657MOL0     H88646   3.637   8.977   5.493  0.9266 -0.9597  2.4618
  657MOL0     H88647   3.869   9.028   5.633 -0.0048 -1.9566  0.7429
  657MOL0     H88648   4.019   8.975   5.561  0.8727  0.6238 -2.2027
  657MOL0     H88649   3.854   9.183   5.430  0.2528  0.6360 -0.0338
  657MOL0     H88650   3.994   9.206   5.516 -0.8517  1.1963  0.4084
  657MOL0     H88651   4.002   9.030   5.274 -0.4652  0.8863 -1.2705
  657MOL0     H88652   4.129   9.096   5.381 -0.1718 -2.2543  0.9963
  657MOL0     H88653   4.087   9.319   5.325 -2.1757  2.9148 -2.3420
  657MOL0     H88654   3.966   9.262   5.205 -1.8419 -5.4602  0.6094
  657MOL0     H88655   4.060   9.465   5.154  0.3034 -0.9722  0.7339
  657MOL0     H88656   4.120   9.629   4.976  4.1897  2.0365  0.6070
  657MOL0     H88657   4.069   9.878   4.725 -1.6693  1.5768 -0.8560
  657MOL0     H88658   4.095  10.074   4.583  1.4200  1.0189 -1.1607
  657MOL0     H88659   4.452  10.212   4.480  2.3758 -0.2452 -0.0594
  657MOL0     H88660   4.483  10.124   4.331  0.9114  2.2350 -1.2134
  657MOL0     H88661   4.505  10.350   4.290 -0.3413  3.6847  1.5432
  657MOL0     H88662   4.375  10.273   4.193 -1.0818 -1.1745  0.4771
  657MOL0     H88663   4.219  10.406   4.328 -0.5096  1.0529  0.5475
  657MOL0     H88664   4.351  10.443   4.446  4.3231 -3.2669 -0.2238
  657MOL0     H88665   4.251  10.612   4.272 -1.6752 -1.1724  0.4648
  657MOL0     H88666   4.342  10.520   4.150 -0.3292 -1.7336  0.8494
  657MOL0     H88667   4.550  10.580   4.317  0.1061  0.9352  1.8009
  657MOL0     H88668   4.427  10.666   4.409 -0.8806 -0.5599  1.0722
  657MOL0     H88669   4.589  10.800   4.266  1.1133 -0.5682 -3.1386
  657MOL0     H88670   4.544  10.710   4.127 -4.0832 -1.3038 -2.9536
  657MOL0     H88671   4.312  10.870   4.277  0.4244  2.1967  0.3321
  657MOL0     H88672   4.327  10.824   4.118 -1.3313 -1.4580  1.8310
  657MOL0     H88673   4.371  11.083   4.178  3.4774  2.9422  0.5387
  657MOL0     H88674   4.513  11.045   4.256  1.7667 -1.8350  0.1686
  657MOL0     H88675   4.502   9.962   4.508  0.8061 -1.8479  1.9396
  657MOL0     H88676   4.491   9.802   4.668  0.2854 -0.1983  0.8689
  657MOL0     H88677   4.392   9.355   4.795  0.1334  1.7253  0.7622
  657MOL0     H88678   4.332   9.188   4.965  0.2948  0.5160  0.7537
  657MOL0     H88679   2.705   8.898   5.085  3.0025  0.6413 -1.3252
  657MOL0     H88680   2.631   8.688   5.174 -1.0764  0.7267 -1.8586
  657MOL0     H88681   2.515   8.372   5.410  0.6009 -1.3463 -1.2686
  657MOL0     H88682   2.440   8.205   5.558  0.3427 -0.4659  0.5954
  657MOL0     H88683   2.631   8.179   5.963  0.8244  0.0774 -0.9504
  657MOL0     H88684   2.711   8.042   5.894 -0.3775  1.0887 -2.0234
  657MOL0     H88685   2.414   8.053   5.985 -0.0414  0.7221 -0.2049
  657MOL0     H88686   2.544   7.998   6.089  0.7005 -2.7609  0.1405
  657MOL0     H88687   2.608   7.829   5.911  2.1762  4.9017  1.3000
  657MOL0     H88688   2.473   7.880   5.823  0.9350 -0.9447 -0.8617
  657MOL0     H88689   2.322   7.782   6.004  0.2111  0.1027  1.4037
  657MOL0     H88690   2.450   7.656   5.959  1.6435 -2.7245  4.5819
  657MOL0     H88691   2.505   7.687   6.373 -1.5965 -2.8825 -0.4425
  657MOL0     H88692   2.787   8.244   5.814  0.4655 -2.2089 -1.2107
  657MOL0     H88693   2.986   8.439   5.619  0.9945  1.7840  1.2139
  657MOL0     H88694   2.881   8.553   5.706  2.1969  0.6450  1.4072
  657MOL0     H88695   2.935   8.405   5.782 -3.7861 -3.0000 -0.3913
  658MOL0     O88696   0.314   4.585   2.826  0.0049 -0.4648  0.0468
  658MOL0     C88697   0.386   4.665   2.892  0.0588 -0.2398 -0.3614
  658MOL0     O88698   0.358   4.790   2.946 -0.2886  0.4782  0.1640
  658MOL0     C88699   0.237   4.837   2.906 -0.6977 -0.4926  0.1092
  658MOL0     C88700   0.199   4.860   2.772  0.1602 -1.0089 -0.3353
  658MOL0     C88701   0.074   4.915   2.733 -0.0505 -0.9932 -0.2730
  658MOL0     C88702  -0.023   4.926   2.828  0.0654  0.2335 -0.5597
  658MOL0     O88703  -0.145   4.963   2.792 -0.3262 -0.3405 -0.0989
  658MOL0     C88704  -0.206   5.074   2.866  0.5669  0.5664  0.9363
  658MOL0     C88705  -0.292   5.169   2.787 -0.4268  0.2996 -0.3214
  658MOL0     C88706  -0.206   5.247   2.690  0.0065 -0.9790 -0.1236
  658MOL0     C88707  -0.141   5.381   2.741 -0.6519  0.3108 -0.4324
  658MOL0     C88708  -0.066   5.450   2.637  0.0689  0.1747  1.5615
  658MOL0     C88709   0.038   5.373   2.556  0.3202 -0.3864  0.2547
  658MOL0     C88710   0.149   5.301   2.636 -0.5300 -0.2643 -0.5492
  658MOL0     C88711   0.262   5.235   2.547 -0.2939 -1.0657 -0.0518
  658MOL0     N88712   0.387   5.198   2.620  0.4617  0.0407  1.3577
  658MOL0     C88713   0.429   5.072   2.642  0.9210 -1.0898  0.3027
  658MOL0     C88714   0.536   5.090   2.718 -0.5471  0.9893 -0.1908
  658MOL0     C88715   0.618   4.980   2.778  0.3018 -0.0647 -0.2113
  658MOL0     C88716   0.763   5.006   2.728  0.4254 -0.3605  0.5550
  658MOL0     C88717   0.853   4.968   2.848  0.8018  0.5412 -0.0824
  658MOL0     C88718   1.005   4.958   2.819  0.4513  0.2281 -1.1245
  658MOL0     O88719   1.070   5.007   2.928  0.0132 -0.0469  0.4438
  658MOL0     C88720   1.056   4.936   3.050  0.0553 -0.1993 -0.1157
  658MOL0     C88721   1.030   5.015   3.169 -0.1235  0.2974 -0.7661
  658MOL0     C88722   0.999   4.947   3.291 -0.7418 -0.2851 -0.2670
  658MOL0     C88723   0.997   4.808   3.301 -0.5156 -0.1235  0.5137
  658MOL0     C88724   0.965   4.742   3.435 -1.2844  0.6773  0.3104
  658MOL0     O88725   0.988   4.610   3.435  0.1514  0.2601  0.5350
  658MOL0     C88726   1.007   4.534   3.545 -0.6623  0.5499 -0.3377
  658MOL0     C88727   1.049   4.397   3.520  0.3506  0.0123  0.0059
  658MOL0     C88728   1.052   4.303   3.630 -0.3355  0.0149  0.7292
  658MOL0     C88729   1.020   4.340   3.755  0.1878  0.1425 -0.2619
  658MOL0     O88730   1.024   4.250   3.855 -0.7186  0.2860  0.2763
  658MOL0     C88731   0.936   4.136   3.838  0.4804  0.3958 -0.1618
  658MOL0     C88732   0.797   4.191   3.879  0.6245  0.1465  0.4980
  658MOL0     C88733   0.702   4.073   3.885 -0.1331  0.2974 -0.9557
  658MOL0     C88734   0.554   4.112   3.939 -0.0484 -0.3305  0.3686
  658MOL0     C88735   0.447   4.005   3.924  0.1248 -0.8694  0.1283
  658MOL0     C88736   0.323   4.028   4.006  0.4510 -0.6374 -0.6616
  658MOL0     C88737   0.235   3.902   4.003 -0.3995 -0.2624 -0.3556
  658MOL0     C88738   0.093   3.925   4.060  0.0823 -1.0849 -0.3226
  658MOL0    Cl88739  -0.013   3.791   4.037  0.3146  0.1207  0.4343
  658MOL0     C88740   0.988   4.480   3.779  0.0166 -0.5241 -0.1641
  658MOL0     C88741   0.979   4.573   3.677  1.2204  0.0448  0.3564
  658MOL0     O88742   0.936   4.817   3.529 -0.1439 -0.2628  0.1752
  658MOL0     C88743   1.019   4.738   3.182  0.7855  0.7864 -0.1983
  658MOL0     C88744   1.057   4.793   3.060  0.5528 -1.3981 -0.6942
  658MOL0     N88745   0.561   5.217   2.752 -0.0642 -0.1303 -0.1535
  658MOL0     N88746   0.467   5.278   2.686 -0.0694  0.0297 -0.1219
  658MOL0     C88747   0.009   4.906   2.963 -0.4692 -0.5902 -0.3657
  658MOL0     C88748   0.130   4.854   2.998 -0.7369  0.1228 -0.1535
  658MOL0     C88749   0.521   4.624   2.930  0.2820 -0.1838 -0.6383
  658MOL0     C88750   0.593   4.538   2.841  0.2459  0.5678 -0.2847
  658MOL0     C88751   0.715   4.482   2.868 -0.3486  0.0581  0.4075
  658MOL0     C88752   0.784   4.520   2.984  0.4306  0.4830  0.0559
  658MOL0     O88753   0.911   4.472   3.014  1.2888  0.4035  0.4316
  658MOL0     C88754   0.977   4.376   2.936 -0.3985 -0.6123 -0.3495
  658MOL0     C88755   1.119   4.357   2.980  0.0196 -0.5309  0.5390
  658MOL0     C88756   1.171   4.236   2.901  0.4658 -0.3815  0.1120
  658MOL0     C88757   1.323   4.236   2.882  0.2491  0.4771 -0.3217
  658MOL0     C88758   1.349   4.298   2.749  0.2480 -0.6598  0.0573
  658MOL0     C88759   1.387   4.354   2.649  0.4564 -0.5515 -0.1319
  658MOL0     C88760   0.712   4.600   3.077  0.0150  1.1612  1.4091
  658MOL0     C88761   0.579   4.654   3.060  0.2721  1.1666 -0.1799
  658MOL0     C88762   0.505   4.714   3.174  0.3519  0.5289 -0.4557
  658MOL0     H88763   0.266   4.833   2.691  1.3668 -0.3956  0.4376
  658MOL0     H88764   0.035   4.934   2.633 -0.2558  4.5965  0.6086
  658MOL0     H88765  -0.268   5.015   2.933  0.6928 -0.8082 -0.0973
  658MOL0     H88766  -0.127   5.127   2.919  0.0384 -0.8098  3.2228
  658MOL0     H88767  -0.351   5.238   2.848  0.9282  2.1754 -1.0074
  658MOL0     H88768  -0.369   5.104   2.745  0.1580  1.1610 -2.9204
  658MOL0     H88769  -0.261   5.273   2.599 -2.9264 -0.5576  1.6176
  658MOL0     H88770  -0.117   5.193   2.658  2.0650  2.2992 -0.3516
  658MOL0     H88771  -0.217   5.450   2.780 -1.0839 -1.0123  1.1900
  658MOL0     H88772  -0.075   5.351   2.822 -2.8513 -0.0394  1.3230
  658MOL0     H88773  -0.135   5.491   2.563  0.2326 -1.5551  0.3692
  658MOL0     H88774  -0.011   5.529   2.689  1.1160  0.0427  0.6834
  658MOL0     H88775  -0.010   5.301   2.489  0.0001  0.2931 -0.2584
  658MOL0     H88776   0.085   5.448   2.492 -0.8141 -0.2933 -0.5014
  658MOL0     H88777   0.108   5.216   2.692 -2.3362  1.7978  1.5100
  658MOL0     H88778   0.195   5.377   2.701  0.6900 -1.5007  0.0895
  658MOL0     H88779   0.222   5.151   2.489 -1.8770  1.2408 -2.5540
  658MOL0     H88780   0.278   5.312   2.470 -1.5352  0.4543  1.1380
  658MOL0     H88781   0.382   4.989   2.591 -0.3316  0.5431 -1.3208
  658MOL0     H88782   0.614   4.967   2.886  0.2262 -4.4522 -0.5624
  658MOL0     H88783   0.577   4.884   2.746  1.2110  0.1433 -2.1226
  658MOL0     H88784   0.784   4.945   2.639 -0.9452 -1.5910  1.0308
  658MOL0     H88785   0.789   5.108   2.697 -1.6520 -0.0008 -0.1723
  658MOL0     H88786   0.818   4.869   2.880 -0.6242  1.4451  1.3121
  658MOL0     H88787   0.843   5.042   2.928  1.1765 -2.0857  2.6360
  658MOL0     H88788   1.020   5.022   2.731  0.8387 -0.5390 -1.6295
  658MOL0     H88789   1.031   4.852   2.809  2.3029  0.3241  1.6231
  658MOL0     H88790   1.031   5.123   3.168 -0.9486  0.3197 -2.1244
  658MOL0     H88791   0.981   5.011   3.377  0.4496  0.5659 -0.6253
  658MOL0     H88792   1.093   4.375   3.423  1.2629  0.3585  0.3336
  658MOL0     H88793   1.072   4.199   3.605  0.3375  0.5560 -1.1481
  658MOL0     H88794   0.932   4.097   3.736 -2.5346 -1.7503  0.6193
  658MOL0     H88795   0.961   4.053   3.905 -1.0139 -1.6421 -1.9780
  658MOL0     H88796   0.794   4.244   3.975  1.3438  0.5353  0.3103
  658MOL0     H88797   0.760   4.268   3.811 -1.5376  1.1779  2.6814
  658MOL0     H88798   0.679   4.037   3.784 -1.6492  0.1669 -0.5931
  658MOL0     H88799   0.741   3.992   3.946 -0.5544 -0.5835 -1.8243
  658MOL0     H88800   0.527   4.207   3.890 -0.8102  1.6261  4.2032
  658MOL0     H88801   0.558   4.134   4.046  1.7553 -1.1938  0.5218
  658MOL0     H88802   0.488   3.908   3.952  0.0009 -0.5580  1.4363
  658MOL0     H88803   0.416   3.997   3.819  0.9387 -3.1811  0.0201
  658MOL0     H88804   0.345   4.061   4.109 -0.4810 -0.6114 -0.4613
  658MOL0     H88805   0.264   4.102   3.952  0.9023 -1.1312 -1.8557
  658MOL0     H88806   0.281   3.826   4.067 -0.6752 -1.7119 -1.7937
  658MOL0     H88807   0.229   3.857   3.903 -0.9393 -1.4392  0.1801
  658MOL0     H88808   0.097   3.954   4.165  2.2662  0.2805 -0.7154
  658MOL0     H88809   0.050   4.016   4.017 -1.3596 -1.8174 -0.4666
  658MOL0     H88810   0.973   4.509   3.883 -0.3531  1.6258 -0.7803
  658MOL0     H88811   0.935   4.669   3.701  0.5085  0.2744 -1.6715
  658MOL0     H88812   1.021   4.629   3.182  0.3082  0.7771 -0.1942
  658MOL0     H88813   1.062   4.725   2.976 -1.0883 -0.5029 -1.5741
  658MOL0     H88814  -0.060   4.920   3.045  2.3001  1.8366  1.7888
  658MOL0     H88815   0.147   4.827   3.102 -0.8788 -0.0627 -0.1780
  658MOL0     H88816   0.556   4.526   2.740 -0.8458 -3.4672  0.4201
  658MOL0     H88817   0.762   4.415   2.796  3.5335  0.1275  2.5708
  658MOL0     H88818   0.975   4.429   2.840 -1.1102 -1.5368 -0.8767
  658MOL0     H88819   0.928   4.278   2.928  1.1193 -1.4987  0.7524
  658MOL0     H88820   1.118   4.319   3.083 -4.3901  0.6272  1.1156
  658MOL0     H88821   1.175   4.450   2.963  2.3536 -1.7799  0.9693
  658MOL0     H88822   1.120   4.224   2.805 -0.5246  2.2403  0.2319
  658MOL0     H88823   1.151   4.152   2.967  1.0904 -0.6337 -0.0074
  658MOL0     H88824   1.375   4.289   2.962  0.7403 -3.5009  2.2242
  658MOL0     H88825   1.359   4.133   2.881  1.0208  0.6917  1.5958
  658MOL0     H88826   1.425   4.397   2.559 -0.6278 -1.0218 -0.8387
  658MOL0     H88827   0.765   4.608   3.171  2.9888  1.0769 -0.1596
  658MOL0     H88828   0.549   4.699   3.273 -1.2647 -0.1920  0.1948
  658MOL0     H88829   0.513   4.822   3.159  1.3572  0.5574  0.1935
  658MOL0     H88830   0.399   4.687   3.185 -0.0560  1.0981 -2.6476
  659MOL0     O88831   3.470   8.305  10.277  0.2304  0.6036 -0.3135
  659MOL0     C88832   3.369   8.354  10.224  0.0356 -0.2958  0.9997
  659MOL0     O88833   3.250   8.387  10.277  0.2895  0.1107  0.1538
  659MOL0     C88834   3.200   8.327  10.390 -0.2829 -0.5612  0.7125
  659MOL0     C88835   3.076   8.257  10.385  0.1999 -0.0865  0.0510
  659MOL0     C88836   3.029   8.186  10.499  1.0359 -0.7009  0.6343
  659MOL0     C88837   3.096   8.186  10.618  0.1094 -0.3700 -0.6858
  659MOL0     O88838   3.061   8.110  10.719 -0.2537 -0.6402 -0.3944
  659MOL0     C88839   2.945   8.159  10.787 -0.6002  0.2597  0.5098
  659MOL0     C88840   2.985   8.204  10.922  0.9449 -0.2057  0.3041
  659MOL0     C88841   2.994   8.092  11.024  0.3479  0.3397  0.5689
  659MOL0     C88842   3.075   8.143  11.143  0.0359 -0.3793  0.5389
  659MOL0     C88843   3.116   8.036  11.243  0.0939  0.3312 -0.3807
  659MOL0     C88844   2.992   7.974  11.312 -0.3639 -0.0965 -1.0534
  659MOL0     C88845   3.036   7.866  11.417  0.4387  0.7077  0.5013
  659MOL0     C88846   3.093   7.914  11.562 -0.5040  0.0094  0.3637
  659MOL0     N88847   3.002   8.012  11.634  0.2926  0.3695 -0.2031
  659MOL0     C88848   3.013   8.153  11.638  0.5290  0.5534 -0.8333
  659MOL0     C88849   2.930   8.185  11.739 -0.5599 -0.0834 -0.0435
  659MOL0     C88850   2.916   8.330  11.796 -0.7032 -0.1064  0.1292
  659MOL0     C88851   3.055   8.395  11.837  0.4546  1.0123 -0.5899
  659MOL0     C88852   3.066   8.543  11.813  0.1117 -0.1451 -0.9142
  659MOL0     C88853   3.088   8.574  11.661 -0.3570  0.1119  0.3478
  659MOL0     O88854   3.179   8.477  11.594  0.2926 -0.5618  0.3986
  659MOL0     C88855   3.183   8.487  11.454 -0.3464 -0.1124 -0.0365
  659MOL0     C88856   3.275   8.402  11.400 -0.9369 -0.4309 -1.0777
  659MOL0     C88857   3.315   8.411  11.272 -0.1270  0.1043  0.7328
  659MOL0     C88858   3.258   8.511  11.181  0.2981  0.3230  0.2578
  659MOL0     C88859   3.290   8.518  11.035 -0.0649 -0.7927  0.7821
  659MOL0     O88860   3.237   8.626  10.976 -0.4990 -0.4726  0.0680
  659MOL0     C88861   3.268   8.658  10.845  1.0865  0.4823 -0.2060
  659MOL0     C88862   3.395   8.714  10.831 -0.4950 -0.3676 -0.1337
  659MOL0     C88863   3.445   8.738  10.703  1.3172 -0.2695 -0.4429
  659MOL0     C88864   3.364   8.733  10.587  0.5879  0.8616 -0.3879
  659MOL0     O88865   3.411   8.780  10.467 -0.4973  0.6214 -0.0041
  659MOL0     C88866   3.376   8.714  10.338 -0.6970 -0.8172 -0.2894
  659MOL0     C88867   3.454   8.791  10.224 -0.2437  0.1794 -0.7763
  659MOL0     C88868   3.413   8.769  10.070 -0.2916 -0.1500 -0.8257
  659MOL0     C88869   3.272   8.817  10.030  0.6413 -0.4254  0.8156
  659MOL0     C88870   3.264   8.829   9.875  1.0265 -0.0123 -0.2216
  659MOL0     C88871   3.138   8.886   9.809 -0.2988 -0.4768 -0.4530
  659MOL0     C88872   3.153   8.928   9.667 -0.7455  0.2766 -0.3068
  659MOL0     C88873   3.129   8.804   9.571 -0.8631 -0.0924  0.3247
  659MOL0    Cl88874   2.998   8.696   9.629  0.2550  0.2230  0.3829
  659MOL0     C88875   3.230   8.674  10.611 -0.6088  1.0321  0.1576
  659MOL0     C88876   3.189   8.630  10.736  0.1984 -0.4569  0.2900
  659MOL0     O88877   3.370   8.439  10.983  0.0515  0.2629 -0.1888
  659MOL0     C88878   3.152   8.593  11.234 -1.0042 -0.2847  0.1601
  659MOL0     C88879   3.115   8.581  11.371 -0.0476  0.0848  0.0568
  659MOL0     N88880   2.866   8.075  11.789 -0.6446 -0.0458  0.3239
  659MOL0     N88881   2.916   7.967  11.731  0.2772  0.1418  0.0673
  659MOL0     C88882   3.225   8.247  10.624  0.9880 -0.0824  0.1779
  659MOL0     C88883   3.276   8.306  10.505  0.6538  0.1583 -0.1716
  659MOL0     C88884   3.389   8.374  10.080  0.1855 -0.2288  1.4093
  659MOL0     C88885   3.514   8.362  10.018  0.6131  0.3546  0.4922
  659MOL0     C88886   3.539   8.391   9.881 -0.2840 -0.3068  0.5413
  659MOL0     C88887   3.430   8.444   9.806 -1.1710 -0.6614 -0.1480
  659MOL0     O88888   3.432   8.473   9.664  0.3907  0.2114 -0.7444
  659MOL0     C88889   3.559   8.468   9.591 -0.5475  0.2085 -0.0881
  659MOL0     C88890   3.637   8.602   9.595 -0.0669 -0.6960 -0.3122
  659MOL0     C88891   3.551   8.724   9.552  0.2467 -0.8849  0.0793
  659MOL0     C88892   3.512   8.729   9.407 -0.6272  0.5886 -0.1778
  659MOL0     C88893   3.435   8.854   9.379 -0.3845  0.0999 -0.2801
  659MOL0     C88894   3.371   8.954   9.356 -0.0891 -0.2066 -0.1196
  659MOL0     C88895   3.305   8.462   9.856 -0.3670 -0.2002 -0.7024
  659MOL0     C88896   3.282   8.414   9.986  0.1271  0.7193 -0.9693
  659MOL0     C88897   3.133   8.413  10.021  0.2049  0.1537 -0.0726
  659MOL0     H88898   3.031   8.252  10.287 -2.2411 -0.3296  1.1175
  659MOL0     H88899   2.938   8.128  10.497  0.3944  0.1634  2.4173
  659MOL0     H88900   2.886   8.231  10.730 -3.1698 -0.9360  1.5156
  659MOL0     H88901   2.883   8.069  10.795  0.5183 -0.6125 -0.3767
  659MOL0     H88902   2.907   8.271  10.959  0.2962 -1.5238  1.4069
  659MOL0     H88903   3.083   8.253  10.912  2.9266 -2.9781  3.7897
  659MOL0     H88904   3.034   8.003  10.975 -0.2444 -0.1169  0.9153
  659MOL0     H88905   2.897   8.056  11.060  0.9598  0.3964  2.3645
  659MOL0     H88906   3.167   8.196  11.117 -1.1675  1.5957  0.0494
  659MOL0     H88907   3.016   8.218  11.197  0.1726 -2.2167  3.4621
  659MOL0     H88908   3.182   7.962  11.198 -3.6183 -3.8287  0.3651
  659MOL0     H88909   3.172   8.098  11.314 -1.9417  3.7956 -1.5424
  659MOL0     H88910   2.951   8.061  11.364  1.0367 -2.0274  3.8485
  659MOL0     H88911   2.922   7.930  11.241 -1.7400 -1.1023  0.8344
  659MOL0     H88912   3.104   7.795  11.369 -0.5264  0.1020 -0.0090
  659MOL0     H88913   2.945   7.807  11.431 -1.5843  3.2807 -0.9364
  659MOL0     H88914   3.109   7.831  11.631 -3.0195 -1.8017 -1.0660
  659MOL0     H88915   3.191   7.961  11.545 -0.6325  0.1898  0.1118
  659MOL0     H88916   3.062   8.218  11.567 -1.1718  1.3134 -1.3684
  659MOL0     H88917   2.880   8.398  11.718  1.9754  1.3127  0.0039
  659MOL0     H88918   2.846   8.343  11.879 -1.2433 -2.2046  0.0605
  659MOL0     H88919   3.081   8.387  11.943 -2.0695 -0.6471 -0.0102
  659MOL0     H88920   3.136   8.345  11.783  1.6409  1.0158  1.1115
  659MOL0     H88921   3.136   8.593  11.881 -1.4811  0.1316  0.6148
  659MOL0     H88922   2.973   8.588  11.848  1.2701  0.4122  1.7057
  659MOL0     H88923   3.135   8.673  11.658  3.1113 -1.3779  0.6366
  659MOL0     H88924   2.997   8.574  11.601  2.2914 -1.8617 -4.1553
  659MOL0     H88925   3.327   8.331  11.463  0.1790 -1.0497 -2.6507
  659MOL0     H88926   3.383   8.330  11.246 -0.0087  0.1596  0.8670
  659MOL0     H88927   3.456   8.710  10.920 -0.2574 -1.5348 -0.3233
  659MOL0     H88928   3.545   8.781  10.692  1.8095 -1.5201 -1.0522
  659MOL0     H88929   3.414   8.612  10.340 -0.0442 -0.5942 -0.9475
  659MOL0     H88930   3.269   8.701  10.320 -0.3900  0.8385 -4.3090
  659MOL0     H88931   3.441   8.897  10.248 -0.2110 -0.0870  0.4678
  659MOL0     H88932   3.560   8.767  10.236 -0.5829 -0.3906  1.6253
  659MOL0     H88933   3.484   8.827  10.011  1.2254 -1.2867 -0.2113
  659MOL0     H88934   3.439   8.663  10.060  2.0054  0.0881  1.4909
  659MOL0     H88935   3.259   8.913  10.080 -0.0414 -0.4741  0.7388
  659MOL0     H88936   3.192   8.756  10.074 -1.6836  1.0790 -1.1445
  659MOL0     H88937   3.280   8.730   9.830  1.1818 -0.2520  0.3593
  659MOL0     H88938   3.349   8.883   9.833  0.7154  0.2904 -0.4776
  659MOL0     H88939   3.050   8.827   9.837  1.5725 -3.5404 -0.5345
  659MOL0     H88940   3.116   8.984   9.851 -0.0333 -0.3320 -0.6433
  659MOL0     H88941   3.243   8.987   9.651  0.3108 -1.0530  0.5294
  659MOL0     H88942   3.071   8.999   9.659 -1.1972  0.1740  2.3791
  659MOL0     H88943   3.111   8.823   9.465  2.8452 -0.2628 -0.4706
  659MOL0     H88944   3.222   8.747   9.575 -2.5571 -3.0309  0.4424
  659MOL0     H88945   3.174   8.659  10.519  3.4162  2.4900 -2.8243
  659MOL0     H88946   3.094   8.579  10.749 -1.1184  1.3793 -1.6175
  659MOL0     H88947   3.101   8.661  11.166 -0.2120  2.0452  1.7532
  659MOL0     H88948   3.030   8.636  11.411 -1.4160 -2.1069  0.3069
  659MOL0     H88949   3.287   8.239  10.712  1.6343  0.1414 -0.2480
  659MOL0     H88950   3.379   8.335  10.525  0.4809  1.0295 -0.5149
  659MOL0     H88951   3.607   8.325  10.063  0.9176 -0.7858 -0.9851
  659MOL0     H88952   3.638   8.376   9.839 -0.2753 -0.5167  0.6398
  659MOL0     H88953   3.537   8.449   9.485  2.4363 -0.0036 -0.7627
  659MOL0     H88954   3.623   8.384   9.618  2.0899  0.9486 -3.2973
  659MOL0     H88955   3.726   8.598   9.531 -0.4924  0.1729 -0.9836
  659MOL0     H88956   3.677   8.616   9.696  0.3913  0.5167 -0.6376
  659MOL0     H88957   3.609   8.811   9.586 -0.8312 -1.0557  2.5594
  659MOL0     H88958   3.461   8.730   9.614 -0.2680  1.2448 -0.7844
  659MOL0     H88959   3.603   8.728   9.347 -0.7661 -1.2378 -0.4157
  659MOL0     H88960   3.461   8.636   9.380 -0.0282 -1.2787  4.2185
  659MOL0     H88961   3.325   9.039   9.310 -0.9154  0.4557  1.8517
  659MOL0     H88962   3.235   8.507   9.787  2.1073  2.2495 -1.7873
  659MOL0     H88963   3.067   8.432   9.936 -0.6322  1.1069  0.7606
  659MOL0     H88964   3.112   8.310  10.052 -3.2797 -0.5365 -3.9249
  659MOL0     H88965   3.113   8.496  10.089  2.2339  0.0603  0.6951
  660MOL0     O88966   7.482   5.178   5.451 -0.2911  0.0861 -0.7651
  660MOL0     C88967   7.568   5.215   5.530  0.1855 -0.5792  0.0932
  660MOL0     O88968   7.697   5.179   5.524  0.5096  0.6765 -0.0453
  660MOL0     C88969   7.742   5.108   5.421 -0.7714  0.7975 -1.7970
  660MOL0     C88970   7.779   5.162   5.298 -0.7363  0.7218 -0.3484
  660MOL0     C88971   7.834   5.077   5.189 -0.2308  0.1006  0.4508
  660MOL0     C88972   7.838   4.942   5.210 -0.4139  0.8508 -0.2562
  660MOL0     O88973   7.884   4.867   5.103  0.7439  0.1733 -0.6690
  660MOL0     C88974   7.952   4.745   5.137  0.1925 -0.1458  0.2337
  660MOL0     C88975   8.102   4.762   5.170 -0.0332 -0.2090 -0.1951
  660MOL0     C88976   8.198   4.806   5.062  0.1705 -0.2634  0.2583
  660MOL0     C88977   8.207   4.700   4.950  0.2832  0.2751  0.1803
  660MOL0     C88978   8.310   4.743   4.844  0.4472  0.3915  0.1334
  660MOL0     C88979   8.240   4.852   4.755  0.3264  0.5208 -0.3844
  660MOL0     C88980   8.335   4.908   4.655 -0.0117 -0.6645  1.3172
  660MOL0     C88981   8.252   4.972   4.547  0.5433 -0.5100  0.6861
  660MOL0     N88982   8.335   4.984   4.429  0.0611  0.1812 -0.3730
  660MOL0     C88983   8.302   4.923   4.311 -0.3588  0.0742  0.2838
  660MOL0     C88984   8.383   4.985   4.215 -0.2395  1.2320 -0.2194
  660MOL0     C88985   8.374   4.937   4.075  0.6151  0.1791  0.7693
  660MOL0     C88986   8.446   4.802   4.052  0.0943  0.6761  0.0010
  660MOL0     C88987   8.437   4.737   3.918 -0.4632  0.8894 -0.5189
  660MOL0     C88988   8.294   4.700   3.867 -0.0733 -0.1178  0.7785
  660MOL0     O88989   8.234   4.811   3.794  0.2902  0.3164 -0.1327
  660MOL0     C88990   8.258   4.830   3.662 -0.0798 -0.5811  0.3331
  660MOL0     C88991   8.217   4.950   3.609 -0.0768 -0.3036 -0.0067
  660MOL0     C88992   8.230   4.975   3.470 -0.3376  0.0217  0.6953
  660MOL0     C88993   8.301   4.883   3.381  0.0947  0.0982  0.2437
  660MOL0     C88994   8.312   4.914   3.233 -0.2340  0.8596  0.6797
  660MOL0     O88995   8.292   5.042   3.195 -0.3256  0.6668 -0.6670
  660MOL0     C88996   8.322   5.075   3.067 -0.0449  0.2081 -0.4489
  660MOL0     C88997   8.457   5.113   3.034  1.0708  0.4256 -0.4704
  660MOL0     C88998   8.498   5.124   2.903 -0.6328  0.1938  0.3568
  660MOL0     C88999   8.400   5.117   2.805 -0.3514 -0.5437  0.2787
  660MOL0     O89000   8.428   5.140   2.676 -0.1511  0.6429  0.0401
  660MOL0     C89001   8.423   5.280   2.649  0.1846 -0.3994 -1.0204
  660MOL0     C89002   8.414   5.323   2.505  0.3586 -0.5406 -1.4233
  660MOL0     C89003   8.322   5.445   2.489 -0.1200  0.6269 -0.4154
  660MOL0     C89004   8.345   5.494   2.341  0.3737  0.2194 -0.4677
  660MOL0     C89005   8.261   5.621   2.311 -0.2936 -0.4685 -0.6661
  660MOL0     C89006   8.327   5.749   2.373  0.3685  0.1188 -0.2641
  660MOL0     C89007   8.480   5.763   2.349  0.2224  0.7958  0.4120
  660MOL0     C89008   8.516   5.914   2.368 -0.0499  1.5393 -0.1186
  660MOL0    Cl89009   8.525   5.948   2.543  0.0034 -0.0068 -0.3633
  660MOL0     C89010   8.269   5.090   2.835  0.5373  0.1705  0.4978
  660MOL0     C89011   8.229   5.073   2.967  0.0544 -0.5283  0.4917
  660MOL0     O89012   8.344   4.822   3.155  0.3025 -0.2279  0.2981
  660MOL0     C89013   8.347   4.760   3.441  0.6746 -0.1457  0.0656
  660MOL0     C89014   8.320   4.739   3.582 -0.1667 -0.0872 -0.3881
  660MOL0     N89015   8.461   5.077   4.283 -0.4209 -0.2555  0.3103
  660MOL0     N89016   8.431   5.078   4.409 -0.5015  0.3323  0.1453
  660MOL0     C89017   7.791   4.884   5.327  0.1263  0.4575 -0.5199
  660MOL0     C89018   7.745   4.965   5.436  0.2284 -0.1686 -0.7464
  660MOL0     C89019   7.533   5.304   5.642  1.0493 -0.1930  0.3923
  660MOL0     C89020   7.641   5.376   5.704  0.6929 -0.3585  0.0072
  660MOL0     C89021   7.617   5.461   5.807  0.5481 -0.1545  0.0121
  660MOL0     C89022   7.491   5.473   5.870  0.0953 -0.6671  0.1621
  660MOL0     O89023   7.473   5.573   5.969 -0.2054  0.4263  0.2995
  660MOL0     C89024   7.475   5.541   6.105  0.4562 -0.2139  0.1717
  660MOL0     C89025   7.322   5.530   6.143 -0.3147 -0.0823  0.3170
  660MOL0     C89026   7.245   5.664   6.131  0.8115  1.0005  0.0874
  660MOL0     C89027   7.297   5.782   6.221 -0.4167  0.4699  0.0613
  660MOL0     C89028   7.192   5.863   6.277 -0.5223 -1.0307 -0.4436
  660MOL0     C89029   7.107   5.934   6.336  0.2728  0.9661 -0.7226
  660MOL0     C89030   7.384   5.410   5.805  1.0394  0.7745 -0.0510
  660MOL0     C89031   7.402   5.335   5.691 -0.7062  0.3836 -0.8012
  660MOL0     C89032   7.267   5.274   5.632  0.3669  0.2937  0.2884
  660MOL0     H89033   7.777   5.270   5.286 -1.4884  0.6979 -0.4734
  660MOL0     H89034   7.859   5.123   5.094 -1.2398 -2.7236 -1.2974
  660MOL0     H89035   7.905   4.685   5.215  0.7253 -0.4924  0.2918
  660MOL0     H89036   7.941   4.683   5.048 -1.2271  0.0707  0.2347
  660MOL0     H89037   8.134   4.665   5.208  1.5705 -0.2158 -1.4222
  660MOL0     H89038   8.106   4.837   5.250 -0.7112  0.1212 -0.4582
  660MOL0     H89039   8.297   4.833   5.099  0.1624 -0.2668  0.2832
  660MOL0     H89040   8.152   4.895   5.018 -1.6643 -1.1678  0.2338
  660MOL0     H89041   8.249   4.609   4.996  1.5137  0.4371 -0.5593
  660MOL0     H89042   8.112   4.672   4.904  0.3099 -1.1405  0.9162
  660MOL0     H89043   8.407   4.778   4.881  2.9434 -0.5140 -4.7299
  660MOL0     H89044   8.340   4.656   4.785 -1.4805 -0.3857  0.2474
  660MOL0     H89045   8.160   4.798   4.705  1.0972  2.0750 -3.5388
  660MOL0     H89046   8.194   4.927   4.820  1.7031  0.2470  0.9712
  660MOL0     H89047   8.397   4.833   4.605  1.9507  1.6919 -0.0504
  660MOL0     H89048   8.402   4.984   4.697 -0.9942 -0.1218  1.9387
  660MOL0     H89049   8.164   4.911   4.526 -0.0394 -0.7278  3.3580
  660MOL0     H89050   8.223   5.070   4.586  0.2945  0.3672 -1.5792
  660MOL0     H89051   8.230   4.844   4.295 -2.1422  1.5608  0.6101
  660MOL0     H89052   8.271   4.949   4.040  1.0589  1.0300 -0.3130
  660MOL0     H89053   8.446   5.008   4.034  1.3418 -0.6207  0.6322
  660MOL0     H89054   8.551   4.807   4.085  0.3143 -0.5224 -0.4586
  660MOL0     H89055   8.397   4.731   4.119 -1.5418  0.9021 -0.9192
  660MOL0     H89056   8.492   4.642   3.924  0.9904  1.7752  0.9932
  660MOL0     H89057   8.502   4.785   3.843 -1.4397  1.3354 -1.0991
  660MOL0     H89058   8.227   4.683   3.952  0.9239  0.4738  1.7109
  660MOL0     H89059   8.306   4.609   3.807  1.6243  1.6006 -1.7292
  660MOL0     H89060   8.163   5.010   3.682  0.8912  1.3354 -0.5999
  660MOL0     H89061   8.199   5.070   3.427  2.5875 -0.9526 -4.4182
  660MOL0     H89062   8.533   5.107   3.111  2.5160  0.0187 -1.8946
  660MOL0     H89063   8.602   5.140   2.876 -0.1295 -1.4380  1.1885
  660MOL0     H89064   8.331   5.310   2.701 -0.2895 -2.9069 -0.2388
  660MOL0     H89065   8.506   5.329   2.701  2.2046 -1.7704 -2.7604
  660MOL0     H89066   8.515   5.340   2.468  1.3247  0.7533  1.5017
  660MOL0     H89067   8.363   5.235   2.466  0.3657 -0.8272 -0.8021
  660MOL0     H89068   8.215   5.432   2.502 -0.2567  0.8184 -1.3195
  660MOL0     H89069   8.356   5.522   2.559  1.4219  0.2806 -0.7274
  660MOL0     H89070   8.298   5.413   2.285 -4.2705  1.7328  0.7784
  660MOL0     H89071   8.448   5.498   2.304  1.2247 -0.5865  1.6727
  660MOL0     H89072   8.159   5.617   2.350 -0.0174  1.2474  0.3294
  660MOL0     H89073   8.259   5.620   2.201  0.2798  1.0474 -0.7096
  660MOL0     H89074   8.266   5.831   2.333 -1.2232 -1.8997 -2.2583
  660MOL0     H89075   8.308   5.760   2.480  0.2312  0.3777 -0.3147
  660MOL0     H89076   8.506   5.726   2.249 -1.1333  2.4502 -0.6102
  660MOL0     H89077   8.541   5.694   2.409 -0.6980  1.6445  2.4014
  660MOL0     H89078   8.621   5.928   2.341  1.0466 -3.8515  0.1964
  660MOL0     H89079   8.454   5.979   2.306  2.5379  3.6355 -0.6884
  660MOL0     H89080   8.192   5.093   2.758  1.2198  1.1932 -0.1595
  660MOL0     H89081   8.126   5.062   3.000  0.9442  2.3036  5.0678
  660MOL0     H89082   8.396   4.678   3.391  1.8790  0.3354  0.4068
  660MOL0     H89083   8.349   4.638   3.610  1.4576  0.1432 -1.0677
  660MOL0     H89084   7.777   4.777   5.338  0.1862  0.4862 -0.1556
  660MOL0     H89085   7.705   4.916   5.523  2.2746 -1.6127 -0.5491
  660MOL0     H89086   7.746   5.352   5.688  0.2874 -1.5979 -0.9660
  660MOL0     H89087   7.700   5.524   5.838  1.4477 -1.7830  1.0574
  660MOL0     H89088   7.519   5.626   6.156 -1.0237  0.0465  1.0800
  660MOL0     H89089   7.527   5.449   6.131 -1.4890 -2.1489 -2.2542
  660MOL0     H89090   7.307   5.486   6.242  0.9438  0.3597  0.7253
  660MOL0     H89091   7.269   5.452   6.087  2.6696 -4.4886  2.9218
  660MOL0     H89092   7.148   5.642   6.177  0.6709  2.9884  0.8432
  660MOL0     H89093   7.231   5.683   6.024  0.5152 -3.0144 -0.7415
  660MOL0     H89094   7.341   5.739   6.312  0.4109  2.5775  0.7285
  660MOL0     H89095   7.379   5.841   6.178 -0.8258  0.0235 -1.3912
  660MOL0     H89096   7.029   5.968   6.401 -0.0142  0.9494 -1.0571
  660MOL0     H89097   7.282   5.420   5.842  0.1621 -0.9033 -1.8276
  660MOL0     H89098   7.293   5.192   5.565  0.1828  1.7321 -1.6480
  660MOL0     H89099   7.200   5.243   5.713  0.1490 -1.9977 -0.7105
  660MOL0     H89100   7.225   5.356   5.573 -0.7052  0.1696  0.8569
  661MOL0     O89101   2.264   0.443   8.863 -0.5823  0.5247 -0.1503
  661MOL0     C89102   2.280   0.345   8.935  0.1574  0.2289 -0.0955
  661MOL0     O89103   2.303   0.218   8.889  0.1331 -0.5816  0.5733
  661MOL0     C89104   2.339   0.195   8.757  0.4064  0.5786 -0.3912
  661MOL0     C89105   2.276   0.092   8.697  0.6170 -0.2912 -0.4358
  661MOL0     C89106   2.307   0.053   8.569 -0.2003 -0.6871  0.3391
  661MOL0     C89107   2.408   0.124   8.503  0.0908  0.1421  0.6291
  661MOL0     O89108   2.430   0.090   8.366 -0.6415 -0.3770  0.1921
  661MOL0     C89109   2.410  -0.042   8.326  0.4500  0.0929 -1.0011
  661MOL0     C89110   2.469  -0.050   8.188 -1.1161 -0.0555  1.4596
  661MOL0     C89111   2.425  -0.179   8.112  0.4595  0.0885  0.1409
  661MOL0     C89112   2.486  -0.176   7.965  0.2983  0.3517 -0.2403
  661MOL0     C89113   2.459  -0.305   7.879 -0.8282 -0.2334 -0.0942
  661MOL0     C89114   2.526  -0.427   7.930 -0.0036  0.2752  0.6235
  661MOL0     C89115   2.674  -0.420   7.973 -0.1401 -0.2343  0.0964
  661MOL0     C89116   2.767  -0.393   7.850  0.2382 -0.7900 -0.2988
  661MOL0     N89117   2.780  -0.502   7.762  0.4999  0.0249 -0.0529
  661MOL0     C89118   2.784  -0.484   7.620 -0.5116  0.3507 -0.6397
  661MOL0     C89119   2.792  -0.610   7.575  0.3496 -0.2584  0.7195
  661MOL0     C89120   2.790  -0.654   7.430  0.1661 -0.5951 -0.3540
  661MOL0     C89121   2.944  -0.652   7.391  0.5638  0.1527 -0.3523
  661MOL0     C89122   2.960  -0.584   7.254 -0.7535 -0.7757  0.3257
  661MOL0     C89123   2.939  -0.430   7.262 -1.2149  0.0252 -0.7854
  661MOL0     O89124   3.015  -0.373   7.373  0.9707  0.1255 -0.4533
  661MOL0     C89125   3.028  -0.238   7.382  0.0688 -0.5424 -0.5029
  661MOL0     C89126   2.922  -0.152   7.415  0.5937  0.3340 -0.8716
  661MOL0     C89127   2.923  -0.012   7.432  0.1324  0.5374  0.5799
  661MOL0     C89128   3.038   0.051   7.384 -0.6295  0.0254 -0.6343
  661MOL0     C89129   3.056   0.199   7.385  0.7793 -0.9099  0.0812
  661MOL0     O89130   2.943   0.268   7.437  0.1712  0.2030 -0.3817
  661MOL0     C89131   2.951   0.406   7.443  0.2066  0.0312  0.1038
  661MOL0     C89132   2.831   0.485   7.434 -0.5487 -0.0849  0.0325
  661MOL0     C89133   2.822   0.624   7.461  0.4030 -0.7120 -0.3582
  661MOL0     C89134   2.925   0.690   7.508 -0.5629  0.1520 -1.2555
  661MOL0     O89135   2.910   0.815   7.565  0.0709 -0.1645  0.2197
  661MOL0     C89136   2.994   0.859   7.671  0.2718 -0.3695 -0.1622
  661MOL0     C89137   2.936   0.805   7.803  0.9280 -0.5714  0.1275
  661MOL0     C89138   2.791   0.861   7.820 -0.6435  0.4755  0.4297
  661MOL0     C89139   2.727   0.822   7.951 -0.0713  0.5887 -0.0168
  661MOL0     C89140   2.633   0.703   7.935 -0.3500  0.5933  0.0479
  661MOL0     C89141   2.585   0.646   8.070 -0.0498 -0.5616  0.9496
  661MOL0     C89142   2.502   0.523   8.042  0.2245 -0.3136 -0.3262
  661MOL0     C89143   2.489   0.420   8.159  0.2851 -0.8764  0.1973
  661MOL0    Cl89144   2.393   0.282   8.090  0.0538  0.6819  0.1898
  661MOL0     C89145   3.047   0.622   7.505  0.3337 -0.5203 -1.1023
  661MOL0     C89146   3.064   0.486   7.476 -0.9245 -0.1456  0.7145
  661MOL0     O89147   3.151   0.258   7.326 -0.0893 -0.0140 -0.4471
  661MOL0     C89148   3.152  -0.034   7.348  0.0761 -0.6916  0.2172
  661MOL0     C89149   3.142  -0.177   7.346 -0.5426 -0.8140 -0.0503
  661MOL0     N89150   2.785  -0.709   7.675 -0.6832  0.6233  0.3900
  661MOL0     N89151   2.789  -0.640   7.783 -0.0919  0.2958  0.6460
  661MOL0     C89152   2.473   0.226   8.564  0.2497 -1.1763  0.8482
  661MOL0     C89153   2.443   0.261   8.696 -0.8604  0.1778  0.4986
  661MOL0     C89154   2.285   0.349   9.083  0.3962  0.7582  0.2544
  661MOL0     C89155   2.287   0.463   9.149  0.7954  0.1469  0.6634
  661MOL0     C89156   2.310   0.480   9.287 -0.3728 -0.5420  1.5502
  661MOL0     C89157   2.305   0.368   9.370  0.1875  1.0037 -0.3352
  661MOL0     O89158   2.329   0.382   9.502  0.3583 -0.2993  0.4726
  661MOL0     C89159   2.211   0.349   9.589 -0.0698 -1.2856 -0.4132
  661MOL0     C89160   2.238   0.293   9.724  0.4140  0.1813  0.2957
  661MOL0     C89161   2.274   0.143   9.716  0.3824 -1.1557 -0.0560
  661MOL0     C89162   2.235   0.067   9.849 -0.6159 -0.3362  0.0329
  661MOL0     C89163   2.348  -0.016   9.901  0.0992 -0.8075 -0.4748
  661MOL0     C89164   2.439  -0.076   9.948  0.9486  1.2822  0.2562
  661MOL0     C89165   2.284   0.249   9.306  1.4669  0.3993  0.1562
  661MOL0     C89166   2.289   0.235   9.167 -0.3873  0.0632 -0.3434
  661MOL0     C89167   2.276   0.089   9.128  0.4615 -0.6062 -0.2544
  661MOL0     H89168   2.202   0.040   8.757  1.7037  1.3821  2.5910
  661MOL0     H89169   2.251  -0.030   8.528 -0.5084 -0.8402  1.0574
  661MOL0     H89170   2.464  -0.113   8.389  0.4843 -0.5390 -1.7271
  661MOL0     H89171   2.302  -0.058   8.327  0.3359  0.8142 -1.3888
  661MOL0     H89172   2.577  -0.049   8.199 -1.1457  1.8946  1.9827
  661MOL0     H89173   2.439   0.040   8.133  3.6494  0.0894 -1.4295
  661MOL0     H89174   2.316  -0.177   8.109  0.4562  2.1497  0.2997
  661MOL0     H89175   2.451  -0.275   8.158 -0.7836 -0.4565 -0.2533
  661MOL0     H89176   2.448  -0.091   7.908 -0.7244 -0.6725 -1.1439
  661MOL0     H89177   2.594  -0.160   7.972  0.4829 -0.5211 -0.8527
  661MOL0     H89178   2.351  -0.324   7.875 -0.6678 -1.2474 -4.5882
  661MOL0     H89179   2.495  -0.293   7.776 -0.4468 -0.2569  0.0380
  661MOL0     H89180   2.466  -0.439   8.021  0.8382  1.9419  1.4633
  661MOL0     H89181   2.500  -0.505   7.858 -0.7718 -0.5065  1.7141
  661MOL0     H89182   2.691  -0.519   8.016  2.6964 -0.0990 -0.5351
  661MOL0     H89183   2.673  -0.340   8.049  1.7856 -0.0444 -0.0404
  661MOL0     H89184   2.724  -0.309   7.795 -1.1203 -1.3131 -0.0568
  661MOL0     H89185   2.867  -0.364   7.885  0.1323 -2.5170  1.5796
  661MOL0     H89186   2.774  -0.389   7.569 -0.9233  0.4028 -0.4664
  661MOL0     H89187   2.756  -0.758   7.428  0.3763 -0.7805  2.2276
  661MOL0     H89188   2.718  -0.594   7.372 -1.7400 -2.8409 -0.4578
  661MOL0     H89189   3.004  -0.601   7.466 -1.8873  0.1961  1.6989
  661MOL0     H89190   2.969  -0.757   7.377 -1.1776 -0.4736  0.9081
  661MOL0     H89191   2.901  -0.624   7.171  2.7808 -2.4022 -1.6374
  661MOL0     H89192   3.060  -0.594   7.210 -0.6896 -0.5663  0.4177
  661MOL0     H89193   2.833  -0.407   7.266 -1.1210  0.3419  2.6040
  661MOL0     H89194   2.971  -0.384   7.168 -1.2227 -1.2816 -1.4534
  661MOL0     H89195   2.828  -0.204   7.435  0.6189  0.8096  0.6538
  661MOL0     H89196   2.843   0.045   7.478  0.7860 -0.0995  2.6274
  661MOL0     H89197   2.743   0.423   7.422  0.8278 -2.2164  0.2115
  661MOL0     H89198   2.733   0.686   7.462 -1.7446 -3.6030  1.1385
  661MOL0     H89199   3.094   0.814   7.667 -0.5218 -2.1261 -2.1080
  661MOL0     H89200   2.990   0.968   7.681 -1.1881 -0.6009  3.2329
  661MOL0     H89201   2.949   0.697   7.810  1.1971 -0.5194  0.4660
  661MOL0     H89202   2.995   0.830   7.892  2.1652 -4.3623  0.5128
  661MOL0     H89203   2.804   0.969   7.811  0.8422  0.2853  0.0526
  661MOL0     H89204   2.732   0.828   7.734  0.1329 -0.9329  0.4199
  661MOL0     H89205   2.677   0.913   7.986  4.3114  2.7431  1.3904
  661MOL0     H89206   2.808   0.806   8.023  2.3454 -0.1580 -2.7045
  661MOL0     H89207   2.679   0.620   7.881 -2.9011  0.2614 -1.8547
  661MOL0     H89208   2.545   0.739   7.880 -2.1320 -0.7404  1.8805
  661MOL0     H89209   2.672   0.637   8.136  1.3743  0.5388 -0.6541
  661MOL0     H89210   2.528   0.730   8.110  2.0623  1.7063 -0.4533
  661MOL0     H89211   2.538   0.458   7.962 -0.2035 -1.7451  0.6125
  661MOL0     H89212   2.404   0.563   8.013  0.1450  1.0709  1.6528
  661MOL0     H89213   2.582   0.372   8.193  1.0551 -0.8755 -1.7936
  661MOL0     H89214   2.446   0.470   8.247 -1.0341 -0.4541 -0.6599
  661MOL0     H89215   3.141   0.677   7.512  0.4959 -0.9586  0.6615
  661MOL0     H89216   3.166   0.450   7.487 -0.5331  0.9094  0.6206
  661MOL0     H89217   3.249  -0.001   7.313  0.9277 -2.6491  0.6036
  661MOL0     H89218   3.231  -0.231   7.313  1.0745  1.1079  0.9226
  661MOL0     H89219   2.554   0.276   8.512 -2.3614  0.0461 -2.4052
  661MOL0     H89220   2.499   0.339   8.746 -0.9045 -0.1830  1.1235
  661MOL0     H89221   2.284   0.558   9.096  2.0187  1.5703  2.9852
  661MOL0     H89222   2.319   0.580   9.329 -0.6553 -2.1030  5.7924
  661MOL0     H89223   2.125   0.306   9.537 -4.2138  1.6873  3.2800
  661MOL0     H89224   2.160   0.443   9.611 -2.5663 -1.8975 -2.8949
  661MOL0     H89225   2.145   0.288   9.781  1.7053  1.7320  2.7311
  661MOL0     H89226   2.312   0.356   9.775 -0.2816  0.5097  0.9134
  661MOL0     H89227   2.374   0.135   9.673  1.2840  3.7720  0.5345
  661MOL0     H89228   2.213   0.097   9.638  1.6755  0.7481 -2.3104
  661MOL0     H89229   2.203   0.127   9.935 -0.4789 -0.3999  0.1277
  661MOL0     H89230   2.153   0.000   9.818 -0.5009 -0.3508 -0.2394
  661MOL0     H89231   2.499  -0.146  10.002 -1.5783  0.4676  2.2359
  661MOL0     H89232   2.268   0.164   9.371  0.2234  1.1741  0.9135
  661MOL0     H89233   2.367   0.049   9.081 -0.0204 -1.7209 -0.2784
  661MOL0     H89234   2.233   0.029   9.209 -0.4816  0.9968  0.4868
  661MOL0     H89235   2.190   0.080   9.061 -0.0118  0.9600  0.1074
  662MOL0     O89236  10.652   5.903   9.970  0.1771 -0.6481  0.3332
  662MOL0     C89237  10.765   5.868  10.010  0.8380  0.6649  0.1534
  662MOL0     O89238  10.870   5.952  10.034  0.6754 -0.0539  0.3011
  662MOL0     C89239  10.839   6.080  10.089 -0.0331  0.6041  0.0682
  662MOL0     C89240  10.735   6.103  10.178 -1.1886  1.2554  0.1732
  662MOL0     C89241  10.706   6.224  10.227 -0.1345  0.3680 -0.2637
  662MOL0     C89242  10.783   6.337  10.181  0.3271 -0.5023 -0.2673
  662MOL0     O89243  10.721   6.457  10.199  1.0690  0.7451  0.4138
  662MOL0     C89244  10.795   6.569  10.237 -0.8804 -1.1482 -0.5695
  662MOL0     C89245  10.696   6.681  10.274  0.0988 -0.0323 -0.1166
  662MOL0     C89246  10.640   6.748  10.144 -0.3008  0.3859  0.9907
  662MOL0     C89247  10.556   6.878  10.172  0.4529 -0.2314 -0.6172
  662MOL0     C89248  10.561   6.984  10.058  1.4267 -0.9395 -0.2487
  662MOL0     C89249  10.703   7.037  10.033  1.0556 -0.2239  0.1985
  662MOL0     C89250  10.694   7.171   9.963  0.6525  0.7521 -0.0479
  662MOL0     C89251  10.642   7.157   9.816  0.0046  0.1275  0.0452
  662MOL0     N89252  10.601   7.285   9.744 -0.3146  0.0942 -0.2810
  662MOL0     C89253  10.475   7.338   9.738  0.2662  0.1036 -0.4862
  662MOL0     C89254  10.493   7.464   9.675 -0.2314  0.1481  1.1391
  662MOL0     C89255  10.398   7.580   9.650 -0.8060 -0.6153  0.1063
  662MOL0     C89256  10.310   7.613   9.767 -0.3270 -0.5094 -0.3619
  662MOL0     C89257  10.378   7.667   9.895  0.3393  0.3986  0.8561
  662MOL0     C89258  10.488   7.770   9.882 -0.5066 -0.3802  0.5643
  662MOL0     O89259  10.431   7.902   9.851  0.4185  0.0852  0.5354
  662MOL0     C89260  10.497   8.018   9.835 -0.2445 -0.5380  0.2091
  662MOL0     C89261  10.634   8.037   9.864 -0.7568  0.4502 -0.5736
  662MOL0     C89262  10.689   8.157   9.853 -0.9311 -0.0594  1.1335
  662MOL0     C89263  10.615   8.276   9.824  0.1231 -0.2147 -0.3128
  662MOL0     C89264  10.678   8.412   9.813  0.8302  0.3955 -0.6548
  662MOL0     O89265  10.806   8.428   9.839 -0.1900 -0.7013 -0.5822
  662MOL0     C89266  10.861   8.557   9.866  0.0924 -0.4879 -0.6379
  662MOL0     C89267  11.000   8.566   9.834 -0.1886 -0.2697 -0.0697
  662MOL0     C89268  11.063   8.688   9.849 -0.0413  1.1286  0.7744
  662MOL0     C89269  10.995   8.801   9.897 -0.4221 -0.1675 -0.0711
  662MOL0     O89270  11.052   8.932   9.902 -0.4566  0.7245  0.5657
  662MOL0     C89271  11.187   8.939   9.862  0.4542  0.2782  0.6843
  662MOL0     C89272  11.233   9.087   9.896 -0.1510 -0.5109  0.0285
  662MOL0     C89273  11.140   9.205   9.855 -0.7960 -0.1436  0.4751
  662MOL0     C89274  11.173   9.243   9.702  0.0318  0.4916 -0.5573
  662MOL0     C89275  11.253   9.377   9.719 -0.0933 -1.5795 -0.3580
  662MOL0     C89276  11.321   9.420   9.584 -0.5581  0.6623  0.6282
  662MOL0     C89277  11.403   9.303   9.500  0.3924  0.4193 -0.4482
  662MOL0     C89278  11.504   9.245   9.602  1.0616 -0.6749 -0.3407
  662MOL0    Cl89279  11.624   9.371   9.652 -0.2061  0.6610 -0.3224
  662MOL0     C89280  10.868   8.782   9.942  0.0845 -0.7467  0.8014
  662MOL0     C89281  10.795   8.670   9.919 -0.5297  0.8806  0.3979
  662MOL0     O89282  10.599   8.505   9.781 -0.4521  0.5184  0.0316
  662MOL0     C89283  10.481   8.249   9.792 -0.6316  0.9177 -0.0775
  662MOL0     C89284  10.417   8.129   9.796  0.4879  0.2400  0.6964
  662MOL0     N89285  10.627   7.480   9.637  0.7400 -0.3014 -0.2205
  662MOL0     N89286  10.681   7.360   9.669 -0.4032 -0.3550 -0.3608
  662MOL0     C89287  10.897   6.316  10.104  0.1033  0.3132 -0.1259
  662MOL0     C89288  10.929   6.187  10.057  0.5578  0.1537 -0.2671
  662MOL0     C89289  10.792   5.723  10.015 -0.0546 -0.2473 -0.5767
  662MOL0     C89290  10.921   5.684  10.049 -0.3729  0.8456  0.3081
  662MOL0     C89291  10.947   5.553  10.087 -0.0531 -0.8730  0.0761
  662MOL0     C89292  10.851   5.453  10.077 -0.1977 -0.1840  0.1458
  662MOL0     O89293  10.867   5.320  10.099 -0.3222 -0.2746 -0.6832
  662MOL0     C89294  10.988   5.276  10.162  0.5932 -0.1470 -0.1550
  662MOL0     C89295  10.986   5.303  10.313 -0.7160  0.5126  0.7297
  662MOL0     C89296  11.117   5.282  10.390  1.5565  0.5620  0.3315
  662MOL0     C89297  11.222   5.389  10.352  0.4918 -0.4276 -0.4029
  662MOL0     C89298  11.348   5.362  10.411 -0.0669 -0.0557  0.4674
  662MOL0     C89299  11.467   5.360  10.453  0.9576 -0.7736  0.5867
  662MOL0     C89300  10.726   5.481  10.036  0.3175 -0.4317  0.0464
  662MOL0     C89301  10.698   5.618  10.002  0.1954 -0.0317  0.2396
  662MOL0     C89302  10.550   5.638   9.972  0.5764 -1.0957 -0.3363
  662MOL0     H89303  10.668   6.021  10.202  0.7216  0.2696  2.6335
  662MOL0     H89304  10.614   6.233  10.284 -2.5374 -2.9449 -3.1677
  662MOL0     H89305  10.841   6.530  10.328 -0.2839  0.8474  0.0374
  662MOL0     H89306  10.875   6.599  10.169  1.5723 -0.9307  2.1796
  662MOL0     H89307  10.736   6.767  10.329 -1.9875 -0.2067  1.7748
  662MOL0     H89308  10.608   6.653  10.332 -1.2465  2.2595 -0.8939
  662MOL0     H89309  10.575   6.686  10.082  2.2254 -1.7665  0.3380
  662MOL0     H89310  10.727   6.777  10.085 -1.0543  2.5587  0.8612
  662MOL0     H89311  10.452   6.857  10.199  1.1939 -0.7889  2.2133
  662MOL0     H89312  10.610   6.921  10.257 -0.2117 -1.0645  0.2444
  662MOL0     H89313  10.516   6.943   9.967 -2.5595  0.7766  0.7217
  662MOL0     H89314  10.498   7.071  10.078 -0.5589 -2.3708  0.0438
  662MOL0     H89315  10.749   7.053  10.131  3.3159 -0.1727 -0.8295
  662MOL0     H89316  10.771   6.975   9.974 -0.9530  0.4358 -3.0823
  662MOL0     H89317  10.801   7.190   9.953  1.4096 -2.6756  0.2433
  662MOL0     H89318  10.644   7.253  10.016  0.2034 -0.6060  1.7457
  662MOL0     H89319  10.722   7.119   9.752 -0.0906 -1.9616  1.0810
  662MOL0     H89320  10.555   7.090   9.807 -1.0301  1.6615 -2.1749
  662MOL0     H89321  10.391   7.308   9.801  0.2294 -1.3732 -1.2091
  662MOL0     H89322  10.456   7.670   9.628 -0.8616  0.2498  3.1200
  662MOL0     H89323  10.333   7.548   9.568 -0.4519  0.6834 -0.7150
  662MOL0     H89324  10.244   7.695   9.739 -1.2704 -0.0506  2.7833
  662MOL0     H89325  10.258   7.522   9.800  2.3211 -2.0496 -0.1259
  662MOL0     H89326  10.412   7.578   9.949 -2.7636 -1.8857 -0.6984
  662MOL0     H89327  10.297   7.706   9.957 -1.2982 -2.1657  0.4518
  662MOL0     H89328  10.560   7.738   9.806 -1.0371 -2.4136  0.8597
  662MOL0     H89329  10.531   7.776   9.983 -1.8126  3.0977  1.0528
  662MOL0     H89330  10.696   7.959   9.906 -0.0645  2.1265  1.7258
  662MOL0     H89331  10.797   8.168   9.854 -0.7854 -0.2614 -1.8343
  662MOL0     H89332  11.051   8.484   9.784  2.6316 -2.2314  5.2083
  662MOL0     H89333  11.164   8.685   9.810  0.0057 -0.3569  0.9620
  662MOL0     H89334  11.249   8.869   9.919 -0.9242 -0.9252  0.7554
  662MOL0     H89335  11.199   8.910   9.758 -5.8952 -3.4025  0.4422
  662MOL0     H89336  11.251   9.089  10.003 -3.0700 -2.1251  0.6698
  662MOL0     H89337  11.328   9.114   9.850  0.6860 -1.9886  0.8103
  662MOL0     H89338  11.036   9.173   9.848 -0.8363 -0.1888  1.2360
  662MOL0     H89339  11.147   9.295   9.917 -0.3378  0.9184 -1.0677
  662MOL0     H89340  11.077   9.266   9.655 -0.3338 -0.0332 -0.0805
  662MOL0     H89341  11.224   9.166   9.642  1.8422  1.0649  0.1602
  662MOL0     H89342  11.323   9.371   9.803 -2.5574 -1.8740  1.8091
  662MOL0     H89343  11.188   9.459   9.751  1.7859  0.3824 -1.2862
  662MOL0     H89344  11.241   9.469   9.528 -2.0757  0.3590  2.4383
  662MOL0     H89345  11.389   9.496   9.623  0.1147 -1.4300  3.8486
  662MOL0     H89346  11.452   9.346   9.413  0.7981  2.2100  0.6096
  662MOL0     H89347  11.325   9.229   9.479 -1.3161  1.4392  1.8589
  662MOL0     H89348  11.446   9.215   9.690  1.3460 -2.0482 -0.5990
  662MOL0     H89349  11.561   9.157   9.570  1.0632 -0.6947 -0.2825
  662MOL0     H89350  10.808   8.863   9.982  0.5531 -1.9448  4.3604
  662MOL0     H89351  10.695   8.636   9.944 -0.9425 -1.7663 -3.7873
  662MOL0     H89352  10.420   8.338   9.776  1.0161  2.5259  1.8990
  662MOL0     H89353  10.311   8.117   9.776  1.3344 -1.0365 -4.5022
  662MOL0     H89354  10.948   6.399  10.056 -0.2183  1.4786  1.4849
  662MOL0     H89355  10.995   6.170   9.972 -2.4439 -2.2101 -2.3372
  662MOL0     H89356  11.001   5.754  10.072 -1.4523  1.6546  1.7777
  662MOL0     H89357  11.046   5.538  10.129  0.4174  0.3102 -0.5651
  662MOL0     H89358  11.075   5.319  10.111 -0.2842  1.5692 -0.2809
  662MOL0     H89359  10.998   5.167  10.152 -1.9229 -0.2719 -2.4352
  662MOL0     H89360  10.912   5.234  10.356  0.3574 -1.5606 -0.6004
  662MOL0     H89361  10.955   5.406  10.330 -0.7985  0.3519  1.6421
  662MOL0     H89362  11.153   5.186  10.351  0.2560  0.8637 -1.8174
  662MOL0     H89363  11.093   5.271  10.496 -0.4588  1.1590 -0.0215
  662MOL0     H89364  11.241   5.380  10.245  1.6398 -1.2787 -0.1476
  662MOL0     H89365  11.185   5.491  10.364  1.0239  0.0480 -2.5436
  662MOL0     H89366  11.568   5.348  10.488  1.7046  2.0271 -0.3740
  662MOL0     H89367  10.649   5.404  10.030  0.6775 -0.7079 -3.4059
  662MOL0     H89368  10.485   5.556   9.940 -0.3514 -0.2555 -0.6791
  662MOL0     H89369  10.503   5.691  10.055  0.7430  0.4624 -1.1789
  662MOL0     H89370  10.538   5.702   9.883  0.7695 -1.9589 -1.0024
  663MOL0     O89371   3.528   7.473   8.633 -0.3098 -0.1280  0.1356
  663MOL0     C89372   3.587   7.568   8.675  0.6228  0.3070  0.0617
  663MOL0     O89373   3.530   7.689   8.700  0.3378 -0.5598 -0.2013
  663MOL0     C89374   3.390   7.696   8.702  0.8579 -0.7721 -0.6635
  663MOL0     C89375   3.314   7.601   8.767 -0.5047  0.5550 -0.7357
  663MOL0     C89376   3.171   7.615   8.779  0.2902  0.3447 -0.1335
  663MOL0     C89377   3.104   7.734   8.718 -0.5209  1.6422 -0.8997
  663MOL0     O89378   2.973   7.753   8.728  0.9413 -0.0716 -0.4525
  663MOL0     C89379   2.886   7.638   8.757 -0.7797 -0.5500  0.1927
  663MOL0     C89380   2.746   7.689   8.757  0.3817 -0.5032 -0.4478
  663MOL0     C89381   2.687   7.733   8.617  0.0431  0.5204  0.2382
  663MOL0     C89382   2.535   7.759   8.636 -0.6638 -1.8197  0.4806
  663MOL0     C89383   2.452   7.786   8.501 -0.5824  0.0109  0.4912
  663MOL0     C89384   2.488   7.922   8.439 -0.3143  0.1737  0.2110
  663MOL0     C89385   2.464   8.045   8.525 -0.8320 -0.0068  0.5744
  663MOL0     C89386   2.318   8.059   8.567  0.3980 -0.8998 -0.1858
  663MOL0     N89387   2.299   8.194   8.608 -0.0071  0.0739 -0.2114
  663MOL0     C89388   2.354   8.242   8.723 -1.6161  0.4346 -0.4781
  663MOL0     C89389   2.341   8.380   8.713  0.0600  0.5588 -0.7186
  663MOL0     C89390   2.400   8.477   8.804  0.2699 -0.5419 -0.5832
  663MOL0     C89391   2.557   8.477   8.811 -0.3584  0.8181 -0.9208
  663MOL0     C89392   2.623   8.480   8.669  0.1426  0.2704 -1.1388
  663MOL0     C89393   2.773   8.448   8.693  0.4913  0.1315 -1.2304
  663MOL0     O89394   2.828   8.434   8.561  0.8417 -0.2790  0.2057
  663MOL0     C89395   2.948   8.383   8.537 -1.0277 -0.2906  0.6183
  663MOL0     C89396   3.016   8.297   8.625  0.4392  0.3290 -1.2735
  663MOL0     C89397   3.143   8.246   8.599  0.1868  0.3835 -0.1724
  663MOL0     C89398   3.217   8.292   8.494  0.1536  1.3586  0.3214
  663MOL0     C89399   3.365   8.259   8.481  0.7685  0.2217  0.7982
  663MOL0     O89400   3.395   8.132   8.522 -0.4225 -0.3336  0.1187
  663MOL0     C89401   3.517   8.090   8.482 -0.4335 -0.9021  0.1344
  663MOL0     C89402   3.634   8.102   8.553 -0.5766  0.0270  0.0906
  663MOL0     C89403   3.741   8.027   8.506 -0.1345  0.2814  0.8276
  663MOL0     C89404   3.738   7.967   8.378 -0.2174  0.2770 -0.1533
  663MOL0     O89405   3.854   7.914   8.337 -0.2728  0.4952  0.4067
  663MOL0     C89406   3.860   7.775   8.371 -0.9031 -0.2567  0.6455
  663MOL0     C89407   3.990   7.726   8.350 -0.1828 -0.2801  0.4576
  663MOL0     C89408   4.001   7.577   8.405 -0.3119  0.3586  0.1536
  663MOL0     C89409   4.143   7.508   8.387  0.2690 -0.3121 -0.7726
  663MOL0     C89410   4.148   7.366   8.431  0.2558  0.9317 -0.3838
  663MOL0     C89411   4.293   7.318   8.423 -0.5464  1.0592 -0.2093
  663MOL0     C89412   4.294   7.174   8.447  0.8278  0.1192  0.1053
  663MOL0     C89413   4.429   7.116   8.432 -1.0787 -0.6185 -1.4420
  663MOL0    Cl89414   4.534   7.158   8.572  0.1409  0.1442 -0.0323
  663MOL0     C89415   3.625   7.967   8.299 -0.0768 -0.3616  0.5232
  663MOL0     C89416   3.517   8.018   8.362 -0.7203  0.3116  0.0129
  663MOL0     O89417   3.439   8.342   8.431 -0.9745  0.7631  0.9453
  663MOL0     C89418   3.157   8.385   8.405 -0.3063  0.2884  0.3443
  663MOL0     C89419   3.017   8.411   8.422  0.2294 -0.5288  0.6068
  663MOL0     N89420   2.276   8.415   8.608 -0.2643 -0.4066 -0.1408
  663MOL0     N89421   2.252   8.307   8.536  0.6087  0.4023  0.7758
  663MOL0     C89422   3.186   7.832   8.662 -0.9677  0.0142  0.8875
  663MOL0     C89423   3.330   7.812   8.649  0.1898 -0.0650 -0.8068
  663MOL0     C89424   3.724   7.547   8.718 -0.9818 -0.0127 -0.2010
  663MOL0     C89425   3.797   7.658   8.780  0.1010  0.7497  0.4541
  663MOL0     C89426   3.937   7.664   8.812  0.1804 -0.5818  0.9536
  663MOL0     C89427   4.017   7.549   8.791 -0.2503 -0.0331 -0.1957
  663MOL0     O89428   4.150   7.551   8.824  0.1140  0.2173 -0.0770
  663MOL0     C89429   4.247   7.454   8.785  0.7449  0.2100 -0.0945
  663MOL0     C89430   4.374   7.534   8.760 -0.0741 -0.5668  0.6274
  663MOL0     C89431   4.500   7.453   8.778 -0.8517  0.2981  0.1252
  663MOL0     C89432   4.544   7.427   8.921  0.1695 -0.3687  0.5999
  663MOL0     C89433   4.661   7.345   8.919 -0.0052  0.3293  0.3604
  663MOL0     C89434   4.771   7.284   8.922 -0.5984  0.5330 -0.4831
  663MOL0     C89435   3.944   7.437   8.739  0.0747  0.3613  0.6274
  663MOL0     C89436   3.814   7.435   8.697  0.0390 -1.2844 -0.6322
  663MOL0     C89437   3.777   7.307   8.633 -0.6445  0.1846 -0.1143
  663MOL0     H89438   3.367   7.522   8.820  0.8026  1.6811 -0.3076
  663MOL0     H89439   3.113   7.546   8.840  3.3679 -0.8146  1.6882
  663MOL0     H89440   2.897   7.558   8.683 -0.4747  1.4586 -2.0524
  663MOL0     H89441   2.901   7.586   8.852 -0.0632 -2.7439 -1.0394
  663MOL0     H89442   2.745   7.771   8.830 -1.0955  0.2440 -1.2503
  663MOL0     H89443   2.676   7.615   8.797 -0.1725 -1.8701 -3.6896
  663MOL0     H89444   2.686   7.649   8.546 -0.8640  0.7112  0.0196
  663MOL0     H89445   2.753   7.812   8.577  1.8013 -0.4928  1.0246
  663MOL0     H89446   2.491   7.674   8.689  0.6217 -1.3735  2.3697
  663MOL0     H89447   2.521   7.841   8.706 -1.1455 -2.3702  1.0407
  663MOL0     H89448   2.476   7.704   8.433  0.4571  1.1147 -0.5171
  663MOL0     H89449   2.346   7.790   8.528 -0.4207  1.5010  1.0356
  663MOL0     H89450   2.593   7.928   8.408 -0.3650 -0.1901 -0.0322
  663MOL0     H89451   2.420   7.930   8.355 -1.1846 -0.9777  0.7720
  663MOL0     H89452   2.489   8.128   8.458 -1.6115  0.4337  0.8192
  663MOL0     H89453   2.529   8.049   8.613 -3.7717 -0.8565  2.9636
  663MOL0     H89454   2.249   8.037   8.484 -3.2205 -0.3688  2.4558
  663MOL0     H89455   2.323   7.998   8.658  3.0740  0.5314  0.7285
  663MOL0     H89456   2.414   8.180   8.788 -1.8365 -0.9056 -1.5134
  663MOL0     H89457   2.361   8.572   8.765  1.7099 -0.5272 -2.0941
  663MOL0     H89458   2.371   8.454   8.907  0.3419 -1.0128 -0.6655
  663MOL0     H89459   2.582   8.563   8.874 -0.5725  0.7837 -0.7918
  663MOL0     H89460   2.603   8.402   8.875 -0.4816  2.9592  1.8757
  663MOL0     H89461   2.609   8.578   8.624 -4.1093 -0.0484 -0.9054
  663MOL0     H89462   2.574   8.400   8.612 -0.7662 -1.5273  1.9029
  663MOL0     H89463   2.779   8.347   8.735 -0.1863  0.1941 -0.9738
  663MOL0     H89464   2.829   8.520   8.754  0.8414 -1.4573  0.4438
  663MOL0     H89465   2.970   8.270   8.719  2.3105  0.1548 -0.3862
  663MOL0     H89466   3.195   8.181   8.669  2.0383  0.4836 -1.3986
  663MOL0     H89467   3.644   8.150   8.649  0.9816 -2.7168  1.4303
  663MOL0     H89468   3.834   8.038   8.560  0.5215 -0.7320 -0.0546
  663MOL0     H89469   3.840   7.758   8.477  1.8231 -1.2320  1.0795
  663MOL0     H89470   3.782   7.720   8.317 -0.3269 -0.4684  0.0067
  663MOL0     H89471   4.021   7.734   8.245  1.0590  2.1042  0.9514
  663MOL0     H89472   4.054   7.789   8.411  0.2941  0.5099 -0.8217
  663MOL0     H89473   3.980   7.587   8.512  0.0957  4.9936 -0.0163
  663MOL0     H89474   3.921   7.517   8.362  0.0737  1.2315 -1.8989
  663MOL0     H89475   4.213   7.564   8.449 -0.9819  0.0546  0.3614
  663MOL0     H89476   4.172   7.526   8.283  0.4048  1.4037 -0.4652
  663MOL0     H89477   4.090   7.313   8.354 -1.9640 -1.7220  2.8341
  663MOL0     H89478   4.103   7.347   8.529  0.0924 -0.5397 -0.7149
  663MOL0     H89479   4.337   7.350   8.328  0.2284  1.3530  0.2346
  663MOL0     H89480   4.349   7.373   8.499  0.5591  0.5627 -0.6450
  663MOL0     H89481   4.235   7.125   8.370  1.2152  2.3772 -1.7363
  663MOL0     H89482   4.257   7.153   8.548 -3.0743 -2.2507 -1.6052
  663MOL0     H89483   4.415   7.008   8.428 -4.1034 -0.3710  0.0334
  663MOL0     H89484   4.485   7.137   8.340  0.5969 -0.7726 -0.4972
  663MOL0     H89485   3.624   7.916   8.203 -2.7707 -0.3451  0.4896
  663MOL0     H89486   3.421   8.021   8.313 -1.0579  1.0374  0.6993
  663MOL0     H89487   3.213   8.411   8.316 -0.6101  0.1054  0.0946
  663MOL0     H89488   2.966   8.466   8.343  0.6330 -3.2108 -1.6833
  663MOL0     H89489   3.154   7.922   8.611  1.4999 -0.0398 -0.9503
  663MOL0     H89490   3.395   7.887   8.605  2.6950 -1.4242  0.3670
  663MOL0     H89491   3.743   7.746   8.811 -1.8066  0.4619 -1.7820
  663MOL0     H89492   3.984   7.747   8.865 -0.5996 -0.7511  1.9430
  663MOL0     H89493   4.210   7.407   8.693 -1.7427  0.0867  0.9033
  663MOL0     H89494   4.266   7.387   8.869  1.4745 -1.6874 -1.6890
  663MOL0     H89495   4.376   7.626   8.820  0.1578  0.1223 -0.4075
  663MOL0     H89496   4.372   7.564   8.655 -0.4099  0.2576  0.8635
  663MOL0     H89497   4.575   7.502   8.713 -1.3262 -0.1975 -0.8148
  663MOL0     H89498   4.483   7.364   8.717 -0.0868  0.1494  0.1174
  663MOL0     H89499   4.579   7.521   8.966  1.9208  0.7521 -2.7711
  663MOL0     H89500   4.471   7.372   8.980 -0.6664  0.3861  0.2912
  663MOL0     H89501   4.863   7.229   8.933 -0.9982 -0.5442 -2.0489
  663MOL0     H89502   4.004   7.348   8.723 -2.7909 -1.4167 -0.9776
  663MOL0     H89503   3.671   7.281   8.642 -0.2764 -1.5621 -0.4161
  663MOL0     H89504   3.800   7.319   8.527  0.6916  0.9670  0.2469
  663MOL0     H89505   3.827   7.220   8.678  0.4302 -0.5415 -2.5259
  664MOL0     O89506  10.624   1.622   7.510  0.3393 -0.5748 -0.0001
  664MOL0     C89507  10.587   1.514   7.462  1.7837  0.2148  1.3277
  664MOL0     O89508  10.649   1.395   7.479 -0.0603 -0.3690 -0.0685
  664MOL0     C89509  10.758   1.404   7.566  0.4401  0.2676 -0.3146
  664MOL0     C89510  10.863   1.339   7.508 -1.2063 -0.7429 -0.5849
  664MOL0     C89511  10.983   1.314   7.587 -0.2553 -1.1233 -0.6078
  664MOL0     C89512  10.993   1.365   7.722 -0.4511  0.4016  0.1960
  664MOL0     O89513  11.115   1.374   7.777 -0.8631 -0.1662 -0.4139
  664MOL0     C89514  11.172   1.252   7.832  0.6056 -0.2392  0.7442
  664MOL0     C89515  11.308   1.277   7.892 -0.6496 -0.1323  0.0832
  664MOL0     C89516  11.282   1.312   8.045 -1.0821 -1.2985  0.6862
  664MOL0     C89517  11.411   1.330   8.116 -0.2002  0.3343 -0.6624
  664MOL0     C89518  11.381   1.297   8.265  0.0355 -0.4958 -0.2843
  664MOL0     C89519  11.513   1.312   8.345 -0.2405 -0.6240  0.6453
  664MOL0     C89520  11.504   1.272   8.486  0.2207  0.3515 -0.0557
  664MOL0     C89521  11.648   1.282   8.561  0.3132 -0.5580  0.4612
  664MOL0     N89522  11.744   1.176   8.528 -0.5926 -0.8654 -0.6314
  664MOL0     C89523  11.876   1.199   8.489 -0.9132  0.6848 -0.3834
  664MOL0     C89524  11.910   1.080   8.434  0.7184 -0.6786 -0.1106
  664MOL0     C89525  12.039   1.047   8.363 -0.6724 -0.2393 -0.9412
  664MOL0     C89526  12.040   1.115   8.224 -0.0216  0.0904  0.0246
  664MOL0     C89527  12.180   1.121   8.169 -0.0038  0.3781 -0.0090
  664MOL0     C89528  12.198   1.016   8.065  0.0968  0.8195 -0.0844
  664MOL0     O89529  12.127   1.062   7.949  1.0640  0.6664  0.3644
  664MOL0     C89530  12.143   0.997   7.827  0.1685  0.0418 -0.0318
  664MOL0     C89531  12.242   0.897   7.797  0.2573  0.3551 -0.2224
  664MOL0     C89532  12.241   0.837   7.669  0.3008 -0.1650  0.2817
  664MOL0     C89533  12.137   0.858   7.573 -0.4068  0.3141 -0.0097
  664MOL0     C89534  12.143   0.778   7.448 -0.0509 -1.0914  0.2693
  664MOL0     O89535  12.029   0.771   7.370 -0.0373 -0.2482  0.2849
  664MOL0     C89536  12.046   0.761   7.237  0.2698  0.8261  0.3319
  664MOL0     C89537  11.959   0.668   7.179  0.1043  0.5131 -0.5988
  664MOL0     C89538  11.969   0.641   7.050  0.8527  0.3423  0.3180
  664MOL0     C89539  12.057   0.701   6.957  0.2994 -0.0219 -0.0485
  664MOL0     O89540  12.046   0.671   6.827 -0.2154  0.4582 -0.1732
  664MOL0     C89541  12.105   0.546   6.790 -0.4171 -0.3893  0.3997
  664MOL0     C89542  12.071   0.512   6.646  0.7565  1.0581 -0.1305
  664MOL0     C89543  12.114   0.618   6.549  0.4129 -0.4221 -0.1813
  664MOL0     C89544  12.139   0.571   6.400  0.1174  0.6404  0.5635
  664MOL0     C89545  12.150   0.697   6.295 -0.4287 -0.1633 -0.2020
  664MOL0     C89546  12.112   0.646   6.152  0.0220  0.0251  0.3801
  664MOL0     C89547  12.208   0.531   6.092  0.1384  0.5560  0.6799
  664MOL0     C89548  12.177   0.486   5.953  1.0081  0.4417  0.4154
  664MOL0    Cl89549  12.202   0.627   5.838 -0.4381 -0.0982 -0.3383
  664MOL0     C89550  12.147   0.786   7.010  0.0931 -0.2864  0.6578
  664MOL0     C89551  12.146   0.820   7.147 -0.6350 -0.3183 -0.4925
  664MOL0     O89552  12.258   0.729   7.417  0.2590 -0.9565 -0.0488
  664MOL0     C89553  12.028   0.945   7.613  0.5592  0.1876 -0.3766
  664MOL0     C89554  12.032   1.007   7.733  0.4696  0.3602  0.4478
  664MOL0     N89555  11.818   0.983   8.475 -0.5821  0.6855 -0.1365
  664MOL0     N89556  11.727   1.044   8.541  0.6768 -0.3704  0.2200
  664MOL0     C89557  10.887   1.429   7.780 -0.7977 -0.1673  0.8406
  664MOL0     C89558  10.772   1.447   7.696  0.5995 -0.9376 -0.1713
  664MOL0     C89559  10.489   1.518   7.352  0.2381  0.2750 -0.2433
  664MOL0     C89560  10.377   1.440   7.350  0.1036  0.0612 -0.6670
  664MOL0     C89561  10.297   1.440   7.240 -0.0085  0.5437 -0.7306
  664MOL0     C89562  10.321   1.513   7.128 -0.1611  0.2449  1.0706
  664MOL0     O89563  10.255   1.476   7.010  0.2382  0.3251  0.0576
  664MOL0     C89564  10.341   1.419   6.912 -0.4216  0.1936 -0.6212
  664MOL0     C89565  10.293   1.433   6.769  0.4596 -0.2288 -0.4011
  664MOL0     C89566  10.281   1.578   6.721  0.5838 -0.5099  0.4284
  664MOL0     C89567  10.227   1.585   6.579  0.6351 -0.5629  0.6778
  664MOL0     C89568  10.186   1.718   6.537 -0.0586  0.4897  0.4851
  664MOL0     C89569  10.147   1.822   6.484 -0.0984  0.2014  1.1666
  664MOL0     C89570  10.436   1.590   7.127 -0.0321  0.3459  0.0322
  664MOL0     C89571  10.518   1.599   7.240  0.3707  0.2740 -0.0830
  664MOL0     C89572  10.631   1.693   7.214 -0.0084  0.4822  0.5501
  664MOL0     H89573  10.865   1.303   7.406 -0.7419 -1.2291 -0.4092
  664MOL0     H89574  11.078   1.286   7.544  0.2258  3.0755 -2.8227
  664MOL0     H89575  11.105   1.200   7.900 -0.5411  0.1490 -0.0590
  664MOL0     H89576  11.181   1.183   7.747 -2.2805 -1.0638  1.0119
  664MOL0     H89577  11.369   1.355   7.847  0.0642 -0.5924  0.2368
  664MOL0     H89578  11.364   1.183   7.892  0.3923  0.4587  1.3668
  664MOL0     H89579  11.235   1.225   8.091  1.1428 -2.3816  1.0291
  664MOL0     H89580  11.224   1.404   8.055  2.5478  1.3408 -0.3470
  664MOL0     H89581  11.484   1.257   8.077 -1.2809  0.2734 -2.7189
  664MOL0     H89582  11.470   1.416   8.085  2.8313 -1.2042  0.3839
  664MOL0     H89583  11.295   1.354   8.300 -1.0732 -0.5604 -2.7006
  664MOL0     H89584  11.352   1.192   8.269 -1.0663 -0.1617  1.2974
  664MOL0     H89585  11.574   1.235   8.296 -0.7022 -0.0275 -0.9425
  664MOL0     H89586  11.550   1.415   8.341 -0.5427 -0.4944  1.1770
  664MOL0     H89587  11.476   1.167   8.497 -1.3056  0.6548 -0.8799
  664MOL0     H89588  11.427   1.317   8.549 -0.1402 -1.3682  0.7751
  664MOL0     H89589  11.689   1.382   8.543  0.0261 -0.5829 -0.3452
  664MOL0     H89590  11.628   1.275   8.669 -0.1044  1.8589  0.5910
  664MOL0     H89591  11.932   1.292   8.493 -0.1162  0.1712  2.5583
  664MOL0     H89592  12.127   1.081   8.419 -2.3816  2.7090  0.1723
  664MOL0     H89593  12.046   0.939   8.347 -1.9886 -0.2719 -1.3473
  664MOL0     H89594  11.961   1.075   8.160 -1.7924 -1.1260  2.7791
  664MOL0     H89595  12.011   1.220   8.237  0.3052  0.3996 -1.5346
  664MOL0     H89596  12.258   1.112   8.245 -1.9767  0.6006  2.1353
  664MOL0     H89597  12.193   1.220   8.123  2.7608 -0.3161 -0.9474
  664MOL0     H89598  12.172   0.915   8.097  0.6017  0.1417 -1.7126
  664MOL0     H89599  12.303   1.005   8.035 -0.8464 -1.6586 -2.8558
  664MOL0     H89600  12.309   0.881   7.880 -0.3301 -1.4170 -0.0481
  664MOL0     H89601  12.321   0.768   7.644 -2.3945 -2.7878 -1.7695
  664MOL0     H89602  11.895   0.610   7.244  2.2261 -0.8411  0.3900
  664MOL0     H89603  11.896   0.569   7.016  2.2240 -1.1510  0.4657
  664MOL0     H89604  12.214   0.551   6.792 -0.4605  1.2782  3.0124
  664MOL0     H89605  12.076   0.470   6.863  0.8896 -2.4275 -1.0759
  664MOL0     H89606  12.120   0.418   6.623 -0.7790  0.6607 -2.0611
  664MOL0     H89607  11.963   0.497   6.632  0.6864  2.6702 -1.8697
  664MOL0     H89608  12.035   0.694   6.546  0.8542  0.2226  2.4657
  664MOL0     H89609  12.203   0.671   6.584 -1.2817  1.8655  0.9174
  664MOL0     H89610  12.056   0.510   6.365  1.8444 -1.5197  0.0287
  664MOL0     H89611  12.234   0.517   6.402 -1.6292 -2.6566  1.8019
  664MOL0     H89612  12.256   0.725   6.288 -0.3168 -0.9549 -2.5148
  664MOL0     H89613  12.077   0.775   6.319 -1.8442 -1.6811  0.6145
  664MOL0     H89614  12.008   0.614   6.146  0.2242 -0.5043 -5.1745
  664MOL0     H89615  12.120   0.733   6.087 -1.3998  0.7499  1.1136
  664MOL0     H89616  12.196   0.439   6.150 -0.3649 -0.9996 -1.7481
  664MOL0     H89617  12.316   0.546   6.090  0.1826  0.4408 -2.3766
  664MOL0     H89618  12.229   0.395   5.921 -0.9470 -0.6310  0.0771
  664MOL0     H89619  12.073   0.455   5.941  1.3324  0.1701 -2.4994
  664MOL0     H89620  12.224   0.827   6.945  1.1562 -0.0275  2.0409
  664MOL0     H89621  12.205   0.900   7.191 -2.4669  1.0091 -0.3184
  664MOL0     H89622  11.936   0.952   7.555  0.5642 -4.1280 -1.2617
  664MOL0     H89623  11.950   1.068   7.768 -0.0560 -1.3351  2.4148
  664MOL0     H89624  10.903   1.467   7.880 -0.6694  0.1809  0.6901
  664MOL0     H89625  10.679   1.494   7.728 -0.2008 -1.2519 -1.9279
  664MOL0     H89626  10.346   1.375   7.430 -0.9066  1.6227  0.2669
  664MOL0     H89627  10.218   1.365   7.242 -1.3282  1.8368 -1.9837
  664MOL0     H89628  10.355   1.315   6.944 -0.4110  0.4430  0.2111
  664MOL0     H89629  10.437   1.469   6.902 -0.8282  0.9540 -0.7619
  664MOL0     H89630  10.202   1.373   6.770 -0.4713  1.0638  1.8397
  664MOL0     H89631  10.372   1.391   6.706  0.2831 -1.3636  0.1198
  664MOL0     H89632  10.378   1.628   6.716  0.5369 -0.5159 -2.1916
  664MOL0     H89633  10.212   1.630   6.789 -2.6968 -4.7296  0.7785
  664MOL0     H89634  10.298   1.542   6.508 -0.8503 -0.3929 -0.9751
  664MOL0     H89635  10.135   1.526   6.577  1.5056 -1.9445 -1.1700
  664MOL0     H89636  10.119   1.920   6.451  2.0221  0.2799 -0.6932
  664MOL0     H89637  10.465   1.646   7.039 -1.5614  1.5419  0.2260
  664MOL0     H89638  10.683   1.725   7.305 -2.0382 -2.4890  2.9831
  664MOL0     H89639  10.710   1.648   7.154 -0.2216  3.4852 -2.2677
  664MOL0     H89640  10.603   1.780   7.154  0.1379 -2.1963 -3.8396
  665MOL0     O89641   7.099   0.666   8.375  0.4178 -0.0025  1.3028
  665MOL0     C89642   7.149   0.561   8.385  0.6465  0.6173  0.0652
  665MOL0     O89643   7.103   0.439   8.332 -0.4450 -0.3666  0.0725
  665MOL0     C89644   6.997   0.432   8.256  0.6074 -0.3719  0.0345
  665MOL0     C89645   6.870   0.493   8.284  0.0277  0.4216 -0.7172
  665MOL0     C89646   6.771   0.477   8.191 -0.2583 -0.6670 -0.5856
  665MOL0     C89647   6.784   0.406   8.074  0.3101 -0.0342  0.6632
  665MOL0     O89648   6.693   0.390   7.968 -0.2760 -0.1607 -0.7326
  665MOL0     C89649   6.566   0.443   7.996 -0.0350 -0.1380  0.1856
  665MOL0     C89650   6.467   0.411   7.892 -0.7155 -0.2607  0.3745
  665MOL0     C89651   6.430   0.259   7.891 -0.4811 -0.1216 -0.3620
  665MOL0     C89652   6.327   0.243   7.770  0.4358 -0.3569 -0.8664
  665MOL0     C89653   6.313   0.094   7.711 -0.3010 -0.5790  0.7280
  665MOL0     C89654   6.191   0.024   7.775 -0.0175 -0.2914  0.3657
  665MOL0     C89655   6.152  -0.111   7.699 -0.0971 -0.2725  0.0465
  665MOL0     C89656   6.254  -0.221   7.728  0.7271 -0.1632 -0.1607
  665MOL0     N89657   6.197  -0.348   7.683 -0.4391  0.7859  0.3305
  665MOL0     C89658   6.090  -0.415   7.740 -0.6273 -0.2697 -0.1934
  665MOL0     C89659   6.079  -0.534   7.666 -0.6113 -1.0245  0.4064
  665MOL0     C89660   5.971  -0.646   7.691 -0.2974 -0.1665 -0.4005
  665MOL0     C89661   5.882  -0.663   7.571 -0.6851  0.7174  0.2467
  665MOL0     C89662   5.795  -0.793   7.575  0.7094 -0.9568  0.8860
  665MOL0     C89663   5.719  -0.807   7.449 -0.0066 -0.2951 -0.3930
  665MOL0     O89664   5.612  -0.709   7.428  0.2411 -0.3683 -0.2919
  665MOL0     C89665   5.528  -0.745   7.323  0.3318  0.3826  0.4681
  665MOL0     C89666   5.406  -0.679   7.310 -0.0473 -0.2624 -0.1005
  665MOL0     C89667   5.320  -0.696   7.200 -0.2089 -0.4444  0.4988
  665MOL0     C89668   5.361  -0.774   7.091 -0.7821  0.9112 -0.6668
  665MOL0     C89669   5.282  -0.764   6.967 -0.1629  1.1651  0.0264
  665MOL0     O89670   5.170  -0.681   6.960  0.1458 -0.1370  0.6319
  665MOL0     C89671   5.092  -0.687   6.850 -0.3628 -0.0643  0.6540
  665MOL0     C89672   5.127  -0.606   6.731 -0.0624 -0.8598  0.1316
  665MOL0     C89673   5.028  -0.612   6.625 -1.1270 -0.5636 -0.8729
  665MOL0     C89674   4.915  -0.692   6.636 -0.7265 -0.4869  0.8526
  665MOL0     O89675   4.836  -0.695   6.525 -0.3407  0.3209  0.1240
  665MOL0     C89676   4.694  -0.697   6.534 -0.5676 -0.5951  0.5285
  665MOL0     C89677   4.644  -0.667   6.393  0.1465 -0.1408  0.5606
  665MOL0     C89678   4.486  -0.655   6.391  0.1175  0.2561  0.7348
  665MOL0     C89679   4.443  -0.651   6.245 -0.0933  0.8524 -0.1280
  665MOL0     C89680   4.292  -0.628   6.225 -0.2593  1.0479 -0.0039
  665MOL0     C89681   4.274  -0.635   6.070 -0.0729  0.7916  0.1380
  665MOL0     C89682   4.125  -0.627   6.038  0.2491 -0.0756 -0.5147
  665MOL0     C89683   4.106  -0.638   5.886  0.1925  0.3126 -0.8678
  665MOL0    Cl89684   4.133  -0.795   5.818 -0.2606  0.0013 -0.1202
  665MOL0     C89685   4.897  -0.782   6.741  0.1387 -0.5489  0.1041
  665MOL0     C89686   4.986  -0.777   6.846 -0.2343  0.1723 -0.2334
  665MOL0     O89687   5.321  -0.844   6.881  0.7210  0.3197 -0.0705
  665MOL0     C89688   5.490  -0.839   7.093 -0.1509  0.1072  0.5151
  665MOL0     C89689   5.571  -0.817   7.210  0.0935 -0.0341  0.1640
  665MOL0     N89690   6.172  -0.525   7.564 -0.3876  0.0155  0.6361
  665MOL0     N89691   6.232  -0.409   7.564  0.5193 -0.3208  0.0969
  665MOL0     C89692   6.908   0.342   8.054  0.1071  0.2285  0.5592
  665MOL0     C89693   7.011   0.353   8.145 -0.4626 -0.1465 -0.2758
  665MOL0     C89694   7.247   0.554   8.490  0.4936 -0.0070  0.1841
  665MOL0     C89695   7.268   0.436   8.562  0.6480  0.7459 -0.3301
  665MOL0     C89696   7.364   0.410   8.656  0.4670 -0.0407  1.0282
  665MOL0     C89697   7.469   0.503   8.675  0.5086  0.4886  0.4846
  665MOL0     O89698   7.579   0.488   8.768 -0.4188 -0.1413  0.1637
  665MOL0     C89699   7.642   0.358   8.763  0.3139 -0.5682  1.0338
  665MOL0     C89700   7.686   0.308   8.619 -0.1880 -0.0932 -0.0754
  665MOL0     C89701   7.802   0.388   8.560  0.6969 -0.1960  0.0507
  665MOL0     C89702   7.937   0.371   8.629 -0.4405  0.5949 -0.4865
  665MOL0     C89703   7.974   0.228   8.651 -0.7016 -1.0971 -0.2384
  665MOL0     C89704   7.999   0.115   8.679 -0.3614 -0.0126  0.0998
  665MOL0     C89705   7.456   0.625   8.606 -0.3999  0.4932 -0.5429
  665MOL0     C89706   7.351   0.654   8.512 -1.0047  0.1369  0.0369
  665MOL0     C89707   7.375   0.778   8.425  0.9677 -0.3940 -0.0921
  665MOL0     H89708   6.859   0.561   8.368 -2.8799 -0.3277 -0.3806
  665MOL0     H89709   6.680   0.530   8.217 -0.1136 -1.8191  2.6136
  665MOL0     H89710   6.507   0.395   8.074 -1.7374  0.0311 -0.9439
  665MOL0     H89711   6.581   0.549   8.019 -0.1557 -0.6587  3.0705
  665MOL0     H89712   6.503   0.439   7.792  2.0040 -3.3633  0.3220
  665MOL0     H89713   6.381   0.468   7.928  2.0695  2.6846  3.0978
  665MOL0     H89714   6.379   0.231   7.984  0.2581 -0.0387  0.0719
  665MOL0     H89715   6.517   0.194   7.881  0.1313  0.4213  1.1834
  665MOL0     H89716   6.233   0.287   7.803  1.6238 -0.4788  3.1460
  665MOL0     H89717   6.355   0.308   7.686  0.2331  2.1017  0.8769
  665MOL0     H89718   6.293   0.094   7.604 -1.5701 -0.5385  0.9574
  665MOL0     H89719   6.407   0.041   7.729  0.6195 -0.1184 -2.1362
  665MOL0     H89720   6.208   0.012   7.882  0.5274 -2.7480  0.0687
  665MOL0     H89721   6.114   0.100   7.764  3.0520  2.9431 -0.7539
  665MOL0     H89722   6.141  -0.098   7.591  0.3350 -1.2616 -0.1237
  665MOL0     H89723   6.057  -0.153   7.732  1.1386 -2.3977  1.0877
  665MOL0     H89724   6.340  -0.190   7.667  0.9827 -1.0847 -0.2876
  665MOL0     H89725   6.285  -0.229   7.833  2.8054 -1.6814 -0.8185
  665MOL0     H89726   6.023  -0.394   7.822 -1.9469 -2.3171 -0.6763
  665MOL0     H89727   6.026  -0.737   7.719 -0.7691 -0.1057  0.7519
  665MOL0     H89728   5.910  -0.618   7.777 -1.2316 -2.1022 -0.3813
  665MOL0     H89729   5.814  -0.579   7.561 -1.0287  0.3644 -0.4262
  665MOL0     H89730   5.951  -0.665   7.486 -1.6300  0.5812 -0.5228
  665MOL0     H89731   5.724  -0.806   7.657 -1.7661  1.1676 -0.7455
  665MOL0     H89732   5.869  -0.873   7.574  0.5196 -1.1919 -1.5995
  665MOL0     H89733   5.670  -0.905   7.455 -0.8129  0.1676  1.1697
  665MOL0     H89734   5.803  -0.792   7.380  1.5901 -0.2805  1.4923
  665MOL0     H89735   5.365  -0.614   7.386  2.0082  1.4856 -0.3785
  665MOL0     H89736   5.229  -0.636   7.199  1.0928  1.8173 -3.1302
  665MOL0     H89737   5.202  -0.528   6.720  0.1337 -0.7686  1.7933
  665MOL0     H89738   5.052  -0.547   6.542  2.0228 -2.1544 -1.3905
  665MOL0     H89739   4.651  -0.789   6.574 -0.6574 -0.3811  0.9371
  665MOL0     H89740   4.663  -0.625   6.611 -0.4932 -2.0198  1.9466
  665MOL0     H89741   4.686  -0.568   6.370 -0.1395  0.1235  1.1484
  665MOL0     H89742   4.675  -0.757   6.341 -3.5207 -3.0109  2.8416
  665MOL0     H89743   4.441  -0.741   6.442 -0.1422 -1.7651 -2.5883
  665MOL0     H89744   4.455  -0.563   6.442 -1.0057  0.3095 -0.0096
  665MOL0     H89745   4.471  -0.746   6.197 -4.2736 -1.4712  1.5235
  665MOL0     H89746   4.497  -0.566   6.202 -1.1242  0.8565 -1.4535
  665MOL0     H89747   4.255  -0.530   6.257  1.0940  1.5241  0.1461
  665MOL0     H89748   4.240  -0.705   6.283 -2.1250  2.5243  0.3919
  665MOL0     H89749   4.326  -0.551   6.023  1.9778 -0.3223  0.3072
  665MOL0     H89750   4.314  -0.727   6.026 -1.7866  0.3023 -0.4741
  665MOL0     H89751   4.090  -0.526   6.059 -0.8431 -0.3323 -0.9925
  665MOL0     H89752   4.065  -0.699   6.095  0.3779  0.2812  0.0750
  665MOL0     H89753   3.999  -0.614   5.880 -0.4089 -1.4054  1.5990
  665MOL0     H89754   4.172  -0.560   5.847  1.4375 -0.0083  0.5372
  665MOL0     H89755   4.821  -0.858   6.725 -3.0148  2.3728  0.0057
  665MOL0     H89756   4.973  -0.850   6.925  1.8765 -1.0293 -0.9279
  665MOL0     H89757   5.531  -0.889   7.006 -0.3864  0.5811  0.1229
  665MOL0     H89758   5.663  -0.872   7.196 -1.5492 -2.7366 -0.7529
  665MOL0     H89759   6.929   0.270   7.976  2.6624 -0.8700  2.1219
  665MOL0     H89760   7.101   0.302   8.113 -0.1815  1.2162 -1.7720
  665MOL0     H89761   7.201   0.354   8.541 -1.6212  2.1579  1.0209
  665MOL0     H89762   7.370   0.312   8.703 -0.4636 -0.0153  1.2130
  665MOL0     H89763   7.564   0.292   8.803  0.9829  0.0102  3.4222
  665MOL0     H89764   7.724   0.353   8.834 -1.1661  0.2080  2.8821
  665MOL0     H89765   7.597   0.316   8.557  0.0101  1.4211 -0.1936
  665MOL0     H89766   7.717   0.203   8.622 -1.3447 -0.4319  1.0236
  665MOL0     H89767   7.778   0.495   8.566  0.2190 -0.3376  0.7857
  665MOL0     H89768   7.825   0.357   8.458 -3.0521 -3.1508 -0.0946
  665MOL0     H89769   8.029   0.404   8.580  0.8160 -1.2470  0.5385
  665MOL0     H89770   7.941   0.426   8.724  3.1904  4.8414 -2.7111
  665MOL0     H89771   8.022   0.015   8.709 -2.9562 -0.7085  0.0170
  665MOL0     H89772   7.534   0.699   8.616 -0.0584  0.0721 -0.0581
  665MOL0     H89773   7.362   0.756   8.319 -1.5173 -2.3440  0.5140
  665MOL0     H89774   7.295   0.847   8.450 -0.2004 -1.7060 -0.0694
  665MOL0     H89775   7.472   0.829   8.427  0.2496  1.0196 -0.3075
  666MOL0     O89776   0.836   7.735   6.900 -0.2981  0.0267  0.5888
  666MOL0     C89777   0.861   7.643   6.827 -0.3498 -1.0545  0.1978
  666MOL0     O89778   0.804   7.610   6.711  0.3132 -0.1359  0.3658
  666MOL0     C89779   0.724   7.709   6.646  0.9546  0.0244 -0.1739
  666MOL0     C89780   0.588   7.734   6.689 -0.2531  0.4873 -0.1497
  666MOL0     C89781   0.521   7.829   6.620 -0.6936 -0.6895  0.6749
  666MOL0     C89782   0.570   7.900   6.505  0.0131  0.1013 -0.5254
  666MOL0     O89783   0.485   7.985   6.439 -0.8149 -0.4452 -0.1466
  666MOL0     C89784   0.535   8.093   6.358 -0.1166 -0.1149  0.1465
  666MOL0     C89785   0.439   8.121   6.244  0.2700  0.0828 -0.7583
  666MOL0     C89786   0.302   8.162   6.305 -1.4734  0.3331  0.0454
  666MOL0     C89787   0.195   8.210   6.204  0.1212  0.3838  0.1913
  666MOL0     C89788   0.147   8.116   6.082 -0.7823 -0.1876  0.0631
  666MOL0     C89789   0.085   7.989   6.131  0.0749  0.9076 -0.2692
  666MOL0     C89790   0.041   7.915   6.005  0.6859 -0.0426 -0.5977
  666MOL0     C89791  -0.076   7.822   6.050 -0.0051  0.9902 -0.7221
  666MOL0     N89792  -0.033   7.686   6.040 -0.0527  0.1386  0.0760
  666MOL0     C89793   0.067   7.625   6.105  0.3763 -0.6864  0.6828
  666MOL0     C89794   0.088   7.506   6.060 -0.6769  0.5073  0.5570
  666MOL0     C89795   0.203   7.426   6.121  0.6378 -0.6776 -0.5151
  666MOL0     C89796   0.156   7.335   6.234 -0.7446 -1.8161 -0.3647
  666MOL0     C89797   0.173   7.188   6.192 -0.0036  0.4134 -0.1803
  666MOL0     C89798   0.208   7.089   6.303  0.6962  0.5125 -0.2888
  666MOL0     O89799   0.338   7.109   6.362  0.5611  0.5637 -0.8956
  666MOL0     C89800   0.386   7.009   6.455  0.4126 -0.1423  0.1207
  666MOL0     C89801   0.497   7.052   6.534 -0.0354  0.4376  0.4935
  666MOL0     C89802   0.554   6.964   6.622  0.0336  0.6218 -0.1071
  666MOL0     C89803   0.518   6.828   6.625  0.0446  0.6709  1.0118
  666MOL0     C89804   0.585   6.733   6.716 -0.0902  0.3183  0.1361
  666MOL0     O89805   0.683   6.785   6.795  0.6464  0.3472  0.1038
  666MOL0     C89806   0.777   6.706   6.872 -0.3569 -1.1301  0.5296
  666MOL0     C89807   0.870   6.777   6.948  1.0196 -0.4870 -0.2788
  666MOL0     C89808   0.978   6.713   7.006  0.3633 -0.6125 -1.0825
  666MOL0     C89809   0.987   6.579   7.014  0.0627 -0.2855 -0.3278
  666MOL0     O89810   1.082   6.507   7.086 -0.4136 -0.0777 -0.5019
  666MOL0     C89811   1.185   6.429   7.022  0.1056  0.0086 -0.4702
  666MOL0     C89812   1.198   6.300   7.092  0.3405  0.0399 -0.2725
  666MOL0     C89813   1.073   6.206   7.077  0.4044  0.4570 -0.8251
  666MOL0     C89814   0.957   6.224   7.173  0.5136 -0.0107 -0.3974
  666MOL0     C89815   0.987   6.167   7.312 -1.1213 -0.2505  0.2707
  666MOL0     C89816   1.032   6.016   7.308 -0.2952  0.3251 -0.5181
  666MOL0     C89817   1.167   5.988   7.391  0.1741 -0.0174  0.3119
  666MOL0     C89818   1.207   5.839   7.412  0.4160 -0.2325 -1.1302
  666MOL0    Cl89819   1.066   5.765   7.464 -0.1072  0.0590 -0.0264
  666MOL0     C89820   0.879   6.502   6.954  0.5522  0.0096 -0.2742
  666MOL0     C89821   0.783   6.564   6.867 -0.4285  0.6171 -0.1587
  666MOL0     O89822   0.534   6.619   6.730 -0.5112 -0.3926  0.4343
  666MOL0     C89823   0.403   6.789   6.544 -0.0577  1.4032  0.5873
  666MOL0     C89824   0.346   6.876   6.457  0.0187  0.1566 -0.5826
  666MOL0     N89825  -0.004   7.486   5.957 -0.1921  0.0289 -0.6394
  666MOL0     N89826  -0.070   7.596   5.948  0.0219  0.5712  1.5111
  666MOL0     C89827   0.701   7.871   6.470  0.1308  0.0873  0.7223
  666MOL0     C89828   0.781   7.778   6.534 -0.3223  0.2466 -0.1784
  666MOL0     C89829   0.969   7.560   6.865  0.0622  0.0836  0.7970
  666MOL0     C89830   0.973   7.503   6.990  0.4010 -0.2594  0.5154
  666MOL0     C89831   1.088   7.436   7.033 -0.0592  0.3361 -0.2233
  666MOL0     C89832   1.193   7.414   6.946 -0.0329 -0.1876 -0.3252
  666MOL0     O89833   1.304   7.347   6.985  0.5712  0.4598 -0.3039
  666MOL0     C89834   1.427   7.426   6.986  0.0689  0.0145 -0.2109
  666MOL0     C89835   1.422   7.514   7.121 -0.3692 -1.0891  0.6123
  666MOL0     C89836   1.424   7.434   7.241 -1.3148  0.5628 -0.2742
  666MOL0     C89837   1.379   7.517   7.369 -0.4516 -0.6020 -0.0217
  666MOL0     C89838   1.237   7.535   7.374  0.3033 -0.2628  0.1130
  666MOL0     C89839   1.122   7.552   7.373 -0.1555 -0.2082 -0.1907
  666MOL0     C89840   1.185   7.465   6.821  0.6082 -0.4170 -0.3632
  666MOL0     C89841   1.085   7.550   6.782 -1.0580  0.0242 -0.0691
  666MOL0     C89842   1.109   7.613   6.644  0.7039  0.0087 -0.8010
  666MOL0     H89843   0.547   7.676   6.771  1.4764  3.2543  2.9124
  666MOL0     H89844   0.416   7.854   6.636 -0.6357 -0.2239  0.3061
  666MOL0     H89845   0.549   8.184   6.418 -0.7358  0.8656 -1.1510
  666MOL0     H89846   0.635   8.067   6.322 -0.8332 -1.4263 -0.9725
  666MOL0     H89847   0.432   8.027   6.188  1.7550  1.2126 -3.0318
  666MOL0     H89848   0.468   8.205   6.180 -2.1433  2.4940  1.0832
  666MOL0     H89849   0.320   8.231   6.388 -0.9941  0.7329 -0.3885
  666MOL0     H89850   0.266   8.068   6.349 -0.1598 -1.8381 -3.1549
  666MOL0     H89851   0.112   8.244   6.266  3.0591  1.8634  3.6696
  666MOL0     H89852   0.242   8.299   6.160 -1.3809  1.6079  0.9549
  666MOL0     H89853   0.087   8.176   6.012 -1.9548  0.3810  1.5102
  666MOL0     H89854   0.231   8.088   6.017 -0.9988 -2.4857  0.6930
  666MOL0     H89855   0.161   7.931   6.186 -1.7421 -0.8506  0.5137
  666MOL0     H89856   0.012   8.006   6.211  2.7155 -1.2921  2.9134
  666MOL0     H89857   0.126   7.873   5.951  1.9622 -0.1565  1.4353
  666MOL0     H89858  -0.006   7.986   5.937 -0.5213  2.2158  2.3784
  666MOL0     H89859  -0.108   7.832   6.154  1.0905 -1.5369 -0.0672
  666MOL0     H89860  -0.160   7.833   5.981 -1.3518  1.3486  0.9011
  666MOL0     H89861   0.118   7.667   6.191 -1.9706  2.3231  0.7653
  666MOL0     H89862   0.246   7.381   6.031  0.9712  0.3363 -0.8754
  666MOL0     H89863   0.290   7.479   6.162  1.9248 -3.8562  1.2414
  666MOL0     H89864   0.205   7.349   6.331  0.4791 -1.0952 -1.0613
  666MOL0     H89865   0.050   7.361   6.246 -1.1097 -2.6862 -1.4997
  666MOL0     H89866   0.248   7.180   6.113 -1.5304  2.6603 -1.9777
  666MOL0     H89867   0.080   7.143   6.156 -0.8828 -0.1833  2.5744
  666MOL0     H89868   0.201   6.986   6.265 -1.4782  0.6765 -0.4206
  666MOL0     H89869   0.138   7.091   6.387  5.1687  0.9215  3.9169
  666MOL0     H89870   0.520   7.158   6.530  1.5970  0.0744 -3.0223
  666MOL0     H89871   0.625   7.013   6.687 -2.2631  0.9163  2.3726
  666MOL0     H89872   0.860   6.885   6.949  1.9806 -0.3741 -0.9857
  666MOL0     H89873   1.059   6.768   7.052  1.4545  0.2340 -3.7937
  666MOL0     H89874   1.161   6.406   6.918 -2.5672 -4.2626  0.8385
  666MOL0     H89875   1.280   6.479   7.043  0.6188 -2.3035  3.6639
  666MOL0     H89876   1.284   6.242   7.057 -0.2958 -1.0330 -0.0819
  666MOL0     H89877   1.216   6.333   7.195 -2.1055  2.1647 -0.4271
  666MOL0     H89878   1.036   6.216   6.975  1.9434 -1.6383 -1.6733
  666MOL0     H89879   1.103   6.100   7.080 -1.2610 -0.0237 -0.2565
  666MOL0     H89880   0.877   6.163   7.130 -0.9458  2.0465 -0.7452
  666MOL0     H89881   0.913   6.323   7.181 -1.7230 -0.9314 -0.6656
  666MOL0     H89882   0.900   6.191   7.374 -1.7013 -1.1926 -0.1546
  666MOL0     H89883   1.081   6.213   7.344 -0.2999 -0.6387 -1.4975
  666MOL0     H89884   0.954   5.964   7.365  0.5007  1.3048  1.5419
  666MOL0     H89885   1.013   5.962   7.214 -2.1559  2.4494 -1.4460
  666MOL0     H89886   1.169   6.034   7.491 -1.9886 -1.8449  1.2770
  666MOL0     H89887   1.250   6.044   7.347 -1.0065  1.5440 -0.0398
  666MOL0     H89888   1.244   5.781   7.326 -2.2428  1.0419 -3.2927
  666MOL0     H89889   1.292   5.834   7.481  2.1754 -3.0726 -3.2663
  666MOL0     H89890   0.890   6.395   6.967 -3.2876 -0.3082  1.5446
  666MOL0     H89891   0.725   6.494   6.806  1.4256  1.4506 -3.0884
  666MOL0     H89892   0.368   6.687   6.555  0.8210  1.0213 -0.0290
  666MOL0     H89893   0.261   6.836   6.402 -1.1777  0.7618  0.7687
  666MOL0     H89894   0.747   7.918   6.384  1.0278  0.3923  1.3544
  666MOL0     H89895   0.880   7.769   6.491 -0.3793 -2.9858  0.1468
  666MOL0     H89896   0.880   7.506   7.046  0.5906 -1.0399  0.8776
  666MOL0     H89897   1.097   7.384   7.127  0.1071 -0.7873 -0.8363
  666MOL0     H89898   1.428   7.477   6.889 -1.2635 -1.9863 -1.3431
  666MOL0     H89899   1.515   7.363   6.978  1.7324  1.6952  3.1650
  666MOL0     H89900   1.330   7.569   7.099 -1.4357 -3.1716 -0.4807
  666MOL0     H89901   1.510   7.576   7.138  0.6993 -1.4406 -2.7946
  666MOL0     H89902   1.521   7.386   7.260 -1.2938  1.3121  1.6300
  666MOL0     H89903   1.355   7.350   7.228 -0.4057 -0.9367  3.3520
  666MOL0     H89904   1.430   7.466   7.451  1.7695 -1.4449 -1.8094
  666MOL0     H89905   1.411   7.620   7.387 -0.2107 -0.3385 -1.7444
  666MOL0     H89906   1.017   7.567   7.360  0.1137  0.2017 -2.1824
  666MOL0     H89907   1.265   7.454   6.748 -0.2081  3.1630 -2.0439
  666MOL0     H89908   1.213   7.642   6.624  1.1228 -0.5458  0.4521
  666MOL0     H89909   1.069   7.536   6.578 -0.4957  0.3697 -0.5183
  666MOL0     H89910   1.042   7.699   6.640 -0.4256 -0.7658  0.6745
  667MOL0     O89911   8.341   8.784   3.204  0.4049 -0.2338  0.0800
  667MOL0     C89912   8.303   8.669   3.185  0.1511  0.8039  0.2806
  667MOL0     O89913   8.319   8.566   3.267  0.3978 -0.1065 -0.1635
  667MOL0     C89914   8.433   8.571   3.335  0.3673  0.0533 -0.6668
  667MOL0     C89915   8.415   8.549   3.468  0.2338 -0.0793 -0.3210
  667MOL0     C89916   8.520   8.539   3.554 -1.2649 -0.5373 -0.5184
  667MOL0     C89917   8.649   8.553   3.508 -0.0760 -0.4534 -0.6416
  667MOL0     O89918   8.755   8.553   3.599  0.3282 -0.4931 -0.2934
  667MOL0     C89919   8.883   8.515   3.550 -0.2780 -1.0717 -0.6562
  667MOL0     C89920   8.978   8.493   3.679  0.3130  0.2462  0.3615
  667MOL0     C89921   8.931   8.400   3.792  0.8790 -0.2303 -0.3876
  667MOL0     C89922   8.928   8.255   3.746 -0.5959  0.1828 -0.5107
  667MOL0     C89923   8.866   8.151   3.848  0.0062 -1.2307  0.0831
  667MOL0     C89924   8.969   8.048   3.883  0.2281  0.0313 -0.1091
  667MOL0     C89925   8.889   7.940   3.965  0.2034 -0.3373 -0.0159
  667MOL0     C89926   8.969   7.806   3.973 -0.2770 -0.3311  0.0307
  667MOL0     N89927   8.873   7.697   4.010  1.1738  0.5864 -0.3315
  667MOL0     C89928   8.837   7.655   4.137 -0.3684  0.1484  1.2378
  667MOL0     C89929   8.760   7.547   4.133  0.4103  0.8380  0.3212
  667MOL0     C89930   8.689   7.466   4.238 -0.1478  0.3173  0.1607
  667MOL0     C89931   8.546   7.523   4.265  0.3728  0.4810  0.5945
  667MOL0     C89932   8.451   7.515   4.135  0.3600 -0.1880  0.3501
  667MOL0     C89933   8.424   7.385   4.066  0.0178 -0.0546 -0.1939
  667MOL0     O89934   8.300   7.393   3.990 -0.5517 -0.7882 -0.4209
  667MOL0     C89935   8.307   7.443   3.860  0.2878  0.4333  0.5229
  667MOL0     C89936   8.421   7.504   3.801  0.7232 -0.2128 -0.3925
  667MOL0     C89937   8.424   7.547   3.671  0.5195  0.8449  0.6102
  667MOL0     C89938   8.294   7.554   3.604  0.4021 -0.0010  0.5036
  667MOL0     C89939   8.292   7.603   3.464 -0.9015  0.6568  0.1527
  667MOL0     O89940   8.173   7.607   3.397  0.4209  0.4120 -0.3296
  667MOL0     C89941   8.177   7.644   3.270 -0.3463 -1.1578  0.5018
  667MOL0     C89942   8.228   7.551   3.172 -0.5561  0.2111  0.3542
  667MOL0     C89943   8.245   7.590   3.038  0.1753 -0.9538 -0.5421
  667MOL0     C89944   8.211   7.723   3.003  0.4085 -0.0981 -0.4234
  667MOL0     O89945   8.250   7.775   2.878 -0.2703 -0.0782 -0.0908
  667MOL0     C89946   8.315   7.704   2.782  0.5544  0.3461 -0.4083
  667MOL0     C89947   8.332   7.797   2.662 -0.4945  0.3637 -0.3306
  667MOL0     C89948   8.439   7.766   2.560 -0.5756  0.1120  0.2723
  667MOL0     C89949   8.436   7.631   2.495  0.7959  0.4229 -0.0965
  667MOL0     C89950   8.546   7.616   2.381  0.2504 -0.8480  0.5796
  667MOL0     C89951   8.680   7.551   2.419 -0.2349 -0.5905 -0.5929
  667MOL0     C89952   8.785   7.555   2.307 -1.1963 -0.5635 -0.4775
  667MOL0     C89953   8.915   7.499   2.354 -0.5534 -0.8686 -0.0055
  667MOL0    Cl89954   8.894   7.321   2.381 -0.7283 -0.9455  0.1284
  667MOL0     C89955   8.148   7.803   3.097 -0.6244  1.5394 -0.7268
  667MOL0     C89956   8.117   7.764   3.228 -0.8319 -0.3165  0.0100
  667MOL0     O89957   8.404   7.649   3.416  0.6253 -0.1634 -0.8577
  667MOL0     C89958   8.181   7.508   3.661  0.1787 -0.2552 -0.1310
  667MOL0     C89959   8.187   7.442   3.790  0.2828 -0.2951 -0.0485
  667MOL0     N89960   8.747   7.516   3.998  0.0829 -0.6233  0.3021
  667MOL0     N89961   8.820   7.600   3.924  0.7588 -0.5240  0.3692
  667MOL0     C89962   8.663   8.582   3.371 -0.9794 -0.2157 -0.2504
  667MOL0     C89963   8.557   8.579   3.284  0.9639  1.2312  0.2100
  667MOL0     C89964   8.220   8.652   3.059  0.4086  0.2651  0.3225
  667MOL0     C89965   8.237   8.521   3.013 -0.5125 -0.9028  0.4072
  667MOL0     C89966   8.187   8.480   2.884 -0.2882 -0.8642 -0.0871
  667MOL0     C89967   8.134   8.576   2.806  0.2480  0.8037  0.7154
  667MOL0     O89968   8.088   8.559   2.677 -0.3138 -0.0162  0.6464
  667MOL0     C89969   8.136   8.445   2.609  0.3582  0.3131  0.0464
  667MOL0     C89970   8.135   8.463   2.460  0.2925 -0.0686  0.7516
  667MOL0     C89971   7.989   8.489   2.403  0.1588  0.1425 -0.4191
  667MOL0     C89972   7.990   8.487   2.245  0.6097 -0.6406  0.6164
  667MOL0     C89973   7.860   8.436   2.199  0.9901  1.0352  0.6468
  667MOL0     C89974   7.750   8.382   2.178 -0.0763 -1.4165  0.2473
  667MOL0     C89975   8.126   8.709   2.850 -0.0326 -0.3244 -0.0387
  667MOL0     C89976   8.162   8.751   2.981  0.2344 -0.2845  0.4727
  667MOL0     C89977   8.134   8.890   3.017 -1.0452  0.3246  0.0847
  667MOL0     H89978   8.317   8.542   3.513 -0.4047 -4.4021 -1.9479
  667MOL0     H89979   8.507   8.520   3.660 -2.9880  0.4983 -0.5119
  667MOL0     H89980   8.883   8.430   3.482 -1.8273 -0.8323 -0.9798
  667MOL0     H89981   8.918   8.601   3.493  0.7268 -0.5632  0.6776
  667MOL0     H89982   9.003   8.591   3.721  2.0703  0.6502 -1.4449
  667MOL0     H89983   9.071   8.457   3.634 -0.9492 -0.3110 -1.9724
  667MOL0     H89984   8.834   8.431   3.832  0.3699 -0.4343 -1.4482
  667MOL0     H89985   9.006   8.396   3.872 -0.4535  1.0770  1.0029
  667MOL0     H89986   8.877   8.243   3.650 -1.7595  1.9875 -0.1651
  667MOL0     H89987   9.029   8.225   3.718 -0.1399  1.3399 -0.1760
  667MOL0     H89988   8.824   8.202   3.935 -0.8984 -0.4703 -0.7852
  667MOL0     H89989   8.780   8.103   3.799 -0.3034 -2.6732  1.9128
  667MOL0     H89990   8.998   7.994   3.793 -0.9777 -0.5381 -0.1843
  667MOL0     H89991   9.049   8.095   3.942  1.9771 -0.8682 -1.6715
  667MOL0     H89992   8.793   7.917   3.919  1.5613 -2.0811 -2.1771
  667MOL0     H89993   8.858   7.990   4.057 -3.6471  0.0526 -1.3168
  667MOL0     H89994   9.023   7.780   3.882  3.3174 -2.5215  2.5493
  667MOL0     H89995   9.036   7.812   4.059  0.5809  1.1309 -0.7131
  667MOL0     H89996   8.869   7.701   4.231 -1.0726 -1.2234  2.1860
  667MOL0     H89997   8.697   7.359   4.213  3.1649  0.1040  1.5829
  667MOL0     H89998   8.744   7.482   4.332  0.5622 -0.9624 -0.0047
  667MOL0     H89999   8.516   7.456   4.346 -0.1979 -1.0480 -0.8185
  667MOL0     H90000   8.539   7.627   4.299 -1.0532  0.8544 -0.7195
  667MOL0     H90001   8.500   7.578   4.060  1.3651 -2.0456 -0.6142
  667MOL0     H90002   8.360   7.566   4.166 -0.3364  0.6473 -2.7398
  667MOL0     H90003   8.404   7.328   4.157 -1.5094  1.5589  0.5470
  667MOL0     H90004   8.510   7.347   4.010 -0.7278  0.0103 -1.4141
  667MOL0     H90005   8.520   7.512   3.843  1.5246 -4.7921 -0.8846
  667MOL0     H90006   8.515   7.579   3.621 -1.3277  1.8685 -2.3621
  667MOL0     H90007   8.245   7.448   3.200 -0.9721  0.1932  0.5560
  667MOL0     H90008   8.283   7.525   2.960 -0.1062 -3.6608  1.4389
  667MOL0     H90009   8.408   7.662   2.824  0.2772 -1.6537 -1.6618
  667MOL0     H90010   8.258   7.619   2.744  0.2646  0.9815 -1.4236
  667MOL0     H90011   8.234   7.806   2.614 -1.2386  1.2852  1.2877
  667MOL0     H90012   8.362   7.894   2.704  0.9974 -0.9788  1.8879
  667MOL0     H90013   8.417   7.838   2.480 -3.6657 -0.0053  0.9032
  667MOL0     H90014   8.539   7.783   2.600 -0.9493 -0.5793  1.5477
  667MOL0     H90015   8.337   7.607   2.454 -1.0557  0.1230  4.0374
  667MOL0     H90016   8.449   7.558   2.575 -0.4072 -0.7532 -0.9374
  667MOL0     H90017   8.562   7.718   2.346  2.6030 -1.6040 -0.7853
  667MOL0     H90018   8.508   7.569   2.289  3.1588 -2.6228  0.1536
  667MOL0     H90019   8.712   7.588   2.516 -2.2885 -4.2148  1.6818
  667MOL0     H90020   8.664   7.445   2.439  2.4866 -1.0359 -0.3728
  667MOL0     H90021   8.804   7.662   2.300 -2.8434 -0.1842  0.3095
  667MOL0     H90022   8.744   7.527   2.209 -1.0310 -0.1728 -0.6604
  667MOL0     H90023   8.997   7.511   2.282 -1.3242 -0.9485 -0.9197
  667MOL0     H90024   8.958   7.556   2.436 -1.4090 -0.2634  0.0353
  667MOL0     H90025   8.121   7.906   3.073  0.8328  2.0444 -0.2855
  667MOL0     H90026   8.067   7.837   3.291  0.5881  0.6124  0.1142
  667MOL0     H90027   8.086   7.521   3.611 -2.1400 -3.2739  3.0126
  667MOL0     H90028   8.099   7.396   3.835  0.7238 -1.9742 -0.8353
  667MOL0     H90029   8.759   8.611   3.331 -0.2831 -3.4557 -1.1896
  667MOL0     H90030   8.575   8.583   3.177  0.7103 -0.4109  0.0801
  667MOL0     H90031   8.307   8.444   3.045  3.2400  1.6878 -0.8112
  667MOL0     H90032   8.212   8.384   2.840 -0.8056 -0.4884 -1.2063
  667MOL0     H90033   8.075   8.357   2.633 -1.8807  1.9881  0.8186
  667MOL0     H90034   8.239   8.427   2.642  0.4670 -0.2852 -0.6074
  667MOL0     H90035   8.174   8.371   2.416  1.5477 -0.1578  1.9576
  667MOL0     H90036   8.197   8.548   2.428 -2.1848  1.9421  0.9668
  667MOL0     H90037   7.942   8.581   2.438  0.3024  0.7535 -1.7797
  667MOL0     H90038   7.931   8.406   2.446 -0.4020  2.4727  3.8762
  667MOL0     H90039   8.001   8.583   2.194  0.4262 -1.5805 -1.3094
  667MOL0     H90040   8.073   8.433   2.198  1.4110  0.5950  0.5748
  667MOL0     H90041   7.655   8.334   2.168 -0.6210 -0.6527  1.4418
  667MOL0     H90042   8.101   8.781   2.772 -0.4125  0.5622  0.8792
  667MOL0     H90043   8.043   8.937   2.979  0.4590  2.0310 -1.6007
  667MOL0     H90044   8.137   8.888   3.127  0.6997  0.0178  0.0583
  667MOL0     H90045   8.218   8.954   2.990 -1.0026  0.9690  1.6379
  668MOL0     O90046   7.894   2.781   4.653  0.3390  0.5107  0.2597
  668MOL0     C90047   7.852   2.792   4.763 -0.5462 -0.7775  1.5520
  668MOL0     O90048   7.912   2.857   4.857 -0.5097  0.1677 -0.1778
  668MOL0     C90049   8.034   2.933   4.838  0.3847  0.2909  0.5430
  668MOL0     C90050   8.152   2.885   4.789  0.3806  0.1125  0.6803
  668MOL0     C90051   8.266   2.969   4.792 -0.8896 -0.4276 -0.3892
  668MOL0     C90052   8.265   3.100   4.840 -0.5821 -1.0245 -0.1310
  668MOL0     O90053   8.374   3.183   4.833  0.7622 -0.6664 -0.5393
  668MOL0     C90054   8.360   3.326   4.846 -0.0566 -0.3642 -0.8347
  668MOL0     C90055   8.505   3.380   4.801  0.5386 -0.1372 -0.5593
  668MOL0     C90056   8.515   3.412   4.658 -0.0661 -0.0128 -1.1795
  668MOL0     C90057   8.460   3.310   4.567 -0.7076  0.3783  0.1681
  668MOL0     C90058   8.477   3.349   4.422 -0.0338 -0.7373  0.4949
  668MOL0     C90059   8.372   3.457   4.365 -0.7542  0.0615 -0.4701
  668MOL0     C90060   8.397   3.522   4.224 -0.3732 -0.8964 -0.1105
  668MOL0     C90061   8.356   3.421   4.120 -0.8974 -1.0985 -0.2146
  668MOL0     N90062   8.393   3.460   3.985  0.6138  0.1806  1.4211
  668MOL0     C90063   8.318   3.535   3.895  0.8531  0.6981  0.0175
  668MOL0     C90064   8.395   3.561   3.795 -0.4441  0.7435 -0.2372
  668MOL0     C90065   8.371   3.646   3.667 -0.0555  0.8391 -1.0502
  668MOL0     C90066   8.299   3.566   3.548  0.7248  0.2066 -1.0781
  668MOL0     C90067   8.262   3.651   3.425  0.3048  0.6527 -0.1889
  668MOL0     C90068   8.357   3.771   3.397 -0.4658 -0.6853 -0.2865
  668MOL0     O90069   8.320   3.827   3.272 -0.3858  0.7020 -0.0000
  668MOL0     C90070   8.390   3.811   3.154  0.3911  0.3885  0.4856
  668MOL0     C90071   8.393   3.912   3.056  0.0001 -0.3179  1.1403
  668MOL0     C90072   8.470   3.893   2.936 -0.5181  0.7010  0.8454
  668MOL0     C90073   8.535   3.773   2.904  0.0083  0.2477 -0.3806
  668MOL0     C90074   8.605   3.759   2.773  1.3903 -0.5092 -0.6763
  668MOL0     O90075   8.659   3.866   2.718  1.4563 -0.6401  0.1347
  668MOL0     C90076   8.744   3.841   2.621 -0.4060 -0.0507 -0.7856
  668MOL0     C90077   8.705   3.846   2.487  0.3792 -0.5517 -0.8299
  668MOL0     C90078   8.797   3.798   2.392  0.8900  0.0355  0.0778
  668MOL0     C90079   8.932   3.764   2.419  0.1530  0.5203 -0.6251
  668MOL0     O90080   9.016   3.734   2.322 -0.5964  0.4453 -0.3736
  668MOL0     C90081   9.154   3.719   2.352 -1.2109  0.3787 -0.3025
  668MOL0     C90082   9.223   3.696   2.222 -1.0005 -0.3753  0.0148
  668MOL0     C90083   9.257   3.818   2.136  0.4628 -0.4191  0.9268
  668MOL0     C90084   9.135   3.887   2.068  0.1621 -0.0721  1.0703
  668MOL0     C90085   9.032   3.794   2.005 -0.3864 -0.9974  0.1960
  668MOL0     C90086   8.902   3.855   1.992  0.1468 -0.7396  0.0401
  668MOL0     C90087   8.791   3.754   1.937 -0.2692 -0.5041 -0.8599
  668MOL0     C90088   8.662   3.826   1.921  0.0251 -1.3960 -0.2098
  668MOL0    Cl90089   8.543   3.734   1.839 -0.2035 -0.0627  0.4639
  668MOL0     C90090   8.964   3.769   2.557 -0.7295  0.0199  0.1614
  668MOL0     C90091   8.870   3.794   2.654 -0.0278 -0.3767 -1.3878
  668MOL0     O90092   8.603   3.648   2.723 -0.7619  0.5599  0.4461
  668MOL0     C90093   8.516   3.669   2.998  0.1060 -0.1145  0.0871
  668MOL0     C90094   8.443   3.685   3.119  0.0943  0.1982 -0.1902
  668MOL0     N90095   8.519   3.504   3.824 -0.1263 -0.7885  0.1271
  668MOL0     N90096   8.521   3.452   3.938 -0.7315  0.4775  0.1674
  668MOL0     C90097   8.142   3.148   4.887  0.4939  0.7484 -0.0720
  668MOL0     C90098   8.026   3.066   4.890  0.3693  0.1385  0.0648
  668MOL0     C90099   7.720   2.735   4.788 -0.1897  0.5139  0.2095
  668MOL0     C90100   7.659   2.770   4.908 -0.3198 -0.0998 -0.4647
  668MOL0     C90101   7.538   2.720   4.942 -0.6164 -0.0672 -0.4175
  668MOL0     C90102   7.471   2.637   4.857 -0.8515 -0.5179  0.4493
  668MOL0     O90103   7.348   2.592   4.892 -0.2281  0.4935  0.1924
  668MOL0     C90104   7.253   2.692   4.920 -0.0161 -0.1951  0.4212
  668MOL0     C90105   7.114   2.648   4.871 -0.6977 -0.0293  0.7526
  668MOL0     C90106   7.072   2.521   4.952 -1.0466  1.1552 -0.2676
  668MOL0     C90107   6.986   2.420   4.878 -0.4868 -0.1336  0.2236
  668MOL0     C90108   7.040   2.372   4.743 -0.3201 -0.3682 -0.7019
  668MOL0     C90109   7.074   2.346   4.632 -0.0358 -0.0538  0.7168
  668MOL0     C90110   7.519   2.601   4.736 -0.4276 -0.9183 -1.3034
  668MOL0     C90111   7.649   2.651   4.698  0.7475 -0.7632 -0.1220
  668MOL0     C90112   7.697   2.601   4.560 -0.0482 -0.1896 -0.3761
  668MOL0     H90113   8.156   2.781   4.758 -0.6760  0.5366 -1.0297
  668MOL0     H90114   8.357   2.936   4.743 -0.4545  2.9734 -2.1314
  668MOL0     H90115   8.280   3.381   4.795  1.4558  3.6809  0.7027
  668MOL0     H90116   8.337   3.351   4.950 -2.1793  0.8998 -1.5349
  668MOL0     H90117   8.582   3.307   4.825  2.8349  2.2492 -0.1725
  668MOL0     H90118   8.532   3.469   4.859 -1.3964 -0.2087  0.5217
  668MOL0     H90119   8.620   3.428   4.633  0.0702 -0.7144 -1.0818
  668MOL0     H90120   8.461   3.505   4.637 -2.3866 -0.1565  3.0291
  668MOL0     H90121   8.516   3.217   4.582 -0.3406  0.5196 -0.2990
  668MOL0     H90122   8.355   3.284   4.585 -0.1695 -2.6845 -0.5024
  668MOL0     H90123   8.579   3.385   4.413 -0.4919  1.5699  3.1237
  668MOL0     H90124   8.469   3.261   4.358 -0.2474 -0.1806 -0.2517
  668MOL0     H90125   8.271   3.414   4.371 -0.6874  0.1471  3.3310
  668MOL0     H90126   8.362   3.536   4.440 -3.0649 -0.6955  0.1026
  668MOL0     H90127   8.497   3.559   4.199 -0.7816 -0.2010 -0.7580
  668MOL0     H90128   8.331   3.603   4.193  0.2503 -0.4230 -0.2166
  668MOL0     H90129   8.414   3.332   4.144 -1.0405 -0.5287  2.4846
  668MOL0     H90130   8.253   3.386   4.127 -0.9966 -0.7350  0.1902
  668MOL0     H90131   8.214   3.564   3.884  0.9054  0.1466 -2.3680
  668MOL0     H90132   8.309   3.730   3.697 -0.6166  0.0195  0.2120
  668MOL0     H90133   8.465   3.688   3.631  0.3003  0.9843  0.0104
  668MOL0     H90134   8.372   3.492   3.515  3.5658  3.3363 -2.4382
  668MOL0     H90135   8.206   3.521   3.584 -0.5516  2.9782 -0.5969
  668MOL0     H90136   8.159   3.685   3.440  0.6501  1.1546  1.1939
  668MOL0     H90137   8.264   3.579   3.342 -0.5589  0.4113 -0.0099
  668MOL0     H90138   8.462   3.752   3.422 -1.2245 -0.0041  4.3349
  668MOL0     H90139   8.321   3.838   3.475 -2.1876 -2.3687  0.4614
  668MOL0     H90140   8.332   3.998   3.082 -1.6880 -0.9298 -0.5437
  668MOL0     H90141   8.476   3.983   2.876 -0.8597  0.5971  0.6526
  668MOL0     H90142   8.608   3.886   2.460  1.8291  4.8443  0.5806
  668MOL0     H90143   8.764   3.799   2.288 -0.7085  0.0405  0.5657
  668MOL0     H90144   9.189   3.797   2.420  4.2733  0.1218 -2.3146
  668MOL0     H90145   9.163   3.621   2.402 -4.9985 -1.0138 -1.9943
  668MOL0     H90146   9.320   3.654   2.249  0.7696  2.6097 -1.1765
  668MOL0     H90147   9.185   3.610   2.166 -0.3599 -1.7529  1.6105
  668MOL0     H90148   9.305   3.895   2.196 -5.4741  2.7186  2.4640
  668MOL0     H90149   9.324   3.787   2.056  0.2773  0.4801  0.4099
  668MOL0     H90150   9.163   3.968   2.000  0.5282 -1.7160 -0.8408
  668MOL0     H90151   9.082   3.936   2.150 -4.8964 -0.6178 -1.5014
  668MOL0     H90152   9.007   3.704   2.062 -1.6993 -0.3924  0.6086
  668MOL0     H90153   9.077   3.763   1.910  0.8007  0.5513  0.2201
  668MOL0     H90154   8.858   3.883   2.088  0.3168  1.6890 -0.5088
  668MOL0     H90155   8.910   3.944   1.928  0.1806 -1.8937 -1.6123
  668MOL0     H90156   8.780   3.677   2.013 -2.8501 -0.3555 -1.0008
  668MOL0     H90157   8.832   3.702   1.849 -0.8519 -1.7787 -0.3976
  668MOL0     H90158   8.620   3.857   2.017  2.3878 -0.4954  0.6054
  668MOL0     H90159   8.700   3.921   1.882  0.2603 -1.0683  0.7966
  668MOL0     H90160   9.065   3.738   2.583 -0.6845 -0.6513 -0.7361
  668MOL0     H90161   8.881   3.779   2.761  4.0059 -0.5181 -1.6712
  668MOL0     H90162   8.561   3.573   2.975 -1.1583 -1.3184  2.3004
  668MOL0     H90163   8.428   3.602   3.188  0.8840 -1.1457 -1.5960
  668MOL0     H90164   8.134   3.249   4.927  0.6658  0.4569  0.7114
  668MOL0     H90165   7.934   3.103   4.934  0.5150 -2.3828  2.8082
  668MOL0     H90166   7.712   2.839   4.973  2.7048 -2.0240 -0.6672
  668MOL0     H90167   7.487   2.764   5.027  1.7890  2.0538  0.0663
  668MOL0     H90168   7.276   2.786   4.868  0.3984 -0.9683 -0.8230
  668MOL0     H90169   7.249   2.729   5.023  0.4676  0.6251  0.1648
  668MOL0     H90170   7.126   2.631   4.763 -0.9847 -1.2849  0.9030
  668MOL0     H90171   7.044   2.732   4.883  0.0391  0.7441 -0.1817
  668MOL0     H90172   7.013   2.564   5.034 -1.1269  0.4087  0.0759
  668MOL0     H90173   7.159   2.473   4.998  0.2397  3.8686  0.3523
  668MOL0     H90174   6.991   2.328   4.937  3.5898 -1.4999 -1.8994
  668MOL0     H90175   6.882   2.455   4.875 -0.3721  0.6283  2.8807
  668MOL0     H90176   7.102   2.331   4.529 -0.2474  2.5350  0.2010
  668MOL0     H90177   7.468   2.522   4.682 -0.2777 -0.6133 -1.8945
  668MOL0     H90178   7.701   2.693   4.500  1.6014  0.8806  1.2789
  668MOL0     H90179   7.799   2.563   4.564 -0.0620 -0.1343  1.5639
  668MOL0     H90180   7.633   2.522   4.520 -2.5233  1.2461  0.4773
  669MOL0     O90181   1.196   7.361   4.928  0.0646 -0.6976 -0.2791
  669MOL0     C90182   1.253   7.309   4.837  0.5033 -1.2133 -0.2835
  669MOL0     O90183   1.256   7.359   4.711 -0.6354  0.0424 -0.6972
  669MOL0     C90184   1.211   7.486   4.670 -0.1398  0.2004  0.5806
  669MOL0     C90185   1.228   7.598   4.757 -0.6692  1.0023 -0.4722
  669MOL0     C90186   1.189   7.733   4.730 -0.6293  0.3795  0.9235
  669MOL0     C90187   1.132   7.754   4.611  0.1076 -0.0482  0.0703
  669MOL0     O90188   1.089   7.875   4.565  0.1001 -0.7954 -0.2685
  669MOL0     C90189   1.184   7.982   4.565  0.1302  0.4146 -0.3001
  669MOL0     C90190   1.121   8.109   4.633 -0.2886 -0.3197  0.7981
  669MOL0     C90191   0.973   8.111   4.612 -0.4788  0.1886  0.2909
  669MOL0     C90192   0.927   8.235   4.688 -0.0828 -0.3046  0.2130
  669MOL0     C90193   0.783   8.286   4.674 -0.0246 -0.0938  0.0019
  669MOL0     C90194   0.758   8.370   4.798 -0.8723  0.5461 -0.9082
  669MOL0     C90195   0.631   8.459   4.791 -0.0934  0.2583  0.4490
  669MOL0     C90196   0.647   8.566   4.902 -0.5331  0.1552 -0.1030
  669MOL0     N90197   0.520   8.635   4.922  0.1202  1.1223 -0.2981
  669MOL0     C90198   0.515   8.756   4.972 -0.0327  0.5072  0.7508
  669MOL0     C90199   0.381   8.783   4.976  0.5387  0.5456 -0.0063
  669MOL0     C90200   0.337   8.904   5.051 -0.1512 -0.0440 -0.0896
  669MOL0     C90201   0.373   9.026   4.969  0.0205  0.0206  0.9088
  669MOL0     C90202   0.291   9.146   5.009 -1.1130 -0.3361 -0.2122
  669MOL0     C90203   0.188   9.168   4.907  0.4994 -0.5761 -0.1785
  669MOL0     O90204   0.070   9.086   4.915 -0.0058 -0.1221 -0.0972
  669MOL0     C90205  -0.018   9.094   4.806 -0.0140  1.6762  0.0316
  669MOL0     C90206  -0.113   9.196   4.788  0.7420  0.2292  0.0041
  669MOL0     C90207  -0.189   9.186   4.674 -0.1535 -0.3909  0.1123
  669MOL0     C90208  -0.187   9.079   4.580 -0.5874 -0.1612  0.0221
  669MOL0     C90209  -0.273   9.088   4.461 -1.0282  0.7041  0.1420
  669MOL0     O90210  -0.359   9.188   4.460 -0.3500  0.0086 -0.3346
  669MOL0     C90211  -0.420   9.207   4.344 -0.2412 -0.2342 -1.4695
  669MOL0     C90212  -0.340   9.240   4.235  0.0818 -0.0356  0.5176
  669MOL0     C90213  -0.403   9.296   4.121  0.9318 -0.0760  0.2178
  669MOL0     C90214  -0.544   9.289   4.104  0.3299 -0.5703  0.8755
  669MOL0     O90215  -0.615   9.335   3.999 -0.3977  0.0582 -0.4930
  669MOL0     C90216  -0.537   9.364   3.878  0.8826  0.0068 -0.0873
  669MOL0     C90217  -0.634   9.423   3.768 -0.4909  0.0495  0.2454
  669MOL0     C90218  -0.571   9.446   3.635  0.6000 -0.5746 -0.0336
  669MOL0     C90219  -0.665   9.481   3.522  0.4697  0.7814 -0.8198
  669MOL0     C90220  -0.744   9.358   3.482  0.5638 -0.0567 -0.0677
  669MOL0     C90221  -0.855   9.386   3.377  0.0068 -0.1696 -0.3440
  669MOL0     C90222  -0.941   9.505   3.431 -0.0749 -0.5583  0.9538
  669MOL0     C90223  -1.056   9.521   3.335 -0.9454  0.6756  0.2303
  669MOL0    Cl90224  -1.022   9.620   3.198  0.2740 -0.4168  0.3007
  669MOL0     C90225  -0.618   9.267   4.216 -0.0567 -0.0702  0.0984
  669MOL0     C90226  -0.562   9.225   4.333  0.0922  0.4103  0.4810
  669MOL0     O90227  -0.270   8.993   4.383  0.5148  1.0612  0.0184
  669MOL0     C90228  -0.095   8.980   4.606 -0.0391  0.6138 -0.3412
  669MOL0     C90229  -0.022   8.984   4.724 -0.0026 -0.1495 -0.5822
  669MOL0     N90230   0.312   8.663   4.949 -0.1885 -0.1731  0.1587
  669MOL0     N90231   0.392   8.573   4.934  0.4900  0.0062  1.0035
  669MOL0     C90232   1.137   7.651   4.510 -0.5094 -0.2658 -0.0760
  669MOL0     C90233   1.159   7.515   4.543  0.2115 -1.1621  0.5208
  669MOL0     C90234   1.352   7.205   4.861 -0.4133  0.4769 -1.2289
  669MOL0     C90235   1.410   7.140   4.747  0.6664 -0.2297  1.0693
  669MOL0     C90236   1.485   7.025   4.761 -0.1187  0.6134  0.5193
  669MOL0     C90237   1.533   6.981   4.881 -0.0582 -1.4114 -0.1230
  669MOL0     O90238   1.627   6.880   4.877 -0.1972 -0.4012 -0.8493
  669MOL0     C90239   1.712   6.869   4.993 -1.0771 -0.5852 -1.7181
  669MOL0     C90240   1.813   6.755   4.974 -0.0339  0.0542 -0.1708
  669MOL0     C90241   1.891   6.771   4.835  0.0146  0.2977  0.5749
  669MOL0     C90242   2.016   6.867   4.859  0.2957 -0.2647  0.2502
  669MOL0     C90243   2.099   6.886   4.741  0.5637 -0.7235 -0.5836
  669MOL0     C90244   2.144   6.887   4.630 -0.3290 -0.0955  0.0219
  669MOL0     C90245   1.478   7.043   4.993 -1.3103  0.7948  0.5490
  669MOL0     C90246   1.376   7.142   4.987 -0.5695 -0.5422 -0.0373
  669MOL0     C90247   1.303   7.171   5.113  0.0901  1.1682  0.6174
  669MOL0     H90248   1.290   7.587   4.845 -0.1312 -1.0953 -1.0686
  669MOL0     H90249   1.205   7.810   4.805  1.4045 -0.7969  1.7719
  669MOL0     H90250   1.276   7.959   4.621 -1.1879 -0.7004  1.5267
  669MOL0     H90251   1.218   8.017   4.467  1.4428  0.4145  0.1261
  669MOL0     H90252   1.174   8.193   4.587 -1.8863  1.0992  1.4225
  669MOL0     H90253   1.151   8.101   4.738 -1.3597  0.0216  1.1469
  669MOL0     H90254   0.918   8.023   4.648  1.4662 -0.9513  0.6053
  669MOL0     H90255   0.946   8.131   4.509 -0.4925 -0.0041  0.2552
  669MOL0     H90256   0.952   8.204   4.790 -0.7331 -0.4848  0.3239
  669MOL0     H90257   0.993   8.320   4.665 -1.3893  1.0340  1.1781
  669MOL0     H90258   0.765   8.349   4.586  2.6051  1.0560  0.1668
  669MOL0     H90259   0.710   8.205   4.673 -0.4481  0.1753  2.7715
  669MOL0     H90260   0.750   8.305   4.886  2.2631  1.5850  0.2857
  669MOL0     H90261   0.844   8.436   4.812  0.0409  0.2790 -4.3182
  669MOL0     H90262   0.537   8.406   4.804 -0.7979  1.2376 -0.4527
  669MOL0     H90263   0.623   8.500   4.689 -2.0791  0.9296  0.8345
  669MOL0     H90264   0.671   8.504   4.989 -0.8214 -0.3135 -0.3507
  669MOL0     H90265   0.722   8.637   4.867 -1.1547  1.1035  0.4193
  669MOL0     H90266   0.594   8.822   5.006  1.1773 -0.2323 -0.5071
  669MOL0     H90267   0.231   8.892   5.073 -0.2220 -1.4087 -1.0556
  669MOL0     H90268   0.382   8.902   5.150 -0.3220  2.5553  0.1200
  669MOL0     H90269   0.480   9.048   4.979  0.1250  2.6082 -3.3450
  669MOL0     H90270   0.361   9.003   4.863  3.1914 -1.3872  0.7282
  669MOL0     H90271   0.353   9.233   5.031  2.3093 -1.7882 -3.1124
  669MOL0     H90272   0.255   9.127   5.110  0.2462 -0.1511  0.3360
  669MOL0     H90273   0.230   9.164   4.807  0.1189 -0.2142 -0.3564
  669MOL0     H90274   0.156   9.272   4.920  1.6457 -0.4595  2.2002
  669MOL0     H90275  -0.130   9.276   4.860 -1.1356  0.6281 -0.8274
  669MOL0     H90276  -0.263   9.263   4.652  1.9719  2.1295  1.2433
  669MOL0     H90277  -0.233   9.225   4.236  0.1582 -0.7212 -3.2118
  669MOL0     H90278  -0.334   9.334   4.046  1.4022  0.2714  0.8108
  669MOL0     H90279  -0.452   9.432   3.890  2.0891 -1.4903  0.1939
  669MOL0     H90280  -0.501   9.276   3.823 -3.8491  0.9338 -5.5939
  669MOL0     H90281  -0.716   9.353   3.751  0.1162 -0.0977 -2.5268
  669MOL0     H90282  -0.681   9.517   3.799 -1.3756 -0.4868  0.5593
  669MOL0     H90283  -0.498   9.527   3.644  1.0367 -1.0179  0.4667
  669MOL0     H90284  -0.520   9.353   3.607 -0.3569 -0.2040 -3.4391
  669MOL0     H90285  -0.611   9.514   3.433  1.6439 -1.5533 -1.0440
  669MOL0     H90286  -0.741   9.549   3.560 -0.7067  0.3044 -2.2023
  669MOL0     H90287  -0.800   9.321   3.569 -0.1723  0.1262 -0.4485
  669MOL0     H90288  -0.669   9.284   3.451  1.3072 -0.0182  1.5628
  669MOL0     H90289  -0.805   9.402   3.281 -0.1653  1.5847 -0.1610
  669MOL0     H90290  -0.917   9.296   3.379  0.8703 -0.8638 -2.3309
  669MOL0     H90291  -0.888   9.601   3.433 -0.4299 -0.3534  2.9118
  669MOL0     H90292  -0.972   9.485   3.534  1.6228  2.0100  2.0759
  669MOL0     H90293  -1.090   9.424   3.298  2.2376 -0.2520 -0.4820
  669MOL0     H90294  -1.147   9.560   3.383 -1.2930  0.7063 -0.4303
  669MOL0     H90295  -0.725   9.285   4.219 -0.0071  1.3222 -2.6772
  669MOL0     H90296  -0.637   9.201   4.408  1.7285 -0.9569  1.7564
  669MOL0     H90297  -0.088   8.887   4.550 -2.9023 -1.7287  2.7576
  669MOL0     H90298   0.040   8.900   4.751 -0.7690 -0.7925 -0.7884
  669MOL0     H90299   1.124   7.673   4.404  0.3985 -0.2404 -0.1966
  669MOL0     H90300   1.165   7.431   4.475  1.6466 -0.2223 -0.5675
  669MOL0     H90301   1.402   7.183   4.647  1.1257 -1.0860  0.6575
  669MOL0     H90302   1.535   6.979   4.676  2.0951  0.6085  1.7475
  669MOL0     H90303   1.646   6.830   5.071 -0.2500 -1.6318 -1.5240
  669MOL0     H90304   1.747   6.964   5.034 -3.7715 -0.6964  1.2351
  669MOL0     H90305   1.758   6.661   4.972  0.0936 -0.0684  1.2907
  669MOL0     H90306   1.882   6.733   5.056  0.1626 -0.6088 -0.5062
  669MOL0     H90307   1.826   6.795   4.751 -1.0337  0.7245  1.4806
  669MOL0     H90308   1.939   6.677   4.804  0.3195  0.0006  1.8704
  669MOL0     H90309   1.997   6.960   4.912  1.1403  0.9425 -1.4815
  669MOL0     H90310   2.080   6.808   4.926 -2.3133 -1.4395  1.8711
  669MOL0     H90311   2.170   6.878   4.527 -0.5826  3.0116 -0.4237
  669MOL0     H90312   1.509   7.001   5.088 -1.2762  1.4669  0.8351
  669MOL0     H90313   1.344   7.258   5.164 -0.6347  1.5302  0.5950
  669MOL0     H90314   1.199   7.196   5.090 -0.0874  1.3542  1.5948
  669MOL0     H90315   1.304   7.094   5.191  2.0057  0.4404 -0.0553
  670MOL0     O90316   0.603   9.533   2.135  0.3194  0.4900  0.2645
  670MOL0     C90317   0.612   9.480   2.244  0.0906  0.1040 -0.7837
  670MOL0     O90318   0.506   9.428   2.322  0.3397 -0.0982 -0.0576
  670MOL0     C90319   0.390   9.390   2.262 -0.2289  0.5636 -0.0202
  670MOL0     C90320   0.332   9.277   2.298  0.6772  0.4170  0.7219
  670MOL0     C90321   0.211   9.233   2.240  1.3929  0.0340  0.4938
  670MOL0     C90322   0.148   9.316   2.146  0.0027 -0.4195 -0.2774
  670MOL0     O90323   0.034   9.254   2.096 -0.3993 -0.1975 -0.0292
  670MOL0     C90324   0.006   9.295   1.966 -0.2237  0.0270  1.2440
  670MOL0     C90325  -0.092   9.189   1.910 -0.5071 -0.0193 -0.6740
  670MOL0     C90326  -0.226   9.192   1.988  0.9302  0.0500 -0.5290
  670MOL0     C90327  -0.308   9.066   1.974 -0.6667  0.5162  0.3748
  670MOL0     C90328  -0.403   9.057   1.850 -0.8442  0.8672 -0.2302
  670MOL0     C90329  -0.488   8.928   1.861  0.8969  0.1915 -0.4070
  670MOL0     C90330  -0.604   8.936   1.770 -0.1681 -0.2082 -0.3619
  670MOL0     C90331  -0.734   8.871   1.830  0.0021  0.1598 -0.3014
  670MOL0     N90332  -0.699   8.726   1.840  0.1927  0.3105  0.0182
  670MOL0     C90333  -0.625   8.653   1.749  0.7088 -0.9953 -0.0669
  670MOL0     C90334  -0.605   8.534   1.815 -0.5326 -0.1221 -0.7300
  670MOL0     C90335  -0.492   8.453   1.763 -0.9118 -0.2615 -0.1774
  670MOL0     C90336  -0.354   8.529   1.763 -0.5880 -0.2749 -0.0387
  670MOL0     C90337  -0.302   8.551   1.911 -0.1370  0.5276 -0.3420
  670MOL0     C90338  -0.162   8.627   1.910  0.9742  0.6212 -0.3783
  670MOL0     O90339  -0.070   8.577   1.808 -1.1494  0.3931  0.4443
  670MOL0     C90340  -0.009   8.687   1.756  0.4869 -0.1369  0.3092
  670MOL0     C90341   0.120   8.727   1.789  0.0469  0.4860 -0.3454
  670MOL0     C90342   0.170   8.846   1.743  0.6255 -0.3357 -0.2064
  670MOL0     C90343   0.080   8.933   1.664 -0.3692  0.4764 -0.1021
  670MOL0     C90344   0.123   9.072   1.645  0.5635  0.2014  0.4320
  670MOL0     O90345   0.227   9.117   1.724  0.7638 -0.6418  0.0834
  670MOL0     C90346   0.286   9.239   1.714 -0.2606 -0.2050 -1.5090
  670MOL0     C90347   0.289   9.329   1.599 -0.7467  1.3517 -0.4222
  670MOL0     C90348   0.376   9.441   1.602  0.2253 -0.1145  0.2015
  670MOL0     C90349   0.445   9.474   1.717  0.2148  0.4285 -0.4215
  670MOL0     O90350   0.529   9.574   1.692 -0.2744 -0.0756  0.7194
  670MOL0     C90351   0.618   9.630   1.793  0.7611  0.2838 -0.0360
  670MOL0     C90352   0.726   9.715   1.720  0.9630  0.4098  0.9128
  670MOL0     C90353   0.823   9.628   1.648 -0.1573 -0.5854  0.5884
  670MOL0     C90354   0.919   9.708   1.555  0.6351 -0.5831  1.2888
  670MOL0     C90355   0.850   9.741   1.420  0.0438 -0.5584 -0.0154
  670MOL0     C90356   0.934   9.803   1.312 -0.2364 -0.7620  0.2517
  670MOL0     C90357   1.039   9.703   1.254  0.1443  0.6488 -0.1182
  670MOL0     C90358   1.141   9.764   1.152  0.4566  0.6807 -0.1329
  670MOL0    Cl90359   1.198   9.626   1.063  0.0943 -0.3098  0.1443
  670MOL0     C90360   0.439   9.390   1.831  0.4967 -0.1514 -0.7019
  670MOL0     C90361   0.369   9.273   1.825 -0.3729 -0.1939  0.6312
  670MOL0     O90362   0.059   9.134   1.558  0.3690  0.2344 -0.4541
  670MOL0     C90363  -0.039   8.886   1.619  0.4720  0.7739  0.0754
  670MOL0     C90364  -0.084   8.761   1.659 -0.0627 -0.1459 -0.0434
  670MOL0     N90365  -0.668   8.522   1.927 -0.6613 -0.5505 -0.9230
  670MOL0     N90366  -0.732   8.634   1.940  1.2410  0.1214  0.3311
  670MOL0     C90367   0.201   9.438   2.103  0.3942  0.5647  0.2586
  670MOL0     C90368   0.320   9.471   2.170 -0.0558 -0.6515 -0.1704
  670MOL0     C90369   0.749   9.472   2.311 -0.9143 -0.2872 -0.2946
  670MOL0     C90370   0.770   9.390   2.422  0.5768 -1.0202 -0.1541
  670MOL0     C90371   0.883   9.375   2.497  0.8606  0.3446 -0.9658
  670MOL0     C90372   0.989   9.452   2.461  0.3896  0.3336  0.2188
  670MOL0     O90373   1.114   9.431   2.529  0.7380 -0.3197  0.2029
  670MOL0     C90374   1.224   9.518   2.492  0.1098 -0.0566 -0.3019
  670MOL0     C90375   1.351   9.469   2.561  0.2299  0.2978 -0.0836
  670MOL0     C90376   1.404   9.335   2.502 -0.3218  0.3568  0.0418
  670MOL0     C90377   1.536   9.292   2.558 -0.9657 -0.7077 -0.6653
  670MOL0     C90378   1.585   9.172   2.488  0.3218 -0.0812 -0.2414
  670MOL0     C90379   1.641   9.087   2.421 -0.8861  0.7753 -0.1365
  670MOL0     C90380   0.970   9.542   2.352 -0.2172 -0.7783 -0.0190
  670MOL0     C90381   0.857   9.554   2.272 -0.0139 -0.8979  0.0362
  670MOL0     C90382   0.860   9.663   2.160 -1.2990 -1.0341 -0.5644
  670MOL0     H90383   0.380   9.203   2.362 -1.8904 -2.7506 -0.6820
  670MOL0     H90384   0.174   9.135   2.266  1.0028  0.2563  0.7721
  670MOL0     H90385  -0.044   9.392   1.966  0.9644  0.6756 -0.0666
  670MOL0     H90386   0.091   9.301   1.898 -1.8949  1.7761 -0.8381
  670MOL0     H90387  -0.050   9.090   1.931  1.8151  0.4913 -2.5417
  670MOL0     H90388  -0.112   9.208   1.805 -2.0492  0.2730 -0.3608
  670MOL0     H90389  -0.278   9.283   1.957 -0.7830 -0.5378  0.4861
  670MOL0     H90390  -0.202   9.212   2.093  1.0409 -0.8911 -0.3626
  670MOL0     H90391  -0.247   8.975   1.974 -0.2723  0.7368  2.2356
  670MOL0     H90392  -0.375   9.071   2.060 -1.2506  4.0237 -0.1457
  670MOL0     H90393  -0.457   9.151   1.836 -0.8522  0.6464 -1.8029
  670MOL0     H90394  -0.344   9.047   1.759 -1.1082  0.8310 -0.3980
  670MOL0     H90395  -0.435   8.833   1.851  0.9983 -0.1722  2.5004
  670MOL0     H90396  -0.532   8.921   1.961 -2.5572  0.7022 -1.7674
  670MOL0     H90397  -0.574   8.905   1.669  0.2428  0.1056 -0.3377
  670MOL0     H90398  -0.631   9.042   1.773  0.6922  0.0734 -1.8341
  670MOL0     H90399  -0.774   8.916   1.921 -2.3378  1.8793 -2.0535
  670MOL0     H90400  -0.815   8.885   1.759 -2.3508  0.9131  2.3517
  670MOL0     H90401  -0.580   8.692   1.658 -2.5379  2.8142 -0.3661
  670MOL0     H90402  -0.483   8.353   1.808 -3.1682 -1.2694 -1.7432
  670MOL0     H90403  -0.527   8.439   1.660 -2.4213 -0.9398  0.3936
  670MOL0     H90404  -0.292   8.461   1.704 -2.7181 -1.1456 -1.4124
  670MOL0     H90405  -0.376   8.624   1.714 -1.3044  0.7298  2.1299
  670MOL0     H90406  -0.292   8.451   1.954  1.0690  1.3904  1.5235
  670MOL0     H90407  -0.372   8.602   1.978  2.7543  1.3211  2.3103
  670MOL0     H90408  -0.111   8.617   2.007  0.3551  3.3429  0.3205
  670MOL0     H90409  -0.183   8.734   1.913 -2.3485  0.0695  1.4709
  670MOL0     H90410   0.178   8.659   1.852  1.4512  2.2304  0.3533
  670MOL0     H90411   0.268   8.880   1.773  1.5000 -2.3622 -0.6340
  670MOL0     H90412   0.234   9.302   1.509  3.9918  0.1106 -3.3043
  670MOL0     H90413   0.384   9.509   1.518  3.8787  0.8910  1.1880
  670MOL0     H90414   0.543   9.685   1.852 -3.6165 -1.4560 -3.4519
  670MOL0     H90415   0.672   9.552   1.846  1.4269  0.8581  0.1520
  670MOL0     H90416   0.670   9.784   1.655 -2.6647 -2.7050  0.3803
  670MOL0     H90417   0.773   9.774   1.798  0.4294 -1.3713  2.6625
  670MOL0     H90418   0.892   9.580   1.718  2.0150 -0.1244 -1.1364
  670MOL0     H90419   0.778   9.550   1.585  0.9332 -1.2756  0.6405
  670MOL0     H90420   1.009   9.651   1.532  0.2554 -1.0283  0.8696
  670MOL0     H90421   0.953   9.798   1.607  1.1173 -0.7686  1.2992
  670MOL0     H90422   0.765   9.804   1.448 -0.0125 -0.1438 -1.0745
  670MOL0     H90423   0.800   9.658   1.370 -2.6450  1.9363 -1.7570
  670MOL0     H90424   0.872   9.825   1.224  1.2881 -3.4676 -1.6660
  670MOL0     H90425   0.998   9.884   1.348  0.5245 -1.6346  0.9135
  670MOL0     H90426   0.984   9.627   1.197  0.1213  1.6261 -1.4443
  670MOL0     H90427   1.099   9.661   1.335 -0.6566  1.1493  0.7560
  670MOL0     H90428   1.098   9.834   1.081  1.5973  1.3171 -0.2131
  670MOL0     H90429   1.223   9.803   1.213  2.1207 -1.4828 -0.8414
  670MOL0     H90430   0.479   9.411   1.929 -0.5645  0.5708 -0.4082
  670MOL0     H90431   0.371   9.210   1.913 -0.6766 -0.1426  0.6743
  670MOL0     H90432  -0.097   8.955   1.559 -0.8466  1.8483  2.4793
  670MOL0     H90433  -0.174   8.723   1.613  0.7604 -2.6135  0.2396
  670MOL0     H90434   0.143   9.502   2.038 -0.5464  0.2511  0.7795
  670MOL0     H90435   0.347   9.570   2.134 -0.3223 -0.9648 -1.2932
  670MOL0     H90436   0.685   9.330   2.453 -0.2132  0.9503  1.7430
  670MOL0     H90437   0.882   9.313   2.586  0.7092  2.8536  0.9219
  670MOL0     H90438   1.198   9.620   2.522  1.9290  0.7947 -1.4310
  670MOL0     H90439   1.247   9.518   2.385  1.7174 -2.0310 -0.0123
  670MOL0     H90440   1.321   9.457   2.666  0.1056  2.0665  0.1082
  670MOL0     H90441   1.414   9.558   2.554 -3.2423  3.0900  1.2087
  670MOL0     H90442   1.412   9.359   2.395 -1.7569  2.1216  0.2895
  670MOL0     H90443   1.333   9.255   2.527 -1.3526  1.3828  0.4600
  670MOL0     H90444   1.609   9.374   2.561 -3.4194  1.7087  3.7547
  670MOL0     H90445   1.530   9.273   2.665 -0.4201 -0.0572 -0.5068
  670MOL0     H90446   1.707   9.021   2.369  1.2934  1.7008  1.3232
  670MOL0     H90447   1.047   9.617   2.333 -1.3038  0.4910  0.3920
  670MOL0     H90448   0.957   9.713   2.151 -1.8182  0.7544  2.2234
  670MOL0     H90449   0.827   9.629   2.062  1.3562 -2.7495 -0.9534
  670MOL0     H90450   0.786   9.739   2.188 -1.8182 -1.4208 -0.8629
  671MOL0     O90451   9.239   5.236   1.248  0.7766 -0.7516  0.8832
  671MOL0     C90452   9.278   5.317   1.337 -0.8666  0.1384  0.5189
  671MOL0     O90453   9.210   5.408   1.408 -0.1196  0.1573 -0.2117
  671MOL0     C90454   9.073   5.410   1.389 -0.3971  0.0685 -0.1578
  671MOL0     C90455   8.983   5.356   1.485 -0.2484 -0.0976 -0.6873
  671MOL0     C90456   8.850   5.387   1.474 -0.5014  1.0653  0.2441
  671MOL0     C90457   8.797   5.435   1.351 -0.9033 -0.4537  0.1157
  671MOL0     O90458   8.666   5.460   1.312  0.3590 -0.3237  0.3276
  671MOL0     C90459   8.569   5.473   1.411  0.3125 -0.0188 -0.0210
  671MOL0     C90460   8.432   5.527   1.354 -0.2412  0.7797 -0.4638
  671MOL0     C90461   8.355   5.405   1.301  0.3600  0.1297 -0.2235
  671MOL0     C90462   8.210   5.448   1.274  0.4684 -0.1571  0.0720
  671MOL0     C90463   8.145   5.352   1.189  1.0773  0.3176  1.3871
  671MOL0     C90464   8.069   5.230   1.252 -0.2225 -0.1287  0.4945
  671MOL0     C90465   7.961   5.171   1.159  0.9242 -0.0030  0.0155
  671MOL0     C90466   7.877   5.060   1.227  1.1034 -0.6203 -0.1688
  671MOL0     N90467   7.783   5.007   1.124 -0.1117  0.7796  0.0418
  671MOL0     C90468   7.672   5.076   1.083  0.1977  0.3807  0.0307
  671MOL0     C90469   7.605   4.989   1.015  0.2603  0.9531  1.2125
  671MOL0     C90470   7.466   5.020   0.943  0.4434  0.0352  0.6883
  671MOL0     C90471   7.347   5.005   1.038 -0.8181 -0.1394 -0.1337
  671MOL0     C90472   7.212   5.065   0.988  0.1206  0.0549 -0.0032
  671MOL0     C90473   7.118   5.071   1.110 -0.3013  0.4522  1.0421
  671MOL0     O90474   7.003   5.143   1.089  0.6368  0.3449  0.2134
  671MOL0     C90475   6.896   5.122   1.163 -0.0456 -0.0908  0.3968
  671MOL0     C90476   6.781   5.184   1.130  0.0657 -0.5139  0.7442
  671MOL0     C90477   6.659   5.160   1.188  0.5033  0.4109  0.0601
  671MOL0     C90478   6.649   5.079   1.306 -0.8078  0.2005  0.5402
  671MOL0     C90479   6.530   5.084   1.383  0.4978 -0.0457 -1.3102
  671MOL0     O90480   6.421   5.152   1.341 -0.8873  0.8034 -0.8347
  671MOL0     C90481   6.302   5.121   1.406  0.1652  0.5616  0.6005
  671MOL0     C90482   6.216   5.230   1.442  0.0814 -0.0633  0.2865
  671MOL0     C90483   6.093   5.200   1.504  0.5938 -0.9363  0.5458
  671MOL0     C90484   6.057   5.071   1.538  1.7630  0.2452  0.7717
  671MOL0     O90485   5.942   5.040   1.586 -0.1089 -0.0584 -0.5354
  671MOL0     C90486   5.863   5.138   1.649  1.4017  0.2183  0.2423
  671MOL0     C90487   5.772   5.078   1.753  0.3029 -0.2531  0.5004
  671MOL0     C90488   5.673   4.988   1.663  0.7160  0.3379 -0.2060
  671MOL0     C90489   5.569   4.911   1.750 -0.2362 -0.1209 -0.2143
  671MOL0     C90490   5.612   4.788   1.846 -0.1044  1.1400  0.3767
  671MOL0     C90491   5.505   4.687   1.889  0.2114  0.5131  0.3839
  671MOL0     C90492   5.460   4.569   1.789  0.5875 -0.2110  0.2848
  671MOL0     C90493   5.378   4.464   1.854  0.4717  0.8822  0.7865
  671MOL0    Cl90494   5.389   4.327   1.737 -0.2926  0.1692  0.5640
  671MOL0     C90495   6.149   4.968   1.506 -0.0498 -0.0043 -0.2114
  671MOL0     C90496   6.260   4.993   1.436 -0.4748 -0.2579  0.5292
  671MOL0     O90497   6.534   5.011   1.482 -0.7272 -0.2988  0.0145
  671MOL0     C90498   6.763   5.005   1.339  0.5366 -0.2039 -0.0290
  671MOL0     C90499   6.884   5.022   1.262  0.2818  0.0990 -0.0637
  671MOL0     N90500   7.668   4.866   1.004  0.5498 -0.0651  0.5568
  671MOL0     N90501   7.778   4.883   1.063  0.9415 -0.5135 -0.2762
  671MOL0     C90502   8.888   5.472   1.247  0.3086 -0.4974  1.0451
  671MOL0     C90503   9.025   5.466   1.267 -0.7569 -0.0734  0.2622
  671MOL0     C90504   9.428   5.324   1.340 -0.1313 -0.1863 -0.8383
  671MOL0     C90505   9.494   5.443   1.374 -0.2683  0.0901  0.9063
  671MOL0     C90506   9.636   5.450   1.375  0.0280 -0.0442  0.0853
  671MOL0     C90507   9.711   5.338   1.347 -0.8747  0.4757 -2.1860
  671MOL0     O90508   9.848   5.363   1.359  0.9407  0.8578 -0.1777
  671MOL0     C90509   9.901   5.358   1.225 -0.5900  0.1228 -0.7935
  671MOL0     C90510  10.049   5.335   1.231  0.8829  0.6721  0.0542
  671MOL0     C90511  10.122   5.450   1.310  0.1008  0.2772  0.7287
  671MOL0     C90512  10.258   5.402   1.349 -0.0339 -0.1962 -0.1620
  671MOL0     C90513  10.352   5.383   1.247  0.2220 -0.0816 -0.4672
  671MOL0     C90514  10.447   5.378   1.171 -0.2374 -0.5620  0.8686
  671MOL0     C90515   9.645   5.214   1.325  0.5216 -0.7103 -0.3306
  671MOL0     C90516   9.509   5.212   1.317  0.0997  1.0514  0.0395
  671MOL0     C90517   9.459   5.070   1.310  0.2215 -0.3936 -0.7757
  671MOL0     H90518   9.022   5.317   1.579 -2.3870 -1.8518 -0.4528
  671MOL0     H90519   8.779   5.350   1.547 -1.1627  0.1971 -0.7970
  671MOL0     H90520   8.542   5.386   1.470  0.6615  1.6453  2.7525
  671MOL0     H90521   8.618   5.539   1.483  1.2282 -1.4231  0.6581
  671MOL0     H90522   8.457   5.595   1.272 -0.0014 -1.7992 -2.6526
  671MOL0     H90523   8.373   5.572   1.434 -1.5540 -0.5523 -0.6296
  671MOL0     H90524   8.362   5.312   1.359 -1.7029  1.1110  1.7420
  671MOL0     H90525   8.399   5.376   1.205 -1.6166 -1.5649 -0.6989
  671MOL0     H90526   8.162   5.468   1.371  2.5349  0.8402  0.9457
  671MOL0     H90527   8.220   5.539   1.214 -1.7055 -0.3884 -0.7240
  671MOL0     H90528   8.065   5.404   1.136  0.4901 -1.2250  0.7280
  671MOL0     H90529   8.216   5.322   1.111  0.2706 -2.0883  1.4997
  671MOL0     H90530   8.150   5.163   1.283 -0.8426 -0.1314  2.2135
  671MOL0     H90531   8.018   5.270   1.339 -1.1366  0.7255 -0.4092
  671MOL0     H90532   8.005   5.134   1.066  0.8295 -0.4536  0.1456
  671MOL0     H90533   7.890   5.245   1.122  0.3042 -0.2411  0.7002
  671MOL0     H90534   7.942   4.976   1.250 -1.3071 -2.5024  0.1444
  671MOL0     H90535   7.829   5.095   1.319  1.2370  2.3932 -1.1324
  671MOL0     H90536   7.643   5.175   1.116 -1.0199 -0.1702  0.6894
  671MOL0     H90537   7.467   5.118   0.894 -0.4673 -0.5600 -0.5717
  671MOL0     H90538   7.463   4.940   0.868  1.3436 -0.4336  1.1345
  671MOL0     H90539   7.326   4.901   1.062 -1.5118  0.4208  1.9813
  671MOL0     H90540   7.368   5.055   1.134 -0.4129  0.7132 -0.6575
  671MOL0     H90541   7.172   4.998   0.911 -2.7769  0.1217  1.2861
  671MOL0     H90542   7.218   5.164   0.941  0.8272  0.0336  0.0310
  671MOL0     H90543   7.167   5.119   1.195  0.3774  4.2105 -1.2581
  671MOL0     H90544   7.092   4.968   1.138 -0.7130  1.0783  3.1303
  671MOL0     H90545   6.796   5.259   1.053  1.9260 -0.3086  1.2637
  671MOL0     H90546   6.571   5.215   1.156 -0.0423 -0.7295 -0.4143
  671MOL0     H90547   6.254   5.332   1.441 -0.9699  0.4299  2.7605
  671MOL0     H90548   6.029   5.287   1.515  1.3870 -0.4099  1.1096
  671MOL0     H90549   5.921   5.218   1.696  1.7987 -0.3279  0.6883
  671MOL0     H90550   5.801   5.182   1.570  1.8250 -1.6264 -1.1818
  671MOL0     H90551   5.821   5.014   1.826 -0.3567  0.4500  1.5743
  671MOL0     H90552   5.702   5.149   1.797 -0.5465  1.7635 -3.6076
  671MOL0     H90553   5.614   5.047   1.593 -0.7821  0.5335  1.1682
  671MOL0     H90554   5.728   4.910   1.609  3.0550  0.3209  1.9633
  671MOL0     H90555   5.483   4.885   1.688 -0.8503  0.3562  0.4283
  671MOL0     H90556   5.520   4.990   1.808 -1.1075 -0.3036 -0.6882
  671MOL0     H90557   5.666   4.836   1.928 -0.3095  0.1942  1.0819
  671MOL0     H90558   5.689   4.735   1.790 -2.1322 -0.5032 -1.0468
  671MOL0     H90559   5.533   4.644   1.986 -0.6347 -1.4522 -0.2048
  671MOL0     H90560   5.424   4.757   1.910 -0.8312 -0.8449  1.0187
  671MOL0     H90561   5.541   4.522   1.732  1.4199 -0.9222  1.9741
  671MOL0     H90562   5.388   4.609   1.717 -0.3309 -2.2244  0.0262
  671MOL0     H90563   5.422   4.426   1.947 -1.8324 -0.6067  1.3423
  671MOL0     H90564   5.274   4.496   1.858  0.0220  0.1631 -2.5620
  671MOL0     H90565   6.126   4.874   1.554 -1.8793  1.1872  1.3594
  671MOL0     H90566   6.324   4.909   1.413  1.7697  1.5146 -0.0735
  671MOL0     H90567   6.771   4.938   1.425 -1.4006 -0.5119 -0.0452
  671MOL0     H90568   6.971   4.966   1.294 -2.9481 -5.0493  0.8191
  671MOL0     H90569   8.853   5.505   1.150 -0.0891  1.1225  1.6974
  671MOL0     H90570   9.091   5.482   1.182  0.8653 -1.7289  1.1184
  671MOL0     H90571   9.429   5.530   1.378 -1.0227 -0.3072 -1.2490
  671MOL0     H90572   9.678   5.545   1.408 -1.9925  0.6672  0.7866
  671MOL0     H90573   9.894   5.465   1.205  1.6388  0.4018 -0.3910
  671MOL0     H90574   9.859   5.277   1.165  1.3975 -0.1534 -1.9014
  671MOL0     H90575  10.090   5.320   1.131 -2.8113  2.2590 -1.8762
  671MOL0     H90576  10.055   5.246   1.294 -1.0377  1.8029  1.9893
  671MOL0     H90577  10.064   5.470   1.401 -0.8712  0.2794  0.1193
  671MOL0     H90578  10.122   5.541   1.250 -0.4394 -0.8380 -1.0412
  671MOL0     H90579  10.296   5.463   1.431 -1.2807  3.3945 -2.0169
  671MOL0     H90580  10.251   5.299   1.386  2.2242 -0.6888 -0.9548
  671MOL0     H90581  10.516   5.372   1.088 -0.2983  0.6595  0.6996
  671MOL0     H90582   9.708   5.126   1.323 -1.0713 -2.0606  2.4795
  671MOL0     H90583   9.539   4.999   1.335  0.5020 -1.2275 -3.6874
  671MOL0     H90584   9.377   5.048   1.377 -2.1254  0.7958 -3.0731
  671MOL0     H90585   9.431   5.046   1.207  4.2889 -2.5582 -1.6062
  672MOL0     O90586   3.441   9.449   7.227 -0.2144  1.0152 -0.3057
  672MOL0     C90587   3.534   9.500   7.282  0.8851  0.8621 -0.3337
  672MOL0     O90588   3.549   9.511   7.418  0.6683  0.1152 -0.6415
  672MOL0     C90589   3.527   9.399   7.493  0.5109 -0.6895 -0.4596
  672MOL0     C90590   3.526   9.432   7.630  0.3137  0.4999 -0.0244
  672MOL0     C90591   3.500   9.329   7.726  0.2490 -0.2567  0.4181
  672MOL0     C90592   3.468   9.198   7.693  0.3923  0.3769  0.2541
  672MOL0     O90593   3.448   9.105   7.788 -0.7196  0.1715 -0.0628
  672MOL0     C90594   3.380   8.981   7.751  0.3438  0.8817 -0.0717
  672MOL0     C90595   3.240   8.988   7.706  0.0243  0.0548 -0.0187
  672MOL0     C90596   3.138   9.018   7.822  0.2040 -0.6101  0.9097
  672MOL0     C90597   2.988   9.015   7.770  0.3872  0.2292  0.5229
  672MOL0     C90598   2.879   9.030   7.872 -0.8529  0.3916  0.2520
  672MOL0     C90599   2.749   9.071   7.811 -0.1196 -0.6521 -0.0806
  672MOL0     C90600   2.711   9.007   7.674 -0.2937 -0.9935  0.1000
  672MOL0     C90601   2.566   9.035   7.646  0.0205  0.3248 -0.8005
  672MOL0     N90602   2.522   8.942   7.539 -0.0865  0.4990 -0.1842
  672MOL0     C90603   2.523   8.971   7.408 -0.3753  0.2880 -0.1802
  672MOL0     C90604   2.466   8.868   7.349  0.1551  0.0951  0.4838
  672MOL0     C90605   2.475   8.863   7.201  0.2134  0.2937  0.3117
  672MOL0     C90606   2.586   8.759   7.148  0.3644 -0.2562 -0.1015
  672MOL0     C90607   2.673   8.818   7.030 -0.2685  0.5248  0.5666
  672MOL0     C90608   2.765   8.719   6.966 -0.5303 -0.0637  0.0153
  672MOL0     O90609   2.830   8.634   7.069  0.7875 -0.5529 -0.4550
  672MOL0     C90610   2.965   8.592   7.047  1.3757 -0.5151  0.6653
  672MOL0     C90611   3.030   8.597   6.920 -0.0753 -0.3862  0.3035
  672MOL0     C90612   3.165   8.553   6.911 -0.4427 -0.1911 -0.3281
  672MOL0     C90613   3.224   8.508   7.026 -0.7325  1.3332  1.0669
  672MOL0     C90614   3.369   8.460   7.008 -1.1641 -0.2424 -0.0931
  672MOL0     O90615   3.434   8.412   7.123 -0.5117 -0.0639  0.8341
  672MOL0     C90616   3.541   8.335   7.107 -0.2650 -0.2061  0.9463
  672MOL0     C90617   3.548   8.209   7.046  0.0165  1.6678 -0.1880
  672MOL0     C90618   3.675   8.152   7.041  0.4519 -0.6405 -0.8698
  672MOL0     C90619   3.789   8.208   7.092  0.3982 -0.2702 -0.5817
  672MOL0     O90620   3.896   8.123   7.074 -0.6949 -0.0862 -0.4001
  672MOL0     C90621   4.026   8.170   7.101 -1.1553  0.6204 -0.8465
  672MOL0     C90622   4.127   8.060   7.073  0.7057  0.0192  0.5919
  672MOL0     C90623   4.268   8.106   7.089  0.7816 -0.4278 -0.1314
  672MOL0     C90624   4.367   7.995   7.064  1.3110  1.4148 -0.1122
  672MOL0     C90625   4.511   8.042   7.103 -0.4357  0.2173 -0.3988
  672MOL0     C90626   4.578   8.149   7.016 -0.6535 -0.8514 -0.3718
  672MOL0     C90627   4.726   8.166   7.066  0.2181  0.0201  0.3424
  672MOL0     C90628   4.798   8.279   7.004 -0.1888  0.4302 -0.3639
  672MOL0    Cl90629   4.748   8.316   6.848  0.0507  0.3545  0.3251
  672MOL0     C90630   3.783   8.333   7.162  0.2399  0.0752 -0.3112
  672MOL0     C90631   3.657   8.390   7.169  0.2158 -0.8112  0.5847
  672MOL0     O90632   3.412   8.440   6.889 -0.1412 -0.1737 -0.3967
  672MOL0     C90633   3.163   8.486   7.148  0.6817 -0.3210 -0.5514
  672MOL0     C90634   3.032   8.539   7.156 -0.2424  0.5584 -0.4928
  672MOL0     N90635   2.431   8.770   7.435  0.4360  0.8064  0.3611
  672MOL0     N90636   2.463   8.817   7.548 -0.0670 -0.1559 -0.4468
  672MOL0     C90637   3.476   9.167   7.558  0.2408 -0.4572  0.4963
  672MOL0     C90638   3.509   9.261   7.459  0.5696  0.1367 -0.3968
  672MOL0     C90639   3.618   9.586   7.200  0.3472 -1.3461  0.4590
  672MOL0     C90640   3.567   9.691   7.123  0.2470 -0.2084 -0.3203
  672MOL0     C90641   3.654   9.776   7.048 -0.3286  1.0059 -0.0695
  672MOL0     C90642   3.795   9.762   7.063 -0.4044 -0.0509  0.0402
  672MOL0     O90643   3.873   9.836   6.977  1.0779 -0.6153 -0.2118
  672MOL0     C90644   4.011   9.811   6.960 -0.1314 -0.6720  0.1289
  672MOL0     C90645   4.059   9.899   6.846 -0.0095  0.0692  0.3385
  672MOL0     C90646   4.032  10.051   6.870  0.3923 -0.3313 -0.0143
  672MOL0     C90647   4.051  10.121   6.739 -0.1535 -0.7019 -0.1108
  672MOL0     C90648   4.033  10.258   6.760 -0.0532  0.4584 -0.6386
  672MOL0     C90649   4.050  10.375   6.796 -0.8725  0.2711  0.3777
  672MOL0     C90650   3.846   9.666   7.149  0.6445  0.4465  0.3652
  672MOL0     C90651   3.761   9.575   7.218  0.5248 -0.1684  0.7069
  672MOL0     C90652   3.820   9.464   7.293  0.4309 -0.0281 -0.0819
  672MOL0     H90653   3.533   9.534   7.666 -1.4624  0.3099  0.9914
  672MOL0     H90654   3.490   9.349   7.833 -0.9520  1.4588  0.0306
  672MOL0     H90655   3.422   8.933   7.663 -0.0197 -2.1882  1.3178
  672MOL0     H90656   3.387   8.912   7.835 -3.1242  1.6675  1.0120
  672MOL0     H90657   3.215   8.895   7.655 -0.4637  1.3265 -2.2130
  672MOL0     H90658   3.225   9.064   7.630 -4.0366 -0.1504  0.3958
  672MOL0     H90659   3.164   9.114   7.867  0.9708 -0.7948  0.8610
  672MOL0     H90660   3.162   8.943   7.898  0.4219  2.7469  4.4714
  672MOL0     H90661   2.985   9.092   7.692  2.9429 -1.2440 -1.1561
  672MOL0     H90662   2.973   8.920   7.718  0.9221 -0.2347  1.1901
  672MOL0     H90663   2.871   8.933   7.923 -0.6193  0.2524  0.0248
  672MOL0     H90664   2.903   9.103   7.950 -1.1086 -1.2576  1.9619
  672MOL0     H90665   2.676   9.048   7.888 -0.7055  0.0644 -0.4138
  672MOL0     H90666   2.760   9.177   7.786  0.3988  0.0764  2.8563
  672MOL0     H90667   2.730   8.899   7.676 -2.5976 -1.4447  1.7359
  672MOL0     H90668   2.770   9.052   7.594  0.9142 -2.0858  0.3360
  672MOL0     H90669   2.503   9.022   7.735  2.1625 -0.1406  0.7188
  672MOL0     H90670   2.556   9.142   7.623 -0.9099  1.0907  2.6395
  672MOL0     H90671   2.569   9.065   7.380  1.9656 -0.3716  1.1333
  672MOL0     H90672   2.383   8.832   7.151  0.6864  0.4881 -0.7217
  672MOL0     H90673   2.499   8.965   7.169 -0.6103  1.0258  1.9445
  672MOL0     H90674   2.656   8.752   7.232 -2.0725 -1.2008  1.9824
  672MOL0     H90675   2.546   8.660   7.126 -2.8783  0.9732 -0.2853
  672MOL0     H90676   2.727   8.908   7.063 -0.2214 -0.0250  2.1083
  672MOL0     H90677   2.595   8.846   6.959 -0.8382 -4.5973 -1.2702
  672MOL0     H90678   2.845   8.775   6.916  2.0659 -1.1252  2.6610
  672MOL0     H90679   2.714   8.650   6.899  2.4181 -0.2043 -2.2962
  672MOL0     H90680   2.969   8.628   6.836  1.1527 -1.9789 -1.2700
  672MOL0     H90681   3.220   8.566   6.819 -0.0374 -1.9805 -0.3789
  672MOL0     H90682   3.468   8.152   6.998  2.2605 -1.7471 -0.1693
  672MOL0     H90683   3.676   8.046   7.017 -1.7357 -0.5493 -1.5780
  672MOL0     H90684   4.059   8.254   7.039 -1.3207 -0.6936 -2.7966
  672MOL0     H90685   4.030   8.182   7.209  2.7027 -2.3799 -0.4607
  672MOL0     H90686   4.093   7.980   7.139 -1.1505  1.4192  1.4561
  672MOL0     H90687   4.115   8.030   6.969  3.3637  1.5156 -0.2429
  672MOL0     H90688   4.279   8.200   7.034 -0.1503 -0.7700 -0.9325
  672MOL0     H90689   4.283   8.143   7.191  0.8581  1.4850 -0.8072
  672MOL0     H90690   4.364   7.953   6.963  0.9440  3.3937 -0.9633
  672MOL0     H90691   4.336   7.913   7.130  0.6848  1.6270 -0.1326
  672MOL0     H90692   4.584   7.961   7.099  0.3548  0.7578  1.9621
  672MOL0     H90693   4.512   8.065   7.209  0.8189  1.6538 -0.6827
  672MOL0     H90694   4.579   8.109   6.914 -1.7806 -3.2856  0.4849
  672MOL0     H90695   4.525   8.244   7.017  2.6930  1.1726 -1.1459
  672MOL0     H90696   4.785   8.079   7.036  3.0381  0.9758  2.6062
  672MOL0     H90697   4.735   8.176   7.175 -1.3982 -0.4967  0.5394
  672MOL0     H90698   4.780   8.369   7.063 -0.6926 -0.6031  1.1163
  672MOL0     H90699   4.905   8.256   7.015 -0.4725 -0.8601 -0.1013
  672MOL0     H90700   3.865   8.386   7.210 -0.7570  3.2440 -1.8593
  672MOL0     H90701   3.655   8.480   7.229  1.6871 -0.9531  0.8874
  672MOL0     H90702   3.217   8.440   7.231  1.0813  0.8280 -0.1489
  672MOL0     H90703   2.976   8.536   7.249 -2.2404  1.0531 -1.6212
  672MOL0     H90704   3.468   9.066   7.519 -0.5390 -0.3322  0.3091
  672MOL0     H90705   3.496   9.237   7.354 -2.1418  1.3095 -0.4241
  672MOL0     H90706   3.459   9.698   7.108 -0.0116  1.2188  1.7587
  672MOL0     H90707   3.617   9.840   6.969  1.7608  1.9094 -0.3784
  672MOL0     H90708   4.023   9.708   6.926 -2.0302 -1.2563  1.1019
  672MOL0     H90709   4.058   9.826   7.058 -1.4954  2.0426  0.4549
  672MOL0     H90710   4.008   9.866   6.755  1.0822 -2.5925  0.6265
  672MOL0     H90711   4.167   9.893   6.832  0.1165  2.2120 -0.0576
  672MOL0     H90712   4.102  10.088   6.945 -1.6981  0.0965  1.8212
  672MOL0     H90713   3.929  10.081   6.894  0.2069  1.8953 -2.9101
  672MOL0     H90714   4.153  10.125   6.701  0.5932  1.1146  1.8802
  672MOL0     H90715   3.984  10.077   6.665  1.6784  0.3324 -2.5223
  672MOL0     H90716   4.059  10.476   6.830 -0.6164  0.4612 -0.2472
  672MOL0     H90717   3.954   9.652   7.156  0.6923 -0.4780 -1.5695
  672MOL0     H90718   3.891   9.518   7.357 -2.1779  2.3749  1.0281
  672MOL0     H90719   3.755   9.402   7.355 -0.5077  0.8546 -0.1502
  672MOL0     H90720   3.858   9.389   7.224 -1.0477 -0.0537 -0.9157
  673MOL0     O90721   9.720   7.771   5.104  0.4881 -0.9703 -0.0901
  673MOL0     C90722   9.794   7.821   5.022 -0.4745  0.2919  0.3289
  673MOL0     O90723   9.781   7.811   4.882  0.1152 -0.0813  0.3213
  673MOL0     C90724   9.679   7.744   4.828 -0.4261  0.1689  0.3935
  673MOL0     C90725   9.550   7.783   4.841 -0.2968  0.2160 -0.4777
  673MOL0     C90726   9.445   7.720   4.769  0.3580 -0.9081 -0.0038
  673MOL0     C90727   9.474   7.606   4.686 -0.6947  0.6455 -0.4054
  673MOL0     O90728   9.378   7.551   4.600  0.2830 -0.2000  0.1224
  673MOL0     C90729   9.269   7.486   4.663  0.7947 -0.5795 -0.0181
  673MOL0     C90730   9.140   7.463   4.578  0.4421  0.4233  0.5545
  673MOL0     C90731   9.168   7.370   4.455 -0.0703  0.4065 -0.6046
  673MOL0     C90732   9.053   7.291   4.412 -0.7077  0.6477  0.5824
  673MOL0     C90733   9.081   7.192   4.309  0.0041  0.5197 -0.2397
  673MOL0     C90734   8.946   7.122   4.271 -0.4658 -0.6030 -0.1421
  673MOL0     C90735   8.925   7.008   4.379 -0.1951  0.0802  0.0257
  673MOL0     C90736   8.886   6.880   4.305  0.4699 -0.0411  0.1751
  673MOL0     N90737   8.792   6.801   4.385  0.0968  1.1587  1.2946
  673MOL0     C90738   8.715   6.715   4.318  0.1843 -0.0213  0.4018
  673MOL0     C90739   8.673   6.620   4.401  0.4296  1.2299  0.0471
  673MOL0     C90740   8.610   6.490   4.345  0.0959 -0.6070 -0.4962
  673MOL0     C90741   8.570   6.385   4.460  0.3758 -0.2950  0.1072
  673MOL0     C90742   8.689   6.302   4.516 -0.4678  0.4298  0.7261
  673MOL0     C90743   8.651   6.164   4.576  0.1615 -0.3296 -0.6300
  673MOL0     O90744   8.545   6.102   4.492 -1.2376 -0.4232 -0.7081
  673MOL0     C90745   8.447   6.024   4.544  0.4169 -1.2853 -0.0636
  673MOL0     C90746   8.386   6.072   4.661 -0.5302  0.6614 -0.5578
  673MOL0     C90747   8.275   6.008   4.717 -0.0659  0.9813 -0.0323
  673MOL0     C90748   8.217   5.895   4.656 -0.2469  0.0183 -0.5049
  673MOL0     C90749   8.104   5.824   4.727 -0.6400 -0.4877  0.3654
  673MOL0     O90750   8.038   5.892   4.827  0.2202 -0.3550  1.0360
  673MOL0     C90751   7.918   5.853   4.885  0.1449  0.4018 -0.6935
  673MOL0     C90752   7.868   5.926   4.987 -0.3247  0.0838  0.8219
  673MOL0     C90753   7.746   5.903   5.061 -0.0946 -0.5855  0.4661
  673MOL0     C90754   7.673   5.791   5.019  0.1961  0.1517 -0.1489
  673MOL0     O90755   7.550   5.760   5.064  0.0893  0.8904  0.0610
  673MOL0     C90756   7.457   5.850   5.127  0.2751  0.4103 -0.5340
  673MOL0     C90757   7.310   5.805   5.100 -0.6042 -1.2501  0.3033
  673MOL0     C90758   7.292   5.666   5.157 -0.4187  0.2818  0.0503
  673MOL0     C90759   7.157   5.608   5.141  0.2050  0.0965  0.9136
  673MOL0     C90760   7.159   5.464   5.204 -1.4664 -0.1142 -0.3388
  673MOL0     C90761   7.027   5.382   5.198  0.0090 -0.3723  0.0808
  673MOL0     C90762   7.022   5.276   5.311  0.4453 -0.3659  0.3465
  673MOL0     C90763   7.148   5.177   5.303  1.1417 -0.2031  0.4230
  673MOL0    Cl90764   7.151   5.069   5.152 -0.1072  0.1274  0.2116
  673MOL0     C90765   7.709   5.720   4.904  1.7051 -0.2984 -0.4653
  673MOL0     C90766   7.832   5.755   4.843 -0.2560 -0.0621  0.9549
  673MOL0     O90767   8.066   5.723   4.682 -0.3002  0.0892 -0.5193
  673MOL0     C90768   8.274   5.844   4.539 -0.7372 -0.5148 -0.7371
  673MOL0     C90769   8.389   5.907   4.485  0.3011  0.3482  1.5862
  673MOL0     N90770   8.732   6.642   4.525  0.0012  0.8895  0.2154
  673MOL0     N90771   8.807   6.749   4.510 -0.0759  0.1203 -0.0826
  673MOL0     C90772   9.606   7.570   4.684  0.4165  0.4706  1.2122
  673MOL0     C90773   9.711   7.636   4.744  0.2214  0.1258  0.5453
  673MOL0     C90774   9.911   7.905   5.083  0.5388 -0.1980  0.4359
  673MOL0     C90775  10.010   7.968   5.002  0.0174  1.1928  0.5672
  673MOL0     C90776  10.107   8.052   5.048  0.4297 -0.4094  0.1019
  673MOL0     C90777  10.117   8.085   5.185 -0.0888 -0.3232 -0.1430
  673MOL0     O90778  10.216   8.168   5.233 -0.2504  0.4594  0.5080
  673MOL0     C90779  10.322   8.109   5.311  0.2196 -0.2098 -1.0155
  673MOL0     C90780  10.417   8.028   5.239 -0.6445 -0.2708  0.2418
  673MOL0     C90781  10.533   7.968   5.319 -0.1508 -0.6699  0.3882
  673MOL0     C90782  10.635   7.889   5.228 -0.2949  0.2715  0.0393
  673MOL0     C90783  10.767   7.886   5.284  0.4476  0.2403 -0.2590
  673MOL0     C90784  10.879   7.874   5.331 -0.3918  0.3349  0.7204
  673MOL0     C90785  10.034   8.012   5.272 -0.1939 -1.0160 -0.4427
  673MOL0     C90786   9.924   7.933   5.224  1.2168  0.1295 -0.3594
  673MOL0     C90787   9.823   7.895   5.333 -0.0781  0.6943 -0.0862
  673MOL0     H90788   9.512   7.860   4.907 -0.7570 -0.0445 -0.4372
  673MOL0     H90789   9.349   7.771   4.766  0.2246 -1.1790 -0.4501
  673MOL0     H90790   9.315   7.388   4.679 -0.7174 -1.1052  1.4440
  673MOL0     H90791   9.246   7.541   4.755 -0.4895  1.2181 -1.3382
  673MOL0     H90792   9.106   7.556   4.533  1.2107  0.3437 -0.2283
  673MOL0     H90793   9.057   7.426   4.639  0.0110  0.8717  0.2460
  673MOL0     H90794   9.245   7.303   4.494  0.7023  2.1551  1.0485
  673MOL0     H90795   9.206   7.435   4.375 -0.4540  1.0543 -0.2748
  673MOL0     H90796   9.006   7.243   4.498 -0.9394  3.2084  2.0011
  673MOL0     H90797   8.979   7.361   4.372 -0.0640  1.6231  1.0473
  673MOL0     H90798   9.103   7.250   4.220 -2.7575  1.0284 -0.6749
  673MOL0     H90799   9.166   7.126   4.332  1.1212  2.4677  1.6725
  673MOL0     H90800   8.867   7.196   4.261  1.9633  2.1397 -0.3626
  673MOL0     H90801   8.950   7.072   4.174  1.1526 -3.2461  1.1577
  673MOL0     H90802   8.840   7.044   4.437  1.1477  0.5651  1.7688
  673MOL0     H90803   9.017   6.987   4.434  0.7668  0.2899 -1.4491
  673MOL0     H90804   8.828   6.894   4.213  1.2176 -0.8536 -0.4295
  673MOL0     H90805   8.976   6.822   4.284  1.4043  2.0185 -2.0847
  673MOL0     H90806   8.693   6.709   4.212 -2.9207 -2.4821  1.0311
  673MOL0     H90807   8.520   6.526   4.295 -1.3613  0.9998  2.9949
  673MOL0     H90808   8.675   6.442   4.270  0.6256 -1.7567  0.6632
  673MOL0     H90809   8.512   6.427   4.543  0.8592 -1.0032  0.8229
  673MOL0     H90810   8.507   6.308   4.413 -1.5767  1.5572 -0.4376
  673MOL0     H90811   8.727   6.374   4.589 -1.3204  4.9358 -2.8130
  673MOL0     H90812   8.758   6.286   4.432 -0.9374  1.3531  0.1517
  673MOL0     H90813   8.630   6.170   4.683  2.9229 -2.3562  0.1341
  673MOL0     H90814   8.745   6.108   4.564 -0.0142 -0.2316 -2.9046
  673MOL0     H90815   8.425   6.155   4.718  0.4398  0.1382 -0.4533
  673MOL0     H90816   8.245   6.043   4.814  2.5277  0.5888  1.0045
  673MOL0     H90817   7.923   6.012   5.022  0.6165 -0.1639 -0.0100
  673MOL0     H90818   7.728   5.968   5.146  0.9134  0.3056  0.0285
  673MOL0     H90819   7.473   5.850   5.235  0.8647  0.5002 -0.6202
  673MOL0     H90820   7.463   5.952   5.090  0.2900  0.0071 -1.6913
  673MOL0     H90821   7.240   5.879   5.138  0.4757  0.9949 -1.7785
  673MOL0     H90822   7.303   5.810   4.991  1.6295 -0.3280  0.1528
  673MOL0     H90823   7.369   5.603   5.112 -1.1608 -3.1376  3.1203
  673MOL0     H90824   7.316   5.670   5.263  3.4326  0.6966 -0.6916
  673MOL0     H90825   7.127   5.614   5.036 -0.6357 -2.8174  0.9086
  673MOL0     H90826   7.081   5.654   5.205  0.3562 -1.8739  2.6003
  673MOL0     H90827   7.176   5.476   5.312  1.8321 -1.9474 -0.5318
  673MOL0     H90828   7.243   5.400   5.175 -0.9399  0.3834  0.0750
  673MOL0     H90829   6.945   5.452   5.212  1.2670  0.8223  1.8852
  673MOL0     H90830   7.007   5.334   5.101 -0.3284 -1.0972  0.5012
  673MOL0     H90831   6.927   5.222   5.304  1.3233 -2.0561  0.9403
  673MOL0     H90832   7.023   5.330   5.406  0.8387  1.6208 -0.7235
  673MOL0     H90833   7.244   5.228   5.313  0.1843  1.5913  1.0009
  673MOL0     H90834   7.131   5.112   5.389 -1.4482 -0.6058 -0.2942
  673MOL0     H90835   7.651   5.632   4.876  0.6992  1.1095 -3.1277
  673MOL0     H90836   7.863   5.693   4.760  2.3956  2.3586 -0.0013
  673MOL0     H90837   8.222   5.765   4.485 -0.5969  0.9481 -3.1717
  673MOL0     H90838   8.406   5.877   4.382 -2.1236 -1.3519  1.5977
  673MOL0     H90839   9.616   7.486   4.616 -4.9385 -0.2056  0.8433
  673MOL0     H90840   9.811   7.599   4.726 -0.7667 -2.0805 -0.7961
  673MOL0     H90841   9.993   7.948   4.897 -2.3898  2.6047  0.6137
  673MOL0     H90842  10.177   8.097   4.978  1.6952 -1.2175  0.8078
  673MOL0     H90843  10.268   8.047   5.383 -1.6307  0.0848 -2.0907
  673MOL0     H90844  10.368   8.190   5.369 -1.9603 -0.1996  0.8564
  673MOL0     H90845  10.468   8.090   5.165 -0.7946  1.6335  1.6524
  673MOL0     H90846  10.365   7.952   5.179 -2.8663  1.7759 -0.5684
  673MOL0     H90847  10.497   7.897   5.394  0.4711 -2.8747 -1.2774
  673MOL0     H90848  10.575   8.052   5.375  0.3354 -0.7790  0.1949
  673MOL0     H90849  10.598   7.789   5.204  2.0827 -0.1470 -2.4412
  673MOL0     H90850  10.642   7.942   5.133 -1.1822 -1.3797 -1.0017
  673MOL0     H90851  10.981   7.871   5.364  0.2495 -1.7182 -1.2157
  673MOL0     H90852  10.046   8.045   5.374 -1.5901 -0.6887 -0.3662
  673MOL0     H90853   9.831   7.786   5.337 -0.7490  0.6669  2.3923
  673MOL0     H90854   9.848   7.936   5.432  0.8700  0.0403 -0.0432
  673MOL0     H90855   9.724   7.928   5.301 -2.1935 -0.1600  4.6582
  674MOL0     O90856   3.907   7.571  11.253  0.3802  0.3792 -0.1328
  674MOL0     C90857   3.861   7.595  11.371 -0.8277  0.8275  0.0553
  674MOL0     O90858   3.799   7.708  11.410 -0.5416  0.1386  0.3556
  674MOL0     C90859   3.739   7.793  11.316  0.2212 -0.3705  0.1265
  674MOL0     C90860   3.802   7.833  11.189  0.6795  1.2516  0.6301
  674MOL0     C90861   3.734   7.912  11.092 -0.1096  0.8347 -0.6278
  674MOL0     C90862   3.606   7.964  11.124  0.0088 -0.2030  0.0214
  674MOL0     O90863   3.523   8.031  11.042  0.5558  0.4064  0.6777
  674MOL0     C90864   3.578   8.103  10.929 -0.4233 -0.2877  0.4443
  674MOL0     C90865   3.534   8.028  10.799 -0.2638  0.4934  0.6086
  674MOL0     C90866   3.597   8.093  10.687 -0.4326 -0.2564  0.4657
  674MOL0     C90867   3.564   8.016  10.562  0.4935  1.0146  0.1346
  674MOL0     C90868   3.667   7.903  10.531 -0.3380  1.4441 -0.4877
  674MOL0     C90869   3.632   7.800  10.418 -0.2204  0.0848 -0.7686
  674MOL0     C90870   3.629   7.875  10.279  1.3027  0.5114  0.1090
  674MOL0     C90871   3.764   7.872  10.201  0.2035  0.0469 -0.4182
  674MOL0     N90872   3.743   7.954  10.092 -0.9732 -0.8268  0.6415
  674MOL0     C90873   3.681   7.915   9.971  0.2065  0.4208  0.0169
  674MOL0     C90874   3.672   8.027   9.897  0.9444 -0.7046  0.5694
  674MOL0     C90875   3.580   8.047   9.771 -0.6440 -0.2813 -1.2445
  674MOL0     C90876   3.655   8.000   9.652 -1.2465  0.1605 -0.8655
  674MOL0     C90877   3.569   7.997   9.527  1.0328 -0.2058 -0.1577
  674MOL0     C90878   3.641   7.936   9.404  0.5664 -0.4502  0.1822
  674MOL0     O90879   3.742   8.029   9.359  0.0031  0.6952  0.0809
  674MOL0     C90880   3.698   8.148   9.303  0.0054 -0.9401 -0.7569
  674MOL0     C90881   3.799   8.234   9.280 -0.7687  0.5317  0.5075
  674MOL0     C90882   3.777   8.367   9.223 -0.2316 -0.4454  0.3599
  674MOL0     C90883   3.637   8.408   9.194  0.8161 -0.0477  0.5443
  674MOL0     C90884   3.610   8.548   9.143  0.1710  0.1088  0.5099
  674MOL0     O90885   3.708   8.638   9.158 -0.9304  0.9506 -0.3916
  674MOL0     C90886   3.699   8.767   9.108  0.9260 -0.3339  0.5503
  674MOL0     C90887   3.716   8.879   9.186 -0.7312  0.3584  0.6085
  674MOL0     C90888   3.717   9.006   9.128 -0.1440  0.3107 -0.2007
  674MOL0     C90889   3.685   9.027   8.993  0.1190 -0.0487  0.7553
  674MOL0     O90890   3.681   9.148   8.927 -0.3657  0.3260  0.1932
  674MOL0     C90891   3.694   9.275   8.997  0.4844  0.1887  0.4106
  674MOL0     C90892   3.686   9.394   8.890 -0.0023 -0.7947  0.6223
  674MOL0     C90893   3.790   9.386   8.774 -0.4983  0.4454  0.0703
  674MOL0     C90894   3.774   9.506   8.680  1.3240  0.1759  0.2831
  674MOL0     C90895   3.838   9.506   8.547 -0.5071 -0.1991 -0.8847
  674MOL0     C90896   3.855   9.648   8.492  0.5382 -0.1346  0.1894
  674MOL0     C90897   3.914   9.642   8.341  1.0415  0.7300 -0.5809
  674MOL0     C90898   4.061   9.600   8.329 -0.5947  0.2531  0.4727
  674MOL0    Cl90899   4.167   9.719   8.408 -0.3820  0.0218  0.0001
  674MOL0     C90900   3.645   8.913   8.912 -0.1999 -0.6589 -1.2308
  674MOL0     C90901   3.665   8.789   8.968 -0.6868  0.8137 -0.5897
  674MOL0     O90902   3.498   8.575   9.097 -0.4164  0.2456  1.1774
  674MOL0     C90903   3.536   8.317   9.214 -0.5621  0.4086  0.3370
  674MOL0     C90904   3.563   8.182   9.258 -0.6492 -0.2665  0.2121
  674MOL0     N90905   3.749   8.119   9.963 -0.2855 -0.7007 -0.4684
  674MOL0     N90906   3.790   8.082  10.080 -0.0335 -0.3891 -0.4259
  674MOL0     C90907   3.560   7.942  11.247 -0.2721  0.2573 -0.2469
  674MOL0     C90908   3.623   7.861  11.340  0.2036  0.2095  0.4949
  674MOL0     C90909   3.883   7.495  11.482 -0.0389  0.2388  0.6200
  674MOL0     C90910   3.793   7.496  11.579  0.0760 -0.1712 -0.6681
  674MOL0     C90911   3.803   7.426  11.696 -0.1748  0.4885  0.5236
  674MOL0     C90912   3.912   7.341  11.711  0.5969 -0.2860 -1.0318
  674MOL0     O90913   3.925   7.266  11.826 -0.1785  0.7620  0.4088
  674MOL0     C90914   4.039   7.269  11.911 -0.4473 -0.6256  0.5960
  674MOL0     C90915   3.996   7.177  12.025  0.0869 -0.5476  0.2113
  674MOL0     C90916   4.093   7.165  12.142  0.1267 -0.1891 -0.1121
  674MOL0     C90917   4.146   7.294  12.204  0.2096  0.3832 -0.0479
  674MOL0     C90918   4.243   7.256  12.305  0.4979  0.6284 -0.2236
  674MOL0     C90919   4.334   7.236  12.382 -1.3934 -0.2123 -0.1249
  674MOL0     C90920   4.005   7.334  11.612 -0.2167  0.7091 -0.6421
  674MOL0     C90921   3.988   7.411  11.499  0.0401 -0.8310  0.7640
  674MOL0     C90922   4.089   7.406  11.377 -0.3354  0.1521  0.3326
  674MOL0     H90923   3.898   7.789  11.162 -0.0451  1.2160 -2.1054
  674MOL0     H90924   3.786   7.942  11.001  1.7240  0.9456  0.3878
  674MOL0     H90925   3.534   8.202  10.945  1.4840  0.7804 -0.5505
  674MOL0     H90926   3.687   8.112  10.929 -0.4193  0.1506  2.7626
  674MOL0     H90927   3.427   8.014  10.781  0.4183 -2.0603 -2.4050
  674MOL0     H90928   3.580   7.930  10.812 -3.4797 -1.1779  0.4164
  674MOL0     H90929   3.705   8.085  10.699 -0.4031  1.5676  1.7659
  674MOL0     H90930   3.558   8.195  10.688  2.9131  1.3130 -3.2841
  674MOL0     H90931   3.460   7.983  10.561  1.5518 -3.0266 -2.5760
  674MOL0     H90932   3.570   8.088  10.480 -1.2681 -2.4483 -3.3754
  674MOL0     H90933   3.762   7.950  10.504  0.3437  0.6221  0.3853
  674MOL0     H90934   3.688   7.842  10.620  1.8956  1.5484 -0.8793
  674MOL0     H90935   3.699   7.714  10.411  3.1297  2.6185 -3.6574
  674MOL0     H90936   3.528   7.775  10.442 -0.7493  2.1943 -0.6607
  674MOL0     H90937   3.595   7.978  10.292 -2.4273 -0.7651  1.9405
  674MOL0     H90938   3.547   7.831  10.219 -2.4450  3.9394  2.2253
  674MOL0     H90939   3.835   7.912  10.274  0.0638  2.1853 -1.3840
  674MOL0     H90940   3.789   7.770  10.169  0.2523 -1.0560  2.7937
  674MOL0     H90941   3.636   7.818   9.955  2.9836 -1.0682  0.4797
  674MOL0     H90942   3.486   7.993   9.784 -1.7966  1.3080 -2.4432
  674MOL0     H90943   3.559   8.154   9.760 -0.7597 -0.2932 -1.1377
  674MOL0     H90944   3.741   8.063   9.629 -0.6350 -0.6517 -0.8457
  674MOL0     H90945   3.694   7.898   9.657 -0.7468  0.4080  0.6358
  674MOL0     H90946   3.526   8.096   9.508  0.5708 -0.5554 -0.9868
  674MOL0     H90947   3.482   7.932   9.542  0.0888  1.3225  1.5622
  674MOL0     H90948   3.580   7.923   9.314 -1.8493  0.4842  1.5717
  674MOL0     H90949   3.678   7.835   9.425 -1.9788 -1.7910 -1.3276
  674MOL0     H90950   3.900   8.198   9.294  0.5384  0.9510 -5.1904
  674MOL0     H90951   3.864   8.429   9.203  2.4591 -4.2052 -0.8354
  674MOL0     H90952   3.741   8.874   9.292  0.5802  1.6750  0.4031
  674MOL0     H90953   3.746   9.091   9.189 -0.9869  1.8919 -1.8817
  674MOL0     H90954   3.604   9.281   9.058 -3.3690  0.4650 -4.6643
  674MOL0     H90955   3.785   9.285   9.057  0.7494  0.5087 -0.0440
  674MOL0     H90956   3.590   9.387   8.839  1.2904 -5.1086 -1.7847
  674MOL0     H90957   3.704   9.493   8.934 -0.0262 -2.5112  5.0795
  674MOL0     H90958   3.884   9.388   8.830 -1.1625  2.4192  1.1989
  674MOL0     H90959   3.769   9.286   8.733  0.4704 -0.0494  0.7471
  674MOL0     H90960   3.807   9.596   8.732  0.1999  0.0088  1.3360
  674MOL0     H90961   3.666   9.518   8.660  1.0018  1.1456  2.3879
  674MOL0     H90962   3.782   9.441   8.479  1.6430 -2.1060 -0.9521
  674MOL0     H90963   3.940   9.468   8.550 -1.6760 -3.6264  1.3589
  674MOL0     H90964   3.757   9.697   8.494 -0.0628 -1.0736 -2.5434
  674MOL0     H90965   3.919   9.714   8.552  1.1856  0.8866 -1.5670
  674MOL0     H90966   3.899   9.730   8.278 -2.8722  0.6360 -0.0685
  674MOL0     H90967   3.852   9.561   8.299  1.0182  1.4600 -2.0156
  674MOL0     H90968   4.067   9.500   8.373  1.2070  0.1015 -0.0409
  674MOL0     H90969   4.106   9.595   8.230  2.8399  1.4115  1.8030
  674MOL0     H90970   3.620   8.915   8.806 -2.7346  3.6048 -0.7820
  674MOL0     H90971   3.639   8.696   8.917 -0.4747 -0.5427  1.6336
  674MOL0     H90972   3.438   8.329   9.169 -0.4568 -0.0183 -0.0043
  674MOL0     H90973   3.475   8.118   9.251  0.0418 -1.0747 -1.8520
  674MOL0     H90974   3.474   7.997  11.284 -0.1132 -0.8492  1.9337
  674MOL0     H90975   3.567   7.860  11.433 -1.0071  4.3144  0.0227
  674MOL0     H90976   3.709   7.564  11.586  1.8232  1.9407  2.3075
  674MOL0     H90977   3.735   7.449  11.778 -1.0052 -1.2036  0.3664
  674MOL0     H90978   4.052   7.375  11.931  0.5182 -0.2510 -1.7492
  674MOL0     H90979   4.132   7.239  11.863 -2.1719  1.1413 -4.5113
  674MOL0     H90980   3.995   7.074  11.989  1.2148 -2.3647  4.6454
  674MOL0     H90981   3.897   7.203  12.063 -0.4075 -2.7810  0.5662
  674MOL0     H90982   4.173   7.102  12.103 -0.0144  0.4413 -1.4853
  674MOL0     H90983   4.031   7.123  12.221  0.5734  1.3054  1.0685
  674MOL0     H90984   4.188   7.352  12.122 -0.9034  1.3418  0.0367
  674MOL0     H90985   4.062   7.343  12.253  0.0442 -2.8916  3.4384
  674MOL0     H90986   4.419   7.249  12.445 -2.7264  1.5014  1.4590
  674MOL0     H90987   4.079   7.255  11.620 -4.4242 -3.4876  2.6806
  674MOL0     H90988   4.164   7.329  11.398  1.1861  1.5482  0.1736
  674MOL0     H90989   4.036   7.379  11.285 -1.0914 -2.0116  1.3315
  674MOL0     H90990   4.152   7.495  11.374  2.4519 -1.6794  0.6956
  675MOL0     O90991   3.125   6.450   5.629  0.1451 -1.1678 -0.5512
  675MOL0     C90992   3.238   6.451   5.673 -0.6048  0.6641 -0.8136
  675MOL0     O90993   3.276   6.487   5.801 -0.7574  0.3448  0.1472
  675MOL0     C90994   3.174   6.545   5.881  0.1204  0.5998  0.3897
  675MOL0     C90995   3.152   6.677   5.871  0.0515  0.4920 -0.3922
  675MOL0     C90996   3.048   6.730   5.947 -0.1679  0.5222  0.0931
  675MOL0     C90997   2.972   6.654   6.032  0.2902 -0.0424 -0.3761
  675MOL0     O90998   2.885   6.725   6.116  0.5690  0.5511  0.4754
  675MOL0     C90999   2.747   6.699   6.104 -0.0048  0.2193 -0.1189
  675MOL0     C91000   2.672   6.800   6.191  0.4270  1.3931  0.4244
  675MOL0     C91001   2.516   6.819   6.157  0.4920  0.0976 -0.2953
  675MOL0     C91002   2.436   6.687   6.173 -0.6235  0.6214  0.3027
  675MOL0     C91003   2.302   6.703   6.244  0.0229  0.2129 -0.1227
  675MOL0     C91004   2.217   6.581   6.228 -0.3394 -0.4167  0.4768
  675MOL0     C91005   2.083   6.563   6.304  0.1943  0.3488 -1.0079
  675MOL0     C91006   1.971   6.628   6.226  0.7259 -0.7511  0.2629
  675MOL0     N91007   1.842   6.607   6.293 -0.0713  0.2369  0.1036
  675MOL0     C91008   1.815   6.635   6.426  0.0950  0.0361 -0.0828
  675MOL0     C91009   1.688   6.587   6.448  0.2787  0.1531  1.1083
  675MOL0     C91010   1.631   6.590   6.582 -0.0044  0.1639  0.2743
  675MOL0     C91011   1.501   6.674   6.576 -0.5164 -0.1792 -0.2967
  675MOL0     C91012   1.380   6.594   6.533  0.5294  0.3959 -0.3860
  675MOL0     C91013   1.305   6.554   6.665 -0.8962  0.0819  0.0784
  675MOL0     O91014   1.204   6.453   6.654  0.5570  0.2531 -0.0365
  675MOL0     C91015   1.096   6.464   6.569 -0.2263  0.4424  0.3122
  675MOL0     C91016   1.010   6.355   6.560  1.5711 -0.7191 -0.1251
  675MOL0     C91017   0.881   6.371   6.492 -0.4569  0.5691  0.7007
  675MOL0     C91018   0.839   6.503   6.458  0.7784  0.0222  0.6128
  675MOL0     C91019   0.708   6.523   6.388  0.1387 -0.4881  0.5135
  675MOL0     O91020   0.683   6.629   6.323  0.1965 -0.7082  1.0533
  675MOL0     C91021   0.571   6.660   6.243 -0.2318 -0.0299  0.4230
  675MOL0     C91022   0.539   6.792   6.234  1.1541  0.7831  0.2956
  675MOL0     C91023   0.435   6.830   6.140 -0.8712 -0.6039  0.1746
  675MOL0     C91024   0.358   6.741   6.075  0.1137 -0.2779 -0.4271
  675MOL0     O91025   0.256   6.780   5.985 -0.0468 -0.8274 -0.4252
  675MOL0     C91026   0.291   6.758   5.851 -1.2304  0.9736  0.3279
  675MOL0     C91027   0.181   6.794   5.750 -0.1673  1.0558 -0.1438
  675MOL0     C91028   0.170   6.940   5.716  0.0926 -0.2742 -0.0657
  675MOL0     C91029   0.046   6.952   5.635 -0.0379 -0.2983 -0.1718
  675MOL0     C91030   0.011   7.090   5.579  0.3076 -0.4881 -0.8016
  675MOL0     C91031   0.112   7.157   5.493  0.3384 -0.1810  0.3877
  675MOL0     C91032   0.100   7.310   5.455  1.0664 -0.5143 -0.2644
  675MOL0     C91033   0.146   7.395   5.578 -0.1366  0.2935  0.0653
  675MOL0    Cl91034   0.158   7.572   5.536  0.1701  0.2785  0.4762
  675MOL0     C91035   0.380   6.605   6.100 -0.9102 -0.7485 -0.0629
  675MOL0     C91036   0.498   6.562   6.167  0.2805 -0.0311  0.0757
  675MOL0     O91037   0.631   6.426   6.393 -0.5379 -0.8658 -0.4207
  675MOL0     C91038   0.929   6.608   6.462  0.2948  0.1899 -0.0221
  675MOL0     C91039   1.054   6.583   6.526 -0.2774 -0.4006 -0.4677
  675MOL0     N91040   1.637   6.539   6.325  0.5366  0.7250 -0.6596
  675MOL0     N91041   1.719   6.563   6.240 -0.5948 -0.1915 -0.2448
  675MOL0     C91042   3.015   6.524   6.065  0.2694  0.5438 -0.1346
  675MOL0     C91043   3.116   6.467   5.983  0.0982 -0.0321  0.3665
  675MOL0     C91044   3.344   6.413   5.575  0.6491  1.0970  0.0357
  675MOL0     C91045   3.439   6.319   5.617  0.1701 -0.1713  0.7555
  675MOL0     C91046   3.532   6.255   5.537 -0.0384 -0.4386 -0.5084
  675MOL0     C91047   3.522   6.292   5.399  0.3145  0.3449 -0.3170
  675MOL0     O91048   3.616   6.243   5.317  0.7616 -0.3030 -0.0689
  675MOL0     C91049   3.651   6.110   5.329 -0.4491 -1.0276  1.4759
  675MOL0     C91050   3.716   6.059   5.193  0.0291 -0.4859 -0.4668
  675MOL0     C91051   3.621   6.088   5.075 -0.4554  0.4257 -0.7362
  675MOL0     C91052   3.583   5.960   4.996 -0.0984  0.8063  0.1405
  675MOL0     C91053   3.479   5.889   5.069 -0.3002  0.3493 -0.7539
  675MOL0     C91054   3.410   5.812   5.136 -0.8710 -0.0951 -0.0818
  675MOL0     C91055   3.443   6.390   5.357 -0.0273  0.2779 -0.0958
  675MOL0     C91056   3.350   6.457   5.440  0.7718  0.5637 -0.0789
  675MOL0     C91057   3.248   6.553   5.372  0.5657  0.5370  0.1453
  675MOL0     H91058   3.211   6.740   5.806 -0.6370 -0.2435 -1.7699
  675MOL0     H91059   3.035   6.838   5.942  0.4656  0.6903  1.6038
  675MOL0     H91060   2.708   6.695   6.002 -1.0595 -1.8152  0.2858
  675MOL0     H91061   2.724   6.594   6.126  0.1519 -0.5577 -3.1857
  675MOL0     H91062   2.726   6.894   6.177  2.2640  0.0932 -1.9795
  675MOL0     H91063   2.693   6.768   6.293 -0.9614 -2.5198 -0.3279
  675MOL0     H91064   2.488   6.883   6.072  0.8402  3.7761  2.1116
  675MOL0     H91065   2.480   6.874   6.245  0.9940 -1.2382  0.7663
  675MOL0     H91066   2.410   6.653   6.072  1.6712 -2.7655  0.7113
  675MOL0     H91067   2.498   6.610   6.220  1.9570  3.0756  1.1756
  675MOL0     H91068   2.314   6.713   6.352  2.4329 -2.0221 -0.0706
  675MOL0     H91069   2.261   6.792   6.196  1.7314  0.9486 -0.2849
  675MOL0     H91070   2.181   6.578   6.124  0.1336  1.8337  0.2126
  675MOL0     H91071   2.286   6.496   6.236  0.6653  0.4937  1.8055
  675MOL0     H91072   2.086   6.595   6.409 -0.2436 -2.2652 -0.1286
  675MOL0     H91073   2.062   6.456   6.314  0.1598  0.4546  0.1546
  675MOL0     H91074   1.990   6.734   6.212 -2.0253 -0.3478 -1.0460
  675MOL0     H91075   1.962   6.574   6.131 -0.8454  2.1207 -1.3522
  675MOL0     H91076   1.865   6.683   6.509 -0.8799  0.6413  0.1789
  675MOL0     H91077   1.603   6.492   6.623  0.2241 -0.0027  0.0342
  675MOL0     H91078   1.690   6.643   6.657  0.5861 -1.9826  1.4175
  675MOL0     H91079   1.483   6.698   6.681  2.3841 -0.1008  0.2751
  675MOL0     H91080   1.516   6.771   6.528  1.9006 -0.0572  0.5945
  675MOL0     H91081   1.401   6.507   6.472  4.1770  0.4685  0.5669
  675MOL0     H91082   1.315   6.665   6.480  1.0139  1.9759  1.0105
  675MOL0     H91083   1.261   6.642   6.713 -0.0711  1.0368 -0.8668
  675MOL0     H91084   1.376   6.502   6.731 -0.1247 -0.5817 -1.2500
  675MOL0     H91085   1.041   6.262   6.607  0.0329 -0.8243  0.7454
  675MOL0     H91086   0.816   6.285   6.479  0.7085 -0.1278 -0.8584
  675MOL0     H91087   0.595   6.860   6.297 -0.6607  3.3690 -0.7013
  675MOL0     H91088   0.423   6.932   6.106 -0.7660 -2.1581 -5.5294
  675MOL0     H91089   0.377   6.824   5.833 -0.4161 -0.5243 -1.6648
  675MOL0     H91090   0.326   6.655   5.839  2.4527  1.9171  1.6053
  675MOL0     H91091   0.192   6.740   5.656 -1.1759  1.7649 -0.6875
  675MOL0     H91092   0.087   6.767   5.800 -1.2535  3.8349 -0.4789
  675MOL0     H91093   0.157   7.006   5.802 -0.4353 -0.3854 -0.0613
  675MOL0     H91094   0.256   6.977   5.658  0.0922 -1.8982 -1.1748
  675MOL0     H91095  -0.037   6.927   5.701  1.7671 -1.7777  1.6980
  675MOL0     H91096   0.048   6.891   5.544  0.5350  1.1074 -1.1454
  675MOL0     H91097   0.005   7.153   5.668  1.3101 -1.2670 -0.1577
  675MOL0     H91098  -0.084   7.084   5.526  0.7701  0.0944 -1.7033
  675MOL0     H91099   0.211   7.145   5.536  1.7423  2.7811 -1.6285
  675MOL0     H91100   0.125   7.106   5.397  2.0919  2.3619 -0.8660
  675MOL0     H91101  -0.006   7.329   5.432  0.6779 -0.2569  1.5764
  675MOL0     H91102   0.170   7.324   5.373  0.2224  1.7276 -0.6800
  675MOL0     H91103   0.068   7.387   5.654 -0.2686  0.4555 -0.0516
  675MOL0     H91104   0.239   7.346   5.610 -0.6155 -1.4726 -1.0845
  675MOL0     H91105   0.318   6.536   6.044 -0.4102  0.4413 -2.1760
  675MOL0     H91106   0.533   6.461   6.151  1.3146  0.2825  0.2924
  675MOL0     H91107   0.905   6.711   6.438  2.4098  0.2566 -2.1520
  675MOL0     H91108   1.106   6.677   6.539 -1.3558 -0.1822  2.9488
  675MOL0     H91109   2.972   6.492   6.159  1.2669 -1.4835 -0.3272
  675MOL0     H91110   3.146   6.364   6.001 -3.2124 -1.0423  0.9448
  675MOL0     H91111   3.446   6.307   5.725 -1.2561  0.1436  0.8942
  675MOL0     H91112   3.603   6.183   5.575  0.4019 -0.6659 -1.7133
  675MOL0     H91113   3.561   6.051   5.350  0.5698 -2.9283  0.7761
  675MOL0     H91114   3.726   6.111   5.409  2.1452  1.0130 -0.7733
  675MOL0     H91115   3.722   5.952   5.213  1.0949 -0.4203 -0.3550
  675MOL0     H91116   3.820   6.090   5.179 -0.4634  1.2229 -0.6306
  675MOL0     H91117   3.669   6.153   5.001 -2.8213  2.9259 -0.2043
  675MOL0     H91118   3.526   6.126   5.112 -2.0126 -4.3851  0.9554
  675MOL0     H91119   3.540   5.987   4.899 -1.4002 -1.1427  0.1007
  675MOL0     H91120   3.666   5.889   4.986 -1.4037 -0.6642 -0.7691
  675MOL0     H91121   3.356   5.744   5.197  2.1494 -3.3394 -0.7009
  675MOL0     H91122   3.425   6.416   5.253  0.5169  4.3450  0.6621
  675MOL0     H91123   3.153   6.501   5.356  0.0310  2.1915 -2.9838
  675MOL0     H91124   3.229   6.640   5.435  0.9894  0.0345  0.9799
  675MOL0     H91125   3.290   6.595   5.280  1.9793  0.3107  0.6672
  676MOL0     O91126   3.976   3.128   3.460 -1.0708  0.2191  0.8273
  676MOL0     C91127   3.873   3.075   3.416  0.2297 -0.0213 -0.1946
  676MOL0     O91128   3.859   3.006   3.298 -0.0741 -0.5390 -0.1397
  676MOL0     C91129   3.970   2.976   3.227 -0.9806  0.0212 -0.3792
  676MOL0     C91130   4.021   3.092   3.146 -0.9128 -0.6522 -0.4753
  676MOL0     C91131   4.147   3.083   3.084  0.2606 -0.0502 -0.3163
  676MOL0     C91132   4.220   2.963   3.091  0.8526  0.0348  0.1433
  676MOL0     O91133   4.350   2.959   3.031  0.0326 -1.1007 -0.0576
  676MOL0     C91134   4.409   3.068   2.960  1.0232 -0.1891 -0.4650
  676MOL0     C91135   4.356   3.080   2.818  0.4578 -0.6494 -0.3389
  676MOL0     C91136   4.413   2.974   2.725  0.1502  0.1835 -1.9597
  676MOL0     C91137   4.376   2.993   2.574  0.2244  0.1975 -0.0965
  676MOL0     C91138   4.428   2.882   2.481 -0.0172 -0.6181 -0.2182
  676MOL0     C91139   4.394   2.914   2.333  0.6164 -1.4946 -0.6208
  676MOL0     C91140   4.470   2.808   2.257  0.5738 -0.1034  0.5679
  676MOL0     C91141   4.434   2.825   2.108  0.3312 -0.0248  0.3825
  676MOL0     N91142   4.467   2.715   2.017  0.1858 -0.1586 -0.7151
  676MOL0     C91143   4.594   2.671   1.989  0.4028  0.5672 -0.2773
  676MOL0     C91144   4.575   2.547   1.934  0.7885 -0.3276  1.1491
  676MOL0     C91145   4.675   2.449   1.908 -0.0132  0.2776  0.1949
  676MOL0     C91146   4.649   2.383   1.780  0.3727  0.0098  0.4266
  676MOL0     C91147   4.667   2.470   1.658  0.3036  0.2544  0.2837
  676MOL0     C91148   4.808   2.463   1.610  0.3171 -0.0609  0.0750
  676MOL0     O91149   4.832   2.579   1.531 -0.5555 -1.1866  0.2888
  676MOL0     C91150   4.952   2.588   1.464  0.1774  0.9620 -0.3073
  676MOL0     C91151   5.037   2.477   1.442 -0.7803 -0.2953  0.9040
  676MOL0     C91152   5.156   2.496   1.357  0.2000  0.7075  0.1331
  676MOL0     C91153   5.196   2.619   1.296 -0.1210  0.8467  0.1705
  676MOL0     C91154   5.314   2.622   1.201 -1.2569  0.8438 -0.2438
  676MOL0     O91155   5.403   2.523   1.218 -0.2236 -0.3269  0.4526
  676MOL0     C91156   5.514   2.517   1.137  0.2053 -0.2236  0.1852
  676MOL0     C91157   5.628   2.442   1.170  0.1945  0.2486  0.3391
  676MOL0     C91158   5.734   2.425   1.073  0.0747 -0.0589  0.5855
  676MOL0     C91159   5.720   2.463   0.946 -0.3404 -0.3477  0.1099
  676MOL0     O91160   5.818   2.436   0.858 -0.3380  0.2632  0.1932
  676MOL0     C91161   5.872   2.549   0.787  0.5847  0.2968  0.9304
  676MOL0     C91162   6.026   2.530   0.771 -0.4312  0.5445 -0.0515
  676MOL0     C91163   6.107   2.547   0.892 -0.4598 -0.3903 -0.4498
  676MOL0     C91164   6.256   2.519   0.858 -0.1791  0.6314  0.2066
  676MOL0     C91165   6.350   2.561   0.972 -0.9912 -0.3829  0.3327
  676MOL0     C91166   6.471   2.621   0.920 -0.6141 -0.7033  0.3561
  676MOL0     C91167   6.586   2.615   1.018  0.3475  0.1406  0.1798
  676MOL0     C91168   6.716   2.666   0.955  0.8896 -0.1584  0.7185
  676MOL0    Cl91169   6.707   2.842   0.979  0.6735 -0.4754  0.4060
  676MOL0     C91170   5.604   2.522   0.903  0.4842  0.3571 -0.0157
  676MOL0     C91171   5.501   2.540   0.994 -0.4790 -0.3917  0.0537
  676MOL0     O91172   5.323   2.720   1.125  0.2587 -0.0294  0.5285
  676MOL0     C91173   5.104   2.720   1.333  0.5245 -0.0795 -0.1680
  676MOL0     C91174   4.983   2.706   1.403  0.0003 -0.2472  0.3480
  676MOL0     N91175   4.445   2.511   1.932 -0.1981  0.3948 -0.2451
  676MOL0     N91176   4.382   2.614   1.969 -0.8259 -0.6934 -0.3910
  676MOL0     C91177   4.162   2.855   3.166 -0.5891 -0.3397  0.1464
  676MOL0     C91178   4.037   2.858   3.236  0.9772 -0.3124 -0.5468
  676MOL0     C91179   3.756   3.090   3.498 -0.5291 -0.3558  0.5358
  676MOL0     C91180   3.631   3.053   3.439  0.6654  0.1611 -0.1575
  676MOL0     C91181   3.517   3.063   3.518 -0.3961  0.0454  0.1892
  676MOL0     C91182   3.511   3.094   3.651  1.2020  0.8918  0.1935
  676MOL0     O91183   3.393   3.080   3.722  0.3504 -0.3783  0.2899
  676MOL0     C91184   3.391   3.130   3.857 -0.2142 -0.6270 -1.6167
  676MOL0     C91185   3.401   3.035   3.969  0.7912 -0.0818 -0.9915
  676MOL0     C91186   3.539   2.972   3.990  0.5649  0.4368 -0.5689
  676MOL0     C91187   3.566   2.922   4.125  0.3646 -0.0332 -0.0806
  676MOL0     C91188   3.463   2.840   4.198 -0.2038 -1.1427  0.0402
  676MOL0     C91189   3.390   2.760   4.258  0.1972  0.3189  0.4744
  676MOL0     C91190   3.630   3.146   3.705 -0.0668  0.2141 -0.1521
  676MOL0     C91191   3.750   3.148   3.631  0.4054  0.0251 -0.1828
  676MOL0     C91192   3.867   3.207   3.711  0.2599  0.8709 -0.4559
  676MOL0     H91193   3.955   3.174   3.120  0.8986  1.1392  0.2913
  676MOL0     H91194   4.173   3.165   3.019 -0.9852 -0.4667 -1.3746
  676MOL0     H91195   4.387   3.161   3.013 -0.3245  0.3331 -1.8522
  676MOL0     H91196   4.517   3.054   2.960  0.9621 -0.7556  0.7147
  676MOL0     H91197   4.358   3.184   2.783 -0.9836 -0.8333 -1.0128
  676MOL0     H91198   4.247   3.080   2.817  0.4451  0.3613 -0.3975
  676MOL0     H91199   4.373   2.882   2.769  0.1496  2.4632  3.5900
  676MOL0     H91200   4.522   2.977   2.734 -0.0326  3.2752  1.9920
  676MOL0     H91201   4.267   3.001   2.572 -0.1328 -3.1867 -0.8224
  676MOL0     H91202   4.408   3.088   2.530  0.6987  0.2637  0.3814
  676MOL0     H91203   4.537   2.870   2.485 -0.2270 -2.5220  1.1661
  676MOL0     H91204   4.385   2.786   2.512  3.1049 -1.7092  1.1136
  676MOL0     H91205   4.287   2.909   2.313  0.6523 -3.2353 -0.5153
  676MOL0     H91206   4.426   3.017   2.312 -0.6077 -0.8862  0.3677
  676MOL0     H91207   4.445   2.709   2.298 -1.0045 -1.4446 -3.2237
  676MOL0     H91208   4.576   2.829   2.275  0.4897  1.9535 -0.9462
  676MOL0     H91209   4.326   2.838   2.093  0.6775 -0.0873 -2.9093
  676MOL0     H91210   4.482   2.915   2.069 -0.4225 -0.2460 -1.1430
  676MOL0     H91211   4.690   2.708   2.023 -0.8011  2.5045  1.2871
  676MOL0     H91212   4.768   2.505   1.900  1.1777 -1.2113  2.6387
  676MOL0     H91213   4.686   2.374   1.987 -1.2405 -0.5995 -0.4226
  676MOL0     H91214   4.708   2.292   1.763  0.4384  0.4868 -2.4247
  676MOL0     H91215   4.546   2.348   1.767  1.7374 -4.6229 -0.0591
  676MOL0     H91216   4.649   2.577   1.671  1.8051  0.3190  2.3726
  676MOL0     H91217   4.603   2.426   1.581 -1.6956 -1.6218  2.8076
  676MOL0     H91218   4.821   2.368   1.558  0.1383 -0.9641  1.6183
  676MOL0     H91219   4.881   2.481   1.690  1.6533  2.0032 -1.5142
  676MOL0     H91220   5.032   2.378   1.487  0.3929 -0.1936  1.3094
  676MOL0     H91221   5.216   2.405   1.348 -0.6514 -0.1866  2.5069
  676MOL0     H91222   5.647   2.398   1.267 -0.3223 -3.1188 -0.9489
  676MOL0     H91223   5.821   2.368   1.104 -0.8170 -0.9417  1.5069
  676MOL0     H91224   5.825   2.567   0.690 -0.5823  2.1960  1.8010
  676MOL0     H91225   5.849   2.640   0.843  0.0629 -0.6822  2.3615
  676MOL0     H91226   6.035   2.425   0.742 -1.2673  0.3914  0.2021
  676MOL0     H91227   6.045   2.598   0.687 -2.9970  1.2485 -0.1684
  676MOL0     H91228   6.086   2.643   0.941  0.6466 -0.7620  0.8140
  676MOL0     H91229   6.085   2.472   0.969  4.9453 -1.0243  0.8780
  676MOL0     H91230   6.268   2.591   0.777  0.1925  1.8193  1.2752
  676MOL0     H91231   6.268   2.412   0.842 -1.4031  0.8381 -2.7024
  676MOL0     H91232   6.376   2.463   1.012 -0.5194 -1.7453 -2.9842
  676MOL0     H91233   6.315   2.631   1.049  2.0520  2.1487 -0.3685
  676MOL0     H91234   6.508   2.567   0.832 -0.4694 -0.9374  0.5580
  676MOL0     H91235   6.453   2.723   0.886  0.1012 -0.7770 -0.2561
  676MOL0     H91236   6.604   2.512   1.050 -0.5225  0.1700  0.7964
  676MOL0     H91237   6.575   2.672   1.111  0.2727 -1.3650  1.1184
  676MOL0     H91238   6.801   2.636   1.017  0.3047 -1.7695  0.7975
  676MOL0     H91239   6.742   2.635   0.854 -0.7695 -2.7365  0.9909
  676MOL0     H91240   5.580   2.544   0.800 -0.7652 -1.1951 -0.1045
  676MOL0     H91241   5.409   2.577   0.950 -1.0243  1.0552  2.2319
  676MOL0     H91242   5.116   2.818   1.288  2.5288  0.1763  0.8467
  676MOL0     H91243   4.931   2.800   1.421 -2.0971 -1.3947  0.4770
  676MOL0     H91244   4.225   2.767   3.165 -1.8799 -1.3344  1.7412
  676MOL0     H91245   3.997   2.774   3.292  3.3266 -3.0346 -2.6263
  676MOL0     H91246   3.624   3.010   3.339  0.5896 -1.7444  0.6208
  676MOL0     H91247   3.428   3.031   3.466 -0.1099  1.3972 -1.2254
  676MOL0     H91248   3.295   3.180   3.872  0.0695 -0.5884  0.3673
  676MOL0     H91249   3.460   3.213   3.876 -1.1765  0.3412 -2.2588
  676MOL0     H91250   3.319   2.963   3.966 -1.7272  2.6084 -2.1275
  676MOL0     H91251   3.389   3.094   4.060 -0.6993 -2.0524  0.1678
  676MOL0     H91252   3.608   3.053   3.966 -0.1107  1.4266  0.7172
  676MOL0     H91253   3.557   2.899   3.910  1.7204  1.7035 -1.5252
  676MOL0     H91254   3.648   2.851   4.115  1.2607  0.9126  0.3489
  676MOL0     H91255   3.585   3.003   4.196 -0.9112  0.1409  0.0919
  676MOL0     H91256   3.340   2.684   4.314 -0.0896  0.0602 -0.1195
  676MOL0     H91257   3.634   3.166   3.812 -1.0034  0.3369 -0.1248
  676MOL0     H91258   3.943   3.129   3.726  2.5165  2.7867 -1.4017
  676MOL0     H91259   3.914   3.287   3.653  2.0777  1.3652  1.5862
  676MOL0     H91260   3.831   3.256   3.801 -1.1241  0.7813 -0.9354
  677MOL0     O91261   8.143   2.169   2.240 -0.3542  0.6492 -0.8049
  677MOL0     C91262   8.213   2.113   2.154 -0.1717  1.1381  0.5969
  677MOL0     O91263   8.346   2.106   2.150  0.0468  0.1173 -0.7614
  677MOL0     C91264   8.416   2.219   2.172  1.2188  0.2903  0.7173
  677MOL0     C91265   8.362   2.348   2.150  0.3074 -0.5357  0.1722
  677MOL0     C91266   8.445   2.462   2.155 -0.2224 -0.1168  0.3753
  677MOL0     C91267   8.579   2.449   2.179 -0.4261 -0.5091 -0.2051
  677MOL0     O91268   8.651   2.563   2.154  0.3403 -0.0260 -0.4324
  677MOL0     C91269   8.782   2.584   2.195 -0.0667  0.4986  0.8257
  677MOL0     C91270   8.810   2.727   2.148 -0.2904 -0.5395 -0.3397
  677MOL0     C91271   8.948   2.781   2.197  0.2505  0.2112  0.3254
  677MOL0     C91272   9.007   2.885   2.101 -0.0086  0.2160  0.6988
  677MOL0     C91273   9.145   2.923   2.146 -0.1604  0.2395 -0.4857
  677MOL0     C91274   9.212   3.056   2.090  0.1482  0.4317  0.4734
  677MOL0     C91275   9.212   3.064   1.934  0.8183 -0.1799 -0.6627
  677MOL0     C91276   9.289   3.189   1.876  0.2771 -0.4097 -0.3930
  677MOL0     N91277   9.275   3.180   1.733  0.9346  0.7409  0.8839
  677MOL0     C91278   9.162   3.214   1.662  0.6002 -0.0997  0.0568
  677MOL0     C91279   9.189   3.196   1.525 -0.0972  0.9048 -0.6612
  677MOL0     C91280   9.089   3.192   1.411  0.4787  0.2397 -0.6623
  677MOL0     C91281   8.973   3.089   1.443 -0.0821 -0.6952  0.0051
  677MOL0     C91282   8.871   3.072   1.323  0.4794  0.4104 -0.3846
  677MOL0     C91283   8.771   2.975   1.360  0.5315  0.1859 -0.3941
  677MOL0     O91284   8.679   3.041   1.449  0.4512 -0.1014 -0.0985
  677MOL0     C91285   8.548   3.047   1.407 -0.5658 -0.0259 -0.8849
  677MOL0     C91286   8.462   2.991   1.495  1.3963  0.2880  0.6313
  677MOL0     C91287   8.324   2.981   1.467  0.0397 -0.7877  0.0229
  677MOL0     C91288   8.272   3.053   1.351  0.1415  0.3539  0.5531
  677MOL0     C91289   8.129   3.067   1.321 -0.2466  0.7227  0.1513
  677MOL0     O91290   8.058   3.052   1.437 -0.4273  0.0703 -0.1677
  677MOL0     C91291   7.932   3.095   1.458  0.4407 -1.0365  1.1041
  677MOL0     C91292   7.819   3.006   1.436 -0.4166 -0.6194  0.7099
  677MOL0     C91293   7.701   3.041   1.497 -0.1321  0.4670  0.3956
  677MOL0     C91294   7.683   3.173   1.554  0.0444 -0.8236  0.1944
  677MOL0     O91295   7.564   3.202   1.621  0.2338  1.0534 -0.1228
  677MOL0     C91296   7.495   3.095   1.689  0.0435  0.5740 -0.3946
  677MOL0     C91297   7.395   3.164   1.793 -0.1342 -0.7391  0.5112
  677MOL0     C91298   7.284   3.243   1.729 -0.3235 -0.4223  0.4590
  677MOL0     C91299   7.183   3.295   1.816  0.3748 -0.1488 -0.1433
  677MOL0     C91300   7.088   3.392   1.758 -0.0235  0.0603 -0.1983
  677MOL0     C91301   6.991   3.443   1.870 -0.2951 -0.6348  1.0252
  677MOL0     C91302   6.904   3.338   1.942  0.5786  0.4145 -0.4528
  677MOL0     C91303   6.908   3.354   2.104  0.2164 -0.0413  0.3916
  677MOL0    Cl91304   6.781   3.262   2.183 -0.0021  0.4213  0.0140
  677MOL0     C91305   7.785   3.267   1.556 -0.1803  0.0558 -1.1046
  677MOL0     C91306   7.909   3.224   1.517 -0.3662  0.6585  0.5073
  677MOL0     O91307   8.086   3.101   1.211  0.6728 -0.1716  0.2037
  677MOL0     C91308   8.366   3.116   1.274 -0.5891  0.3715  0.2055
  677MOL0     C91309   8.502   3.104   1.297 -0.0089 -0.9369  0.7393
  677MOL0     N91310   9.323   3.155   1.523 -0.6340 -0.5083  0.3692
  677MOL0     N91311   9.367   3.131   1.640 -1.0043 -0.4257 -0.0805
  677MOL0     C91312   8.637   2.321   2.203 -0.3844 -0.3596  0.5098
  677MOL0     C91313   8.555   2.210   2.191  0.2882  0.6481 -0.2264
  677MOL0     C91314   8.132   2.023   2.063 -0.8344 -0.2665  0.0978
  677MOL0     C91315   8.016   1.950   2.106  0.1303  0.4519  0.2269
  677MOL0     C91316   7.959   1.854   2.020 -0.7937 -0.5510  0.5217
  677MOL0     C91317   7.994   1.831   1.889 -0.6372  0.4891 -1.0699
  677MOL0     O91318   7.930   1.740   1.805  0.5533  0.5823 -0.5037
  677MOL0     C91319   7.799   1.693   1.838 -0.9388 -0.0748 -0.2315
  677MOL0     C91320   7.717   1.667   1.711 -0.2678 -0.2614  0.7721
  677MOL0     C91321   7.623   1.533   1.723 -0.9390  0.0657  0.2845
  677MOL0     C91322   7.583   1.486   1.582  0.3208 -0.4427  0.6787
  677MOL0     C91323   7.490   1.375   1.598  0.2899  0.0648 -0.2269
  677MOL0     C91324   7.422   1.271   1.616 -0.2237 -0.2021 -0.2306
  677MOL0     C91325   8.110   1.897   1.852  0.1665 -0.1731 -0.5027
  677MOL0     C91326   8.160   2.007   1.922  0.9070  0.2542  0.1532
  677MOL0     C91327   8.258   2.096   1.851 -0.6677  0.2647  0.4189
  677MOL0     H91328   8.264   2.368   2.109 -0.5029 -4.3000 -0.1174
  677MOL0     H91329   8.396   2.554   2.124  2.2074  1.6422  1.4663
  677MOL0     H91330   8.799   2.573   2.302  2.7917 -3.1790  0.1957
  677MOL0     H91331   8.856   2.512   2.159  0.4951 -0.6574  4.0033
  677MOL0     H91332   8.731   2.792   2.188  1.9765  2.4089 -0.2888
  677MOL0     H91333   8.796   2.731   2.040 -0.4043 -0.4546 -0.3227
  677MOL0     H91334   9.010   2.692   2.212 -3.2966 -2.6740 -0.8882
  677MOL0     H91335   8.942   2.824   2.298  1.7759  0.3864  0.3778
  677MOL0     H91336   9.009   2.836   2.003  2.9195  0.4370  0.5732
  677MOL0     H91337   8.936   2.968   2.109  0.5046  0.5427  2.3060
  677MOL0     H91338   9.140   2.925   2.256  0.4365  0.8029 -0.4618
  677MOL0     H91339   9.207   2.837   2.116 -2.0691 -2.5609  2.8233
  677MOL0     H91340   9.180   3.157   2.121  0.4334  0.4807  0.6107
  677MOL0     H91341   9.311   3.032   2.129  0.8317 -0.2078 -1.5790
  677MOL0     H91342   9.112   3.077   1.892 -0.3020  2.1856  2.3744
  677MOL0     H91343   9.251   2.971   1.890  0.4388 -0.5366 -0.2496
  677MOL0     H91344   9.249   3.289   1.895  0.9042  0.5174 -3.4507
  677MOL0     H91345   9.393   3.192   1.909 -0.0869  3.8134  0.9245
  677MOL0     H91346   9.067   3.243   1.708  0.9580  1.9930 -0.4008
  677MOL0     H91347   9.056   3.294   1.390  1.0159  0.3133 -1.1654
  677MOL0     H91348   9.147   3.164   1.323  0.2702  0.9886 -1.0522
  677MOL0     H91349   9.018   2.990   1.457 -0.9235 -0.7375  3.0884
  677MOL0     H91350   8.927   3.099   1.542  3.8079  0.2229  1.8982
  677MOL0     H91351   8.927   3.028   1.240  2.1295  4.5526 -1.6986
  677MOL0     H91352   8.830   3.167   1.289 -0.7814 -0.3397 -1.0727
  677MOL0     H91353   8.816   2.884   1.400  0.2984  1.3300  2.8020
  677MOL0     H91354   8.716   2.951   1.269 -2.3514  0.4260  1.1827
  677MOL0     H91355   8.500   2.942   1.585 -0.5027 -1.5022  0.5571
  677MOL0     H91356   8.255   2.927   1.531 -1.1381  0.3793 -0.2314
  677MOL0     H91357   7.840   2.911   1.386  1.5697  1.4330 -2.8128
  677MOL0     H91358   7.616   2.973   1.486 -2.1656  3.1322 -2.1750
  677MOL0     H91359   7.442   3.027   1.622 -1.0680  1.1693 -0.1418
  677MOL0     H91360   7.571   3.034   1.739 -1.5377 -2.1725 -1.1296
  677MOL0     H91361   7.355   3.090   1.862  0.8692 -2.0321 -0.2671
  677MOL0     H91362   7.448   3.235   1.857  1.7335  0.3654 -2.0765
  677MOL0     H91363   7.322   3.336   1.686  3.5430 -1.2089  1.7584
  677MOL0     H91364   7.241   3.178   1.652 -1.9727  1.2291 -0.0648
  677MOL0     H91365   7.247   3.350   1.885  1.0743  0.0260 -0.9147
  677MOL0     H91366   7.132   3.213   1.867 -0.5084  0.2469 -0.3604
  677MOL0     H91367   7.037   3.318   1.696  1.4991  0.1493 -1.6260
  677MOL0     H91368   7.138   3.480   1.717  1.4184 -1.6164 -2.2177
  677MOL0     H91369   7.063   3.486   1.941  1.6030 -0.3093 -1.0080
  677MOL0     H91370   6.928   3.521   1.826  0.8664 -0.9607 -1.3318
  677MOL0     H91371   6.924   3.235   1.909  4.5786  1.6470 -2.5257
  677MOL0     H91372   6.798   3.357   1.923  0.3619  1.9577  1.8720
  677MOL0     H91373   7.009   3.319   2.129 -0.1849 -0.3921  1.5823
  677MOL0     H91374   6.913   3.457   2.140  4.1440  0.9215 -2.2265
  677MOL0     H91375   7.770   3.368   1.591 -2.7601 -0.2416 -1.1548
  677MOL0     H91376   8.002   3.281   1.523  0.3462 -0.4829  0.4851
  677MOL0     H91377   8.343   3.181   1.190  0.1688  1.1715  0.6091
  677MOL0     H91378   8.575   3.152   1.232 -0.9802 -0.1382  0.2065
  677MOL0     H91379   8.739   2.305   2.235  0.2711  1.9831 -0.2124
  677MOL0     H91380   8.591   2.108   2.204  1.8902  1.2909  0.7107
  677MOL0     H91381   7.978   1.975   2.205 -0.8609  2.4382 -0.5983
  677MOL0     H91382   7.880   1.794   2.063  0.4103 -1.8891  0.9375
  677MOL0     H91383   7.732   1.749   1.903 -0.6837 -0.9977  0.8458
  677MOL0     H91384   7.815   1.598   1.888  0.0107  0.7658  1.1354
  677MOL0     H91385   7.779   1.674   1.621 -0.4897  1.5929  0.7110
  677MOL0     H91386   7.647   1.748   1.687  0.1580 -0.1815 -0.2633
  677MOL0     H91387   7.536   1.558   1.783 -0.3945  5.1251 -0.6315
  677MOL0     H91388   7.683   1.453   1.769  0.1434 -0.4363 -1.8584
  677MOL0     H91389   7.524   1.558   1.524  0.2309 -1.4952 -0.5692
  677MOL0     H91390   7.672   1.468   1.522  0.2666  0.5349  0.2873
  677MOL0     H91391   7.368   1.181   1.632 -0.3173  0.2751  2.5123
  677MOL0     H91392   8.144   1.869   1.753 -0.3041 -1.6274 -0.2764
  677MOL0     H91393   8.249   2.113   1.744  0.8157 -0.6143  0.1317
  677MOL0     H91394   8.252   2.197   1.893 -0.6423  0.7676 -0.7752
  677MOL0     H91395   8.358   2.052   1.859  0.5278  2.6338 -0.6170
  678MOL0     O91396   7.279   1.061   1.417 -0.4224  0.1157  0.4813
  678MOL0     C91397   7.170   1.107   1.397 -0.2806  0.3739 -0.2523
  678MOL0     O91398   7.059   1.084   1.469  0.5496  0.2582 -0.0065
  678MOL0     C91399   7.054   1.001   1.575 -0.1984  0.3236  0.1041
  678MOL0     C91400   7.029   1.062   1.695 -0.3504 -0.1865 -0.9649
  678MOL0     C91401   7.036   0.994   1.820 -0.6063 -0.4206  0.3754
  678MOL0     C91402   7.072   0.859   1.819 -0.3882 -0.0458 -0.0909
  678MOL0     O91403   7.088   0.788   1.937 -1.6179  0.1614  0.7255
  678MOL0     C91404   7.017   0.837   2.055  0.0199  0.6836  0.2072
  678MOL0     C91405   7.074   0.772   2.176 -0.3497 -0.3114 -0.1465
  678MOL0     C91406   7.228   0.761   2.173  0.1835 -0.9335  0.0846
  678MOL0     C91407   7.302   0.622   2.151 -0.1653 -0.2875 -0.0905
  678MOL0     C91408   7.445   0.658   2.174  0.2314 -0.5185  0.6784
  678MOL0     C91409   7.526   0.578   2.285  0.1390 -0.7550 -0.2311
  678MOL0     C91410   7.576   0.443   2.229  1.3363  0.1539  0.6622
  678MOL0     C91411   7.665   0.354   2.311 -0.3897  0.1070 -1.1555
  678MOL0     N91412   7.788   0.425   2.342 -0.3160 -0.7166 -0.4477
  678MOL0     C91413   7.895   0.438   2.264  0.3700 -1.0863  1.6052
  678MOL0     C91414   7.994   0.499   2.332 -0.4132 -0.1865  0.5750
  678MOL0     C91415   8.134   0.531   2.283 -0.2256  0.1660 -0.0585
  678MOL0     C91416   8.156   0.675   2.246  0.0613  0.4932  0.7213
  678MOL0     C91417   8.301   0.704   2.211 -0.1887  0.8058  0.0147
  678MOL0     C91418   8.318   0.861   2.206 -0.3972  0.7684 -0.6016
  678MOL0     O91419   8.225   0.924   2.123 -0.7199 -0.9714  0.1935
  678MOL0     C91420   8.236   0.924   1.993  0.2312 -0.7606 -0.1815
  678MOL0     C91421   8.339   0.867   1.922 -0.4266 -0.0658 -0.4052
  678MOL0     C91422   8.364   0.874   1.788  0.9604  0.5652  0.5252
  678MOL0     C91423   8.286   0.957   1.712 -0.1348 -0.7699  1.0528
  678MOL0     C91424   8.315   0.974   1.565  0.9344 -0.2408  0.1617
  678MOL0     O91425   8.393   0.875   1.508  0.5420  0.8704  0.2895
  678MOL0     C91426   8.407   0.893   1.373 -0.3577 -0.2431  0.0726
  678MOL0     C91427   8.393   0.774   1.294 -0.5152 -0.2748 -0.3312
  678MOL0     C91428   8.441   0.765   1.163 -0.5730  0.8410  0.1808
  678MOL0     C91429   8.529   0.867   1.113  1.9599 -1.5798 -0.0155
  678MOL0     O91430   8.566   0.876   0.984 -0.6513  0.0131  0.8160
  678MOL0     C91431   8.525   0.763   0.895 -0.8084 -0.6390 -0.0720
  678MOL0     C91432   8.565   0.783   0.746 -0.3060  0.3587 -0.1347
  678MOL0     C91433   8.542   0.665   0.653 -0.5671  0.7558  0.5304
  678MOL0     C91434   8.643   0.558   0.672 -0.1693 -0.5316 -0.1892
  678MOL0     C91435   8.644   0.461   0.555  0.8883  0.2051 -0.2121
  678MOL0     C91436   8.769   0.375   0.564 -0.0364 -1.0938  0.0248
  678MOL0     C91437   8.805   0.287   0.440 -0.1263 -0.0304 -0.0379
  678MOL0     C91438   8.710   0.177   0.411  0.2017  0.0305 -0.3833
  678MOL0    Cl91439   8.551   0.225   0.345 -0.3054 -0.4683 -0.6697
  678MOL0     C91440   8.534   0.991   1.191  0.0527  0.1981 -0.0464
  678MOL0     C91441   8.469   1.008   1.316 -0.0021 -0.3757 -0.1830
  678MOL0     O91442   8.267   1.074   1.511  0.4124 -0.2689  0.0356
  678MOL0     C91443   8.189   1.025   1.775 -1.0366 -0.8484 -0.5252
  678MOL0     C91444   8.158   1.010   1.914 -0.7189  0.4291  0.2811
  678MOL0     N91445   7.939   0.515   2.458  0.7386 -0.3584 -0.0536
  678MOL0     N91446   7.818   0.480   2.466 -0.0162 -0.6013  0.0481
  678MOL0     C91447   7.097   0.797   1.703 -0.7491  0.3244  0.9979
  678MOL0     C91448   7.087   0.863   1.580  0.1509  0.5879 -0.0148
  678MOL0     C91449   7.145   1.182   1.268 -0.1342 -0.5986  0.9503
  678MOL0     C91450   7.018   1.255   1.252 -1.3403 -0.7886  0.9497
  678MOL0     C91451   6.994   1.335   1.143 -0.9634  0.0153 -0.8203
  678MOL0     C91452   7.076   1.329   1.033 -0.7822 -0.5846  0.6635
  678MOL0     O91453   7.038   1.382   0.911  0.4653 -0.1979  0.2707
  678MOL0     C91454   7.074   1.324   0.785 -0.4137 -0.7825  0.8126
  678MOL0     C91455   7.032   1.182   0.774  0.6178  0.1184  0.8427
  678MOL0     C91456   7.078   1.103   0.650 -0.8481 -0.7474 -0.5337
  678MOL0     C91457   6.961   1.022   0.603 -0.1166  0.5120  0.0716
  678MOL0     C91458   6.984   0.952   0.479  0.0342 -0.1639 -0.4518
  678MOL0     C91459   6.994   0.873   0.392  0.0122 -0.6269  1.4490
  678MOL0     C91460   7.194   1.256   1.050  0.4942  0.1784  0.3975
  678MOL0     C91461   7.238   1.196   1.164 -0.5642 -0.6145 -0.3199
  678MOL0     C91462   7.367   1.122   1.147 -0.4115 -0.4761  0.4669
  678MOL0     H91463   7.001   1.167   1.689 -0.8875 -0.2762 -0.1612
  678MOL0     H91464   7.004   1.043   1.912  0.0966 -1.0446  0.9682
  678MOL0     H91465   7.030   0.945   2.069 -0.9649  0.7878  0.4568
  678MOL0     H91466   6.914   0.805   2.037  0.7071 -1.2702 -0.5543
  678MOL0     H91467   7.025   0.675   2.178  0.5243 -0.8710 -2.5496
  678MOL0     H91468   7.040   0.818   2.269 -2.8889 -0.0294 -1.1442
  678MOL0     H91469   7.262   0.797   2.271  2.3729  0.4933 -1.1010
  678MOL0     H91470   7.261   0.830   2.095  0.9488  0.1070  1.2794
  678MOL0     H91471   7.280   0.546   2.226  1.8029  1.3561  2.2994
  678MOL0     H91472   7.276   0.579   2.054 -1.6697 -1.3188  0.7247
  678MOL0     H91473   7.490   0.631   2.077  0.5318 -1.2111  1.0036
  678MOL0     H91474   7.454   0.763   2.203  1.8984 -0.7240  1.0090
  678MOL0     H91475   7.615   0.638   2.307 -0.4890  0.8997 -1.9441
  678MOL0     H91476   7.463   0.559   2.372  3.2577  3.5179  3.4180
  678MOL0     H91477   7.634   0.467   2.139  1.8324 -0.3461  0.8400
  678MOL0     H91478   7.483   0.389   2.210  0.9304  0.2978  2.1252
  678MOL0     H91479   7.627   0.334   2.412  0.4296 -1.0565 -1.0642
  678MOL0     H91480   7.707   0.268   2.259  1.1329 -1.3874  2.2743
  678MOL0     H91481   7.912   0.401   2.164  4.2797  0.7934  1.4242
  678MOL0     H91482   8.198   0.503   2.367  3.0126 -1.3243 -2.7994
  678MOL0     H91483   8.158   0.464   2.200  0.1742 -1.9112  1.6840
  678MOL0     H91484   8.093   0.707   2.163 -0.2620 -2.3534 -0.1980
  678MOL0     H91485   8.124   0.745   2.324  0.6215  1.9121 -0.2749
  678MOL0     H91486   8.327   0.654   2.117 -1.7040  0.2263 -0.1296
  678MOL0     H91487   8.363   0.666   2.293 -1.2045 -1.4254 -0.1696
  678MOL0     H91488   8.424   0.877   2.183  0.1541 -0.1673  1.1306
  678MOL0     H91489   8.304   0.901   2.307 -0.4002 -1.5468  0.3695
  678MOL0     H91490   8.417   0.808   1.970 -0.9908 -1.0743 -0.7065
  678MOL0     H91491   8.449   0.823   1.743  0.5440 -0.3505  0.7556
  678MOL0     H91492   8.339   0.687   1.331  1.0429 -0.8306  0.7742
  678MOL0     H91493   8.428   0.673   1.107  0.5786 -0.4519  1.9539
  678MOL0     H91494   8.574   0.671   0.928 -1.0619 -0.4809  0.7622
  678MOL0     H91495   8.417   0.748   0.894 -1.2272  1.5670 -3.2890
  678MOL0     H91496   8.507   0.863   0.700 -0.3215  0.6315  0.3547
  678MOL0     H91497   8.669   0.817   0.746 -0.9939  2.6652  0.1997
  678MOL0     H91498   8.449   0.610   0.672  0.5557 -2.3949 -2.0320
  678MOL0     H91499   8.544   0.702   0.550 -0.9223 -0.5131  0.0479
  678MOL0     H91500   8.624   0.505   0.766 -1.9610 -0.3838 -0.4396
  678MOL0     H91501   8.746   0.594   0.677 -0.7195  1.4308 -1.6099
  678MOL0     H91502   8.655   0.526   0.467  3.4326  1.0228  0.6463
  678MOL0     H91503   8.559   0.392   0.550  1.0665  0.0350 -1.1532
  678MOL0     H91504   8.856   0.437   0.587  1.7438 -3.8036  1.0402
  678MOL0     H91505   8.760   0.317   0.655  0.8129 -0.4023  0.5649
  678MOL0     H91506   8.901   0.240   0.466 -0.4549 -0.2332  0.8694
  678MOL0     H91507   8.826   0.353   0.355 -3.3166  0.0626 -0.8584
  678MOL0     H91508   8.752   0.108   0.338  0.3412  1.5244 -1.7808
  678MOL0     H91509   8.691   0.124   0.504 -0.5599 -0.6422 -0.9102
  678MOL0     H91510   8.588   1.082   1.168 -1.2794  0.8728 -0.6176
  678MOL0     H91511   8.498   1.094   1.376  1.4852 -1.0294  0.0891
  678MOL0     H91512   8.128   1.096   1.721  1.0769  0.5932 -1.1257
  678MOL0     H91513   8.081   1.072   1.959 -1.0169 -1.4073  2.4265
  678MOL0     H91514   7.131   0.694   1.711  3.5804  1.5817  1.5301
  678MOL0     H91515   7.115   0.802   1.494  0.0164 -0.0802  0.4094
  678MOL0     H91516   6.948   1.242   1.333 -1.7796  0.1796  0.7474
  678MOL0     H91517   6.898   1.383   1.124 -0.9937 -0.0467 -0.8256
  678MOL0     H91518   7.182   1.325   0.771 -0.7516 -1.1271 -2.4096
  678MOL0     H91519   7.037   1.382   0.700  2.5139 -0.3356 -0.2724
  678MOL0     H91520   6.923   1.181   0.777  0.5582 -0.9056 -0.6129
  678MOL0     H91521   7.058   1.119   0.860  1.0215 -1.0804 -0.1327
  678MOL0     H91522   7.157   1.030   0.671 -3.4739 -4.6639 -2.9317
  678MOL0     H91523   7.098   1.176   0.570  0.8734  1.0958  1.4343
  678MOL0     H91524   6.935   0.942   0.674 -0.4303  0.7314  0.2095
  678MOL0     H91525   6.871   1.080   0.580 -1.6893 -1.6259  0.4028
  678MOL0     H91526   6.980   0.820   0.300 -0.6520  3.3076 -0.9758
  678MOL0     H91527   7.258   1.266   0.963  1.9663  0.8387  1.5169
  678MOL0     H91528   7.429   1.118   1.238 -2.3554  1.1178  1.9465
  678MOL0     H91529   7.345   1.019   1.119 -0.1589 -0.1049 -1.1771
  678MOL0     H91530   7.427   1.163   1.065 -1.6666  2.0911  0.7031
  679MOL0     O91531   9.033   3.279   6.662  0.5349 -0.4173 -0.0493
  679MOL0     C91532   9.123   3.189   6.652  0.3247 -0.2389 -0.0517
  679MOL0     O91533   9.181   3.116   6.753  0.2916 -0.8253  0.3938
  679MOL0     C91534   9.128   3.120   6.875  0.1385  0.7283 -0.3388
  679MOL0     C91535   9.098   3.003   6.955 -0.3945  0.2105 -0.4864
  679MOL0     C91536   9.068   3.021   7.091 -0.0638  0.1827 -0.8250
  679MOL0     C91537   9.048   3.143   7.149  0.3291 -0.2839  0.0095
  679MOL0     O91538   9.013   3.145   7.279  0.2938 -0.5351 -0.2198
  679MOL0     C91539   8.975   3.266   7.338 -0.2883 -0.5304 -0.2336
  679MOL0     C91540   8.830   3.317   7.306 -1.0282 -0.1089  0.0244
  679MOL0     C91541   8.721   3.224   7.365 -0.0708  0.3577  0.1269
  679MOL0     C91542   8.596   3.309   7.407  0.9348  0.2787  0.0941
  679MOL0     C91543   8.482   3.231   7.471 -0.9497  0.1572  0.5288
  679MOL0     C91544   8.436   3.111   7.382 -0.3853 -0.6583  0.2890
  679MOL0     C91545   8.344   3.018   7.459 -0.7710  0.1954  0.2292
  679MOL0     C91546   8.260   2.930   7.371  0.9588 -0.2401 -0.2587
  679MOL0     N91547   8.336   2.847   7.287 -0.4574 -0.8753 -0.1601
  679MOL0     C91548   8.407   2.739   7.319 -0.4435 -0.4752  0.3044
  679MOL0     C91549   8.432   2.681   7.199 -0.4013 -0.1767 -1.2789
  679MOL0     C91550   8.527   2.565   7.196 -0.3040  0.2725  0.4860
  679MOL0     C91551   8.643   2.587   7.092  0.9943  0.2883  0.4856
  679MOL0     C91552   8.753   2.486   7.118 -0.0955 -0.1048 -0.7483
  679MOL0     C91553   8.715   2.347   7.060 -0.6866  1.4543  0.7329
  679MOL0     O91554   8.827   2.250   7.070  0.6923 -0.6082  0.6863
  679MOL0     C91555   8.790   2.118   7.047  0.0873  0.8850 -0.5315
  679MOL0     C91556   8.872   2.023   7.100 -0.3984 -0.7809  1.0195
  679MOL0     C91557   8.851   1.890   7.071 -0.0027 -0.5807  0.5881
  679MOL0     C91558   8.762   1.847   6.973  0.1724  0.1805  0.0632
  679MOL0     C91559   8.746   1.706   6.935 -0.8805 -0.2640 -0.1498
  679MOL0     O91560   8.812   1.610   7.021 -0.4657 -0.8963  0.6542
  679MOL0     C91561   8.803   1.479   7.011  0.2157 -0.1569 -0.0211
  679MOL0     C91562   8.900   1.405   7.081 -0.3437  0.3578  0.0530
  679MOL0     C91563   8.900   1.268   7.087 -0.1531  0.5532 -0.6422
  679MOL0     C91564   8.820   1.197   7.003  0.0449 -0.0279  0.4940
  679MOL0     O91565   8.836   1.058   6.984 -0.4817 -0.6551 -0.7459
  679MOL0     C91566   8.917   1.015   6.877 -0.4155  0.0249  1.1034
  679MOL0     C91567   9.067   1.025   6.910 -0.5881 -0.4158  0.5670
  679MOL0     C91568   9.152   0.997   6.782  1.2664 -0.0331 -0.9471
  679MOL0     C91569   9.146   0.851   6.735  0.2428 -0.3218 -0.2976
  679MOL0     C91570   9.262   0.819   6.640  0.6528  0.6309  0.6071
  679MOL0     C91571   9.234   0.850   6.495  0.5490  0.3492 -0.2858
  679MOL0     C91572   9.362   0.893   6.422  0.5709  0.6296  0.9642
  679MOL0     C91573   9.329   0.897   6.277 -0.2802  0.2334  0.5702
  679MOL0    Cl91574   9.327   0.731   6.228 -0.4389  0.0310 -0.2218
  679MOL0     C91575   8.724   1.262   6.924  0.0425 -0.7198  0.1692
  679MOL0     C91576   8.709   1.404   6.927 -1.2563  0.9458 -0.5504
  679MOL0     O91577   8.682   1.676   6.834 -0.2764 -0.3373  0.9251
  679MOL0     C91578   8.679   1.945   6.912  0.7531 -0.1974 -0.7404
  679MOL0     C91579   8.691   2.081   6.957  0.5714 -0.0228  0.0473
  679MOL0     N91580   8.388   2.762   7.096  0.0963  0.3440  0.3055
  679MOL0     N91581   8.330   2.861   7.151 -0.5446 -0.7870 -0.2723
  679MOL0     C91582   9.069   3.253   7.069  0.1563 -0.4785  0.1052
  679MOL0     C91583   9.107   3.247   6.935  1.1870 -0.1502 -0.1955
  679MOL0     C91584   9.151   3.122   6.524 -0.3403  0.7650  1.4433
  679MOL0     C91585   9.167   2.981   6.523  1.3277 -1.0814 -0.3017
  679MOL0     C91586   9.174   2.917   6.399 -0.9482  0.8281  0.5380
  679MOL0     C91587   9.168   2.979   6.274 -0.3349 -0.3150 -0.1384
  679MOL0     O91588   9.172   2.914   6.153 -0.1763  0.2368 -0.2536
  679MOL0     C91589   9.231   2.781   6.159 -0.0055 -0.1048 -0.7977
  679MOL0     C91590   9.272   2.744   6.024 -0.2291  0.6380  0.9629
  679MOL0     C91591   9.140   2.704   5.954  0.0383 -0.3208  0.6037
  679MOL0     C91592   9.169   2.631   5.816 -0.7379 -1.1086 -0.4821
  679MOL0     C91593   9.223   2.494   5.823  0.3075 -0.4636  0.5438
  679MOL0     C91594   9.260   2.382   5.815  0.1993  0.2906 -0.2303
  679MOL0     C91595   9.143   3.110   6.276  0.0408 -0.9970 -0.8315
  679MOL0     C91596   9.139   3.185   6.398  0.1147  1.5929  0.4742
  679MOL0     C91597   9.129   3.334   6.387 -0.2899 -1.0031 -0.0304
  679MOL0     H91598   9.108   2.906   6.908  0.2655 -0.8806  1.7594
  679MOL0     H91599   9.047   2.931   7.149  2.9111  1.9630  3.5266
  679MOL0     H91600   8.983   3.250   7.446 -1.6445 -0.1080 -0.0540
  679MOL0     H91601   9.044   3.348   7.315 -0.3696  0.0290  1.3962
  679MOL0     H91602   8.811   3.311   7.198 -1.3747 -1.0699  0.1312
  679MOL0     H91603   8.814   3.420   7.340  1.5667 -0.0041  1.1315
  679MOL0     H91604   8.765   3.182   7.456 -0.2950 -1.5848 -0.6132
  679MOL0     H91605   8.697   3.155   7.284 -0.7004  1.5761 -0.7524
  679MOL0     H91606   8.620   3.387   7.481  2.8325 -2.0992  2.2004
  679MOL0     H91607   8.571   3.359   7.313  0.1155 -2.1825 -1.0779
  679MOL0     H91608   8.518   3.186   7.564  0.2469  1.2991  0.6479
  679MOL0     H91609   8.392   3.291   7.489  0.2017  1.0985  3.9499
  679MOL0     H91610   8.392   3.149   7.290  1.4844  0.3486 -0.2519
  679MOL0     H91611   8.522   3.046   7.359  0.1747 -1.2230  3.4643
  679MOL0     H91612   8.281   3.072   7.529 -1.9822  0.1502 -0.7902
  679MOL0     H91613   8.414   2.958   7.518 -1.6679  0.0765  1.1888
  679MOL0     H91614   8.189   2.874   7.432  1.0022  1.6086  1.5863
  679MOL0     H91615   8.206   3.005   7.312  0.7928 -0.2657 -0.1402
  679MOL0     H91616   8.426   2.711   7.422  1.2894  3.1977  1.1255
  679MOL0     H91617   8.556   2.569   7.301 -1.0249  3.1226  0.6646
  679MOL0     H91618   8.476   2.471   7.175  1.2285 -0.1692 -1.6114
  679MOL0     H91619   8.592   2.579   6.996  0.8053  0.1376  0.5975
  679MOL0     H91620   8.678   2.689   7.109  0.0244  0.1820  3.9071
  679MOL0     H91621   8.768   2.486   7.227 -2.9033 -0.3337 -0.2758
  679MOL0     H91622   8.844   2.522   7.070 -0.3544 -0.2912 -1.3845
  679MOL0     H91623   8.697   2.367   6.954  0.4418 -1.2989 -0.0567
  679MOL0     H91624   8.621   2.298   7.087  0.2724  0.3226  2.1785
  679MOL0     H91625   8.964   2.037   7.157  0.8243 -0.8080 -0.8537
  679MOL0     H91626   8.906   1.805   7.111 -1.7555 -1.1702  1.8901
  679MOL0     H91627   8.975   1.461   7.135  1.8897  0.0063 -2.5068
  679MOL0     H91628   8.981   1.216   7.137 -1.0671 -0.6467 -0.3413
  679MOL0     H91629   8.888   0.910   6.861 -0.5418  0.1497  0.4790
  679MOL0     H91630   8.891   1.074   6.789  0.0341 -2.6653 -1.0007
  679MOL0     H91631   9.089   1.131   6.923  1.6271 -0.9240  1.3486
  679MOL0     H91632   9.090   0.972   7.003 -2.0134 -2.2445 -0.0441
  679MOL0     H91633   9.128   1.075   6.710  1.2429  1.0758  0.2307
  679MOL0     H91634   9.252   1.020   6.821  0.9392 -0.4796  0.2248
  679MOL0     H91635   9.050   0.840   6.684  0.3219  2.9699 -1.3923
  679MOL0     H91636   9.152   0.784   6.821 -2.9640  1.1084  1.2005
  679MOL0     H91637   9.276   0.713   6.661 -2.0617  0.3012  1.0224
  679MOL0     H91638   9.346   0.876   6.682  0.1027  1.7452  0.2189
  679MOL0     H91639   9.193   0.759   6.451  0.7329 -0.0345  0.3205
  679MOL0     H91640   9.168   0.937   6.485  0.0849  0.0972  0.5192
  679MOL0     H91641   9.456   0.842   6.443 -0.6935 -1.6412  1.5151
  679MOL0     H91642   9.383   0.993   6.460 -1.0202  0.9849  1.0052
  679MOL0     H91643   9.233   0.945   6.257 -1.7135 -2.3934  0.6683
  679MOL0     H91644   9.400   0.960   6.222  0.1351  0.6918  1.6200
  679MOL0     H91645   8.666   1.199   6.857 -0.0788  0.7629 -1.1743
  679MOL0     H91646   8.637   1.457   6.865  0.8228  0.5772 -3.5022
  679MOL0     H91647   8.597   1.928   6.844 -1.4474  1.0043  1.4572
  679MOL0     H91648   8.635   2.153   6.898 -0.8525 -3.0186 -2.5072
  679MOL0     H91649   9.080   3.351   7.115  1.6464 -0.9225  0.7537
  679MOL0     H91650   9.115   3.341   6.881 -1.0101 -0.1718 -0.6591
  679MOL0     H91651   9.168   2.925   6.616 -2.4382 -0.7411  0.1288
  679MOL0     H91652   9.194   2.810   6.409  2.0671  1.3213  0.9158
  679MOL0     H91653   9.174   2.701   6.205  0.8921 -2.2442 -3.1848
  679MOL0     H91654   9.322   2.790   6.219  1.4951 -2.8437 -2.4856
  679MOL0     H91655   9.336   2.656   6.019 -1.6376 -0.3844  0.2461
  679MOL0     H91656   9.325   2.828   5.978  0.2413  0.0701  0.4482
  679MOL0     H91657   9.075   2.789   5.936  1.6704  0.4162 -2.5179
  679MOL0     H91658   9.090   2.629   6.016 -3.6247 -0.2492 -1.9757
  679MOL0     H91659   9.085   2.629   5.747 -1.6807 -3.0690  0.6414
  679MOL0     H91660   9.241   2.700   5.770  2.0762 -1.7267  2.5317
  679MOL0     H91661   9.297   2.282   5.822  0.1027  0.3698  2.3643
  679MOL0     H91662   9.118   3.158   6.182 -0.6615  0.0421 -0.1432
  679MOL0     H91663   9.030   3.376   6.405  1.1813  1.5980  3.1061
  679MOL0     H91664   9.178   3.369   6.479  2.1901 -1.8039 -0.9483
  679MOL0     H91665   9.182   3.390   6.310  1.9006  3.1914  4.0120
  680MOL0     O91666   9.574   5.224   4.006 -0.0044  0.0687  0.4569
  680MOL0     C91667   9.626   5.209   4.114  0.4288  0.6047  0.3308
  680MOL0     O91668   9.570   5.267   4.232 -0.2325 -0.0746 -0.3763
  680MOL0     C91669   9.461   5.358   4.217 -0.6084  0.2158  0.6721
  680MOL0     C91670   9.464   5.472   4.134  0.0796 -0.6621  0.6041
  680MOL0     C91671   9.364   5.568   4.138 -0.7006 -0.1605  0.6489
  680MOL0     C91672   9.247   5.553   4.222  0.2990  0.2594  0.8714
  680MOL0     O91673   9.132   5.637   4.216  0.2004 -1.0058 -0.2906
  680MOL0     C91674   9.086   5.666   4.079 -0.4066 -0.2988 -0.5965
  680MOL0     C91675   8.951   5.739   4.084  0.3173  0.4670 -0.1482
  680MOL0     C91676   8.854   5.648   4.153  0.2220  0.6566 -0.9235
  680MOL0     C91677   8.728   5.729   4.171  0.3677  0.0537  0.6544
  680MOL0     C91678   8.622   5.645   4.230  0.2279 -0.3017  0.6425
  680MOL0     C91679   8.635   5.630   4.381 -0.6182 -0.3124  0.7437
  680MOL0     C91680   8.519   5.550   4.437  0.0128 -0.5428 -0.1762
  680MOL0     C91681   8.555   5.521   4.584 -0.2917  0.7004  0.6881
  680MOL0     N91682   8.455   5.431   4.641  0.3891 -0.1104  0.2684
  680MOL0     C91683   8.345   5.474   4.715  0.2206  0.0246 -0.7113
  680MOL0     C91684   8.262   5.367   4.728 -0.8886 -0.2205 -0.8180
  680MOL0     C91685   8.126   5.360   4.784  0.0743 -0.4890  0.2744
  680MOL0     C91686   8.104   5.438   4.912  0.4975  0.2770 -0.2603
  680MOL0     C91687   7.964   5.418   4.967 -0.8124  0.0867  0.3563
  680MOL0     C91688   7.945   5.487   5.100 -0.7237 -0.1157 -0.3236
  680MOL0     O91689   7.803   5.454   5.132  0.3149 -0.3148  0.2667
  680MOL0     C91690   7.733   5.526   5.228  0.6891  0.4906 -0.3020
  680MOL0     C91691   7.784   5.648   5.279 -0.8180  0.1082  0.0259
  680MOL0     C91692   7.720   5.715   5.381  0.3065  0.1252  1.2887
  680MOL0     C91693   7.597   5.666   5.433 -0.1905 -1.1012  0.6305
  680MOL0     C91694   7.513   5.739   5.533 -0.6986  0.8192 -0.0249
  680MOL0     O91695   7.377   5.716   5.537 -0.0929  0.0463 -0.5046
  680MOL0     C91696   7.287   5.775   5.635 -0.2798 -0.0666  1.2186
  680MOL0     C91697   7.335   5.835   5.754 -0.1557 -0.1020 -0.9274
  680MOL0     C91698   7.245   5.908   5.836  0.8368  0.0280  0.9268
  680MOL0     C91699   7.117   5.926   5.800  0.5370  0.1612 -0.6546
  680MOL0     O91700   7.044   6.016   5.878  0.4539  1.1278  0.8881
  680MOL0     C91701   6.947   5.952   5.963  1.1443  0.0114  0.2239
  680MOL0     C91702   6.882   6.048   6.068  0.1507 -1.3290 -0.0288
  680MOL0     C91703   6.843   6.186   6.008 -0.2479 -0.2111 -0.0538
  680MOL0     C91704   6.778   6.180   5.870  0.5099  0.5294 -0.2814
  680MOL0     C91705   6.723   6.318   5.847 -0.3433  0.3015  1.2896
  680MOL0     C91706   6.666   6.339   5.705 -0.0347  0.3721 -0.0064
  680MOL0     C91707   6.640   6.491   5.676  0.0148 -0.2285 -0.7947
  680MOL0     C91708   6.583   6.513   5.533 -0.4384  0.6438 -0.8662
  680MOL0    Cl91709   6.707   6.470   5.423 -0.3213  0.2128 -0.1372
  680MOL0     C91710   7.074   5.857   5.693 -0.5389  0.0455  0.6375
  680MOL0     C91711   7.153   5.788   5.602 -0.1926  1.0621  0.0738
  680MOL0     O91712   7.568   5.824   5.606 -0.0794  0.3080  0.1151
  680MOL0     C91713   7.551   5.545   5.385  0.2202  1.3291  0.0601
  680MOL0     C91714   7.605   5.478   5.274  0.6460 -0.2318  0.3204
  680MOL0     N91715   8.328   5.261   4.674  0.1291 -0.0801 -0.1937
  680MOL0     N91716   8.439   5.301   4.619 -0.5053  0.6800 -0.5838
  680MOL0     C91717   9.246   5.436   4.295 -0.8835 -0.2456  0.8205
  680MOL0     C91718   9.351   5.347   4.296 -0.4760 -0.1601 -0.8335
  680MOL0     C91719   9.730   5.107   4.116  0.0602  0.2409 -0.7231
  680MOL0     C91720   9.805   5.082   3.992  0.3243 -0.5816 -0.5842
  680MOL0     C91721   9.910   4.992   3.995 -0.5206 -0.5388 -0.3092
  680MOL0     C91722   9.937   4.905   4.103  0.1282 -0.7805  1.4441
  680MOL0     O91723  10.033   4.807   4.115 -0.6779 -0.4879  0.1755
  680MOL0     C91724  10.115   4.787   4.000 -0.0969 -1.2305 -0.5794
  680MOL0     C91725  10.237   4.706   4.051 -0.3866 -0.0163 -0.3853
  680MOL0     C91726  10.229   4.555   4.043 -0.3147 -0.1441 -0.6283
  680MOL0     C91727  10.153   4.490   4.152 -0.2452 -0.6200 -0.2020
  680MOL0     C91728  10.219   4.500   4.288 -0.0915 -1.1709 -0.3296
  680MOL0     C91729  10.269   4.511   4.395 -0.1767 -0.3741  0.2879
  680MOL0     C91730   9.856   4.922   4.216 -0.3136 -0.2702  0.2969
  680MOL0     C91731   9.757   5.016   4.224  0.9912 -0.4622 -0.0721
  680MOL0     C91732   9.669   5.023   4.343 -0.2673  0.5260  0.4671
  680MOL0     H91733   9.540   5.482   4.056  0.4640 -1.7313  0.8331
  680MOL0     H91734   9.352   5.655   4.074 -1.2677 -0.3251  0.5318
  680MOL0     H91735   9.157   5.734   4.030  0.2013  0.4897  1.2859
  680MOL0     H91736   9.082   5.577   4.016 -1.2418  0.2727 -1.3804
  680MOL0     H91737   8.919   5.765   3.983  1.1188 -2.2173 -1.1619
  680MOL0     H91738   8.962   5.829   4.146  1.0582 -0.7595  1.5866
  680MOL0     H91739   8.874   5.631   4.259 -2.7928 -0.4512 -0.4410
  680MOL0     H91740   8.821   5.555   4.107 -3.4314  0.5732  1.4641
  680MOL0     H91741   8.738   5.814   4.238  0.4136  0.8922 -0.4022
  680MOL0     H91742   8.701   5.766   4.072 -2.9917 -1.0816  1.0054
  680MOL0     H91743   8.521   5.684   4.213  0.8658  0.9826 -0.3330
  680MOL0     H91744   8.628   5.547   4.181  3.9871 -1.2641  2.6624
  680MOL0     H91745   8.725   5.570   4.398 -0.0619  0.7245  1.5426
  680MOL0     H91746   8.648   5.717   4.445  2.8055 -2.1713  2.8842
  680MOL0     H91747   8.500   5.455   4.386 -1.4131  0.5199 -1.6999
  680MOL0     H91748   8.424   5.603   4.428 -0.3286 -1.0179  0.5796
  680MOL0     H91749   8.646   5.463   4.593 -0.4045 -0.0211 -2.1408
  680MOL0     H91750   8.568   5.615   4.640 -2.0947  0.7627  1.0829
  680MOL0     H91751   8.330   5.578   4.742  1.7401  0.5297 -1.6853
  680MOL0     H91752   8.054   5.399   4.711 -1.4531 -2.0518  0.8874
  680MOL0     H91753   8.106   5.254   4.803 -2.0925  0.3781  3.7714
  680MOL0     H91754   8.173   5.399   4.987  0.5764  2.0952  0.6571
  680MOL0     H91755   8.138   5.541   4.902  2.6271 -0.3672 -0.1880
  680MOL0     H91756   7.949   5.310   4.970 -3.8617  0.1890 -3.3304
  680MOL0     H91757   7.900   5.465   4.892  0.6623  1.4998 -0.0746
  680MOL0     H91758   7.965   5.594   5.092 -1.6625  0.1754  0.8978
  680MOL0     H91759   8.015   5.450   5.174  1.2267  1.5541 -1.2437
  680MOL0     H91760   7.872   5.697   5.238  1.4069 -3.3721  0.3169
  680MOL0     H91761   7.765   5.808   5.418 -0.1817  1.1468 -0.5816
  680MOL0     H91762   7.434   5.811   5.791  1.5580 -1.0478 -5.5008
  680MOL0     H91763   7.285   5.955   5.925  0.0131 -0.0243  1.3275
  680MOL0     H91764   6.870   5.907   5.901  3.3732 -3.1008 -0.5072
  680MOL0     H91765   6.987   5.865   6.016  2.1219 -1.9027 -3.3202
  680MOL0     H91766   6.791   6.009   6.114  0.8853 -0.5171  2.2423
  680MOL0     H91767   6.954   6.066   6.149 -0.9393 -0.6861  0.8333
  680MOL0     H91768   6.781   6.227   6.088 -1.2858 -1.6109 -0.1040
  680MOL0     H91769   6.937   6.239   5.991 -0.2902 -0.7264 -2.1476
  680MOL0     H91770   6.713   6.093   5.863 -1.2406  1.7965 -0.5956
  680MOL0     H91771   6.856   6.164   5.795 -0.4999  1.3426 -1.5479
  680MOL0     H91772   6.806   6.387   5.864 -1.2682  2.0477 -0.7902
  680MOL0     H91773   6.649   6.355   5.919 -0.7437 -1.4845  1.8357
  680MOL0     H91774   6.737   6.303   5.629 -0.0214  0.4216 -0.0171
  680MOL0     H91775   6.577   6.277   5.691 -0.2860  1.0907 -1.9494
  680MOL0     H91776   6.728   6.555   5.685 -0.7628  1.1317 -2.2938
  680MOL0     H91777   6.567   6.520   5.751 -0.6481 -3.1835 -0.1563
  680MOL0     H91778   6.493   6.456   5.507 -0.6160  1.4025 -2.0120
  680MOL0     H91779   6.566   6.620   5.515  2.6440  1.0424 -2.0558
  680MOL0     H91780   6.972   5.874   5.661 -0.1291 -1.1590 -1.4837
  680MOL0     H91781   7.131   5.738   5.508  2.5611 -0.0702 -0.0456
  680MOL0     H91782   7.469   5.503   5.442  1.4596 -2.4011 -0.6043
  680MOL0     H91783   7.560   5.389   5.231 -0.8406  1.5602 -2.0950
  680MOL0     H91784   9.149   5.413   4.337 -2.7877  0.8620 -2.5655
  680MOL0     H91785   9.337   5.256   4.352 -3.0999  0.4676 -0.3329
  680MOL0     H91786   9.789   5.148   3.908  0.2612  0.3854  0.1651
  680MOL0     H91787   9.976   4.994   3.908 -0.8759  5.3297 -0.8434
  680MOL0     H91788  10.139   4.886   3.961  1.1030 -0.9524  0.7739
  680MOL0     H91789  10.063   4.734   3.920  1.5558 -3.9480  0.0172
  680MOL0     H91790  10.267   4.740   4.151 -0.4870 -1.6569  0.2221
  680MOL0     H91791  10.329   4.742   4.004 -0.0021  2.4039  1.9176
  680MOL0     H91792  10.327   4.506   4.046 -1.1138 -1.8052 -0.5673
  680MOL0     H91793  10.191   4.533   3.943 -1.2481 -0.2093 -0.2670
  680MOL0     H91794  10.052   4.532   4.147 -0.6310 -0.9232  2.8327
  680MOL0     H91795  10.128   4.384   4.140 -2.0177 -0.3331  0.6998
  680MOL0     H91796  10.320   4.519   4.489  3.3821  1.6661 -1.5642
  680MOL0     H91797   9.885   4.865   4.303  2.8168 -0.9063 -1.0185
  680MOL0     H91798   9.695   4.946   4.417  1.1810  1.8510  1.3991
  680MOL0     H91799   9.692   5.117   4.394 -1.2323  0.1168  1.7295
  680MOL0     H91800   9.561   5.022   4.327 -0.5311  0.5406  2.0162
  681MOL0     O91801   8.967   5.546   8.842  0.5550  0.5948  0.0793
  681MOL0     C91802   9.010   5.651   8.887 -0.3148 -0.5107  0.0026
  681MOL0     O91803   9.005   5.774   8.818 -0.0539 -0.4863 -0.2606
  681MOL0     C91804   8.929   5.786   8.706 -0.9364 -0.8949  1.1389
  681MOL0     C91805   8.795   5.743   8.689  0.2018  0.2129  1.2141
  681MOL0     C91806   8.729   5.751   8.556  0.0032 -0.0492  0.4667
  681MOL0     C91807   8.792   5.817   8.449 -1.1776 -0.2999  0.3460
  681MOL0     O91808   8.723   5.838   8.324  0.6817 -0.5874 -0.5353
  681MOL0     C91809   8.752   5.956   8.245  0.6436  0.5955 -0.1539
  681MOL0     C91810   8.744   5.933   8.095  0.8674 -0.0838  0.2435
  681MOL0     C91811   8.726   6.064   8.013  0.0908 -0.0169 -0.2318
  681MOL0     C91812   8.773   6.047   7.871 -0.0340 -0.6578 -0.3963
  681MOL0     C91813   8.767   6.171   7.794  0.8085 -0.3599  0.0143
  681MOL0     C91814   8.849   6.165   7.666 -0.8291  0.0040 -0.3963
  681MOL0     C91815   8.798   6.263   7.557  0.0336  0.1396 -0.6976
  681MOL0     C91816   8.687   6.189   7.474 -0.1091 -1.1246 -0.3442
  681MOL0     N91817   8.591   6.294   7.423  0.0206 -0.0629 -0.9117
  681MOL0     C91818   8.621   6.382   7.326  0.5743 -0.1227 -0.5085
  681MOL0     C91819   8.504   6.453   7.324 -1.3878  0.5065  0.2324
  681MOL0     C91820   8.485   6.579   7.242  0.0071 -0.6081  0.6400
  681MOL0     C91821   8.338   6.619   7.208  0.2703 -0.2502  0.1474
  681MOL0     C91822   8.262   6.499   7.140  0.1783 -0.8088 -0.5264
  681MOL0     C91823   8.303   6.478   6.995 -0.0496 -0.7153  0.2003
  681MOL0     O91824   8.448   6.449   6.970  0.2898  0.2696  0.0242
  681MOL0     C91825   8.505   6.328   7.012  0.2634 -0.5690  0.7249
  681MOL0     C91826   8.637   6.308   6.978 -0.1675 -0.4702 -0.8507
  681MOL0     C91827   8.713   6.198   7.013 -0.5768 -0.2953  0.0016
  681MOL0     C91828   8.650   6.100   7.095  0.5030  0.3678  0.2693
  681MOL0     C91829   8.732   5.993   7.149  0.5233 -0.4199 -0.0003
  681MOL0     O91830   8.862   6.023   7.165  0.3465  0.0138 -1.7981
  681MOL0     C91831   8.937   5.925   7.224  0.5677 -0.5870  0.0574
  681MOL0     C91832   8.930   5.867   7.352  0.1776  0.3185  0.5686
  681MOL0     C91833   9.015   5.763   7.387 -0.5233  0.1950 -0.8932
  681MOL0     C91834   9.136   5.738   7.312 -0.1272  0.5604  0.7887
  681MOL0     O91835   9.228   5.648   7.375 -0.3004 -0.1573  0.1578
  681MOL0     C91836   9.275   5.687   7.505 -0.2753 -0.0315 -0.4034
  681MOL0     C91837   9.419   5.634   7.537  0.1727 -0.6137  0.4243
  681MOL0     C91838   9.537   5.711   7.464 -0.0355  0.4842  0.1969
  681MOL0     C91839   9.526   5.852   7.499 -0.3258  0.2714 -0.0399
  681MOL0     C91840   9.654   5.917   7.447  0.9610 -0.3299 -0.0340
  681MOL0     C91841   9.642   6.071   7.484 -0.4405  0.9777  0.0764
  681MOL0     C91842   9.769   6.147   7.444 -0.2249  0.1568  0.0729
  681MOL0     C91843   9.743   6.298   7.469 -0.1414  0.0791 -0.6683
  681MOL0    Cl91844   9.769   6.326   7.646 -0.2261  0.0474 -0.4174
  681MOL0     C91845   9.151   5.812   7.193 -1.0017  0.0476 -0.2387
  681MOL0     C91846   9.050   5.898   7.150 -0.0514  0.1963 -0.3332
  681MOL0     O91847   8.671   5.887   7.179 -0.6809  0.1574 -0.2346
  681MOL0     C91848   8.505   6.098   7.112 -0.6406 -0.6925 -0.6461
  681MOL0     C91849   8.442   6.221   7.074  0.2654 -0.1932 -0.4544
  681MOL0     N91850   8.410   6.388   7.406 -0.3744  1.0785  0.2735
  681MOL0     N91851   8.470   6.294   7.472  0.1917  0.8287  0.0544
  681MOL0     C91852   8.910   5.878   8.478  0.5364  0.1983 -0.4644
  681MOL0     C91853   8.980   5.856   8.592 -0.1779 -0.0462 -0.5291
  681MOL0     C91854   9.079   5.644   9.020  0.8767  0.5919  0.3848
  681MOL0     C91855   9.157   5.528   9.056 -0.2345 -0.3838  0.4577
  681MOL0     C91856   9.210   5.515   9.189  0.7267 -0.1220  0.5379
  681MOL0     C91857   9.193   5.618   9.282 -0.1986 -0.4499 -0.0090
  681MOL0     O91858   9.258   5.601   9.404 -0.1684  0.1577 -0.4502
  681MOL0     C91859   9.235   5.688   9.501  0.1462 -0.6346 -0.2640
  681MOL0     C91860   9.303   5.653   9.627 -0.0498  0.3638  0.2832
  681MOL0     C91861   9.241   5.529   9.695  0.7012 -0.2737 -0.3165
  681MOL0     C91862   9.099   5.554   9.742  0.7035 -0.4268  0.1297
  681MOL0     C91863   9.005   5.510   9.640 -0.6964 -0.5745  0.9345
  681MOL0     C91864   8.937   5.486   9.541  0.3148 -0.2415 -0.4985
  681MOL0     C91865   9.119   5.733   9.243 -0.4100  0.3084  0.0491
  681MOL0     C91866   9.066   5.745   9.111  0.3584  0.2163  1.2067
  681MOL0     C91867   8.988   5.875   9.075 -0.2120  0.1313  1.2141
  681MOL0     H91868   8.736   5.694   8.767 -3.4936  0.4259 -1.1828
  681MOL0     H91869   8.636   5.702   8.530  1.0637 -1.8702 -0.0678
  681MOL0     H91870   8.682   6.033   8.277  2.0441  1.1460  1.7470
  681MOL0     H91871   8.851   6.002   8.247  1.8265 -1.3629 -3.8804
  681MOL0     H91872   8.663   5.867   8.060 -0.3905  1.1155  0.7831
  681MOL0     H91873   8.834   5.882   8.061  1.5422  2.1670 -1.5533
  681MOL0     H91874   8.780   6.145   8.063  2.3821 -0.1268 -2.3384
  681MOL0     H91875   8.620   6.091   8.010 -0.1303  0.2997  4.3584
  681MOL0     H91876   8.873   6.002   7.870  0.4565  0.2511  1.6476
  681MOL0     H91877   8.707   5.976   7.822 -1.3215 -0.1613  0.5423
  681MOL0     H91878   8.660   6.193   7.787  0.5805 -0.1403  2.9836
  681MOL0     H91879   8.811   6.253   7.852 -0.4798 -1.5311  2.8781
  681MOL0     H91880   8.954   6.189   7.684  0.1186 -3.1821 -1.0288
  681MOL0     H91881   8.855   6.067   7.619 -3.2805 -1.9086  2.8431
  681MOL0     H91882   8.877   6.293   7.488 -1.1633  1.0377 -1.7337
  681MOL0     H91883   8.750   6.348   7.607  0.2215  0.8828 -1.7370
  681MOL0     H91884   8.729   6.132   7.390  0.3498 -2.8881  1.0060
  681MOL0     H91885   8.630   6.124   7.542 -3.8108  1.6715 -0.4909
  681MOL0     H91886   8.716   6.405   7.277 -0.0067 -0.5549 -1.8704
  681MOL0     H91887   8.525   6.666   7.295 -2.6654  0.2176  1.4123
  681MOL0     H91888   8.530   6.568   7.143 -3.5308  0.5006 -1.2326
  681MOL0     H91889   8.283   6.644   7.299 -0.5572 -1.2558 -0.0451
  681MOL0     H91890   8.341   6.704   7.139  1.0318 -0.9537 -0.7140
  681MOL0     H91891   8.154   6.518   7.143 -0.3045 -3.2747 -0.0513
  681MOL0     H91892   8.266   6.406   7.198 -1.4872 -0.7896 -0.3261
  681MOL0     H91893   8.280   6.570   6.941  1.8752  0.0799  0.6551
  681MOL0     H91894   8.239   6.403   6.948 -0.5582 -0.2663  0.1637
  681MOL0     H91895   8.701   6.385   6.936 -1.0268  1.4762  1.2137
  681MOL0     H91896   8.818   6.196   6.985 -0.8514 -1.4165 -1.0624
  681MOL0     H91897   8.850   5.894   7.420  2.4458  0.3142  3.3972
  681MOL0     H91898   9.000   5.719   7.485 -0.3232  3.9642  1.0106
  681MOL0     H91899   9.259   5.794   7.524 -0.7991 -0.1019 -0.4374
  681MOL0     H91900   9.217   5.629   7.577  1.6496  1.3869  2.5279
  681MOL0     H91901   9.448   5.647   7.641 -1.4127  0.0997  0.7913
  681MOL0     H91902   9.426   5.531   7.501 -1.4893  0.4855 -3.5879
  681MOL0     H91903   9.633   5.668   7.495  0.6354  2.1426  0.5262
  681MOL0     H91904   9.535   5.716   7.355 -0.8962  1.5538  0.2405
  681MOL0     H91905   9.523   5.869   7.607  2.9477 -1.9014  0.4963
  681MOL0     H91906   9.437   5.905   7.461 -0.9371 -0.1915  0.7178
  681MOL0     H91907   9.656   5.909   7.338  0.2362 -3.1250  0.0969
  681MOL0     H91908   9.744   5.863   7.478  2.3502  0.7154 -2.0300
  681MOL0     H91909   9.557   6.118   7.435 -1.3536 -1.9252 -1.3745
  681MOL0     H91910   9.622   6.086   7.591 -1.9797  1.4016 -0.2493
  681MOL0     H91911   9.797   6.130   7.340 -1.3119 -1.7148  0.0361
  681MOL0     H91912   9.852   6.116   7.508 -0.5804 -2.1698 -0.4959
  681MOL0     H91913   9.816   6.357   7.413  0.0713  1.2954  0.8563
  681MOL0     H91914   9.638   6.327   7.456 -1.2037 -1.8382  2.5112
  681MOL0     H91915   9.241   5.788   7.138 -1.1688 -1.3588  0.0760
  681MOL0     H91916   9.046   5.948   7.054 -0.7476  1.5695  0.3798
  681MOL0     H91917   8.449   6.013   7.152  3.5575 -4.2798 -1.6562
  681MOL0     H91918   8.336   6.227   7.099  0.5763 -1.2501  1.2768
  681MOL0     H91919   8.958   5.920   8.390 -3.6194  0.0864 -3.0536
  681MOL0     H91920   9.077   5.904   8.588  0.3308 -1.0542 -0.4936
  681MOL0     H91921   9.183   5.453   8.982  0.2604 -0.0349  0.2773
  681MOL0     H91922   9.277   5.433   9.213  1.8231  1.0450  1.6243
  681MOL0     H91923   9.128   5.704   9.516 -0.5287 -1.7198 -3.1577
  681MOL0     H91924   9.261   5.790   9.474 -0.8942  0.1085  1.4122
  681MOL0     H91925   9.307   5.739   9.694 -1.6967 -0.3012  1.2885
  681MOL0     H91926   9.410   5.643   9.605  0.1549  3.3286 -0.4805
  681MOL0     H91927   9.306   5.509   9.781 -0.9317  1.6709  1.4805
  681MOL0     H91928   9.257   5.441   9.632  0.6913  1.4079 -2.8086
  681MOL0     H91929   9.085   5.488   9.828 -0.8158 -2.1643 -1.3800
  681MOL0     H91930   9.078   5.657   9.770 -1.0379  0.1813 -2.9331
  681MOL0     H91931   8.872   5.462   9.460  0.9375  0.9729 -1.4035
  681MOL0     H91932   9.103   5.820   9.306 -0.2584 -0.0916  0.6513
  681MOL0     H91933   8.973   5.937   9.164  3.5400  1.7483  0.9149
  681MOL0     H91934   9.051   5.922   8.999 -3.0786 -1.6220 -2.6132
  681MOL0     H91935   8.894   5.876   9.019  1.1436  0.8774 -1.2118
  682MOL0     O91936   3.796   6.910   9.911 -0.2085 -0.4454 -0.2346
  682MOL0     C91937   3.693   6.966   9.943  0.6519  0.5285 -0.6393
  682MOL0     O91938   3.685   7.091   9.991 -0.2435 -0.0289  0.2292
  682MOL0     C91939   3.803   7.164  10.018 -0.3942  0.0354 -0.1756
  682MOL0     C91940   3.877   7.215   9.911 -0.5247 -0.3544 -0.4569
  682MOL0     C91941   3.999   7.283   9.939 -0.2298 -0.0180  0.2771
  682MOL0     C91942   4.036   7.311  10.073  1.0745 -0.4432 -0.0180
  682MOL0     O91943   4.147   7.389  10.082 -0.2498  0.1987  0.2755
  682MOL0     C91944   4.219   7.388  10.208  0.5300 -0.5945 -0.0588
  682MOL0     C91945   4.206   7.538  10.262 -0.1092  0.1350  0.3547
  682MOL0     C91946   4.069   7.568  10.324  0.1318  0.4152  0.0605
  682MOL0     C91947   4.080   7.607  10.471  0.0604  0.2617 -0.5114
  682MOL0     C91948   3.958   7.621  10.558  0.2547  0.3242  0.8869
  682MOL0     C91949   3.861   7.495  10.545 -0.6664 -0.4089  0.3705
  682MOL0     C91950   3.819   7.435  10.681 -0.6390 -0.0574  0.0073
  682MOL0     C91951   3.740   7.532  10.769 -0.2933  0.3083 -0.0161
  682MOL0     N91952   3.694   7.463  10.893 -0.3048 -0.0814 -0.4629
  682MOL0     C91953   3.676   7.528  11.015 -0.6452 -0.0097 -0.8208
  682MOL0     C91954   3.569   7.465  11.064 -0.5389  0.6772 -0.2356
  682MOL0     C91955   3.507   7.509  11.198  0.9241 -0.0149 -0.5361
  682MOL0     C91956   3.428   7.641  11.202  0.0388 -0.1580 -0.0846
  682MOL0     C91957   3.288   7.641  11.121 -0.4129 -1.0012  0.0599
  682MOL0     C91958   3.316   7.622  10.969  0.3356  0.2620 -1.3402
  682MOL0     O91959   3.189   7.638  10.906 -0.3306  0.5798 -0.1112
  682MOL0     C91960   3.198   7.651  10.774  0.8938 -0.2226  0.3068
  682MOL0     C91961   3.171   7.776  10.708  0.6842  0.0363  1.2855
  682MOL0     C91962   3.186   7.794  10.575  0.2002 -0.8756 -0.4538
  682MOL0     C91963   3.229   7.685  10.498 -0.1152 -0.0083  0.2700
  682MOL0     C91964   3.240   7.697  10.351 -0.3664  0.6926 -0.8116
  682MOL0     O91965   3.179   7.812  10.301  0.3053 -0.3655  0.4675
  682MOL0     C91966   3.195   7.852  10.174  0.4023  0.2128  0.4548
  682MOL0     C91967   3.107   7.798  10.079  0.4733 -0.6906 -0.7966
  682MOL0     C91968   3.112   7.832   9.948 -0.1308 -0.0654  0.4952
  682MOL0     C91969   3.194   7.940   9.908 -0.0005  0.7289 -1.5236
  682MOL0     O91970   3.193   7.977   9.777  0.0159 -0.3004 -0.0072
  682MOL0     C91971   3.165   8.117   9.757 -0.1294 -0.7086 -0.1248
  682MOL0     C91972   3.165   8.171   9.611 -0.3674  0.0416 -0.7341
  682MOL0     C91973   3.113   8.314   9.580 -0.1817  0.6393 -0.4633
  682MOL0     C91974   3.112   8.320   9.427  0.3303 -0.2917  0.5661
  682MOL0     C91975   3.039   8.439   9.381  0.4721  0.2628 -0.2311
  682MOL0     C91976   3.026   8.420   9.224  0.5738 -0.3292  0.0168
  682MOL0     C91977   2.954   8.541   9.162 -0.3179 -0.2832 -0.6149
  682MOL0     C91978   2.862   8.501   9.049 -0.5817  0.5816 -0.6295
  682MOL0    Cl91979   2.738   8.394   9.124 -0.1827 -0.4843  0.5391
  682MOL0     C91980   3.281   7.998  10.005 -0.0278 -0.1960 -0.4050
  682MOL0     C91981   3.287   7.949  10.133 -0.9555 -0.0387 -0.1722
  682MOL0     O91982   3.317   7.619  10.294  0.1988  0.9970 -0.0348
  682MOL0     C91983   3.257   7.563  10.559 -0.0593  0.2202  0.3031
  682MOL0     C91984   3.236   7.544  10.694  0.2742 -0.5972 -0.6763
  682MOL0     N91985   3.525   7.357  10.990  0.5752 -0.5765  0.0035
  682MOL0     N91986   3.595   7.369  10.879 -0.0384  0.1501 -0.2093
  682MOL0     C91987   3.960   7.257  10.173  0.5099 -0.4236  0.1893
  682MOL0     C91988   3.851   7.183  10.147  1.2630  0.1686  0.5573
  682MOL0     C91989   3.563   6.892   9.898  0.7452 -0.0675  1.2233
  682MOL0     C91990   3.463   6.978   9.848  0.0053 -0.7965 -0.6406
  682MOL0     C91991   3.355   6.931   9.780  0.6250 -0.4755  0.2156
  682MOL0     C91992   3.330   6.793   9.760  2.2206 -0.4400  0.2527
  682MOL0     O91993   3.213   6.755   9.683  0.1819  0.7801 -0.4623
  682MOL0     C91994   3.142   6.633   9.713  1.1239 -0.4114  0.5940
  682MOL0     C91995   3.064   6.644   9.837 -0.1707 -0.0004 -0.3506
  682MOL0     C91996   2.984   6.514   9.870  0.1120  0.0406  1.1851
  682MOL0     C91997   2.849   6.516   9.794  0.2016 -0.1459  0.9298
  682MOL0     C91998   2.735   6.590   9.850  0.8746  0.4600 -0.0033
  682MOL0     C91999   2.628   6.637   9.882 -0.6656  0.1128  1.0051
  682MOL0     C92000   3.428   6.703   9.802 -0.1913 -0.7026  0.0896
  682MOL0     C92001   3.543   6.755   9.874  0.5780  0.0360  0.9713
  682MOL0     C92002   3.635   6.647   9.927  0.1075  1.0063  0.4891
  682MOL0     H92003   3.826   7.214   9.815 -4.4523  2.0622  1.3231
  682MOL0     H92004   4.063   7.314   9.857 -0.1433  1.9711  1.0449
  682MOL0     H92005   4.181   7.327  10.290 -3.3922 -0.0213 -1.2221
  682MOL0     H92006   4.323   7.358  10.190  0.1354 -1.9996 -0.1059
  682MOL0     H92007   4.225   7.610  10.181  1.7221 -1.8831 -1.1246
  682MOL0     H92008   4.279   7.538  10.343 -0.5956  1.8436  0.8264
  682MOL0     H92009   4.006   7.478  10.322  0.0151  0.1103  4.9530
  682MOL0     H92010   4.026   7.641  10.256  0.2170  0.8490  0.4719
  682MOL0     H92011   4.143   7.530  10.517 -0.0604  1.7873  2.4621
  682MOL0     H92012   4.146   7.694  10.473  3.7660 -2.2885  3.1013
  682MOL0     H92013   3.985   7.633  10.664 -0.3087  0.8562  0.9762
  682MOL0     H92014   3.907   7.713  10.528 -0.4835 -0.7023 -1.1954
  682MOL0     H92015   3.776   7.516  10.480 -0.0774  0.4437 -0.1510
  682MOL0     H92016   3.904   7.414  10.486 -0.9292  0.5135 -1.1627
  682MOL0     H92017   3.905   7.395  10.736  1.0707  2.8442 -0.3517
  682MOL0     H92018   3.745   7.357  10.663 -0.7357  0.6484 -3.4315
  682MOL0     H92019   3.800   7.617  10.802  1.4327 -0.4261 -1.1104
  682MOL0     H92020   3.659   7.578  10.710 -1.1459 -0.4677  0.5248
  682MOL0     H92021   3.727   7.618  11.049 -0.7003 -0.0771 -0.5590
  682MOL0     H92022   3.440   7.435  11.243  1.5683 -0.7112 -0.6968
  682MOL0     H92023   3.590   7.518  11.268 -1.0775 -0.1791  1.9913
  682MOL0     H92024   3.423   7.663  11.309  5.0828 -0.5554  0.4875
  682MOL0     H92025   3.494   7.717  11.160  1.5402 -0.5941  1.3333
  682MOL0     H92026   3.243   7.739  11.139  2.6172  0.2879  1.3927
  682MOL0     H92027   3.214   7.567  11.152 -0.4321 -1.5786 -1.2704
  682MOL0     H92028   3.359   7.523  10.952 -1.1244 -0.3504 -1.6763
  682MOL0     H92029   3.383   7.697  10.926  1.3943  0.2667  0.2291
  682MOL0     H92030   3.116   7.847  10.770  1.0010  0.9783  0.5265
  682MOL0     H92031   3.161   7.893  10.539  0.9713 -1.2360 -2.0928
  682MOL0     H92032   3.041   7.716  10.107 -3.3116  2.3064 -0.1619
  682MOL0     H92033   3.051   7.765   9.889 -0.6909 -1.0959  2.1874
  682MOL0     H92034   3.078   8.152   9.813 -0.3817 -0.4851 -0.6485
  682MOL0     H92035   3.255   8.169   9.792  0.6441 -0.9763 -1.6370
  682MOL0     H92036   3.261   8.154   9.562 -0.4970 -5.5952  0.2589
  682MOL0     H92037   3.103   8.095   9.562  0.4927 -0.9214 -0.3592
  682MOL0     H92038   3.010   8.327   9.615  0.1307  1.1391  0.2914
  682MOL0     H92039   3.177   8.393   9.620 -0.7699 -0.0690  2.0350
  682MOL0     H92040   3.077   8.220   9.399  3.1058 -1.5096  1.1280
  682MOL0     H92041   3.213   8.318   9.386  0.9766  1.5879  1.9557
  682MOL0     H92042   3.084   8.533   9.413 -2.3547  1.4951  0.3737
  682MOL0     H92043   2.939   8.423   9.421 -1.0703  1.8124 -3.1140
  682MOL0     H92044   3.123   8.412   9.173 -0.3720 -1.7065 -1.6731
  682MOL0     H92045   2.969   8.332   9.196 -1.4849  1.3708 -1.4135
  682MOL0     H92046   3.027   8.617   9.132  0.6873 -1.4854 -1.2884
  682MOL0     H92047   2.895   8.591   9.240  1.8543  2.1564 -0.3856
  682MOL0     H92048   2.820   8.591   9.003 -0.2227  0.9206 -0.3176
  682MOL0     H92049   2.919   8.451   8.970  1.1912  5.0024 -2.4786
  682MOL0     H92050   3.342   8.082   9.973 -1.0430 -0.0462 -2.0503
  682MOL0     H92051   3.347   7.985  10.215 -2.5271 -0.2123  1.1036
  682MOL0     H92052   3.307   7.484  10.505 -4.2892 -1.4960 -1.5104
  682MOL0     H92053   3.262   7.450  10.742  3.1533  0.3710 -0.1086
  682MOL0     H92054   3.988   7.287  10.274 -0.9987  0.2693  0.4358
  682MOL0     H92055   3.797   7.136  10.228  2.2738 -1.4181  0.3476
  682MOL0     H92056   3.499   7.080   9.838  1.4429 -1.4733 -3.5155
  682MOL0     H92057   3.296   7.009   9.733 -1.3337 -2.3756 -0.6734
  682MOL0     H92058   3.206   6.544   9.718 -0.5170 -1.7339 -0.9410
  682MOL0     H92059   3.078   6.609   9.628  1.7428 -2.6021  0.6767
  682MOL0     H92060   2.995   6.727   9.819 -0.4202 -0.1762 -0.2163
  682MOL0     H92061   3.129   6.669   9.921  1.0993  2.1727 -1.8757
  682MOL0     H92062   2.964   6.484   9.973  0.7059 -2.2225  0.7089
  682MOL0     H92063   3.046   6.435   9.825  1.3984  2.5800 -1.9262
  682MOL0     H92064   2.869   6.559   9.696 -1.9747 -0.2484  0.3901
  682MOL0     H92065   2.814   6.414   9.773 -1.2691  0.4527  0.3236
  682MOL0     H92066   2.533   6.681   9.904 -0.7499  1.4105 -1.5075
  682MOL0     H92067   3.409   6.597   9.794 -0.0850 -0.7145  0.0078
  682MOL0     H92068   3.697   6.683  10.010  1.3983  1.6440 -0.7127
  682MOL0     H92069   3.572   6.562   9.954 -1.8092  2.1642 -0.1508
  682MOL0     H92070   3.705   6.619   9.847 -1.0622 -0.9483  0.0925
  683MOL0     O92071   8.999   5.851   5.127  0.1980 -0.5006  0.9639
  683MOL0     C92072   9.050   5.799   5.227  0.2338 -1.0711 -0.1385
  683MOL0     O92073   9.009   5.811   5.357  0.1257 -0.1532 -0.3292
  683MOL0     C92074   8.962   5.938   5.396  0.1571  0.9853 -0.2798
  683MOL0     C92075   8.828   5.970   5.408 -0.2471  0.2146  0.5624
  683MOL0     C92076   8.787   6.098   5.450  0.1853  0.2998 -1.1361
  683MOL0     C92077   8.881   6.193   5.464  0.1607 -0.0539 -0.7316
  683MOL0     O92078   8.839   6.318   5.491 -0.0536 -0.6155 -0.4496
  683MOL0     C92079   8.940   6.426   5.502  0.0242  0.1211 -0.3554
  683MOL0     C92080   8.864   6.565   5.485  1.1002 -0.8719  0.5932
  683MOL0     C92081   8.964   6.676   5.441  1.1081 -1.0401  1.2367
  683MOL0     C92082   8.889   6.788   5.366 -0.8061  0.7272 -0.1922
  683MOL0     C92083   8.944   6.820   5.228 -0.3732  0.4458  0.5764
  683MOL0     C92084   8.864   6.932   5.152 -0.0977 -0.1673 -0.6301
  683MOL0     C92085   8.912   6.946   5.011 -0.3345 -0.5411 -0.0617
  683MOL0     C92086   8.809   7.004   4.916 -0.9684 -1.2110 -0.5638
  683MOL0     N92087   8.691   6.920   4.908 -0.2527 -0.4684  0.5634
  683MOL0     C92088   8.677   6.811   4.834 -0.1923 -0.3860 -0.9512
  683MOL0     C92089   8.558   6.776   4.830  0.0178 -0.2788 -0.4863
  683MOL0     C92090   8.501   6.649   4.771 -0.7372  0.0373  1.0306
  683MOL0     C92091   8.352   6.630   4.808 -0.5358 -0.3244  0.2929
  683MOL0     C92092   8.304   6.500   4.748  0.4906 -0.7420 -0.3138
  683MOL0     C92093   8.174   6.448   4.806  0.7632  0.1652 -0.4108
  683MOL0     O92094   8.130   6.339   4.728  0.4089  0.1695  0.2034
  683MOL0     C92095   7.997   6.284   4.731 -1.1842 -0.4908 -0.5448
  683MOL0     C92096   7.966   6.174   4.650 -0.5770  0.0331 -0.7363
  683MOL0     C92097   7.850   6.102   4.660  0.0433 -0.6878  0.4216
  683MOL0     C92098   7.750   6.156   4.747  0.2205  1.1579 -0.1889
  683MOL0     C92099   7.627   6.075   4.753  0.0089 -0.2854 -0.0362
  683MOL0     O92100   7.600   5.995   4.646 -0.8072 -1.3385  0.5186
  683MOL0     C92101   7.495   5.909   4.639 -0.7575  0.0167  0.4333
  683MOL0     C92102   7.465   5.861   4.504  0.5888 -0.2554 -0.3925
  683MOL0     C92103   7.366   5.773   4.477  0.5814  0.0073 -0.1365
  683MOL0     C92104   7.283   5.723   4.579 -0.4374 -0.8990 -0.4815
  683MOL0     O92105   7.184   5.630   4.545  0.3292 -0.6322  0.3224
  683MOL0     C92106   7.169   5.516   4.619  0.6438 -0.9624  0.2198
  683MOL0     C92107   7.119   5.404   4.539  0.6549  0.6053  0.3218
  683MOL0     C92108   7.073   5.279   4.624 -0.0526 -0.0415 -0.7985
  683MOL0     C92109   6.939   5.299   4.680 -0.2991 -0.6033  0.0932
  683MOL0     C92110   6.815   5.307   4.587 -0.1766 -0.1050 -0.0679
  683MOL0     C92111   6.689   5.342   4.659 -0.4834  0.1538  0.0092
  683MOL0     C92112   6.570   5.356   4.555  0.1369 -0.2773 -0.6767
  683MOL0     C92113   6.442   5.399   4.630 -0.0999  0.0943  0.0675
  683MOL0    Cl92114   6.437   5.578   4.611 -0.1418 -0.0880 -0.1094
  683MOL0     C92115   7.318   5.755   4.708 -0.2934  0.4812  0.3070
  683MOL0     C92116   7.414   5.849   4.744  0.7868  0.6147  0.0810
  683MOL0     O92117   7.541   6.105   4.835  0.4775 -0.6406  0.4210
  683MOL0     C92118   7.774   6.270   4.827  0.0328  0.8033  0.0485
  683MOL0     C92119   7.898   6.337   4.815  0.5024  0.2146  0.0855
  683MOL0     N92120   8.486   6.875   4.898  0.4956  0.4108 -0.3260
  683MOL0     N92121   8.576   6.948   4.971  0.2036  0.2905 -0.1925
  683MOL0     C92122   9.014   6.160   5.464 -0.2729 -0.8237 -1.2852
  683MOL0     C92123   9.057   6.031   5.431  0.1710  0.7347  0.6213
  683MOL0     C92124   9.168   5.711   5.213 -0.3047 -0.2382  0.4793
  683MOL0     C92125   9.220   5.658   5.333  0.3501  0.6236  0.7110
  683MOL0     C92126   9.345   5.592   5.331 -0.5891 -0.1789  0.9778
  683MOL0     C92127   9.420   5.599   5.210 -1.0590 -0.3284 -0.3328
  683MOL0     O92128   9.543   5.540   5.211  0.0931 -0.2714  0.0724
  683MOL0     C92129   9.630   5.548   5.101 -0.0256 -0.4878  0.0082
  683MOL0     C92130   9.756   5.467   5.118 -0.0109  0.0592 -0.7453
  683MOL0     C92131   9.726   5.314   5.119 -0.8619 -0.9947 -0.0971
  683MOL0     C92132   9.833   5.233   5.190 -0.0988  0.1918  0.9103
  683MOL0     C92133   9.964   5.237   5.123 -0.4390  0.4758  0.4345
  683MOL0     C92134  10.083   5.240   5.092 -0.1473 -0.7273 -0.7510
  683MOL0     C92135   9.367   5.658   5.095 -0.9340  0.9198  0.8837
  683MOL0     C92136   9.247   5.708   5.095 -0.7830  0.4931  0.4361
  683MOL0     C92137   9.211   5.756   4.954  0.3474 -0.0016  0.0055
  683MOL0     H92138   8.763   5.891   5.374 -0.7264  0.7575  0.2017
  683MOL0     H92139   8.680   6.110   5.461  0.4372  1.9555 -0.2167
  683MOL0     H92140   8.991   6.422   5.599  3.6558 -2.6136 -2.1695
  683MOL0     H92141   9.015   6.424   5.423 -0.1395 -1.0159 -0.5036
  683MOL0     H92142   8.805   6.599   5.571 -1.1133 -0.4570 -1.0147
  683MOL0     H92143   8.792   6.536   5.409 -0.8453 -0.8143  2.3151
  683MOL0     H92144   9.035   6.643   5.365  0.1066  2.7588 -1.6658
  683MOL0     H92145   9.017   6.725   5.523 -0.8131  1.3487  1.1586
  683MOL0     H92146   8.781   6.776   5.376 -0.7475  1.6260  2.4114
  683MOL0     H92147   8.905   6.890   5.405 -3.3299  1.7893 -1.7135
  683MOL0     H92148   9.050   6.830   5.252  0.7555 -1.7159 -2.7572
  683MOL0     H92149   8.938   6.733   5.162  0.5325  1.6530 -1.1756
  683MOL0     H92150   8.761   6.895   5.150 -1.4595  3.0673 -5.1036
  683MOL0     H92151   8.868   7.023   5.213 -0.2108 -2.2389  2.7105
  683MOL0     H92152   8.962   6.859   4.968  1.1939  1.6591 -3.1663
  683MOL0     H92153   8.997   7.015   5.007 -0.0994 -0.8825 -1.6017
  683MOL0     H92154   8.780   7.103   4.954  1.4301  0.5989 -3.0725
  683MOL0     H92155   8.849   7.016   4.816 -1.4842 -0.1991 -0.6582
  683MOL0     H92156   8.760   6.745   4.807 -1.2054 -1.6762 -1.0026
  683MOL0     H92157   8.492   6.664   4.663 -2.2243 -1.8383  0.8282
  683MOL0     H92158   8.569   6.566   4.789 -0.5979 -0.2221 -0.5481
  683MOL0     H92159   8.346   6.617   4.916  0.2328 -3.8190  0.0217
  683MOL0     H92160   8.288   6.716   4.786 -0.8388 -0.4212  0.7702
  683MOL0     H92161   8.375   6.420   4.771  0.4242 -0.2126  1.9152
  683MOL0     H92162   8.304   6.521   4.640  1.9166  2.2730  0.1659
  683MOL0     H92163   8.094   6.522   4.797 -4.1443 -4.2417  1.5227
  683MOL0     H92164   8.197   6.415   4.908  0.9039  1.4865 -0.0086
  683MOL0     H92165   8.036   6.129   4.580 -2.7025 -4.5579 -0.2180
  683MOL0     H92166   7.840   6.017   4.593  2.0171 -1.2283  0.7217
  683MOL0     H92167   7.525   5.882   4.416  0.5743 -1.2782 -0.6638
  683MOL0     H92168   7.334   5.755   4.375  1.8601  1.3585 -0.8202
  683MOL0     H92169   7.259   5.478   4.668  0.0285 -1.6095  0.8776
  683MOL0     H92170   7.095   5.528   4.699  0.2544 -0.7463 -0.1704
  683MOL0     H92171   7.035   5.432   4.474  0.6141 -1.8747 -0.8005
  683MOL0     H92172   7.196   5.359   4.476 -1.1245  0.4286 -1.8665
  683MOL0     H92173   7.076   5.196   4.553  1.9893 -0.4537 -0.3057
  683MOL0     H92174   7.153   5.262   4.696 -1.1554  0.0594  0.4976
  683MOL0     H92175   6.945   5.397   4.729  4.7647  0.2310 -1.5941
  683MOL0     H92176   6.917   5.226   4.758  0.5005  0.4682  1.3747
  683MOL0     H92177   6.796   5.217   4.528 -2.1304  0.7609 -0.8347
  683MOL0     H92178   6.839   5.382   4.511 -0.1689 -0.8166 -0.7709
  683MOL0     H92179   6.668   5.261   4.729  1.7797 -1.0747 -0.6270
  683MOL0     H92180   6.696   5.432   4.722 -1.6281 -0.2746  0.7886
  683MOL0     H92181   6.555   5.252   4.527 -0.1368 -0.5465  0.4123
  683MOL0     H92182   6.590   5.421   4.470 -2.2499  2.6408  0.8065
  683MOL0     H92183   6.360   5.360   4.570 -0.6461  4.1674 -2.2081
  683MOL0     H92184   6.447   5.359   4.732  0.6726 -2.1081 -0.7733
  683MOL0     H92185   7.255   5.709   4.782  0.1953 -3.9099 -1.7229
  683MOL0     H92186   7.436   5.875   4.847  0.2712  3.1711 -0.3831
  683MOL0     H92187   7.693   6.310   4.888 -0.9370  2.4863 -2.2335
  683MOL0     H92188   7.912   6.421   4.881  1.7374  2.4139 -2.7558
  683MOL0     H92189   9.085   6.232   5.503 -0.4120 -3.8275  6.0378
  683MOL0     H92190   9.164   6.011   5.438 -0.0989 -0.2473  3.3996
  683MOL0     H92191   9.167   5.656   5.428  0.8997  2.3421  1.0844
  683MOL0     H92192   9.382   5.538   5.417  0.6512 -2.6124 -0.9546
  683MOL0     H92193   9.662   5.653   5.096  0.2118 -0.5236  0.6638
  683MOL0     H92194   9.583   5.522   5.006 -0.4938  0.5687 -0.0640
  683MOL0     H92195   9.808   5.494   5.211  0.5935 -0.2397 -0.9917
  683MOL0     H92196   9.824   5.504   5.041  0.3364 -0.3384 -0.6313
  683MOL0     H92197   9.712   5.277   5.016 -2.4207  0.5731 -0.4897
  683MOL0     H92198   9.630   5.304   5.170  0.2114 -1.5751  1.9069
  683MOL0     H92199   9.836   5.284   5.287 -2.1429  1.2937  0.4560
  683MOL0     H92200   9.805   5.128   5.203  1.0538  0.0686  2.8395
  683MOL0     H92201  10.186   5.242   5.064 -0.1733 -2.6596 -1.1802
  683MOL0     H92202   9.424   5.651   5.003 -2.8869 -1.0209 -0.3005
  683MOL0     H92203   9.103   5.742   4.941  0.1429 -0.7599  2.1020
  683MOL0     H92204   9.236   5.863   4.947 -1.7011  0.7834  2.7783
  683MOL0     H92205   9.263   5.684   4.891 -1.9640 -1.7610 -0.0146
  684MOL0     O92206   5.339   3.902   6.429  0.1461  0.5351 -0.4083
  684MOL0     C92207   5.253   3.980   6.395  0.0590  0.4406 -0.4118
  684MOL0     O92208   5.247   4.028   6.269 -0.6462 -0.4557 -0.7729
  684MOL0     C92209   5.339   3.983   6.173  0.5895 -0.4267  1.1064
  684MOL0     C92210   5.472   4.024   6.160 -0.4790 -1.0096 -0.1074
  684MOL0     C92211   5.547   3.992   6.042  0.3161 -0.3308  0.1211
  684MOL0     C92212   5.494   3.899   5.952 -0.0884  0.6619  1.1241
  684MOL0     O92213   5.579   3.834   5.856  0.5315  0.1970 -1.0839
  684MOL0     C92214   5.618   3.711   5.919 -0.1097  0.6938 -0.3942
  684MOL0     C92215   5.656   3.610   5.809  0.9762  0.2654 -0.3756
  684MOL0     C92216   5.773   3.660   5.727  0.5630  0.4778  0.4223
  684MOL0     C92217   5.899   3.662   5.807 -0.2006  0.0639  1.1029
  684MOL0     C92218   6.033   3.676   5.724  1.3015 -0.1927 -0.2070
  684MOL0     C92219   6.082   3.823   5.708 -0.1087  1.0927  0.1391
  684MOL0     C92220   6.215   3.821   5.621  0.7390  0.1868  0.5226
  684MOL0     C92221   6.342   3.811   5.711 -0.1846  0.7304  0.3298
  684MOL0     N92222   6.472   3.817   5.631  0.1312 -0.2358  0.1101
  684MOL0     C92223   6.523   3.929   5.586  0.2683 -0.0389 -0.6984
  684MOL0     C92224   6.625   3.890   5.499  0.3523  1.8416 -0.6961
  684MOL0     C92225   6.714   3.972   5.415  0.2955 -1.0337  0.4605
  684MOL0     C92226   6.628   4.091   5.359 -0.2528  0.1455  0.6580
  684MOL0     C92227   6.715   4.183   5.268 -0.9771 -0.3670  0.0736
  684MOL0     C92228   6.735   4.095   5.139 -0.0628 -0.1209 -0.4213
  684MOL0     O92229   6.792   4.173   5.026  0.1830  0.7435  0.2650
  684MOL0     C92230   6.706   4.250   4.955 -0.2100  0.9099  0.9176
  684MOL0     C92231   6.569   4.216   4.948 -0.6700  0.9250  0.7094
  684MOL0     C92232   6.482   4.292   4.865  0.5348  0.4245  0.1884
  684MOL0     C92233   6.533   4.391   4.775 -0.3433  0.5944 -0.3560
  684MOL0     C92234   6.442   4.466   4.685 -0.1296  0.1605  0.1701
  684MOL0     O92235   6.321   4.478   4.725  0.4569  0.2972 -0.7508
  684MOL0     C92236   6.245   4.589   4.679 -0.7145  0.1812  0.0162
  684MOL0     C92237   6.118   4.569   4.643  2.0363 -0.2918 -0.0868
  684MOL0     C92238   6.042   4.681   4.588 -0.0679  0.8746 -0.8324
  684MOL0     C92239   6.094   4.812   4.578 -0.4063 -0.0745 -0.3584
  684MOL0     O92240   6.004   4.911   4.563 -0.0174  0.1600 -0.9451
  684MOL0     C92241   6.036   5.016   4.472 -0.5664 -0.0027 -0.1174
  684MOL0     C92242   6.088   4.975   4.335 -0.8668  0.4465 -0.3335
  684MOL0     C92243   5.981   4.914   4.252  0.2107 -0.2011 -0.5998
  684MOL0     C92244   5.903   4.786   4.305 -0.7185  0.1871 -0.5788
  684MOL0     C92245   5.792   4.750   4.200  0.4884  0.0858 -0.1435
  684MOL0     C92246   5.677   4.666   4.283 -0.1602  0.0315 -0.4276
  684MOL0     C92247   5.597   4.737   4.395 -0.5287 -0.3757 -0.1197
  684MOL0     C92248   5.555   4.879   4.357 -0.4930  0.5012  0.1135
  684MOL0    Cl92249   5.470   4.866   4.194  0.1147  0.3136  0.0528
  684MOL0     C92250   6.222   4.829   4.625 -0.1947 -0.1430  0.7063
  684MOL0     C92251   6.291   4.721   4.681  0.8157  0.5994 -0.6003
  684MOL0     O92252   6.493   4.527   4.588  0.1243  0.1592  0.2612
  684MOL0     C92253   6.664   4.433   4.800 -0.3809  0.1445  0.3092
  684MOL0     C92254   6.749   4.360   4.883 -0.4064 -0.4314 -0.1105
  684MOL0     N92255   6.636   3.749   5.511 -0.3027  0.3179 -0.5396
  684MOL0     N92256   6.541   3.706   5.581 -0.4510 -0.0169 -0.3831
  684MOL0     C92257   5.361   3.864   5.965  0.2394  0.4419 -0.3457
  684MOL0     C92258   5.278   3.905   6.067  0.1706  0.0926 -0.3123
  684MOL0     C92259   5.131   3.998   6.473 -0.2419 -0.0685 -0.9247
  684MOL0     C92260   5.016   4.025   6.413  0.1829  0.0478 -0.4074
  684MOL0     C92261   4.887   4.057   6.474 -0.9046  0.8261 -0.3623
  684MOL0     C92262   4.879   4.062   6.608 -0.3013 -0.7211 -0.3799
  684MOL0     O92263   4.775   4.098   6.681 -0.0415  0.4853 -0.1125
  684MOL0     C92264   4.651   4.131   6.618  0.0742  0.3472  0.7111
  684MOL0     C92265   4.548   4.171   6.724  0.7675 -1.3712  1.0565
  684MOL0     C92266   4.511   4.053   6.801  0.8613  0.2494 -0.5687
  684MOL0     C92267   4.423   4.084   6.929 -0.9574 -0.4296  0.2803
  684MOL0     C92268   4.510   4.120   7.042 -1.1148 -0.1300 -1.0865
  684MOL0     C92269   4.600   4.158   7.114 -0.8606  0.0388 -0.7125
  684MOL0     C92270   5.002   4.037   6.681  0.4984  0.1200  0.3096
  684MOL0     C92271   5.125   3.996   6.617  0.0455 -0.2759  0.4789
  684MOL0     C92272   5.243   3.958   6.700  0.2111 -0.2490 -0.4934
  684MOL0     H92273   5.517   4.085   6.237 -1.3268  3.7337 -2.9997
  684MOL0     H92274   5.648   4.029   6.028  0.2622  0.3450  1.3106
  684MOL0     H92275   5.707   3.731   5.979  0.5072  5.0153 -2.3042
  684MOL0     H92276   5.539   3.670   5.983  1.3109  0.1613  1.0792
  684MOL0     H92277   5.567   3.593   5.749  0.5641  0.6940  0.0943
  684MOL0     H92278   5.675   3.512   5.853 -0.5464  0.6178  1.1945
  684MOL0     H92279   5.755   3.759   5.683  3.0306  2.1229  2.7510
  684MOL0     H92280   5.796   3.585   5.651  0.7200  1.5219 -0.6041
  684MOL0     H92281   5.887   3.740   5.883 -2.8613  1.3178 -0.4368
  684MOL0     H92282   5.900   3.575   5.873  1.5515  0.1515  1.2523
  684MOL0     H92283   6.119   3.618   5.760  1.0313  0.0367  0.8657
  684MOL0     H92284   6.004   3.654   5.621  0.8909  0.3722 -0.2195
  684MOL0     H92285   6.004   3.877   5.654 -1.7515 -1.7292 -0.5202
  684MOL0     H92286   6.096   3.883   5.798  1.6131  0.5867  0.2493
  684MOL0     H92287   6.219   3.916   5.567 -0.3406  0.5013  0.9527
  684MOL0     H92288   6.207   3.744   5.545 -0.9209  1.1555 -0.3403
  684MOL0     H92289   6.340   3.895   5.781  2.2466 -0.3560  1.8001
  684MOL0     H92290   6.328   3.720   5.770 -2.0919  2.3092  2.5216
  684MOL0     H92291   6.491   4.030   5.609  2.1131  0.2902  0.7657
  684MOL0     H92292   6.801   4.020   5.460  0.8055 -1.6262  0.1226
  684MOL0     H92293   6.746   3.904   5.336 -0.3845 -0.7989 -0.0296
  684MOL0     H92294   6.549   4.049   5.296  2.1006 -2.7248 -0.6604
  684MOL0     H92295   6.595   4.151   5.444 -0.1562  1.7867 -0.4175
  684MOL0     H92296   6.812   4.193   5.317 -2.1642 -0.5030  2.5934
  684MOL0     H92297   6.665   4.278   5.247  0.0197  1.0691  3.5331
  684MOL0     H92298   6.651   4.027   5.126  1.6994 -2.3484 -0.7858
  684MOL0     H92299   6.799   4.010   5.167 -1.5991 -1.7399 -1.6001
  684MOL0     H92300   6.522   4.130   4.995  1.3292 -1.1528 -0.8682
  684MOL0     H92301   6.376   4.266   4.865  0.8789 -1.3988  2.8451
  684MOL0     H92302   6.078   4.468   4.638  4.5635 -1.3346 -0.6344
  684MOL0     H92303   5.937   4.668   4.563 -0.2928  0.6262  0.2093
  684MOL0     H92304   5.946   5.078   4.463 -1.2264 -1.0119 -0.8523
  684MOL0     H92305   6.110   5.082   4.518 -1.7117  1.9968 -1.0337
  684MOL0     H92306   6.129   5.065   4.289 -1.1018  0.6167 -0.2072
  684MOL0     H92307   6.170   4.902   4.344  2.2827  3.7316 -0.1427
  684MOL0     H92308   5.907   4.992   4.231 -1.5728 -0.9252  2.3162
  684MOL0     H92309   6.022   4.882   4.156  1.1958 -1.0962  0.0986
  684MOL0     H92310   5.853   4.823   4.394  1.8143  0.0153  1.0327
  684MOL0     H92311   5.971   4.705   4.336 -0.8440  0.4973  0.5592
  684MOL0     H92312   5.825   4.695   4.112 -1.5571 -1.7480  0.1399
  684MOL0     H92313   5.745   4.839   4.156  2.3786  1.3999  0.3684
  684MOL0     H92314   5.602   4.631   4.211 -1.6520  2.0773  0.0124
  684MOL0     H92315   5.731   4.584   4.330  1.2381  0.2172 -1.6372
  684MOL0     H92316   5.662   4.750   4.482  0.2114 -0.6759 -0.6113
  684MOL0     H92317   5.507   4.684   4.425 -0.2421 -0.5805  0.3877
  684MOL0     H92318   5.487   4.918   4.433 -0.5403  2.0132 -0.6736
  684MOL0     H92319   5.646   4.937   4.343  0.7938 -1.0872  1.5426
  684MOL0     H92320   6.272   4.925   4.624  1.9715 -1.1919 -0.1032
  684MOL0     H92321   6.392   4.749   4.707  0.5525  0.3988  0.6853
  684MOL0     H92322   6.697   4.520   4.743  0.6558 -1.6585 -1.9792
  684MOL0     H92323   6.853   4.391   4.888 -0.2528 -0.8383 -0.5817
  684MOL0     H92324   5.322   3.794   5.891 -4.9276  1.8717  0.6392
  684MOL0     H92325   5.173   3.882   6.062  0.3688 -0.6982 -0.9857
  684MOL0     H92326   5.037   4.047   6.308  0.1999  1.4245 -0.1379
  684MOL0     H92327   4.806   4.065   6.402  0.6111  0.3002 -2.2038
  684MOL0     H92328   4.619   4.047   6.556  1.7999  0.4089 -0.3113
  684MOL0     H92329   4.664   4.208   6.541  1.3342 -0.7966 -0.2614
  684MOL0     H92330   4.460   4.217   6.680  1.1446 -0.0187  1.6568
  684MOL0     H92331   4.600   4.238   6.793  2.9385 -1.4011 -0.4257
  684MOL0     H92332   4.597   3.992   6.827 -0.6792 -1.9719 -0.4041
  684MOL0     H92333   4.447   3.989   6.739  2.7045 -0.3712 -1.9251
  684MOL0     H92334   4.349   4.160   6.905  0.3093  0.9825  0.6541
  684MOL0     H92335   4.367   3.996   6.962 -2.8647  0.7497  0.3207
  684MOL0     H92336   4.664   4.208   7.184 -1.8241  1.8441 -1.0489
  684MOL0     H92337   4.995   4.028   6.789 -0.6741 -3.9053  0.0754
  684MOL0     H92338   5.291   3.865   6.670 -0.4809 -1.9089  3.0359
  684MOL0     H92339   5.318   4.037   6.699  2.4872 -2.3059 -0.9226
  684MOL0     H92340   5.218   3.937   6.804  0.8291 -0.4695 -0.3850
  685MOL0     O92341   5.460  10.317   1.754 -0.1157  0.9717  0.7551
  685MOL0     C92342   5.490  10.430   1.716  0.3532  0.6524 -0.3139
  685MOL0     O92343   5.438  10.487   1.611 -0.1387 -0.1355 -0.0212
  685MOL0     C92344   5.315  10.442   1.560 -0.8317  0.4540  0.4825
  685MOL0     C92345   5.221  10.374   1.640 -0.2679 -0.3226 -0.0417
  685MOL0     C92346   5.090  10.344   1.594 -0.3281  0.6836 -0.3165
  685MOL0     C92347   5.047  10.381   1.474  0.2918  0.0397 -0.5585
  685MOL0     O92348   4.921  10.383   1.437  0.8813  0.4810  1.0394
  685MOL0     C92349   4.878  10.272   1.357  1.1002  0.2175  0.2409
  685MOL0     C92350   4.758  10.307   1.264 -0.0690 -0.9491  0.0769
  685MOL0     C92351   4.633  10.343   1.339 -0.3506  0.7563 -0.3746
  685MOL0     C92352   4.563  10.221   1.403 -0.4012  0.0323  0.3780
  685MOL0     C92353   4.471  10.247   1.514 -0.1420 -0.9625 -0.3612
  685MOL0     C92354   4.454  10.129   1.613 -0.0145 -0.8176  0.6310
  685MOL0     C92355   4.324  10.162   1.690 -0.1685 -0.0599  0.0087
  685MOL0     C92356   4.193  10.119   1.619 -0.1419 -0.2227 -0.6435
  685MOL0     N92357   4.197   9.988   1.554 -0.7585 -0.2879 -0.4071
  685MOL0     C92358   4.226   9.866   1.620  0.4920 -0.1231  0.7271
  685MOL0     C92359   4.245   9.767   1.529 -0.1005  0.2832 -0.2394
  685MOL0     C92360   4.298   9.637   1.566  0.0910  0.1762  0.6184
  685MOL0     C92361   4.354   9.553   1.446 -0.1764  0.5526 -0.2438
  685MOL0     C92362   4.363   9.406   1.481 -0.1785  0.1103  0.2551
  685MOL0     C92363   4.456   9.386   1.600  0.0095 -0.4033 -0.1550
  685MOL0     O92364   4.589   9.439   1.581 -0.1398  0.9766  0.1962
  685MOL0     C92365   4.673   9.437   1.692 -0.4128  0.0030 -1.0000
  685MOL0     C92366   4.800   9.493   1.679  1.0503 -0.0136  0.5878
  685MOL0     C92367   4.884   9.489   1.789 -0.5711 -0.1952 -1.2117
  685MOL0     C92368   4.846   9.455   1.919  0.3898  0.5906  0.0776
  685MOL0     C92369   4.934   9.433   2.030 -1.1152 -0.5658  0.2160
  685MOL0     O92370   5.067   9.486   2.009  0.1305  0.0703 -0.4164
  685MOL0     C92371   5.160   9.434   2.090 -0.5080 -0.2310  0.2893
  685MOL0     C92372   5.200   9.306   2.077  0.8837 -0.2637 -0.5510
  685MOL0     C92373   5.285   9.249   2.174  0.1881 -1.2556 -0.6606
  685MOL0     C92374   5.321   9.331   2.285  0.1779  0.6954 -0.1011
  685MOL0     O92375   5.403   9.293   2.389 -0.8015  0.0713 -0.0586
  685MOL0     C92376   5.517   9.214   2.361  0.3457 -0.5739  0.6189
  685MOL0     C92377   5.605   9.200   2.484 -0.5241  0.0803 -0.3786
  685MOL0     C92378   5.564   9.085   2.581 -0.3414  0.1283  0.4764
  685MOL0     C92379   5.669   9.067   2.691  0.6965 -0.0333  0.4791
  685MOL0     C92380   5.671   9.164   2.808 -0.6214 -0.1356 -0.4785
  685MOL0     C92381   5.534   9.158   2.886  0.5749  0.5690  0.3259
  685MOL0     C92382   5.489   9.295   2.923 -0.1521  0.3321 -0.3620
  685MOL0     C92383   5.344   9.308   2.953 -0.3471 -0.4079 -0.2632
  685MOL0    Cl92384   5.302   9.179   3.074  0.1311 -0.3589  0.2830
  685MOL0     C92385   5.269   9.459   2.301  0.7564  0.5187  0.1113
  685MOL0     C92386   5.194   9.514   2.200 -0.5192  0.0925  0.7719
  685MOL0     O92387   4.900   9.347   2.113 -0.0102 -1.1100 -0.4825
  685MOL0     C92388   4.712   9.419   1.927  0.1934  0.5866 -0.3152
  685MOL0     C92389   4.625   9.406   1.819  0.0068  0.0956  0.5412
  685MOL0     N92390   4.234   9.832   1.411  0.1677  0.3112 -0.9227
  685MOL0     N92391   4.211   9.959   1.419  0.1165 -0.6339 -1.1746
  685MOL0     C92392   5.134  10.453   1.389 -0.0324  1.0110  0.6263
  685MOL0     C92393   5.268  10.477   1.435  0.5212 -0.3321 -0.1136
  685MOL0     C92394   5.602  10.500   1.778  1.0812 -0.8577 -0.0851
  685MOL0     C92395   5.691  10.557   1.688  0.0303 -0.3991  0.8417
  685MOL0     C92396   5.813  10.607   1.728 -0.5434 -0.6864  0.0730
  685MOL0     C92397   5.840  10.628   1.864 -0.6632  0.6174  0.4241
  685MOL0     O92398   5.953  10.702   1.895 -1.1920  1.2189  0.3445
  685MOL0     C92399   6.005  10.716   2.024 -0.3589  0.1670  0.3927
  685MOL0     C92400   6.139  10.775   2.018  0.3616 -1.4510 -0.2792
  685MOL0     C92401   6.238  10.711   2.109 -0.4831  0.1390 -0.1100
  685MOL0     C92402   6.373  10.786   2.127 -0.1910  0.3425  0.5282
  685MOL0     C92403   6.456  10.796   2.004  1.1084  0.7118  0.5406
  685MOL0     C92404   6.522  10.789   1.899  0.8753 -0.6840 -0.1816
  685MOL0     C92405   5.750  10.573   1.962  0.4976  0.6130  0.5156
  685MOL0     C92406   5.627  10.508   1.925 -0.0441  0.4462  0.3279
  685MOL0     C92407   5.532  10.450   2.017 -0.1526 -0.0273  0.8720
  685MOL0     H92408   5.235  10.347   1.744  0.4735 -0.0611 -0.0714
  685MOL0     H92409   5.026  10.296   1.668  0.5693  2.1348  1.4580
  685MOL0     H92410   4.961  10.235   1.297  2.1722 -0.4679  2.0360
  685MOL0     H92411   4.850  10.187   1.420  1.5315  0.6247  0.9998
  685MOL0     H92412   4.738  10.225   1.194 -2.9430  1.2469 -1.9002
  685MOL0     H92413   4.793  10.389   1.201 -1.6305 -1.4571 -1.5532
  685MOL0     H92414   4.562  10.380   1.264 -2.2581 -4.6334 -1.6909
  685MOL0     H92415   4.669  10.419   1.409  1.8446 -1.5772  1.1869
  685MOL0     H92416   4.505  10.186   1.317 -2.3525 -0.7645  1.9506
  685MOL0     H92417   4.635  10.140   1.419  0.1532 -0.2973 -3.0093
  685MOL0     H92418   4.492  10.339   1.570 -2.6601 -1.3600  1.4262
  685MOL0     H92419   4.374  10.269   1.467 -0.9329 -2.1674  0.6406
  685MOL0     H92420   4.442  10.040   1.552 -1.9403  0.0582 -0.3594
  685MOL0     H92421   4.543  10.134   1.677 -0.8942  3.1294  1.8804
  685MOL0     H92422   4.327  10.268   1.718 -0.6450 -0.6927  2.7248
  685MOL0     H92423   4.322  10.112   1.787 -2.3120  0.9699  0.5615
  685MOL0     H92424   4.114  10.105   1.693  0.0853  0.6749 -0.2211
  685MOL0     H92425   4.164  10.187   1.538  0.2203 -2.8350 -3.1457
  685MOL0     H92426   4.226   9.843   1.726 -2.0840  1.6972  1.2444
  685MOL0     H92427   4.374   9.654   1.644  1.9961 -1.5785 -0.7387
  685MOL0     H92428   4.218   9.577   1.611 -0.2567  0.2406  0.0859
  685MOL0     H92429   4.285   9.554   1.361 -1.7620 -0.3531  0.9691
  685MOL0     H92430   4.450   9.588   1.409 -0.2039  3.4643  2.0993
  685MOL0     H92431   4.396   9.353   1.391  0.2158 -1.7952  1.4530
  685MOL0     H92432   4.268   9.364   1.515 -0.5725  1.6167  1.0703
  685MOL0     H92433   4.465   9.278   1.616  0.7914  0.0322  2.9207
  685MOL0     H92434   4.406   9.441   1.680  0.6867 -1.2040  0.8360
  685MOL0     H92435   4.840   9.535   1.588 -1.1874 -1.6198 -1.2508
  685MOL0     H92436   4.980   9.539   1.785 -0.7479  0.1842 -0.7669
  685MOL0     H92437   5.146   9.242   2.008 -0.2242  2.3836 -2.3025
  685MOL0     H92438   5.322   9.147   2.169  3.0620 -0.3459  0.3341
  685MOL0     H92439   5.482   9.119   2.320 -0.4063  1.5719 -4.4767
  685MOL0     H92440   5.570   9.257   2.276  0.0515 -2.8171 -0.7748
  685MOL0     H92441   5.709   9.181   2.454 -0.2953  1.6955 -0.6822
  685MOL0     H92442   5.610   9.291   2.544  2.3085 -0.6276  0.5770
  685MOL0     H92443   5.464   9.094   2.625  0.5204  0.7220  2.4518
  685MOL0     H92444   5.585   8.995   2.523  1.5418  1.4504 -0.9817
  685MOL0     H92445   5.769   9.050   2.650 -0.7564 -2.0819 -2.5708
  685MOL0     H92446   5.645   8.970   2.735  0.7222  0.2326  1.0831
  685MOL0     H92447   5.694   9.264   2.772  0.8881 -0.0880  0.5289
  685MOL0     H92448   5.753   9.146   2.878 -2.2271  0.9752  1.8517
  685MOL0     H92449   5.451   9.111   2.833 -0.6028  1.4515  1.3279
  685MOL0     H92450   5.548   9.092   2.971  2.7003 -1.1683 -1.2457
  685MOL0     H92451   5.507   9.368   2.843 -0.4125  0.8679  0.0609
  685MOL0     H92452   5.542   9.337   3.010  0.1484  2.1546 -1.3663
  685MOL0     H92453   5.322   9.403   3.002 -1.5674  1.0839 -3.4304
  685MOL0     H92454   5.282   9.305   2.863  0.8697 -0.7839 -1.1212
  685MOL0     H92455   5.292   9.504   2.397 -1.5654  3.2845 -0.5311
  685MOL0     H92456   5.139   9.607   2.207  1.6504  1.5918 -0.7818
  685MOL0     H92457   4.661   9.402   2.022  0.0090 -0.1307 -0.5383
  685MOL0     H92458   4.521   9.377   1.831 -0.2446  0.3441 -0.8021
  685MOL0     H92459   5.104  10.486   1.291  0.6401  2.8664  1.0075
  685MOL0     H92460   5.331  10.540   1.373 -0.8991 -0.0297 -1.2942
  685MOL0     H92461   5.677  10.555   1.581 -0.8242  2.9978  0.7930
  685MOL0     H92462   5.877  10.655   1.654  0.2553  1.9487  2.2703
  685MOL0     H92463   6.002  10.621   2.078 -3.4653  0.9121  1.7242
  685MOL0     H92464   5.950  10.780   2.093 -0.8356 -1.8098  1.9086
  685MOL0     H92465   6.122  10.874   2.064 -2.7530 -2.5279  1.1422
  685MOL0     H92466   6.173  10.797   1.916  0.3458 -0.4836 -0.0871
  685MOL0     H92467   6.263  10.611   2.072  2.1545  1.0664 -1.0399
  685MOL0     H92468   6.192  10.706   2.208 -0.8429 -0.0547 -0.2842
  685MOL0     H92469   6.349  10.880   2.176  1.2374  0.7691  0.4533
  685MOL0     H92470   6.432  10.730   2.201 -1.5115  0.6905  1.9057
  685MOL0     H92471   6.587  10.772   1.815  1.1744 -0.4340 -0.0048
  685MOL0     H92472   5.769  10.580   2.069 -3.3194 -1.4433  1.4991
  685MOL0     H92473   5.585  10.367   2.064  0.5477  0.2761  0.6360
  685MOL0     H92474   5.487  10.518   2.091 -1.6683 -0.0132 -0.0258
  685MOL0     H92475   5.447  10.417   1.957  2.2598 -0.1584 -2.7185
  686MOL0     O92476   4.687   3.248   2.908 -0.2697  0.2220 -0.1823
  686MOL0     C92477   4.748   3.326   2.836  0.3180 -1.0239  0.0155
  686MOL0     O92478   4.758   3.465   2.867 -0.6495  0.5665  0.3124
  686MOL0     C92479   4.712   3.510   2.983 -0.1911 -0.8162 -0.4380
  686MOL0     C92480   4.616   3.604   2.994  1.0973 -0.6326  0.0809
  686MOL0     C92481   4.583   3.651   3.121  0.0970  0.3558  0.3991
  686MOL0     C92482   4.629   3.591   3.242  1.0230 -0.7926 -0.0724
  686MOL0     O92483   4.573   3.631   3.363  0.6364  0.0079 -0.7644
  686MOL0     C92484   4.649   3.596   3.488 -0.0496 -0.5720  0.4287
  686MOL0     C92485   4.583   3.633   3.618 -0.1802 -0.4816  1.3323
  686MOL0     C92486   4.437   3.600   3.634  0.1068  0.6397 -0.1091
  686MOL0     C92487   4.392   3.618   3.783  0.8958 -0.4283  0.8456
  686MOL0     C92488   4.249   3.561   3.809 -0.5798 -0.6508  0.6732
  686MOL0     C92489   4.212   3.570   3.949 -0.1318 -0.2773 -0.6044
  686MOL0     C92490   4.088   3.486   3.985  0.0367  0.1535 -0.5548
  686MOL0     C92491   3.966   3.576   3.942  0.5089  0.0532 -0.2438
  686MOL0     N92492   3.835   3.515   3.966  0.0558  0.4104  0.0923
  686MOL0     C92493   3.781   3.461   4.085 -0.3521 -0.0867  0.1428
  686MOL0     C92494   3.650   3.423   4.054 -0.4376  0.5998 -0.2311
  686MOL0     C92495   3.554   3.385   4.157  0.2761 -0.7329  0.1015
  686MOL0     C92496   3.402   3.420   4.127  0.1090  0.1144  0.5903
  686MOL0     C92497   3.362   3.567   4.092 -0.5042 -0.6241 -0.0140
  686MOL0     C92498   3.373   3.659   4.214 -0.5828 -0.3198  0.4321
  686MOL0     O92499   3.285   3.627   4.316 -0.2008 -0.0658  1.0108
  686MOL0     C92500   3.211   3.738   4.374  0.1143  0.8540 -0.0415
  686MOL0     C92501   3.261   3.866   4.393  1.0750  0.3378 -0.5219
  686MOL0     C92502   3.185   3.959   4.457 -0.2322 -0.6886 -0.2059
  686MOL0     C92503   3.053   3.939   4.495 -0.0891 -0.2843 -0.2092
  686MOL0     C92504   2.970   4.041   4.566  0.5105 -0.2927  1.0703
  686MOL0     O92505   2.841   3.995   4.600  0.0394  0.2136 -0.3472
  686MOL0     C92506   2.752   4.084   4.663  0.8776  0.2274  0.4375
  686MOL0     C92507   2.716   4.215   4.628 -0.6994 -0.1375  0.6361
  686MOL0     C92508   2.606   4.282   4.692  0.2151  0.2160 -1.3961
  686MOL0     C92509   2.539   4.214   4.797 -0.3620 -0.5725 -0.1021
  686MOL0     O92510   2.439   4.264   4.877  0.8414  0.4222 -0.1747
  686MOL0     C92511   2.362   4.370   4.824  0.0119 -0.4748 -0.4122
  686MOL0     C92512   2.253   4.312   4.734  0.5477  0.6673  1.1970
  686MOL0     C92513   2.127   4.409   4.714 -0.0062  0.2011 -1.1579
  686MOL0     C92514   2.163   4.547   4.693  0.2359 -0.8267  1.0103
  686MOL0     C92515   2.055   4.645   4.631 -0.3845  0.4842  0.6525
  686MOL0     C92516   1.939   4.650   4.715  0.2031 -0.4298  0.8935
  686MOL0     C92517   1.834   4.746   4.655  0.7232 -0.5966 -0.7480
  686MOL0     C92518   1.755   4.679   4.551  0.6529 -0.2409 -0.3636
  686MOL0    Cl92519   1.605   4.786   4.518 -0.2623 -0.3158 -0.3521
  686MOL0     C92520   2.579   4.093   4.832 -0.6586  0.1980 -0.0030
  686MOL0     C92521   2.683   4.031   4.772 -0.8677 -0.9403  0.3280
  686MOL0     O92522   3.009   4.158   4.585  0.1665 -0.0395 -0.5133
  686MOL0     C92523   3.010   3.808   4.486 -0.6427  0.4461 -0.2465
  686MOL0     C92524   3.084   3.700   4.420  1.0205 -0.6781 -0.8247
  686MOL0     N92525   3.637   3.444   3.922  0.0840  0.1969  0.1135
  686MOL0     N92526   3.740   3.498   3.864  0.3861 -0.6652 -0.4267
  686MOL0     C92527   4.730   3.495   3.220  0.9726  0.3061 -1.6197
  686MOL0     C92528   4.783   3.461   3.093  0.6691 -0.7293  0.7385
  686MOL0     C92529   4.798   3.288   2.699  0.6098 -0.0140  0.0095
  686MOL0     C92530   4.811   3.399   2.608 -0.7198  0.2298 -0.1094
  686MOL0     C92531   4.854   3.371   2.480  0.8682  0.1137 -0.8851
  686MOL0     C92532   4.851   3.244   2.433 -0.5010 -1.0416  0.2639
  686MOL0     O92533   4.890   3.212   2.307  0.1264 -0.9703  0.4430
  686MOL0     C92534   4.821   3.286   2.206 -0.4150 -0.4792  0.3169
  686MOL0     C92535   4.823   3.201   2.082 -0.1685  0.5288 -0.3829
  686MOL0     C92536   4.765   3.283   1.968  0.4300 -0.7184  0.5960
  686MOL0     C92537   4.828   3.257   1.828  0.1328 -0.6290 -0.4895
  686MOL0     C92538   4.775   3.360   1.738 -0.6755 -0.1501 -0.9662
  686MOL0     C92539   4.747   3.451   1.662  1.1304  0.7077 -0.1034
  686MOL0     C92540   4.835   3.138   2.520 -0.0186 -0.3756  0.1226
  686MOL0     C92541   4.819   3.154   2.661 -0.6243  0.6004  0.5322
  686MOL0     C92542   4.827   3.037   2.747  0.3814  0.6603  0.3265
  686MOL0     H92543   4.565   3.632   2.902  0.4085 -0.6387  0.4487
  686MOL0     H92544   4.526   3.743   3.120 -2.0011 -0.7729 -3.1860
  686MOL0     H92545   4.673   3.490   3.490 -3.0208 -1.3007  1.1859
  686MOL0     H92546   4.747   3.646   3.485 -1.3801  2.1688 -1.4965
  686MOL0     H92547   4.601   3.739   3.637  1.2670 -1.1655  4.3413
  686MOL0     H92548   4.620   3.567   3.697 -1.5162 -0.3268  2.1085
  686MOL0     H92549   4.415   3.498   3.603  0.1884  0.8785 -0.9689
  686MOL0     H92550   4.382   3.662   3.563 -0.3366 -1.3388 -1.5509
  686MOL0     H92551   4.467   3.571   3.847  0.0679 -1.8130  0.8498
  686MOL0     H92552   4.382   3.720   3.821  0.0974 -0.5674  1.0219
  686MOL0     H92553   4.173   3.591   3.737 -1.5618 -0.7143  1.6548
  686MOL0     H92554   4.259   3.452   3.797  2.1666 -0.2536 -1.7948
  686MOL0     H92555   4.297   3.536   4.009  0.0742  0.4226 -0.4893
  686MOL0     H92556   4.188   3.672   3.981 -1.1774 -0.2247 -1.5078
  686MOL0     H92557   4.099   3.470   4.092  1.1526 -1.3516 -0.8689
  686MOL0     H92558   4.083   3.385   3.943  1.1144 -0.0734 -0.1793
  686MOL0     H92559   3.971   3.661   4.011 -0.3121 -1.8761  2.3205
  686MOL0     H92560   3.969   3.610   3.838  0.2231 -3.9572 -1.7009
  686MOL0     H92561   3.815   3.480   4.187  2.1908  0.9930 -0.8167
  686MOL0     H92562   3.555   3.279   4.186 -0.2800 -0.2804  1.9045
  686MOL0     H92563   3.584   3.449   4.240 -1.3420  2.0029 -1.2597
  686MOL0     H92564   3.371   3.356   4.044 -0.9087 -1.4080  2.0789
  686MOL0     H92565   3.341   3.386   4.212  1.6436  0.8408  2.0584
  686MOL0     H92566   3.260   3.545   4.059 -0.1728  0.7692 -2.2187
  686MOL0     H92567   3.414   3.612   4.006 -2.3152 -1.6694 -1.7274
  686MOL0     H92568   3.340   3.758   4.179 -0.7441  0.2782  2.1409
  686MOL0     H92569   3.471   3.681   4.258  0.6133  0.3074 -2.3729
  686MOL0     H92570   3.364   3.890   4.366  1.0662  1.9613  0.7371
  686MOL0     H92571   3.220   4.061   4.464 -0.5064 -0.6735  1.2155
  686MOL0     H92572   2.769   4.269   4.550 -1.9271  2.6970  1.6274
  686MOL0     H92573   2.583   4.381   4.654  3.2397  2.0114  1.0077
  686MOL0     H92574   2.298   4.404   4.907  1.1725 -1.1513  0.8008
  686MOL0     H92575   2.416   4.457   4.786 -1.1179  1.4030  2.0100
  686MOL0     H92576   2.301   4.292   4.637 -1.8691 -0.2220  0.1229
  686MOL0     H92577   2.213   4.216   4.768 -2.5305  0.6539 -1.9038
  686MOL0     H92578   2.072   4.377   4.624 -1.1771 -1.2089 -0.0018
  686MOL0     H92579   2.064   4.389   4.801 -0.7111 -2.5557 -2.1758
  686MOL0     H92580   2.248   4.547   4.624  0.8491 -1.9087  1.7271
  686MOL0     H92581   2.185   4.598   4.787 -0.7152 -2.7045  2.3192
  686MOL0     H92582   2.018   4.619   4.532 -2.0344  2.5562  0.6460
  686MOL0     H92583   2.112   4.738   4.619  0.8498 -0.3222  0.0170
  686MOL0     H92584   1.902   4.548   4.727  1.2566 -1.0325 -0.7018
  686MOL0     H92585   1.971   4.681   4.814 -1.9720  0.4335  1.3924
  686MOL0     H92586   1.878   4.841   4.625 -0.0155  0.7457  2.1642
  686MOL0     H92587   1.757   4.775   4.727  1.2016  1.4529 -0.9995
  686MOL0     H92588   1.813   4.678   4.458  0.1469  1.4363 -0.7508
  686MOL0     H92589   1.725   4.581   4.589  0.9823  0.1273  0.8895
  686MOL0     H92590   2.528   4.047   4.916 -0.6562 -1.3840 -0.8260
  686MOL0     H92591   2.702   3.934   4.816  0.2423 -0.7993  0.1887
  686MOL0     H92592   2.908   3.789   4.517  0.3628 -1.1370  2.4515
  686MOL0     H92593   3.046   3.599   4.427  3.1844 -1.5018 -0.2900
  686MOL0     H92594   4.779   3.445   3.303  1.5184  1.5976 -1.1309
  686MOL0     H92595   4.863   3.390   3.076  2.9348  1.9494 -0.5304
  686MOL0     H92596   4.798   3.503   2.634  0.6045  0.3704  0.0766
  686MOL0     H92597   4.879   3.447   2.406  1.9023 -0.4600 -1.1510
  686MOL0     H92598   4.885   3.374   2.196 -1.6091  0.6699  2.1225
  686MOL0     H92599   4.718   3.322   2.214 -0.0463  1.3712 -1.9884
  686MOL0     H92600   4.758   3.114   2.100  1.1924 -0.7953 -1.6060
  686MOL0     H92601   4.924   3.164   2.062 -1.2642 -1.2201 -3.3068
  686MOL0     H92602   4.780   3.389   1.991  0.4187 -0.5635 -0.0971
  686MOL0     H92603   4.662   3.249   1.954  0.5332 -0.1183 -2.1124
  686MOL0     H92604   4.937   3.263   1.836  0.0654 -1.2919  1.6170
  686MOL0     H92605   4.807   3.159   1.786  3.5499 -1.5434 -0.3852
  686MOL0     H92606   4.709   3.533   1.605  0.8376 -1.7159 -3.7718
  686MOL0     H92607   4.840   3.039   2.477 -0.3428  0.1918 -1.2764
  686MOL0     H92608   4.921   2.982   2.735  0.0645  0.4907 -1.5488
  686MOL0     H92609   4.824   3.066   2.853 -3.0864 -0.2231  0.5709
  686MOL0     H92610   4.755   2.957   2.732  2.4215 -1.2028 -0.0577
  687MOL0     O92611  10.745   3.806   1.520  0.1142 -0.0139 -0.1919
  687MOL0     C92612  10.813   3.699   1.531  0.1159  0.0614 -1.2386
  687MOL0     O92613  10.928   3.677   1.597  0.4052  0.2990 -0.4086
  687MOL0     C92614  10.982   3.780   1.671 -0.3738  0.1587 -0.3153
  687MOL0     C92615  11.123   3.788   1.676 -0.4125  0.7868  0.4932
  687MOL0     C92616  11.193   3.888   1.729  0.1923 -0.2352  0.2303
  687MOL0     C92617  11.119   3.996   1.789 -0.1933  0.5191 -0.4765
  687MOL0     O92618  11.167   4.111   1.850 -0.4346 -0.6770  0.2415
  687MOL0     C92619  11.305   4.142   1.825 -0.0797  0.3516 -0.4670
  687MOL0     C92620  11.335   4.200   1.680 -0.0431 -0.1101 -0.1743
  687MOL0     C92621  11.266   4.342   1.673 -0.2078 -0.5830  0.6215
  687MOL0     C92622  11.271   4.403   1.530 -0.7645 -0.5026  0.5819
  687MOL0     C92623  11.199   4.538   1.516 -0.5082  0.2373  0.1291
  687MOL0     C92624  11.052   4.515   1.525  0.2654  0.4676 -0.1648
  687MOL0     C92625  10.990   4.649   1.494  0.4096  0.4017 -0.4771
  687MOL0     C92626  10.837   4.655   1.488  1.1296 -0.8815 -1.3097
  687MOL0     N92627  10.782   4.780   1.432  0.2495  0.2330 -0.0012
  687MOL0     C92628  10.847   4.904   1.414  0.1917 -0.6536 -0.9526
  687MOL0     C92629  10.763   4.974   1.335  0.0262 -0.1423  0.3294
  687MOL0     C92630  10.780   5.115   1.289  0.4576  0.0841 -0.5633
  687MOL0     C92631  10.797   5.200   1.408  1.0428  0.4508 -0.5080
  687MOL0     C92632  10.666   5.220   1.503  0.1319  0.4643 -0.2945
  687MOL0     C92633  10.700   5.257   1.656  0.8640  0.4854  0.5753
  687MOL0     O92634  10.581   5.257   1.741 -0.1272  0.7431  0.1374
  687MOL0     C92635  10.527   5.375   1.790 -0.2160  0.1326 -0.2321
  687MOL0     C92636  10.509   5.396   1.926  0.2961 -0.3653 -0.8509
  687MOL0     C92637  10.452   5.509   1.971 -0.3723  0.2376  0.9055
  687MOL0     C92638  10.415   5.614   1.880 -0.3123 -0.0665 -0.4574
  687MOL0     C92639  10.355   5.745   1.930  0.6802  0.0660  0.4057
  687MOL0     O92640  10.335   5.845   1.853  0.2695  0.4182  0.3405
  687MOL0     C92641  10.308   5.971   1.908 -0.2048 -0.0154  1.1615
  687MOL0     C92642  10.413   6.034   1.981  0.3525 -0.1840  0.5957
  687MOL0     C92643  10.389   6.160   2.030  0.3669 -0.6709  0.1034
  687MOL0     C92644  10.267   6.232   2.012  0.9557 -0.2361 -0.9254
  687MOL0     O92645  10.235   6.350   2.066  0.3596  0.1523  0.2078
  687MOL0     C92646  10.316   6.412   2.168  0.0735  0.7796  0.1839
  687MOL0     C92647  10.257   6.538   2.209  0.3913  0.7153  1.0090
  687MOL0     C92648  10.330   6.622   2.316  0.0588 -0.6600 -0.0589
  687MOL0     C92649  10.438   6.703   2.252  0.3511 -0.7293  0.1609
  687MOL0     C92650  10.533   6.763   2.360 -0.0119 -0.3047  0.2675
  687MOL0     C92651  10.542   6.917   2.373 -0.6761 -0.2765  0.8520
  687MOL0     C92652  10.411   6.994   2.345 -0.1331 -0.2428  0.1461
  687MOL0     C92653  10.381   7.084   2.472  0.5969 -0.6556  0.2419
  687MOL0    Cl92654  10.235   7.192   2.447 -0.1239  0.0620 -0.5461
  687MOL0     C92655  10.162   6.169   1.936  0.7663  0.4175  0.1783
  687MOL0     C92656  10.189   6.041   1.889 -0.3004  0.4577  0.1088
  687MOL0     O92657  10.339   5.748   2.054 -0.7660  0.7583  0.4251
  687MOL0     C92658  10.428   5.590   1.746  0.4235  0.4755  0.1225
  687MOL0     C92659  10.475   5.471   1.701 -0.3955  0.2069  0.7040
  687MOL0     N92660  10.662   4.892   1.300  0.5782  0.4459 -0.1729
  687MOL0     N92661  10.674   4.778   1.353  0.6611 -0.0182  0.1687
  687MOL0     C92662  10.979   3.976   1.808 -0.2107 -0.1238  1.0611
  687MOL0     C92663  10.917   3.873   1.751  0.7221 -0.5676  0.9093
  687MOL0     C92664  10.743   3.573   1.485 -1.3572  0.0166  0.3939
  687MOL0     C92665  10.728   3.472   1.576 -0.3702  0.1198 -0.4272
  687MOL0     C92666  10.693   3.348   1.526  0.1394 -0.6869  0.5975
  687MOL0     C92667  10.655   3.329   1.396  0.1385 -0.9281 -0.2369
  687MOL0     O92668  10.607   3.202   1.383 -0.0520  0.2835  0.5046
  687MOL0     C92669  10.522   3.168   1.276 -0.2437 -0.7898  0.0155
  687MOL0     C92670  10.482   3.022   1.297  0.4771 -0.4868 -0.0110
  687MOL0     C92671  10.350   3.003   1.370 -0.0172 -0.4007  0.5130
  687MOL0     C92672  10.338   3.081   1.508  0.2931 -1.4159  0.0401
  687MOL0     C92673  10.436   3.057   1.615  0.4211 -0.2123  0.2043
  687MOL0     C92674  10.532   3.068   1.681  0.1373 -0.7861 -0.3819
  687MOL0     C92675  10.682   3.435   1.304 -0.2639  0.3498 -0.0889
  687MOL0     C92676  10.719   3.557   1.346 -0.1494 -0.6101  0.6466
  687MOL0     C92677  10.722   3.670   1.246  0.4145  0.1638 -0.2927
  687MOL0     H92678  11.182   3.720   1.616 -1.8115  1.1357 -1.3861
  687MOL0     H92679  11.299   3.900   1.710  0.0120  1.7317  0.2555
  687MOL0     H92680  11.352   4.194   1.909 -2.4129  0.8037  0.6702
  687MOL0     H92681  11.360   4.049   1.835  0.8955  1.0869  1.4537
  687MOL0     H92682  11.284   4.127   1.616  0.8102 -1.4857  0.6486
  687MOL0     H92683  11.441   4.209   1.651 -0.2556 -0.2945 -1.0507
  687MOL0     H92684  11.299   4.419   1.743  0.3121 -1.2624  1.1434
  687MOL0     H92685  11.160   4.321   1.688 -0.7935  0.7223 -1.3278
  687MOL0     H92686  11.378   4.420   1.512 -0.9146  0.2068  0.3277
  687MOL0     H92687  11.225   4.329   1.463  0.5330 -2.2886  1.5687
  687MOL0     H92688  11.229   4.615   1.587  2.5525  0.4136 -1.1803
  687MOL0     H92689  11.225   4.569   1.414 -0.1709 -3.1207 -0.9318
  687MOL0     H92690  11.015   4.438   1.458  0.1878 -1.1830  1.6706
  687MOL0     H92691  11.033   4.489   1.630  1.0373 -1.1067 -0.3885
  687MOL0     H92692  11.017   4.674   1.391 -2.1152  0.7229 -1.1292
  687MOL0     H92693  11.024   4.722   1.567 -1.1298 -1.0905  1.8629
  687MOL0     H92694  10.796   4.576   1.425  0.5819 -1.8979  0.2746
  687MOL0     H92695  10.800   4.629   1.587 -0.0990 -4.2665 -2.5446
  687MOL0     H92696  10.938   4.918   1.471  0.0385  1.1792 -1.1045
  687MOL0     H92697  10.861   5.129   1.216  1.4241 -1.2427  0.2220
  687MOL0     H92698  10.684   5.136   1.241  0.5609 -0.9486 -1.2519
  687MOL0     H92699  10.883   5.176   1.472  0.6976 -0.8009 -0.4876
  687MOL0     H92700  10.836   5.295   1.371  2.8798 -0.3279 -0.6581
  687MOL0     H92701  10.598   5.135   1.506 -1.5090  1.7156 -0.7968
  687MOL0     H92702  10.614   5.301   1.452 -2.4402 -0.7465  0.2401
  687MOL0     H92703  10.753   5.353   1.648  0.2798  0.6905 -0.9804
  687MOL0     H92704  10.759   5.182   1.710 -0.7746  0.5794  2.6398
  687MOL0     H92705  10.533   5.312   1.990  1.5993 -0.0479 -0.8884
  687MOL0     H92706  10.435   5.514   2.078 -0.6293 -1.8751  0.9953
  687MOL0     H92707  10.510   5.992   2.005  0.1352  0.3423  2.6424
  687MOL0     H92708  10.462   6.212   2.093  0.0467 -0.1757  0.0747
  687MOL0     H92709  10.328   6.342   2.251 -0.9102 -1.2607 -1.3111
  687MOL0     H92710  10.417   6.432   2.132  1.0722 -2.0848  1.1245
  687MOL0     H92711  10.242   6.595   2.117 -2.1401 -1.0995  0.1562
  687MOL0     H92712  10.161   6.511   2.255  0.1537 -0.7584 -0.2487
  687MOL0     H92713  10.260   6.697   2.354 -1.7431 -0.4604 -3.3224
  687MOL0     H92714  10.369   6.562   2.398  0.5385 -0.8847 -0.4440
  687MOL0     H92715  10.390   6.787   2.201 -1.7756 -0.2741  2.7408
  687MOL0     H92716  10.500   6.641   2.185  1.2433 -0.6841  0.9207
  687MOL0     H92717  10.631   6.724   2.329  0.9289  3.2930 -1.8437
  687MOL0     H92718  10.501   6.712   2.451 -2.3097 -1.4047 -1.0567
  687MOL0     H92719  10.597   6.941   2.465 -1.8568 -0.2801  1.5875
  687MOL0     H92720  10.610   6.952   2.295  0.1819 -1.7620  0.8985
  687MOL0     H92721  10.320   6.935   2.330 -1.0594  0.3248  2.9935
  687MOL0     H92722  10.422   7.064   2.261  0.2379  0.6862  0.9414
  687MOL0     H92723  10.361   7.025   2.563 -1.7530 -1.1757 -0.5597
  687MOL0     H92724  10.467   7.141   2.507 -0.6555  0.6687  1.2761
  687MOL0     H92725  10.062   6.208   1.918  0.4336 -0.2930  0.4291
  687MOL0     H92726  10.113   6.001   1.822  3.0192 -0.6730 -3.3490
  687MOL0     H92727  10.406   5.667   1.673 -0.6706  0.3326  0.2918
  687MOL0     H92728  10.496   5.465   1.595  1.2058 -2.1938  1.0645
  687MOL0     H92729  10.913   4.050   1.852 -0.1619  1.8816 -1.8985
  687MOL0     H92730  10.812   3.860   1.773  0.5757 -1.3498 -0.1557
  687MOL0     H92731  10.752   3.492   1.680  0.5547 -0.4096 -0.5299
  687MOL0     H92732  10.687   3.262   1.592  0.2240 -1.0051  0.1958
  687MOL0     H92733  10.580   3.175   1.183  0.6294  1.0048  0.6377
  687MOL0     H92734  10.433   3.229   1.257  1.0951  1.1778 -0.2962
  687MOL0     H92735  10.562   2.968   1.349  2.1897  3.7779  2.3465
  687MOL0     H92736  10.471   2.994   1.192 -0.7842  0.0014 -0.0311
  687MOL0     H92737  10.336   2.896   1.387  0.2779 -0.6313 -0.6040
  687MOL0     H92738  10.271   3.045   1.308  1.8744  3.4596  0.3936
  687MOL0     H92739  10.357   3.186   1.484  2.0895 -1.8247 -0.4892
  687MOL0     H92740  10.241   3.074   1.557  2.8571 -1.9652  5.7930
  687MOL0     H92741  10.627   3.092   1.725 -1.0069  0.9041  1.3209
  687MOL0     H92742  10.664   3.412   1.199  1.5257  0.0837 -0.3797
  687MOL0     H92743  10.681   3.633   1.152  0.7595  1.2972 -0.9009
  687MOL0     H92744  10.656   3.752   1.277  0.0010 -0.4688  0.5448
  687MOL0     H92745  10.824   3.696   1.218  1.2928 -3.3949 -0.8712
  688MOL0     O92746   7.015   7.958  10.043  0.1675  0.4198  0.6461
  688MOL0     C92747   7.016   8.076  10.028  0.4427 -0.3377 -0.7732
  688MOL0     O92748   6.912   8.158  10.081  0.8273 -0.3911 -0.2766
  688MOL0     C92749   6.838   8.096  10.189 -0.0706  0.6504  0.7995
  688MOL0     C92750   6.719   8.032  10.158  0.8503  0.0746  0.2310
  688MOL0     C92751   6.648   7.981  10.268 -0.4377  0.6009  0.0324
  688MOL0     C92752   6.684   8.001  10.398  0.3520 -0.0650 -0.0581
  688MOL0     O92753   6.607   7.960  10.501  0.7255 -0.3486  0.3698
  688MOL0     C92754   6.497   7.877  10.472  0.3238  0.0931 -1.6120
  688MOL0     C92755   6.436   7.820  10.601  0.1670 -1.0159 -0.4648
  688MOL0     C92756   6.298   7.752  10.585  1.1516  0.6933 -0.6860
  688MOL0     C92757   6.246   7.699  10.719 -0.5854  0.0087  0.2243
  688MOL0     C92758   6.111   7.637  10.714  0.4918 -0.5041  0.2860
  688MOL0     C92759   6.056   7.588  10.848 -1.5183  0.9270  0.4492
  688MOL0     C92760   5.909   7.546  10.841 -0.3398 -0.8391 -0.2458
  688MOL0     C92761   5.859   7.515  10.982  0.1977  0.5766 -0.2651
  688MOL0     N92762   5.713   7.484  10.989  0.4243  0.7070  0.8106
  688MOL0     C92763   5.629   7.547  11.077  0.3857  0.1454 -0.6428
  688MOL0     C92764   5.509   7.478  11.061 -0.2557  0.1630  0.3519
  688MOL0     C92765   5.383   7.510  11.131  0.1957 -0.0274 -1.1596
  688MOL0     C92766   5.332   7.639  11.058 -0.0466  0.0025 -0.6739
  688MOL0     C92767   5.189   7.682  11.102  0.5482 -0.0930 -0.7679
  688MOL0     C92768   5.080   7.586  11.060 -0.0294 -0.8873 -2.4798
  688MOL0     O92769   5.018   7.595  10.929 -0.2790  1.0682 -0.4282
  688MOL0     C92770   4.911   7.673  10.915 -0.5253  0.7913  1.1069
  688MOL0     C92771   4.817   7.642  10.817 -0.6268 -0.3797 -0.4795
  688MOL0     C92772   4.706   7.724  10.792 -0.3245  0.0328  0.0014
  688MOL0     C92773   4.678   7.835  10.876 -0.3433  0.4923 -0.1718
  688MOL0     C92774   4.553   7.923  10.864  0.0023  0.6205  1.2364
  688MOL0     O92775   4.520   8.027  10.956 -0.1144  0.7529  0.4613
  688MOL0     C92776   4.401   8.086  10.933 -0.4257  0.8204 -0.3715
  688MOL0     C92777   4.280   8.064  11.011 -0.2861 -0.4243  0.3042
  688MOL0     C92778   4.171   8.150  10.990  0.6486 -0.0392 -0.0829
  688MOL0     C92779   4.170   8.263  10.909 -0.7496  0.1594  0.1398
  688MOL0     O92780   4.076   8.366  10.911 -0.3179  0.1779  0.4365
  688MOL0     C92781   3.942   8.336  10.961 -0.9556  0.1377  0.5894
  688MOL0     C92782   3.860   8.472  10.950 -0.2306 -0.4923  0.2343
  688MOL0     C92783   3.811   8.507  10.809  0.9782  0.6169  0.2018
  688MOL0     C92784   3.719   8.406  10.732 -1.5762 -1.1045 -0.0487
  688MOL0     C92785   3.682   8.459  10.594  0.1755  0.1283  0.2595
  688MOL0     C92786   3.809   8.466  10.496  0.3626  0.3308  0.3694
  688MOL0     C92787   3.758   8.513  10.361 -0.5811 -0.7544  0.0680
  688MOL0     C92788   3.875   8.530  10.261 -0.1781  0.0594 -2.0506
  688MOL0    Cl92789   3.966   8.682  10.307  0.2769 -0.6012  0.4648
  688MOL0     C92790   4.287   8.285  10.845  0.1183 -0.3344 -0.0925
  688MOL0     C92791   4.401   8.204  10.855 -0.6060  0.2224  0.1986
  688MOL0     O92792   4.488   7.896  10.758  0.8607 -0.2714 -0.8430
  688MOL0     C92793   4.775   7.872  10.972 -0.4756 -0.1610 -0.0118
  688MOL0     C92794   4.887   7.787  10.995 -0.0421 -0.7720 -0.8945
  688MOL0     N92795   5.518   7.380  10.953 -0.4454 -0.1504 -0.0165
  688MOL0     N92796   5.642   7.387  10.917 -0.5769 -0.3052  0.4376
  688MOL0     C92797   6.797   8.073  10.429  0.4570  0.0104  0.0734
  688MOL0     C92798   6.882   8.115  10.323  1.3353  0.2847  0.5508
  688MOL0     C92799   7.118   8.143   9.939 -0.0445 -0.7088  0.4170
  688MOL0     C92800   7.099   8.277   9.913  0.3722  0.3331  0.0333
  688MOL0     C92801   7.185   8.345   9.829 -0.1009  0.8256 -0.9191
  688MOL0     C92802   7.295   8.285   9.766 -0.5575 -0.1582 -0.7912
  688MOL0     O92803   7.382   8.356   9.698 -0.4460 -0.4237  0.9208
  688MOL0     C92804   7.475   8.292   9.599  0.7196 -1.0891 -0.2454
  688MOL0     C92805   7.580   8.402   9.544  0.7804 -0.5170 -0.7130
  688MOL0     C92806   7.698   8.428   9.651  0.5121  1.3266  0.0809
  688MOL0     C92807   7.812   8.520   9.597  0.0445  0.1854 -0.4152
  688MOL0     C92808   7.940   8.493   9.659  0.9313 -0.1387  0.1289
  688MOL0     C92809   8.047   8.462   9.709  0.0011  0.1494 -0.6939
  688MOL0     C92810   7.314   8.153   9.797 -0.4560  0.6293 -1.1520
  688MOL0     C92811   7.237   8.080   9.884 -0.4419  0.4049  0.0270
  688MOL0     C92812   7.273   7.944   9.933 -0.2792 -0.4167 -0.2159
  688MOL0     H92813   6.683   8.019  10.057 -2.0407  3.5840  0.6096
  688MOL0     H92814   6.558   7.923  10.251  0.5451 -0.8131 -0.5469
  688MOL0     H92815   6.415   7.920  10.413  1.8258  0.6205 -3.3882
  688MOL0     H92816   6.543   7.793  10.420  0.4866 -1.5851  1.0347
  688MOL0     H92817   6.440   7.900  10.675  1.1327 -1.6177  0.1508
  688MOL0     H92818   6.505   7.741  10.633 -0.6702 -1.0942  1.2608
  688MOL0     H92819   6.301   7.663  10.522  0.2682  0.1047  0.0823
  688MOL0     H92820   6.226   7.822  10.541 -0.4762  0.3138  1.2222
  688MOL0     H92821   6.320   7.631  10.762  1.8405  1.8311 -0.7766
  688MOL0     H92822   6.244   7.785  10.788 -1.3401  1.8248 -1.9386
  688MOL0     H92823   6.048   7.712  10.665  0.2437 -0.8229  0.1113
  688MOL0     H92824   6.118   7.546  10.654  3.4536  0.6978 -1.4360
  688MOL0     H92825   6.114   7.499  10.875 -0.1249  1.5569 -0.3691
  688MOL0     H92826   6.067   7.665  10.924  0.6128  2.1798 -1.0405
  688MOL0     H92827   5.899   7.457  10.779 -0.0307 -2.3293  1.7323
  688MOL0     H92828   5.857   7.633  10.799 -0.2732 -0.0972  1.1554
  688MOL0     H92829   5.915   7.434  11.029 -3.7214  0.5345  5.3673
  688MOL0     H92830   5.880   7.604  11.042 -0.5605  1.7113 -1.6149
  688MOL0     H92831   5.650   7.629  11.145 -1.2045  2.9430 -3.2684
  688MOL0     H92832   5.319   7.421  11.125 -0.2598  0.3498 -1.9033
  688MOL0     H92833   5.409   7.534  11.235  0.9072 -0.4283 -1.2382
  688MOL0     H92834   5.388   7.728  11.088 -0.0052  0.1562 -1.1992
  688MOL0     H92835   5.351   7.644  10.950  1.1953  1.9641 -0.4202
  688MOL0     H92836   5.179   7.781  11.057 -0.2349  0.1600 -0.0664
  688MOL0     H92837   5.187   7.689  11.211 -1.4454  1.4754 -0.8318
  688MOL0     H92838   4.997   7.603  11.129  0.7229 -0.8440 -1.5630
  688MOL0     H92839   5.112   7.482  11.077  1.0283 -0.1631  0.7330
  688MOL0     H92840   4.824   7.547  10.764  1.4158 -0.5086 -0.0674
  688MOL0     H92841   4.627   7.697  10.722  0.4352 -2.1022 -0.1152
  688MOL0     H92842   4.280   7.993  11.093 -2.3482  1.3051  1.9208
  688MOL0     H92843   4.089   8.136  11.060  0.6087  3.0071  0.6211
  688MOL0     H92844   3.905   8.283  10.873 -0.9279  0.8823  0.1197
  688MOL0     H92845   3.925   8.278  11.053 -3.3756 -2.5330 -1.3378
  688MOL0     H92846   3.776   8.479  11.020 -1.1289  0.0072 -0.8521
  688MOL0     H92847   3.927   8.554  10.978  0.2124 -0.9296  0.4603
  688MOL0     H92848   3.762   8.605  10.811 -1.3466 -0.3108  5.7791
  688MOL0     H92849   3.901   8.509  10.746  1.2491 -0.6905  0.5251
  688MOL0     H92850   3.625   8.399  10.788 -1.5890 -0.3574  0.0220
  688MOL0     H92851   3.768   8.309  10.716  1.8084  0.8225 -2.8438
  688MOL0     H92852   3.631   8.556  10.590  0.5285  0.2879 -1.3696
  688MOL0     H92853   3.595   8.401  10.563  0.2511  0.9759 -1.7184
  688MOL0     H92854   3.862   8.550  10.541 -1.4818  2.6067 -1.4753
  688MOL0     H92855   3.868   8.377  10.470  4.4645  3.9075 -4.9310
  688MOL0     H92856   3.707   8.609  10.371  0.4969 -0.0264 -1.0961
  688MOL0     H92857   3.682   8.443  10.325 -0.6242 -0.3070 -0.7202
  688MOL0     H92858   3.937   8.441  10.249 -1.2576 -0.5611 -3.3575
  688MOL0     H92859   3.830   8.545  10.162  0.3600 -0.4423 -2.3789
  688MOL0     H92860   4.299   8.365  10.773  2.0409 -0.5327 -0.0556
  688MOL0     H92861   4.491   8.231  10.801 -1.3356  1.0806 -0.6152
  688MOL0     H92862   4.755   7.971  11.012 -0.2146  1.3381 -3.2796
  688MOL0     H92863   4.959   7.810  11.073  0.9251 -2.1810 -1.3274
  688MOL0     H92864   6.824   8.089  10.533 -0.8824  2.2626  0.1553
  688MOL0     H92865   6.969   8.178  10.339  0.4173  1.3619  1.4433
  688MOL0     H92866   7.012   8.324   9.959  0.4762 -1.1656  1.8440
  688MOL0     H92867   7.170   8.447   9.795 -0.3535  0.9166 -0.5364
  688MOL0     H92868   7.412   8.264   9.514  2.2564 -1.2248 -1.3805
  688MOL0     H92869   7.533   8.206   9.633 -0.6402 -2.9563 -2.3954
  688MOL0     H92870   7.538   8.501   9.522  0.2569 -0.7480 -0.7659
  688MOL0     H92871   7.627   8.366   9.452  2.4284  1.4182 -0.7118
  688MOL0     H92872   7.740   8.331   9.681  1.9386  1.9292  0.0952
  688MOL0     H92873   7.656   8.471   9.742  2.9644  1.8247  1.0482
  688MOL0     H92874   7.820   8.484   9.494 -2.5857  0.4080 -0.7851
  688MOL0     H92875   7.791   8.627   9.596  1.0173  0.3899 -1.9195
  688MOL0     H92876   8.138   8.413   9.740  0.5385  0.4459 -1.7437
  688MOL0     H92877   7.406   8.108   9.761 -0.9018  1.5245 -3.5999
  688MOL0     H92878   7.197   7.872   9.901  1.3866 -1.3980 -2.1468
  688MOL0     H92879   7.365   7.904   9.891  0.5748  1.1771  0.0621
  688MOL0     H92880   7.274   7.945  10.043  0.1382  0.4162 -0.2158
  689MOL0     O92881   7.396   8.585   8.927  0.7721 -0.4650 -0.4531
  689MOL0     C92882   7.458   8.622   9.021 -0.6052 -0.2605 -0.8463
  689MOL0     O92883   7.450   8.562   9.154 -0.2247  0.2572  0.1208
  689MOL0     C92884   7.381   8.451   9.166 -0.8694  0.5694 -0.6875
  689MOL0     C92885   7.381   8.334   9.086  0.3612  0.3694 -0.6270
  689MOL0     C92886   7.294   8.230   9.113 -0.4465  0.0561  0.6785
  689MOL0     C92887   7.210   8.238   9.223 -0.2194 -0.2354 -0.7942
  689MOL0     O92888   7.115   8.143   9.262 -0.7944  0.8460  0.3063
  689MOL0     C92889   7.138   8.007   9.217 -0.3049 -0.1915  1.0083
  689MOL0     C92890   7.033   7.918   9.285 -0.5712  1.1269 -0.0447
  689MOL0     C92891   7.059   7.763   9.264  1.4532 -0.1558  0.2839
  689MOL0     C92892   6.937   7.674   9.296  0.8606 -0.0197 -0.1128
  689MOL0     C92893   6.884   7.691   9.437 -0.3708  0.0764  0.2252
  689MOL0     C92894   6.814   7.574   9.491  0.1574  0.3950 -0.2007
  689MOL0     C92895   6.666   7.562   9.450 -0.4759  0.8570 -0.3135
  689MOL0     C92896   6.628   7.414   9.416  0.3172  0.8593 -0.4418
  689MOL0     N92897   6.488   7.390   9.376 -0.3584 -0.5959 -0.4702
  689MOL0     C92898   6.413   7.460   9.282 -0.4788 -0.3143 -0.1576
  689MOL0     C92899   6.290   7.412   9.281 -0.4500  0.3847  0.5636
  689MOL0     C92900   6.180   7.460   9.179 -0.3380  0.5221 -0.0131
  689MOL0     C92901   6.162   7.347   9.086 -0.6306 -0.5401 -0.4087
  689MOL0     C92902   6.078   7.366   8.970 -0.3271 -0.2305 -0.0153
  689MOL0     C92903   6.162   7.331   8.855  0.1279  0.1751  0.3286
  689MOL0     O92904   6.096   7.371   8.738  0.0898  0.7776  0.2338
  689MOL0     C92905   6.144   7.304   8.624  0.3639 -0.1221  0.5037
  689MOL0     C92906   6.259   7.234   8.605 -1.8154 -0.9994 -0.4182
  689MOL0     C92907   6.290   7.156   8.493  0.3471 -0.3739 -0.9409
  689MOL0     C92908   6.199   7.147   8.389  0.0092 -0.7782 -1.5269
  689MOL0     C92909   6.244   7.092   8.260 -0.3705 -0.5439 -1.0189
  689MOL0     O92910   6.149   7.077   8.165  0.4246  0.5121 -0.8943
  689MOL0     C92911   6.183   7.003   8.048 -0.3668  0.0426  0.3089
  689MOL0     C92912   6.226   7.059   7.927  0.2383  0.8280  0.4858
  689MOL0     C92913   6.254   6.978   7.813 -0.2281  0.3702 -0.5077
  689MOL0     C92914   6.240   6.838   7.820 -0.0085  0.2033  0.2844
  689MOL0     O92915   6.262   6.746   7.711 -1.1306  0.0587  0.3147
  689MOL0     C92916   6.212   6.776   7.580  0.0403 -0.2108 -0.3254
  689MOL0     C92917   6.343   6.782   7.503 -0.7035 -0.1174  0.1363
  689MOL0     C92918   6.339   6.854   7.365 -0.7705 -0.2188  1.0163
  689MOL0     C92919   6.261   6.768   7.259  0.4526 -0.3175 -0.8881
  689MOL0     C92920   6.205   6.849   7.136  0.8014  0.1909 -0.7508
  689MOL0     C92921   6.103   6.767   7.042  0.1596 -0.2908  0.5644
  689MOL0     C92922   6.022   6.864   6.951  0.3879 -0.5255 -0.1930
  689MOL0     C92923   5.940   6.797   6.848 -0.1251 -0.1423 -0.1546
  689MOL0    Cl92924   6.054   6.744   6.714 -0.0848  0.1986  0.6004
  689MOL0     C92925   6.202   6.784   7.948  0.5926  0.5850 -0.7029
  689MOL0     C92926   6.180   6.863   8.056  0.3086 -0.0602 -0.4537
  689MOL0     O92927   6.358   7.037   8.253 -0.4523  0.0966 -1.2815
  689MOL0     C92928   6.081   7.222   8.395  0.2793 -0.3503  0.2450
  689MOL0     C92929   6.051   7.297   8.511  0.3736 -0.3077 -1.0945
  689MOL0     N92930   6.288   7.317   9.373 -0.4810  0.8647  0.0351
  689MOL0     N92931   6.407   7.291   9.428  0.2459  0.1572  0.9941
  689MOL0     C92932   7.213   8.343   9.307  0.6711 -0.5973  1.4260
  689MOL0     C92933   7.296   8.458   9.275  0.3863 -0.2730 -0.8265
  689MOL0     C92934   7.521   8.749   9.010  0.2345  0.4178  0.2529
  689MOL0     C92935   7.523   8.828   9.123  0.2549 -0.2704 -0.0467
  689MOL0     C92936   7.594   8.941   9.129 -0.6792 -0.2257  0.3754
  689MOL0     C92937   7.640   9.009   9.014  0.7401 -0.3619  0.1983
  689MOL0     O92938   7.677   9.135   9.018  0.7832 -0.4727  0.4682
  689MOL0     C92939   7.775   9.184   8.932  0.0028 -0.1687 -0.0675
  689MOL0     C92940   7.914   9.108   8.958 -0.6215  0.0959  0.3357
  689MOL0     C92941   8.003   9.161   9.069  0.5850  0.2160  0.4160
  689MOL0     C92942   8.128   9.094   9.082  0.7693  0.1704 -0.1934
  689MOL0     C92943   8.118   8.963   9.147  0.7067  0.1155  0.1799
  689MOL0     C92944   8.095   8.861   9.209 -0.3174 -0.2031  0.0455
  689MOL0     C92945   7.631   8.933   8.899  0.0101  0.3960  0.4187
  689MOL0     C92946   7.576   8.801   8.892  0.1346  0.7277  0.2234
  689MOL0     C92947   7.582   8.737   8.765 -0.3914  0.0517 -0.8571
  689MOL0     H92948   7.455   8.316   9.008  0.3859 -0.1507 -0.4871
  689MOL0     H92949   7.299   8.139   9.055  0.5991  1.9649 -2.4597
  689MOL0     H92950   7.129   8.005   9.108 -1.5412  0.6500  1.0636
  689MOL0     H92951   7.239   7.976   9.246  0.6464  3.2678  1.9049
  689MOL0     H92952   6.934   7.950   9.249 -1.0684 -1.9703 -1.7477
  689MOL0     H92953   7.043   7.948   9.390  0.8130 -0.6672  0.3734
  689MOL0     H92954   7.147   7.725   9.316  0.8691 -0.5933  0.9732
  689MOL0     H92955   7.084   7.758   9.157  2.5150 -0.2746  0.5315
  689MOL0     H92956   6.857   7.686   9.222  1.0914  2.4043 -0.0783
  689MOL0     H92957   6.971   7.571   9.294 -2.1313 -1.1502  1.4156
  689MOL0     H92958   6.974   7.694   9.498 -0.0611  2.1353 -0.2592
  689MOL0     H92959   6.827   7.785   9.434  1.4237  1.3142 -4.0828
  689MOL0     H92960   6.870   7.485   9.459  0.4441  0.6253 -0.3440
  689MOL0     H92961   6.819   7.578   9.600 -1.2232 -1.2397 -0.0247
  689MOL0     H92962   6.635   7.623   9.365 -3.0185  1.0300  0.6368
  689MOL0     H92963   6.609   7.590   9.539  2.1168 -1.9354  2.4829
  689MOL0     H92964   6.694   7.380   9.337  2.8432 -0.4703  2.0785
  689MOL0     H92965   6.650   7.348   9.500 -0.3055 -0.2685 -1.1466
  689MOL0     H92966   6.448   7.546   9.225  0.0207  0.0535  0.6721
  689MOL0     H92967   6.090   7.479   9.238 -0.6387  0.7495 -0.5446
  689MOL0     H92968   6.201   7.562   9.145  0.8132  0.5517  0.7420
  689MOL0     H92969   6.258   7.306   9.054 -1.4307 -3.2730  0.4281
  689MOL0     H92970   6.112   7.268   9.142  0.0169  0.2728  1.3850
  689MOL0     H92971   6.042   7.468   8.952  1.5738  0.1200 -2.4078
  689MOL0     H92972   5.987   7.305   8.967 -0.5623  0.0129  1.3657
  689MOL0     H92973   6.200   7.229   8.853  2.6973  1.0444  0.6610
  689MOL0     H92974   6.252   7.393   8.859 -0.8134  1.5592  0.9389
  689MOL0     H92975   6.331   7.229   8.686 -3.0064  1.4107  0.8987
  689MOL0     H92976   6.393   7.121   8.490  0.4507 -0.4678  1.5271
  689MOL0     H92977   6.213   7.166   7.913 -0.4463  0.7434  0.4423
  689MOL0     H92978   6.267   7.028   7.718 -1.2055 -1.1299 -1.4874
  689MOL0     H92979   6.143   6.697   7.550 -1.9135 -0.0886  3.2036
  689MOL0     H92980   6.158   6.871   7.587  1.7213  0.7907 -0.2922
  689MOL0     H92981   6.400   6.858   7.558 -2.9072 -0.0088  2.4388
  689MOL0     H92982   6.394   6.686   7.497  2.0721  1.3316 -1.5011
  689MOL0     H92983   6.302   6.957   7.368 -1.1567  0.2775 -5.5551
  689MOL0     H92984   6.440   6.871   7.326 -0.7182  2.6871  2.2249
  689MOL0     H92985   6.193   6.708   7.319  1.8016  0.3515  1.4474
  689MOL0     H92986   6.333   6.697   7.218 -1.6158 -1.6725 -2.3562
  689MOL0     H92987   6.285   6.889   7.073 -2.3930  4.4678 -2.4931
  689MOL0     H92988   6.145   6.927   7.182 -1.0968 -3.3116  3.4190
  689MOL0     H92989   6.167   6.702   6.982  2.5613  0.4415  2.1755
  689MOL0     H92990   6.037   6.705   7.104  2.8744  0.0492  4.1399
  689MOL0     H92991   6.083   6.937   6.898  0.2113 -0.4953 -0.3539
  689MOL0     H92992   5.951   6.923   7.010  0.2250 -0.3012 -0.6102
  689MOL0     H92993   5.893   6.705   6.885  0.0606 -1.0681 -2.0991
  689MOL0     H92994   5.864   6.865   6.809  0.1933 -0.4801 -1.4353
  689MOL0     H92995   6.183   6.678   7.954  0.8801  0.6350  2.5898
  689MOL0     H92996   6.155   6.830   8.156  0.9351  1.3148  0.1737
  689MOL0     H92997   6.011   7.217   8.312  0.1954 -0.1747  0.3035
  689MOL0     H92998   5.960   7.352   8.530  0.6274  0.4995 -2.1046
  689MOL0     H92999   7.169   8.341   9.406  1.1043  1.4485  1.7012
  689MOL0     H93000   7.290   8.541   9.344 -1.2237 -0.3589 -0.8096
  689MOL0     H93001   7.486   8.785   9.216 -0.5188  1.5203  0.5213
  689MOL0     H93002   7.604   8.999   9.220 -1.3601  0.6652 -0.0981
  689MOL0     H93003   7.779   9.294   8.938  0.9777  0.0551 -3.2137
  689MOL0     H93004   7.746   9.163   8.829 -2.0419  1.0382  0.2073
  689MOL0     H93005   7.977   9.126   8.871  2.9374  0.2667  2.7481
  689MOL0     H93006   7.889   9.002   8.970 -3.1796  0.7121  1.0606
  689MOL0     H93007   7.957   9.173   9.168 -0.5094 -0.0464 -0.0474
  689MOL0     H93008   8.027   9.265   9.043  1.8277 -0.6596 -2.3336
  689MOL0     H93009   8.167   9.084   8.981  0.3824 -0.2724 -0.2999
  689MOL0     H93010   8.194   9.161   9.138 -0.7062  2.3518 -0.9313
  689MOL0     H93011   8.071   8.779   9.274  0.6666  1.2462  2.3427
  689MOL0     H93012   7.661   8.977   8.804 -0.8291  2.0045  0.8614
  689MOL0     H93013   7.608   8.632   8.786 -2.3744  0.1140  2.5796
  689MOL0     H93014   7.489   8.760   8.713  0.3118  2.4689 -1.1521
  689MOL0     H93015   7.662   8.772   8.700  1.7080  0.4394  1.7613
  690MOL0     O93016   3.294   7.439   9.677 -0.6206 -0.1206  0.3248
  690MOL0     C93017   3.310   7.550   9.627  0.0871  0.7326  0.6675
  690MOL0     O93018   3.423   7.618   9.643 -0.2222 -0.9184 -0.7054
  690MOL0     C93019   3.498   7.601   9.757  0.2824  1.2081  0.8054
  690MOL0     C93020   3.637   7.573   9.746 -0.1389  0.1576 -0.3694
  690MOL0     C93021   3.708   7.554   9.862  0.3384  0.5717 -0.6034
  690MOL0     C93022   3.647   7.558   9.989  0.5160 -0.0240 -0.1628
  690MOL0     O93023   3.732   7.522  10.090  0.8321 -0.1017  0.1803
  690MOL0     C93024   3.693   7.491  10.219  0.1293 -0.0248  0.1240
  690MOL0     C93025   3.593   7.374  10.240  0.3498  0.1513 -0.3664
  690MOL0     C93026   3.587   7.325  10.385  0.7741  0.2070 -0.2988
  690MOL0     C93027   3.466   7.230  10.414  0.9762 -0.9099  0.0011
  690MOL0     C93028   3.471   7.187  10.553 -0.1930  1.2844 -0.3853
  690MOL0     C93029   3.549   7.061  10.565 -0.6038  0.3394 -0.0794
  690MOL0     C93030   3.472   6.933  10.507 -0.3051 -0.0724 -0.1541
  690MOL0     C93031   3.520   6.795  10.551  0.2809 -0.8668  0.0839
  690MOL0     N93032   3.655   6.762  10.502  0.5306 -0.5781 -0.0771
  690MOL0     C93033   3.691   6.763  10.368  0.5827 -0.3412 -0.3687
  690MOL0     C93034   3.816   6.733  10.378 -0.8375 -0.1099  0.3524
  690MOL0     C93035   3.906   6.699  10.253 -0.1479 -0.2646  0.4537
  690MOL0     C93036   3.959   6.560  10.254 -0.2765  0.6479  0.0355
  690MOL0     C93037   4.083   6.528  10.162 -0.5354 -0.1229 -0.8810
  690MOL0     C93038   4.080   6.590  10.029 -0.1942 -0.3777  0.1365
  690MOL0     O93039   3.968   6.559   9.943  0.2609 -0.4192 -0.2961
  690MOL0     C93040   4.006   6.574   9.812  0.5628 -0.4905  0.3325
  690MOL0     C93041   4.048   6.693   9.763  0.6367 -1.0533 -0.4564
  690MOL0     C93042   4.089   6.697   9.628  1.1202 -0.7773 -0.0655
  690MOL0     C93043   4.071   6.590   9.538 -0.1091  0.8724  0.4354
  690MOL0     C93044   4.112   6.592   9.394  0.3414  0.9080 -0.0702
  690MOL0     O93045   4.027   6.533   9.307 -0.0857  0.5248 -0.3080
  690MOL0     C93046   4.055   6.504   9.173 -0.3244  0.7628 -0.0644
  690MOL0     C93047   3.941   6.517   9.079 -1.1248 -0.3163 -0.4031
  690MOL0     C93048   3.981   6.493   8.944  1.0368  0.4830  0.0768
  690MOL0     C93049   4.108   6.458   8.903  0.6537  0.3682  0.8181
  690MOL0     O93050   4.136   6.410   8.778  0.3691 -0.2762  0.1822
  690MOL0     C93051   4.257   6.342   8.749 -0.1661  0.8998 -0.3805
  690MOL0     C93052   4.270   6.335   8.596  0.0229  0.0390  0.1478
  690MOL0     C93053   4.411   6.301   8.548 -0.1198 -0.2723  0.1502
  690MOL0     C93054   4.434   6.276   8.397  0.1886 -0.0676 -0.2480
  690MOL0     C93055   4.584   6.268   8.349  0.2564  0.7440 -0.6793
  690MOL0     C93056   4.584   6.264   8.196 -0.4098 -0.2852 -0.1001
  690MOL0     C93057   4.724   6.233   8.127 -0.0510 -0.4573  0.2897
  690MOL0     C93058   4.708   6.143   8.001 -1.3193  0.1365 -0.6593
  690MOL0    Cl93059   4.669   6.252   7.872  0.0636  0.0287 -0.0277
  690MOL0     C93060   4.212   6.453   8.998 -0.8050 -1.2556 -0.1200
  690MOL0     C93061   4.180   6.465   9.134 -1.3370 -0.1035  0.7066
  690MOL0     O93062   4.212   6.657   9.359 -0.3116  0.6403 -0.0211
  690MOL0     C93063   4.006   6.475   9.589  0.7797  1.6954 -0.7920
  690MOL0     C93064   3.980   6.466   9.728 -1.2174 -1.0385 -0.2619
  690MOL0     N93065   3.865   6.746  10.511 -0.4485 -0.5430  0.4872
  690MOL0     N93066   3.766   6.773  10.586 -0.0249  0.8148 -0.1407
  690MOL0     C93067   3.513   7.600  10.001 -0.1247  0.1235  1.3290
  690MOL0     C93068   3.438   7.599   9.880  0.1081 -0.6018  0.5135
  690MOL0     C93069   3.201   7.613   9.550 -0.1131 -0.4691 -0.2833
  690MOL0     C93070   3.222   7.739   9.483 -0.3543 -0.5009 -0.9044
  690MOL0     C93071   3.133   7.803   9.407  0.3131  0.3265  0.8981
  690MOL0     C93072   3.010   7.745   9.375 -0.3543  0.0901 -0.4569
  690MOL0     O93073   2.915   7.806   9.297  0.2091  0.1518 -0.5096
  690MOL0     C93074   2.916   7.942   9.256 -0.2820 -0.4001 -0.1232
  690MOL0     C93075   3.026   7.971   9.156 -0.1430 -0.6057 -0.7177
  690MOL0     C93076   2.968   7.956   9.015 -0.5642 -0.4717 -0.3614
  690MOL0     C93077   2.860   8.062   8.980  0.1878 -0.8469  0.3677
  690MOL0     C93078   2.811   8.057   8.842 -0.1486 -0.3551  0.6648
  690MOL0     C93079   2.779   8.042   8.729  0.1952 -0.1970  0.4567
  690MOL0     C93080   2.983   7.619   9.428  0.2017  0.4626 -0.3009
  690MOL0     C93081   3.072   7.548   9.519 -0.1214  0.4648 -0.5372
  690MOL0     C93082   3.015   7.413   9.578 -0.6757  0.1661 -0.4730
  690MOL0     H93083   3.704   7.566   9.660  2.2127 -4.4994  1.4404
  690MOL0     H93084   3.815   7.539   9.856  0.1731 -0.9261 -0.1923
  690MOL0     H93085   3.786   7.452  10.262  1.4831  0.3348 -2.2840
  690MOL0     H93086   3.653   7.580  10.269 -0.3286 -0.1329 -0.0404
  690MOL0     H93087   3.613   7.292  10.170  2.0723  0.0993  0.1394
  690MOL0     H93088   3.495   7.421  10.222  0.4856  0.1303 -1.2343
  690MOL0     H93089   3.591   7.410  10.453  0.1595 -0.2669  0.3382
  690MOL0     H93090   3.673   7.264  10.415 -1.8709 -4.4605 -1.1112
  690MOL0     H93091   3.374   7.286  10.395  0.6453  0.7217  4.9256
  690MOL0     H93092   3.461   7.140  10.353  0.6367 -0.2636 -0.9451
  690MOL0     H93093   3.521   7.259  10.618  4.3048 -1.2239 -0.5783
  690MOL0     H93094   3.370   7.168  10.591 -0.4628  0.5322 -1.4329
  690MOL0     H93095   3.647   7.070  10.517 -1.6085 -1.4653 -2.6841
  690MOL0     H93096   3.564   7.038  10.671  1.6770 -0.3137 -0.4818
  690MOL0     H93097   3.480   6.936  10.398 -1.6749 -0.8928 -0.3119
  690MOL0     H93098   3.367   6.941  10.538  0.1171  0.6203  1.1534
  690MOL0     H93099   3.518   6.792  10.661 -0.5644 -0.1974  0.1033
  690MOL0     H93100   3.455   6.717  10.510 -1.5517  1.7138 -2.2849
  690MOL0     H93101   3.628   6.775  10.281  0.0601 -4.1541 -0.6802
  690MOL0     H93102   3.854   6.710  10.157 -1.3252 -0.1644  1.0791
  690MOL0     H93103   3.987   6.772  10.251  1.4326 -1.9801 -0.0919
  690MOL0     H93104   3.994   6.554  10.357  1.1064  1.9358 -0.3183
  690MOL0     H93105   3.887   6.480  10.236  2.2984 -1.6934 -0.4609
  690MOL0     H93106   4.102   6.421  10.155  0.5412 -0.0796  0.8659
  690MOL0     H93107   4.169   6.572  10.213 -0.2186 -1.5238 -0.1704
  690MOL0     H93108   4.165   6.546   9.977 -1.1177 -1.8900 -0.1699
  690MOL0     H93109   4.077   6.699  10.040 -1.4731 -0.4602  0.8997
  690MOL0     H93110   4.059   6.769   9.840  1.4885 -3.0088  1.4487
  690MOL0     H93111   4.130   6.786   9.582 -1.9193 -0.3191 -2.1965
  690MOL0     H93112   3.843   6.534   9.123 -1.6670  0.1604 -1.7487
  690MOL0     H93113   3.905   6.483   8.868 -1.1523 -2.5321  2.4154
  690MOL0     H93114   4.351   6.376   8.793 -0.1716 -0.8201  1.0713
  690MOL0     H93115   4.245   6.243   8.793  0.6425  1.3183  0.8246
  690MOL0     H93116   4.200   6.259   8.561 -1.1977  0.1220  2.2050
  690MOL0     H93117   4.235   6.430   8.554 -0.0375 -0.8287 -1.8710
  690MOL0     H93118   4.467   6.390   8.578  0.0263 -0.4071  0.2758
  690MOL0     H93119   4.441   6.215   8.608 -2.1677 -1.4736 -0.4580
  690MOL0     H93120   4.372   6.348   8.344 -0.9524 -0.3540  0.6518
  690MOL0     H93121   4.389   6.177   8.385 -0.7983  0.0948  1.7307
  690MOL0     H93122   4.632   6.181   8.394 -0.0514  0.9561  0.0937
  690MOL0     H93123   4.640   6.354   8.387 -0.2706  0.7784  0.0635
  690MOL0     H93124   4.504   6.198   8.162 -0.9319  0.4161 -0.2481
  690MOL0     H93125   4.536   6.357   8.164 -1.7729 -0.6897  0.7286
  690MOL0     H93126   4.777   6.172   8.201 -0.9656 -1.3612  0.2242
  690MOL0     H93127   4.784   6.321   8.099 -1.0930 -0.2490 -1.4263
  690MOL0     H93128   4.792   6.077   7.982  0.2902  1.7115  0.6131
  690MOL0     H93129   4.627   6.072   8.020 -0.8946  0.0153  0.8161
  690MOL0     H93130   4.320   6.451   8.981 -0.7638 -0.8268  0.0677
  690MOL0     H93131   4.265   6.457   9.201 -0.2782  2.4758 -0.2025
  690MOL0     H93132   3.971   6.395   9.525  0.6164 -0.1698  1.4984
  690MOL0     H93133   3.953   6.375   9.781  1.3825 -0.1509  2.9981
  690MOL0     H93134   3.457   7.611  10.093  2.6311  0.2495  3.0856
  690MOL0     H93135   3.334   7.613   9.907 -0.6776 -1.3718 -1.8865
  690MOL0     H93136   3.316   7.789   9.507 -0.1278 -0.2745 -2.1714
  690MOL0     H93137   3.154   7.907   9.384 -0.6546  0.8225  2.1151
  690MOL0     H93138   2.947   7.995   9.347 -0.5628  4.2310 -2.4278
  690MOL0     H93139   2.817   7.974   9.223 -0.7600 -1.5600  0.1561
  690MOL0     H93140   3.114   7.908   9.172 -1.3513 -1.9096  1.2618
  690MOL0     H93141   3.049   8.078   9.158  2.3267 -1.0970  0.0212
  690MOL0     H93142   2.924   7.857   9.001 -1.0169 -0.2279 -0.6923
  690MOL0     H93143   3.049   7.962   8.941  1.4431 -3.8146  1.3234
  690MOL0     H93144   2.772   8.030   9.038  1.6418 -0.7365  2.7873
  690MOL0     H93145   2.898   8.160   9.008  1.1114 -0.6013 -1.5724
  690MOL0     H93146   2.773   8.021   8.624  0.2797 -0.9022  0.5858
  690MOL0     H93147   2.895   7.569   9.389 -1.2717 -0.7114  3.8817
  690MOL0     H93148   2.962   7.427   9.672  1.3992  1.5035  0.5798
  690MOL0     H93149   2.942   7.380   9.503 -1.7169 -0.3713  0.7362
  690MOL0     H93150   3.085   7.329   9.575  0.7070  1.2685 -0.3944
  691MOL0     O93151   9.205   5.107   6.976 -0.0505 -0.6398  0.2243
  691MOL0     C93152   9.109   5.180   6.948  0.8538  0.2401 -0.3688
  691MOL0     O93153   9.023   5.236   7.042  0.3975 -0.7898 -0.1614
  691MOL0     C93154   9.039   5.206   7.169 -0.1847  0.6457 -1.2984
  691MOL0     C93155   9.013   5.069   7.207  0.3074  0.4604 -0.2217
  691MOL0     C93156   9.006   5.039   7.341 -1.1742  0.8499  0.0075
  691MOL0     C93157   9.030   5.134   7.446 -1.0869  0.1519  0.2869
  691MOL0     O93158   9.021   5.121   7.581  0.4291  0.2414 -0.5542
  691MOL0     C93159   9.068   4.992   7.632  0.3841  0.1318  0.1910
  691MOL0     C93160   9.104   5.007   7.774  0.3985  0.0713 -0.2369
  691MOL0     C93161   8.986   5.031   7.862 -0.3720 -0.4465  0.3426
  691MOL0     C93162   9.017   5.022   8.014 -0.4306 -1.3938  0.1858
  691MOL0     C93163   8.900   5.064   8.101 -0.8409  0.2422 -0.5562
  691MOL0     C93164   8.921   5.074   8.252 -0.4609 -0.1468  0.2306
  691MOL0     C93165   8.957   4.936   8.323  0.1252  0.4446 -0.3216
  691MOL0     C93166   8.949   4.937   8.480  0.4125  0.4240  0.2799
  691MOL0     N93167   9.002   4.812   8.528  0.2547  0.8284 -0.4843
  691MOL0     C93168   8.934   4.697   8.517  0.0239  0.2090  0.7837
  691MOL0     C93169   9.002   4.609   8.594 -0.1233  0.0820 -0.0165
  691MOL0     C93170   8.980   4.463   8.620 -0.3020 -0.1376 -0.9770
  691MOL0     C93171   9.029   4.389   8.503 -0.5239  0.0402 -1.0379
  691MOL0     C93172   9.188   4.388   8.501  0.7514 -0.6442 -0.1913
  691MOL0     C93173   9.247   4.296   8.405 -0.2108  0.5046 -0.0621
  691MOL0     O93174   9.275   4.161   8.453  0.7801 -0.1271 -0.4187
  691MOL0     C93175   9.399   4.140   8.507 -0.1881  0.9425  0.8513
  691MOL0     C93176   9.410   4.009   8.529 -0.2776  0.3005 -0.1834
  691MOL0     C93177   9.526   3.959   8.590  0.1011  1.4341  0.4641
  691MOL0     C93178   9.632   4.037   8.629 -0.1528 -0.0846  1.3689
  691MOL0     C93179   9.748   3.980   8.697  0.0233  0.3369  0.1641
  691MOL0     O93180   9.760   3.850   8.720  0.1427 -0.3960 -0.3088
  691MOL0     C93181   9.874   3.795   8.765 -0.4949  0.3148  0.0984
  691MOL0     C93182   9.893   3.768   8.904  0.1276 -0.5544 -0.0303
  691MOL0     C93183   9.999   3.692   8.945  0.3538  0.5999 -1.0704
  691MOL0     C93184  10.094   3.635   8.855  0.6412 -0.2589 -1.0765
  691MOL0     O93185  10.198   3.564   8.887  0.3352  0.4091 -1.0646
  691MOL0     C93186  10.243   3.557   9.025 -0.0628 -0.1211 -0.3508
  691MOL0     C93187  10.378   3.475   9.035  0.0750 -0.7300 -0.0037
  691MOL0     C93188  10.494   3.538   8.944  0.0479  1.1603  0.1582
  691MOL0     C93189  10.630   3.480   8.973 -0.3610 -0.2088 -0.3925
  691MOL0     C93190  10.639   3.345   8.898 -0.9816  0.5890 -1.0944
  691MOL0     C93191  10.773   3.270   8.960 -0.3096 -0.2925  0.7093
  691MOL0     C93192  10.832   3.180   8.853 -0.6404  0.0895 -1.0449
  691MOL0     C93193  10.935   3.088   8.917  0.1117  0.4967 -0.6685
  691MOL0    Cl93194  11.045   3.182   9.018  0.2905  0.1040  0.1018
  691MOL0     C93195  10.066   3.663   8.718  0.2146 -0.2348 -0.5998
  691MOL0     C93196   9.969   3.743   8.675 -0.0656  0.6035  0.9848
  691MOL0     O93197   9.839   4.058   8.721 -0.2553 -0.4748  0.8708
  691MOL0     C93198   9.619   4.176   8.595 -1.2864  0.0964  0.1092
  691MOL0     C93199   9.502   4.226   8.532 -0.7835  0.3149 -0.2987
  691MOL0     N93200   9.105   4.681   8.655 -1.1178 -0.4436 -0.3498
  691MOL0     N93201   9.102   4.797   8.617  0.1780 -1.0070 -0.6130
  691MOL0     C93202   9.056   5.266   7.405  0.5165  0.9164  0.1356
  691MOL0     C93203   9.058   5.304   7.271 -0.3403 -0.1031  0.0405
  691MOL0     C93204   9.088   5.212   6.810  0.4604 -0.7740  0.1839
  691MOL0     C93205   9.191   5.277   6.745  0.4623 -0.7760  0.0686
  691MOL0     C93206   9.185   5.314   6.612  0.1816  0.1990  1.4417
  691MOL0     C93207   9.067   5.293   6.538 -0.9126 -0.2177 -0.0863
  691MOL0     O93208   9.050   5.310   6.402 -0.4152 -0.2972 -0.1785
  691MOL0     C93209   9.169   5.346   6.319 -0.0215  0.3484  0.1111
  691MOL0     C93210   9.239   5.216   6.279 -0.1210 -1.0618  0.0810
  691MOL0     C93211   9.364   5.171   6.348 -0.1334  0.5586  0.2065
  691MOL0     C93212   9.371   5.023   6.345 -1.1862 -0.3995 -0.3699
  691MOL0     C93213   9.268   4.956   6.428 -0.7315 -0.4778 -0.0207
  691MOL0     C93214   9.177   4.898   6.484  0.5700 -0.0737 -0.9379
  691MOL0     C93215   8.963   5.230   6.610 -0.1604 -0.7169 -0.1854
  691MOL0     C93216   8.969   5.177   6.735  1.4410 -0.0822  0.6593
  691MOL0     C93217   8.840   5.101   6.784 -0.4927  0.2297 -0.4861
  691MOL0     H93218   8.997   5.004   7.122 -2.3299  1.3029 -0.4863
  691MOL0     H93219   8.986   4.936   7.371  3.2888 -0.1842  0.0786
  691MOL0     H93220   8.986   4.921   7.617  0.4877  0.4201 -2.1017
  691MOL0     H93221   9.154   4.962   7.573 -0.0215  0.9513 -0.8529
  691MOL0     H93222   9.179   5.087   7.779  3.0011 -2.2666  0.4567
  691MOL0     H93223   9.150   4.912   7.802 -0.6129 -0.3437  0.0514
  691MOL0     H93224   8.921   4.947   7.838  0.6717 -1.2020  0.0638
  691MOL0     H93225   8.946   5.131   7.846  1.9175  1.0525  2.9693
  691MOL0     H93226   9.040   4.920   8.046 -3.6459 -1.7588  1.8131
  691MOL0     H93227   9.095   5.094   8.039 -1.5970 -1.0330  3.2547
  691MOL0     H93228   8.863   5.157   8.056 -2.0431 -0.8098 -1.8484
  691MOL0     H93229   8.815   4.995   8.098 -2.7344  2.3400  1.0986
  691MOL0     H93230   8.996   5.148   8.282  1.0072 -2.1263  1.6744
  691MOL0     H93231   8.823   5.101   8.294 -2.1151 -1.3256 -2.5661
  691MOL0     H93232   9.058   4.908   8.292  0.6112  0.8302  0.8709
  691MOL0     H93233   8.894   4.859   8.277  1.6738 -0.9895 -0.1306
  691MOL0     H93234   9.018   5.012   8.520  1.8893 -0.9622  0.4103
  691MOL0     H93235   8.845   4.958   8.508  0.0708 -0.7340 -0.0763
  691MOL0     H93236   8.852   4.669   8.451  1.1707 -1.8938  0.1567
  691MOL0     H93237   9.019   4.436   8.719 -2.4148  0.5833  0.1107
  691MOL0     H93238   8.871   4.454   8.633 -0.2345  0.3521  0.0386
  691MOL0     H93239   8.993   4.291   8.536 -1.1391  0.4559 -0.4469
  691MOL0     H93240   8.983   4.424   8.410  0.2737  2.3382 -0.6257
  691MOL0     H93241   9.223   4.369   8.603  0.3492  1.9298  0.4887
  691MOL0     H93242   9.220   4.491   8.481 -1.5357  0.1860  0.1178
  691MOL0     H93243   9.339   4.343   8.368  1.8545 -1.6024  2.0173
  691MOL0     H93244   9.167   4.290   8.332  0.6109  0.9961 -1.0315
  691MOL0     H93245   9.325   3.948   8.499 -0.4475 -0.7985  2.2627
  691MOL0     H93246   9.524   3.851   8.598 -0.8802  1.3875 -0.1191
  691MOL0     H93247   9.817   3.798   8.976  0.0006  2.8159 -1.3902
  691MOL0     H93248   9.998   3.672   9.052 -1.4041  0.8350 -1.0134
  691MOL0     H93249  10.272   3.657   9.059 -1.5962 -0.5581  2.5858
  691MOL0     H93250  10.163   3.514   9.086  0.2371 -2.9377 -1.7909
  691MOL0     H93251  10.421   3.482   9.136  1.4883  1.2539 -0.6714
  691MOL0     H93252  10.367   3.370   9.008 -2.4388 -1.1275  2.2354
  691MOL0     H93253  10.469   3.505   8.843  4.6459 -2.1011 -0.2449
  691MOL0     H93254  10.490   3.647   8.953 -0.4618  1.2585 -1.1377
  691MOL0     H93255  10.640   3.484   9.082 -0.8769  3.1315 -0.3378
  691MOL0     H93256  10.706   3.544   8.926 -0.7874 -2.2691 -4.2149
  691MOL0     H93257  10.641   3.354   8.789  1.3409  1.3800 -1.0440
  691MOL0     H93258  10.553   3.283   8.923  0.6340 -1.3995 -0.1439
  691MOL0     H93259  10.854   3.342   8.976  2.1616 -1.3481 -4.7770
  691MOL0     H93260  10.764   3.221   9.057  0.2599 -1.6959  0.0721
  691MOL0     H93261  10.885   3.248   8.785  1.9785  1.7234  2.3033
  691MOL0     H93262  10.755   3.117   8.808 -0.6574  0.2870 -1.2957
  691MOL0     H93263  10.882   3.013   8.976 -0.2524  2.0240  1.0554
  691MOL0     H93264  10.995   3.049   8.834  2.1686  2.8133 -0.4071
  691MOL0     H93265  10.131   3.610   8.650 -0.3344 -2.4395  0.5191
  691MOL0     H93266   9.948   3.752   8.569 -0.7293 -4.0178  0.5247
  691MOL0     H93267   9.701   4.234   8.636 -1.4551 -1.5766  3.0392
  691MOL0     H93268   9.491   4.334   8.534  0.9225  0.5299  1.5836
  691MOL0     H93269   9.054   5.341   7.484 -1.3732 -0.2123  1.2515
  691MOL0     H93270   9.071   5.405   7.234  3.5113 -0.3254  0.3864
  691MOL0     H93271   9.284   5.280   6.801  1.1307  2.4822 -1.0093
  691MOL0     H93272   9.274   5.364   6.574 -0.1952 -1.6562 -2.2220
  691MOL0     H93273   9.240   5.404   6.378 -0.7006 -1.0178  2.3928
  691MOL0     H93274   9.139   5.407   6.233  0.6014  1.6550  0.7983
  691MOL0     H93275   9.273   5.233   6.176  0.5849 -2.3010  0.1030
  691MOL0     H93276   9.165   5.135   6.273 -0.5219 -0.7690  0.8703
  691MOL0     H93277   9.372   5.198   6.454 -2.2631  3.0528 -0.1503
  691MOL0     H93278   9.440   5.224   6.290 -2.3802  1.4806 -2.1393
  691MOL0     H93279   9.373   4.989   6.241 -2.0275  1.2423 -0.9647
  691MOL0     H93280   9.470   5.000   6.386 -0.3988 -1.4077 -2.6761
  691MOL0     H93281   9.101   4.854   6.546  1.2670  0.0573  0.0312
  691MOL0     H93282   8.877   5.209   6.547  0.5975 -0.7682 -1.2147
  691MOL0     H93283   8.847   4.992   6.773 -4.4398 -0.6164  2.8393
  691MOL0     H93284   8.823   5.116   6.891  0.2741  2.2535 -0.6112
  691MOL0     H93285   8.752   5.133   6.728 -1.1394 -0.5054  0.0651
  692MOL0     O93286   0.335  10.514  10.188 -0.3364 -0.0947 -0.3547
  692MOL0     C93287   0.325  10.569  10.296  0.4654  0.1129 -0.4117
  692MOL0     O93288   0.403  10.678  10.328 -0.7660 -0.7041 -0.4606
  692MOL0     C93289   0.466  10.758  10.236  0.8060  0.6327 -0.5863
  692MOL0     C93290   0.589  10.812  10.276  0.4300  1.0433 -0.8289
  692MOL0     C93291   0.663  10.901  10.201 -0.7824 -0.7019  0.1607
  692MOL0     C93292   0.617  10.923  10.074  0.7745  0.2690  0.4145
  692MOL0     O93293   0.678  11.007   9.987  0.0854  0.4643 -0.0765
  692MOL0     C93294   0.688  11.144  10.033 -0.3944 -0.1842  0.6463
  692MOL0     C93295   0.580  11.239   9.990  0.4867 -0.5784  1.0411
  692MOL0     C93296   0.636  11.383   9.997  1.0711 -0.2707  0.1466
  692MOL0     C93297   0.577  11.455   9.881  0.1471  0.1832 -0.1249
  692MOL0     C93298   0.608  11.602   9.863  0.6900 -1.4548 -0.9763
  692MOL0     C93299   0.757  11.631   9.858 -0.8598 -1.0643  0.1550
  692MOL0     C93300   0.783  11.785   9.814  0.3060  0.3631  0.0821
  692MOL0     C93301   0.743  11.880   9.922  0.2808  0.5445  0.0738
  692MOL0     N93302   0.800  12.011   9.888  0.0857  0.3198 -0.0868
  692MOL0     C93303   0.872  12.048   9.771 -0.4734 -0.1291 -0.8943
  692MOL0     C93304   0.921  12.168   9.811 -0.1023 -0.1896  0.5865
  692MOL0     C93305   1.002  12.256   9.716 -0.4112  0.0468  1.0757
  692MOL0     C93306   1.145  12.206   9.702  0.3413  0.3752 -0.3137
  692MOL0     C93307   1.173  12.060   9.646 -0.1407 -0.1853  0.3413
  692MOL0     C93308   1.138  12.041   9.501 -0.3628 -0.4561 -0.3852
  692MOL0     O93309   1.137  11.903   9.487  0.1663 -0.1236  0.9361
  692MOL0     C93310   1.105  11.843   9.365 -0.7713  0.2102  0.3271
  692MOL0     C93311   1.061  11.907   9.244  1.0601  1.2322 -0.0773
  692MOL0     C93312   1.040  11.828   9.123 -0.1184  0.0877  0.2262
  692MOL0     C93313   1.067  11.686   9.121 -0.5767  0.7411  0.5416
  692MOL0     C93314   1.037  11.601   9.001 -0.0820 -0.3862  0.7333
  692MOL0     O93315   0.981  11.666   8.902  0.3493 -0.0776  0.3626
  692MOL0     C93316   0.905  11.591   8.809 -0.1961  0.2947  0.8521
  692MOL0     C93317   0.768  11.605   8.793  0.4571  0.7680  0.6810
  692MOL0     C93318   0.698  11.521   8.701 -0.2858 -1.4057 -0.4188
  692MOL0     C93319   0.771  11.447   8.607 -0.0170  0.6775 -0.0051
  692MOL0     O93320   0.716  11.365   8.501 -0.1380 -0.5611  0.4019
  692MOL0     C93321   0.573  11.357   8.503  0.3034  1.8501  0.1631
  692MOL0     C93322   0.512  11.275   8.381 -0.6249 -0.0048  0.2088
  692MOL0     C93323   0.553  11.338   8.238  0.8037 -0.7666 -0.0707
  692MOL0     C93324   0.508  11.241   8.131 -0.3839  0.4837  0.8816
  692MOL0     C93325   0.625  11.252   8.021  0.9322 -0.2328 -0.0575
  692MOL0     C93326   0.582  11.177   7.891 -0.1955 -0.7158  0.0224
  692MOL0     C93327   0.469  11.263   7.821 -0.4000 -0.5818 -0.5420
  692MOL0     C93328   0.463  11.224   7.673  0.2309  0.7709 -0.3386
  692MOL0    Cl93329   0.351  11.326   7.583 -0.3044  0.0064  0.0078
  692MOL0     C93330   0.905  11.442   8.610  0.1727 -1.0554 -0.4896
  692MOL0     C93331   0.969  11.515   8.708  0.0997 -0.3475  0.2641
  692MOL0     O93332   1.048  11.478   9.003  0.2457  0.4463  0.2985
  692MOL0     C93333   1.114  11.631   9.240 -0.1427 -0.3695  0.4761
  692MOL0     C93334   1.125  11.702   9.363 -0.7695  0.2098  0.2900
  692MOL0     N93335   0.870  12.204   9.930 -0.5773 -0.5036  0.7152
  692MOL0     N93336   0.785  12.118   9.972  0.3855 -0.1896  0.9457
  692MOL0     C93337   0.501  10.866  10.029  0.6152  0.0032  0.6055
  692MOL0     C93338   0.410  10.791  10.115 -0.3392 -0.5461  0.0384
  692MOL0     C93339   0.219  10.532  10.397 -0.6754 -0.9588  1.0670
  692MOL0     C93340   0.225  10.597  10.518  0.0469 -0.2808 -0.0286
  692MOL0     C93341   0.129  10.583  10.620 -0.4788 -0.0766 -0.1166
  692MOL0     C93342   0.026  10.488  10.605  0.0728 -0.6199  0.0107
  692MOL0     O93343  -0.052  10.480  10.722  0.3688  0.3710 -0.1464
  692MOL0     C93344  -0.165  10.394  10.731 -0.7417 -0.6028 -0.1481
  692MOL0     C93345  -0.281  10.450  10.818  0.1519  0.5009  0.2800
  692MOL0     C93346  -0.401  10.356  10.814  0.0915 -0.3566 -0.3352
  692MOL0     C93347  -0.504  10.373  10.919 -0.5153  0.0857  0.9331
  692MOL0     C93348  -0.452  10.345  11.056 -1.0586  1.2086  0.1734
  692MOL0     C93349  -0.406  10.315  11.165  0.1386 -0.1600 -0.2260
  692MOL0     C93350   0.020  10.410  10.481 -0.0809 -0.2265 -0.7669
  692MOL0     C93351   0.113  10.436  10.387 -0.4365 -0.1878 -0.6333
  692MOL0     C93352   0.109  10.345  10.262 -0.3324  0.1394  0.8336
  692MOL0     H93353   0.623  10.779  10.374 -1.4996 -2.2397 -1.1028
  692MOL0     H93354   0.751  10.953  10.237 -1.0084 -0.4120  0.2973
  692MOL0     H93355   0.710  11.144  10.140 -2.7903  1.6349  1.2170
  692MOL0     H93356   0.782  11.183   9.992 -1.8793  1.5854 -1.2883
  692MOL0     H93357   0.498  11.241  10.062  0.3517 -0.4919  0.8885
  692MOL0     H93358   0.549  11.204   9.891  1.6142  0.9494  0.1095
  692MOL0     H93359   0.745  11.392   9.997  1.3644 -2.9998  0.7394
  692MOL0     H93360   0.598  11.427  10.090  1.9007 -1.6575  1.1767
  692MOL0     H93361   0.611  11.394   9.796  2.7648  0.0303  0.9576
  692MOL0     H93362   0.470  11.438   9.891  0.7133 -3.8679  0.7405
  692MOL0     H93363   0.560  11.659   9.783 -0.7356  1.8496  1.9973
  692MOL0     H93364   0.576  11.651   9.955 -0.8648 -0.6890 -1.8877
  692MOL0     H93365   0.797  11.629   9.960  0.8032  3.8592 -0.1792
  692MOL0     H93366   0.800  11.556   9.791  0.5886 -1.4086  1.4311
  692MOL0     H93367   0.735  11.795   9.716 -0.6866 -0.4064  0.4685
  692MOL0     H93368   0.890  11.806   9.814  0.1406  1.3928  1.7965
  692MOL0     H93369   0.637  11.903   9.903  0.6889 -0.4583 -4.5452
  692MOL0     H93370   0.762  11.849  10.025 -1.9613 -0.1200  0.3628
  692MOL0     H93371   0.876  11.980   9.687 -1.7347 -0.9062 -0.3511
  692MOL0     H93372   0.950  12.266   9.620  2.1997 -2.4509 -0.7486
  692MOL0     H93373   1.004  12.361   9.748 -1.8907  0.6490 -0.5953
  692MOL0     H93374   1.189  12.276   9.630 -4.0209  0.3723 -3.4336
  692MOL0     H93375   1.200  12.207   9.796  0.4242 -0.3849 -0.3474
  692MOL0     H93376   1.119  11.996   9.716  1.5504 -1.4763  0.5172
  692MOL0     H93377   1.281  12.045   9.654  0.4572  2.8436 -0.6277
  692MOL0     H93378   1.214  12.102   9.449  0.2732  2.5568  3.5981
  692MOL0     H93379   1.041  12.083   9.475 -0.3186 -0.9847 -1.4606
  692MOL0     H93380   1.053  12.014   9.232  2.9094  1.3763 -0.2421
  692MOL0     H93381   1.017  11.869   9.025  2.6301 -0.4749 -0.7377
  692MOL0     H93382   0.728  11.678   8.863 -1.7714  2.3636 -2.0879
  692MOL0     H93383   0.591  11.540   8.707  0.1864  2.1709 -0.8668
  692MOL0     H93384   0.530  11.315   8.594 -1.4656 -0.9176 -1.7998
  692MOL0     H93385   0.528  11.456   8.492 -5.2815 -0.3453 -0.0696
  692MOL0     H93386   0.532  11.168   8.397 -2.6426 -0.2320  1.5627
  692MOL0     H93387   0.403  11.285   8.387 -0.3598  3.2841  1.3484
  692MOL0     H93388   0.500  11.432   8.219 -2.4696 -2.7360 -1.5452
  692MOL0     H93389   0.660  11.361   8.227  0.7799 -1.4225 -2.1273
  692MOL0     H93390   0.406  11.250   8.092  0.7814  2.4783 -2.1701
  692MOL0     H93391   0.515  11.138   8.166 -0.4800  0.1169 -0.1198
  692MOL0     H93392   0.718  11.203   8.051  0.6616 -0.1371  0.9850
  692MOL0     H93393   0.644  11.356   7.991 -0.7321  0.1021 -0.0490
  692MOL0     H93394   0.663  11.174   7.818 -2.0452 -0.6824 -2.1211
  692MOL0     H93395   0.553  11.073   7.912  1.9144 -1.1729  0.9047
  692MOL0     H93396   0.484  11.372   7.821 -2.3481 -0.2228 -3.4759
  692MOL0     H93397   0.376  11.245   7.876  1.0305 -0.2454  2.1924
  692MOL0     H93398   0.555  11.256   7.624 -0.8981  0.0990 -3.0935
  692MOL0     H93399   0.452  11.115   7.675 -0.5604  0.8008  3.0586
  692MOL0     H93400   0.968  11.383   8.544 -0.9480 -2.8192 -0.0296
  692MOL0     H93401   1.075  11.493   8.714  0.0148 -1.8545 -2.3712
  692MOL0     H93402   1.133  11.524   9.244 -2.1305 -0.8195 -0.4728
  692MOL0     H93403   1.157  11.666   9.460  0.5435  0.6477  0.0449
  692MOL0     H93404   0.465  10.882   9.928 -0.1841 -4.8707 -0.1260
  692MOL0     H93405   0.315  10.751  10.082 -1.3187  1.1516  0.6961
  692MOL0     H93406   0.302  10.672  10.532 -0.4630 -0.2033  2.8704
  692MOL0     H93407   0.136  10.649  10.706  2.8741  2.6091 -2.1518
  692MOL0     H93408  -0.143  10.294  10.769 -0.1981 -0.5431 -0.2946
  692MOL0     H93409  -0.208  10.383  10.631 -1.7837 -2.9017  0.4899
  692MOL0     H93410  -0.313  10.548  10.780 -0.4806  0.8573  1.6465
  692MOL0     H93411  -0.255  10.464  10.923 -0.4378 -1.8589  0.7964
  692MOL0     H93412  -0.363  10.255  10.836  0.6717  0.2055  1.4581
  692MOL0     H93413  -0.443  10.349  10.714 -0.4685  0.4530 -0.1673
  692MOL0     H93414  -0.547  10.474  10.915  2.6758  1.6266  2.1303
  692MOL0     H93415  -0.582  10.297  10.904 -0.3662  0.0986  0.0440
  692MOL0     H93416  -0.363  10.292  11.261  2.0469  2.1357 -0.4390
  692MOL0     H93417  -0.059  10.339  10.462 -1.0182  0.9364 -1.3347
  692MOL0     H93418   0.028  10.274  10.281 -1.4625  1.7415  2.2374
  692MOL0     H93419   0.085  10.410  10.178  0.9429  1.1499  1.2248
  692MOL0     H93420   0.205  10.294  10.246 -0.8880 -0.8251  0.4902
  693MOL0     O93421   6.032   9.339   4.554 -0.0827 -0.3941  0.1475
  693MOL0     C93422   6.046   9.258   4.644  0.0535  0.7378 -0.2590
  693MOL0     O93423   6.125   9.263   4.749  0.1335  0.3333  0.5172
  693MOL0     C93424   6.223   9.358   4.732 -0.3128 -0.4908 -0.3651
  693MOL0     C93425   6.210   9.497   4.765 -0.2810 -0.3010 -0.2436
  693MOL0     C93426   6.321   9.596   4.772  0.6845  0.1934  0.1886
  693MOL0     C93427   6.449   9.551   4.761 -0.6650 -0.8992  0.1845
  693MOL0     O93428   6.561   9.635   4.775  0.4371  0.1221 -0.5349
  693MOL0     C93429   6.598   9.685   4.645 -0.5070 -0.5065  0.2918
  693MOL0     C93430   6.700   9.797   4.642 -0.2415 -0.4495  1.0151
  693MOL0     C93431   6.766   9.828   4.508 -1.3254  0.9091 -0.5676
  693MOL0     C93432   6.694   9.799   4.371  0.5779  0.2295 -0.1136
  693MOL0     C93433   6.783   9.815   4.251 -0.6956  0.5386  1.7797
  693MOL0     C93434   6.718   9.765   4.119  0.2711  0.2474 -0.1367
  693MOL0     C93435   6.815   9.778   4.003 -0.2762 -0.3961 -1.4147
  693MOL0     C93436   6.761   9.710   3.871 -0.9617  0.2871 -0.4475
  693MOL0     N93437   6.630   9.741   3.833  0.0634 -0.0098  1.1987
  693MOL0     C93438   6.568   9.867   3.839 -0.4134  0.6523  0.2260
  693MOL0     C93439   6.449   9.845   3.777  0.5475  0.3402  0.7136
  693MOL0     C93440   6.342   9.949   3.740 -0.2068  0.3414 -0.2729
  693MOL0     C93441   6.369  10.014   3.598  0.7667  0.3649  0.3554
  693MOL0     C93442   6.355   9.921   3.481  1.0343 -0.0595 -0.6983
  693MOL0     C93443   6.370   9.980   3.343 -0.0123  0.4946  0.3047
  693MOL0     O93444   6.506  10.020   3.331 -0.2848 -0.7763  0.3270
  693MOL0     C93445   6.554  10.094   3.224 -0.3199 -0.2298  0.2447
  693MOL0     C93446   6.480  10.157   3.122  0.1568  0.3619  0.2764
  693MOL0     C93447   6.549  10.254   3.052  0.8766 -0.0270  0.6403
  693MOL0     C93448   6.682  10.292   3.066 -0.3060  0.1604  0.7512
  693MOL0     C93449   6.756  10.393   2.981  1.2792 -0.6800  0.7350
  693MOL0     O93450   6.881  10.434   3.018 -0.6471  0.4417 -0.2846
  693MOL0     C93451   6.940  10.543   2.965 -0.4035  0.6637  0.2445
  693MOL0     C93452   6.930  10.666   3.034 -0.3955 -0.7448 -0.5538
  693MOL0     C93453   6.989  10.780   2.990  0.1714  0.1717 -0.2704
  693MOL0     C93454   7.075  10.775   2.875 -0.9656  1.3660 -0.0073
  693MOL0     O93455   7.158  10.879   2.839  0.3221 -0.0951  0.4660
  693MOL0     C93456   7.080  10.999   2.820  0.2842 -0.1656  0.4392
  693MOL0     C93457   7.097  11.043   2.682 -0.1989  0.0985 -0.4314
  693MOL0     C93458   7.039  11.185   2.663  0.0827 -0.2147 -0.4013
  693MOL0     C93459   6.979  11.210   2.523  0.5427  0.0076  0.4088
  693MOL0     C93460   6.958  11.363   2.503  0.0031  0.4384  0.6401
  693MOL0     C93461   6.988  11.403   2.354  0.4520 -0.0355 -1.0390
  693MOL0     C93462   6.855  11.435   2.292  0.6529  0.2623 -1.0521
  693MOL0     C93463   6.879  11.451   2.141 -0.0577  0.7946 -1.1252
  693MOL0    Cl93464   6.901  11.293   2.070  0.5909  0.0145  0.2566
  693MOL0     C93465   7.088  10.655   2.808 -0.2014 -0.2828  0.4452
  693MOL0     C93466   7.019  10.539   2.847  0.3890 -0.3425  0.1881
  693MOL0     O93467   6.694  10.436   2.884  0.4319 -0.4796 -0.3448
  693MOL0     C93468   6.753  10.232   3.170  0.7067  0.5399  0.1524
  693MOL0     C93469   6.691  10.134   3.247  0.8893  0.5407 -0.1569
  693MOL0     N93470   6.450   9.718   3.717  1.0618 -0.5932 -0.3826
  693MOL0     N93471   6.560   9.654   3.758 -0.4457 -0.3977  0.0753
  693MOL0     C93472   6.463   9.416   4.720  0.8955  0.1256 -0.0986
  693MOL0     C93473   6.352   9.324   4.708 -0.5313 -0.0245  0.4101
  693MOL0     C93474   5.954   9.136   4.638 -0.6991  0.6262 -0.1349
  693MOL0     C93475   5.903   9.074   4.750 -0.7017 -0.3933 -0.3512
  693MOL0     C93476   5.834   8.958   4.740  0.3840  0.5693 -1.3736
  693MOL0     C93477   5.813   8.896   4.614 -0.3850 -0.3672 -0.2556
  693MOL0     O93478   5.731   8.792   4.604  0.0534 -0.3890  0.0324
  693MOL0     C93479   5.776   8.667   4.559 -0.2192  0.2327  0.6843
  693MOL0     C93480   5.933   8.635   4.566 -0.5562 -0.2874  0.5626
  693MOL0     C93481   5.970   8.487   4.545  0.1536  0.2609  0.3856
  693MOL0     C93482   6.090   8.460   4.630  1.3315 -0.2511 -0.5780
  693MOL0     C93483   6.155   8.337   4.595  0.3840  0.3253  0.0612
  693MOL0     C93484   6.213   8.236   4.564 -0.1871 -0.5629 -0.2026
  693MOL0     C93485   5.875   8.949   4.502 -0.1123 -0.2859  0.2294
  693MOL0     C93486   5.940   9.069   4.509 -0.1513  0.1392  0.7150
  693MOL0     C93487   6.000   9.125   4.376  0.0961  0.0164 -0.1263
  693MOL0     H93488   6.105   9.521   4.778 -0.4568 -0.9377 -0.4636
  693MOL0     H93489   6.300   9.699   4.799  4.4224  1.3879 -0.9029
  693MOL0     H93490   6.636   9.610   4.576  0.3487  1.8059 -1.9040
  693MOL0     H93491   6.503   9.728   4.610  0.6707  2.6208  0.5887
  693MOL0     H93492   6.778   9.769   4.714  0.4158  0.7841  0.8101
  693MOL0     H93493   6.652   9.888   4.678  0.6963  0.2381  0.5487
  693MOL0     H93494   6.849   9.757   4.510 -2.2328 -0.1770 -0.3615
  693MOL0     H93495   6.807   9.929   4.517 -2.4235  1.2597  0.9419
  693MOL0     H93496   6.670   9.693   4.377  0.3865  0.3678  2.3355
  693MOL0     H93497   6.602   9.859   4.367 -0.3609 -1.0386 -5.6024
  693MOL0     H93498   6.826   9.915   4.247 -1.1585  0.7419  1.8499
  693MOL0     H93499   6.862   9.751   4.290  1.3606  0.8165 -1.5097
  693MOL0     H93500   6.681   9.662   4.117  0.6507  0.0307 -4.1958
  693MOL0     H93501   6.643   9.841   4.097  1.6985  0.5536 -5.2799
  693MOL0     H93502   6.906   9.724   4.030 -0.2413  0.0896 -0.5097
  693MOL0     H93503   6.842   9.881   3.981  2.2769 -0.9906 -1.3516
  693MOL0     H93504   6.838   9.741   3.800  1.4191  2.3861  2.7600
  693MOL0     H93505   6.777   9.602   3.883  2.9811  0.9314  2.2121
  693MOL0     H93506   6.602   9.954   3.895  2.0576 -1.8298  2.8815
  693MOL0     H93507   6.240   9.908   3.744  0.6647 -2.1663 -1.8897
  693MOL0     H93508   6.342  10.030   3.813  0.5124  2.0552 -2.0804
  693MOL0     H93509   6.301  10.100   3.589  3.3940  2.5010 -0.4581
  693MOL0     H93510   6.474  10.042   3.605  1.8135 -3.1680  0.4406
  693MOL0     H93511   6.251   9.890   3.494  0.4070  0.7151 -3.3598
  693MOL0     H93512   6.433   9.844   3.483 -1.1094 -2.4549 -1.9668
  693MOL0     H93513   6.304  10.064   3.320 -0.2943  0.2002  0.0223
  693MOL0     H93514   6.357   9.904   3.265 -0.6021  2.6151 -1.7834
  693MOL0     H93515   6.377  10.147   3.090 -0.3318  1.8326  1.3129
  693MOL0     H93516   6.490  10.314   2.983 -0.4779 -0.7353  1.1524
  693MOL0     H93517   6.865  10.662   3.121  0.5744 -5.3220  0.2655
  693MOL0     H93518   6.972  10.871   3.046 -0.5821  0.7301 -1.3649
  693MOL0     H93519   6.973  10.982   2.832 -0.2562  1.8934 -0.9360
  693MOL0     H93520   7.101  11.083   2.888 -1.1850 -0.1498  0.9150
  693MOL0     H93521   7.205  11.030   2.669 -0.1116  0.8439 -0.5031
  693MOL0     H93522   7.040  10.980   2.613 -1.0802  0.7285 -0.2933
  693MOL0     H93523   6.962  11.204   2.738 -2.8153 -0.3175 -3.1718
  693MOL0     H93524   7.120  11.253   2.690 -1.6344  2.2074 -1.0265
  693MOL0     H93525   6.878  11.170   2.515 -0.0408  0.6723  3.3850
  693MOL0     H93526   7.040  11.166   2.443  0.7972 -1.1100  1.2078
  693MOL0     H93527   7.021  11.419   2.571 -0.5084 -0.3415  1.7942
  693MOL0     H93528   6.854  11.381   2.532 -0.5423 -0.2925 -0.7566
  693MOL0     H93529   7.059  11.486   2.346  0.9099 -0.2085  0.8831
  693MOL0     H93530   7.023  11.313   2.302  0.2879  1.2499 -3.5406
  693MOL0     H93531   6.806  11.525   2.331 -0.7445 -0.0583 -2.0204
  693MOL0     H93532   6.777  11.359   2.304 -1.3838  2.4136  0.1639
  693MOL0     H93533   6.795  11.506   2.097 -2.5535 -1.1211  0.8866
  693MOL0     H93534   6.969  11.513   2.130  2.1757 -1.8973  0.5526
  693MOL0     H93535   7.136  10.648   2.710 -1.3593  4.0254 -0.6504
  693MOL0     H93536   7.035  10.442   2.801 -0.5207 -0.3805 -0.0792
  693MOL0     H93537   6.856  10.256   3.194  0.2167  0.0927  3.1401
  693MOL0     H93538   6.747  10.095   3.331  0.5304 -3.1102 -1.4551
  693MOL0     H93539   6.562   9.371   4.713 -0.0712 -1.9714 -1.4536
  693MOL0     H93540   6.374   9.218   4.704  3.6332  0.4554  3.6203
  693MOL0     H93541   5.902   9.103   4.855 -2.0139  0.1422 -0.4921
  693MOL0     H93542   5.807   8.898   4.827 -0.0831  1.2016 -1.0740
  693MOL0     H93543   5.757   8.649   4.453 -0.6647  1.2793  0.5780
  693MOL0     H93544   5.707   8.592   4.601  0.7087 -1.5744 -0.8636
  693MOL0     H93545   5.958   8.670   4.666 -1.4170  3.8995 -0.5049
  693MOL0     H93546   5.987   8.699   4.495 -3.2307  1.8733  0.3192
  693MOL0     H93547   5.987   8.466   4.439 -1.4698  0.5126  0.0457
  693MOL0     H93548   5.886   8.423   4.574  1.0494 -2.2226 -2.0628
  693MOL0     H93549   6.163   8.540   4.617 -0.5443  1.5040 -0.9473
  693MOL0     H93550   6.055   8.477   4.732  1.2748  5.0630 -1.1965
  693MOL0     H93551   6.269   8.148   4.541 -3.3890 -2.2781 -2.1767
  693MOL0     H93552   5.861   8.911   4.401 -1.4798  1.2089 -0.1841
  693MOL0     H93553   5.989   9.058   4.291  2.3199 -0.2654 -0.2483
  693MOL0     H93554   5.937   9.210   4.346 -0.3006 -0.8428 -1.8617
  693MOL0     H93555   6.104   9.158   4.385 -1.1862  4.4816  0.7683
  694MOL0     O93556   9.260  10.645  10.380 -0.6601  0.3829 -0.6377
  694MOL0     C93557   9.139  10.609  10.376 -0.2982  0.5963 -0.3558
  694MOL0     O93558   9.054  10.649  10.281 -0.3437 -0.3251 -0.0525
  694MOL0     C93559   9.106  10.736  10.183  0.5486  0.2448 -0.6053
  694MOL0     C93560   9.110  10.875  10.214  0.7077  0.1973 -0.4135
  694MOL0     C93561   9.149  10.968  10.119 -0.4387 -0.1437  0.4042
  694MOL0     C93562   9.186  10.922   9.989 -0.5675 -0.0608 -0.4593
  694MOL0     O93563   9.243  11.023   9.920  0.1646  0.2189 -0.1468
  694MOL0     C93564   9.281  10.998   9.787  0.8744  0.8330 -0.0318
  694MOL0     C93565   9.417  10.922   9.775  0.0195  0.3799  0.5879
  694MOL0     C93566   9.463  10.903   9.628  0.4954 -0.1099  0.6006
  694MOL0     C93567   9.557  11.016   9.573  0.5951 -0.0851 -0.2122
  694MOL0     C93568   9.607  10.987   9.426  0.1295  0.2136 -0.4665
  694MOL0     C93569   9.689  11.118   9.397 -0.0234  0.2957 -0.3973
  694MOL0     C93570   9.696  11.114   9.243 -0.3569  0.2120 -0.6952
  694MOL0     C93571   9.749  11.238   9.165 -0.2536  1.2337  0.6716
  694MOL0     N93572   9.670  11.361   9.187  0.1869 -0.2986  0.1593
  694MOL0     C93573   9.686  11.457   9.279  0.0879 -0.4026  0.6951
  694MOL0     C93574   9.578  11.529   9.272  0.3145  1.1721  0.1147
  694MOL0     C93575   9.544  11.625   9.379 -0.1890 -0.5586 -0.6914
  694MOL0     C93576   9.459  11.570   9.487  0.6411 -0.2833  0.3736
  694MOL0     C93577   9.314  11.539   9.443  0.0138  0.3825 -0.0950
  694MOL0     C93578   9.252  11.671   9.413  0.5704 -0.1930  0.4319
  694MOL0     O93579   9.115  11.649   9.421 -0.5350  0.1151  0.6940
  694MOL0     C93580   9.040  11.728   9.336 -0.2086  0.1054  0.0926
  694MOL0     C93581   8.911  11.671   9.313  1.0092 -0.2646  0.1081
  694MOL0     C93582   8.819  11.719   9.226 -0.2669  0.3289 -1.0745
  694MOL0     C93583   8.855  11.837   9.161 -0.0016  0.3711  0.6140
  694MOL0     C93584   8.771  11.890   9.048 -0.3065 -0.4538 -0.0613
  694MOL0     O93585   8.803  12.026   9.022  0.1744 -0.0699  0.3457
  694MOL0     C93586   8.718  12.129   8.976 -0.8799  0.2101  0.1107
  694MOL0     C93587   8.773  12.255   8.979 -0.3147  0.4052 -0.0365
  694MOL0     C93588   8.704  12.371   8.927 -0.1601  0.7166 -0.4335
  694MOL0     C93589   8.570  12.361   8.874 -0.6626  0.1019 -0.9937
  694MOL0     O93590   8.502  12.481   8.846  0.3235 -0.0671 -0.2752
  694MOL0     C93591   8.382  12.483   8.763  0.3734 -0.3998  0.0405
  694MOL0     C93592   8.356  12.631   8.733 -0.4360 -0.5571 -0.4418
  694MOL0     C93593   8.212  12.664   8.709 -0.0543  0.5218 -0.0153
  694MOL0     C93594   8.171  12.811   8.732 -0.1835  0.1321 -0.9951
  694MOL0     C93595   8.259  12.918   8.655 -1.1361  0.1541 -0.1003
  694MOL0     C93596   8.211  13.066   8.656  0.0818 -0.5008  0.4231
  694MOL0     C93597   8.156  13.139   8.780 -0.3990 -0.5902  0.9835
  694MOL0     C93598   8.267  13.136   8.885  0.8418  0.3051  0.6672
  694MOL0    Cl93599   8.200  13.237   9.028 -0.3406  0.2282  0.0310
  694MOL0     C93600   8.505  12.239   8.898 -0.6253 -0.3416  0.5698
  694MOL0     C93601   8.579  12.120   8.939  0.0630 -0.4819  0.0762
  694MOL0     O93602   8.680  11.824   8.991 -0.6494 -0.6297  0.8701
  694MOL0     C93603   8.982  11.891   9.170 -0.5904 -0.5487 -0.1255
  694MOL0     C93604   9.078  11.831   9.255  0.0271  0.7592  0.2871
  694MOL0     N93605   9.496  11.485   9.167 -0.6038  0.1850 -1.2027
  694MOL0     N93606   9.551  11.377   9.116 -0.3077 -0.5231 -0.5766
  694MOL0     C93607   9.169  10.787   9.952 -0.2540 -0.4249 -0.4314
  694MOL0     C93608   9.126  10.697  10.054  0.0035 -0.6126  0.6073
  694MOL0     C93609   9.088  10.535  10.489  0.8581  0.8050  0.6558
  694MOL0     C93610   8.950  10.510  10.476  0.0622 -0.2683 -0.7709
  694MOL0     C93611   8.884  10.446  10.586 -0.7078 -0.0213 -0.5992
  694MOL0     C93612   8.958  10.397  10.699 -0.1686 -0.8477 -0.8353
  694MOL0     O93613   8.907  10.314  10.797  0.1394  0.2573 -0.1942
  694MOL0     C93614   8.767  10.287  10.817  0.9390 -1.0795  0.0776
  694MOL0     C93615   8.754  10.218  10.947 -0.3201  0.2311 -0.3276
  694MOL0     C93616   8.779  10.314  11.057  0.3707  0.5672 -0.2660
  694MOL0     C93617   8.765  10.241  11.188  0.5318  0.9234  0.4590
  694MOL0     C93618   8.772  10.353  11.282  0.0346 -0.3261  1.2958
  694MOL0     C93619   8.755  10.449  11.353  0.1622  0.0409 -0.5524
  694MOL0     C93620   9.097  10.419  10.709  0.0198 -0.6398  0.7815
  694MOL0     C93621   9.165  10.484  10.605  0.7157  0.8499 -0.4740
  694MOL0     C93622   9.314  10.484  10.605  0.0736 -0.7718 -0.2058
  694MOL0     H93623   9.087  10.904  10.316 -0.0984  0.4541 -0.6622
  694MOL0     H93624   9.151  11.074  10.141  0.4309  1.5086 -5.6751
  694MOL0     H93625   9.208  10.944   9.727  2.8826 -1.0048 -0.9519
  694MOL0     H93626   9.280  11.098   9.744  4.4319  1.1364  0.2757
  694MOL0     H93627   9.417  10.822   9.820  0.4671 -0.3547 -0.9773
  694MOL0     H93628   9.492  10.981   9.827 -0.7957  0.9557  1.1429
  694MOL0     H93629   9.372  10.887   9.570 -0.1866 -1.2076  1.9152
  694MOL0     H93630   9.499  10.800   9.620  1.1024  0.2218 -1.8552
  694MOL0     H93631   9.513  11.116   9.576 -0.1693 -0.4386  1.5156
  694MOL0     H93632   9.644  11.027   9.638 -0.1280 -2.7655  1.3566
  694MOL0     H93633   9.666  10.895   9.414  1.4281  0.9315  0.1770
  694MOL0     H93634   9.519  10.972   9.363  0.8984  0.6601 -1.6770
  694MOL0     H93635   9.635  11.209   9.424 -0.9895  0.5700 -2.9915
  694MOL0     H93636   9.787  11.117   9.445 -1.1541 -2.3059  2.1473
  694MOL0     H93637   9.597  11.092   9.204 -1.4635 -1.7960  2.8260
  694MOL0     H93638   9.756  11.023   9.231 -1.3726 -0.4745 -0.6189
  694MOL0     H93639   9.857  11.246   9.181  0.8488 -5.5442 -0.4026
  694MOL0     H93640   9.732  11.215   9.059  1.0270  0.6951  0.5648
  694MOL0     H93641   9.767  11.479   9.348 -0.5110  1.2239  0.9091
  694MOL0     H93642   9.628  11.685   9.416 -2.6198  2.7858 -0.1336
  694MOL0     H93643   9.490  11.699   9.319 -2.0286 -1.1707  0.1577
  694MOL0     H93644   9.491  11.470   9.518 -1.2389 -1.9189 -2.5216
  694MOL0     H93645   9.463  11.637   9.573 -1.8555 -0.6874  0.8785
  694MOL0     H93646   9.250  11.511   9.527 -0.8900 -0.9937 -1.1887
  694MOL0     H93647   9.310  11.467   9.361 -1.1649  1.0818 -0.6782
  694MOL0     H93648   9.280  11.701   9.312  2.7677  2.4475  1.6873
  694MOL0     H93649   9.286  11.756   9.473  1.1198  1.0152 -1.4828
  694MOL0     H93650   8.879  11.595   9.383  1.0791 -2.5844 -2.2113
  694MOL0     H93651   8.718  11.681   9.219  1.0759 -4.2209  0.3540
  694MOL0     H93652   8.878  12.269   9.006 -0.3969  3.1580 -0.8551
  694MOL0     H93653   8.745  12.472   8.931 -1.9545  1.4901 -0.4409
  694MOL0     H93654   8.394  12.421   8.674  2.5384  1.2615 -0.9220
  694MOL0     H93655   8.300  12.448   8.825  1.4154  2.1544  3.1340
  694MOL0     H93656   8.391  12.693   8.817 -0.3078  0.3938 -1.1810
  694MOL0     H93657   8.417  12.664   8.649 -0.5902  0.9451 -0.0089
  694MOL0     H93658   8.189  12.633   8.606  0.9531  0.5786 -0.2703
  694MOL0     H93659   8.151  12.604   8.778  1.7449  1.7496  2.8133
  694MOL0     H93660   8.170  12.837   8.838 -4.1223  0.1437 -0.9033
  694MOL0     H93661   8.067  12.821   8.700 -0.5583  1.2972  0.4371
  694MOL0     H93662   8.267  12.875   8.554  0.3324 -0.2271  0.1529
  694MOL0     H93663   8.362  12.918   8.691 -1.0502  1.3022 -0.2838
  694MOL0     H93664   8.291  13.129   8.617  2.5110 -5.1211 -3.1275
  694MOL0     H93665   8.128  13.070   8.585  0.6192  1.0213 -0.1411
  694MOL0     H93666   8.067  13.079   8.804 -3.2044  2.3254 -1.2321
  694MOL0     H93667   8.117  13.236   8.749 -2.2977 -2.4094 -3.0647
  694MOL0     H93668   8.285  13.032   8.911  0.1772 -1.1154 -3.7407
  694MOL0     H93669   8.362  13.171   8.845  0.9946  0.4439  1.1460
  694MOL0     H93670   8.399  12.220   8.885 -0.8587 -2.3609  4.0512
  694MOL0     H93671   8.517  12.032   8.943 -0.3736 -0.1919 -0.2341
  694MOL0     H93672   9.020  11.971   9.107 -3.5191  0.3171 -0.9194
  694MOL0     H93673   9.176  11.876   9.263 -0.8902  2.8684  0.2129
  694MOL0     H93674   9.193  10.751   9.852 -0.6013  0.0153 -0.6734
  694MOL0     H93675   9.114  10.592  10.029  0.0344 -0.2100 -1.2174
  694MOL0     H93676   8.891  10.553  10.396  0.6172  0.5672 -0.7455
  694MOL0     H93677   8.778  10.463  10.601 -0.3113  1.9389  0.1911
  694MOL0     H93678   8.723  10.212  10.751  0.3531 -0.6650 -0.0090
  694MOL0     H93679   8.712  10.380  10.800  1.6279 -0.6620  0.1002
  694MOL0     H93680   8.827  10.136  10.951  3.6785  3.4472 -0.7448
  694MOL0     H93681   8.657  10.167  10.950  1.4614 -3.5391 -0.7817
  694MOL0     H93682   8.702  10.389  11.041  0.8841  0.8324 -1.5787
  694MOL0     H93683   8.868  10.377  11.055  1.5002 -0.9733 -1.1319
  694MOL0     H93684   8.671  10.192  11.213  1.7267 -1.1725  1.1049
  694MOL0     H93685   8.848  10.171  11.202 -0.7718 -0.3293  2.3032
  694MOL0     H93686   8.745  10.536  11.415  2.1908 -0.7059  0.9376
  694MOL0     H93687   9.142  10.380  10.800 -3.1552 -1.1165  2.2978
  694MOL0     H93688   9.357  10.410  10.673 -0.8184 -1.5624 -0.4757
  694MOL0     H93689   9.363  10.451  10.513  3.3186 -0.2411  1.1858
  694MOL0     H93690   9.349  10.584  10.631 -2.0282 -0.4081  1.5311
  695MOL0     O93691   8.446   5.197   9.141 -0.4360 -0.1285 -0.5777
  695MOL0     C93692   8.341   5.259   9.157  0.3385  0.0610 -0.1345
  695MOL0     O93693   8.285   5.348   9.069  0.7022  0.8533  0.0032
  695MOL0     C93694   8.334   5.352   8.943  0.9176 -0.2134 -0.3916
  695MOL0     C93695   8.352   5.470   8.872  0.1360  0.4369 -0.9615
  695MOL0     C93696   8.411   5.489   8.744 -0.1192  0.2361 -1.1579
  695MOL0     C93697   8.447   5.377   8.666  0.1790 -0.3923 -0.7815
  695MOL0     O93698   8.484   5.406   8.541  1.1733  1.1235  0.5640
  695MOL0     C93699   8.449   5.313   8.437 -1.1758 -0.6189  0.4990
  695MOL0     C93700   8.522   5.360   8.304 -0.6199  0.2605 -0.5078
  695MOL0     C93701   8.515   5.508   8.271  0.4271 -0.2764 -0.5376
  695MOL0     C93702   8.383   5.569   8.308  0.4841  0.1177 -0.4943
  695MOL0     C93703   8.361   5.714   8.269 -0.3319 -0.6853  0.7774
  695MOL0     C93704   8.401   5.811   8.384 -0.2684 -0.2423  1.0830
  695MOL0     C93705   8.368   5.948   8.323  0.8233  0.4538  0.4822
  695MOL0     C93706   8.222   5.989   8.353 -0.6449  0.4000  0.0624
  695MOL0     N93707   8.196   6.129   8.331 -0.6134 -0.0060  0.8706
  695MOL0     C93708   8.147   6.218   8.422 -0.4190 -0.3502 -0.4800
  695MOL0     C93709   8.151   6.343   8.367 -1.0743  0.4123  0.6406
  695MOL0     C93710   8.126   6.474   8.436  0.0434  0.9884  0.2129
  695MOL0     C93711   8.196   6.596   8.364 -0.1940 -0.5592  0.4673
  695MOL0     C93712   8.185   6.717   8.464  0.4649 -0.1010  0.9659
  695MOL0     C93713   8.288   6.831   8.422 -0.4865 -0.1780 -0.2081
  695MOL0     O93714   8.261   6.890   8.293  0.6116  0.4947 -0.5189
  695MOL0     C93715   8.364   6.912   8.203 -0.4263 -0.1621 -0.5467
  695MOL0     C93716   8.329   7.018   8.115 -0.1435 -0.0063 -0.3819
  695MOL0     C93717   8.419   7.058   8.020 -0.3804 -0.9988 -0.2757
  695MOL0     C93718   8.533   6.985   7.987  0.0342  0.9329 -0.4910
  695MOL0     C93719   8.621   7.043   7.880 -0.3605 -0.1431  0.8904
  695MOL0     O93720   8.562   7.126   7.798  0.3334 -0.1159  0.2682
  695MOL0     C93721   8.633   7.210   7.705  0.2545 -1.0769  0.0436
  695MOL0     C93722   8.576   7.245   7.586  0.1799 -0.5947  0.1702
  695MOL0     C93723   8.623   7.346   7.503 -1.0311  0.1336 -0.2950
  695MOL0     C93724   8.742   7.418   7.541  0.3913 -0.1572 -0.3408
  695MOL0     O93725   8.820   7.503   7.478  0.4910 -1.0216 -0.7900
  695MOL0     C93726   8.794   7.527   7.340 -0.0003  0.1305  0.9776
  695MOL0     C93727   8.858   7.660   7.299 -0.1194  0.5664  0.6434
  695MOL0     C93728   8.815   7.689   7.154 -0.2131 -0.1606  0.6619
  695MOL0     C93729   8.885   7.813   7.084  0.4321 -0.0475 -0.0221
  695MOL0     C93730   8.840   7.949   7.140 -0.9069  1.0339  0.0355
  695MOL0     C93731   8.942   8.055   7.102 -0.0555 -0.5273 -0.0545
  695MOL0     C93732   8.927   8.092   6.959  0.5096  0.8289 -0.1187
  695MOL0     C93733   8.997   8.222   6.926 -0.1819  0.0894  0.2824
  695MOL0    Cl93734   9.168   8.235   6.967  0.0943 -0.1390 -0.4786
  695MOL0     C93735   8.784   7.390   7.672  0.0715 -0.5407 -0.5050
  695MOL0     C93736   8.737   7.287   7.749 -0.7635 -0.0654 -0.1010
  695MOL0     O93737   8.741   7.012   7.876 -0.2110  0.3877  0.6416
  695MOL0     C93738   8.556   6.874   8.067  0.6288 -0.1786 -1.8021
  695MOL0     C93739   8.483   6.839   8.175  0.7326  0.0357  0.8741
  695MOL0     N93740   8.199   6.326   8.235  0.2406 -0.3561 -0.2573
  695MOL0     N93741   8.225   6.201   8.213  0.0669  0.5808  0.1261
  695MOL0     C93742   8.422   5.246   8.727 -0.7976 -0.2012  0.7631
  695MOL0     C93743   8.371   5.231   8.861  0.0792  0.1240  0.1072
  695MOL0     C93744   8.285   5.245   9.298 -0.4115 -0.0755  0.4482
  695MOL0     C93745   8.337   5.316   9.399  0.1700  0.3594 -0.1970
  695MOL0     C93746   8.290   5.299   9.532  0.4566  0.4612  0.4808
  695MOL0     C93747   8.180   5.209   9.555  0.2951 -0.0527 -0.0161
  695MOL0     O93748   8.111   5.194   9.681 -0.2809 -1.0093 -0.3859
  695MOL0     C93749   8.167   5.264   9.796 -0.2083  0.5989  0.1266
  695MOL0     C93750   8.051   5.271   9.902  0.0047 -0.1401 -0.0674
  695MOL0     C93751   8.111   5.320  10.035 -1.3505 -0.4364  0.5030
  695MOL0     C93752   8.015   5.329  10.154 -0.1124 -0.6065  0.3717
  695MOL0     C93753   8.023   5.208  10.244 -0.6435 -0.4811 -0.9557
  695MOL0     C93754   8.039   5.111  10.319  0.4294 -0.2623 -0.5523
  695MOL0     C93755   8.124   5.151   9.443  0.3286 -0.2911  0.7634
  695MOL0     C93756   8.166   5.168   9.317 -0.5261 -0.9924  0.8404
  695MOL0     C93757   8.091   5.112   9.196 -0.8014  0.8863  0.0674
  695MOL0     H93758   8.338   5.558   8.935  1.4170  0.9699 -1.3759
  695MOL0     H93759   8.437   5.592   8.722 -1.5310  0.3722 -2.3286
  695MOL0     H93760   8.494   5.215   8.455  2.2897  0.3330 -1.9536
  695MOL0     H93761   8.342   5.295   8.425 -0.7653 -3.5287  0.3909
  695MOL0     H93762   8.474   5.306   8.222 -0.0168 -0.9992 -0.0622
  695MOL0     H93763   8.628   5.335   8.316 -0.1955  1.2224 -2.0003
  695MOL0     H93764   8.527   5.526   8.164 -3.6154 -1.5165 -1.3744
  695MOL0     H93765   8.594   5.565   8.321  1.2672 -0.2565 -1.8450
  695MOL0     H93766   8.307   5.519   8.247  2.7044  0.9741 -4.3749
  695MOL0     H93767   8.355   5.564   8.413  2.3655  1.6986  0.1444
  695MOL0     H93768   8.429   5.737   8.187 -1.3814 -1.1851 -0.2568
  695MOL0     H93769   8.261   5.728   8.228  1.1202 -1.3583 -3.4833
  695MOL0     H93770   8.347   5.794   8.477 -0.1305  1.7037  1.5668
  695MOL0     H93771   8.508   5.799   8.405  0.6767 -0.5421 -3.0107
  695MOL0     H93772   8.392   5.952   8.217  2.3269  1.7388  0.8363
  695MOL0     H93773   8.439   6.018   8.367 -0.1329 -0.3127  3.5300
  695MOL0     H93774   8.158   5.921   8.297  2.1184 -0.9742 -1.6207
  695MOL0     H93775   8.201   5.976   8.460 -4.2790  0.2545 -0.5323
  695MOL0     H93776   8.125   6.200   8.527 -0.2408  0.8490 -0.2274
  695MOL0     H93777   8.018   6.486   8.448 -0.8237 -3.9041 -0.7514
  695MOL0     H93778   8.171   6.469   8.536  2.3501 -1.6317 -0.8231
  695MOL0     H93779   8.303   6.580   8.353  0.0034 -0.7674  2.4294
  695MOL0     H93780   8.146   6.614   8.268  1.8664  0.9819 -0.3847
  695MOL0     H93781   8.209   6.684   8.566  2.5243  2.5814  1.4867
  695MOL0     H93782   8.088   6.767   8.464  0.8160  0.6977 -1.3185
  695MOL0     H93783   8.389   6.790   8.409  0.7360  2.7226 -0.5582
  695MOL0     H93784   8.290   6.908   8.499 -1.1519 -1.1588  0.8202
  695MOL0     H93785   8.235   7.067   8.136  0.3082  1.4093 -1.5395
  695MOL0     H93786   8.387   7.145   7.964  1.4108  2.1479  3.1179
  695MOL0     H93787   8.486   7.193   7.553  0.8635 -1.0974 -0.9492
  695MOL0     H93788   8.583   7.360   7.404 -0.8816 -2.8304 -0.8698
  695MOL0     H93789   8.846   7.454   7.278  0.8784  1.4480  0.0985
  695MOL0     H93790   8.685   7.538   7.328 -0.4963 -2.6929  2.1839
  695MOL0     H93791   8.810   7.729   7.369 -2.3847  0.2311 -0.5012
  695MOL0     H93792   8.966   7.658   7.319 -0.0067 -1.1107 -0.0096
  695MOL0     H93793   8.850   7.605   7.094 -4.3285 -0.7971 -1.1874
  695MOL0     H93794   8.707   7.688   7.139 -0.1669  0.0283  0.2984
  695MOL0     H93795   8.852   7.810   6.980 -2.0981  0.7373  0.6838
  695MOL0     H93796   8.993   7.808   7.074  0.2601 -0.3417 -2.0197
  695MOL0     H93797   8.831   7.944   7.249  0.4850 -3.4535  0.1425
  695MOL0     H93798   8.740   7.971   7.101 -0.1904  0.8367 -2.0465
  695MOL0     H93799   8.919   8.143   7.163  2.9488  0.9124 -0.7769
  695MOL0     H93800   9.047   8.038   7.129  0.5165  4.0273  1.6169
  695MOL0     H93801   8.819   8.092   6.938  0.3053 -4.4101 -0.5433
  695MOL0     H93802   8.963   8.013   6.893  0.2190  1.9254 -1.6352
  695MOL0     H93803   8.996   8.256   6.822  3.2166  1.1048  0.4548
  695MOL0     H93804   8.946   8.294   6.990  0.0157  1.8342 -1.4380
  695MOL0     H93805   8.867   7.450   7.707 -0.7935 -0.3112  1.2628
  695MOL0     H93806   8.783   7.281   7.847  2.5911  0.8899 -1.4579
  695MOL0     H93807   8.648   6.824   8.040  0.5936 -0.0916 -2.0836
  695MOL0     H93808   8.515   6.754   8.234  3.0332  0.0965 -0.2054
  695MOL0     H93809   8.438   5.155   8.669  3.0308  1.0929 -0.5271
  695MOL0     H93810   8.358   5.132   8.904  1.2965 -1.0739 -2.1000
  695MOL0     H93811   8.415   5.387   9.373 -1.0003  1.2998 -1.2178
  695MOL0     H93812   8.341   5.339   9.618  2.8157 -0.5760 -0.3510
  695MOL0     H93813   8.195   5.369   9.785 -0.3292  0.4543 -1.9082
  695MOL0     H93814   8.259   5.223   9.841  0.2903  0.8949 -0.6110
  695MOL0     H93815   8.011   5.171   9.919  0.0142 -0.5436 -2.1958
  695MOL0     H93816   7.980   5.351   9.877 -1.1461 -0.4186  2.1019
  695MOL0     H93817   8.142   5.420  10.005 -0.1261 -0.7036  0.8411
  695MOL0     H93818   8.205   5.265  10.046  1.1612  2.4849 -3.6276
  695MOL0     H93819   8.018   5.425  10.206 -0.1935  0.2429 -1.1347
  695MOL0     H93820   7.918   5.320  10.104  0.4619 -0.9999 -0.7068
  695MOL0     H93821   8.062   5.020  10.371 -0.4406 -1.4496 -2.1617
  695MOL0     H93822   8.031   5.097   9.462 -0.7521  1.5445  0.9489
  695MOL0     H93823   8.037   5.020   9.221 -0.3573 -0.4406 -3.2834
  695MOL0     H93824   8.015   5.181   9.159 -3.6282 -1.6589  0.7501
  695MOL0     H93825   8.165   5.091   9.117  0.4181 -1.5148  1.7321
  696MOL0     O93826   9.869   0.782   9.677 -0.4648 -0.7586  0.6997
  696MOL0     C93827   9.923   0.850   9.761  0.2053 -0.9685 -0.0896
  696MOL0     O93828  10.025   0.808   9.843 -0.1168  0.6356  0.1697
  696MOL0     C93829  10.078   0.686   9.830 -1.1285  0.5651 -0.7706
  696MOL0     C93830  10.019   0.571   9.879  0.3153 -0.7173  0.3296
  696MOL0     C93831  10.080   0.440   9.849  0.6323 -0.5259 -0.4794
  696MOL0     C93832  10.188   0.431   9.766  0.2032  0.2600 -0.2936
  696MOL0     O93833  10.247   0.309   9.735  0.4700 -0.3743 -0.3365
  696MOL0     C93834  10.242   0.201   9.838  0.3110 -0.0576  0.1940
  696MOL0     C93835  10.331   0.083   9.799  0.5657  0.0467  0.2077
  696MOL0     C93836  10.273  -0.006   9.682 -0.8056 -1.0687  0.5033
  696MOL0     C93837  10.385  -0.101   9.643  0.1165 -0.2353 -0.0684
  696MOL0     C93838  10.394  -0.220   9.741 -0.4868  0.1908  0.3893
  696MOL0     C93839  10.487  -0.324   9.690 -0.2631  0.3340  0.3176
  696MOL0     C93840  10.468  -0.465   9.754 -0.1810  0.0041 -0.4464
  696MOL0     C93841  10.600  -0.539   9.747  0.1013 -0.2904  1.1159
  696MOL0     N93842  10.598  -0.670   9.812  0.1680 -0.9624 -0.3677
  696MOL0     C93843  10.656  -0.722   9.924 -0.4264  0.3613 -0.2406
  696MOL0     C93844  10.654  -0.859   9.908 -0.4230 -0.3430  0.7709
  696MOL0     C93845  10.686  -0.965  10.000  0.2627 -0.6178  0.3442
  696MOL0     C93846  10.568  -1.028  10.053 -0.2266  0.6636 -0.1350
  696MOL0     C93847  10.593  -1.121  10.170 -0.2897 -0.5389  0.4915
  696MOL0     C93848  10.458  -1.183  10.213  0.0987 -0.2001 -0.4637
  696MOL0     O93849  10.490  -1.270  10.328 -0.7027  0.0276  0.5323
  696MOL0     C93850  10.385  -1.338  10.392 -0.6429 -0.5628  0.2823
  696MOL0     C93851  10.274  -1.390  10.323  0.3880 -0.4729 -0.0026
  696MOL0     C93852  10.182  -1.461  10.391  0.2044  0.0367  0.5798
  696MOL0     C93853  10.200  -1.483  10.531  0.0098  0.1513  0.5847
  696MOL0     C93854  10.099  -1.570  10.607  0.2492 -0.0877 -0.6260
  696MOL0     O93855  10.103  -1.566  10.736 -0.1707  1.0371 -0.7188
  696MOL0     C93856  10.044  -1.665  10.804 -0.2516  0.4785 -0.4114
  696MOL0     C93857   9.905  -1.655  10.840 -1.3378 -0.1287  0.6084
  696MOL0     C93858   9.839  -1.759  10.900 -0.0862 -0.3343  1.4941
  696MOL0     C93859   9.909  -1.858  10.954 -0.7979 -0.2603 -0.6223
  696MOL0     O93860   9.864  -1.941  11.048  0.6204  0.5055  0.5624
  696MOL0     C93861   9.732  -1.999  11.030  0.8174  0.4265 -0.4531
  696MOL0     C93862   9.714  -2.084  10.903  0.6670  0.7704  0.1079
  696MOL0     C93863   9.708  -2.010  10.772 -0.1778  0.5651  0.8584
  696MOL0     C93864   9.690  -2.093  10.649 -0.9094 -0.4373 -0.0531
  696MOL0     C93865   9.814  -2.190  10.633 -0.4366  0.2168 -0.5540
  696MOL0     C93866   9.955  -2.120  10.640 -0.2223 -0.1086  0.7933
  696MOL0     C93867   9.977  -2.010  10.529  1.2848  0.4296 -0.6199
  696MOL0     C93868  10.123  -1.972  10.528  1.0935 -0.0539  0.3668
  696MOL0    Cl93869  10.228  -2.100  10.479 -0.1914  0.2420  0.0047
  696MOL0     C93870  10.056  -1.857  10.941 -0.2306  0.7523 -0.3610
  696MOL0     C93871  10.114  -1.758  10.868 -0.9510 -0.3448  0.3849
  696MOL0     O93872  10.029  -1.646  10.538 -0.4351  0.3298 -0.4496
  696MOL0     C93873  10.312  -1.433  10.597  0.8643 -0.2594  0.1833
  696MOL0     C93874  10.405  -1.360  10.524  0.0902  0.0125 -0.4445
  696MOL0     N93875  10.595  -0.886   9.787 -0.7662  0.1328 -0.0940
  696MOL0     N93876  10.555  -0.773   9.740  0.5619  0.4356  0.1384
  696MOL0     C93877  10.247   0.549   9.721  0.8693  0.0416  0.8097
  696MOL0     C93878  10.188   0.671   9.742 -0.3061  0.2230 -0.3251
  696MOL0     C93879   9.884   0.997   9.785  0.0429  1.7690  0.4293
  696MOL0     C93880   9.751   1.017   9.776  0.3348 -0.6886  0.7707
  696MOL0     C93881   9.692   1.143   9.797 -0.7646 -0.2377  0.3768
  696MOL0     C93882   9.775   1.251   9.838 -1.2690 -0.1625  0.8312
  696MOL0     O93883   9.741   1.376   9.885 -0.1757 -0.6189  0.5168
  696MOL0     C93884   9.612   1.427   9.864 -0.4202 -0.7221 -0.2702
  696MOL0     C93885   9.597   1.576   9.926 -0.0250  0.5860 -0.7922
  696MOL0     C93886   9.533   1.670   9.813  0.0188 -0.5351 -0.1417
  696MOL0     C93887   9.459   1.788   9.871  0.3485 -0.0288  0.6678
  696MOL0     C93888   9.419   1.883   9.764  0.0268 -0.2154  0.0020
  696MOL0     C93889   9.402   1.966   9.675 -0.7772 -1.4368 -1.2144
  696MOL0     C93890   9.921   1.227   9.836  1.5038  0.7653  0.1458
  696MOL0     C93891   9.970   1.101   9.808  0.3815  0.3138 -0.3237
  696MOL0     C93892  10.121   1.082   9.840  0.4074  0.0153 -0.6974
  696MOL0     H93893   9.934   0.579   9.946 -0.2961  2.3141 -0.6687
  696MOL0     H93894  10.037   0.354   9.899 -1.2033  0.8837  0.4955
  696MOL0     H93895  10.258   0.240   9.938 -0.3540 -1.7071  0.9747
  696MOL0     H93896  10.137   0.172   9.842  0.0825  0.4567 -1.3828
  696MOL0     H93897  10.347   0.025   9.890 -2.8184 -0.5068  0.5902
  696MOL0     H93898  10.425   0.127   9.764 -0.2202  1.3152 -0.4039
  696MOL0     H93899  10.261   0.053   9.591 -2.6494 -2.7301 -0.4162
  696MOL0     H93900  10.173  -0.044   9.705 -1.0875 -0.1310  0.8628
  696MOL0     H93901  10.349  -0.139   9.547 -2.7504 -0.2194  0.9251
  696MOL0     H93902  10.482  -0.055   9.622  1.0517 -0.6038  3.0409
  696MOL0     H93903  10.446  -0.177   9.827  2.3334  1.7034 -1.8656
  696MOL0     H93904  10.291  -0.254   9.755 -0.7373  0.7873  0.0266
  696MOL0     H93905  10.464  -0.342   9.584 -0.9693 -1.8529  0.7874
  696MOL0     H93906  10.590  -0.290   9.681 -0.7760  1.4230 -2.4998
  696MOL0     H93907  10.390  -0.517   9.697  0.5461  2.1362 -3.7171
  696MOL0     H93908  10.447  -0.459   9.861 -0.2553 -2.1454 -0.3139
  696MOL0     H93909  10.631  -0.558   9.644 -1.4821 -0.0541  0.5563
  696MOL0     H93910  10.680  -0.482   9.794 -1.2426  0.8140  2.1761
  696MOL0     H93911  10.667  -0.657  10.010 -4.0357  0.1706  0.5485
  696MOL0     H93912  10.741  -1.043   9.948 -1.5122 -2.5464  1.2151
  696MOL0     H93913  10.752  -0.920  10.074  0.4674  0.4772 -0.4796
  696MOL0     H93914  10.495  -0.954  10.086 -1.3551 -0.7931  0.7742
  696MOL0     H93915  10.520  -1.101   9.986  0.7896 -3.4049  3.1340
  696MOL0     H93916  10.651  -1.082  10.254 -2.5960  0.7787  1.5545
  696MOL0     H93917  10.653  -1.200  10.122 -1.2653 -2.3314  2.0800
  696MOL0     H93918  10.407  -1.233  10.131 -0.0330  0.4014 -0.7533
  696MOL0     H93919  10.399  -1.098  10.249 -0.1054 -0.2483 -0.6819
  696MOL0     H93920  10.270  -1.382  10.214  2.1261  0.9314  0.0041
  696MOL0     H93921  10.097  -1.513  10.349  0.5125 -2.2346  2.5573
  696MOL0     H93922   9.842  -1.576  10.798  0.2170  1.1021  0.4956
  696MOL0     H93923   9.734  -1.744  10.925 -0.4271  2.0048 -0.8093
  696MOL0     H93924   9.729  -2.059  11.121 -1.0379  0.2690 -0.5779
  696MOL0     H93925   9.655  -1.923  11.045 -0.6629 -1.4346  2.0400
  696MOL0     H93926   9.806  -2.142  10.902  1.6254  2.1936  1.3088
  696MOL0     H93927   9.628  -2.152  10.908  1.9951 -0.9801  0.1558
  696MOL0     H93928   9.633  -1.934  10.796 -0.5809 -0.0969  1.7455
  696MOL0     H93929   9.797  -1.949  10.757 -1.2130  1.5319 -2.0321
  696MOL0     H93930   9.664  -2.025  10.567 -1.8313 -0.5591  0.1253
  696MOL0     H93931   9.599  -2.152  10.658 -0.5946 -1.3029 -1.9595
  696MOL0     H93932   9.801  -2.233  10.533 -2.1646  2.2091 -1.2722
  696MOL0     H93933   9.802  -2.273  10.703 -1.5059 -2.2337 -3.4461
  696MOL0     H93934   9.963  -2.069  10.736  3.3376  1.9448 -0.4014
  696MOL0     H93935  10.028  -2.201  10.640 -1.4824 -1.2796  0.7536
  696MOL0     H93936   9.912  -1.922  10.534  0.6075 -0.0160  4.9906
  696MOL0     H93937   9.960  -2.069  10.438 -0.9720 -2.3828  1.4132
  696MOL0     H93938  10.138  -1.892  10.455 -0.2890  0.0439  0.1574
  696MOL0     H93939  10.153  -1.938  10.628  1.2296  1.0359 -0.0329
  696MOL0     H93940  10.109  -1.940  10.986 -0.6020  1.4329  1.4086
  696MOL0     H93941  10.223  -1.763  10.862 -0.9186 -2.6535  1.6353
  696MOL0     H93942  10.331  -1.464  10.699 -0.9370 -2.0605  0.0290
  696MOL0     H93943  10.491  -1.309  10.565  0.7156 -0.0095 -1.6857
  696MOL0     H93944  10.338   0.541   9.663 -0.3437 -0.5744 -1.1135
  696MOL0     H93945  10.221   0.765   9.698 -2.2185  2.8145  3.2410
  696MOL0     H93946   9.685   0.932   9.757  1.3172 -1.6464  1.5222
  696MOL0     H93947   9.585   1.161   9.795 -0.4184  2.1279  0.5302
  696MOL0     H93948   9.533   1.372   9.916 -1.4501  3.6168  3.4204
  696MOL0     H93949   9.586   1.434   9.758 -1.6913  1.8790  0.1466
  696MOL0     H93950   9.689   1.628   9.952 -0.4635  0.0740  2.1145
  696MOL0     H93951   9.528   1.575  10.010 -1.1452  0.6475 -1.6871
  696MOL0     H93952   9.459   1.616   9.754  2.4276 -2.4019 -1.6322
  696MOL0     H93953   9.615   1.701   9.747 -1.1709  2.6072 -0.3343
  696MOL0     H93954   9.371   1.767   9.933 -0.4686  2.6014  0.5268
  696MOL0     H93955   9.524   1.830   9.948  0.2464  1.6608 -0.1057
  696MOL0     H93956   9.417   2.050   9.609  2.3019  2.0448  3.2822
  696MOL0     H93957   9.974   1.317   9.864  1.0855  1.7596 -2.0685
  696MOL0     H93958  10.185   1.040   9.762  1.1973  1.2948 -0.7864
  696MOL0     H93959  10.164   1.181   9.858  0.7895 -0.8635  4.8206
  696MOL0     H93960  10.141   1.036   9.937  1.0922  2.6292  0.5035
  697MOL0     O93961   1.645   8.172   9.578 -0.5759  0.5894  0.8524
  697MOL0     C93962   1.538   8.132   9.628 -0.3010 -0.6979 -0.2298
  697MOL0     O93963   1.412   8.146   9.578 -1.2938  0.6070  0.1550
  697MOL0     C93964   1.388   8.209   9.460  0.3354  0.9364 -0.2779
  697MOL0     C93965   1.468   8.201   9.341 -0.7295  0.4342 -0.6611
  697MOL0     C93966   1.427   8.254   9.218  0.4713  0.4145  0.5569
  697MOL0     C93967   1.297   8.311   9.204 -0.5729  0.8680  0.3273
  697MOL0     O93968   1.264   8.355   9.082  0.4043 -0.6579  0.2653
  697MOL0     C93969   1.223   8.488   9.075 -0.2858  0.8078 -0.1403
  697MOL0     C93970   1.307   8.542   8.958 -0.4027  0.1852  0.4910
  697MOL0     C93971   1.449   8.576   8.990  0.5327  0.8387 -0.7328
  697MOL0     C93972   1.531   8.639   8.874  0.4736  1.2836  0.2061
  697MOL0     C93973   1.675   8.675   8.922  0.2883 -0.1545 -0.0673
  697MOL0     C93974   1.770   8.557   8.955 -0.1990 -0.5256  0.3267
  697MOL0     C93975   1.797   8.470   8.822  0.4083  0.5948 -1.0556
  697MOL0     C93976   1.747   8.324   8.825  0.0563 -0.1155 -0.1145
  697MOL0     N93977   1.794   8.220   8.923  0.2337  0.2316 -0.5356
  697MOL0     C93978   1.858   8.246   9.039 -0.2638  0.0949 -1.2465
  697MOL0     C93979   1.848   8.128   9.105  0.3573  0.0411  1.3485
  697MOL0     C93980   1.920   8.111   9.232  0.6097  0.7282  0.1555
  697MOL0     C93981   1.979   7.971   9.257 -0.9479  0.0326  0.0380
  697MOL0     C93982   2.050   7.961   9.394 -0.9058  0.3645 -0.8029
  697MOL0     C93983   2.065   7.821   9.433 -0.3378  0.5770  0.0700
  697MOL0     O93984   2.128   7.745   9.324  0.1181 -0.1196  0.6973
  697MOL0     C93985   2.135   7.611   9.330  0.6677  0.3411  0.0819
  697MOL0     C93986   2.089   7.535   9.435 -0.0412 -0.6381 -0.3597
  697MOL0     C93987   2.091   7.396   9.424  0.6933  0.0198 -0.2770
  697MOL0     C93988   2.135   7.331   9.315 -0.4536 -0.5533  0.0633
  697MOL0     C93989   2.130   7.188   9.301  0.5545 -0.9173 -0.3181
  697MOL0     O93990   2.095   7.117   9.411 -0.1766 -0.0178 -0.6914
  697MOL0     C93991   2.040   6.987   9.413  1.0211 -0.3027 -0.2504
  697MOL0     C93992   2.077   6.902   9.510  0.0325  1.0569 -1.0809
  697MOL0     C93993   2.021   6.779   9.520  0.2232 -0.7285  0.0903
  697MOL0     C93994   1.936   6.730   9.427 -0.4476 -1.1561 -0.1388
  697MOL0     O93995   1.926   6.593   9.424  0.0515 -0.2489  0.2294
  697MOL0     C93996   1.803   6.541   9.396 -0.1590  0.2858  0.3779
  697MOL0     C93997   1.825   6.391   9.389 -0.2674 -0.0700 -0.3281
  697MOL0     C93998   1.820   6.347   9.536 -0.0847  0.3447 -0.1544
  697MOL0     C93999   1.855   6.198   9.530 -0.1132  0.6817 -0.4250
  697MOL0     C94000   1.860   6.127   9.671  0.2576  0.4936 -0.2689
  697MOL0     C94001   1.719   6.094   9.738 -0.3464  0.0949 -0.5724
  697MOL0     C94002   1.754   5.987   9.845 -0.1205 -0.2072  0.2317
  697MOL0     C94003   1.637   5.951   9.927 -0.3467 -0.8508 -0.5141
  697MOL0    Cl94004   1.673   5.803  10.026 -0.0193  0.1893 -0.0079
  697MOL0     C94005   1.895   6.814   9.321  0.4140 -1.2721 -0.5132
  697MOL0     C94006   1.943   6.953   9.320  1.0626  0.5186 -1.2489
  697MOL0     O94007   2.152   7.139   9.192  0.6856 -0.4186 -0.1339
  697MOL0     C94008   2.203   7.402   9.220  0.6415 -0.8019  0.3293
  697MOL0     C94009   2.194   7.545   9.224 -0.7731 -0.2219  0.2866
  697MOL0     N94010   1.776   8.029   9.037  0.4782  0.0460 -0.9468
  697MOL0     N94011   1.740   8.099   8.931  0.4206  0.0712 -0.3759
  697MOL0     C94012   1.218   8.317   9.321 -0.0234 -0.7266  0.6516
  697MOL0     C94013   1.268   8.278   9.445  0.2371  0.2628  0.6869
  697MOL0     C94014   1.530   8.076   9.772 -0.2439 -0.8444  0.5885
  697MOL0     C94015   1.405   8.062   9.833 -0.0508 -0.3535 -0.1518
  697MOL0     C94016   1.397   8.006   9.960 -0.8447  0.2380  0.4315
  697MOL0     C94017   1.512   7.972  10.033  0.2021 -0.2844 -0.2187
  697MOL0     O94018   1.483   7.936  10.164 -0.0346 -0.4241 -0.2718
  697MOL0     C94019   1.588   7.933  10.266  0.6571  0.1885 -0.0457
  697MOL0     C94020   1.526   7.854  10.381 -0.1953  0.1638  0.1950
  697MOL0     C94021   1.622   7.871  10.507  0.3412 -0.7761 -0.0608
  697MOL0     C94022   1.552   7.848  10.646  0.1322 -0.8407 -0.1080
  697MOL0     C94023   1.482   7.720  10.639  0.3859  1.2953  0.0229
  697MOL0     C94024   1.423   7.619  10.630 -0.0325  0.0651  0.3220
  697MOL0     C94025   1.636   7.983   9.970 -0.2580  0.9592 -0.4481
  697MOL0     C94026   1.648   8.039   9.843  0.5434  1.6192  0.8810
  697MOL0     C94027   1.787   8.060   9.790  0.5277 -1.0957 -0.2054
  697MOL0     H94028   1.566   8.155   9.353 -0.8304  0.2401 -0.5724
  697MOL0     H94029   1.493   8.255   9.132  0.5853 -0.8639  0.6174
  697MOL0     H94030   1.117   8.475   9.048  0.0392 -0.8601 -0.7588
  697MOL0     H94031   1.235   8.549   9.165 -0.4993 -0.5668  0.8488
  697MOL0     H94032   1.263   8.640   8.937  1.7194  1.6018  2.2712
  697MOL0     H94033   1.301   8.473   8.873  1.2294 -1.7470  1.8431
  697MOL0     H94034   1.502   8.488   9.029 -1.5862  0.1073  0.6402
  697MOL0     H94035   1.438   8.638   9.079 -2.0144  3.5565 -2.7232
  697MOL0     H94036   1.519   8.581   8.782 -0.3161  1.4753  0.1814
  697MOL0     H94037   1.492   8.737   8.843  0.5620  1.9454  2.0865
  697MOL0     H94038   1.729   8.731   8.845  1.6224 -0.6699  0.4604
  697MOL0     H94039   1.672   8.728   9.017 -0.5421  1.3741 -0.8909
  697MOL0     H94040   1.860   8.606   8.994 -1.6741  1.7150  1.1044
  697MOL0     H94041   1.724   8.498   9.035  0.4065  0.8184  1.7199
  697MOL0     H94042   1.905   8.469   8.807  0.8453  2.1534  1.3886
  697MOL0     H94043   1.754   8.524   8.737  0.0028  0.2268 -1.0888
  697MOL0     H94044   1.641   8.339   8.850 -0.0596 -0.5200 -0.3545
  697MOL0     H94045   1.727   8.280   8.726 -2.4673 -0.4737  0.4728
  697MOL0     H94046   1.904   8.338   9.074  0.8668 -0.9993  0.2927
  697MOL0     H94047   1.993   8.190   9.250 -0.5869  1.9394 -0.1714
  697MOL0     H94048   1.849   8.125   9.314  0.4978 -5.8485  1.7706
  697MOL0     H94049   1.896   7.901   9.247  0.7696 -2.0211 -0.8762
  697MOL0     H94050   2.049   7.958   9.173 -0.4470  0.9565  0.2997
  697MOL0     H94051   2.000   8.018   9.473  2.4446 -0.2420  2.0590
  697MOL0     H94052   2.151   8.000   9.378 -1.2504  0.9182 -1.6774
  697MOL0     H94053   1.969   7.778   9.463 -0.0950 -0.3320 -0.4191
  697MOL0     H94054   2.133   7.805   9.516 -2.9444 -3.5230  1.7572
  697MOL0     H94055   2.050   7.579   9.526  4.7687 -2.2848  2.9036
  697MOL0     H94056   2.042   7.335   9.499 -0.8313  0.1316 -1.1307
  697MOL0     H94057   2.153   6.939   9.579 -1.1172 -0.8606  1.3217
  697MOL0     H94058   2.048   6.703   9.592  0.3440 -0.1536  0.6646
  697MOL0     H94059   1.727   6.572   9.468 -0.0003 -1.9267  1.5949
  697MOL0     H94060   1.768   6.574   9.299  2.3985  1.1548 -0.3342
  697MOL0     H94061   1.749   6.346   9.324 -0.5207 -0.8009  0.4593
  697MOL0     H94062   1.918   6.374   9.334 -0.9753  1.9701 -2.3119
  697MOL0     H94063   1.874   6.411   9.606 -2.6288  1.8234  0.5785
  697MOL0     H94064   1.712   6.350   9.556 -0.3808 -2.6609 -0.7786
  697MOL0     H94065   1.954   6.177   9.490 -0.6825 -1.0407 -1.0015
  697MOL0     H94066   1.795   6.137   9.462  3.7807 -3.2348 -0.7913
  697MOL0     H94067   1.926   6.182   9.739 -0.1207 -0.5531  0.9881
  697MOL0     H94068   1.923   6.038   9.656 -2.1755 -1.4055  0.0636
  697MOL0     H94069   1.669   6.166   9.802 -1.3275  0.5712 -1.8335
  697MOL0     H94070   1.649   6.055   9.663  2.1806 -0.0821 -3.0280
  697MOL0     H94071   1.838   6.020   9.906  0.1798  0.9697 -0.7689
  697MOL0     H94072   1.780   5.899   9.785  1.1023  1.4531 -1.8128
  697MOL0     H94073   1.606   6.027  10.000  1.0619  0.1426 -0.9118
  697MOL0     H94074   1.553   5.932   9.859 -2.3784 -1.3125  1.9522
  697MOL0     H94075   1.824   6.772   9.250  0.5875 -1.6999 -0.4362
  697MOL0     H94076   1.910   7.022   9.243  0.8729 -0.1639 -1.7903
  697MOL0     H94077   2.247   7.349   9.136 -2.6719 -1.6984 -1.0033
  697MOL0     H94078   2.242   7.599   9.143  1.9512 -0.4441  1.6398
  697MOL0     H94079   1.116   8.354   9.332  0.0848  0.0488 -0.7372
  697MOL0     H94080   1.208   8.271   9.535 -0.2104 -3.1679  0.2653
  697MOL0     H94081   1.312   8.072   9.779  1.0066  0.6130 -1.8913
  697MOL0     H94082   1.299   7.967   9.986 -0.6044 -1.6380 -1.2060
  697MOL0     H94083   1.604   8.034  10.303 -0.2967  0.3186  0.0257
  697MOL0     H94084   1.676   7.882  10.226 -0.2171  0.8483 -3.0726
  697MOL0     H94085   1.527   7.747  10.358  0.8081 -0.4203  2.7094
  697MOL0     H94086   1.423   7.871  10.414 -0.0280 -2.7256  2.6590
  697MOL0     H94087   1.666   7.971  10.510 -2.3776  0.5989  4.4060
  697MOL0     H94088   1.712   7.811  10.493 -0.5473 -1.9986 -0.6845
  697MOL0     H94089   1.623   7.851  10.729  3.8405 -1.5042 -2.9726
  697MOL0     H94090   1.482   7.929  10.669  2.3651  0.5553  2.2149
  697MOL0     H94091   1.386   7.520  10.614  1.4093 -0.4923  0.2766
  697MOL0     H94092   1.730   7.952  10.014 -0.8085 -1.7960 -1.0290
  697MOL0     H94093   1.807   8.156   9.744 -1.8843 -2.0445 -3.6706
  697MOL0     H94094   1.865   8.041   9.864  3.7261  1.3489 -2.6696
  697MOL0     H94095   1.812   7.992   9.708 -0.1329 -1.0999 -0.4171
  698MOL0     O94096   6.940   6.623  10.178 -0.4726  0.0722  0.1050
  698MOL0     C94097   6.832   6.571  10.134 -1.4332  0.4985  0.8368
  698MOL0     O94098   6.730   6.519  10.216 -0.0229 -0.3139 -0.3665
  698MOL0     C94099   6.734   6.552  10.346 -0.0901  0.3862  0.1769
  698MOL0     C94100   6.778   6.464  10.445 -0.1123  0.0406 -0.1900
  698MOL0     C94101   6.771   6.494  10.578  0.5156  0.7468  0.3147
  698MOL0     C94102   6.712   6.617  10.620 -0.2367 -0.1877  0.3288
  698MOL0     O94103   6.716   6.643  10.751 -1.4486  0.1842 -0.6360
  698MOL0     C94104   6.784   6.755  10.800 -0.4268  0.4064 -0.4804
  698MOL0     C94105   6.805   6.741  10.952  0.5529 -0.4493  0.2839
  698MOL0     C94106   6.950   6.717  10.986  0.1828 -0.3043 -0.2537
  698MOL0     C94107   6.972   6.576  11.046  0.4213  0.3165  0.0121
  698MOL0     C94108   7.114   6.561  11.112 -0.4457 -0.7286  0.1742
  698MOL0     C94109   7.228   6.525  11.012 -0.5735  1.2067  0.2311
  698MOL0     C94110   7.350   6.475  11.092 -0.6202  0.0106  0.5230
  698MOL0     C94111   7.447   6.581  11.151  0.9019  0.8937 -0.2903
  698MOL0     N94112   7.513   6.661  11.050  0.7898 -1.5814  0.2931
  698MOL0     C94113   7.613   6.618  10.971 -0.0443  0.4022  0.4687
  698MOL0     C94114   7.638   6.711  10.875  0.5739 -0.9620 -0.5871
  698MOL0     C94115   7.739   6.693  10.767 -0.3872 -0.0389 -0.3402
  698MOL0     C94116   7.694   6.752  10.640  0.3293 -0.8110 -0.6381
  698MOL0     C94117   7.820   6.765  10.548 -0.6329  0.9295  0.5374
  698MOL0     C94118   7.794   6.868  10.438 -0.0954  0.8095  0.0433
  698MOL0     O94119   7.913   6.881  10.362 -0.2500 -0.7006  0.0147
  698MOL0     C94120   7.921   6.830  10.236  0.0898 -0.4434  0.8184
  698MOL0     C94121   7.859   6.706  10.206  0.0839 -0.2858 -1.1342
  698MOL0     C94122   7.862   6.674  10.069 -0.0951  0.6629 -0.3895
  698MOL0     C94123   7.917   6.756   9.966  0.0135  0.1671  1.0668
  698MOL0     C94124   7.913   6.719   9.820 -0.4699 -0.8778  0.1732
  698MOL0     O94125   7.978   6.792   9.726  0.1886 -0.3827  0.4246
  698MOL0     C94126   7.962   6.770   9.592 -0.3367 -0.3921  0.2248
  698MOL0     C94127   7.838   6.808   9.533 -0.5036 -0.1499 -0.1854
  698MOL0     C94128   7.815   6.764   9.404  0.3137  1.8632  0.0205
  698MOL0     C94129   7.905   6.704   9.324 -0.2160 -0.0201 -0.1305
  698MOL0     O94130   7.881   6.646   9.208  0.2548 -0.2588  0.7438
  698MOL0     C94131   7.765   6.551   9.206 -0.0409  0.0775 -0.4596
  698MOL0     C94132   7.803   6.427   9.283 -0.0443  0.6549  0.2046
  698MOL0     C94133   7.920   6.345   9.222 -0.5311  0.8592  0.6867
  698MOL0     C94134   7.933   6.198   9.274  0.3146  0.5437 -0.1600
  698MOL0     C94135   7.992   6.206   9.411  0.3315 -0.5251 -0.3918
  698MOL0     C94136   7.988   6.069   9.481  0.0441 -0.0536  0.2925
  698MOL0     C94137   8.062   5.947   9.414  0.2906 -0.5886 -0.0942
  698MOL0     C94138   7.978   5.825   9.385  0.0973  1.0514  0.3499
  698MOL0    Cl94139   7.862   5.849   9.260 -0.5826  0.2883  0.2630
  698MOL0     C94140   8.030   6.682   9.379 -0.9865  0.0171 -0.3657
  698MOL0     C94141   8.061   6.710   9.512  0.4412 -0.3597 -1.1701
  698MOL0     O94142   7.856   6.613   9.796 -0.3863 -0.5040 -0.2103
  698MOL0     C94143   7.986   6.866  10.007 -0.0310 -0.6859 -0.1973
  698MOL0     C94144   7.982   6.906  10.134  1.8658 -0.1325 -0.7104
  698MOL0     N94145   7.569   6.820  10.918 -0.4564  0.5464  0.9809
  698MOL0     N94146   7.485   6.786  11.013  0.0852 -1.1576  0.4064
  698MOL0     C94147   6.674   6.709  10.523 -0.4811  0.2275  0.0580
  698MOL0     C94148   6.681   6.670  10.391  0.5636  0.6232  0.7447
  698MOL0     C94149   6.821   6.552   9.982 -0.0033  0.9168 -1.1186
  698MOL0     C94150   6.938   6.525   9.915  0.0819  0.0189  1.3231
  698MOL0     C94151   6.939   6.487   9.775 -0.5800  0.0630 -0.2064
  698MOL0     C94152   6.813   6.482   9.714 -0.4259  0.8687  0.1695
  698MOL0     O94153   6.787   6.432   9.588 -0.0000 -0.3242 -0.2335
  698MOL0     C94154   6.893   6.419   9.488 -0.2702  0.0049  0.6126
  698MOL0     C94155   6.813   6.420   9.358 -1.7130 -0.4460  0.1736
  698MOL0     C94156   6.908   6.375   9.239 -0.2701 -0.6117  0.5869
  698MOL0     C94157   7.035   6.463   9.217 -0.6778  0.7050  0.6302
  698MOL0     C94158   6.998   6.610   9.209 -0.2218  1.0052  0.3365
  698MOL0     C94159   6.974   6.726   9.225  0.1300  0.4068  0.7112
  698MOL0     C94160   6.700   6.530   9.773 -0.5086 -0.0199 -0.0678
  698MOL0     C94161   6.705   6.567   9.909  0.0049 -0.5560  0.0164
  698MOL0     C94162   6.576   6.616   9.971  0.9516 -0.6864 -0.4222
  698MOL0     H94163   6.796   6.364  10.406 -1.7162  0.4033 -2.0163
  698MOL0     H94164   6.811   6.419  10.645  3.7780  1.9721 -0.0822
  698MOL0     H94165   6.879   6.761  10.747 -1.7641 -2.6072 -3.6135
  698MOL0     H94166   6.717   6.840  10.783 -2.0953  0.1756  3.6832
  698MOL0     H94167   6.740   6.667  11.000 -1.6620  2.1429  1.5498
  698MOL0     H94168   6.785   6.840  10.994  0.4250  0.0467 -0.9019
  698MOL0     H94169   6.980   6.795  11.057 -2.1313  0.2943  0.1331
  698MOL0     H94170   7.007   6.726  10.893 -0.7226 -4.5566 -1.4572
  698MOL0     H94171   6.904   6.564  11.131 -2.2061  2.1114 -1.6912
  698MOL0     H94172   6.952   6.502  10.967 -0.9483  2.6958 -1.9995
  698MOL0     H94173   7.149   6.648  11.168 -1.8622 -0.3503  0.5138
  698MOL0     H94174   7.110   6.488  11.193 -0.5821 -0.0388  0.7933
  698MOL0     H94175   7.191   6.452  10.939  1.6973 -0.7041  0.8609
  698MOL0     H94176   7.265   6.621  10.977  3.2677  0.6684  2.3166
  698MOL0     H94177   7.409   6.411  11.026 -0.8438 -0.6938  0.9943
  698MOL0     H94178   7.324   6.407  11.174  0.3289  0.1314  0.9416
  698MOL0     H94179   7.394   6.642  11.224  0.3615 -0.4539  0.4855
  698MOL0     H94180   7.527   6.531  11.207 -0.1548  0.9099  1.2930
  698MOL0     H94181   7.648   6.516  10.979 -1.9632 -0.1380  3.4032
  698MOL0     H94182   7.837   6.735  10.791 -0.5961  0.9066 -1.1086
  698MOL0     H94183   7.755   6.585  10.757  0.7184  0.1919 -1.2185
  698MOL0     H94184   7.612   6.696  10.595 -3.0973  3.3475 -0.2399
  698MOL0     H94185   7.659   6.855  10.651 -0.0904 -1.1426  1.6082
  698MOL0     H94186   7.838   6.664  10.510 -2.6928  1.3071 -1.6869
  698MOL0     H94187   7.905   6.798  10.608 -0.6542 -0.6346  1.4648
  698MOL0     H94188   7.763   6.965  10.478  1.0617  2.1907 -2.1836
  698MOL0     H94189   7.713   6.837  10.371  0.5890  1.7253 -1.2545
  698MOL0     H94190   7.809   6.636  10.272  1.2113  0.7489  0.9239
  698MOL0     H94191   7.810   6.584  10.037 -1.9687  0.6200  2.4813
  698MOL0     H94192   7.763   6.853   9.598 -1.9069  0.5475 -2.2145
  698MOL0     H94193   7.716   6.784   9.365 -1.7443  0.7414  4.0421
  698MOL0     H94194   7.668   6.598   9.224  0.2669  1.5030 -2.2752
  698MOL0     H94195   7.754   6.503   9.108  3.2335 -0.7480 -0.5328
  698MOL0     H94196   7.844   6.452   9.381  2.3813 -0.9507 -0.3223
  698MOL0     H94197   7.711   6.367   9.290  0.3193  0.1144  0.3951
  698MOL0     H94198   7.919   6.335   9.113  3.6199  0.0094  0.5454
  698MOL0     H94199   8.009   6.403   9.248 -0.3602  0.6326  0.6088
  698MOL0     H94200   7.999   6.131   9.218  1.6492 -0.0395  2.0236
  698MOL0     H94201   7.831   6.159   9.267  0.1738  1.0432 -1.2375
  698MOL0     H94202   7.956   6.292   9.468  3.0837 -0.3118  1.2367
  698MOL0     H94203   8.098   6.232   9.406  0.0792  0.3734 -1.3927
  698MOL0     H94204   8.027   6.104   9.577  2.4598  1.6741 -1.2018
  698MOL0     H94205   7.885   6.036   9.498 -0.5890 -0.5067 -3.6505
  698MOL0     H94206   8.141   5.914   9.483  0.8013 -0.2324 -0.5051
  698MOL0     H94207   8.120   5.980   9.327  2.0378 -0.2384  1.1342
  698MOL0     H94208   8.052   5.749   9.358  0.4210  1.0511  1.2090
  698MOL0     H94209   7.923   5.788   9.472  1.7350 -0.0287  0.9734
  698MOL0     H94210   8.104   6.629   9.320 -2.0755 -0.4222 -1.3857
  698MOL0     H94211   8.160   6.684   9.548  1.0512 -3.0929 -4.3620
  698MOL0     H94212   8.035   6.948   9.955 -0.8986 -0.4139 -0.5983
  698MOL0     H94213   8.021   7.005  10.154  0.4168  1.0911 -3.3963
  698MOL0     H94214   6.611   6.792  10.553  1.6852  1.4604  1.3950
  698MOL0     H94215   6.653   6.737  10.311 -0.2277 -1.2924 -0.6523
  698MOL0     H94216   7.035   6.519   9.964  0.6911  1.3177  0.3480
  698MOL0     H94217   7.032   6.461   9.725 -0.4946  0.1676 -0.0987
  698MOL0     H94218   6.939   6.322   9.506 -0.1329 -0.0112  0.1645
  698MOL0     H94219   6.960   6.506   9.494 -0.1676  0.0964 -1.3760
  698MOL0     H94220   6.766   6.518   9.350 -1.5328 -0.4206 -0.6522
  698MOL0     H94221   6.735   6.344   9.358  1.0022 -3.5291 -1.4710
  698MOL0     H94222   6.845   6.384   9.150  0.6162 -2.6714 -0.3011
  698MOL0     H94223   6.925   6.269   9.259 -1.7674 -1.1594 -0.8547
  698MOL0     H94224   7.113   6.452   9.293 -1.1000 -0.5132  0.8977
  698MOL0     H94225   7.080   6.434   9.121  1.9703 -0.9864  2.2644
  698MOL0     H94226   6.960   6.832   9.230 -0.7975  0.2435  2.2266
  698MOL0     H94227   6.605   6.534   9.721  0.9706 -0.1548 -2.9861
  698MOL0     H94228   6.549   6.706   9.914  2.8476  1.8532  2.3988
  698MOL0     H94229   6.492   6.549   9.994 -0.3752  1.8153  2.7865
  698MOL0     H94230   6.582   6.658  10.071  0.1753  2.2873 -1.5203
  699MOL0     O94231   4.538   0.946   1.273  0.6759 -0.1740 -0.1988
  699MOL0     C94232   4.435   1.009   1.230 -0.1172 -0.2000 -0.1840
  699MOL0     O94233   4.402   1.149   1.243 -0.9491  0.3348 -0.4708
  699MOL0     C94234   4.482   1.233   1.309 -0.2442 -0.2024  0.2838
  699MOL0     C94235   4.477   1.367   1.254  0.4130 -0.1759 -0.0293
  699MOL0     C94236   4.552   1.469   1.317 -0.1638 -0.0880 -0.6927
  699MOL0     C94237   4.618   1.444   1.434 -0.3477  0.0810 -1.7771
  699MOL0     O94238   4.688   1.542   1.505  0.2972 -0.0172 -0.4417
  699MOL0     C94239   4.755   1.632   1.409 -0.3596 -1.1390  0.2500
  699MOL0     C94240   4.871   1.714   1.473 -0.4972  0.0208 -0.4675
  699MOL0     C94241   4.946   1.804   1.380 -0.2127  0.0196 -0.3277
  699MOL0     C94242   5.078   1.872   1.436 -0.4871  0.2956 -0.8368
  699MOL0     C94243   5.153   1.957   1.337 -0.5460  0.9656 -0.8232
  699MOL0     C94244   5.065   2.056   1.261  0.5988 -0.4775 -0.3452
  699MOL0     C94245   5.176   2.130   1.183 -0.1277 -0.2113  0.4712
  699MOL0     C94246   5.132   2.233   1.083  0.7098 -0.6475  0.5269
  699MOL0     N94247   5.107   2.176   0.950  0.4123  0.3570 -0.1643
  699MOL0     C94248   4.999   2.089   0.917  0.2168  1.3912 -0.1910
  699MOL0     C94249   5.023   2.036   0.797 -0.6257  0.0932 -0.6078
  699MOL0     C94250   4.930   1.956   0.713  1.5685 -0.3254 -0.3114
  699MOL0     C94251   4.979   1.875   0.598 -0.3861  0.7685  0.1682
  699MOL0     C94252   5.071   1.764   0.651  0.0865  0.0982  0.3762
  699MOL0     C94253   5.124   1.687   0.531  0.0067 -0.2066 -0.2892
  699MOL0     O94254   5.088   1.552   0.521  0.5814  0.2303  0.2855
  699MOL0     C94255   4.956   1.521   0.481 -0.4339 -0.5496 -0.3172
  699MOL0     C94256   4.912   1.504   0.349  0.0447  0.4300 -0.0943
  699MOL0     C94257   4.775   1.472   0.323 -0.1198  0.0596 -0.3343
  699MOL0     C94258   4.679   1.447   0.424 -0.0080 -0.1484 -0.0007
  699MOL0     C94259   4.541   1.393   0.407 -0.2474 -0.9715  0.0367
  699MOL0     O94260   4.506   1.412   0.272 -0.1154  0.4865  1.0535
  699MOL0     C94261   4.390   1.343   0.217 -0.0263  0.2655  1.0804
  699MOL0     C94262   4.337   1.380   0.091 -0.3113  0.7407 -1.0959
  699MOL0     C94263   4.225   1.320   0.038 -0.2522  0.3864  0.1189
  699MOL0     C94264   4.150   1.224   0.110 -0.8345  0.6775  1.4017
  699MOL0     O94265   4.036   1.184   0.043 -0.2077 -0.7679  0.1960
  699MOL0     C94266   3.961   1.083   0.099 -0.5026  0.7286 -0.4862
  699MOL0     C94267   3.832   1.078   0.009 -0.9357  0.0304 -1.2863
  699MOL0     C94268   3.769   1.215  -0.024 -0.6716 -0.1830 -0.3250
  699MOL0     C94269   3.754   1.299   0.103 -0.9133 -0.7943  0.1914
  699MOL0     C94270   3.662   1.417   0.078  0.1350  0.7850  0.0338
  699MOL0     C94271   3.627   1.494   0.200 -0.4568  0.4288 -0.0646
  699MOL0     C94272   3.545   1.620   0.158  0.0836  0.5805  0.0580
  699MOL0     C94273   3.610   1.729   0.070  0.7376  0.0256 -0.1173
  699MOL0    Cl94274   3.589   1.705  -0.117  0.7722 -0.1654 -0.3519
  699MOL0     C94275   4.216   1.165   0.221 -0.2957 -0.0572 -0.1913
  699MOL0     C94276   4.331   1.226   0.278  0.3588  0.1815 -0.2628
  699MOL0     O94277   4.472   1.347   0.496  0.6128 -0.6765  0.4425
  699MOL0     C94278   4.726   1.464   0.558 -0.2445 -0.5666  0.0381
  699MOL0     C94279   4.858   1.509   0.582 -0.5118  0.0167 -0.4853
  699MOL0     N94280   5.148   2.088   0.752 -0.3457  0.5610  0.5695
  699MOL0     N94281   5.196   2.167   0.846 -0.4895  0.1371  0.2456
  699MOL0     C94282   4.603   1.320   1.493 -0.8451  0.4081 -0.0777
  699MOL0     C94283   4.544   1.211   1.435  1.2409 -1.0913  0.2037
  699MOL0     C94284   4.361   0.934   1.136  0.8305 -1.4081  0.1990
  699MOL0     C94285   4.429   0.851   1.051  0.4560 -0.1004 -0.3067
  699MOL0     C94286   4.359   0.747   0.980  0.4044  1.2144 -0.3751
  699MOL0     C94287   4.217   0.724   0.993 -0.8830  1.1127 -0.2579
  699MOL0     O94288   4.141   0.623   0.945 -0.6702 -0.2314  0.7511
  699MOL0     C94289   4.198   0.504   0.889  0.0141 -0.4350 -0.1141
  699MOL0     C94290   4.098   0.415   0.817  0.2685  0.5220  0.5244
  699MOL0     C94291   4.051   0.485   0.692 -0.1801 -0.0479 -0.4163
  699MOL0     C94292   3.977   0.401   0.585 -0.7880  0.3077  1.0604
  699MOL0     C94293   3.949   0.473   0.465  0.1247  0.1231  0.2600
  699MOL0     C94294   3.909   0.535   0.363  0.6624  0.6375  0.7621
  699MOL0     C94295   4.151   0.819   1.067 -0.5273  0.5161 -0.9462
  699MOL0     C94296   4.219   0.928   1.135  0.7376 -1.5637 -0.5279
  699MOL0     C94297   4.128   1.035   1.211  0.0267  0.6641  1.7748
  699MOL0     H94298   4.408   1.378   1.171 -0.1064  2.2260  0.6447
  699MOL0     H94299   4.552   1.565   1.268  1.8169  0.2657 -0.0690
  699MOL0     H94300   4.786   1.579   1.318 -1.9644  0.4391 -1.2924
  699MOL0     H94301   4.682   1.708   1.377 -0.1384 -0.2543  1.7453
  699MOL0     H94302   4.935   1.632   1.509 -0.3319  0.3641  0.0271
  699MOL0     H94303   4.826   1.766   1.557 -0.4441 -3.6517  2.0861
  699MOL0     H94304   4.879   1.889   1.360 -0.9045  0.1761  2.2984
  699MOL0     H94305   4.971   1.738   1.296  0.7621  0.1857 -0.1820
  699MOL0     H94306   5.046   1.941   1.516 -0.3426  0.8542 -1.2530
  699MOL0     H94307   5.144   1.803   1.489 -0.5765  0.0505 -1.0462
  699MOL0     H94308   5.224   2.006   1.405 -0.9857 -0.4724  0.7564
  699MOL0     H94309   5.205   1.889   1.268  1.4389  0.7942  0.7566
  699MOL0     H94310   5.004   1.998   1.191  0.0808 -1.1387  0.6337
  699MOL0     H94311   5.009   2.126   1.324 -0.5352 -0.3960 -1.4172
  699MOL0     H94312   5.242   2.057   1.137 -1.2364 -0.5527 -0.6267
  699MOL0     H94313   5.226   2.190   1.260 -1.7833  4.1282 -1.4764
  699MOL0     H94314   5.047   2.290   1.121  1.5716  2.2795 -1.5264
  699MOL0     H94315   5.213   2.307   1.072  1.8538 -1.9212  0.1464
  699MOL0     H94316   4.925   2.059   0.991  1.3891  1.2502  0.9693
  699MOL0     H94317   4.879   1.897   0.790  1.3109  2.9779  2.3112
  699MOL0     H94318   4.848   2.016   0.672 -0.2309 -1.3918  1.5316
  699MOL0     H94319   4.898   1.830   0.540 -0.5931  2.5600 -0.9894
  699MOL0     H94320   5.025   1.939   0.522 -0.0226  1.2958  0.8220
  699MOL0     H94321   5.024   1.689   0.715  1.2054 -0.1815  0.8936
  699MOL0     H94322   5.157   1.808   0.703  0.3321 -0.2451  0.2625
  699MOL0     H94323   5.233   1.684   0.539  0.1700 -5.2240 -1.0679
  699MOL0     H94324   5.114   1.754   0.445 -0.2431  2.5023  1.7198
  699MOL0     H94325   4.981   1.515   0.266 -0.1774 -0.2839 -0.3837
  699MOL0     H94326   4.725   1.479   0.227 -3.3662  3.1559  1.3271
  699MOL0     H94327   4.380   1.468   0.044  1.3684  1.0805  0.9736
  699MOL0     H94328   4.190   1.373  -0.050 -1.1366  1.1905  0.9306
  699MOL0     H94329   4.016   0.988   0.097 -0.5756  0.5411  2.5478
  699MOL0     H94330   3.926   1.099   0.201 -0.5345 -1.9700  0.0055
  699MOL0     H94331   3.862   1.023  -0.081 -3.0592  0.2162 -2.1730
  699MOL0     H94332   3.753   1.024   0.062  0.4088  0.9789  1.8551
  699MOL0     H94333   3.828   1.265  -0.101 -2.5812 -0.4965 -2.0569
  699MOL0     H94334   3.676   1.196  -0.078  0.7200  1.1689 -3.4640
  699MOL0     H94335   3.851   1.337   0.135 -0.1884 -3.0171  0.7312
  699MOL0     H94336   3.704   1.241   0.181  0.2195  0.9995  2.3508
  699MOL0     H94337   3.570   1.385   0.028  0.3255  1.7826 -0.9964
  699MOL0     H94338   3.710   1.485   0.006 -0.0140 -0.5105 -1.3176
  699MOL0     H94339   3.578   1.415   0.258  0.3622 -2.1000 -2.5642
  699MOL0     H94340   3.725   1.521   0.241  1.3992 -0.5741 -3.3965
  699MOL0     H94341   3.521   1.664   0.255 -1.7182  3.4799 -1.5503
  699MOL0     H94342   3.446   1.598   0.117 -0.7862 -0.1923  2.3674
  699MOL0     H94343   3.563   1.825   0.094 -0.2195 -0.5560  0.3896
  699MOL0     H94344   3.715   1.726   0.101 -0.1612 -2.0385  3.2935
  699MOL0     H94345   4.173   1.071   0.252  0.7389 -0.2037  0.8753
  699MOL0     H94346   4.370   1.184   0.370  0.2345  1.5128  0.4378
  699MOL0     H94347   4.655   1.446   0.639  1.4844 -1.9946  1.3227
  699MOL0     H94348   4.887   1.513   0.687  0.3019 -1.0771 -0.6518
  699MOL0     H94349   4.646   1.305   1.592 -0.8240  2.4613  0.2591
  699MOL0     H94350   4.544   1.107   1.465 -1.5198 -1.4124 -0.6561
  699MOL0     H94351   4.537   0.854   1.041  0.5679  2.3309  1.0015
  699MOL0     H94352   4.420   0.684   0.915  2.1034  2.8593 -0.4586
  699MOL0     H94353   4.232   0.441   0.971 -0.4998 -0.0271  0.4236
  699MOL0     H94354   4.281   0.530   0.823 -0.4998  1.1887 -0.1835
  699MOL0     H94355   4.016   0.384   0.881  0.4587 -1.0989  0.0224
  699MOL0     H94356   4.155   0.324   0.798  1.5408  1.5609 -0.9409
  699MOL0     H94357   4.140   0.532   0.649  1.2011 -1.3821  0.8561
  699MOL0     H94358   3.972   0.551   0.729 -0.8266 -0.0909 -1.6738
  699MOL0     H94359   4.055   0.330   0.558 -1.3891 -0.7065  1.9442
  699MOL0     H94360   3.886   0.357   0.628 -0.4588 -0.3407  1.0973
  699MOL0     H94361   3.885   0.591   0.274  1.4108  0.0266  0.1538
  699MOL0     H94362   4.043   0.812   1.082 -0.6899  0.8860 -1.8251
  699MOL0     H94363   4.106   1.116   1.142  2.6169 -1.3127 -1.6791
  699MOL0     H94364   4.033   0.986   1.235 -0.3573  1.1111  1.1729
  699MOL0     H94365   4.181   1.073   1.299  1.7170  4.1471 -0.5416
  700MOL0     O94366   0.247   1.510   1.477  0.2815 -0.0255 -0.5004
  700MOL0     C94367   0.232   1.480   1.597  0.3575 -0.8258  0.4772
  700MOL0     O94368   0.330   1.428   1.672 -0.0824 -0.1455  0.0850
  700MOL0     C94369   0.458   1.418   1.615 -0.0127  0.8359 -0.6127
  700MOL0     C94370   0.519   1.531   1.553 -0.0832  0.1327 -0.3847
  700MOL0     C94371   0.640   1.504   1.476  0.0326  0.0569 -0.2159
  700MOL0     C94372   0.688   1.367   1.466  0.7283  0.1466  1.8755
  700MOL0     O94373   0.798   1.337   1.385 -0.4881 -0.0053  0.2945
  700MOL0     C94374   0.874   1.225   1.416  0.2875 -1.1511 -0.1223
  700MOL0     C94375   0.946   1.246   1.553 -0.6878 -0.5864  0.8436
  700MOL0     C94376   1.035   1.131   1.584 -0.7595 -0.0842 -0.4246
  700MOL0     C94377   1.145   1.179   1.675 -0.0038  1.0099 -0.4350
  700MOL0     C94378   1.210   1.059   1.729  0.2853 -0.1845  0.2042
  700MOL0     C94379   1.285   1.097   1.859  0.2289  0.0365 -0.8817
  700MOL0     C94380   1.351   0.975   1.922  0.5694 -0.3366 -0.2675
  700MOL0     C94381   1.398   0.999   2.067 -0.0363  0.7588  0.6950
  700MOL0     N94382   1.385   0.877   2.147  0.4229  0.3181 -0.3605
  700MOL0     C94383   1.425   0.754   2.116 -0.3068  0.4585 -1.3383
  700MOL0     C94384   1.363   0.668   2.202 -0.5593 -0.8082 -0.1754
  700MOL0     C94385   1.385   0.519   2.212 -0.3365 -0.1473 -0.2095
  700MOL0     C94386   1.428   0.467   2.073  0.5869 -0.2034 -0.7230
  700MOL0     C94387   1.511   0.334   2.076  0.6027 -0.0831 -0.1294
  700MOL0     C94388   1.635   0.326   2.159  0.3872  0.2557 -0.1798
  700MOL0     O94389   1.752   0.263   2.095  0.3633  0.2348 -0.2537
  700MOL0     C94390   1.740   0.131   2.062  0.3165  0.0052  0.2807
  700MOL0     C94391   1.653   0.035   2.125 -1.0251 -0.5419  0.7944
  700MOL0     C94392   1.620  -0.084   2.059 -0.3930 -0.2791 -0.3442
  700MOL0     C94393   1.693  -0.129   1.947 -0.4637 -0.6669  0.3010
  700MOL0     C94394   1.651  -0.250   1.875 -0.7655 -0.0375  0.7776
  700MOL0     O94395   1.739  -0.295   1.787  0.3548 -0.1643 -0.8369
  700MOL0     C94396   1.723  -0.396   1.692  0.6895 -0.8233 -0.7114
  700MOL0     C94397   1.619  -0.490   1.675  0.0902  0.0299 -0.9559
  700MOL0     C94398   1.621  -0.590   1.565  1.1612  0.3569  0.8624
  700MOL0     C94399   1.728  -0.590   1.476  0.2919  0.1141  0.2802
  700MOL0     O94400   1.717  -0.681   1.368 -0.0906 -0.1511  0.1884
  700MOL0     C94401   1.835  -0.735   1.316 -0.8525 -0.1033 -0.2562
  700MOL0     C94402   1.805  -0.836   1.213  0.3387  0.0339  1.2560
  700MOL0     C94403   1.926  -0.913   1.154  0.4286  0.3849  0.2465
  700MOL0     C94404   1.874  -1.022   1.062 -0.4541  1.2508  0.2002
  700MOL0     C94405   2.001  -1.108   1.020 -0.2195  0.5296  0.1023
  700MOL0     C94406   1.976  -1.205   0.903 -0.4952  0.5375  0.0104
  700MOL0     C94407   2.100  -1.295   0.891 -0.9997  0.7225  0.3443
  700MOL0     C94408   2.091  -1.368   0.751  0.1455 -0.0233  0.9150
  700MOL0    Cl94409   1.952  -1.471   0.744  0.0719  0.1483  0.2577
  700MOL0     C94410   1.830  -0.495   1.487 -0.2309  0.0092  0.2579
  700MOL0     C94411   1.836  -0.409   1.599  0.0185  0.3002  0.1951
  700MOL0     O94412   1.542  -0.299   1.900  0.2282 -0.1850  0.3377
  700MOL0     C94413   1.784  -0.027   1.893  0.1841  0.4586  0.7612
  700MOL0     C94414   1.804   0.095   1.941  0.6916  0.0610  0.6753
  700MOL0     N94415   1.286   0.742   2.288 -0.2200 -0.0375  0.5200
  700MOL0     N94416   1.310   0.866   2.258 -0.5237 -0.0317  0.6398
  700MOL0     C94417   0.616   1.261   1.533 -0.7749  0.2863  0.1399
  700MOL0     C94418   0.510   1.291   1.610  0.5992  0.2581  1.2195
  700MOL0     C94419   0.095   1.490   1.651  0.3717  0.2548 -1.1849
  700MOL0     C94420   0.083   1.497   1.795  0.3926  0.7154 -0.5416
  700MOL0     C94421  -0.034   1.509   1.868  0.2727 -0.2447 -0.4346
  700MOL0     C94422  -0.153   1.512   1.790  0.4214 -0.0549 -0.2300
  700MOL0     O94423  -0.284   1.524   1.839 -0.7151  0.5009  0.2946
  700MOL0     C94424  -0.314   1.555   1.970 -0.5701  0.2567 -0.3722
  700MOL0     C94425  -0.445   1.625   1.966  0.5399 -0.3136 -0.9762
  700MOL0     C94426  -0.562   1.554   1.895 -0.1758 -0.3084 -0.5166
  700MOL0     C94427  -0.574   1.583   1.747  0.4294  0.3514 -0.2893
  700MOL0     C94428  -0.701   1.534   1.686 -0.2552  0.8672 -0.0738
  700MOL0     C94429  -0.807   1.510   1.632 -0.5723  0.2578  0.3348
  700MOL0     C94430  -0.147   1.489   1.658 -0.2053 -0.3178 -0.1932
  700MOL0     C94431  -0.033   1.484   1.579 -0.6815 -0.8436 -0.5130
  700MOL0     C94432  -0.042   1.482   1.425  0.2609  1.0490  0.4351
  700MOL0     H94433   0.464   1.624   1.564  0.2724  0.5629 -1.8946
  700MOL0     H94434   0.708   1.569   1.422  1.9703 -1.2582  0.4951
  700MOL0     H94435   0.816   1.132   1.413 -0.9232 -0.4355  0.6293
  700MOL0     H94436   0.954   1.225   1.341  0.1201 -0.9228 -0.2987
  700MOL0     H94437   0.879   1.275   1.635 -3.0872 -4.4708  0.5431
  700MOL0     H94438   1.014   1.327   1.526 -1.1707 -1.1315 -2.4107
  700MOL0     H94439   1.075   1.090   1.490 -3.4858 -3.2547 -0.3838
  700MOL0     H94440   0.977   1.061   1.643 -2.4082  0.4759 -1.3002
  700MOL0     H94441   1.211   1.240   1.613  2.2612 -0.2781  0.5903
  700MOL0     H94442   1.108   1.245   1.755 -0.2799 -1.2370  1.4208
  700MOL0     H94443   1.130   0.990   1.756 -0.4882  0.0199 -1.4359
  700MOL0     H94444   1.264   1.002   1.653  3.2268  1.5436  0.8441
  700MOL0     H94445   1.367   1.165   1.834  1.1594 -0.4690  0.6868
  700MOL0     H94446   1.218   1.153   1.926 -2.4303 -0.4183 -2.9748
  700MOL0     H94447   1.443   0.948   1.869 -0.4348 -2.1399 -1.1805
  700MOL0     H94448   1.281   0.891   1.928  0.8796 -0.5558  0.4146
  700MOL0     H94449   1.498   1.044   2.064  1.7564 -2.8778 -0.2034
  700MOL0     H94450   1.326   1.071   2.104 -1.2579 -0.5246  0.9108
  700MOL0     H94451   1.506   0.728   2.049 -0.3713 -0.0783 -1.2082
  700MOL0     H94452   1.472   0.514   2.277  0.4525  1.2716 -1.0927
  700MOL0     H94453   1.300   0.462   2.250 -0.5888  0.6006  0.3786
  700MOL0     H94454   1.335   0.457   2.015 -0.1194 -1.4955  0.5679
  700MOL0     H94455   1.500   0.530   2.020  0.8499  1.0378  1.0156
  700MOL0     H94456   1.561   0.328   1.979  1.4458  1.0237  0.2211
  700MOL0     H94457   1.445   0.250   2.098 -0.1711  0.6855  0.5726
  700MOL0     H94458   1.589   0.267   2.240 -2.1375  0.0261 -1.6526
  700MOL0     H94459   1.666   0.425   2.192 -1.4216  0.8297 -0.0832
  700MOL0     H94460   1.595   0.066   2.212 -0.3531  1.2244  0.6456
  700MOL0     H94461   1.542  -0.150   2.095  1.8502 -3.1524 -0.4342
  700MOL0     H94462   1.542  -0.490   1.751  0.3139 -1.5586 -0.6848
  700MOL0     H94463   1.540  -0.661   1.553  0.7314  1.2162 -2.2661
  700MOL0     H94464   1.894  -0.652   1.277 -1.4946  0.2109 -0.5804
  700MOL0     H94465   1.892  -0.793   1.390 -1.3005 -0.3635 -0.1083
  700MOL0     H94466   1.746  -0.917   1.258  0.3680 -0.5539  0.2561
  700MOL0     H94467   1.755  -0.780   1.133  0.6306  0.9061  1.6759
  700MOL0     H94468   2.006  -0.848   1.118  0.8237  0.4863  1.2518
  700MOL0     H94469   1.978  -0.949   1.243 -1.6655  0.5260  1.6103
  700MOL0     H94470   1.822  -0.989   0.971 -1.1343  0.1692  0.1826
  700MOL0     H94471   1.798  -1.083   1.110  0.9827 -0.3743  0.5036
  700MOL0     H94472   2.041  -1.181   1.092  1.8850  0.1363 -1.3837
  700MOL0     H94473   2.081  -1.037   0.999 -1.0735  2.0361  1.6799
  700MOL0     H94474   1.901  -1.279   0.933  1.6248 -1.6908  0.1183
  700MOL0     H94475   1.957  -1.146   0.812 -0.6956  0.9845  0.3381
  700MOL0     H94476   2.115  -1.362   0.976 -0.5427  0.8370  0.3580
  700MOL0     H94477   2.188  -1.232   0.878 -0.7067 -0.2350 -3.6925
  700MOL0     H94478   2.089  -1.289   0.675 -1.9348 -1.1323 -0.2632
  700MOL0     H94479   2.183  -1.422   0.724  0.2304  0.6205 -0.1606
  700MOL0     H94480   1.910  -0.491   1.413  0.6896  3.7728  1.2334
  700MOL0     H94481   1.926  -0.351   1.618 -0.5887  0.5935  2.5483
  700MOL0     H94482   1.836  -0.053   1.801 -1.4807  3.4573 -1.1609
  700MOL0     H94483   1.859   0.168   1.882  0.3388 -0.0751  0.1717
  700MOL0     H94484   0.651   1.159   1.525  0.0969  0.6863 -1.7038
  700MOL0     H94485   0.452   1.211   1.655 -1.3008  0.1797 -1.2111
  700MOL0     H94486   0.167   1.499   1.864  0.7080  0.0913 -0.8940
  700MOL0     H94487  -0.035   1.526   1.975  3.5056  0.8422 -0.4708
  700MOL0     H94488  -0.232   1.616   2.009  0.3257 -1.9228  1.3870
  700MOL0     H94489  -0.321   1.476   2.046  3.5189  2.8730  3.2061
  700MOL0     H94490  -0.428   1.720   1.913  0.8892  1.1685  1.6113
  700MOL0     H94491  -0.481   1.648   2.067  2.9083  1.6100 -0.4793
  700MOL0     H94492  -0.647   1.602   1.944 -0.8907 -0.5459 -1.4893
  700MOL0     H94493  -0.558   1.445   1.901  1.0563 -0.2487  0.0130
  700MOL0     H94494  -0.577   1.692   1.740  1.9623  0.6033  1.9324
  700MOL0     H94495  -0.486   1.556   1.688 -0.2508  0.0669 -1.1979
  700MOL0     H94496  -0.900   1.497   1.580  0.4331  0.4325 -1.5456
  700MOL0     H94497  -0.236   1.482   1.597  0.4856  0.5751 -1.3512
  700MOL0     H94498  -0.017   1.579   1.380 -2.6509  1.6436 -0.1578
  700MOL0     H94499   0.021   1.401   1.390  0.2166 -0.5259  3.6104
  700MOL0     H94500  -0.146   1.466   1.397  0.4110  0.2036  0.3650
  701MOL0     O94501   1.237   3.471   2.949  0.1555  0.5979 -0.3540
  701MOL0     C94502   1.139   3.479   2.872 -1.2632 -0.1490  0.6042
  701MOL0     O94503   1.074   3.361   2.814  0.1608 -0.1047 -0.3677
  701MOL0     C94504   1.105   3.238   2.873  0.4591  0.0276 -0.3005
  701MOL0     C94505   1.159   3.149   2.790  0.7906  0.5663  0.2658
  701MOL0     C94506   1.173   3.014   2.832 -0.2316  0.5458  0.3636
  701MOL0     C94507   1.159   2.984   2.973  0.6538  0.1238 -0.0977
  701MOL0     O94508   1.204   2.856   3.008 -0.1759  0.3050 -0.0866
  701MOL0     C94509   1.295   2.860   3.114 -0.2214 -0.2432 -0.5341
  701MOL0     C94510   1.405   2.752   3.110  0.9911  0.2518  0.6541
  701MOL0     C94511   1.504   2.751   2.996  0.2600 -0.2625 -0.2358
  701MOL0     C94512   1.640   2.691   3.040  0.2234 -0.4508  0.1449
  701MOL0     C94513   1.726   2.656   2.931 -0.0273  0.1136  0.0254
  701MOL0     C94514   1.821   2.545   2.979  0.0285  0.4981 -0.9477
  701MOL0     C94515   1.958   2.539   2.910 -0.9016 -0.4475 -0.2049
  701MOL0     C94516   2.036   2.669   2.925 -0.5804  0.0159 -0.1548
  701MOL0     N94517   2.176   2.662   2.884  0.2256 -0.0459  0.8496
  701MOL0     C94518   2.286   2.599   2.950  0.2733  1.0060  1.2004
  701MOL0     C94519   2.390   2.589   2.859  0.3503 -0.4236 -0.3222
  701MOL0     C94520   2.518   2.506   2.881 -0.2788  0.6940  0.1136
  701MOL0     C94521   2.532   2.381   2.785 -0.4186 -0.0170 -0.7014
  701MOL0     C94522   2.653   2.295   2.830 -0.2567 -0.5802  0.2861
  701MOL0     C94523   2.663   2.184   2.727  0.3713  0.3424  0.2704
  701MOL0     O94524   2.695   2.239   2.591 -0.1049  0.4211 -0.3515
  701MOL0     C94525   2.833   2.267   2.568  0.0918 -0.1721 -0.9602
  701MOL0     C94526   2.945   2.245   2.656  0.6075  0.5378  0.2921
  701MOL0     C94527   3.072   2.289   2.625  0.4763  0.3023  1.0300
  701MOL0     C94528   3.095   2.344   2.499  0.5952 -1.2150 -0.1602
  701MOL0     C94529   3.233   2.373   2.456  0.2494 -0.3917  0.1926
  701MOL0     O94530   3.330   2.288   2.502  0.4092 -0.1918 -0.5980
  701MOL0     C94531   3.459   2.322   2.469 -0.2936 -0.0866  0.6512
  701MOL0     C94532   3.512   2.279   2.350  0.7368  0.5041  0.5208
  701MOL0     C94533   3.642   2.312   2.308 -0.3754  1.4101 -0.1149
  701MOL0     C94534   3.728   2.392   2.389 -0.1508 -0.6352  0.4926
  701MOL0     O94535   3.853   2.425   2.341 -1.0003  0.0025  0.3022
  701MOL0     C94536   3.922   2.548   2.378  0.7041 -0.5771  0.1638
  701MOL0     C94537   3.895   2.671   2.297  0.8495 -0.4149  0.8101
  701MOL0     C94538   3.978   2.802   2.355  0.5540  0.2115  0.0303
  701MOL0     C94539   3.915   2.926   2.291  0.1907 -0.6862  0.4466
  701MOL0     C94540   3.956   3.049   2.370  0.2543  0.0124  0.0786
  701MOL0     C94541   3.872   3.176   2.310 -0.1837 -0.3938 -0.9184
  701MOL0     C94542   3.724   3.175   2.348 -0.4394  0.2058  0.0878
  701MOL0     C94543   3.668   3.304   2.283  0.9617 -1.0722  0.5783
  701MOL0    Cl94544   3.503   3.324   2.344 -0.3526  0.3021 -0.1525
  701MOL0     C94545   3.670   2.444   2.507 -0.6007  0.7988  0.5598
  701MOL0     C94546   3.541   2.396   2.547  0.4189 -0.4756  0.3368
  701MOL0     O94547   3.248   2.464   2.373 -0.2673  0.0925 -0.4915
  701MOL0     C94548   2.985   2.386   2.420  1.5083 -0.4642 -0.8039
  701MOL0     C94549   2.857   2.348   2.458  0.2758 -0.0795  0.3343
  701MOL0     N94550   2.344   2.648   2.739  1.0762 -0.7523 -0.5075
  701MOL0     N94551   2.226   2.687   2.763  0.1168  0.0248 -0.6468
  701MOL0     C94552   1.120   3.076   3.061  0.9267 -0.1595 -0.7307
  701MOL0     C94553   1.084   3.202   3.008  0.0446 -0.3263 -0.9141
  701MOL0     C94554   1.086   3.614   2.828 -0.6129 -0.4145 -0.5972
  701MOL0     C94555   0.969   3.618   2.757 -0.2213 -0.0109  0.1284
  701MOL0     C94556   0.912   3.735   2.714 -0.3441  0.1882 -0.5016
  701MOL0     C94557   0.966   3.857   2.758  0.3583  0.5497 -0.0473
  701MOL0     O94558   0.899   3.979   2.746  0.2424  0.9415  0.8565
  701MOL0     C94559   0.925   4.046   2.626  0.0515 -0.6430  0.8305
  701MOL0     C94560   0.825   4.171   2.615 -0.0071  0.0931 -0.1154
  701MOL0     C94561   0.693   4.111   2.562  0.2348  0.3417 -0.1901
  701MOL0     C94562   0.576   4.215   2.577 -0.5282  0.5623  0.0887
  701MOL0     C94563   0.598   4.335   2.491 -0.3223  0.0138  0.4947
  701MOL0     C94564   0.610   4.428   2.414 -0.1500  0.1678 -0.7617
  701MOL0     C94565   1.087   3.854   2.838  0.6345 -0.4485 -0.7521
  701MOL0     C94566   1.145   3.733   2.870 -0.1170 -0.2000  0.0545
  701MOL0     C94567   1.278   3.742   2.947 -0.2507 -0.7096 -0.3422
  701MOL0     H94568   1.179   3.185   2.689  0.4922  0.3728  0.1344
  701MOL0     H94569   1.197   2.936   2.761  4.5272  3.4048 -1.6817
  701MOL0     H94570   1.348   2.956   3.123  1.0188 -1.0036  0.7264
  701MOL0     H94571   1.238   2.863   3.207 -2.5273 -1.9425 -1.7910
  701MOL0     H94572   1.353   2.656   3.104  2.3849 -0.5715  1.2995
  701MOL0     H94573   1.463   2.757   3.203  1.0966  1.5843  0.5353
  701MOL0     H94574   1.509   2.852   2.955  2.2417 -0.2952 -0.2004
  701MOL0     H94575   1.459   2.688   2.918  0.4117 -0.2077 -0.3682
  701MOL0     H94576   1.698   2.748   3.112  1.5219 -1.6600  0.0965
  701MOL0     H94577   1.615   2.599   3.095  5.4109 -1.4557  1.3784
  701MOL0     H94578   1.679   2.621   2.839 -1.8640 -0.4337  1.1137
  701MOL0     H94579   1.779   2.748   2.908  0.6686  0.2881  2.1187
  701MOL0     H94580   1.839   2.555   3.087  1.7573 -0.0890 -1.1383
  701MOL0     H94581   1.779   2.444   2.974  3.1009 -0.9106 -0.6784
  701MOL0     H94582   1.945   2.513   2.805  1.1471  1.3159 -0.9504
  701MOL0     H94583   2.019   2.457   2.951  0.2455  0.8702  0.8230
  701MOL0     H94584   1.992   2.746   2.862  0.9148 -0.4474 -1.8279
  701MOL0     H94585   2.035   2.713   3.026 -1.9111 -1.5648  0.5806
  701MOL0     H94586   2.292   2.567   3.054  1.6162 -1.9203  0.3062
  701MOL0     H94587   2.611   2.563   2.872  1.5498 -1.5534  2.9480
  701MOL0     H94588   2.530   2.476   2.986  1.3001  5.2000  1.5141
  701MOL0     H94589   2.444   2.316   2.791 -0.8566  0.6767  1.4156
  701MOL0     H94590   2.547   2.417   2.683 -1.2509 -1.8215 -1.4936
  701MOL0     H94591   2.626   2.253   2.927  1.3089  1.8416  1.8661
  701MOL0     H94592   2.746   2.353   2.831  0.1854 -1.1241 -2.2899
  701MOL0     H94593   2.567   2.133   2.715  0.5469  0.1245 -0.2386
  701MOL0     H94594   2.727   2.102   2.761 -3.3367 -1.6635  3.2423
  701MOL0     H94595   2.927   2.199   2.753 -0.5079  1.9890  0.8092
  701MOL0     H94596   3.151   2.277   2.698 -0.0575 -1.0589  1.4080
  701MOL0     H94597   3.452   2.231   2.274  1.8794 -0.7501  0.3705
  701MOL0     H94598   3.665   2.284   2.206 -2.1909  1.0621 -0.4633
  701MOL0     H94599   3.905   2.576   2.482  1.7272 -1.9343  0.7333
  701MOL0     H94600   4.029   2.534   2.358  1.3520  1.7921  1.5714
  701MOL0     H94601   3.929   2.660   2.193  0.9501  4.8596 -0.0376
  701MOL0     H94602   3.787   2.687   2.289  1.1552  1.5522 -0.0367
  701MOL0     H94603   3.962   2.812   2.463 -2.2677  1.7273 -0.4390
  701MOL0     H94604   4.082   2.785   2.326  0.5473  1.6549 -0.9218
  701MOL0     H94605   3.806   2.927   2.293  0.0453 -3.4341 -0.7948
  701MOL0     H94606   3.938   2.931   2.184 -3.1328 -2.3241 -0.4704
  701MOL0     H94607   4.059   3.085   2.364  0.9967 -0.5485  5.1143
  701MOL0     H94608   3.943   3.037   2.478 -0.8231  1.0210  0.0801
  701MOL0     H94609   3.923   3.269   2.337 -1.0318 -0.2432  0.2609
  701MOL0     H94610   3.893   3.170   2.202  0.8296 -0.7533 -0.7093
  701MOL0     H94611   3.727   3.185   2.457  0.4549  0.9849  0.0113
  701MOL0     H94612   3.674   3.088   2.305 -0.1935  1.4533 -2.9989
  701MOL0     H94613   3.731   3.387   2.318  0.5745 -0.4894 -0.0722
  701MOL0     H94614   3.669   3.298   2.173 -2.5179  1.4133  0.2671
  701MOL0     H94615   3.721   2.517   2.569 -1.8492  3.8803 -1.7420
  701MOL0     H94616   3.501   2.416   2.646  1.4629 -0.4007  0.7555
  701MOL0     H94617   2.994   2.455   2.338 -0.3017  0.7553 -0.0413
  701MOL0     H94618   2.776   2.379   2.393  1.5528  0.5889 -0.9969
  701MOL0     H94619   1.113   3.060   3.169  2.9500 -0.2370 -0.5763
  701MOL0     H94620   1.047   3.284   3.069  1.4614  1.6199 -2.5526
  701MOL0     H94621   0.930   3.521   2.727 -0.1332  0.5503 -1.9120
  701MOL0     H94622   0.820   3.739   2.656  0.8342 -0.2175 -2.5033
  701MOL0     H94623   0.935   3.991   2.532  1.4412  2.0161 -0.6858
  701MOL0     H94624   1.020   4.101   2.631 -0.3473  0.2436 -0.7942
  701MOL0     H94625   0.867   4.240   2.541  5.3051 -1.5882  0.8998
  701MOL0     H94626   0.801   4.229   2.704 -2.8199 -1.2782  0.1219
  701MOL0     H94627   0.663   4.020   2.615  2.2158 -2.9312 -4.0514
  701MOL0     H94628   0.710   4.078   2.459  1.1127 -0.5607  0.2225
  701MOL0     H94629   0.480   4.170   2.548  1.4594 -2.0586 -3.2217
  701MOL0     H94630   0.568   4.252   2.679  0.4795  2.0125 -0.3312
  701MOL0     H94631   0.640   4.518   2.364 -0.3660  2.3665  2.7209
  701MOL0     H94632   1.131   3.944   2.880  2.1495  0.0050 -3.1462
  701MOL0     H94633   1.299   3.850   2.953 -1.5227 -0.3094 -2.2427
  701MOL0     H94634   1.264   3.704   3.049  0.9444  1.1837  0.5988
  701MOL0     H94635   1.356   3.689   2.893  1.1686  2.1083 -1.2499
  702MOL0     O94636   0.261   5.245  11.432 -0.2256 -0.2926  0.9247
  702MOL0     C94637   0.317   5.184  11.337 -0.2865 -0.5593 -0.7314
  702MOL0     O94638   0.251   5.105  11.250  0.1513  0.8713 -0.1347
  702MOL0     C94639   0.117   5.097  11.260 -0.4351 -0.6557 -0.0342
  702MOL0     C94640   0.058   5.002  11.351 -0.0316 -0.5266 -0.7189
  702MOL0     C94641  -0.081   4.979  11.337  0.5063  0.5731 -0.0243
  702MOL0     C94642  -0.159   5.065  11.247 -0.5584  0.6361  0.3332
  702MOL0     O94643  -0.291   5.024  11.232 -0.1866 -0.9157 -0.0736
  702MOL0     C94644  -0.316   4.900  11.166  0.6486 -0.2676  0.0575
  702MOL0     C94645  -0.461   4.868  11.171 -0.1790  0.1344 -0.4664
  702MOL0     C94646  -0.496   4.766  11.062 -0.7092  0.1194 -0.3570
  702MOL0     C94647  -0.636   4.725  11.087  0.0803 -0.3582 -1.1959
  702MOL0     C94648  -0.683   4.614  10.995  0.4492 -0.2034  0.2624
  702MOL0     C94649  -0.821   4.550  11.041  0.0175  0.0934  0.3748
  702MOL0     C94650  -0.937   4.647  10.993  0.1616 -0.0356 -0.5786
  702MOL0     C94651  -1.070   4.582  11.034  0.1936 -0.0614  0.1987
  702MOL0     N94652  -1.173   4.679  11.034  0.0126 -0.2196 -0.2167
  702MOL0     C94653  -1.223   4.731  11.150 -0.6855 -0.6828  0.5919
  702MOL0     C94654  -1.331   4.813  11.122  0.2796  1.2911 -0.1228
  702MOL0     C94655  -1.423   4.878  11.219 -0.1761  0.3708  0.8092
  702MOL0     C94656  -1.407   5.019  11.254 -0.3823  0.3769 -0.8578
  702MOL0     C94657  -1.261   5.047  11.307  0.8668  0.0447  0.1849
  702MOL0     C94658  -1.217   5.189  11.285  0.5008 -0.7703 -1.3533
  702MOL0     O94659  -1.301   5.291  11.354  0.7940  0.2057 -0.7734
  702MOL0     C94660  -1.329   5.397  11.278 -1.1580 -0.1209 -0.2132
  702MOL0     C94661  -1.457   5.425  11.239  0.2404  0.2022 -0.1114
  702MOL0     C94662  -1.482   5.536  11.149  0.2825 -0.2946 -1.0016
  702MOL0     C94663  -1.377   5.614  11.092 -0.2188  0.9271  0.0164
  702MOL0     C94664  -1.411   5.709  10.986  0.0295 -0.5632  0.3689
  702MOL0     O94665  -1.544   5.729  10.955  1.0416 -0.9784  0.2508
  702MOL0     C94666  -1.584   5.840  10.876 -0.5243 -0.4826 -0.5523
  702MOL0     C94667  -1.540   5.850  10.741 -0.2041 -0.2161 -0.8149
  702MOL0     C94668  -1.580   5.971  10.671  0.5685  0.7616  0.0483
  702MOL0     C94669  -1.646   6.075  10.735  0.5946 -0.3009 -0.1392
  702MOL0     O94670  -1.631   6.194  10.667  0.4674 -0.9900 -0.9246
  702MOL0     C94671  -1.689   6.314  10.726  0.1218 -0.3066 -0.5065
  702MOL0     C94672  -1.640   6.448  10.649  0.4916  0.7509 -1.1778
  702MOL0     C94673  -1.738   6.501  10.542  0.5040  0.0843 -0.6256
  702MOL0     C94674  -1.759   6.654  10.537  0.3274  0.8297  0.6527
  702MOL0     C94675  -1.793   6.672  10.386 -0.2692  0.0745  0.7164
  702MOL0     C94676  -1.784   6.825  10.361 -0.1043  1.3080 -0.5758
  702MOL0     C94677  -1.831   6.871  10.228 -0.4095  0.1926 -0.2425
  702MOL0     C94678  -1.767   6.808  10.103 -0.6566  0.0483 -1.1358
  702MOL0    Cl94679  -1.804   6.908   9.954  0.3668 -0.2639 -0.3459
  702MOL0     C94680  -1.699   6.054  10.864 -0.9643 -0.0244 -0.3113
  702MOL0     C94681  -1.658   5.941  10.933 -0.0332 -0.5901 -0.1767
  702MOL0     O94682  -1.317   5.774  10.940  0.4893 -0.0471  0.8796
  702MOL0     C94683  -1.246   5.583  11.138 -0.2967  0.4985  0.2610
  702MOL0     C94684  -1.222   5.483  11.243  0.0792 -0.6838 -0.7965
  702MOL0     N94685  -1.346   4.812  10.984 -0.3330 -0.2701 -0.3669
  702MOL0     N94686  -1.251   4.740  10.938 -0.8316  0.0305 -0.1771
  702MOL0     C94687  -0.099   5.158  11.163  1.0610  1.1352 -0.1724
  702MOL0     C94688   0.036   5.169  11.174  0.1511 -0.6082 -0.0592
  702MOL0     C94689   0.458   5.214  11.309  0.4941  0.1070 -0.5237
  702MOL0     C94690   0.488   5.201  11.171  0.2454 -0.5052 -0.4577
  702MOL0     C94691   0.614   5.245  11.138  0.6848 -0.3401 -0.1867
  702MOL0     C94692   0.713   5.283  11.223  0.0652 -0.0871 -0.5411
  702MOL0     O94693   0.831   5.334  11.167 -0.5247  1.6370 -0.0962
  702MOL0     C94694   0.907   5.246  11.073  0.6869 -0.0492  0.3875
  702MOL0     C94695   0.979   5.139  11.157  0.7895 -0.3559 -0.0126
  702MOL0     C94696   1.069   5.195  11.264  0.2653  0.4130 -0.6997
  702MOL0     C94697   1.171   5.303  11.217 -0.2175  0.1203  0.2028
  702MOL0     C94698   1.266   5.347  11.319 -0.6966  0.2505  0.2891
  702MOL0     C94699   1.347   5.357  11.407  0.0629  0.0387 -0.3298
  702MOL0     C94700   0.686   5.283  11.365 -0.0997 -1.0178 -0.1655
  702MOL0     C94701   0.553   5.248  11.401 -0.9209 -1.1796 -1.2535
  702MOL0     C94702   0.507   5.244  11.554 -1.2955 -0.9683  0.0706
  702MOL0     H94703   0.125   4.944  11.415  0.8914  1.2948  0.0257
  702MOL0     H94704  -0.126   4.909  11.406 -1.6635  0.0388 -1.8630
  702MOL0     H94705  -0.285   4.902  11.061  0.3710  0.8582 -0.0204
  702MOL0     H94706  -0.252   4.819  11.203  1.9023  0.5356 -0.2616
  702MOL0     H94707  -0.516   4.960  11.147 -0.3224 -0.2212 -1.5517
  702MOL0     H94708  -0.498   4.844  11.271 -0.6412  3.2965  0.2453
  702MOL0     H94709  -0.429   4.680  11.056 -0.0256  0.6733 -0.8315
  702MOL0     H94710  -0.496   4.812  10.963  0.8852 -0.2249 -0.5334
  702MOL0     H94711  -0.642   4.695  11.192 -0.5147  2.2716 -0.4210
  702MOL0     H94712  -0.703   4.811  11.087 -0.3195 -0.6627 -1.7855
  702MOL0     H94713  -0.689   4.654  10.893  3.2107  2.8533  1.1432
  702MOL0     H94714  -0.604   4.539  10.985  1.2510  0.1425  3.1060
  702MOL0     H94715  -0.834   4.454  10.988  3.1977 -1.2247  1.7240
  702MOL0     H94716  -0.816   4.532  11.148  1.5056 -1.3078  0.1075
  702MOL0     H94717  -0.923   4.646  10.885  3.0151 -0.6526 -0.2887
  702MOL0     H94718  -0.925   4.745  11.040  0.1681 -1.1311  1.8764
  702MOL0     H94719  -1.077   4.498  10.964  1.2625  0.3604 -0.4355
  702MOL0     H94720  -1.068   4.545  11.137  0.2982 -0.0762  0.1914
  702MOL0     H94721  -1.184   4.717  11.251  0.7861 -1.4243 -0.0454
  702MOL0     H94722  -1.519   4.856  11.172  0.8862 -1.5375 -0.6394
  702MOL0     H94723  -1.426   4.825  11.315  1.4806  1.7457  1.6812
  702MOL0     H94724  -1.427   5.080  11.166  1.4873 -1.8457 -2.9671
  702MOL0     H94725  -1.480   5.034  11.334 -1.7586 -0.2595 -1.9348
  702MOL0     H94726  -1.194   4.980  11.253  1.1907 -0.8145  1.5979
  702MOL0     H94727  -1.251   5.021  11.413  0.0110  1.0358  0.5301
  702MOL0     H94728  -1.216   5.218  11.180 -1.1890  0.5072 -1.0707
  702MOL0     H94729  -1.121   5.197  11.336 -0.1108 -1.9246  0.0667
  702MOL0     H94730  -1.543   5.377  11.285  0.1050  0.5606  0.0170
  702MOL0     H94731  -1.586   5.553  11.124 -2.3350 -3.7272  5.2550
  702MOL0     H94732  -1.485   5.774  10.686 -1.8954 -1.7425 -0.4961
  702MOL0     H94733  -1.563   5.985  10.565 -1.3624  1.2810 -0.2266
  702MOL0     H94734  -1.797   6.304  10.729  0.0612  0.5215  0.2639
  702MOL0     H94735  -1.649   6.326  10.827 -0.3183 -2.7012  0.0057
  702MOL0     H94736  -1.617   6.528  10.719 -4.3109  0.9867  0.5018
  702MOL0     H94737  -1.547   6.415  10.600  0.6725 -0.0504 -0.3211
  702MOL0     H94738  -1.709   6.451  10.449 -2.0417 -2.8174 -0.0515
  702MOL0     H94739  -1.837   6.454  10.555  0.3701  0.8200  1.4637
  702MOL0     H94740  -1.665   6.704  10.564  0.1571  1.9978 -0.7932
  702MOL0     H94741  -1.837   6.690  10.603  0.1594  0.4836  0.6432
  702MOL0     H94742  -1.895   6.639  10.363 -0.0276 -0.8882  0.9897
  702MOL0     H94743  -1.710   6.634  10.327 -0.4697  2.1326 -0.9943
  702MOL0     H94744  -1.840   6.879  10.439  4.4630  1.5573  2.9795
  702MOL0     H94745  -1.684   6.867  10.378 -0.2509  1.4590 -0.0614
  702MOL0     H94746  -1.800   6.976  10.231 -0.3417  0.1586  1.7219
  702MOL0     H94747  -1.940   6.870  10.219 -0.2960  1.1458 -2.0363
  702MOL0     H94748  -1.659   6.795  10.115 -0.6355 -4.4568 -3.9636
  702MOL0     H94749  -1.812   6.710  10.085  0.8078 -0.5785 -1.5461
  702MOL0     H94750  -1.750   6.131  10.921 -1.3811  1.5707 -2.6973
  702MOL0     H94751  -1.694   5.939  11.035  0.8400 -2.0002  0.1197
  702MOL0     H94752  -1.164   5.641  11.098 -2.3250  2.0097 -2.0542
  702MOL0     H94753  -1.126   5.467  11.290  1.3096  1.2848 -2.4974
  702MOL0     H94754  -0.154   5.225  11.098  1.3233  1.5461  0.0282
  702MOL0     H94755   0.081   5.241  11.107 -2.2785  0.0432 -1.0941
  702MOL0     H94756   0.415   5.175  11.096  0.5926 -0.3840 -0.8406
  702MOL0     H94757   0.635   5.237  11.032 -3.4821 -1.7758 -1.0937
  702MOL0     H94758   0.984   5.295  11.013  1.4826 -1.6746  0.0247
  702MOL0     H94759   0.856   5.188  10.996  3.0265 -0.1002 -1.2019
  702MOL0     H94760   1.041   5.077  11.092 -4.5693 -3.2412 -3.0382
  702MOL0     H94761   0.900   5.077  11.200  1.4912  0.4990  2.7690
  702MOL0     H94762   1.122   5.111  11.309 -1.1434  0.2517  0.7733
  702MOL0     H94763   1.005   5.239  11.341 -2.3846  0.2133 -2.6510
  702MOL0     H94764   1.223   5.260  11.131 -0.5829  0.4776 -0.1971
  702MOL0     H94765   1.107   5.380  11.174 -3.5024 -2.0056  0.9017
  702MOL0     H94766   1.410   5.358  11.494  1.7103  0.3544 -1.4810
  702MOL0     H94767   0.757   5.319  11.438  1.0410 -1.2984 -1.0962
  702MOL0     H94768   0.442   5.324  11.593 -0.1673  0.6108 -1.1605
  702MOL0     H94769   0.461   5.145  11.564  0.2377 -1.6600  0.4830
  702MOL0     H94770   0.596   5.247  11.618 -1.0352  1.7083 -0.3005
  703MOL0     O94771   7.603   7.730   9.784  0.1383 -0.1171 -0.4480
  703MOL0     C94772   7.665   7.830   9.764  0.1816 -1.1566 -0.1461
  703MOL0     O94773   7.764   7.880   9.843 -0.4499 -0.4757  0.0113
  703MOL0     C94774   7.804   7.805   9.952  0.4928 -0.2909  0.2096
  703MOL0     C94775   7.940   7.761   9.960 -0.0257 -0.8606  0.0079
  703MOL0     C94776   7.997   7.687  10.064  0.5240  0.3142 -0.5075
  703MOL0     C94777   7.912   7.652  10.170 -0.0842  0.5429  0.8988
  703MOL0     O94778   7.948   7.593  10.281 -1.0026  0.5486 -0.2129
  703MOL0     C94779   8.062   7.498  10.282  0.0322 -0.3534 -0.7967
  703MOL0     C94780   8.067   7.418  10.409  0.3235  0.2635  0.2892
  703MOL0     C94781   8.177   7.321  10.434 -0.3031  0.1416  0.5422
  703MOL0     C94782   8.136   7.181  10.395 -0.5308 -0.0219  0.4221
  703MOL0     C94783   8.162   7.082  10.512 -0.3970 -0.6017  0.1490
  703MOL0     C94784   8.075   7.112  10.641  0.4263  0.4565 -0.6506
  703MOL0     C94785   8.122   7.030  10.760  0.4640  1.5570  0.5471
  703MOL0     C94786   8.046   7.072  10.888 -0.2673 -1.3079 -0.2327
  703MOL0     N94787   8.111   7.189  10.951 -0.9406 -0.5568  0.9284
  703MOL0     C94788   8.112   7.325  10.917  0.0466  0.1607  0.0654
  703MOL0     C94789   8.197   7.385  11.014  0.2350 -0.3754 -0.7357
  703MOL0     C94790   8.223   7.534  11.032 -0.0522 -0.4202  1.0572
  703MOL0     C94791   8.352   7.564  11.113 -0.0480 -0.6879  0.9542
  703MOL0     C94792   8.475   7.554  11.012 -0.4100  0.3474 -0.1430
  703MOL0     C94793   8.597   7.616  11.081  0.6424  0.4889  0.4262
  703MOL0     O94794   8.632   7.544  11.196  0.1859 -0.8612 -1.2672
  703MOL0     C94795   8.721   7.429  11.187  1.0099 -0.3257 -0.2816
  703MOL0     C94796   8.779   7.392  11.066 -0.9454  0.0200 -0.8027
  703MOL0     C94797   8.875   7.292  11.076 -0.0335 -0.0628  0.0616
  703MOL0     C94798   8.923   7.236  11.199  0.2655 -0.3223  0.4076
  703MOL0     C94799   9.012   7.121  11.198 -0.2353  0.2964 -0.8914
  703MOL0     O94800   9.004   7.026  11.292  0.1909 -0.9102 -0.5920
  703MOL0     C94801   9.088   6.922  11.308 -0.0112 -0.2885  0.3420
  703MOL0     C94802   9.222   6.912  11.260 -0.6856 -0.3413  0.1068
  703MOL0     C94803   9.296   6.793  11.291  0.1815  0.2578 -0.6361
  703MOL0     C94804   9.231   6.675  11.350  0.2026 -1.3441  0.9110
  703MOL0     O94805   9.298   6.566  11.376  0.4281 -0.1390  0.1642
  703MOL0     C94806   9.413   6.583  11.462  0.8708  0.2376 -0.4069
  703MOL0     C94807   9.455   6.448  11.530  1.0358  0.2307  1.1887
  703MOL0     C94808   9.337   6.377  11.602  0.5299 -0.3478 -0.2983
  703MOL0     C94809   9.391   6.287  11.715  0.6127 -1.1991  0.6546
  703MOL0     C94810   9.275   6.216  11.787  0.1989 -0.1558  0.2922
  703MOL0     C94811   9.316   6.145  11.922 -0.5355 -0.6388  0.7795
  703MOL0     C94812   9.405   6.023  11.901 -0.0575  1.3583  0.6331
  703MOL0     C94813   9.344   5.898  11.847  1.1651  0.4216  1.0448
  703MOL0    Cl94814   9.336   5.919  11.668  0.0015 -0.5922  0.2728
  703MOL0     C94815   9.097   6.682  11.384  0.1996 -0.9127  0.2424
  703MOL0     C94816   9.032   6.804  11.363  0.3188 -0.0767 -0.2333
  703MOL0     O94817   9.084   7.118  11.100 -0.6235 -0.3813  0.2968
  703MOL0     C94818   8.867   7.280  11.317  0.1418 -0.2238  0.2780
  703MOL0     C94819   8.758   7.372  11.311  0.2166 -0.2147  0.4854
  703MOL0     N94820   8.241   7.288  11.102 -0.5681  1.2479 -0.2912
  703MOL0     N94821   8.192   7.173  11.057 -0.9134 -0.0152 -0.5784
  703MOL0     C94822   7.779   7.700  10.168  0.0230 -0.6787  1.7625
  703MOL0     C94823   7.723   7.778  10.062  0.5537 -0.5605  0.3953
  703MOL0     C94824   7.657   7.889   9.624 -0.0298  0.8960 -0.2899
  703MOL0     C94825   7.778   7.941   9.575 -0.2348 -0.3350 -0.2757
  703MOL0     C94826   7.788   7.999   9.445 -0.4576 -0.0237  0.5983
  703MOL0     C94827   7.670   8.022   9.367 -0.0202 -0.0002 -0.1805
  703MOL0     O94828   7.669   8.090   9.248  0.5837 -0.7952  0.6465
  703MOL0     C94829   7.792   8.122   9.184 -0.2819 -0.3206  0.6663
  703MOL0     C94830   7.761   8.187   9.050  0.7124 -0.2529  0.2849
  703MOL0     C94831   7.680   8.097   8.962 -0.3035  0.2661  0.5304
  703MOL0     C94832   7.759   7.985   8.891  0.3777  0.8377 -0.2007
  703MOL0     C94833   7.861   8.021   8.797  0.9593  0.7722 -1.0382
  703MOL0     C94834   7.953   8.055   8.727  0.0103  1.1901 -0.4603
  703MOL0     C94835   7.546   7.974   9.412  0.9460  0.3292  0.8807
  703MOL0     C94836   7.538   7.905   9.538  1.7932  0.0505 -0.3303
  703MOL0     C94837   7.396   7.853   9.580 -0.5070 -0.7066  0.1676
  703MOL0     H94838   8.005   7.790   9.878 -1.0407 -1.7239 -1.1429
  703MOL0     H94839   8.101   7.658  10.079 -0.5532 -2.5325  2.8520
  703MOL0     H94840   8.046   7.422  10.206  2.0985 -0.9244 -0.7213
  703MOL0     H94841   8.162   7.542  10.269  0.1871 -0.3080  0.4122
  703MOL0     H94842   7.970   7.371  10.430  0.6650 -0.5657  0.0411
  703MOL0     H94843   8.076   7.496  10.485 -2.3480 -0.7027  1.7341
  703MOL0     H94844   8.209   7.335  10.538 -2.6088  0.8755  1.2014
  703MOL0     H94845   8.264   7.342  10.371  0.2089  2.9949  2.0534
  703MOL0     H94846   8.034   7.184  10.356  1.0083  0.1366 -4.1327
  703MOL0     H94847   8.199   7.151  10.311 -0.7166  3.1286 -0.9942
  703MOL0     H94848   8.136   6.986  10.467  1.0959  0.0117 -2.1706
  703MOL0     H94849   8.270   7.083  10.529 -0.1150 -3.7958 -0.7840
  703MOL0     H94850   8.074   7.217  10.672 -2.2704  0.0151  1.1394
  703MOL0     H94851   7.970   7.082  10.629  0.2212  1.6187 -1.9509
  703MOL0     H94852   8.230   7.031  10.777  0.3966  1.7660  0.9768
  703MOL0     H94853   8.095   6.926  10.741  0.6582  1.5659  0.2174
  703MOL0     H94854   7.941   7.098  10.868  0.7727  2.3961 -1.6953
  703MOL0     H94855   8.053   6.994  10.964  0.2259 -1.2682 -0.2374
  703MOL0     H94856   8.051   7.380  10.846  1.0536 -0.5179 -1.3577
  703MOL0     H94857   8.232   7.580  10.933  0.6889 -2.9423 -0.1437
  703MOL0     H94858   8.141   7.583  11.085 -1.9984  1.0845 -2.8657
  703MOL0     H94859   8.350   7.667  11.150  2.1926  0.3886 -1.5327
  703MOL0     H94860   8.351   7.506  11.206 -2.7378  0.6619  1.8653
  703MOL0     H94861   8.437   7.604  10.923  1.3214 -1.5903 -2.0621
  703MOL0     H94862   8.490   7.448  10.992 -3.3406 -0.4413  1.2312
  703MOL0     H94863   8.568   7.716  11.115  0.2266 -0.6226  3.6425
  703MOL0     H94864   8.666   7.618  10.996 -1.3320 -0.2916 -1.2689
  703MOL0     H94865   8.773   7.444  10.971 -1.1908  0.1708 -0.7061
  703MOL0     H94866   8.922   7.261  10.983  0.7177 -0.8692  0.6852
  703MOL0     H94867   9.275   6.997  11.220  3.6229 -3.1653 -0.9080
  703MOL0     H94868   9.396   6.776  11.252 -0.7959 -1.5489 -2.4998
  703MOL0     H94869   9.505   6.624  11.421  1.0415 -0.7887 -1.0706
  703MOL0     H94870   9.378   6.656  11.536  1.7305  0.7194 -0.4588
  703MOL0     H94871   9.498   6.386  11.451 -1.5122 -0.3453  0.1569
  703MOL0     H94872   9.539   6.473  11.596  1.2356 -0.6992  1.3035
  703MOL0     H94873   9.263   6.443  11.646  0.8049 -1.4256  1.9433
  703MOL0     H94874   9.294   6.315  11.522 -1.3528  0.0976  0.3236
  703MOL0     H94875   9.456   6.346  11.780  1.3236 -1.4525  0.1915
  703MOL0     H94876   9.465   6.218  11.673  0.8607 -0.2474 -0.5440
  703MOL0     H94877   9.233   6.133  11.730 -0.0624 -1.6524  2.5429
  703MOL0     H94878   9.184   6.275  11.802  0.9712  1.1249  0.1076
  703MOL0     H94879   9.368   6.218  11.985  0.1251 -0.5795  0.1633
  703MOL0     H94880   9.225   6.120  11.978 -0.9067  2.3279  1.6427
  703MOL0     H94881   9.436   6.007  12.005  2.1657 -1.2116 -0.3034
  703MOL0     H94882   9.495   6.040  11.843  0.1240  1.4194  0.9296
  703MOL0     H94883   9.380   5.801  11.884  0.6280  0.0576  0.6245
  703MOL0     H94884   9.240   5.902  11.881  0.4624 -2.8873 -0.3344
  703MOL0     H94885   9.038   6.602  11.427 -2.0074  1.3380  1.6529
  703MOL0     H94886   8.927   6.815  11.389  1.1587  1.1521  3.1462
  703MOL0     H94887   8.911   7.241  11.408  1.6182 -0.8007 -0.6486
  703MOL0     H94888   8.707   7.408  11.400  1.1947  4.2039 -0.4901
  703MOL0     H94889   7.718   7.697  10.257 -1.7803 -0.6625  0.5812
  703MOL0     H94890   7.621   7.815  10.072  1.2175  0.8077  2.9518
  703MOL0     H94891   7.871   7.922   9.628 -0.3606  0.4002  0.2205
  703MOL0     H94892   7.882   8.037   9.405  0.1131 -3.6225 -1.9920
  703MOL0     H94893   7.870   8.046   9.173  1.0680  1.2611 -1.4604
  703MOL0     H94894   7.831   8.201   9.248  1.6259 -1.6342  1.2171
  703MOL0     H94895   7.854   8.214   9.001  0.8196 -1.3274 -0.1385
  703MOL0     H94896   7.705   8.276   9.079  0.4998  0.2628 -1.6092
  703MOL0     H94897   7.625   8.152   8.885 -1.1828 -1.8486 -0.4582
  703MOL0     H94898   7.595   8.052   9.015  0.5464 -1.1574  0.7403
  703MOL0     H94899   7.802   7.929   8.974  1.2085  1.1195 -0.4287
  703MOL0     H94900   7.685   7.920   8.842 -0.2575 -0.5339  2.4193
  703MOL0     H94901   8.037   8.093   8.674  0.1964  2.0486  0.4369
  703MOL0     H94902   7.465   7.993   9.343  1.0725 -1.0544  0.3226
  703MOL0     H94903   7.331   7.875   9.495  2.7931 -2.1369 -3.0043
  703MOL0     H94904   7.404   7.747   9.606  0.7177  0.0170  3.1025
  703MOL0     H94905   7.366   7.911   9.667 -1.4368  0.2491 -0.7552
  704MOL0     O94906   2.666   9.830   5.543 -0.0707  0.5470  0.5136
  704MOL0     C94907   2.737   9.729   5.532  0.6425 -0.9852  1.1243
  704MOL0     O94908   2.874   9.734   5.505  0.1509  0.1710 -0.2582
  704MOL0     C94909   2.913   9.857   5.446 -0.5132 -0.3806  0.7494
  704MOL0     C94910   2.938   9.974   5.517  1.3349  0.5889  0.1875
  704MOL0     C94911   2.986  10.089   5.457  0.4054  0.0263 -0.3330
  704MOL0     C94912   2.985  10.095   5.316  1.1873 -0.2148 -0.3121
  704MOL0     O94913   3.041  10.214   5.267  0.1802  0.3326  0.1198
  704MOL0     C94914   3.003  10.246   5.128  0.0054 -0.1496 -0.1194
  704MOL0     C94915   3.060  10.385   5.094 -0.1133 -0.0657  0.1022
  704MOL0     C94916   2.999  10.489   5.180  0.1015  0.1407  0.9394
  704MOL0     C94917   3.055  10.625   5.138 -0.3698 -0.5954 -0.2119
  704MOL0     C94918   3.049  10.722   5.255  0.2540 -0.7039 -1.3981
  704MOL0     C94919   3.112  10.850   5.238 -0.1103 -0.6664  0.1887
  704MOL0     C94920   3.135  10.934   5.363  0.0483 -0.8193 -0.3929
  704MOL0     C94921   3.171  11.083   5.339 -0.5435  0.0223 -0.1838
  704MOL0     N94922   3.149  11.161   5.460  0.9386  0.1137 -0.0717
  704MOL0     C94923   3.243  11.181   5.553  1.0150 -0.2290  0.1835
  704MOL0     C94924   3.182  11.262   5.647  0.9793  0.3710 -0.0824
  704MOL0     C94925   3.234  11.320   5.782 -0.4049 -0.1502  0.5083
  704MOL0     C94926   3.259  11.474   5.791 -0.2047  0.4077 -0.3999
  704MOL0     C94927   3.348  11.544   5.689  0.6761 -0.6069 -0.2370
  704MOL0     C94928   3.477  11.464   5.661 -0.4413 -1.1892 -0.1468
  704MOL0     O94929   3.541  11.398   5.779 -0.7093 -0.0381  0.8347
  704MOL0     C94930   3.615  11.483   5.865 -0.7684  0.0798 -0.3862
  704MOL0     C94931   3.608  11.624   5.854 -0.1629  0.0384  0.7341
  704MOL0     C94932   3.689  11.704   5.941  0.5240  0.9313 -0.6835
  704MOL0     C94933   3.772  11.638   6.040  0.2706 -1.0184  0.3774
  704MOL0     C94934   3.860  11.718   6.123  0.5464 -0.4122  0.6854
  704MOL0     O94935   3.892  11.659   6.244 -0.0449  0.8541 -0.6802
  704MOL0     C94936   3.975  11.727   6.336  0.3370 -0.6850  0.5324
  704MOL0     C94937   3.923  11.817   6.421  0.5386  0.1102 -0.0830
  704MOL0     C94938   4.016  11.888   6.504  0.0906 -0.2873  0.6131
  704MOL0     C94939   4.153  11.858   6.511 -0.0475  0.2284 -0.6907
  704MOL0     O94940   4.230  11.918   6.607  0.4054  0.6960 -0.0236
  704MOL0     C94941   4.376  11.904   6.594  0.0999 -0.0348  0.8179
  704MOL0     C94942   4.428  12.013   6.680 -0.6261 -0.3961 -0.5522
  704MOL0     C94943   4.574  12.006   6.683 -0.4471 -0.6938 -0.9740
  704MOL0     C94944   4.643  11.892   6.749 -0.1201  1.2958 -0.8818
  704MOL0     C94945   4.788  11.906   6.761 -0.4273  0.7304  0.0535
  704MOL0     C94946   4.863  11.771   6.815 -0.3424 -0.5068 -0.0032
  704MOL0     C94947   5.009  11.774   6.795 -0.4105 -0.4040 -0.7967
  704MOL0     C94948   5.078  11.888   6.868  0.2056 -0.8214 -0.2366
  704MOL0    Cl94949   5.259  11.892   6.846  0.0259  0.3787  0.6737
  704MOL0     C94950   4.199  11.763   6.418  0.2791 -0.7214 -0.3347
  704MOL0     C94951   4.115  11.700   6.332  0.5964 -0.0284  0.4090
  704MOL0     O94952   3.880  11.836   6.090  0.0910  0.1700  0.1600
  704MOL0     C94953   3.776  11.505   6.045 -0.0110  0.9099  1.2112
  704MOL0     C94954   3.695  11.425   5.965  1.7071 -0.3896  0.4462
  704MOL0     N94955   3.058  11.301   5.595 -0.7695 -0.1795  0.1957
  704MOL0     N94956   3.044  11.236   5.489  0.6783  0.0029 -0.1853
  704MOL0     C94957   2.966   9.975   5.239 -0.5220  0.4156  0.0845
  704MOL0     C94958   2.937   9.858   5.306 -0.5461 -0.3253  0.1609
  704MOL0     C94959   2.688   9.594   5.553  0.0094 -0.3132  0.3285
  704MOL0     C94960   2.678   9.512   5.444  0.4639  0.3299  0.0581
  704MOL0     C94961   2.613   9.389   5.456  0.0219  0.3535 -0.4231
  704MOL0     C94962   2.565   9.345   5.580 -1.2761 -0.3543 -0.7874
  704MOL0     O94963   2.521   9.219   5.585  0.5966  0.1686  0.7371
  704MOL0     C94964   2.543   9.145   5.704  0.2652  0.1528  0.4349
  704MOL0     C94965   2.470   9.014   5.704 -0.6570  0.9299 -0.2537
  704MOL0     C94966   2.545   8.900   5.785  0.0566 -0.8017  0.7006
  704MOL0     C94967   2.478   8.769   5.767  0.4020 -0.0316  0.5525
  704MOL0     C94968   2.559   8.680   5.855  0.4234 -0.1080  0.5892
  704MOL0     C94969   2.624   8.600   5.926 -0.7643 -0.6549  0.7226
  704MOL0     C94970   2.572   9.427   5.698  0.0887 -0.2162  0.1612
  704MOL0     C94971   2.641   9.554   5.677 -0.3745  1.0032 -0.3194
  704MOL0     C94972   2.658   9.640   5.797 -0.0941  0.6493 -0.5261
  704MOL0     H94973   2.922   9.969   5.624  3.0366 -0.3898  0.4231
  704MOL0     H94974   3.000  10.183   5.509 -0.6734 -1.5976  3.2205
  704MOL0     H94975   3.040  10.168   5.061  0.4409 -1.0363  1.1174
  704MOL0     H94976   2.894  10.250   5.118 -1.1812  0.0207  7.1642
  704MOL0     H94977   3.039  10.404   4.989  4.7183  1.0883 -0.9085
  704MOL0     H94978   3.169  10.385   5.106 -0.0110  0.2546 -0.7623
  704MOL0     H94979   3.027  10.464   5.283  0.5156 -1.5055  0.4458
  704MOL0     H94980   2.890  10.492   5.171  0.0385 -0.6685  1.3914
  704MOL0     H94981   3.159  10.616   5.107 -0.9937 -1.1463 -2.2779
  704MOL0     H94982   2.989  10.657   5.057 -1.8798 -1.3552  0.6780
  704MOL0     H94983   2.944  10.739   5.282 -0.7397 -2.2709 -3.9586
  704MOL0     H94984   3.085  10.676   5.348  0.9021  1.0511 -0.7366
  704MOL0     H94985   3.207  10.822   5.191 -0.1156 -2.8128  1.3728
  704MOL0     H94986   3.043  10.900   5.168  0.3514  2.9481  2.0794
  704MOL0     H94987   3.214  10.888   5.423 -1.5099 -2.0281  0.8285
  704MOL0     H94988   3.041  10.934   5.419 -0.7391  0.3043 -1.6507
  704MOL0     H94989   3.277  11.094   5.315 -0.7032  0.8566 -0.5337
  704MOL0     H94990   3.110  11.121   5.256  0.1608  2.5035  0.3465
  704MOL0     H94991   3.345  11.147   5.567  0.8968 -0.7294 -0.1439
  704MOL0     H94992   3.165  11.286   5.860  0.2391 -4.0339 -0.4503
  704MOL0     H94993   3.327  11.267   5.804  0.6959  2.0419  1.5723
  704MOL0     H94994   3.155  11.509   5.791  0.2398  1.8621  1.8179
  704MOL0     H94995   3.292  11.493   5.893  1.0059  1.3312 -0.9513
  704MOL0     H94996   3.360  11.649   5.718 -0.3071 -0.0247 -1.7977
  704MOL0     H94997   3.300  11.548   5.591  1.8394 -2.9064 -0.9788
  704MOL0     H94998   3.538  11.534   5.603 -1.7628  0.5904  0.5229
  704MOL0     H94999   3.458  11.391   5.581 -0.4463 -0.2436 -1.0257
  704MOL0     H95000   3.567  11.677   5.770  1.2365  0.3184  0.2030
  704MOL0     H95001   3.695  11.811   5.928  0.7935  0.7370 -2.4078
  704MOL0     H95002   3.821  11.848   6.399  0.6629 -1.2275 -3.0493
  704MOL0     H95003   3.972  11.958   6.573 -1.5514 -2.3763  1.8187
  704MOL0     H95004   4.412  11.802   6.612  1.9526  0.5242  0.5946
  704MOL0     H95005   4.399  11.911   6.487 -2.9183 -2.6405 -0.1588
  704MOL0     H95006   4.390  12.107   6.638  3.3690 -0.4381 -5.2822
  704MOL0     H95007   4.389  11.998   6.781  2.0358 -1.2992  0.4336
  704MOL0     H95008   4.606  12.006   6.579 -2.7140 -0.3389 -1.7251
  704MOL0     H95009   4.605  12.099   6.732  0.2920  0.0128 -2.7164
  704MOL0     H95010   4.633  11.806   6.682  0.4872  0.3046  0.2631
  704MOL0     H95011   4.600  11.871   6.847 -1.0091  0.3891 -1.4402
  704MOL0     H95012   4.791  11.987   6.835  0.9677  0.6205  0.1494
  704MOL0     H95013   4.843  11.924   6.668  0.5469 -1.5104  0.1313
  704MOL0     H95014   4.843  11.762   6.922  1.7250  2.5544  0.7849
  704MOL0     H95015   4.819  11.682   6.769  1.0020 -0.4068 -1.5819
  704MOL0     H95016   5.025  11.784   6.687 -3.2278  2.8061 -1.0845
  704MOL0     H95017   5.050  11.682   6.838  1.6137  0.4249 -0.8553
  704MOL0     H95018   5.047  11.985   6.829 -0.6188 -1.4136 -1.0795
  704MOL0     H95019   5.051  11.877   6.973  1.7465 -0.3589  0.2439
  704MOL0     H95020   4.307  11.749   6.425  0.7463  1.8823 -1.2395
  704MOL0     H95021   4.149  11.631   6.256 -1.2573 -2.2315  1.4803
  704MOL0     H95022   3.838  11.451   6.116 -0.8145 -1.0565  0.4951
  704MOL0     H95023   3.695  11.318   5.985 -1.6239 -0.5195  0.4096
  704MOL0     H95024   2.984   9.970   5.132 -2.7245 -1.2121 -0.2828
  704MOL0     H95025   2.943   9.766   5.249 -1.5112  0.8823 -1.9895
  704MOL0     H95026   2.700   9.531   5.339  0.0305 -4.5827 -1.1989
  704MOL0     H95027   2.603   9.325   5.368 -1.5176  1.0567 -0.7804
  704MOL0     H95028   2.498   9.188   5.793 -0.5043 -0.7305  0.4847
  704MOL0     H95029   2.649   9.130   5.726  0.8744  0.4102 -1.9943
  704MOL0     H95030   2.452   8.982   5.601 -2.8075 -0.6685  0.5480
  704MOL0     H95031   2.371   9.013   5.751  0.0705 -2.3175  1.5292
  704MOL0     H95032   2.562   8.934   5.888  0.8705  0.7961  0.0771
  704MOL0     H95033   2.649   8.903   5.752 -0.1872  1.4898 -0.0245
  704MOL0     H95034   2.371   8.765   5.788  0.5061  0.1528  1.1483
  704MOL0     H95035   2.492   8.735   5.664 -3.2926  1.4038 -0.5665
  704MOL0     H95036   2.698   8.539   5.973  1.9613  1.5910 -0.3018
  704MOL0     H95037   2.548   9.407   5.802  2.7314  0.8713  1.0665
  704MOL0     H95038   2.562   9.665   5.842 -1.3505 -1.3995 -1.9017
  704MOL0     H95039   2.709   9.576   5.870 -1.9383 -1.7201 -1.1755
  704MOL0     H95040   2.730   9.722   5.784 -0.2593  0.9129  0.1703
  705MOL0     O95041   7.407   5.653  10.743 -0.2545 -1.0481  0.6108
  705MOL0     C95042   7.402   5.697  10.857 -0.3144  0.5194  0.1687
  705MOL0     O95043   7.293   5.686  10.940 -0.2222 -0.4684 -0.1066
  705MOL0     C95044   7.182   5.627  10.885 -0.2681 -0.3124 -0.0387
  705MOL0     C95045   7.122   5.521  10.952  0.5200  0.1284  0.3516
  705MOL0     C95046   7.000   5.469  10.900  0.6366  1.0372  0.6465
  705MOL0     C95047   6.929   5.527  10.793 -0.7948  0.0753  0.1035
  705MOL0     O95048   6.817   5.473  10.725 -0.0865 -0.1397  1.0765
  705MOL0     C95049   6.762   5.343  10.756 -0.3597 -0.6642 -0.7731
  705MOL0     C95050   6.683   5.293  10.639 -0.2922  0.8200  0.2451
  705MOL0     C95051   6.610   5.161  10.650 -0.1697  0.7472  0.9885
  705MOL0     C95052   6.493   5.170  10.750 -0.3082 -0.4515 -0.4553
  705MOL0     C95053   6.383   5.260  10.695  0.1112  0.0064  0.3227
  705MOL0     C95054   6.343   5.366  10.793  0.0811 -0.6887 -0.9808
  705MOL0     C95055   6.209   5.443  10.762  0.1024 -0.0520  0.7634
  705MOL0     C95056   6.175   5.530  10.880 -0.5294 -0.6439  0.0806
  705MOL0     N95057   6.032   5.566  10.889 -0.0241  0.6062  0.2612
  705MOL0     C95058   5.968   5.678  10.844 -0.4121 -0.3342  1.1803
  705MOL0     C95059   5.848   5.685  10.896 -0.2547  0.0412 -0.4944
  705MOL0     C95060   5.728   5.765  10.839 -0.0575  0.1433 -0.8704
  705MOL0     C95061   5.632   5.671  10.772 -0.3469  0.0741  0.0477
  705MOL0     C95062   5.685   5.627  10.639 -0.8628 -0.1723  1.4676
  705MOL0     C95063   5.589   5.553  10.550 -0.3441 -0.8671 -0.6753
  705MOL0     O95064   5.472   5.636  10.532  0.2750 -0.2353  0.4340
  705MOL0     C95065   5.467   5.694  10.408 -0.0128 -0.3053 -0.0080
  705MOL0     C95066   5.392   5.638  10.302 -0.3195 -0.2941 -0.7461
  705MOL0     C95067   5.387   5.691  10.177 -0.4182 -0.0439  0.1012
  705MOL0     C95068   5.478   5.791  10.143 -0.1682  0.1802 -0.1650
  705MOL0     C95069   5.475   5.843  10.000 -0.0917 -1.0078  0.5755
  705MOL0     O95070   5.396   5.788   9.911 -0.7865 -0.2130  0.3716
  705MOL0     C95071   5.345   5.865   9.808 -0.0258 -0.7046  0.8833
  705MOL0     C95072   5.279   5.996   9.830 -0.7977  0.7178 -0.9691
  705MOL0     C95073   5.230   6.066   9.716  0.2680 -0.5632  0.0459
  705MOL0     C95074   5.238   6.018   9.588  0.4589  0.1894 -0.3524
  705MOL0     O95075   5.193   6.081   9.477 -0.2010 -0.5326 -0.2923
  705MOL0     C95076   5.299   6.177   9.428  0.5293 -0.3060 -0.3033
  705MOL0     C95077   5.234   6.286   9.344  0.2202 -0.4210  0.4161
  705MOL0     C95078   5.146   6.372   9.430  0.6169  1.1156 -0.4459
  705MOL0     C95079   5.223   6.477   9.516  0.9501 -0.1675  0.3131
  705MOL0     C95080   5.142   6.605   9.541 -0.2334  0.1839  0.0151
  705MOL0     C95081   5.038   6.603   9.652  0.6509  0.1389  0.9713
  705MOL0     C95082   5.045   6.725   9.742  0.7758  0.5977 -0.5663
  705MOL0     C95083   4.936   6.712   9.849 -0.3028  1.1151 -0.5455
  705MOL0    Cl95084   4.862   6.874   9.887 -0.2709 -0.0858  0.5219
  705MOL0     C95085   5.293   5.895   9.569  0.8936 -0.4699 -0.5336
  705MOL0     C95086   5.351   5.821   9.678  0.0254 -0.2734 -0.4671
  705MOL0     O95087   5.531   5.952   9.988 -1.0056 -0.4194 -0.2829
  705MOL0     C95088   5.558   5.846  10.237 -0.4334  0.9181  0.4201
  705MOL0     C95089   5.550   5.803  10.370 -0.2348  0.1333 -0.5636
  705MOL0     N95090   5.837   5.575  10.979 -0.0230 -0.3939 -0.7187
  705MOL0     N95091   5.944   5.506  10.974 -0.6608  0.2841  0.6646
  705MOL0     C95092   6.994   5.638  10.739  0.0837  0.7008 -0.0089
  705MOL0     C95093   7.112   5.689  10.782  0.3006 -0.1056  0.0780
  705MOL0     C95094   7.534   5.723  10.927  0.4073 -0.3508  0.0096
  705MOL0     C95095   7.553   5.687  11.063 -0.4975  0.6539  0.4983
  705MOL0     C95096   7.675   5.690  11.125 -0.1067 -0.4146 -0.5604
  705MOL0     C95097   7.784   5.747  11.067  0.4271 -0.9230  0.6090
  705MOL0     O95098   7.898   5.749  11.143  0.7381 -0.1101 -0.7791
  705MOL0     C95099   8.012   5.811  11.087 -0.0375  0.0910  0.2635
  705MOL0     C95100   8.115   5.820  11.204  0.2679  1.0931  0.0662
  705MOL0     C95101   8.226   5.910  11.156  0.7623  0.2918 -0.2496
  705MOL0     C95102   8.341   5.955  11.260  0.3169 -0.1450 -0.2127
  705MOL0     C95103   8.419   5.840  11.274  0.0286 -0.6765  1.4141
  705MOL0     C95104   8.495   5.741  11.280 -0.6520  0.1071 -0.8904
  705MOL0     C95105   7.767   5.793  10.935 -0.3992 -0.0278 -0.7396
  705MOL0     C95106   7.641   5.794  10.870 -0.4519  0.5783 -0.0488
  705MOL0     C95107   7.631   5.864  10.743  0.6552  0.6614  0.5751
  705MOL0     H95108   7.175   5.477  11.035  0.6518 -0.1392  0.1268
  705MOL0     H95109   6.952   5.377  10.932  1.1458 -0.2299 -1.9844
  705MOL0     H95110   6.848   5.279  10.782  3.7541  4.9355  1.5775
  705MOL0     H95111   6.700   5.356  10.845 -0.4229  0.1271 -0.9247
  705MOL0     H95112   6.762   5.277  10.565 -1.7656  1.5280 -1.5587
  705MOL0     H95113   6.616   5.369  10.598 -1.4180  2.1058  4.0864
  705MOL0     H95114   6.667   5.078  10.693 -1.6179  0.5159  2.5853
  705MOL0     H95115   6.585   5.119  10.552  0.0491 -0.6143  1.4942
  705MOL0     H95116   6.445   5.073  10.769 -1.0319  0.0876  0.5358
  705MOL0     H95117   6.528   5.200  10.849 -0.3173  0.5795 -0.7499
  705MOL0     H95118   6.411   5.304  10.599 -2.8891  0.3624 -0.4759
  705MOL0     H95119   6.306   5.187  10.670  2.6778 -2.5817 -0.6249
  705MOL0     H95120   6.322   5.308  10.883  0.2591 -3.7636 -2.7668
  705MOL0     H95121   6.425   5.436  10.812 -0.6341 -0.0457 -0.2106
  705MOL0     H95122   6.119   5.381  10.761 -0.7582  1.1419 -0.7562
  705MOL0     H95123   6.223   5.508  10.675  1.2661 -0.4346  0.6480
  705MOL0     H95124   6.214   5.494  10.976  0.6678  3.0226  1.1456
  705MOL0     H95125   6.224   5.627  10.867 -0.2441 -0.8888 -0.7244
  705MOL0     H95126   6.007   5.753  10.777  2.7452 -1.0362  2.0809
  705MOL0     H95127   5.676   5.815  10.921  0.9709 -1.3422  0.7587
  705MOL0     H95128   5.741   5.844  10.764 -1.0912  0.1737 -1.0308
  705MOL0     H95129   5.613   5.584  10.834  3.3024 -0.2428  0.9034
  705MOL0     H95130   5.535   5.722  10.758  0.0420  0.6181 -0.7886
  705MOL0     H95131   5.772   5.561  10.648 -3.0081 -3.4368  0.2996
  705MOL0     H95132   5.709   5.715  10.579 -4.1117 -1.7221 -2.6195
  705MOL0     H95133   5.554   5.467  10.608 -1.5174 -2.7430 -3.9238
  705MOL0     H95134   5.648   5.531  10.461 -1.5825  2.5717 -2.5715
  705MOL0     H95135   5.334   5.553  10.335  3.4872 -2.7221  0.3237
  705MOL0     H95136   5.324   5.638  10.107 -1.0904 -3.7374  3.1557
  705MOL0     H95137   5.266   6.049   9.923  4.0691  1.8405 -0.6505
  705MOL0     H95138   5.198   6.169   9.729  2.1214  0.1157 -0.5415
  705MOL0     H95139   5.367   6.221   9.501  1.0291 -1.2678 -0.1643
  705MOL0     H95140   5.372   6.133   9.359  4.3381  2.5002  1.5650
  705MOL0     H95141   5.316   6.344   9.300 -0.9888  1.0481  0.0314
  705MOL0     H95142   5.173   6.257   9.258  1.6965  0.6230 -1.0415
  705MOL0     H95143   5.083   6.422   9.355 -1.8595  0.4594  1.0904
  705MOL0     H95144   5.065   6.317   9.479  1.8744  0.2722  0.7705
  705MOL0     H95145   5.313   6.518   9.468 -0.8354  0.9541 -2.2956
  705MOL0     H95146   5.256   6.441   9.615 -1.0754 -3.9772 -0.2136
  705MOL0     H95147   5.098   6.642   9.448 -3.3001 -0.1955  1.2065
  705MOL0     H95148   5.221   6.668   9.584  0.8012 -1.4977  0.6558
  705MOL0     H95149   4.940   6.603   9.603 -0.1279  1.1438  2.4632
  705MOL0     H95150   5.052   6.510   9.708  1.3311 -1.1237 -1.1743
  705MOL0     H95151   5.024   6.822   9.695 -3.2932  1.4408  2.3772
  705MOL0     H95152   5.138   6.719   9.800  1.5665  2.5624 -1.5381
  705MOL0     H95153   4.850   6.650   9.823  0.5092  0.2437 -1.2074
  705MOL0     H95154   4.987   6.678   9.939 -0.0156 -1.2225 -1.5330
  705MOL0     H95155   5.306   5.851   9.471  1.6798 -1.4045 -0.0337
  705MOL0     H95156   5.400   5.725   9.662  0.7415  0.1682 -0.9422
  705MOL0     H95157   5.628   5.928  10.226 -2.5979  2.9366  0.9465
  705MOL0     H95158   5.615   5.848  10.444  0.7019 -0.6030 -0.9214
  705MOL0     H95159   6.948   5.697  10.660 -0.0160 -1.2352 -1.4584
  705MOL0     H95160   7.149   5.783  10.744 -0.1197  0.8311  1.9039
  705MOL0     H95161   7.472   5.642  11.120 -1.4784 -1.5819 -2.4042
  705MOL0     H95162   7.681   5.655  11.227 -2.9738  1.4444  0.3551
  705MOL0     H95163   7.979   5.907  11.045  0.8080  0.5485  0.6353
  705MOL0     H95164   8.053   5.744  11.010  0.9458  0.1839  0.6961
  705MOL0     H95165   8.162   5.724  11.226  1.6945  0.9473 -3.1137
  705MOL0     H95166   8.057   5.850  11.292 -0.7401  0.9966 -0.5461
  705MOL0     H95167   8.172   5.998  11.119  0.4042 -0.9112 -2.8168
  705MOL0     H95168   8.267   5.863  11.066 -3.3389 -0.7074 -1.8226
  705MOL0     H95169   8.411   6.031  11.225 -0.2837  1.2582  1.4845
  705MOL0     H95170   8.313   6.003  11.354 -0.2741  2.1748 -1.5008
  705MOL0     H95171   8.569   5.664  11.285  0.2211  0.9966  0.4587
  705MOL0     H95172   7.843   5.850  10.883 -0.5431  0.4522 -0.4351
  705MOL0     H95173   7.527   5.893  10.725 -0.3980 -1.7397  2.2713
  705MOL0     H95174   7.705   5.944  10.734  3.4259 -1.8430 -0.6202
  705MOL0     H95175   7.657   5.787  10.669  0.1840  1.7591 -0.7780
  706MOL0     O95176   0.471   2.339   7.541 -0.4595 -0.0845 -0.5257
  706MOL0     C95177   0.482   2.459   7.505 -0.2736  0.0685  0.4647
  706MOL0     O95178   0.516   2.495   7.378 -0.4473  0.9797 -1.1633
  706MOL0     C95179   0.541   2.404   7.285 -0.6527 -0.4700  0.4218
  706MOL0     C95180   0.672   2.374   7.248 -0.0380  0.7542 -0.1927
  706MOL0     C95181   0.697   2.267   7.151  0.0349 -0.8363 -0.0405
  706MOL0     C95182   0.590   2.207   7.085  0.1329  0.2193  0.2639
  706MOL0     O95183   0.604   2.114   6.984  0.5889  0.6479 -0.8603
  706MOL0     C95184   0.712   2.025   6.969  0.0475  0.5798 -0.3074
  706MOL0     C95185   0.757   1.985   6.824  1.4037 -0.3393  0.1396
  706MOL0     C95186   0.810   2.118   6.753 -0.4560  0.5382 -0.6174
  706MOL0     C95187   0.826   2.075   6.612 -0.5564  0.5149  0.3891
  706MOL0     C95188   0.882   2.202   6.532 -0.6058  0.8184 -0.9433
  706MOL0     C95189   0.926   2.154   6.401  0.4371 -0.0271 -0.7449
  706MOL0     C95190   0.817   2.101   6.315  0.0738 -0.7078 -0.8844
  706MOL0     C95191   0.880   2.048   6.179  0.6579 -0.3830  0.5532
  706MOL0     N95192   0.764   2.008   6.095  0.2801  0.7325 -0.4138
  706MOL0     C95193   0.677   1.894   6.120 -1.0046 -0.9693  0.1282
  706MOL0     C95194   0.591   1.902   6.016  0.9486 -0.3101 -0.1737
  706MOL0     C95195   0.490   1.790   5.989 -0.3786 -0.0348 -0.3989
  706MOL0     C95196   0.547   1.685   5.890 -0.5563 -0.0615  0.9043
  706MOL0     C95197   0.615   1.748   5.769  0.3891 -0.1154  1.0349
  706MOL0     C95198   0.651   1.637   5.672  0.4268  0.2565  0.7572
  706MOL0     O95199   0.726   1.692   5.561  0.5423 -0.2365  0.5034
  706MOL0     C95200   0.650   1.725   5.443 -0.2616 -0.0410  0.2207
  706MOL0     C95201   0.511   1.723   5.429  0.1119 -0.8036  0.3398
  706MOL0     C95202   0.443   1.758   5.313 -0.0194 -0.6016  0.0706
  706MOL0     C95203   0.511   1.814   5.207  0.2346  0.9503 -0.4429
  706MOL0     C95204   0.437   1.864   5.081  0.4867 -0.0601  0.5629
  706MOL0     O95205   0.295   1.840   5.086 -0.5445 -0.6731 -0.1684
  706MOL0     C95206   0.210   1.873   4.985  0.2424  0.3429 -0.7618
  706MOL0     C95207   0.216   1.986   4.909  0.3652 -1.0949 -0.4520
  706MOL0     C95208   0.115   2.003   4.810  0.1853  0.2135  0.0916
  706MOL0     C95209   0.008   1.917   4.783 -0.1647 -0.0931  0.3240
  706MOL0     O95210  -0.082   1.944   4.683 -0.1211  1.2127  0.0584
  706MOL0     C95211  -0.221   1.900   4.706 -0.4463 -0.2990  0.6179
  706MOL0     C95212  -0.314   1.950   4.589  0.6902 -0.7859 -0.8795
  706MOL0     C95213  -0.299   1.853   4.467  0.7425  0.1487  0.4431
  706MOL0     C95214  -0.149   1.837   4.428 -0.1447  0.8005  0.0687
  706MOL0     C95215  -0.124   1.818   4.283  0.6696 -0.1011  0.2177
  706MOL0     C95216   0.032   1.818   4.262  0.0740 -0.9165 -0.2772
  706MOL0     C95217   0.055   1.759   4.119  0.2285  0.6639 -0.0672
  706MOL0     C95218   0.204   1.742   4.113 -0.1327 -0.2430  0.2591
  706MOL0    Cl95219   0.289   1.904   4.094  0.1427  0.0060 -0.2964
  706MOL0     C95220   0.006   1.806   4.868  0.6687 -0.0594 -0.7423
  706MOL0     C95221   0.101   1.779   4.959 -0.2647  0.0975 -0.5134
  706MOL0     O95222   0.492   1.923   4.988  0.0148  0.8394  0.0630
  706MOL0     C95223   0.656   1.819   5.221  0.9289 -0.7797  0.2045
  706MOL0     C95224   0.728   1.779   5.335  0.0564 -0.3905  0.2762
  706MOL0     N95225   0.611   2.030   5.953 -0.0697 -0.1543 -0.2355
  706MOL0     N95226   0.709   2.094   6.004  0.2831 -0.3945 -0.0233
  706MOL0     C95227   0.461   2.249   7.110 -0.0271  0.8561  0.0463
  706MOL0     C95228   0.432   2.345   7.209 -0.5068  0.8202 -0.6481
  706MOL0     C95229   0.449   2.573   7.607  0.3421  0.2137  0.0271
  706MOL0     C95230   0.326   2.573   7.691 -0.8960 -0.2396  1.1240
  706MOL0     C95231   0.304   2.673   7.780 -0.2379  0.9020  0.5314
  706MOL0     C95232   0.396   2.776   7.800 -0.8367  0.2133 -0.5906
  706MOL0     O95233   0.391   2.877   7.894 -0.5069  0.8168  1.2976
  706MOL0     C95234   0.296   2.874   8.001 -0.8849  0.3375 -1.0855
  706MOL0     C95235   0.333   2.967   8.111  0.2916  0.2928 -0.4336
  706MOL0     C95236   0.236   2.996   8.219  0.4195 -0.1934  0.2180
  706MOL0     C95237   0.288   3.090   8.318 -0.5866  0.1521  0.9447
  706MOL0     C95238   0.188   3.118   8.420 -0.4586  0.3715 -0.1276
  706MOL0     C95239   0.101   3.145   8.498  0.0591 -0.2807  0.5761
  706MOL0     C95240   0.503   2.787   7.707  0.3564 -0.0058  0.3176
  706MOL0     C95241   0.532   2.688   7.618 -1.4349 -0.8930  0.9595
  706MOL0     C95242   0.662   2.694   7.531  0.7551 -0.2335 -0.1631
  706MOL0     H95243   0.757   2.428   7.289  1.2407 -1.6476  0.5107
  706MOL0     H95244   0.799   2.251   7.120 -0.5675 -0.2553 -2.4834
  706MOL0     H95245   0.797   2.081   7.009 -0.2310 -1.2567  3.3248
  706MOL0     H95246   0.701   1.931   7.024 -0.6765  1.8760  1.9426
  706MOL0     H95247   0.679   1.950   6.756  1.8015  0.6629 -0.8819
  706MOL0     H95248   0.836   1.911   6.806  1.1684  0.4299 -6.8999
  706MOL0     H95249   0.905   2.152   6.795 -2.0454  2.4752  1.7224
  706MOL0     H95250   0.738   2.198   6.775  0.6747  1.3201  0.3336
  706MOL0     H95251   0.895   1.990   6.603  1.4614  2.2936 -4.7914
  706MOL0     H95252   0.730   2.046   6.567  0.8363 -0.5888 -2.1018
  706MOL0     H95253   0.809   2.284   6.531 -0.5334  0.8883 -2.4506
  706MOL0     H95254   0.972   2.247   6.575 -0.0967  2.1439 -3.2185
  706MOL0     H95255   0.978   2.231   6.343  0.5301  0.7305  0.3217
  706MOL0     H95256   0.993   2.072   6.428  0.5270  0.0099 -0.8561
  706MOL0     H95257   0.752   2.184   6.285  1.8346  0.8776 -0.5339
  706MOL0     H95258   0.767   2.014   6.358  1.4102 -1.6547 -1.2103
  706MOL0     H95259   0.935   2.126   6.126  2.0404 -0.4670  1.8057
  706MOL0     H95260   0.939   1.959   6.204  2.4992  1.2002  2.1625
  706MOL0     H95261   0.688   1.810   6.188 -2.5713 -0.8634  0.5585
  706MOL0     H95262   0.471   1.732   6.081  1.2263 -0.2536 -0.1659
  706MOL0     H95263   0.391   1.827   5.964  0.7902  1.8946 -2.5506
  706MOL0     H95264   0.621   1.624   5.944 -1.0177 -1.7234 -0.2782
  706MOL0     H95265   0.458   1.628   5.861 -0.7289  0.2417  0.8447
  706MOL0     H95266   0.707   1.794   5.805 -0.3460  3.5002 -1.1437
  706MOL0     H95267   0.562   1.831   5.720 -2.8466 -2.3174  0.4263
  706MOL0     H95268   0.557   1.583   5.656  0.5716  0.9185 -3.7602
  706MOL0     H95269   0.729   1.576   5.719  0.1835  1.2800  2.5826
  706MOL0     H95270   0.453   1.701   5.518  0.3236  1.7855  1.2174
  706MOL0     H95271   0.336   1.741   5.316 -0.3177  0.8338 -1.4772
  706MOL0     H95272   0.293   2.062   4.925  1.2520 -1.7429 -1.5204
  706MOL0     H95273   0.127   2.086   4.741  0.6710 -0.1373 -0.2521
  706MOL0     H95274  -0.230   1.792   4.715 -3.3415 -0.6605 -3.7606
  706MOL0     H95275  -0.252   1.942   4.802  0.1504 -0.2806  0.8094
  706MOL0     H95276  -0.420   1.937   4.611  0.3170 -0.7014 -2.4966
  706MOL0     H95277  -0.287   2.052   4.561 -1.2903  0.5143  1.5438
  706MOL0     H95278  -0.361   1.765   4.482 -1.5125  1.5029 -0.4246
  706MOL0     H95279  -0.347   1.892   4.376 -0.9756 -3.3720 -0.3245
  706MOL0     H95280  -0.111   1.746   4.476  0.1438  1.4609  1.1220
  706MOL0     H95281  -0.082   1.920   4.453  1.3051 -0.0514 -0.8049
  706MOL0     H95282  -0.178   1.887   4.217  0.9385 -0.6296 -0.5748
  706MOL0     H95283  -0.164   1.722   4.249  1.8215 -1.4156  2.3197
  706MOL0     H95284   0.070   1.921   4.262  3.0817 -1.9302 -0.9091
  706MOL0     H95285   0.092   1.759   4.331 -2.0786 -1.8472  0.8960
  706MOL0     H95286   0.028   1.827   4.037  2.3932  1.8864  0.1619
  706MOL0     H95287   0.004   1.663   4.109  3.6488 -1.4032  0.8503
  706MOL0     H95288   0.245   1.692   4.200  1.4907 -3.1800 -2.0197
  706MOL0     H95289   0.220   1.674   4.029 -4.9997 -1.7448  0.2112
  706MOL0     H95290  -0.080   1.741   4.861  0.6177 -0.1653  0.5714
  706MOL0     H95291   0.093   1.693   5.025 -0.1206  2.4465  2.8377
  706MOL0     H95292   0.710   1.867   5.140  0.9018  2.3705  1.8790
  706MOL0     H95293   0.835   1.771   5.350 -0.3659 -1.4967  3.6259
  706MOL0     H95294   0.383   2.204   7.050 -0.1970 -1.1885  1.7046
  706MOL0     H95295   0.326   2.369   7.217 -1.1695 -1.7362 -0.8335
  706MOL0     H95296   0.258   2.489   7.685  1.2492 -2.3059  3.3497
  706MOL0     H95297   0.225   2.658   7.852 -0.7603 -0.0746 -0.2186
  706MOL0     H95298   0.291   2.775   8.047 -1.7400  1.6790  1.9320
  706MOL0     H95299   0.195   2.898   7.965 -1.7498 -1.4624  0.0082
  706MOL0     H95300   0.348   3.069   8.074 -2.9014  0.4299 -1.6910
  706MOL0     H95301   0.421   2.929   8.164  1.5297  3.9015  0.3790
  706MOL0     H95302   0.225   2.901   8.272  4.1392  0.6454  2.9921
  706MOL0     H95303   0.143   3.034   8.177  1.3868  0.9082 -1.0344
  706MOL0     H95304   0.372   3.048   8.375 -1.1453 -1.2935  0.7276
  706MOL0     H95305   0.335   3.177   8.271  0.3512 -1.2665 -0.9087
  706MOL0     H95306   0.014   3.155   8.561  2.5596 -0.6470  4.4435
  706MOL0     H95307   0.564   2.876   7.722 -1.1568  0.6703  3.5119
  706MOL0     H95308   0.633   2.731   7.432  2.8259 -1.5884 -1.3673
  706MOL0     H95309   0.728   2.766   7.580 -0.7587  0.1105  1.4249
  706MOL0     H95310   0.712   2.597   7.518 -1.4647 -1.2640 -1.6349
  707MOL0     O95311   0.481   2.631   6.703 -0.1876  0.2457 -0.1307
  707MOL0     C95312   0.357   2.651   6.709  0.0377  0.0887 -0.1551
  707MOL0     O95313   0.303   2.777   6.681 -0.1224  0.1445 -0.5197
  707MOL0     C95314   0.396   2.876   6.668  0.7196 -0.2795 -0.6215
  707MOL0     C95315   0.402   2.967   6.773  0.8222  0.7343  0.5434
  707MOL0     C95316   0.474   3.079   6.772 -0.1710  0.2255  0.0230
  707MOL0     C95317   0.556   3.110   6.654  0.2423  0.3706 -2.0845
  707MOL0     O95318   0.647   3.210   6.644  0.0102  0.4870  0.1244
  707MOL0     C95319   0.665   3.295   6.758  0.0749 -0.6238  0.1422
  707MOL0     C95320   0.755   3.412   6.720  0.3188 -0.4160  0.0029
  707MOL0     C95321   0.911   3.374   6.716 -0.4352 -0.2863 -0.2608
  707MOL0     C95322   1.009   3.483   6.687  0.1080 -0.0602  0.6804
  707MOL0     C95323   1.155   3.437   6.661 -0.0835  0.9147 -0.2787
  707MOL0     C95324   1.254   3.547   6.624 -0.3663 -0.6157 -0.3889
  707MOL0     C95325   1.245   3.591   6.474  0.1042 -0.3700 -0.3232
  707MOL0     C95326   1.284   3.479   6.374 -0.1459 -0.0861  0.1724
  707MOL0     N95327   1.413   3.421   6.406  0.2283  0.5152  0.7962
  707MOL0     C95328   1.450   3.286   6.409  0.6155  0.0360  0.3222
  707MOL0     C95329   1.580   3.282   6.432  0.1718 -1.0092 -0.2723
  707MOL0     C95330   1.658   3.155   6.444 -1.0939  0.1975  0.6421
  707MOL0     C95331   1.704   3.110   6.590  0.0654  0.5125 -0.5347
  707MOL0     C95332   1.589   3.117   6.688  0.6437  0.5669  0.2337
  707MOL0     C95333   1.614   3.029   6.820  0.4711 -0.6081  0.4657
  707MOL0     O95334   1.602   2.889   6.792  0.3967  0.3991  0.3593
  707MOL0     C95335   1.597   2.794   6.883 -0.4560  0.4270  0.4564
  707MOL0     C95336   1.539   2.674   6.842  0.0797 -0.3086  0.7209
  707MOL0     C95337   1.523   2.567   6.927 -0.1305  0.7016 -0.1460
  707MOL0     C95338   1.572   2.576   7.061 -0.6976 -0.5772  0.6304
  707MOL0     C95339   1.549   2.464   7.153 -0.0287 -1.2939 -0.1222
  707MOL0     O95340   1.421   2.423   7.172  0.1411 -0.0561 -0.5736
  707MOL0     C95341   1.314   2.488   7.131  0.7446  0.3403 -0.3580
  707MOL0     C95342   1.240   2.435   7.025 -0.5269 -0.5111 -0.4679
  707MOL0     C95343   1.117   2.487   6.992  0.6224  0.2305 -0.1704
  707MOL0     C95344   1.067   2.600   7.048 -1.1302 -0.5612 -0.4893
  707MOL0     O95345   0.950   2.655   7.023 -0.2191  0.8319  0.0787
  707MOL0     C95346   0.836   2.574   6.991 -0.0792 -0.2635 -0.4645
  707MOL0     C95347   0.781   2.603   6.856  0.2708  0.8364 -0.1551
  707MOL0     C95348   0.891   2.618   6.749  0.7195 -0.2517 -0.0318
  707MOL0     C95349   0.848   2.643   6.600 -0.2763  0.1688 -0.0000
  707MOL0     C95350   0.967   2.666   6.507  0.2652 -0.8962 -0.6579
  707MOL0     C95351   0.908   2.691   6.365 -0.4598  0.6360  0.8452
  707MOL0     C95352   1.014   2.726   6.259 -0.3998  0.1916  0.5538
  707MOL0     C95353   1.048   2.598   6.183  0.3311  0.8025 -0.1456
  707MOL0    Cl95354   0.914   2.551   6.060 -0.6621 -0.0434 -0.5396
  707MOL0     C95355   1.143   2.656   7.147 -0.7666  0.0046  0.1642
  707MOL0     C95356   1.254   2.599   7.195 -0.7109  0.3267  0.2061
  707MOL0     O95357   1.645   2.422   7.217  0.3502 -0.6604  0.2655
  707MOL0     C95358   1.628   2.696   7.104  0.1208  0.0267 -0.0156
  707MOL0     C95359   1.641   2.799   7.014  0.5838  0.0359  0.1516
  707MOL0     N95360   1.623   3.415   6.426 -0.7475 -1.2517  0.1964
  707MOL0     N95361   1.524   3.491   6.426 -0.3057 -0.2958  0.5711
  707MOL0     C95362   0.552   3.011   6.558 -0.3866 -0.1012 -0.1838
  707MOL0     C95363   0.472   2.898   6.561  0.9275  0.2894  1.0049
  707MOL0     C95364   0.263   2.545   6.735 -1.6698 -0.0432 -0.4957
  707MOL0     C95365   0.313   2.430   6.788 -0.3618 -1.2717 -0.2620
  707MOL0     C95366   0.249   2.313   6.797  0.3044  0.9373 -1.0271
  707MOL0     C95367   0.118   2.303   6.766  0.7148  0.2381 -0.6458
  707MOL0     O95368   0.043   2.195   6.752  0.6904  0.2302  0.0550
  707MOL0     C95369   0.078   2.084   6.834  0.3701 -0.0581  0.7701
  707MOL0     C95370  -0.039   1.992   6.867 -0.1327 -0.3092  0.2298
  707MOL0     C95371  -0.093   1.915   6.743 -0.0929  0.4647 -0.3865
  707MOL0     C95372  -0.200   1.807   6.779  0.4737  0.1489 -0.8016
  707MOL0     C95373  -0.133   1.685   6.828  0.3097 -0.9130  0.1844
  707MOL0     C95374  -0.075   1.590   6.883  0.2809 -0.5474 -0.0708
  707MOL0     C95375   0.058   2.424   6.741  0.1593  0.2138  0.4504
  707MOL0     C95376   0.126   2.545   6.724 -1.1684  0.0121 -1.6771
  707MOL0     C95377   0.050   2.672   6.688 -0.2233  0.2275 -0.1485
  707MOL0     H95378   0.332   2.952   6.854 -2.5401  3.0289 -1.6526
  707MOL0     H95379   0.468   3.130   6.868  0.2965  0.9624 -0.3306
  707MOL0     H95380   0.565   3.325   6.789 -1.4952 -1.4111 -3.6498
  707MOL0     H95381   0.723   3.237   6.831  1.2006 -2.5734 -2.1646
  707MOL0     H95382   0.750   3.494   6.793 -0.9583 -1.1519  0.7713
  707MOL0     H95383   0.718   3.455   6.627 -0.6319 -1.0510  0.0798
  707MOL0     H95384   0.928   3.297   6.640 -2.7247 -1.2027  0.0621
  707MOL0     H95385   0.922   3.324   6.813  3.5936 -2.9965 -1.8440
  707MOL0     H95386   0.963   3.552   6.616  2.1412  0.7468  0.0469
  707MOL0     H95387   1.012   3.539   6.781  1.3071  0.9587  0.0660
  707MOL0     H95388   1.203   3.376   6.738  3.2340  3.1349 -0.3752
  707MOL0     H95389   1.156   3.371   6.574  3.2176  0.4314 -0.0000
  707MOL0     H95390   1.226   3.638   6.678  4.0790  0.9832 -0.3588
  707MOL0     H95391   1.353   3.520   6.662 -1.6142 -1.4195  2.5576
  707MOL0     H95392   1.313   3.673   6.450  0.6445 -0.3513  1.1806
  707MOL0     H95393   1.143   3.620   6.446 -0.5984  0.1942  2.5102
  707MOL0     H95394   1.206   3.402   6.360  1.5109 -1.9168  0.5421
  707MOL0     H95395   1.305   3.527   6.278 -2.8919  0.7208 -0.1376
  707MOL0     H95396   1.393   3.195   6.393  0.1784  0.2688  0.5308
  707MOL0     H95397   1.589   3.077   6.411 -1.6638  1.6445 -1.9020
  707MOL0     H95398   1.742   3.164   6.374 -1.1943  2.3336  0.7140
  707MOL0     H95399   1.735   3.006   6.574  3.8316  1.1226  1.5918
  707MOL0     H95400   1.788   3.171   6.624 -1.3507  1.8575  0.7466
  707MOL0     H95401   1.491   3.092   6.645  0.2421  1.0348  0.8501
  707MOL0     H95402   1.562   3.218   6.719 -1.7562 -0.4231  1.7109
  707MOL0     H95403   1.536   3.063   6.889 -0.6841 -1.7140 -0.2452
  707MOL0     H95404   1.712   3.052   6.862  0.8032  1.2863 -1.1782
  707MOL0     H95405   1.494   2.676   6.743  0.1210  0.4214  0.7133
  707MOL0     H95406   1.469   2.484   6.883 -3.3140  2.7304 -0.3877
  707MOL0     H95407   1.275   2.352   6.965 -1.1186 -0.1671 -1.3152
  707MOL0     H95408   1.052   2.445   6.916 -0.9755 -0.4127  1.4670
  707MOL0     H95409   0.858   2.471   7.018 -4.5022 -1.4630 -0.6312
  707MOL0     H95410   0.760   2.606   7.062  0.3362 -1.8049  0.7152
  707MOL0     H95411   0.707   2.526   6.830  0.6288  0.5314 -0.2808
  707MOL0     H95412   0.728   2.699   6.858 -0.0817  0.6388  0.2401
  707MOL0     H95413   0.948   2.705   6.784  0.6597 -1.7873  4.5873
  707MOL0     H95414   0.951   2.526   6.751  1.0435 -0.0285  0.9812
  707MOL0     H95415   0.779   2.728   6.602 -1.0145 -0.3885 -0.8969
  707MOL0     H95416   0.785   2.564   6.558  0.8264  0.7303 -2.9421
  707MOL0     H95417   1.049   2.594   6.518 -0.3605 -1.9897 -2.7496
  707MOL0     H95418   0.998   2.763   6.547 -1.6329  0.2645 -1.8782
  707MOL0     H95419   0.861   2.597   6.333 -0.0997  0.6247  0.3354
  707MOL0     H95420   0.825   2.761   6.376 -0.4713  0.4755  1.8970
  707MOL0     H95421   1.097   2.766   6.318 -1.9540  2.5930  1.2999
  707MOL0     H95422   0.984   2.803   6.186 -0.3661  0.2514  0.6034
  707MOL0     H95423   1.146   2.602   6.135 -0.5319  2.2016 -1.8875
  707MOL0     H95424   1.049   2.519   6.259  0.6419  0.0783 -0.8901
  707MOL0     H95425   1.129   2.751   7.198  5.3475  1.2080  0.4119
  707MOL0     H95426   1.305   2.636   7.283 -0.5988  0.4336  0.0968
  707MOL0     H95427   1.676   2.706   7.200  3.0587 -0.1966 -1.3551
  707MOL0     H95428   1.685   2.892   7.048  0.0654  0.6666 -0.8627
  707MOL0     H95429   0.615   3.031   6.471  1.8497  0.2388  1.4236
  707MOL0     H95430   0.474   2.837   6.472 -0.6594  1.0400  0.4244
  707MOL0     H95431   0.419   2.427   6.812  0.0875 -0.2530 -1.9234
  707MOL0     H95432   0.311   2.226   6.818 -1.6606 -0.7603 -1.8419
  707MOL0     H95433   0.122   2.121   6.927  0.3095 -1.5365  1.4109
  707MOL0     H95434   0.162   2.029   6.791  1.8034  0.1548  3.1665
  707MOL0     H95435  -0.124   2.046   6.911 -0.0102  1.9363 -2.0473
  707MOL0     H95436  -0.008   1.922   6.945 -0.1470  0.8906  1.3651
  707MOL0     H95437  -0.007   1.861   6.702  0.7418  0.4018  1.3490
  707MOL0     H95438  -0.132   1.983   6.666  1.5991  2.6458  0.5878
  707MOL0     H95439  -0.270   1.842   6.855  1.9180 -0.4133  0.8678
  707MOL0     H95440  -0.266   1.777   6.697 -1.2808  0.6255  0.3925
  707MOL0     H95441  -0.022   1.514   6.937 -0.1863 -1.4080 -0.8019
  707MOL0     H95442  -0.048   2.411   6.722  0.6820 -3.5829 -0.6938
  707MOL0     H95443  -0.056   2.652   6.677 -0.0791 -0.1817 -0.8304
  707MOL0     H95444   0.047   2.737   6.776 -1.0188  1.0495 -0.7672
  707MOL0     H95445   0.097   2.715   6.599 -0.6770 -1.6305 -1.3228
  708MOL0     O95446   1.097   7.168   9.304  0.0172  0.6770 -0.2880
  708MOL0     C95447   1.154   7.061   9.332 -0.8732  0.9010  0.1851
  708MOL0     O95448   1.206   7.026   9.457  0.0987 -0.1161  0.5020
  708MOL0     C95449   1.176   7.116   9.555  0.5586  0.2632 -0.4296
  708MOL0     C95450   1.075   7.099   9.651  0.2756 -0.1259 -0.4504
  708MOL0     C95451   1.052   7.189   9.751 -0.8325 -0.6164 -0.4693
  708MOL0     C95452   1.123   7.309   9.754 -1.0131 -0.1073 -0.5213
  708MOL0     O95453   1.081   7.396   9.852 -0.3469  0.5032 -1.1094
  708MOL0     C95454   1.047   7.530   9.826  0.3769 -0.3036 -0.8067
  708MOL0     C95455   0.916   7.540   9.749  0.1789  0.6773  0.2587
  708MOL0     C95456   0.802   7.472   9.830  0.6527 -0.2569  0.2543
  708MOL0     C95457   0.676   7.486   9.735  0.4729  0.0691 -0.7049
  708MOL0     C95458   0.554   7.430   9.797 -0.2958 -0.5656 -0.2919
  708MOL0     C95459   0.568   7.275   9.841  0.3925  0.4719  0.0103
  708MOL0     C95460   0.562   7.177   9.729 -0.3619  0.0991  1.2887
  708MOL0     C95461   0.616   7.035   9.772 -0.1230 -0.1745 -0.2387
  708MOL0     N95462   0.629   6.946   9.656 -0.7361  0.8233 -0.4808
  708MOL0     C95463   0.737   6.946   9.574 -0.0338 -0.0954 -0.0510
  708MOL0     C95464   0.709   6.860   9.473 -0.2792  0.4502  0.3770
  708MOL0     C95465   0.793   6.839   9.353 -0.0974 -0.0886 -0.1685
  708MOL0     C95466   0.774   6.946   9.243  0.7738 -0.6258  0.5913
  708MOL0     C95467   0.630   6.960   9.182 -0.7415 -1.2784 -0.0193
  708MOL0     C95468   0.609   6.837   9.094  0.0208 -0.6934 -0.4915
  708MOL0     O95469   0.705   6.845   8.988 -0.0146  1.3844 -0.0749
  708MOL0     C95470   0.730   6.740   8.911 -0.6778  0.5087  0.3201
  708MOL0     C95471   0.811   6.761   8.795 -1.1387  0.4946  0.0336
  708MOL0     C95472   0.843   6.655   8.701  0.3289  0.7194  0.1009
  708MOL0     C95473   0.786   6.523   8.719  1.4262  0.1393 -0.6558
  708MOL0     C95474   0.806   6.414   8.620  0.8781  0.5637 -0.4357
  708MOL0     O95475   0.764   6.289   8.666  0.6056  0.3231 -0.7363
  708MOL0     C95476   0.781   6.173   8.591 -0.2923 -0.5703 -0.1706
  708MOL0     C95477   0.911   6.118   8.578 -0.1448 -0.4955  0.4983
  708MOL0     C95478   0.921   5.999   8.503 -0.3645  0.5639 -0.6905
  708MOL0     C95479   0.808   5.929   8.450 -0.5144  0.4050  0.0924
  708MOL0     O95480   0.818   5.813   8.369 -1.5296 -0.1277 -0.1716
  708MOL0     C95481   0.791   5.841   8.231 -0.5480  0.2093  0.9199
  708MOL0     C95482   0.726   5.711   8.178 -0.4143  1.3449  0.8337
  708MOL0     C95483   0.600   5.676   8.249  0.2595  0.3567 -0.6776
  708MOL0     C95484   0.532   5.544   8.192  0.3313  0.9448  0.5661
  708MOL0     C95485   0.457   5.558   8.058 -0.1176  0.0739  0.2070
  708MOL0     C95486   0.361   5.435   8.044  0.0146 -0.7575  0.4077
  708MOL0     C95487   0.436   5.310   8.019  0.3494 -0.1368 -1.0257
  708MOL0     C95488   0.353   5.195   7.973 -0.1619 -1.1672 -0.9768
  708MOL0    Cl95489   0.456   5.054   7.996  0.1195  0.1803 -0.1147
  708MOL0     C95490   0.680   5.983   8.479  0.2350 -0.1786  0.1380
  708MOL0     C95491   0.670   6.109   8.541  0.2387  1.3264  0.2321
  708MOL0     O95492   0.873   6.442   8.522 -0.9211  0.1586  0.2605
  708MOL0     C95493   0.694   6.509   8.828 -0.0370 -0.7807 -0.1139
  708MOL0     C95494   0.663   6.611   8.918 -0.2495 -0.2870 -0.1987
  708MOL0     N95495   0.594   6.803   9.504  1.3463  0.3264  0.1468
  708MOL0     N95496   0.542   6.846   9.617 -1.0947 -0.3395 -0.3298
  708MOL0     C95497   1.230   7.322   9.666  1.2507 -0.0160  0.0893
  708MOL0     C95498   1.252   7.227   9.568 -0.9853  0.1475 -0.2516
  708MOL0     C95499   1.147   6.938   9.244 -0.2179 -0.2581  0.2785
  708MOL0     C95500   1.168   6.813   9.303 -1.4497  0.5024  0.6268
  708MOL0     C95501   1.152   6.690   9.231  1.0541 -0.1226 -0.0345
  708MOL0     C95502   1.132   6.700   9.091  0.1220  0.2483  0.1897
  708MOL0     O95503   1.110   6.597   9.003  0.9200  0.0544  0.3614
  708MOL0     C95504   1.092   6.461   9.048  0.4710 -0.1628  1.1560
  708MOL0     C95505   1.095   6.353   8.940  0.9069  0.6268 -0.8246
  708MOL0     C95506   1.246   6.326   8.902  0.1617  0.1914  0.6605
  708MOL0     C95507   1.244   6.252   8.765 -0.1773 -0.0356 -0.9296
  708MOL0     C95508   1.380   6.233   8.730 -1.0872  0.5623  0.2128
  708MOL0     C95509   1.491   6.225   8.690 -0.4177 -0.0952  0.1804
  708MOL0     C95510   1.127   6.830   9.034  0.3924 -0.4224 -0.8184
  708MOL0     C95511   1.122   6.949   9.106  0.0741  0.5923 -0.2113
  708MOL0     C95512   1.086   7.078   9.035  0.1470 -0.1705 -0.1093
  708MOL0     H95513   1.022   7.004   9.657  2.1879 -1.2816 -1.1483
  708MOL0     H95514   0.973   7.174   9.824  1.1291  0.9232  2.1599
  708MOL0     H95515   1.035   7.575   9.925  4.1959 -0.2707 -0.2132
  708MOL0     H95516   1.134   7.584   9.787 -0.4347  0.8747 -1.0479
  708MOL0     H95517   0.941   7.494   9.653  1.6249  3.4165 -0.7561
  708MOL0     H95518   0.886   7.640   9.719  2.0683  0.8966 -1.0238
  708MOL0     H95519   0.788   7.517   9.929  1.3865  2.6835 -0.8639
  708MOL0     H95520   0.836   7.371   9.855  1.1082 -0.3654 -0.7825
  708MOL0     H95521   0.649   7.587   9.705  1.2954  0.8785  1.1087
  708MOL0     H95522   0.688   7.446   9.634 -1.0796  1.8527 -1.6597
  708MOL0     H95523   0.524   7.480   9.890  0.4587  2.1789 -1.4357
  708MOL0     H95524   0.467   7.440   9.732 -1.1625  1.8837  1.0707
  708MOL0     H95525   0.663   7.261   9.894  0.1188 -0.8924  0.1714
  708MOL0     H95526   0.476   7.261   9.899 -0.6487  0.4170 -1.5680
  708MOL0     H95527   0.618   7.207   9.639 -0.1071 -2.6076  0.4737
  708MOL0     H95528   0.461   7.153   9.694 -1.6737  3.4754  2.3361
  708MOL0     H95529   0.715   7.046   9.818 -0.7210  1.5058  0.7704
  708MOL0     H95530   0.551   6.982   9.842  2.3914 -0.1499  2.3079
  708MOL0     H95531   0.820   7.014   9.592 -1.7186  2.6460 -1.8664
  708MOL0     H95532   0.892   6.854   9.398  0.4689  1.6748 -1.8672
  708MOL0     H95533   0.778   6.738   9.314  0.5993 -0.9000  1.5607
  708MOL0     H95534   0.799   7.043   9.287 -1.9904  0.2547  0.4465
  708MOL0     H95535   0.853   6.920   9.171  1.9640  2.2544  0.7399
  708MOL0     H95536   0.626   7.049   9.119  2.4564 -1.4854 -0.6808
  708MOL0     H95537   0.554   6.964   9.260 -1.5522 -1.5135 -0.7827
  708MOL0     H95538   0.507   6.844   9.056 -0.1141 -0.5716 -0.1058
  708MOL0     H95539   0.618   6.745   9.152  1.2879 -1.7282 -2.2246
  708MOL0     H95540   0.860   6.857   8.782  0.3275 -0.2485 -0.0899
  708MOL0     H95541   0.899   6.674   8.610  0.5201  3.3184  0.6785
  708MOL0     H95542   0.992   6.167   8.631 -0.3800  0.6452 -0.1806
  708MOL0     H95543   1.022   5.958   8.502 -0.9659 -1.0966  1.0644
  708MOL0     H95544   0.713   5.917   8.219 -0.6540  0.1161  1.0184
  708MOL0     H95545   0.878   5.863   8.169 -0.8680  0.5407  0.5804
  708MOL0     H95546   0.719   5.727   8.070  1.5532 -0.4903  0.3681
  708MOL0     H95547   0.806   5.637   8.190 -1.5199  0.0159  0.2966
  708MOL0     H95548   0.642   5.647   8.346 -0.1038 -1.2347 -0.9625
  708MOL0     H95549   0.538   5.766   8.246  1.8394  1.5576  0.6477
  708MOL0     H95550   0.468   5.502   8.269  1.2624  0.4368  1.0772
  708MOL0     H95551   0.604   5.463   8.185 -2.1409 -1.2931 -1.1880
  708MOL0     H95552   0.527   5.562   7.973 -1.1198 -0.4285 -0.6684
  708MOL0     H95553   0.401   5.652   8.056  0.7156  0.5853 -0.6015
  708MOL0     H95554   0.303   5.408   8.133 -3.1186 -3.2494 -2.0906
  708MOL0     H95555   0.304   5.450   7.951  0.6835  0.3806  0.1647
  708MOL0     H95556   0.485   5.273   8.110 -3.0772 -0.3244  0.9621
  708MOL0     H95557   0.499   5.331   7.933  1.0380 -1.6102 -0.9032
  708MOL0     H95558   0.265   5.188   8.037 -0.9816 -1.1304 -2.0537
  708MOL0     H95559   0.327   5.196   7.866  3.4980  0.1209 -2.0035
  708MOL0     H95560   0.588   5.940   8.440 -2.7272  5.5253 -0.1212
  708MOL0     H95561   0.576   6.160   8.555 -1.0654 -0.3913 -1.6329
  708MOL0     H95562   0.634   6.418   8.829  0.9172 -1.4255 -0.1652
  708MOL0     H95563   0.596   6.580   8.998  0.3546 -1.9039 -0.2838
  708MOL0     H95564   1.293   7.410   9.665  0.0922  0.8603  0.7707
  708MOL0     H95565   1.336   7.247   9.502 -0.9305  0.4239 -0.0989
  708MOL0     H95566   1.197   6.791   9.405  1.1543  1.4223  0.1608
  708MOL0     H95567   1.154   6.593   9.280 -3.0829 -0.3568  0.0680
  708MOL0     H95568   1.000   6.450   9.107  1.3024 -4.8749  1.9583
  708MOL0     H95569   1.172   6.449   9.121  1.3533 -1.0078  0.0724
  708MOL0     H95570   1.033   6.387   8.856 -2.8876  0.1585  1.5463
  708MOL0     H95571   1.052   6.260   8.979 -2.0578  1.5726 -1.6037
  708MOL0     H95572   1.291   6.260   8.976  0.0920  0.5678  1.0396
  708MOL0     H95573   1.295   6.423   8.899 -1.3548  1.0174  1.5659
  708MOL0     H95574   1.195   6.156   8.783  2.2716 -1.1702  0.0466
  708MOL0     H95575   1.194   6.299   8.679 -1.2575  2.1581  0.7791
  708MOL0     H95576   1.593   6.224   8.656 -0.2959  0.5218  0.5151
  708MOL0     H95577   1.108   6.829   8.927 -1.4655 -0.8251 -0.5236
  708MOL0     H95578   1.169   7.149   9.025 -0.2172  0.1912 -0.6546
  708MOL0     H95579   1.040   7.059   8.937 -0.5084  0.1770  0.1252
  708MOL0     H95580   1.008   7.134   9.088  1.2383  0.8329  0.4720
  709MOL0     O95581   0.481   7.855   2.870  0.0546  0.1333 -0.5103
  709MOL0     C95582   0.520   7.973   2.848 -0.0630 -0.2420  0.1055
  709MOL0     O95583   0.462   8.055   2.758  0.2357  0.5613 -0.5514
  709MOL0     C95584   0.346   8.027   2.691 -0.0798 -0.2360  0.7991
  709MOL0     C95585   0.248   7.930   2.716 -0.4761 -0.2162  1.3094
  709MOL0     C95586   0.131   7.928   2.632  1.0552  0.0868  0.1898
  709MOL0     C95587   0.111   8.026   2.533  0.3373  0.3500 -0.3097
  709MOL0     O95588  -0.001   8.013   2.448  0.2424  0.1475  1.1257
  709MOL0     C95589  -0.093   8.130   2.453 -1.0740 -0.7968 -0.2043
  709MOL0     C95590  -0.151   8.156   2.315  0.3926 -0.7484  0.2168
  709MOL0     C95591  -0.049   8.198   2.205  0.1584 -0.0654 -0.2068
  709MOL0     C95592  -0.108   8.196   2.067  0.1127 -0.1707  0.0226
  709MOL0     C95593   0.010   8.234   1.983 -0.0955  0.7066  0.5393
  709MOL0     C95594  -0.015   8.211   1.833  0.8129 -0.6810 -0.0938
  709MOL0     C95595   0.108   8.226   1.746  0.1298  0.3991 -0.0277
  709MOL0     C95596   0.076   8.303   1.622 -0.7679  0.6305 -0.3861
  709MOL0     N95597  -0.031   8.234   1.552  0.5097 -0.3031 -0.3663
  709MOL0     C95598  -0.040   8.111   1.494  0.3833  0.6350  0.4020
  709MOL0     C95599  -0.155   8.115   1.425 -0.3605 -0.0718  0.4880
  709MOL0     C95600  -0.218   8.022   1.326 -0.1870 -0.3085 -0.0273
  709MOL0     C95601  -0.124   7.959   1.220  0.4104  0.3940 -1.3162
  709MOL0     C95602  -0.207   7.857   1.134  0.2127  0.7965 -0.1772
  709MOL0     C95603  -0.115   7.747   1.093 -0.7699  0.0101  1.1067
  709MOL0     O95604  -0.047   7.677   1.202 -0.0714  0.1784 -0.0876
  709MOL0     C95605   0.071   7.604   1.193  0.7225 -0.5466  0.0812
  709MOL0     C95606   0.090   7.517   1.301  0.4664  0.3332 -0.5280
  709MOL0     C95607   0.203   7.444   1.320 -0.5909  0.2740  0.9544
  709MOL0     C95608   0.312   7.459   1.230 -0.6433 -0.6699  0.8305
  709MOL0     C95609   0.437   7.379   1.252 -0.3715  0.0459 -0.1432
  709MOL0     O95610   0.533   7.427   1.164 -0.2559  0.0522  0.1271
  709MOL0     C95611   0.651   7.361   1.146  0.5737  0.9100 -0.1007
  709MOL0     C95612   0.648   7.247   1.064 -0.9762  0.8180  0.5499
  709MOL0     C95613   0.765   7.168   1.043  0.6551  0.3999  0.2817
  709MOL0     C95614   0.883   7.204   1.110 -0.7033  0.1913  0.2112
  709MOL0     O95615   0.998   7.129   1.082 -0.7920 -1.0728 -0.6360
  709MOL0     C95616   1.094   7.126   1.187 -0.2732  0.6877 -0.1612
  709MOL0     C95617   1.209   7.039   1.130  0.9073 -0.3931  0.9600
  709MOL0     C95618   1.192   6.894   1.098  0.2687 -0.6091 -0.0131
  709MOL0     C95619   1.223   6.807   1.222 -0.4158  0.5146 -0.5853
  709MOL0     C95620   1.379   6.795   1.234  0.5579 -0.3755  0.6059
  709MOL0     C95621   1.416   6.709   1.357 -0.1218 -0.1483  0.3696
  709MOL0     C95622   1.390   6.795   1.480 -1.0244  0.2182  0.4238
  709MOL0     C95623   1.461   6.726   1.597 -0.1614  0.0178  0.2347
  709MOL0    Cl95624   1.450   6.814   1.744 -0.2465 -0.4478  0.0782
  709MOL0     C95625   0.884   7.315   1.193 -0.2034 -0.7840 -0.3893
  709MOL0     C95626   0.762   7.393   1.220 -0.2737  0.1929 -0.2714
  709MOL0     O95627   0.441   7.279   1.329 -0.2762 -0.0505 -0.4045
  709MOL0     C95628   0.295   7.541   1.114 -0.8050 -1.0150 -0.6118
  709MOL0     C95629   0.170   7.612   1.091  0.2848  1.0250 -0.0117
  709MOL0     N95630  -0.218   8.230   1.454  0.0031 -1.0544  0.1788
  709MOL0     N95631  -0.143   8.307   1.519 -0.5865 -0.2143 -0.6936
  709MOL0     C95632   0.219   8.127   2.507 -0.0156  0.4222  0.2261
  709MOL0     C95633   0.328   8.132   2.592 -0.5775  0.1416  0.0632
  709MOL0     C95634   0.631   8.028   2.924 -0.2834 -0.3596  0.2832
  709MOL0     C95635   0.704   8.125   2.863 -0.6932 -0.0446 -0.1134
  709MOL0     C95636   0.823   8.168   2.914  0.7903  0.2865 -1.0443
  709MOL0     C95637   0.887   8.111   3.021  0.1887  0.1211 -0.0086
  709MOL0     O95638   1.016   8.145   3.044  0.1550  0.0502  0.3417
  709MOL0     C95639   1.111   8.090   3.141  0.1374  0.0064  0.1268
  709MOL0     C95640   1.073   8.136   3.286 -0.0862 -0.9038  0.4444
  709MOL0     C95641   1.172   8.067   3.381 -0.9179  0.0311 -1.2995
  709MOL0     C95642   1.180   8.135   3.516  0.0833  0.1718 -0.6516
  709MOL0     C95643   1.264   8.255   3.524  0.6094  0.1992  0.8012
  709MOL0     C95644   1.338   8.347   3.533  0.2514 -0.6163 -0.0965
  709MOL0     C95645   0.823   8.010   3.085  0.5161  0.6975 -0.2513
  709MOL0     C95646   0.686   7.973   3.050 -0.9793 -0.1901  0.5318
  709MOL0     C95647   0.616   7.876   3.133  0.4692  0.2924 -0.0836
  709MOL0     H95648   0.245   7.864   2.802 -2.1670 -0.5218  1.0454
  709MOL0     H95649   0.057   7.851   2.653  0.4101  1.0941  1.8173
  709MOL0     H95650  -0.172   8.117   2.527 -0.4538 -1.6603  0.3283
  709MOL0     H95651  -0.035   8.215   2.490  2.0459 -3.4511  1.6512
  709MOL0     H95652  -0.236   8.223   2.333  1.1746  0.0110  1.1906
  709MOL0     H95653  -0.204   8.072   2.269 -1.8182  1.9259 -2.6161
  709MOL0     H95654   0.028   8.121   2.197 -0.4497 -0.5174 -2.2524
  709MOL0     H95655  -0.002   8.294   2.228  2.4029 -0.6719 -1.8730
  709MOL0     H95656  -0.151   8.099   2.042 -0.3268  0.3895 -1.4687
  709MOL0     H95657  -0.188   8.268   2.045  1.1351  0.2980 -2.4783
  709MOL0     H95658   0.031   8.339   2.008 -0.3297  0.1475  3.3808
  709MOL0     H95659   0.087   8.163   2.013 -2.2362 -2.1329 -0.3007
  709MOL0     H95660  -0.052   8.108   1.826  0.0104 -0.3261 -1.6098
  709MOL0     H95661  -0.092   8.285   1.810 -0.3487 -0.6639  3.3282
  709MOL0     H95662   0.145   8.124   1.732 -1.5300 -0.1099 -0.9064
  709MOL0     H95663   0.191   8.279   1.793 -0.1856  1.9853 -1.1961
  709MOL0     H95664   0.063   8.410   1.643  0.5848  0.3948  2.0365
  709MOL0     H95665   0.163   8.286   1.557 -0.9283 -2.2424  0.0420
  709MOL0     H95666   0.032   8.030   1.495  0.7966  0.9616 -0.6959
  709MOL0     H95667  -0.278   7.948   1.379  2.4120 -0.9875  2.1709
  709MOL0     H95668  -0.292   8.076   1.267 -1.7948 -1.9808  0.3893
  709MOL0     H95669  -0.078   8.035   1.156 -0.9265  1.4882 -1.0399
  709MOL0     H95670  -0.036   7.923   1.274  0.8699  1.7800 -1.0972
  709MOL0     H95671  -0.253   7.897   1.044 -1.1418 -2.3190 -0.9859
  709MOL0     H95672  -0.291   7.806   1.181 -1.0226 -1.5649 -4.4526
  709MOL0     H95673  -0.062   7.801   1.014 -0.5385  0.0648  1.2971
  709MOL0     H95674  -0.183   7.677   1.043 -0.8062  0.6581  0.2259
  709MOL0     H95675   0.002   7.499   1.362 -0.5452 -2.3651 -2.5988
  709MOL0     H95676   0.204   7.373   1.403 -0.5560  0.0264  0.7452
  709MOL0     H95677   0.557   7.222   1.011  0.9082 -2.3756 -1.4439
  709MOL0     H95678   0.779   7.077   0.984 -2.8636 -0.9452  1.2640
  709MOL0     H95679   1.136   7.227   1.198 -0.3225  0.6544  0.3281
  709MOL0     H95680   1.057   7.092   1.284  1.0792 -0.1636  0.0756
  709MOL0     H95681   1.225   7.079   1.029 -1.2146  0.0340  0.7443
  709MOL0     H95682   1.291   7.058   1.199 -0.1399 -2.1435  2.7789
  709MOL0     H95683   1.089   6.870   1.070 -0.2167  1.7340 -0.5096
  709MOL0     H95684   1.259   6.866   1.017 -1.6039 -2.7845 -0.9107
  709MOL0     H95685   1.182   6.707   1.207 -2.0215  1.3477 -2.0899
  709MOL0     H95686   1.173   6.838   1.314 -0.7579 -0.4667 -0.4259
  709MOL0     H95687   1.434   6.890   1.235 -0.6833  0.3694  0.5023
  709MOL0     H95688   1.404   6.755   1.136 -1.7233  1.6289 -0.9178
  709MOL0     H95689   1.351   6.621   1.357 -7.8345  4.5550  2.7581
  709MOL0     H95690   1.520   6.676   1.354 -0.0754 -0.0295  0.6287
  709MOL0     H95691   1.282   6.810   1.495 -1.2343 -1.4878  0.8138
  709MOL0     H95692   1.434   6.895   1.466 -1.3800  0.0314 -2.5668
  709MOL0     H95693   1.411   6.631   1.617 -0.6967  0.8190  3.0256
  709MOL0     H95694   1.568   6.710   1.582 -0.1178 -2.2340  2.2893
  709MOL0     H95695   0.978   7.333   1.245 -0.2137  0.9653 -0.9193
  709MOL0     H95696   0.753   7.472   1.294  1.2446 -0.8165  1.0449
  709MOL0     H95697   0.363   7.560   1.032 -1.0204 -0.2469 -0.6152
  709MOL0     H95698   0.152   7.659   0.994  0.0009 -0.8909 -0.9362
  709MOL0     H95699   0.212   8.180   2.412  3.4077  1.9413  0.6482
  709MOL0     H95700   0.405   8.206   2.575  2.7899 -2.6970  1.7080
  709MOL0     H95701   0.671   8.160   2.766  1.8697  0.0554 -1.0247
  709MOL0     H95702   0.888   8.242   2.868  0.1025  0.3100 -1.9967
  709MOL0     H95703   1.215   8.120   3.125  0.6019 -2.3551 -1.8240
  709MOL0     H95704   1.110   7.981   3.137  3.0571 -0.0667 -1.8427
  709MOL0     H95705   0.970   8.104   3.306 -0.2300 -0.0331  1.1604
  709MOL0     H95706   1.077   8.245   3.288 -3.7288 -0.6163 -0.4735
  709MOL0     H95707   1.266   8.070   3.326 -1.2495  1.7292 -1.8303
  709MOL0     H95708   1.135   7.965   3.396  1.3966 -0.5261  1.2274
  709MOL0     H95709   1.082   8.157   3.559 -0.8247 -3.4156 -0.5605
  709MOL0     H95710   1.235   8.064   3.578  1.2814  1.2901 -0.3872
  709MOL0     H95711   1.413   8.423   3.537  3.6410 -3.6933  0.5150
  709MOL0     H95712   0.879   7.959   3.163  0.6874 -0.1557 -0.9086
  709MOL0     H95713   0.597   7.786   3.074  2.4293 -0.7406  0.7635
  709MOL0     H95714   0.679   7.851   3.219  1.7316  4.2234  0.3646
  709MOL0     H95715   0.520   7.916   3.167 -0.4945 -1.7388 -0.2843
  710MOL0     O95716   3.205   4.706   0.375 -1.0225  0.2290 -0.3586
  710MOL0     C95717   3.147   4.783   0.302  0.0191  0.0792 -0.6548
  710MOL0     O95718   3.025   4.758   0.246  0.2247 -0.1416 -0.3241
  710MOL0     C95719   2.940   4.665   0.312 -0.4794 -0.7302 -0.0885
  710MOL0     C95720   2.890   4.686   0.447  0.1832  0.2229  0.4052
  710MOL0     C95721   2.808   4.579   0.501 -0.6937 -0.0045  0.3124
  710MOL0     C95722   2.783   4.465   0.428  0.5684 -0.0579 -0.8947
  710MOL0     O95723   2.696   4.363   0.455  0.1942  0.1257  0.3897
  710MOL0     C95724   2.592   4.357   0.556 -0.9927  0.2544 -0.5645
  710MOL0     C95725   2.657   4.294   0.681 -0.2942  0.9359 -0.0196
  710MOL0     C95726   2.607   4.157   0.718  0.0382 -0.1808  1.8757
  710MOL0     C95727   2.673   4.056   0.610 -0.7317 -0.2973 -0.1748
  710MOL0     C95728   2.612   3.921   0.627  0.7694  0.6129 -1.2666
  710MOL0     C95729   2.694   3.849   0.734 -0.0371 -1.2139 -0.2480
  710MOL0     C95730   2.644   3.705   0.739  1.3145 -0.8868 -0.4249
  710MOL0     C95731   2.736   3.623   0.811 -0.5515 -0.3901  0.7940
  710MOL0     N95732   2.857   3.602   0.729 -0.6470  0.4917  0.1528
  710MOL0     C95733   2.869   3.522   0.624 -0.1683 -0.0305  0.2831
  710MOL0     C95734   2.997   3.542   0.574 -0.1409  0.7791  0.6242
  710MOL0     C95735   3.062   3.477   0.448 -0.8975  0.8562 -0.0962
  710MOL0     C95736   3.036   3.324   0.438  0.4085  0.2847  0.3031
  710MOL0     C95737   3.121   3.272   0.316  0.4981 -0.6437  0.8705
  710MOL0     C95738   3.089   3.115   0.288 -0.1751 -0.2488 -0.3285
  710MOL0     O95739   2.958   3.087   0.235 -0.7436  0.2773  0.3843
  710MOL0     C95740   2.927   2.954   0.212  0.0306 -0.6764 -0.0533
  710MOL0     C95741   3.009   2.846   0.230  0.3294 -0.3798  0.0690
  710MOL0     C95742   2.968   2.719   0.218  0.0469  0.4134  0.3574
  710MOL0     C95743   2.828   2.697   0.178 -0.9606 -0.1016  0.1187
  710MOL0     C95744   2.772   2.564   0.148  0.6088  0.9819  0.3008
  710MOL0     O95745   2.840   2.460   0.203 -0.9124  0.6313  0.5507
  710MOL0     C95746   2.825   2.335   0.138  0.0289 -0.0376  0.0631
  710MOL0     C95747   2.696   2.281   0.131  0.0520  0.0648 -1.4942
  710MOL0     C95748   2.689   2.152   0.085  0.2053 -0.1307 -0.6420
  710MOL0     C95749   2.802   2.078   0.040 -0.2661  0.7627 -0.8101
  710MOL0     O95750   2.791   1.946   0.000  0.5607 -1.0390 -0.1738
  710MOL0     C95751   2.724   1.868   0.097 -0.3566  0.4554  0.2358
  710MOL0     C95752   2.742   1.723   0.047  0.5548  1.4351 -0.9187
  710MOL0     C95753   2.660   1.617   0.125 -0.0920 -0.5469 -0.8648
  710MOL0     C95754   2.664   1.487   0.060 -0.4094 -0.7476  0.0787
  710MOL0     C95755   2.609   1.382   0.151  0.4142  1.3029 -0.0506
  710MOL0     C95756   2.652   1.237   0.110  0.7018 -0.9633 -0.2012
  710MOL0     C95757   2.678   1.220  -0.043  0.3010  0.0039 -0.8227
  710MOL0     C95758   2.675   1.071  -0.086 -0.0800  0.0550  0.0767
  710MOL0    Cl95759   2.681   1.049  -0.264  0.3295 -0.4586 -0.2117
  710MOL0     C95760   2.917   2.150   0.028 -0.3294  0.1746  0.6240
  710MOL0     C95761   2.936   2.276   0.081  0.3379  0.1345 -1.2399
  710MOL0     O95762   2.678   2.548   0.070  0.4665 -0.2442 -0.1631
  710MOL0     C95763   2.745   2.799   0.147  0.7220 -0.3846 -0.9169
  710MOL0     C95764   2.789   2.930   0.163 -1.1497 -0.0817  0.2777
  710MOL0     N95765   3.060   3.632   0.658 -0.1837 -0.1515 -0.1796
  710MOL0     N95766   2.976   3.664   0.747 -0.1727 -0.6519  0.2557
  710MOL0     C95767   2.848   4.450   0.309  0.6498 -0.0246  0.7668
  710MOL0     C95768   2.924   4.541   0.249  0.0936 -0.1407 -0.6775
  710MOL0     C95769   3.211   4.908   0.262 -0.0540  0.0056 -0.4055
  710MOL0     C95770   3.291   4.976   0.353 -0.4451 -0.0175  0.3818
  710MOL0     C95771   3.364   5.092   0.317 -0.8720 -0.7277 -0.5713
  710MOL0     C95772   3.356   5.155   0.194  0.2259 -0.7023 -0.0259
  710MOL0     O95773   3.432   5.268   0.170 -0.2919  0.2530  0.5152
  710MOL0     C95774   3.425   5.351   0.053  0.1144 -0.2204  1.1646
  710MOL0     C95775   3.552   5.434   0.037  0.3352  0.7226  0.1321
  710MOL0     C95776   3.557   5.570   0.107 -0.1985 -0.6379 -0.2187
  710MOL0     C95777   3.509   5.678   0.013  0.0976 -0.1995  0.0766
  710MOL0     C95778   3.364   5.668  -0.001  0.5431  0.4044 -0.5714
  710MOL0     C95779   3.246   5.669  -0.005 -0.5664 -0.4912  0.1935
  710MOL0     C95780   3.286   5.088   0.096 -0.5380  0.1186  0.3668
  710MOL0     C95781   3.220   4.962   0.134 -0.2918  0.0826  0.6443
  710MOL0     C95782   3.163   4.884   0.017 -0.4111 -0.2406 -0.3548
  710MOL0     H95783   2.907   4.781   0.496 -4.5806  1.8992 -0.5670
  710MOL0     H95784   2.760   4.591   0.598 -0.2841 -3.1570  1.0191
  710MOL0     H95785   2.559   4.458   0.584 -3.6724  0.2242 -3.1364
  710MOL0     H95786   2.497   4.311   0.528 -0.1235 -0.4402 -2.5515
  710MOL0     H95787   2.619   4.356   0.764 -0.8168 -0.9697  1.2387
  710MOL0     H95788   2.766   4.293   0.673 -0.4015  1.7858 -2.1713
  710MOL0     H95789   2.498   4.160   0.726 -0.1550 -0.6104 -0.0459
  710MOL0     H95790   2.644   4.153   0.821  1.2110  3.4726  1.7455
  710MOL0     H95791   2.659   4.089   0.507 -0.7532 -0.1350 -0.1193
  710MOL0     H95792   2.782   4.060   0.624 -0.5967  1.5655 -1.4695
  710MOL0     H95793   2.509   3.930   0.664  1.8989  1.9735  1.9131
  710MOL0     H95794   2.621   3.868   0.532 -0.5733  0.4276 -1.3109
  710MOL0     H95795   2.799   3.846   0.702  1.5691  1.8203  3.8518
  710MOL0     H95796   2.690   3.904   0.828 -1.1640 -0.0398 -0.9511
  710MOL0     H95797   2.621   3.655   0.645  1.9194 -0.2317 -0.9332
  710MOL0     H95798   2.551   3.701   0.796  1.7155 -3.8112  0.1665
  710MOL0     H95799   2.768   3.680   0.899 -1.2047  0.1112  0.7209
  710MOL0     H95800   2.687   3.532   0.847  2.1359 -1.5489  1.7359
  710MOL0     H95801   2.786   3.456   0.597  0.9975 -1.7989  0.8204
  710MOL0     H95802   3.037   3.526   0.353  0.0259 -2.5490 -2.2794
  710MOL0     H95803   3.170   3.483   0.465 -0.1427 -2.1764 -2.9996
  710MOL0     H95804   3.075   3.281   0.531 -1.0873  0.6550  1.1351
  710MOL0     H95805   2.932   3.292   0.440  0.3871  0.3553  2.0686
  710MOL0     H95806   3.227   3.290   0.339  0.3540  0.4540  0.7162
  710MOL0     H95807   3.077   3.322   0.230  2.7922 -2.7299 -1.7040
  710MOL0     H95808   3.097   3.065   0.385  0.1179 -0.2455 -0.3501
  710MOL0     H95809   3.171   3.086   0.221 -0.2115 -0.3363 -0.3347
  710MOL0     H95810   3.114   2.857   0.257  0.4574  1.7908 -1.0556
  710MOL0     H95811   3.036   2.637   0.240 -1.0165 -0.3586  0.8671
  710MOL0     H95812   2.605   2.330   0.161  1.0819  0.6838  0.8778
  710MOL0     H95813   2.598   2.095   0.069  1.2066 -1.0776 -3.7589
  710MOL0     H95814   2.783   1.880   0.188  1.2381 -3.0350 -0.1644
  710MOL0     H95815   2.616   1.880   0.102 -0.1343  2.5930  0.8823
  710MOL0     H95816   2.685   1.719  -0.046 -0.0562 -0.0755 -0.5260
  710MOL0     H95817   2.846   1.692   0.031  0.4874  0.9147 -0.4142
  710MOL0     H95818   2.695   1.627   0.228  1.5860  5.0453 -1.5891
  710MOL0     H95819   2.558   1.658   0.129  0.5334  1.0123  0.7590
  710MOL0     H95820   2.769   1.467   0.034  1.0414  1.4692  3.4927
  710MOL0     H95821   2.613   1.492  -0.037  1.4171 -1.3577 -0.9590
  710MOL0     H95822   2.500   1.386   0.141  0.2206 -2.6940 -1.1277
  710MOL0     H95823   2.637   1.397   0.256 -2.0198  1.8525  0.5882
  710MOL0     H95824   2.745   1.214   0.163  0.0269  1.6763  2.3533
  710MOL0     H95825   2.561   1.178   0.123 -0.6181  0.2499 -3.0055
  710MOL0     H95826   2.782   1.252  -0.049  0.6631  0.5225  4.0667
  710MOL0     H95827   2.615   1.275  -0.114 -0.2944 -0.8122 -0.9482
  710MOL0     H95828   2.746   1.011  -0.029  2.2013  0.6408 -1.9455
  710MOL0     H95829   2.578   1.029  -0.059 -0.9500 -0.8880 -3.8167
  710MOL0     H95830   2.992   2.098  -0.030 -2.7834  1.9150 -4.7776
  710MOL0     H95831   3.034   2.319   0.094  0.0872  0.8145 -1.5346
  710MOL0     H95832   2.653   2.781   0.092 -0.3016 -2.5662  1.2952
  710MOL0     H95833   2.728   3.019   0.147  0.7608  1.3049  0.3609
  710MOL0     H95834   2.834   4.366   0.241 -0.7563  1.3139 -0.7063
  710MOL0     H95835   2.965   4.520   0.151 -2.3023 -1.5639 -1.4627
  710MOL0     H95836   3.284   4.933   0.453  1.2567 -0.1114  0.5061
  710MOL0     H95837   3.436   5.132   0.389  0.7276  1.1290 -3.0125
  710MOL0     H95838   3.331   5.407   0.051  0.6952  0.8286 -1.7526
  710MOL0     H95839   3.430   5.293  -0.040 -0.6299  1.0983  0.2667
  710MOL0     H95840   3.567   5.456  -0.070  3.2906  3.0675  0.8894
  710MOL0     H95841   3.638   5.375   0.072  0.7723 -0.1550 -2.1875
  710MOL0     H95842   3.658   5.597   0.140 -0.6232 -1.7097  2.1179
  710MOL0     H95843   3.497   5.579   0.197  0.5935 -1.8919  0.4606
  710MOL0     H95844   3.516   5.779   0.055  1.1240  0.1938 -0.9698
  710MOL0     H95845   3.558   5.658  -0.082 -0.6400 -2.4484  0.1068
  710MOL0     H95846   3.139   5.661   0.005 -0.6943  0.1948 -0.4950
  710MOL0     H95847   3.266   5.139   0.001 -2.0056  2.9615  2.0601
  710MOL0     H95848   3.227   4.886  -0.071 -1.4794  1.3225 -1.1569
  710MOL0     H95849   3.146   4.777   0.034 -1.7901  0.0488  0.2805
  710MOL0     H95850   3.066   4.928  -0.010  0.1739  1.2361 -0.1436
  711MOL0     O95851   7.203   1.257   9.537 -0.1257  0.2037 -0.2241
  711MOL0     C95852   7.129   1.308   9.621 -0.2426 -0.8960  0.2169
  711MOL0     O95853   6.998   1.301   9.615  0.6773 -0.3187  0.4318
  711MOL0     C95854   6.941   1.255   9.506 -0.3797  1.0467  0.2470
  711MOL0     C95855   6.844   1.328   9.442 -0.5308  1.0722 -1.2661
  711MOL0     C95856   6.760   1.274   9.332 -0.3629 -0.8702  0.5387
  711MOL0     C95857   6.798   1.144   9.289 -0.0485 -0.1683  0.1300
  711MOL0     O95858   6.708   1.093   9.197  0.2815 -0.3891  1.0933
  711MOL0     C95859   6.749   0.984   9.114 -0.5134  0.9535 -1.2093
  711MOL0     C95860   6.852   1.021   9.014 -0.0667 -0.1881  0.0389
  711MOL0     C95861   6.846   0.949   8.882  0.0861  1.2433 -0.2871
  711MOL0     C95862   6.943   1.007   8.789  0.6732 -0.7467  0.6738
  711MOL0     C95863   6.942   0.927   8.657 -0.9164 -0.2223 -0.2077
  711MOL0     C95864   7.059   0.978   8.566  0.3424 -0.2167  0.6934
  711MOL0     C95865   7.013   1.086   8.469 -0.3137 -0.0350  0.1040
  711MOL0     C95866   6.925   1.022   8.357 -0.0556  1.0681 -0.1044
  711MOL0     N95867   6.855   1.118   8.280 -0.8784  0.1243  0.0676
  711MOL0     C95868   6.912   1.175   8.170  0.7569 -0.2308 -0.4268
  711MOL0     C95869   6.813   1.249   8.113 -0.0502 -1.0401  0.6403
  711MOL0     C95870   6.834   1.330   7.988 -0.1552 -0.5462 -0.1455
  711MOL0     C95871   6.966   1.412   7.977  0.4647 -1.3401 -0.4529
  711MOL0     C95872   6.953   1.524   8.083 -0.0323  0.3863  1.2672
  711MOL0     C95873   7.064   1.629   8.087 -1.0048  0.3140  0.8148
  711MOL0     O95874   7.077   1.709   7.961 -0.7298  0.2882  0.9717
  711MOL0     C95875   7.144   1.831   7.955 -0.3026 -0.7819 -0.3759
  711MOL0     C95876   7.103   1.926   7.851 -0.2756  0.0898 -0.9134
  711MOL0     C95877   7.146   2.050   7.851  1.0527  0.3630  0.0256
  711MOL0     C95878   7.241   2.092   7.937 -0.1971 -0.7359 -0.3572
  711MOL0     C95879   7.302   2.228   7.916 -0.1727  0.8885  0.1803
  711MOL0     O95880   7.370   2.278   8.013 -1.2009  0.7069  1.1994
  711MOL0     C95881   7.463   2.369   7.981 -0.8400 -0.6998  0.4397
  711MOL0     C95882   7.485   2.467   8.071  0.3101 -0.7280  0.3534
  711MOL0     C95883   7.589   2.560   8.047 -0.1759 -0.0574 -0.2553
  711MOL0     C95884   7.675   2.551   7.934  0.2177  0.1025 -0.6156
  711MOL0     O95885   7.777   2.646   7.917 -0.7733 -0.0826 -0.7800
  711MOL0     C95886   7.873   2.631   7.807  0.9690 -0.0089 -0.6583
  711MOL0     C95887   7.987   2.736   7.817  0.6751 -0.1121 -0.4429
  711MOL0     C95888   8.081   2.719   7.940 -0.4278  0.6755 -0.3271
  711MOL0     C95889   8.028   2.802   8.067  0.5912 -0.3598 -0.0736
  711MOL0     C95890   8.116   2.780   8.196  0.2977 -0.2498  0.4348
  711MOL0     C95891   8.056   2.836   8.315  0.5318  0.4052  0.2087
  711MOL0     C95892   8.146   2.842   8.437 -0.9363 -0.7663 -0.5979
  711MOL0     C95893   8.092   2.917   8.559 -1.0157 -0.1117 -0.9249
  711MOL0    Cl95894   7.917   2.909   8.576 -0.1556  0.1731 -0.1199
  711MOL0     C95895   7.659   2.443   7.849 -0.0448  0.5212  0.1811
  711MOL0     C95896   7.555   2.355   7.869 -0.0753 -0.2660  0.7591
  711MOL0     O95897   7.270   2.292   7.820  0.6375 -0.1610 -0.1069
  711MOL0     C95898   7.288   2.012   8.041  0.2663  0.3264 -0.2860
  711MOL0     C95899   7.242   1.878   8.045  0.1967  1.0511  0.6099
  711MOL0     N95900   6.700   1.239   8.200 -0.1202  0.4169  0.5826
  711MOL0     N95901   6.727   1.150   8.289 -0.1432 -0.4847  0.4655
  711MOL0     C95902   6.906   1.070   9.351 -0.2819  0.3625 -0.3579
  711MOL0     C95903   6.974   1.130   9.454  0.3113 -0.0424  0.4320
  711MOL0     C95904   7.183   1.367   9.747 -0.7201 -0.2774 -0.1843
  711MOL0     C95905   7.113   1.328   9.862  0.2536  0.3046 -0.7002
  711MOL0     C95906   7.142   1.383   9.989 -0.0167  0.4281 -1.0568
  711MOL0     C95907   7.251   1.459  10.000 -0.2327  0.5588 -0.8641
  711MOL0     O95908   7.264   1.521  10.126 -0.1671 -0.5390  0.6500
  711MOL0     C95909   7.352   1.638  10.146  0.8510  0.2239  1.0608
  711MOL0     C95910   7.491   1.596  10.206  0.2419  0.7497  0.7986
  711MOL0     C95911   7.481   1.501  10.319  0.4365 -0.2292 -0.1959
  711MOL0     C95912   7.622   1.456  10.387  0.3651  0.1033  0.4315
  711MOL0     C95913   7.691   1.572  10.444  0.3419 -0.0135 -0.8157
  711MOL0     C95914   7.737   1.668  10.496  0.2205 -0.3643 -0.5606
  711MOL0     C95915   7.334   1.491   9.889  0.0122 -0.0366  0.8691
  711MOL0     C95916   7.297   1.444   9.760  0.6379 -0.0269 -0.1605
  711MOL0     C95917   7.389   1.484   9.644 -0.1690  0.2680  0.1390
  711MOL0     H95918   6.830   1.429   9.480 -0.0176  1.3540 -1.8100
  711MOL0     H95919   6.682   1.326   9.277 -1.6064 -1.8793  1.3041
  711MOL0     H95920   6.781   0.904   9.182 -2.2643 -0.1054 -1.5563
  711MOL0     H95921   6.659   0.947   9.063 -0.1631 -3.0162  0.6326
  711MOL0     H95922   6.948   0.996   9.060 -1.0126 -1.8362  1.2417
  711MOL0     H95923   6.850   1.129   9.000 -1.8799  0.0010  1.4962
  711MOL0     H95924   6.745   0.956   8.838  0.4354  0.7663 -1.1911
  711MOL0     H95925   6.886   0.849   8.898 -1.6985 -0.0448 -3.0250
  711MOL0     H95926   6.911   1.109   8.764 -1.0503 -1.6056 -0.9376
  711MOL0     H95927   7.040   1.014   8.839  1.5301 -0.4722 -0.9643
  711MOL0     H95928   6.964   0.821   8.676  0.2215 -0.2628 -1.5941
  711MOL0     H95929   6.847   0.934   8.603 -1.8945 -0.2937  1.4414
  711MOL0     H95930   7.139   1.032   8.617  2.2574 -0.1977 -2.1187
  711MOL0     H95931   7.089   0.887   8.514 -4.3786 -0.4129 -2.3808
  711MOL0     H95932   7.099   1.129   8.417 -1.0668  3.4536  1.4308
  711MOL0     H95933   6.966   1.166   8.528  3.9006  2.5639  0.3758
  711MOL0     H95934   6.986   0.952   8.299 -0.6980  1.1609 -0.9251
  711MOL0     H95935   6.841   0.966   8.399  0.6662  0.4560  0.5357
  711MOL0     H95936   7.015   1.162   8.138  2.1912  1.6289  2.9133
  711MOL0     H95937   6.843   1.253   7.910  0.9996 -0.0552 -0.5051
  711MOL0     H95938   6.744   1.392   7.980  1.6355  2.5675  1.8843
  711MOL0     H95939   7.057   1.353   7.989  1.6838  0.8395  1.6929
  711MOL0     H95940   6.954   1.467   7.883 -0.7718  0.5668  0.7472
  711MOL0     H95941   6.953   1.479   8.183  0.3523  1.1034  1.6015
  711MOL0     H95942   6.857   1.577   8.086 -1.9725 -2.4483 -2.7168
  711MOL0     H95943   7.158   1.590   8.128 -0.7195  1.2958  1.1174
  711MOL0     H95944   7.029   1.699   8.163 -0.3052  2.1672 -0.4917
  711MOL0     H95945   7.029   1.894   7.779  1.2748 -5.3622 -0.5502
  711MOL0     H95946   7.128   2.117   7.768 -1.2747 -0.6500 -0.3416
  711MOL0     H95947   7.405   2.487   8.142 -0.6074  1.5195 -1.1736
  711MOL0     H95948   7.591   2.642   8.118  2.8047 -0.1717 -0.0690
  711MOL0     H95949   7.917   2.531   7.816  2.7987  0.9680  3.1026
  711MOL0     H95950   7.816   2.641   7.714  1.0369  0.6803 -0.6309
  711MOL0     H95951   8.056   2.712   7.735  1.1704 -1.6241  0.3766
  711MOL0     H95952   7.933   2.831   7.805  0.9541 -0.1727 -2.7960
  711MOL0     H95953   8.093   2.613   7.961 -4.6510  0.0470 -0.0638
  711MOL0     H95954   8.179   2.761   7.919 -0.6243  2.0056  1.2432
  711MOL0     H95955   7.927   2.767   8.090  0.0703 -0.6398 -2.5176
  711MOL0     H95956   8.011   2.907   8.044 -1.1742 -0.0333  2.3052
  711MOL0     H95957   8.221   2.809   8.184  0.9409 -1.4389  2.7177
  711MOL0     H95958   8.105   2.672   8.204 -0.0536 -0.3862 -1.4136
  711MOL0     H95959   8.026   2.938   8.288 -3.8067 -1.0505 -1.2892
  711MOL0     H95960   7.965   2.780   8.338  0.7812 -0.2502 -0.3783
  711MOL0     H95961   8.248   2.867   8.406 -1.3688 -0.1623 -1.5799
  711MOL0     H95962   8.169   2.744   8.481  1.9074 -0.6421 -1.5733
  711MOL0     H95963   8.140   2.883   8.651 -2.9493 -2.9380 -0.8389
  711MOL0     H95964   8.111   3.024   8.543 -3.7212  0.3136 -1.7366
  711MOL0     H95965   7.724   2.429   7.763 -2.1922  1.3913 -1.6520
  711MOL0     H95966   7.538   2.278   7.795 -1.0151  1.3683 -0.8146
  711MOL0     H95967   7.365   2.053   8.104  1.1450  0.6432 -1.5399
  711MOL0     H95968   7.271   1.806   8.121 -4.0927  0.6109  2.0864
  711MOL0     H95969   6.941   0.971   9.321 -1.8046  0.2324 -1.8530
  711MOL0     H95970   7.044   1.064   9.505  1.4062  0.9372  0.2459
  711MOL0     H95971   7.032   1.258   9.846 -0.6893  1.4135 -0.9408
  711MOL0     H95972   7.089   1.344  10.075  0.0943 -0.2493 -1.2849
  711MOL0     H95973   7.308   1.697  10.226 -1.2705  1.4605 -0.9148
  711MOL0     H95974   7.361   1.708  10.063 -0.6346  2.2787  2.5511
  711MOL0     H95975   7.537   1.690  10.237 -1.0135  1.1138  1.6272
  711MOL0     H95976   7.556   1.569  10.121  1.8735  2.0066  1.5919
  711MOL0     H95977   7.415   1.417  10.294  0.1919  0.4552 -2.0134
  711MOL0     H95978   7.436   1.562  10.398  1.4809 -0.7590  0.8458
  711MOL0     H95979   7.614   1.388  10.472 -0.2930 -0.0306  0.2732
  711MOL0     H95980   7.684   1.399  10.317  0.8753 -3.4603  3.4842
  711MOL0     H95981   7.773   1.755  10.547 -0.6622  0.2187 -0.9070
  711MOL0     H95982   7.426   1.544   9.909  0.9052 -0.2998 -2.0473
  711MOL0     H95983   7.417   1.392   9.592 -1.1777 -0.8674  1.5135
  711MOL0     H95984   7.336   1.546   9.572 -0.9727 -0.7158 -0.1469
  711MOL0     H95985   7.478   1.536   9.681  1.3419 -0.6719 -1.9280
  712MOL0     O95986   3.409   6.300   4.793 -0.5168 -0.0622  0.2693
  712MOL0     C95987   3.334   6.384   4.846  0.2794 -0.1694 -0.1111
  712MOL0     O95988   3.368   6.514   4.857  0.1151 -0.2127 -0.2825
  712MOL0     C95989   3.497   6.550   4.872 -1.5547  0.0489 -0.2223
  712MOL0     C95990   3.530   6.676   4.817  0.1676  0.4724 -0.4107
  712MOL0     C95991   3.664   6.717   4.832 -0.3809 -0.3326 -0.1606
  712MOL0     C95992   3.756   6.645   4.905  0.1011  0.3075  0.0500
  712MOL0     O95993   3.885   6.692   4.915  0.8130 -0.6742 -0.4483
  712MOL0     C95994   3.892   6.826   4.977  0.1482 -0.0994 -0.7087
  712MOL0     C95995   4.035   6.867   5.033 -0.5237 -0.5341  0.1058
  712MOL0     C95996   4.139   6.877   4.907  0.0418 -0.5670  0.3394
  712MOL0     C95997   4.284   6.899   4.953  0.0935  0.1504 -1.0761
  712MOL0     C95998   4.387   6.901   4.846  0.3648 -0.2727  0.6643
  712MOL0     C95999   4.532   6.856   4.869 -0.4760 -0.7181 -0.2072
  712MOL0     C96000   4.595   6.932   4.984 -0.7529 -0.3789  0.1251
  712MOL0     C96001   4.743   6.949   4.990 -0.9612  0.0306  0.3239
  712MOL0     N96002   4.778   7.044   5.098 -0.3324 -0.2496  0.1313
  712MOL0     C96003   4.879   7.032   5.195 -0.4466  0.1305  0.5679
  712MOL0     C96004   4.919   7.150   5.231  0.4855 -0.9827  0.1981
  712MOL0     C96005   5.025   7.185   5.321 -0.6113 -0.4314 -0.6287
  712MOL0     C96006   5.163   7.139   5.274 -0.3078 -0.3832  0.7376
  712MOL0     C96007   5.265   7.129   5.386  0.2918 -0.2620 -0.6770
  712MOL0     C96008   5.386   7.052   5.348  0.8251 -0.2699  0.9248
  712MOL0     O96009   5.484   7.041   5.462  0.0997 -0.6648  0.9043
  712MOL0     C96010   5.614   7.004   5.436  0.8398  0.1954 -0.1824
  712MOL0     C96011   5.683   7.033   5.316  0.2838  0.7689  0.5845
  712MOL0     C96012   5.816   6.982   5.303 -0.1447 -0.1752 -0.2928
  712MOL0     C96013   5.873   6.900   5.403 -0.0418 -0.7892 -0.0223
  712MOL0     C96014   5.996   6.812   5.371 -0.8553  0.3985 -0.3508
  712MOL0     O96015   6.034   6.786   5.239  0.5104 -0.8420  0.7154
  712MOL0     C96016   6.133   6.700   5.215  0.1787  1.1717 -0.1662
  712MOL0     C96017   6.269   6.729   5.240  0.3868 -0.8146 -0.0138
  712MOL0     C96018   6.368   6.634   5.236  0.3249 -0.2262  0.1297
  712MOL0     C96019   6.336   6.504   5.183  0.5231 -0.6242  0.0433
  712MOL0     O96020   6.421   6.393   5.173 -0.0721 -0.8466 -0.0833
  712MOL0     C96021   6.529   6.398   5.087 -0.7820 -0.1895 -1.0159
  712MOL0     C96022   6.635   6.309   5.130 -0.3818  0.6845 -0.1916
  712MOL0     C96023   6.749   6.297   5.024  1.1340 -0.0900  0.2179
  712MOL0     C96024   6.834   6.171   5.042 -0.6211 -0.0533 -0.4934
  712MOL0     C96025   6.759   6.047   5.001  0.0360 -0.0559 -0.1225
  712MOL0     C96026   6.846   5.920   4.991 -0.8343  0.3495  0.7089
  712MOL0     C96027   6.767   5.799   4.940 -1.1240 -0.4299  0.7764
  712MOL0     C96028   6.851   5.673   4.914 -0.1858 -0.0384  1.0668
  712MOL0    Cl96029   6.979   5.710   4.779 -0.1858 -0.1212 -0.4182
  712MOL0     C96030   6.203   6.474   5.163  0.6498  0.2909 -0.1268
  712MOL0     C96031   6.104   6.575   5.175 -0.0941  0.1523  0.1752
  712MOL0     O96032   6.068   6.804   5.469  0.5901 -0.2959 -0.6812
  712MOL0     C96033   5.803   6.892   5.527  0.3448  0.6460 -0.9629
  712MOL0     C96034   5.670   6.935   5.542 -0.6956 -0.2802 -0.0909
  712MOL0     N96035   4.842   7.243   5.163 -0.4193  0.3904 -0.2585
  712MOL0     N96036   4.763   7.183   5.086 -0.6654  0.8184 -0.1495
  712MOL0     C96037   3.716   6.529   4.966 -0.5613  0.3320  0.2847
  712MOL0     C96038   3.590   6.471   4.954  1.1197  0.3723  0.7064
  712MOL0     C96039   3.195   6.352   4.877 -0.1770 -0.5653  0.1576
  712MOL0     C96040   3.102   6.464   4.894 -0.0295  0.7557  0.7726
  712MOL0     C96041   2.969   6.437   4.915 -0.3634  0.0856 -0.9781
  712MOL0     C96042   2.924   6.313   4.938 -0.1107 -0.1044  0.3087
  712MOL0     O96043   2.799   6.302   4.984  0.2964  0.0595  0.1028
  712MOL0     C96044   2.746   6.173   5.008  0.2761 -0.1039  0.4698
  712MOL0     C96045   2.600   6.183   5.062  0.2937 -0.2615  0.8689
  712MOL0     C96046   2.500   6.238   4.956 -0.1002 -0.0954  0.6325
  712MOL0     C96047   2.461   6.385   4.973  1.0628  1.0281  0.4390
  712MOL0     C96048   2.347   6.420   4.882 -0.1537 -0.1037  0.2554
  712MOL0     C96049   2.264   6.455   4.797 -0.4796  0.1941  0.4805
  712MOL0     C96050   3.019   6.212   4.941  0.0932  0.7757 -0.1164
  712MOL0     C96051   3.155   6.219   4.911  0.4357  0.0000  0.3209
  712MOL0     C96052   3.250   6.089   4.923 -0.5527  0.3892 -0.2934
  712MOL0     H96053   3.480   6.749   4.754  1.1019  2.6839  1.2805
  712MOL0     H96054   3.684   6.804   4.771 -1.5579 -1.4307 -2.2613
  712MOL0     H96055   3.861   6.912   4.916 -0.3244  2.0047  2.2743
  712MOL0     H96056   3.823   6.832   5.062 -0.2780 -0.5781 -1.0197
  712MOL0     H96057   4.081   6.807   5.112  0.5875 -0.4317 -0.4504
  712MOL0     H96058   4.023   6.966   5.076 -3.3720 -0.5913 -0.2972
  712MOL0     H96059   4.125   6.975   4.861 -0.2331 -0.0077  1.5694
  712MOL0     H96060   4.134   6.793   4.837 -2.6139 -0.6300  0.5010
  712MOL0     H96061   4.289   6.989   5.015  0.6462  1.3964 -2.8692
  712MOL0     H96062   4.317   6.810   5.007 -0.2767 -0.4597 -1.8274
  712MOL0     H96063   4.340   6.842   4.767 -2.0098  2.4322 -0.1372
  712MOL0     H96064   4.399   7.005   4.814  1.7876 -0.3063  1.0168
  712MOL0     H96065   4.522   6.750   4.894 -1.0153 -0.4268  0.8687
  712MOL0     H96066   4.586   6.861   4.774 -0.1108 -0.6051  0.0045
  712MOL0     H96067   4.548   6.891   5.074 -2.0500 -0.6056 -0.6266
  712MOL0     H96068   4.558   7.035   4.975  0.1445 -0.1188 -0.7799
  712MOL0     H96069   4.778   6.846   5.005 -0.1618  0.0995 -0.9400
  712MOL0     H96070   4.785   6.995   4.900  0.7815 -3.1708 -0.6420
  712MOL0     H96071   4.920   6.935   5.222 -2.3455 -0.9304 -0.1649
  712MOL0     H96072   5.019   7.294   5.326 -2.0018 -0.4386 -1.5590
  712MOL0     H96073   5.001   7.137   5.417  1.8964 -1.8204 -0.5968
  712MOL0     H96074   5.165   7.045   5.218 -0.3266  0.0108  0.0680
  712MOL0     H96075   5.197   7.214   5.203 -0.1111 -2.4510 -1.5100
  712MOL0     H96076   5.239   7.066   5.471 -0.9895  2.7420  1.3279
  712MOL0     H96077   5.285   7.231   5.421 -0.1807 -1.2075  2.6253
  712MOL0     H96078   5.436   7.096   5.261  1.7829 -2.9252  0.0331
  712MOL0     H96079   5.360   6.949   5.323 -1.4630  0.7092 -1.2347
  712MOL0     H96080   5.633   7.092   5.239 -1.3317 -1.4661 -0.1933
  712MOL0     H96081   5.862   6.989   5.204 -2.9857  2.6526 -1.5665
  712MOL0     H96082   6.296   6.827   5.279  1.2374 -1.3992  0.9374
  712MOL0     H96083   6.475   6.648   5.250  0.2731  1.8203 -1.1290
  712MOL0     H96084   6.485   6.364   4.993 -1.4561 -2.4225  0.0473
  712MOL0     H96085   6.575   6.497   5.085  0.0593 -0.4585  1.5419
  712MOL0     H96086   6.683   6.320   5.228 -0.9815 -0.1780  0.2166
  712MOL0     H96087   6.588   6.213   5.151  1.3017 -0.6605 -2.2208
  712MOL0     H96088   6.726   6.294   4.917  3.6446 -2.0857 -0.3474
  712MOL0     H96089   6.806   6.389   5.040  1.4183  0.0952 -1.6068
  712MOL0     H96090   6.883   6.162   5.140  0.4344 -2.8007 -1.1900
  712MOL0     H96091   6.908   6.188   4.964 -0.1227  2.6572  0.4630
  712MOL0     H96092   6.708   6.072   4.907 -4.9492 -2.2139  1.6342
  712MOL0     H96093   6.677   6.031   5.072 -3.4856  1.4314 -3.4236
  712MOL0     H96094   6.928   5.945   4.923 -2.2367 -2.6253 -2.4256
  712MOL0     H96095   6.886   5.887   5.087  0.9903 -0.7896 -0.3811
  712MOL0     H96096   6.713   5.822   4.848 -1.8312 -2.4102  0.6568
  712MOL0     H96097   6.700   5.779   5.024  1.2108  1.2603  3.2199
  712MOL0     H96098   6.889   5.634   5.009 -1.9582 -0.7499  1.5197
  712MOL0     H96099   6.776   5.608   4.868  0.0054  2.4696 -3.3036
  712MOL0     H96100   6.187   6.372   5.132  1.8879  0.0882 -0.1530
  712MOL0     H96101   6.008   6.554   5.129 -0.2141  0.9307  0.0603
  712MOL0     H96102   5.835   6.844   5.619 -0.9660  0.5962 -0.5084
  712MOL0     H96103   5.624   6.933   5.640  2.4107  2.0757  1.5837
  712MOL0     H96104   3.782   6.493   5.045 -1.7832  0.2948  1.3234
  712MOL0     H96105   3.557   6.382   5.008 -0.9760  0.5236 -0.2105
  712MOL0     H96106   3.132   6.568   4.893 -0.8035  0.9823 -0.2950
  712MOL0     H96107   2.894   6.514   4.928 -0.9319 -0.7762  1.2683
  712MOL0     H96108   2.809   6.129   5.086  0.7223  1.9074  1.3067
  712MOL0     H96109   2.749   6.118   4.914 -3.9640 -0.4305  0.3711
  712MOL0     H96110   2.602   6.234   5.159  1.0094 -0.5185  0.9995
  712MOL0     H96111   2.564   6.082   5.084 -1.3371 -0.0808 -0.7335
  712MOL0     H96112   2.414   6.172   4.957  0.3175 -0.8249 -2.1795
  712MOL0     H96113   2.535   6.223   4.853 -0.9017  4.5285 -0.5515
  712MOL0     H96114   2.422   6.399   5.075 -0.5018  0.6389 -0.0762
  712MOL0     H96115   2.552   6.443   4.959  0.5204  1.6053 -0.8390
  712MOL0     H96116   2.194   6.490   4.723  1.5101  1.2644 -0.9770
  712MOL0     H96117   2.991   6.111   4.967 -1.1594  1.3162  0.7029
  712MOL0     H96118   3.355   6.115   4.914 -0.0001 -1.3124  0.8180
  712MOL0     H96119   3.242   6.025   5.011  0.8681 -0.7283 -0.9236
  712MOL0     H96120   3.229   6.026   4.835  3.2782  0.4333 -1.4270
  713MOL0     O96121   7.661   3.991   6.008  0.1061  0.0055 -0.7762
  713MOL0     C96122   7.573   3.923   6.060 -0.5027  0.2586 -0.3562
  713MOL0     O96123   7.597   3.807   6.130 -0.1014 -0.6363 -0.4023
  713MOL0     C96124   7.726   3.764   6.122 -0.0073  0.4010  0.5728
  713MOL0     C96125   7.792   3.705   6.007  0.5875 -1.0277  0.3582
  713MOL0     C96126   7.926   3.664   6.013 -1.0403 -0.8104  0.3149
  713MOL0     C96127   7.999   3.670   6.133 -0.3745 -0.3816 -0.0306
  713MOL0     O96128   8.133   3.635   6.146 -0.0807  1.0245  0.6642
  713MOL0     C96129   8.203   3.580   6.030 -0.0777  0.0475  0.5292
  713MOL0     C96130   8.331   3.505   6.052 -0.5468  0.1297  0.6813
  713MOL0     C96131   8.292   3.377   6.129 -0.7274 -0.3459 -0.5792
  713MOL0     C96132   8.398   3.265   6.113  0.1436 -0.2867 -1.1941
  713MOL0     C96133   8.381   3.155   6.220 -0.6401  0.2282  0.5330
  713MOL0     C96134   8.289   3.044   6.166 -0.7134 -0.7846  0.8016
  713MOL0     C96135   8.377   2.940   6.081  0.7607 -0.0947 -0.4130
  713MOL0     C96136   8.302   2.827   6.005 -0.8292 -0.0912  0.1192
  713MOL0     N96137   8.228   2.874   5.881 -0.4827 -0.3395 -1.1884
  713MOL0     C96138   8.112   2.935   5.876 -0.7858  0.4149  0.0503
  713MOL0     C96139   8.087   2.974   5.749  0.1864 -0.3163 -0.2912
  713MOL0     C96140   7.971   3.071   5.706 -0.8929  0.3878 -0.3980
  713MOL0     C96141   7.838   2.984   5.716 -0.9784  0.3888  0.0534
  713MOL0     C96142   7.727   3.037   5.637 -0.1225  0.2503 -0.2119
  713MOL0     C96143   7.664   3.169   5.698  0.4107  0.2455 -0.9342
  713MOL0     O96144   7.606   3.261   5.599 -0.7346 -0.1361 -0.0560
  713MOL0     C96145   7.474   3.243   5.567 -0.6831  0.6391 -0.1013
  713MOL0     C96146   7.375   3.165   5.629  0.1181 -0.0828 -0.1050
  713MOL0     C96147   7.242   3.161   5.580 -0.5635 -0.8625 -0.2231
  713MOL0     C96148   7.203   3.266   5.493 -0.3810 -0.3156  0.2435
  713MOL0     C96149   7.063   3.272   5.441 -0.8438  0.3395  0.3596
  713MOL0     O96150   7.030   3.371   5.349 -0.2805 -0.7216  0.2892
  713MOL0     C96151   6.905   3.380   5.313  0.0496 -0.9098  0.9096
  713MOL0     C96152   6.805   3.416   5.406 -0.1861  0.4696 -0.4896
  713MOL0     C96153   6.680   3.457   5.361  0.2667 -1.2209  0.3369
  713MOL0     C96154   6.654   3.449   5.222  0.3066 -0.5055 -0.5726
  713MOL0     O96155   6.531   3.489   5.176 -0.1810  0.8955  0.0143
  713MOL0     C96156   6.488   3.615   5.227  0.4655 -0.6039 -0.0877
  713MOL0     C96157   6.340   3.625   5.238  0.0213 -0.1545  0.8548
  713MOL0     C96158   6.283   3.519   5.339 -0.6025  0.8706  0.2981
  713MOL0     C96159   6.137   3.512   5.363  0.1486 -1.2934 -0.9227
  713MOL0     C96160   6.096   3.386   5.432 -1.1772 -0.1052  0.5508
  713MOL0     C96161   5.946   3.370   5.469  0.4104  0.0602  0.3506
  713MOL0     C96162   5.868   3.262   5.379  0.2152  0.3006  0.2660
  713MOL0     C96163   5.867   3.302   5.231  0.1485 -0.3415 -0.3584
  713MOL0    Cl96164   5.833   3.474   5.180  0.3239 -0.0803  0.3555
  713MOL0     C96165   6.756   3.415   5.135 -0.5466  0.4954  0.6455
  713MOL0     C96166   6.877   3.367   5.174 -1.5832 -0.6556 -0.0138
  713MOL0     O96167   6.983   3.185   5.481  1.1286 -0.4031 -0.1688
  713MOL0     C96168   7.297   3.346   5.432 -0.6913  0.2769  0.1510
  713MOL0     C96169   7.432   3.323   5.457 -0.2287 -0.3501 -0.5251
  713MOL0     N96170   8.195   2.941   5.676 -0.7761 -0.2710  0.2777
  713MOL0     N96171   8.275   2.869   5.750  0.1416 -0.2444 -1.0801
  713MOL0     C96172   7.935   3.731   6.242  0.5053  0.3452 -0.0015
  713MOL0     C96173   7.802   3.777   6.241 -1.5067  0.8679  0.7620
  713MOL0     C96174   7.433   3.957   6.044 -0.1813 -0.0980 -0.1047
  713MOL0     C96175   7.341   3.853   6.076  0.1048 -0.6378  0.1615
  713MOL0     C96176   7.206   3.865   6.055  0.5522  0.0909 -0.0552
  713MOL0     C96177   7.159   3.987   6.004 -0.1451  0.1230  0.1183
  713MOL0     O96178   7.029   4.016   5.976 -0.0205  0.2517 -0.3028
  713MOL0     C96179   6.922   3.923   5.985  0.0292 -0.6506  0.0358
  713MOL0     C96180   6.807   3.981   5.905  0.2381  0.0358 -0.0791
  713MOL0     C96181   6.701   4.070   5.986 -0.5035  0.9604  0.2963
  713MOL0     C96182   6.635   4.013   6.113  0.3360  0.8956 -0.2524
  713MOL0     C96183   6.602   3.872   6.097 -0.6721 -0.2264  0.0125
  713MOL0     C96184   6.574   3.756   6.080  0.1994 -0.2194 -0.5065
  713MOL0     C96185   7.251   4.093   5.973  0.1867  0.3496 -0.6421
  713MOL0     C96186   7.387   4.078   5.988 -0.3220  0.7544  0.5899
  713MOL0     C96187   7.474   4.197   5.984  0.1994  0.1421  0.3127
  713MOL0     H96188   7.739   3.709   5.912 -0.7380 -0.8599  1.0879
  713MOL0     H96189   7.981   3.635   5.924  0.0633  2.7844 -0.3083
  713MOL0     H96190   8.143   3.500   5.985  2.7519  0.0545 -3.8632
  713MOL0     H96191   8.214   3.659   5.955  1.1888  2.2591  2.9029
  713MOL0     H96192   8.398   3.566   6.114 -0.7153  0.2528  0.7417
  713MOL0     H96193   8.382   3.472   5.961  1.2980  1.1378  1.2912
  713MOL0     H96194   8.195   3.347   6.088 -2.2084  3.3510 -0.2154
  713MOL0     H96195   8.292   3.407   6.234 -0.0602  0.9652 -0.9333
  713MOL0     H96196   8.398   3.227   6.010  2.8436 -0.5744 -1.1375
  713MOL0     H96197   8.495   3.308   6.137 -0.6757  1.0150 -0.0728
  713MOL0     H96198   8.479   3.111   6.240 -1.5299 -2.8065 -1.2051
  713MOL0     H96199   8.328   3.190   6.309  0.1024 -1.2412  1.6057
  713MOL0     H96200   8.241   2.991   6.249 -1.0407 -2.0025 -0.1414
  713MOL0     H96201   8.210   3.090   6.107  0.1036 -0.4441 -0.0512
  713MOL0     H96202   8.449   2.891   6.148 -0.0456  1.0050  1.3369
  713MOL0     H96203   8.442   2.997   6.016  2.3227 -0.6316  0.6146
  713MOL0     H96204   8.373   2.746   5.985 -0.6050 -0.6611  2.7547
  713MOL0     H96205   8.220   2.777   6.059 -1.3912 -1.7016 -2.0886
  713MOL0     H96206   8.042   2.962   5.955  0.7948  1.0201  1.2927
  713MOL0     H96207   7.966   3.157   5.773  0.8119 -1.5854  2.5203
  713MOL0     H96208   7.993   3.105   5.604  0.3579  2.1217  0.4102
  713MOL0     H96209   7.858   2.883   5.680 -0.6427  0.8596 -1.1104
  713MOL0     H96210   7.809   2.987   5.822  1.0128 -2.0408  0.7792
  713MOL0     H96211   7.644   2.965   5.645  0.4198 -0.3145  0.5164
  713MOL0     H96212   7.764   3.041   5.535  1.5193 -1.9099  0.2323
  713MOL0     H96213   7.738   3.226   5.754 -1.5972  1.1450  0.9380
  713MOL0     H96214   7.592   3.138   5.774 -0.3856  4.7276  0.4368
  713MOL0     H96215   7.398   3.107   5.718 -1.0300  0.8395  0.8382
  713MOL0     H96216   7.170   3.091   5.620  0.3682 -1.2816  0.7713
  713MOL0     H96217   6.823   3.410   5.513  0.3225 -1.8549 -0.6535
  713MOL0     H96218   6.604   3.471   5.437  1.0381 -4.2862  1.8493
  713MOL0     H96219   6.525   3.643   5.326  0.7371  0.0223 -0.3601
  713MOL0     H96220   6.529   3.693   5.163 -1.5385 -0.6706 -1.5178
  713MOL0     H96221   6.300   3.716   5.284 -1.1466 -1.0661  1.7002
  713MOL0     H96222   6.293   3.622   5.139 -1.1658  2.1986  1.2787
  713MOL0     H96223   6.318   3.419   5.312 -1.0496  0.1762  2.1853
  713MOL0     H96224   6.342   3.537   5.429  0.8679  0.7054 -0.5949
  713MOL0     H96225   6.078   3.528   5.272 -1.0187  1.9736  0.2650
  713MOL0     H96226   6.109   3.599   5.423 -2.3412 -1.0594 -2.2915
  713MOL0     H96227   6.158   3.373   5.522 -0.6518 -0.0102  0.2039
  713MOL0     H96228   6.114   3.301   5.366 -0.0927 -1.0416  1.9846
  713MOL0     H96229   5.936   3.326   5.568  0.4594 -1.0390 -0.1188
  713MOL0     H96230   5.893   3.465   5.479 -0.0089 -0.3733  2.5874
  713MOL0     H96231   5.762   3.257   5.404  0.2233 -0.5164  0.1604
  713MOL0     H96232   5.914   3.164   5.394  1.4395  0.9153  0.6836
  713MOL0     H96233   5.971   3.286   5.199 -0.4037 -3.2925 -1.0026
  713MOL0     H96234   5.799   3.242   5.170 -2.0258  2.4227 -0.8606
  713MOL0     H96235   6.736   3.417   5.028  0.6789  0.5320  0.4109
  713MOL0     H96236   6.960   3.348   5.107  1.0500  1.6719  2.3389
  713MOL0     H96237   7.266   3.404   5.346 -1.0118  4.0153  2.5636
  713MOL0     H96238   7.500   3.392   5.410 -0.1497  1.0544  1.5123
  713MOL0     H96239   7.986   3.727   6.337  0.0000 -2.0077  0.2480
  713MOL0     H96240   7.768   3.803   6.340  3.2145 -2.0555  3.5675
  713MOL0     H96241   7.354   3.747   6.099 -2.1715 -0.8110  0.9610
  713MOL0     H96242   7.143   3.777   6.061  2.3863 -1.2911 -0.4699
  713MOL0     H96243   6.895   3.906   6.090  1.9291  1.1936  0.8868
  713MOL0     H96244   6.950   3.824   5.948  2.4137  0.6102 -1.7894
  713MOL0     H96245   6.751   3.895   5.865  0.7923 -0.2203 -0.3213
  713MOL0     H96246   6.854   4.042   5.827  2.0814 -1.2684 -0.0677
  713MOL0     H96247   6.617   4.084   5.917 -0.9235 -0.3303  0.5291
  713MOL0     H96248   6.757   4.163   6.002  1.0969  0.4381 -1.8791
  713MOL0     H96249   6.695   4.021   6.204 -0.8985 -3.8889  1.2776
  713MOL0     H96250   6.542   4.068   6.132 -0.1895 -0.3794  1.0563
  713MOL0     H96251   6.553   3.651   6.074  2.2409 -0.5855 -3.0877
  713MOL0     H96252   7.189   4.177   5.945 -1.3796 -1.1680 -1.9099
  713MOL0     H96253   7.413   4.287   5.996 -0.2910 -0.0763 -0.4854
  713MOL0     H96254   7.531   4.197   6.077  1.3606 -0.2765 -0.3874
  713MOL0     H96255   7.535   4.210   5.895  1.0365  0.0103  0.8610
  714MOL0     O96256   6.741   7.974   3.408  0.6547  0.8867 -0.5310
  714MOL0     C96257   6.784   7.879   3.346  1.4194 -0.0277 -0.4967
  714MOL0     O96258   6.918   7.859   3.326  0.0057  0.0709 -0.0756
  714MOL0     C96259   7.000   7.956   3.272 -0.0899  0.3150  0.6826
  714MOL0     C96260   6.957   8.089   3.246 -0.3422  0.3224 -0.3887
  714MOL0     C96261   7.043   8.184   3.185  0.8816 -0.6607 -0.7434
  714MOL0     C96262   7.177   8.147   3.161  0.2514 -0.2983  0.1982
  714MOL0     O96263   7.281   8.233   3.133 -0.6711 -0.4475  0.7048
  714MOL0     C96264   7.257   8.355   3.052 -0.4072  0.0680  0.2535
  714MOL0     C96265   7.231   8.304   2.907 -0.2746 -0.2021 -0.5932
  714MOL0     C96266   7.235   8.411   2.796  0.9287 -0.4204 -0.2492
  714MOL0     C96267   7.119   8.508   2.832 -0.0185  0.5861  0.1982
  714MOL0     C96268   7.135   8.638   2.765  0.9619 -0.3950 -0.2814
  714MOL0     C96269   7.021   8.726   2.824 -0.3591  1.0197  0.4388
  714MOL0     C96270   6.976   8.841   2.744 -0.0886 -0.5596 -0.1627
  714MOL0     C96271   7.067   8.960   2.705 -0.8340 -0.1152 -0.1860
  714MOL0     N96272   7.128   9.026   2.825 -0.0862  0.9552  0.5131
  714MOL0     C96273   7.061   9.077   2.925 -0.7159 -0.0444  0.6530
  714MOL0     C96274   7.147   9.107   3.021  0.0171  0.5930 -0.1485
  714MOL0     C96275   7.119   9.169   3.153 -0.1146  0.1531  0.1933
  714MOL0     C96276   7.071   9.313   3.152 -0.2803  0.1396  0.4353
  714MOL0     C96277   7.062   9.394   3.281 -0.1882 -0.2933 -0.4381
  714MOL0     C96278   6.996   9.324   3.392  0.5253 -0.6404  0.2967
  714MOL0     O96279   7.020   9.396   3.514  0.0561 -0.2363 -0.7661
  714MOL0     C96280   6.969   9.349   3.630  0.3012 -0.0835  0.1508
  714MOL0     C96281   6.900   9.228   3.638 -0.7598 -0.8359  0.2567
  714MOL0     C96282   6.859   9.184   3.759  0.1866  0.0475 -0.5359
  714MOL0     C96283   6.872   9.253   3.880  0.3403  0.4398  0.6686
  714MOL0     C96284   6.838   9.186   4.008 -0.1740 -0.3102 -1.0270
  714MOL0     O96285   6.831   9.054   4.009  0.1692  0.8136  0.0862
  714MOL0     C96286   6.820   8.995   4.130 -0.3081 -0.7933 -1.1259
  714MOL0     C96287   6.943   8.944   4.183  0.9434  0.1031  0.9491
  714MOL0     C96288   6.940   8.885   4.309 -0.5571 -0.1106 -0.2847
  714MOL0     C96289   6.817   8.863   4.373  0.1382  0.6365  0.6720
  714MOL0     O96290   6.819   8.797   4.498 -0.0946  1.0963 -0.0869
  714MOL0     C96291   6.755   8.852   4.617 -0.0172  0.5709  0.4147
  714MOL0     C96292   6.807   8.788   4.743  0.2438  0.2602  0.5258
  714MOL0     C96293   6.965   8.772   4.751 -0.1258 -0.3599 -0.3955
  714MOL0     C96294   6.998   8.745   4.894 -0.3939 -0.1481 -0.1864
  714MOL0     C96295   7.146   8.708   4.929 -0.6660  0.3853  0.3879
  714MOL0     C96296   7.199   8.576   4.870 -0.3243  0.4518  0.1456
  714MOL0     C96297   7.334   8.537   4.909  0.2802 -0.6082 -0.3815
  714MOL0     C96298   7.370   8.552   5.065  0.6370  0.1698  0.6632
  714MOL0    Cl96299   7.534   8.513   5.104 -0.2894  0.0242 -0.0525
  714MOL0     C96300   6.697   8.896   4.318 -0.2428  0.0693 -0.2281
  714MOL0     C96301   6.692   8.965   4.193  0.3584 -0.1161  0.5102
  714MOL0     O96302   6.808   9.264   4.094  0.6122 -0.9274 -0.4781
  714MOL0     C96303   6.939   9.365   3.872 -0.9966 -0.1996 -0.2326
  714MOL0     C96304   6.991   9.421   3.755  0.7298  0.0621  0.3388
  714MOL0     N96305   7.273   9.066   2.976 -0.4897  0.3359 -0.3922
  714MOL0     N96306   7.258   9.013   2.865 -0.6760  0.2707 -0.5030
  714MOL0     C96307   7.217   8.022   3.200  0.4693  0.1510 -0.5320
  714MOL0     C96308   7.132   7.919   3.248  0.3813 -0.5212  0.0411
  714MOL0     C96309   6.691   7.772   3.316 -0.8209  0.6946  0.2390
  714MOL0     C96310   6.752   7.649   3.300 -0.2287  0.3624 -0.1256
  714MOL0     C96311   6.662   7.535   3.277  0.2282 -0.1544 -0.7117
  714MOL0     C96312   6.522   7.549   3.265 -0.6938 -0.0138 -0.2961
  714MOL0     O96313   6.444   7.444   3.219  0.0050 -0.0440  0.4836
  714MOL0     C96314   6.314   7.432   3.271  0.1415  0.1234 -0.7710
  714MOL0     C96315   6.222   7.403   3.159 -0.1677  0.6703  0.7426
  714MOL0     C96316   6.236   7.254   3.119  0.2458 -0.6230 -0.2567
  714MOL0     C96317   6.180   7.210   2.971 -0.4748 -0.0664 -1.0926
  714MOL0     C96318   6.043   7.147   2.999 -1.0692 -0.2251 -0.2090
  714MOL0     C96319   5.946   7.092   3.028 -0.0657 -0.9510 -0.5663
  714MOL0     C96320   6.472   7.679   3.275 -0.5080  0.9079 -0.0069
  714MOL0     C96321   6.552   7.792   3.298  1.6654  0.2868 -0.3440
  714MOL0     C96322   6.484   7.932   3.295 -0.3363  0.5010 -0.4207
  714MOL0     H96323   6.860   8.125   3.279  0.1548  1.0317  0.3363
  714MOL0     H96324   7.012   8.287   3.173 -0.0238 -0.6370  1.3414
  714MOL0     H96325   7.172   8.413   3.091 -0.7072 -0.0335 -0.2396
  714MOL0     H96326   7.344   8.421   3.050 -2.6968  3.5399  2.9479
  714MOL0     H96327   7.131   8.260   2.900 -0.1506 -0.2406 -3.7166
  714MOL0     H96328   7.303   8.224   2.885 -0.2674 -1.7053  3.9567
  714MOL0     H96329   7.230   8.373   2.693 -2.7420 -2.4815  0.5161
  714MOL0     H96330   7.333   8.459   2.804  1.0952 -0.4837 -1.6722
  714MOL0     H96331   7.033   8.456   2.790  1.4650  0.0764 -2.4445
  714MOL0     H96332   7.105   8.523   2.940 -0.1897  0.6320  0.1702
  714MOL0     H96333   7.241   8.663   2.776  0.9271 -0.0988 -0.5983
  714MOL0     H96334   7.121   8.613   2.660 -3.1423  0.8931 -0.2377
  714MOL0     H96335   6.930   8.677   2.860 -0.6493  1.0060 -0.2973
  714MOL0     H96336   7.077   8.766   2.909  3.5723  0.7743 -1.7628
  714MOL0     H96337   6.893   8.880   2.804 -0.9162  1.0461 -2.2514
  714MOL0     H96338   6.924   8.810   2.653 -0.4443  5.0154 -2.2187
  714MOL0     H96339   7.150   8.926   2.642 -0.9836 -1.6930  0.4163
  714MOL0     H96340   7.009   9.029   2.644  1.2711 -1.1183 -3.6069
  714MOL0     H96341   6.954   9.071   2.944 -0.5314  0.9513  2.1701
  714MOL0     H96342   7.035   9.115   3.199  0.3058  1.3448  2.5123
  714MOL0     H96343   7.202   9.169   3.224 -0.8411  1.0618  1.0727
  714MOL0     H96344   7.138   9.356   3.078 -1.9426  0.6719 -0.8428
  714MOL0     H96345   6.971   9.310   3.106  0.1903 -1.2184 -0.5883
  714MOL0     H96346   7.004   9.485   3.262 -2.0108 -1.8521 -3.1873
  714MOL0     H96347   7.161   9.428   3.309 -0.0354  0.1594 -1.4614
  714MOL0     H96348   7.043   9.226   3.402  0.9766 -0.9085 -3.2782
  714MOL0     H96349   6.891   9.312   3.362  0.6079 -0.7695  0.0623
  714MOL0     H96350   6.872   9.174   3.548 -4.6482  0.1298  0.7287
  714MOL0     H96351   6.809   9.088   3.763  0.0874  0.1224  0.2719
  714MOL0     H96352   7.040   8.973   4.143  1.4603 -0.6405  1.6312
  714MOL0     H96353   7.026   8.853   4.366 -0.0330 -0.2731 -1.1380
  714MOL0     H96354   6.765   8.960   4.624 -1.6766  0.7556  0.2920
  714MOL0     H96355   6.646   8.843   4.609 -0.0918  2.2310 -0.9401
  714MOL0     H96356   6.768   8.851   4.824 -2.5224  0.0350 -0.5257
  714MOL0     H96357   6.764   8.688   4.751  1.4122 -0.1417  2.3380
  714MOL0     H96358   7.000   8.687   4.692 -0.8911 -1.6140  0.9027
  714MOL0     H96359   7.007   8.869   4.721 -2.7602  1.4531  1.2895
  714MOL0     H96360   6.932   8.663   4.925 -1.1009 -0.1173 -1.5498
  714MOL0     H96361   6.979   8.835   4.953 -2.0874 -0.9073  0.5017
  714MOL0     H96362   7.156   8.712   5.037  2.7732  3.3381  0.1106
  714MOL0     H96363   7.210   8.787   4.890  0.7567 -0.5214  0.8224
  714MOL0     H96364   7.129   8.496   4.895 -0.3065  0.8593  1.5884
  714MOL0     H96365   7.206   8.575   4.761 -1.0405  1.9938  0.0708
  714MOL0     H96366   7.407   8.598   4.855 -0.2149 -0.4026 -0.8166
  714MOL0     H96367   7.351   8.431   4.883  2.7816 -0.4040  0.1791
  714MOL0     H96368   7.340   8.653   5.095 -3.7116 -0.2748 -1.4679
  714MOL0     H96369   7.306   8.472   5.101  1.3722 -1.9008 -2.2490
  714MOL0     H96370   6.603   8.896   4.372 -2.0781 -3.2660 -2.9742
  714MOL0     H96371   6.601   9.003   4.147  0.3585 -1.3829 -0.6008
  714MOL0     H96372   6.960   9.416   3.965 -1.4355 -0.2235 -0.1165
  714MOL0     H96373   7.024   9.524   3.753 -1.0281  0.6444 -0.5563
  714MOL0     H96374   7.317   7.993   3.171  1.5232  3.4837 -0.6324
  714MOL0     H96375   7.169   7.819   3.268  0.3482 -0.9686 -1.9344
  714MOL0     H96376   6.858   7.633   3.316  0.0139 -0.7210 -2.4051
  714MOL0     H96377   6.700   7.433   3.279  1.1727  0.1583  2.3922
  714MOL0     H96378   6.279   7.520   3.326  0.0672  0.8615 -1.9809
  714MOL0     H96379   6.315   7.347   3.341  0.5122 -1.4200 -2.5638
  714MOL0     H96380   6.251   7.461   3.070 -1.0352  2.3272  1.4848
  714MOL0     H96381   6.117   7.422   3.184 -1.4330  0.8827 -3.7636
  714MOL0     H96382   6.193   7.195   3.200  1.0677  1.7521  2.0782
  714MOL0     H96383   6.342   7.228   3.123  0.4600  0.3983  2.2049
  714MOL0     H96384   6.188   7.291   2.897 -0.6665 -1.3263 -2.5370
  714MOL0     H96385   6.236   7.120   2.943 -1.7223 -1.8665  1.8062
  714MOL0     H96386   5.853   7.048   3.057 -0.6971  1.4893  1.5125
  714MOL0     H96387   6.368   7.695   3.248 -0.3586  4.6520  1.0445
  714MOL0     H96388   6.486   7.975   3.395  0.2515  0.1578 -0.2842
  714MOL0     H96389   6.538   7.999   3.227  1.9357  0.4916  1.2573
  714MOL0     H96390   6.385   7.903   3.258  0.5967 -2.6492 -0.7531
  715MOL0     O96391   9.382   5.485   5.809 -0.1505  0.9433  0.4590
  715MOL0     C96392   9.366   5.385   5.881  0.1119  0.4452  0.8629
  715MOL0     O96393   9.468   5.333   5.960  0.4670  0.5735 -0.5539
  715MOL0     C96394   9.583   5.405   5.981 -0.2502  0.0612 -0.7836
  715MOL0     C96395   9.584   5.523   6.057 -0.9942 -0.0299  0.1577
  715MOL0     C96396   9.707   5.589   6.091 -0.1136  0.0026  0.5015
  715MOL0     C96397   9.832   5.539   6.049 -0.2766  0.1055 -0.0565
  715MOL0     O96398   9.940   5.613   6.091 -0.0911 -0.6149  0.5899
  715MOL0     C96399  10.072   5.558   6.077  0.0095  2.1603 -0.1850
  715MOL0     C96400  10.198   5.650   6.083 -0.0156  0.8584 -0.9868
  715MOL0     C96401  10.198   5.714   6.218  0.0791  0.3522  0.2300
  715MOL0     C96402  10.296   5.821   6.235 -0.2506 -1.1216  0.2875
  715MOL0     C96403  10.443   5.774   6.222  0.6710  0.2227  0.3031
  715MOL0     C96404  10.531   5.892   6.273  0.2784  0.4535 -0.1058
  715MOL0     C96405  10.677   5.840   6.289 -0.3357 -0.5595 -0.5772
  715MOL0     C96406  10.755   5.946   6.373 -0.4030 -0.7537 -0.7610
  715MOL0     N96407  10.767   6.077   6.305  0.6579 -0.3731 -0.3961
  715MOL0     C96408  10.777   6.096   6.168 -0.2763  0.4398 -1.1658
  715MOL0     C96409  10.746   6.225   6.149 -0.1236  0.2195  0.2753
  715MOL0     C96410  10.735   6.291   6.014 -0.1816  0.2556 -0.2122
  715MOL0     C96411  10.854   6.264   5.915  1.2149 -0.1293 -0.0437
  715MOL0     C96412  10.992   6.298   5.960 -0.4630  0.6690 -0.3781
  715MOL0     C96413  11.014   6.440   6.015  0.2864 -0.9179 -0.6939
  715MOL0     O96414  11.119   6.438   6.108 -0.3152 -0.2438 -0.0014
  715MOL0     C96415  11.122   6.509   6.228  0.7499 -0.2822  0.1921
  715MOL0     C96416  11.234   6.501   6.310 -0.0979 -0.6619  0.1937
  715MOL0     C96417  11.248   6.576   6.425 -0.2305  0.3620 -0.7308
  715MOL0     C96418  11.147   6.671   6.467  0.4777  1.1769 -0.5502
  715MOL0     C96419  11.162   6.756   6.582  0.1522 -0.0313 -0.5195
  715MOL0     O96420  11.055   6.842   6.603  0.0347  0.0090  0.2701
  715MOL0     C96421  11.026   6.924   6.707  0.1281 -0.1267  0.0128
  715MOL0     C96422  10.944   7.029   6.687 -0.3556  0.1342  0.4727
  715MOL0     C96423  10.916   7.120   6.789 -0.1488 -0.3324  0.7042
  715MOL0     C96424  10.961   7.094   6.918  0.7985 -0.0180 -0.4464
  715MOL0     O96425  10.941   7.161   7.038 -0.3418 -0.2025  1.0155
  715MOL0     C96426  10.826   7.238   7.035  1.1881 -0.3171 -0.1295
  715MOL0     C96427  10.774   7.269   7.170 -0.5164  0.4874 -0.2421
  715MOL0     C96428  10.858   7.373   7.253 -0.1767 -0.2506 -0.4547
  715MOL0     C96429  10.807   7.520   7.255  0.9966 -0.5818 -0.6675
  715MOL0     C96430  10.894   7.605   7.344  0.7977  0.0201  1.1513
  715MOL0     C96431  10.868   7.752   7.344  0.7597 -0.0759 -0.1235
  715MOL0     C96432  10.914   7.829   7.224  0.9640 -0.0256 -0.5667
  715MOL0     C96433  11.068   7.825   7.206  0.5258  0.5118 -0.2554
  715MOL0    Cl96434  11.126   7.963   7.111  0.2168  0.0580 -0.4974
  715MOL0     C96435  11.057   6.999   6.937 -0.8572 -0.0402 -0.4923
  715MOL0     C96436  11.091   6.915   6.830 -0.0858  0.3926  0.4102
  715MOL0     O96437  11.255   6.722   6.655  0.0726  0.1483 -0.3286
  715MOL0     C96438  11.023   6.673   6.393 -0.3552  0.4216  0.1069
  715MOL0     C96439  11.024   6.597   6.279  0.6240  0.2254  0.5866
  715MOL0     N96440  10.726   6.289   6.271 -0.3372  0.1351 -0.0781
  715MOL0     N96441  10.739   6.198   6.361 -0.8255 -0.0270  0.6014
  715MOL0     C96442   9.829   5.413   5.974  0.0638 -0.1827 -0.7729
  715MOL0     C96443   9.707   5.359   5.932 -0.5654 -0.2926  0.8673
  715MOL0     C96444   9.250   5.309   5.838  0.1625 -1.1694 -0.3415
  715MOL0     C96445   9.136   5.380   5.801  0.2003  0.1377  0.0759
  715MOL0     C96446   9.018   5.316   5.768 -0.2679  1.2943  0.4043
  715MOL0     C96447   9.007   5.176   5.767 -0.4793 -0.6996 -0.5821
  715MOL0     O96448   8.891   5.140   5.719 -0.3655  0.4269 -0.5375
  715MOL0     C96449   8.845   5.007   5.759  0.3954 -0.3451  0.6207
  715MOL0     C96450   8.709   4.983   5.698  0.4066  0.0134  0.6384
  715MOL0     C96451   8.675   4.829   5.685 -0.2393 -0.7442  0.1536
  715MOL0     C96452   8.521   4.800   5.644 -0.0816 -0.0149  0.0815
  715MOL0     C96453   8.504   4.826   5.493 -0.3198 -0.4643 -0.4437
  715MOL0     C96454   8.467   4.844   5.378 -0.3509 -0.8163  0.2264
  715MOL0     C96455   9.123   5.106   5.797 -0.8934  0.5090  0.3080
  715MOL0     C96456   9.244   5.168   5.836  0.0252 -0.9777 -1.2414
  715MOL0     C96457   9.358   5.085   5.887 -0.0414  0.9125  0.4875
  715MOL0     H96458   9.497   5.578   6.091 -0.4198  1.1658 -0.2721
  715MOL0     H96459   9.701   5.682   6.147  2.0162 -0.4727  1.6188
  715MOL0     H96460  10.070   5.473   6.145 -1.0755  0.0670 -2.6753
  715MOL0     H96461  10.084   5.507   5.981  2.6406  0.0644  1.1512
  715MOL0     H96462  10.195   5.726   6.004 -4.5789  0.9134 -0.9687
  715MOL0     H96463  10.295   5.598   6.076 -0.3074 -0.5095  2.7362
  715MOL0     H96464  10.219   5.629   6.283 -4.4583 -0.6240  0.7467
  715MOL0     H96465  10.095   5.732   6.247 -0.1478  0.6619 -0.7492
  715MOL0     H96466  10.270   5.903   6.167  0.2211  0.7723  2.2638
  715MOL0     H96467  10.290   5.850   6.340 -0.5933  0.3663 -0.1118
  715MOL0     H96468  10.458   5.686   6.285 -2.6269 -0.6992  0.0153
  715MOL0     H96469  10.463   5.750   6.117  2.4497  2.9988 -0.0885
  715MOL0     H96470  10.532   5.974   6.201  2.2153 -0.0430 -0.7198
  715MOL0     H96471  10.496   5.932   6.368  0.6169 -2.0456  1.1632
  715MOL0     H96472  10.727   5.818   6.194  1.3418 -2.4524  0.6678
  715MOL0     H96473  10.673   5.752   6.353 -0.4752 -0.3184 -0.2538
  715MOL0     H96474  10.704   5.959   6.469 -1.7507 -3.4855 -0.9999
  715MOL0     H96475  10.852   5.902   6.397 -1.2615 -1.6751  1.2255
  715MOL0     H96476  10.808   6.023   6.094  0.1345 -0.3296 -0.2526
  715MOL0     H96477  10.655   6.246   5.954  0.6271 -1.7283  0.1058
  715MOL0     H96478  10.703   6.395   6.024 -0.0154  0.3580 -0.6791
  715MOL0     H96479  10.841   6.160   5.885  0.8841 -0.1400  0.1322
  715MOL0     H96480  10.827   6.325   5.828 -0.1260 -0.4087  0.1526
  715MOL0     H96481  11.060   6.282   5.876 -2.6271 -0.7974 -1.9555
  715MOL0     H96482  11.018   6.227   6.039  1.2498  1.3406 -0.2957
  715MOL0     H96483  10.915   6.468   6.054 -1.2117 -0.8153 -4.2243
  715MOL0     H96484  11.018   6.514   5.935 -3.5734 -0.4590 -0.6744
  715MOL0     H96485  11.307   6.425   6.283 -0.4433 -2.1195  2.9917
  715MOL0     H96486  11.334   6.561   6.490  0.0573  2.5050 -0.5339
  715MOL0     H96487  10.897   7.050   6.591  1.0962 -1.4963 -0.6402
  715MOL0     H96488  10.857   7.205   6.757  1.9309  0.9438  0.0786
  715MOL0     H96489  10.840   7.332   6.980  1.1990 -0.8396 -1.0418
  715MOL0     H96490  10.741   7.183   6.994 -0.8875  1.8439  1.0337
  715MOL0     H96491  10.668   7.298   7.162 -1.1256 -2.0369 -3.8949
  715MOL0     H96492  10.770   7.183   7.237  0.2874  1.1851  0.7276
  715MOL0     H96493  10.866   7.345   7.358  2.2278  1.0327 -0.2262
  715MOL0     H96494  10.961   7.378   7.217  0.3484  0.2485  1.0392
  715MOL0     H96495  10.704   7.531   7.292  0.6246  0.3035 -1.8971
  715MOL0     H96496  10.801   7.566   7.156 -2.0288 -0.2474 -0.4222
  715MOL0     H96497  10.997   7.585   7.313  0.9024  0.4435  1.2239
  715MOL0     H96498  10.883   7.573   7.449 -2.7519 -2.8374  0.1134
  715MOL0     H96499  10.760   7.766   7.353  0.6174  0.2880 -2.0139
  715MOL0     H96500  10.912   7.783   7.439 -2.4019 -5.4793  3.6595
  715MOL0     H96501  10.896   7.935   7.244  1.5252 -0.1110  0.4319
  715MOL0     H96502  10.861   7.790   7.136 -1.5315 -2.6472  1.8988
  715MOL0     H96503  11.130   7.834   7.295  0.4444 -0.2104 -0.1183
  715MOL0     H96504  11.106   7.733   7.162  0.3118  0.3738 -0.1542
  715MOL0     H96505  11.104   6.989   7.034 -0.5596  0.0318 -0.6282
  715MOL0     H96506  11.155   6.829   6.849 -3.2116 -2.4299 -0.9918
  715MOL0     H96507  10.940   6.727   6.438  0.2306  1.1315  0.3602
  715MOL0     H96508  10.930   6.599   6.224  0.0911  1.2764  1.5048
  715MOL0     H96509   9.915   5.368   5.926  0.6363  0.9200 -0.8097
  715MOL0     H96510   9.714   5.267   5.877  0.7914 -1.1083  2.3205
  715MOL0     H96511   9.126   5.489   5.804  1.1780  0.2401 -0.1726
  715MOL0     H96512   8.940   5.375   5.722  0.6948  2.8508  0.7070
  715MOL0     H96513   8.838   5.001   5.868 -1.8290 -2.4516  0.4445
  715MOL0     H96514   8.919   4.931   5.735 -0.2674 -0.6197 -0.6769
  715MOL0     H96515   8.709   5.024   5.597 -1.2920  1.8438  1.2987
  715MOL0     H96516   8.629   5.031   5.757  1.3247  1.6912  0.5635
  715MOL0     H96517   8.695   4.784   5.783  1.3772  0.3500  0.3766
  715MOL0     H96518   8.734   4.787   5.603  0.7529  0.6076  0.1474
  715MOL0     H96519   8.503   4.693   5.660 -2.5212  0.3987  0.5782
  715MOL0     H96520   8.444   4.857   5.697  2.1215  3.5410 -0.2419
  715MOL0     H96521   8.436   4.872   5.279 -1.1130 -1.9227  0.1420
  715MOL0     H96522   9.131   4.999   5.785 -0.9039  0.2943  2.0113
  715MOL0     H96523   9.339   4.977   5.895  1.6315  0.6120  0.7127
  715MOL0     H96524   9.453   5.091   5.834 -1.3532 -2.0162 -2.5589
  715MOL0     H96525   9.369   5.113   5.992 -1.1280 -0.8278  1.1184
  716MOL0     O96526   7.101   9.236  10.158 -0.2176  0.2869 -0.3710
  716MOL0     C96527   7.040   9.289  10.067  0.4619 -0.0739 -1.0720
  716MOL0     O96528   7.054   9.418  10.023  0.3534  0.2876 -0.1407
  716MOL0     C96529   7.140   9.499  10.081 -0.2219  0.2995  0.5060
  716MOL0     C96530   7.231   9.577   9.998  0.0874  0.5014  0.7624
  716MOL0     C96531   7.311   9.676  10.055  1.0525  0.4495  1.5726
  716MOL0     C96532   7.303   9.712  10.184  0.7011  0.2680 -0.9059
  716MOL0     O96533   7.373   9.817  10.241  0.0013  0.7378  0.6013
  716MOL0     C96534   7.514   9.814  10.221 -0.4391 -0.7967 -0.9719
  716MOL0     C96535   7.563   9.879  10.348 -0.9984 -0.9097  0.7754
  716MOL0     C96536   7.716   9.886  10.355  0.0784  0.1356  0.6995
  716MOL0     C96537   7.772   9.944  10.485  0.2830  1.0567  0.3668
  716MOL0     C96538   7.930   9.937  10.471  0.6571 -0.4439 -0.2996
  716MOL0     C96539   7.994  10.046  10.560 -0.8181 -0.3294 -0.8630
  716MOL0     C96540   7.971  10.022  10.711  0.0838 -0.7379  0.1683
  716MOL0     C96541   8.087  10.079  10.804  0.3458  0.1245  0.7648
  716MOL0     N96542   8.040  10.097  10.946 -0.5409 -0.0843 -0.5861
  716MOL0     C96543   8.063  10.012  11.053  0.2143 -0.8622 -0.4618
  716MOL0     C96544   8.024  10.090  11.160 -0.6134  0.7713 -0.3116
  716MOL0     C96545   8.033  10.062  11.314  0.7639  0.4600 -0.1152
  716MOL0     C96546   8.143   9.967  11.356  0.4011 -0.4840  0.3083
  716MOL0     C96547   8.115   9.944  11.504 -0.2709 -0.3155  0.0721
  716MOL0     C96548   8.240   9.879  11.567  0.0978  0.6736  0.8115
  716MOL0     O96549   8.249   9.869  11.711 -0.6519 -0.7428  0.9126
  716MOL0     C96550   8.146   9.814  11.786 -0.7481 -0.1156 -0.1084
  716MOL0     C96551   8.114   9.872  11.907  0.0274 -0.5384 -0.5248
  716MOL0     C96552   8.038   9.802  12.010  0.3418  0.2445 -0.0700
  716MOL0     C96553   7.965   9.681  11.958 -0.1221 -0.5815  0.0269
  716MOL0     C96554   7.865   9.614  12.039  0.6025  0.1210 -0.7582
  716MOL0     O96555   7.860   9.649  12.173  0.9438 -0.7129 -0.5233
  716MOL0     C96556   7.777   9.566  12.256 -0.6844  0.0327  0.0179
  716MOL0     C96557   7.846   9.467  12.326  0.0295 -0.0395 -0.1212
  716MOL0     C96558   7.768   9.373  12.408  0.9978 -0.1171  0.7713
  716MOL0     C96559   7.630   9.386  12.411  0.0071 -0.1431  0.0878
  716MOL0     O96560   7.561   9.311  12.497 -0.0885  0.3503 -0.0841
  716MOL0     C96561   7.416   9.298  12.504 -0.9421 -0.0502  0.0954
  716MOL0     C96562   7.350   9.176  12.573  0.2348 -0.1137  0.3690
  716MOL0     C96563   7.377   9.199  12.724  0.3199  0.0405 -0.8184
  716MOL0     C96564   7.347   9.082  12.815 -0.5034  0.0031  0.6868
  716MOL0     C96565   7.311   9.105  12.962 -0.5013  0.4723 -0.0895
  716MOL0     C96566   7.432   9.158  13.044  0.2282  0.1191  0.2120
  716MOL0     C96567   7.537   9.050  13.063 -0.5440 -0.1952 -0.1160
  716MOL0     C96568   7.625   9.104  13.183  0.4300  0.5871 -0.9238
  716MOL0    Cl96569   7.694   9.266  13.131 -0.1817 -0.0936  0.1521
  716MOL0     C96570   7.561   9.479  12.340 -0.5644 -0.3880  0.3078
  716MOL0     C96571   7.637   9.580  12.269  0.4845  0.5691 -1.2189
  716MOL0     O96572   7.794   9.532  11.990  0.0264 -0.1795 -0.3418
  716MOL0     C96573   8.004   9.628  11.835  0.1356 -0.8778  1.1281
  716MOL0     C96574   8.105   9.689  11.755 -0.3713  0.0741 -0.3136
  716MOL0     N96575   8.005  10.220  11.113 -0.9106 -0.1289  0.3934
  716MOL0     N96576   8.006  10.227  10.988 -0.3115  0.3853 -0.2697
  716MOL0     C96577   7.210   9.641  10.267 -0.1463  0.9977 -0.1543
  716MOL0     C96578   7.133   9.530  10.217 -0.1394  0.2068 -0.2397
  716MOL0     C96579   6.916   9.218  10.015 -0.8828  0.0999 -0.1774
  716MOL0     C96580   6.890   9.093  10.066  0.0429  1.1673  0.0372
  716MOL0     C96581   6.772   9.017  10.032  0.6511 -0.9853  0.3957
  716MOL0     C96582   6.691   9.066   9.934  0.1628  0.5904 -0.7624
  716MOL0     O96583   6.595   8.984   9.893 -0.1171  0.2480  0.2733
  716MOL0     C96584   6.500   8.932   9.992  0.3665  0.4239  1.0792
  716MOL0     C96585   6.361   8.987   9.949 -0.0296 -0.4070  0.1618
  716MOL0     C96586   6.356   9.136   9.915  0.1126 -0.4012 -1.1874
  716MOL0     C96587   6.222   9.190   9.930  0.8653  0.2504  0.7981
  716MOL0     C96588   6.125   9.127   9.830 -0.5624 -0.1705 -0.7963
  716MOL0     C96589   6.051   9.063   9.766  0.8043  0.2414  0.0277
  716MOL0     C96590   6.721   9.196   9.880 -0.2271  1.4021 -0.7303
  716MOL0     C96591   6.826   9.275   9.917  0.1103 -0.0196  0.7664
  716MOL0     C96592   6.851   9.401   9.841  0.3596  0.1124  0.3023
  716MOL0     H96593   7.222   9.566   9.890 -1.1080 -1.2917  1.0048
  716MOL0     H96594   7.375   9.735   9.989  2.8247 -1.9254  1.0396
  716MOL0     H96595   7.554   9.713  10.206  2.4773 -0.4755  2.9849
  716MOL0     H96596   7.534   9.877  10.134 -1.8759 -0.1576 -0.8789
  716MOL0     H96597   7.522   9.815  10.427 -1.3201 -1.4826  0.1559
  716MOL0     H96598   7.527   9.982  10.346 -0.6209 -0.7833 -1.1983
  716MOL0     H96599   7.757   9.937  10.268 -1.0709  0.4011  0.2961
  716MOL0     H96600   7.752   9.784  10.341  1.8628  1.0624 -2.2173
  716MOL0     H96601   7.739  10.048  10.487  2.9637  2.0597 -1.8445
  716MOL0     H96602   7.726   9.901  10.575 -1.4872  1.3303 -0.3500
  716MOL0     H96603   7.960   9.834  10.490 -3.9134 -2.4842 -2.5860
  716MOL0     H96604   7.968   9.956  10.370 -1.2753 -1.4029 -1.2714
  716MOL0     H96605   8.102  10.059  10.548 -0.1225 -2.3974  1.9720
  716MOL0     H96606   7.948  10.140  10.530  0.1084  0.3860 -0.1277
  716MOL0     H96607   7.967   9.914  10.726  1.6855 -0.8937 -0.3429
  716MOL0     H96608   7.878  10.073  10.736 -0.9872 -2.8166  0.6725
  716MOL0     H96609   8.177  10.018  10.792  0.0233 -0.4073  1.0457
  716MOL0     H96610   8.113  10.181  10.773  2.3155 -0.0444  1.6857
  716MOL0     H96611   8.100   9.910  11.065  2.5256 -0.0767 -0.3623
  716MOL0     H96612   8.037  10.156  11.370  2.1347  1.1897 -1.3724
  716MOL0     H96613   7.937  10.019  11.344 -0.2900  2.1921 -0.8553
  716MOL0     H96614   8.139   9.870  11.304 -1.4792 -0.7424  0.8628
  716MOL0     H96615   8.236  10.024  11.344 -0.8203  1.4441 -0.5514
  716MOL0     H96616   8.024   9.884  11.510  0.5867 -1.7684 -0.9985
  716MOL0     H96617   8.100  10.038  11.560 -2.7460  0.1328 -1.2144
  716MOL0     H96618   8.327   9.936  11.533 -0.0830  0.7473  0.4702
  716MOL0     H96619   8.253   9.781  11.520  3.0953  1.5715 -0.4557
  716MOL0     H96620   8.151   9.971  11.929  2.1799 -0.5835 -3.2939
  716MOL0     H96621   8.014   9.850  12.105  0.8388 -0.9055  0.6582
  716MOL0     H96622   7.955   9.472  12.328  0.0173  5.1357  1.4024
  716MOL0     H96623   7.821   9.303  12.472  2.7774  1.4650  1.1389
  716MOL0     H96624   7.360   9.383  12.543  0.5540  1.7697 -1.4807
  716MOL0     H96625   7.386   9.283  12.400 -1.6128 -0.6173  0.3677
  716MOL0     H96626   7.241   9.170  12.565  0.3996 -1.2132 -1.8351
  716MOL0     H96627   7.400   9.082  12.547  0.4919  0.5727 -1.8336
  716MOL0     H96628   7.471   9.251  12.744  0.9192 -0.0651 -3.1789
  716MOL0     H96629   7.307   9.276  12.757  0.2786 -0.6490  0.8160
  716MOL0     H96630   7.442   9.028  12.821  0.0050  1.0296  3.2060
  716MOL0     H96631   7.267   9.018  12.777  0.3660 -2.4207  2.6779
  716MOL0     H96632   7.269   9.022  13.019  0.7032 -1.2271 -1.5741
  716MOL0     H96633   7.231   9.179  12.971 -0.0757  0.7645  1.6027
  716MOL0     H96634   7.477   9.245  12.995  0.3008 -0.7146 -1.2836
  716MOL0     H96635   7.383   9.189  13.136 -3.6179 -2.1708 -0.7895
  716MOL0     H96636   7.607   9.031  12.981  1.2792  1.1489  1.0568
  716MOL0     H96637   7.495   8.951  13.086  2.4771 -1.4187  0.5389
  716MOL0     H96638   7.564   9.115  13.274  0.9232 -1.7086 -0.2292
  716MOL0     H96639   7.710   9.041  13.212  0.3461  1.0170  0.3509
  716MOL0     H96640   7.454   9.488  12.357 -0.9050 -1.5827 -1.0469
  716MOL0     H96641   7.596   9.657  12.206 -0.4665  0.3677 -0.8635
  716MOL0     H96642   7.965   9.537  11.792  1.8905 -0.8423 -0.7029
  716MOL0     H96643   8.143   9.629  11.673 -0.0220 -3.1388  2.0005
  716MOL0     H96644   7.185   9.671  10.368 -1.2663  1.9207 -0.6928
  716MOL0     H96645   7.052   9.474  10.263  0.9053 -0.8805  0.3444
  716MOL0     H96646   6.942   9.047  10.149 -1.5171  0.0450  0.4237
  716MOL0     H96647   6.751   8.921  10.078  2.9536 -2.6419 -1.7119
  716MOL0     H96648   6.522   8.954  10.097 -2.2216 -0.6728  1.9436
  716MOL0     H96649   6.501   8.823   9.990  1.9647  0.4249 -0.2489
  716MOL0     H96650   6.287   8.969  10.028  0.7655  0.6589  1.1794
  716MOL0     H96651   6.336   8.931   9.858  1.2698  1.1431 -1.1927
  716MOL0     H96652   6.391   9.144   9.812  2.5922 -0.4945 -0.4101
  716MOL0     H96653   6.423   9.182   9.988  0.2434  3.4975 -3.4911
  716MOL0     H96654   6.182   9.169  10.030  1.6783  3.6870  1.9838
  716MOL0     H96655   6.230   9.298   9.912  1.5447  0.5079  2.4577
  716MOL0     H96656   5.979   8.996   9.724  1.2495 -1.7892  2.3128
  716MOL0     H96657   6.647   9.231   9.808 -0.8624 -0.4430 -1.0109
  716MOL0     H96658   6.785   9.405   9.754 -1.7511 -6.2363  1.0720
  716MOL0     H96659   6.838   9.485   9.909  1.8736  2.2337 -1.8917
  716MOL0     H96660   6.954   9.404   9.805  1.6036 -2.0007  3.2192
  717MOL0     O96661  10.201   6.833   1.880  0.6105 -0.1221 -0.0097
  717MOL0     C96662  10.122   6.742   1.868  0.9611  0.3474 -0.1769
  717MOL0     O96663  10.137   6.617   1.802 -0.4915 -0.2903  0.4770
  717MOL0     C96664  10.260   6.593   1.760  0.8475  0.3231  0.8746
  717MOL0     C96665  10.270   6.566   1.626  0.0112  0.5345  1.0234
  717MOL0     C96666  10.391   6.503   1.583  0.5596 -1.3248 -0.0235
  717MOL0     C96667  10.507   6.504   1.648 -0.2188 -1.5961  0.0352
  717MOL0     O96668  10.622   6.460   1.588  0.1218 -0.2292  0.0977
  717MOL0     C96669  10.733   6.543   1.618  0.6715  1.5514 -0.0236
  717MOL0     C96670  10.728   6.689   1.567 -0.8360  0.0591 -0.5733
  717MOL0     C96671  10.722   6.692   1.405  0.5412 -0.1994 -0.0746
  717MOL0     C96672  10.779   6.828   1.351 -0.0039 -0.2604 -0.9912
  717MOL0     C96673  10.734   6.840   1.209  0.1004 -0.4643  1.0557
  717MOL0     C96674  10.821   6.946   1.140  0.6550  0.7451 -0.1794
  717MOL0     C96675  10.787   6.959   0.983 -0.2207  0.2198  0.6256
  717MOL0     C96676  10.639   6.992   0.950  0.4584  0.3363 -0.2932
  717MOL0     N96677  10.614   6.955   0.807  0.1231 -0.0865 -0.7518
  717MOL0     C96678  10.540   6.851   0.763  1.2180  0.8202 -1.2063
  717MOL0     C96679  10.581   6.830   0.634  0.3605 -0.7152 -0.5233
  717MOL0     C96680  10.532   6.727   0.542  0.0805  1.0995  0.4153
  717MOL0     C96681  10.400   6.774   0.481 -0.0319 -0.5728 -0.1055
  717MOL0     C96682  10.376   6.713   0.345 -0.6839  0.3799 -0.3877
  717MOL0     C96683  10.241   6.769   0.287  0.8417  0.6475 -0.6627
  717MOL0     O96684  10.243   6.909   0.277 -0.0621  0.4798  0.2392
  717MOL0     C96685  10.162   6.971   0.187  0.0122 -0.6177 -0.5932
  717MOL0     C96686  10.203   6.983   0.060  0.4904 -0.1925 -0.5041
  717MOL0     C96687  10.124   7.057  -0.036  1.0259  0.8105  0.0872
  717MOL0     C96688  10.002   7.119   0.008 -0.9964  0.2526 -0.6218
  717MOL0     C96689   9.912   7.169  -0.096  0.1144 -0.9611 -0.3761
  717MOL0     O96690   9.818   7.262  -0.060 -0.3572  0.6909 -0.6426
  717MOL0     C96691   9.726   7.319  -0.150 -0.6166 -0.6723 -0.5427
  717MOL0     C96692   9.706   7.450  -0.153 -0.7931 -0.5847 -0.0868
  717MOL0     C96693   9.635   7.507  -0.259 -0.3219 -0.5289 -0.1247
  717MOL0     C96694   9.594   7.432  -0.365 -0.4859  0.0696  0.8304
  717MOL0     O96695   9.534   7.495  -0.475  0.2570  0.4671  0.5411
  717MOL0     C96696   9.503   7.433  -0.605  0.7765  0.5764 -0.1388
  717MOL0     C96697   9.520   7.545  -0.705  0.8185 -0.0035  1.2642
  717MOL0     C96698   9.539   7.496  -0.847  0.0870  1.2137 -0.5367
  717MOL0     C96699   9.568   7.612  -0.948 -0.7845 -0.3887  0.1508
  717MOL0     C96700   9.657   7.562  -1.063  0.8783  0.2512 -0.0711
  717MOL0     C96701   9.675   7.668  -1.170  0.0407  0.4320 -0.3617
  717MOL0     C96702   9.546   7.695  -1.251 -0.3034  0.3391 -0.7716
  717MOL0     C96703   9.588   7.803  -1.352 -0.7810  0.3236  0.5473
  717MOL0    Cl96704   9.711   7.749  -1.477  0.3900  0.5470 -0.1364
  717MOL0     C96705   9.606   7.296  -0.363 -0.3436 -0.6279  0.0073
  717MOL0     C96706   9.663   7.246  -0.249 -0.6959  0.1045 -0.8548
  717MOL0     O96707   9.926   7.126  -0.208 -0.4288  0.1614 -0.0919
  717MOL0     C96708   9.957   7.098   0.145 -0.1197 -1.5440  0.5615
  717MOL0     C96709  10.045   7.033   0.233 -0.3269 -0.4123  0.4093
  717MOL0     N96710  10.668   6.935   0.603 -0.0955 -0.0353  0.5589
  717MOL0     N96711  10.689   7.007   0.707  0.4856 -0.0629  1.2428
  717MOL0     C96712  10.488   6.538   1.779  0.4873 -0.2149 -0.3431
  717MOL0     C96713  10.365   6.566   1.843 -0.6358  0.7030  0.7841
  717MOL0     C96714   9.988   6.766   1.919  0.3484  0.8274 -0.1568
  717MOL0     C96715   9.874   6.697   1.863 -0.2381  0.4761  0.7322
  717MOL0     C96716   9.752   6.701   1.926 -0.1026 -0.4242 -0.0837
  717MOL0     C96717   9.735   6.781   2.040  0.2272  0.3649  0.0678
  717MOL0     O96718   9.616   6.812   2.088 -0.1864  0.2330  0.4206
  717MOL0     C96719   9.497   6.755   2.014 -0.2977 -1.2724 -0.1499
  717MOL0     C96720   9.380   6.847   2.065 -0.9035  1.0932  0.6448
  717MOL0     C96721   9.316   6.795   2.192  0.3023 -0.2589  0.8579
  717MOL0     C96722   9.195   6.885   2.218 -0.4343 -0.3353  0.7828
  717MOL0     C96723   9.071   6.854   2.139  0.1978  0.2537  0.2759
  717MOL0     C96724   8.976   6.796   2.091 -0.2442 -0.7481 -0.2589
  717MOL0     C96725   9.840   6.842   2.099 -1.1684 -0.0374  0.0705
  717MOL0     C96726   9.968   6.833   2.041 -0.5267  0.4891  0.3766
  717MOL0     C96727  10.083   6.895   2.123 -0.0971 -0.7049 -0.2799
  717MOL0     H96728  10.196   6.599   1.554  2.1842 -1.0719 -2.1547
  717MOL0     H96729  10.407   6.463   1.483  1.0337  1.1780 -1.0178
  717MOL0     H96730  10.766   6.531   1.722  1.1427 -1.8641 -0.4270
  717MOL0     H96731  10.817   6.508   1.557 -0.6621  2.3426 -2.3986
  717MOL0     H96732  10.823   6.735   1.596 -1.6069  1.1816  0.2155
  717MOL0     H96733  10.647   6.747   1.612 -0.0887  1.6566 -1.2161
  717MOL0     H96734  10.621   6.679   1.366  0.4438 -0.4926  0.2659
  717MOL0     H96735  10.784   6.611   1.366  0.1735 -0.8391  0.6427
  717MOL0     H96736  10.735   6.914   1.401 -0.2194  1.5199 -4.0193
  717MOL0     H96737  10.887   6.839   1.359 -0.1066  0.8122 -0.9628
  717MOL0     H96738  10.764   6.749   1.157  2.1897  1.8108 -2.0559
  717MOL0     H96739  10.628   6.862   1.193  0.6278  0.5893 -1.3768
  717MOL0     H96740  10.789   7.043   1.180  1.3299  2.0125 -2.5017
  717MOL0     H96741  10.928   6.934   1.156  0.7647  0.4441 -1.0905
  717MOL0     H96742  10.816   6.866   0.933  1.1561  1.3941 -0.8739
  717MOL0     H96743  10.847   7.035   0.933  1.2657 -1.0376  0.4107
  717MOL0     H96744  10.557   6.942   1.003 -0.3135 -1.6060 -3.0693
  717MOL0     H96745  10.629   7.101   0.946  1.4470  0.5292  1.5072
  717MOL0     H96746  10.484   6.777   0.818  2.4129  1.0638  0.4049
  717MOL0     H96747  10.609   6.716   0.465  2.5898  0.4660  2.8181
  717MOL0     H96748  10.531   6.634   0.601  2.9690  0.8745  0.2332
  717MOL0     H96749  10.317   6.761   0.551  0.4896  0.8649  0.8248
  717MOL0     H96750  10.410   6.883   0.477  0.7220 -0.6229  0.2023
  717MOL0     H96751  10.368   6.604   0.351 -1.9259  0.5349  1.8948
  717MOL0     H96752  10.456   6.747   0.278 -1.1283  2.3038  0.0034
  717MOL0     H96753  10.159   6.745   0.355  1.4666  0.7084  0.1281
  717MOL0     H96754  10.235   6.720   0.189  1.2927  0.6884 -0.7110
  717MOL0     H96755  10.305   6.957   0.033  0.6981  0.1903 -0.0898
  717MOL0     H96756  10.149   7.067  -0.141  1.6902 -1.5912 -0.0600
  717MOL0     H96757   9.746   7.520  -0.080 -2.6769  2.3819 -1.6704
  717MOL0     H96758   9.626   7.615  -0.252 -2.8094 -0.7097  0.4240
  717MOL0     H96759   9.570   7.350  -0.628 -2.1550 -1.3825 -2.1887
  717MOL0     H96760   9.408   7.379  -0.606  2.2060 -2.0874  0.0907
  717MOL0     H96761   9.426   7.600  -0.706 -0.3270 -1.5112 -3.8635
  717MOL0     H96762   9.603   7.611  -0.676 -0.4783  2.4077 -0.1963
  717MOL0     H96763   9.614   7.416  -0.846 -0.7072  0.4435  0.7718
  717MOL0     H96764   9.446   7.448  -0.880 -1.2224  2.6657  0.8746
  717MOL0     H96765   9.636   7.681  -0.898  0.6593 -0.8349 -1.1088
  717MOL0     H96766   9.470   7.656  -0.970 -1.1513 -0.8974  0.7369
  717MOL0     H96767   9.628   7.470  -1.115  1.2362  0.4023 -0.5396
  717MOL0     H96768   9.755   7.535  -1.023  1.0269  2.9006  1.6186
  717MOL0     H96769   9.705   7.756  -1.112 -1.1753  0.3950  0.3561
  717MOL0     H96770   9.760   7.634  -1.231  0.1315 -0.1403  0.0742
  717MOL0     H96771   9.465   7.740  -1.193  0.3391 -0.1751  0.5444
  717MOL0     H96772   9.507   7.603  -1.294 -3.3084 -0.7707  3.6471
  717MOL0     H96773   9.496   7.816  -1.410 -0.5582  0.6730  0.2706
  717MOL0     H96774   9.624   7.895  -1.305 -1.8452  0.4982  1.0548
  717MOL0     H96775   9.572   7.233  -0.444 -1.2664 -0.9501  0.6391
  717MOL0     H96776   9.677   7.140  -0.234 -1.7609  0.3493  2.7446
  717MOL0     H96777   9.869   7.155   0.176  0.4149  1.5073 -2.8748
  717MOL0     H96778  10.020   7.033   0.338 -2.5204 -2.1583 -0.0463
  717MOL0     H96779  10.562   6.544   1.859  0.5826 -0.5381 -0.4049
  717MOL0     H96780  10.355   6.582   1.950 -0.4308  0.4756  0.8379
  717MOL0     H96781   9.885   6.630   1.779 -0.2209  0.6604  0.5873
  717MOL0     H96782   9.669   6.648   1.880  0.4477 -1.5533  0.1902
  717MOL0     H96783   9.490   6.648   2.038 -0.3368 -0.8111  2.1052
  717MOL0     H96784   9.507   6.769   1.906 -3.0972  2.1281 -0.1361
  717MOL0     H96785   9.300   6.852   1.991 -0.0391  2.2457 -0.2590
  717MOL0     H96786   9.408   6.951   2.083 -1.2572  1.5508 -1.3099
  717MOL0     H96787   9.391   6.794   2.272 -1.3257 -2.2777  2.4881
  717MOL0     H96788   9.299   6.687   2.184 -2.2008  0.0941  0.7435
  717MOL0     H96789   9.180   6.862   2.324 -0.2667 -1.1592  0.6419
  717MOL0     H96790   9.223   6.991   2.215 -2.5208  0.2347  0.1731
  717MOL0     H96791   8.895   6.742   2.045  1.0052 -1.9732 -1.1010
  717MOL0     H96792   9.827   6.918   2.175 -0.0141  1.8314 -1.4859
  717MOL0     H96793  10.133   6.985   2.086 -1.9776 -0.0821 -1.4168
  717MOL0     H96794  10.046   6.924   2.221 -2.1652 -3.4363 -0.1354
  717MOL0     H96795  10.157   6.814   2.125  0.5466 -0.1611 -1.0330
  718MOL0     O96796   1.904   8.210   3.034  0.3352 -0.3778  0.6470
  718MOL0     C96797   2.024   8.206   3.029 -0.0601  0.4723 -0.1116
  718MOL0     O96798   2.096   8.111   3.088 -0.1198 -0.5399  0.3068
  718MOL0     C96799   2.034   7.991   3.132  1.1649 -1.1990 -0.0842
  718MOL0     C96800   2.015   7.864   3.057  0.6807 -0.7154 -0.8772
  718MOL0     C96801   1.953   7.755   3.120 -0.0668 -0.0835 -0.5977
  718MOL0     C96802   1.925   7.764   3.261 -0.6956 -0.4148  1.1855
  718MOL0     O96803   1.878   7.666   3.333 -0.3285 -0.9108 -0.4835
  718MOL0     C96804   1.918   7.535   3.286 -0.8621  0.0642 -0.4413
  718MOL0     C96805   1.930   7.442   3.409 -0.0619  0.8200 -0.1799
  718MOL0     C96806   2.034   7.511   3.516 -1.5670  0.3580  0.0101
  718MOL0     C96807   2.074   7.419   3.632  0.4739 -0.2405  0.5015
  718MOL0     C96808   2.148   7.495   3.742 -0.4673  0.6378  0.5121
  718MOL0     C96809   2.196   7.393   3.849 -0.0237  0.0622 -1.1208
  718MOL0     C96810   2.274   7.483   3.946  0.9120  0.6362  0.0764
  718MOL0     C96811   2.348   7.392   4.046 -0.0055  0.1918  0.7451
  718MOL0     N96812   2.258   7.318   4.141  0.3376 -1.1199  0.4638
  718MOL0     C96813   2.238   7.363   4.272  0.5906 -0.8654  0.8193
  718MOL0     C96814   2.199   7.258   4.341 -0.0717  0.1144  0.2139
  718MOL0     C96815   2.169   7.263   4.485 -0.9362  0.5611  0.7748
  718MOL0     C96816   2.030   7.198   4.509  1.7560 -0.1266 -0.6899
  718MOL0     C96817   1.964   7.261   4.632 -0.5554  0.8838  0.7706
  718MOL0     C96818   1.824   7.193   4.678  0.4143 -1.2775  0.4990
  718MOL0     O96819   1.722   7.198   4.573  0.6703 -0.2690 -0.6891
  718MOL0     C96820   1.670   7.325   4.544  0.7513  0.0265 -0.3239
  718MOL0     C96821   1.613   7.407   4.646  0.0789  0.8680 -0.7766
  718MOL0     C96822   1.574   7.538   4.596 -0.0564  0.0001 -0.1122
  718MOL0     C96823   1.572   7.577   4.461 -0.4111  0.2868 -0.9316
  718MOL0     C96824   1.524   7.706   4.407 -0.3703  0.6447 -0.3076
  718MOL0     O96825   1.512   7.733   4.268  0.3860  0.1744  0.2439
  718MOL0     C96826   1.457   7.852   4.233 -0.0178 -0.7638 -0.1440
  718MOL0     C96827   1.318   7.892   4.252 -0.9933  0.0000  0.4243
  718MOL0     C96828   1.276   8.016   4.215  0.6707 -0.1700 -1.1923
  718MOL0     C96829   1.362   8.100   4.138  0.1806 -0.5329  0.4427
  718MOL0     O96830   1.315   8.217   4.099 -0.5325  0.5053 -0.1875
  718MOL0     C96831   1.272   8.225   3.958 -0.7010 -0.1150 -0.2971
  718MOL0     C96832   1.264   8.371   3.917 -0.2656  0.7587  0.9616
  718MOL0     C96833   1.165   8.454   4.005 -0.0266  0.5617 -0.2999
  718MOL0     C96834   1.176   8.600   3.970 -0.5192 -0.6700  0.1491
  718MOL0     C96835   1.106   8.695   4.067 -1.2449 -0.0953  0.3980
  718MOL0     C96836   1.148   8.837   4.051 -0.1965 -0.1693  0.5076
  718MOL0     C96837   1.106   8.918   4.178 -0.5790 -0.0180 -0.4818
  718MOL0     C96838   1.185   9.047   4.195 -0.5570 -0.1643 -0.1650
  718MOL0    Cl96839   1.164   9.143   4.039  0.0278  0.4126  0.4034
  718MOL0     C96840   1.495   8.068   4.114  0.3694 -0.5967 -0.6508
  718MOL0     C96841   1.538   7.947   4.166  0.1629 -0.4812  0.0771
  718MOL0     O96842   1.485   7.782   4.498 -0.3450  0.2546  0.1084
  718MOL0     C96843   1.628   7.477   4.371  0.2772 -0.3288 -0.1183
  718MOL0     C96844   1.672   7.354   4.408  0.2974 -0.8719 -0.3549
  718MOL0     N96845   2.203   7.148   4.252  0.4526 -0.5240  0.0925
  718MOL0     N96846   2.237   7.187   4.131  1.4018  0.6760 -0.0510
  718MOL0     C96847   1.957   7.883   3.341 -0.0307  1.0771  0.4425
  718MOL0     C96848   1.998   7.994   3.268  0.3699 -0.0550 -0.6564
  718MOL0     C96849   2.098   8.331   2.986 -0.6174  0.1733  0.2231
  718MOL0     C96850   2.235   8.355   3.031 -0.1571  0.8768 -0.0250
  718MOL0     C96851   2.314   8.465   2.991 -0.0317 -0.0955 -0.2497
  718MOL0     C96852   2.266   8.558   2.905  0.8739 -1.0923 -0.2651
  718MOL0     O96853   2.359   8.650   2.873  0.6060  0.0957  0.5096
  718MOL0     C96854   2.325   8.773   2.810  0.0497  0.2441  0.5746
  718MOL0     C96855   2.378   8.768   2.669  0.0961 -0.8375  0.2695
  718MOL0     C96856   2.522   8.739   2.677 -0.6033  0.0354  0.0542
  718MOL0     C96857   2.585   8.741   2.535  0.5070  0.0383  0.3758
  718MOL0     C96858   2.598   8.879   2.479  0.1126 -0.1179 -0.1818
  718MOL0     C96859   2.620   8.988   2.437 -0.8608  1.2717 -0.8589
  718MOL0     C96860   2.137   8.536   2.855  0.2887 -0.1110  0.4267
  718MOL0     C96861   2.057   8.426   2.888 -0.5384  0.7206 -0.0688
  718MOL0     C96862   1.930   8.414   2.811 -1.2295 -1.1090  0.3767
  718MOL0     H96863   2.035   7.857   2.950 -0.7551 -1.2410 -1.1389
  718MOL0     H96864   1.926   7.666   3.064 -0.8289  0.5067 -1.1939
  718MOL0     H96865   1.837   7.499   3.222 -3.1169  0.6264  1.9391
  718MOL0     H96866   2.012   7.534   3.230  0.4778 -0.3960  1.6747
  718MOL0     H96867   1.979   7.348   3.382 -3.1083 -0.5459 -1.4123
  718MOL0     H96868   1.836   7.409   3.453  1.0755 -1.8640  0.4167
  718MOL0     H96869   1.976   7.597   3.553 -1.5556  0.7045 -0.7714
  718MOL0     H96870   2.122   7.546   3.461  0.5288  0.7618  3.2727
  718MOL0     H96871   1.974   7.388   3.666 -0.9439  6.0299  3.4504
  718MOL0     H96872   2.140   7.341   3.592  0.6747  0.6449 -0.9781
  718MOL0     H96873   2.225   7.562   3.702 -1.9917  1.5124 -1.0899
  718MOL0     H96874   2.069   7.563   3.776 -0.1344  0.9601  0.6493
  718MOL0     H96875   2.112   7.354   3.907 -0.6705  2.0787 -0.6484
  718MOL0     H96876   2.253   7.315   3.797 -0.3394 -1.0972  0.2090
  718MOL0     H96877   2.204   7.539   4.009 -0.6185 -1.0397 -0.0322
  718MOL0     H96878   2.340   7.559   3.904 -0.8779  2.4177  0.3603
  718MOL0     H96879   2.391   7.311   3.987 -3.1261  0.2863 -1.9346
  718MOL0     H96880   2.422   7.458   4.093 -0.2797  2.5050 -1.8067
  718MOL0     H96881   2.264   7.460   4.313  3.6658 -0.5599 -1.5264
  718MOL0     H96882   2.248   7.208   4.536 -2.7407 -0.7418  2.3449
  718MOL0     H96883   2.169   7.366   4.521  0.4836  0.2661  1.6903
  718MOL0     H96884   1.969   7.213   4.419  0.3058  1.0486  0.4340
  718MOL0     H96885   2.040   7.091   4.529  0.7879  0.1077  1.2949
  718MOL0     H96886   1.943   7.368   4.621  2.2652  1.6908  2.3250
  718MOL0     H96887   2.035   7.261   4.715  0.7788  1.2716 -0.3303
  718MOL0     H96888   1.789   7.233   4.774  0.0233 -4.6158  1.8859
  718MOL0     H96889   1.840   7.086   4.693 -0.1029 -1.3278  0.7228
  718MOL0     H96890   1.611   7.369   4.747 -0.7257  1.0837 -0.7029
  718MOL0     H96891   1.519   7.612   4.653 -2.4840 -0.9167 -1.1660
  718MOL0     H96892   1.260   7.817   4.305  0.8101 -0.9072  1.1821
  718MOL0     H96893   1.171   8.041   4.226  0.4151 -1.4297 -0.5588
  718MOL0     H96894   1.347   8.193   3.884  1.0670  2.9456  0.0397
  718MOL0     H96895   1.174   8.182   3.936 -2.5757  2.1692  2.8510
  718MOL0     H96896   1.371   8.396   3.918  1.7669 -5.7897 -0.1508
  718MOL0     H96897   1.235   8.371   3.811 -0.7966 -2.0342  1.0213
  718MOL0     H96898   1.059   8.425   4.005  0.2976 -0.6616 -0.9978
  718MOL0     H96899   1.198   8.457   4.109 -1.3199  1.2211  0.1165
  718MOL0     H96900   1.126   8.612   3.873 -0.0435  3.9134  0.2742
  718MOL0     H96901   1.280   8.632   3.958 -0.9251  0.3509 -0.8038
  718MOL0     H96902   1.126   8.660   4.169 -0.6725 -0.2929  0.2243
  718MOL0     H96903   0.998   8.691   4.051 -0.8572  1.0189 -3.3354
  718MOL0     H96904   1.254   8.855   4.028 -0.1742  1.5285  1.7427
  718MOL0     H96905   1.089   8.868   3.965 -2.5041 -1.5769  1.4798
  718MOL0     H96906   1.116   8.850   4.263  0.4628 -0.4767 -0.9411
  718MOL0     H96907   0.998   8.932   4.171 -0.8086 -0.7870  1.0211
  718MOL0     H96908   1.148   9.112   4.275 -3.0401 -0.6721 -0.8318
  718MOL0     H96909   1.293   9.040   4.216  0.2009  1.6103 -2.9164
  718MOL0     H96910   1.566   8.132   4.062  0.1890 -0.0954 -0.2832
  718MOL0     H96911   1.641   7.919   4.148  0.5103 -1.0667  2.5937
  718MOL0     H96912   1.636   7.513   4.268  0.5536  3.9545  1.1881
  718MOL0     H96913   1.718   7.290   4.333  1.8450 -0.4309  0.1880
  718MOL0     H96914   1.945   7.869   3.448 -1.9637 -2.0793 -0.0753
  718MOL0     H96915   2.019   8.080   3.331  0.2307  0.4493 -1.2950
  718MOL0     H96916   2.282   8.287   3.102 -0.7994  0.3978 -0.0530
  718MOL0     H96917   2.414   8.482   3.029 -0.0097 -0.2065 -0.2606
  718MOL0     H96918   2.369   8.847   2.878  0.3301 -1.7760  2.7033
  718MOL0     H96919   2.217   8.792   2.806  0.2995  2.4551  2.0263
  718MOL0     H96920   2.363   8.867   2.625 -0.4584 -0.7067  0.7465
  718MOL0     H96921   2.339   8.690   2.603  0.2847 -1.8591  1.3411
  718MOL0     H96922   2.541   8.645   2.729  0.0735 -0.0428 -0.3211
  718MOL0     H96923   2.569   8.816   2.740 -1.0322  0.7986 -0.5457
  718MOL0     H96924   2.684   8.699   2.555 -1.6654 -4.3064  3.7091
  718MOL0     H96925   2.522   8.689   2.463  3.7779  0.1945 -2.8700
  718MOL0     H96926   2.654   9.083   2.405 -0.1746  1.0188 -0.8942
  718MOL0     H96927   2.096   8.603   2.780  1.3515 -0.5952 -0.6126
  718MOL0     H96928   1.846   8.456   2.867 -0.0287 -0.4590  1.7653
  718MOL0     H96929   1.944   8.466   2.716 -2.3217  2.0406  1.7926
  718MOL0     H96930   1.904   8.309   2.794  0.0423 -1.3068 -0.4861
  719MOL0     O96931   8.686   4.521   1.026  0.4674  0.4314 -0.3146
  719MOL0     C96932   8.628   4.463   1.124 -0.3009  0.5226  0.2836
  719MOL0     O96933   8.496   4.449   1.142  0.3655  0.3126  1.2381
  719MOL0     C96934   8.401   4.475   1.048  0.6275 -0.3561 -0.5020
  719MOL0     C96935   8.393   4.585   0.965  0.1292 -0.7377  0.2006
  719MOL0     C96936   8.273   4.621   0.908  0.3600  0.8674 -0.8940
  719MOL0     C96937   8.157   4.539   0.934  0.5962 -0.3391 -0.5496
  719MOL0     O96938   8.029   4.563   0.882  0.3746 -0.8180 -0.1708
  719MOL0     C96939   8.006   4.481   0.768  0.3881  0.2194  0.5618
  719MOL0     C96940   7.880   4.523   0.697  0.6863  0.2312  0.3346
  719MOL0     C96941   7.881   4.669   0.644 -0.8530 -0.3433 -0.4333
  719MOL0     C96942   7.790   4.691   0.523  0.5325  0.4763 -0.4780
  719MOL0     C96943   7.776   4.841   0.502 -0.2833 -0.4723  0.2030
  719MOL0     C96944   7.682   4.856   0.379  0.0866  0.3188  0.4500
  719MOL0     C96945   7.650   5.008   0.342  0.3306 -0.5716  0.1067
  719MOL0     C96946   7.553   5.016   0.223 -0.3869  0.7014 -0.6718
  719MOL0     N96947   7.422   4.960   0.264 -0.1376 -0.3484  0.0629
  719MOL0     C96948   7.338   5.021   0.360  0.3772 -0.0838 -0.6657
  719MOL0     C96949   7.245   4.924   0.374  0.4775 -0.1686  0.2297
  719MOL0     C96950   7.125   4.923   0.459  0.6667 -0.5171  0.2860
  719MOL0     C96951   7.101   4.792   0.536 -0.5613 -0.3018 -0.2706
  719MOL0     C96952   7.206   4.766   0.649 -0.8712 -0.3989  0.5946
  719MOL0     C96953   7.159   4.642   0.726  1.2298  0.0273 -0.3687
  719MOL0     O96954   7.029   4.677   0.784 -0.4422 -0.2017  0.4352
  719MOL0     C96955   6.949   4.582   0.851  0.0065  0.8160  0.0562
  719MOL0     C96956   6.812   4.603   0.868  0.3910  0.4396 -0.4360
  719MOL0     C96957   6.729   4.508   0.931  0.9248 -0.6649 -0.4126
  719MOL0     C96958   6.788   4.393   0.979  0.1235 -0.4061  0.0954
  719MOL0     C96959   6.703   4.280   1.024  0.5025  0.5546 -0.2881
  719MOL0     O96960   6.578   4.316   1.072  0.1624  0.3027 -0.6749
  719MOL0     C96961   6.480   4.220   1.080  0.3712 -0.3894  0.3809
  719MOL0     C96962   6.436   4.153   0.962  0.5110  0.2601  0.4592
  719MOL0     C96963   6.337   4.054   0.976  0.2945  0.0660  0.0436
  719MOL0     C96964   6.279   4.032   1.099  0.6589 -0.0832 -0.0682
  719MOL0     O96965   6.183   3.931   1.130  0.1020 -0.7681  0.4460
  719MOL0     C96966   6.112   3.862   1.031  0.3028  0.1174  0.1860
  719MOL0     C96967   6.189   3.744   0.975 -0.0314  0.5002 -0.0910
  719MOL0     C96968   6.229   3.625   1.072 -0.6525  1.0103 -0.6473
  719MOL0     C96969   6.342   3.534   1.011  0.9148  0.5409 -0.4983
  719MOL0     C96970   6.354   3.403   1.093  0.1670 -0.3640 -1.2205
  719MOL0     C96971   6.458   3.292   1.062  0.3530  0.3296 -0.3824
  719MOL0     C96972   6.439   3.237   0.920 -0.2353 -0.2600  1.0423
  719MOL0     C96973   6.544   3.136   0.898 -0.4065 -0.0533  0.3348
  719MOL0    Cl96974   6.468   3.022   0.779 -0.1227  0.0786  0.0518
  719MOL0     C96975   6.328   4.096   1.212 -0.2454  1.1324 -0.5492
  719MOL0     C96976   6.434   4.188   1.201 -0.0783 -0.3361 -0.9141
  719MOL0     O96977   6.746   4.162   1.011  0.3668 -0.2487 -0.0882
  719MOL0     C96978   6.920   4.366   0.963 -0.4961 -0.6621 -0.4126
  719MOL0     C96979   7.002   4.461   0.896 -0.0835  0.0068 -0.3565
  719MOL0     N96980   7.273   4.806   0.310  0.1835 -0.7001 -0.1031
  719MOL0     N96981   7.385   4.835   0.239 -0.3010  1.3217 -0.0493
  719MOL0     C96982   8.171   4.420   1.010  0.3660  0.0129  0.3275
  719MOL0     C96983   8.295   4.396   1.070 -0.6483 -0.1693 -0.5761
  719MOL0     C96984   8.706   4.416   1.236 -0.1036 -0.5489 -0.0986
  719MOL0     C96985   8.794   4.505   1.293  0.0438 -0.4431  1.5163
  719MOL0     C96986   8.893   4.464   1.385 -0.1487 -0.1662 -0.0075
  719MOL0     C96987   8.891   4.343   1.444 -0.3225  0.5992  0.0544
  719MOL0     O96988   8.969   4.300   1.549  0.1595 -0.4057 -0.4603
  719MOL0     C96989   9.013   4.391   1.646  0.1774 -0.3528 -0.1093
  719MOL0     C96990   9.074   4.309   1.761  0.0674  0.1890  0.3964
  719MOL0     C96991   8.978   4.221   1.851  0.4294 -0.6093  0.1008
  719MOL0     C96992   8.887   4.307   1.949  0.2244 -0.1338  0.6092
  719MOL0     C96993   8.973   4.384   2.039 -0.4926  0.0094  0.4702
  719MOL0     C96994   9.040   4.455   2.118  0.1232  0.2603 -0.7009
  719MOL0     C96995   8.790   4.257   1.401 -0.5843  0.0630 -0.2813
  719MOL0     C96996   8.709   4.286   1.292  0.4339  0.1834  0.1668
  719MOL0     C96997   8.648   4.172   1.222  1.0632  0.4043 -0.5885
  719MOL0     H96998   8.472   4.654   0.938 -0.7701 -0.5222 -2.1125
  719MOL0     H96999   8.265   4.708   0.844  2.3859  0.8972 -1.1832
  719MOL0     H97000   8.087   4.500   0.697  0.0424  1.9553  0.5865
  719MOL0     H97001   7.992   4.375   0.792  1.1477 -0.2122 -0.8003
  719MOL0     H97002   7.799   4.490   0.762  1.1566 -3.3252 -0.6734
  719MOL0     H97003   7.865   4.446   0.620 -2.0635 -0.4048  1.4137
  719MOL0     H97004   7.984   4.689   0.612  0.1903 -3.5217  0.5084
  719MOL0     H97005   7.856   4.742   0.721  4.0867  0.3538  0.8443
  719MOL0     H97006   7.836   4.642   0.437  1.0951 -0.4393  0.3242
  719MOL0     H97007   7.691   4.651   0.549  0.2215  2.2755  1.3857
  719MOL0     H97008   7.732   4.890   0.589  1.0672  4.6216 -1.6142
  719MOL0     H97009   7.871   4.891   0.480  0.4250 -0.3489  3.1521
  719MOL0     H97010   7.724   4.808   0.290  1.4098  0.0678  1.1777
  719MOL0     H97011   7.588   4.805   0.399  1.0423 -3.6163 -3.5764
  719MOL0     H97012   7.741   5.065   0.320 -0.4218  1.0609  0.9878
  719MOL0     H97013   7.614   5.045   0.438 -1.3589 -0.5704 -0.4828
  719MOL0     H97014   7.537   5.121   0.199  3.6875  1.4942 -0.7309
  719MOL0     H97015   7.594   4.959   0.139  0.1878 -1.2420  0.8500
  719MOL0     H97016   7.334   5.114   0.416  2.3711 -1.6951  2.5179
  719MOL0     H97017   7.124   5.008   0.528 -0.1734  0.6994 -1.1299
  719MOL0     H97018   7.045   4.955   0.391  4.0379  1.6037 -3.1278
  719MOL0     H97019   7.001   4.808   0.577 -0.5265  1.0553 -0.6434
  719MOL0     H97020   7.099   4.705   0.470 -1.5363  1.1302 -2.2511
  719MOL0     H97021   7.214   4.849   0.720  1.3332  1.7067 -1.8789
  719MOL0     H97022   7.304   4.742   0.606  0.4808 -0.1233  3.3151
  719MOL0     H97023   7.239   4.622   0.798  0.6593 -2.1980 -0.2993
  719MOL0     H97024   7.149   4.562   0.652  2.8528 -0.4153 -0.1446
  719MOL0     H97025   6.773   4.697   0.831 -0.3539  0.3363  0.0878
  719MOL0     H97026   6.621   4.509   0.940  0.8558  0.1091 -1.1849
  719MOL0     H97027   6.479   4.173   0.864  0.2267  3.2764  0.8667
  719MOL0     H97028   6.300   3.999   0.890 -1.7389  0.2008  0.7611
  719MOL0     H97029   6.019   3.836   1.082  0.6095  1.1722  1.3339
  719MOL0     H97030   6.097   3.929   0.946  1.1515  0.8671  0.6013
  719MOL0     H97031   6.130   3.700   0.894 -1.1778  3.5856 -1.0589
  719MOL0     H97032   6.276   3.775   0.918 -0.9434  1.5162 -0.9630
  719MOL0     H97033   6.276   3.663   1.164  1.4042 -1.8605 -0.3895
  719MOL0     H97034   6.135   3.570   1.090 -0.2318  0.6264  0.4635
  719MOL0     H97035   6.439   3.586   1.009  1.8677 -0.7888  3.0522
  719MOL0     H97036   6.309   3.507   0.910  1.7994 -2.7911 -0.0006
  719MOL0     H97037   6.257   3.356   1.110  0.6608 -1.5062 -1.4332
  719MOL0     H97038   6.378   3.431   1.197  1.0294 -4.7705 -0.0127
  719MOL0     H97039   6.558   3.334   1.076  0.4208  0.6852 -1.8079
  719MOL0     H97040   6.433   3.219   1.139 -1.8621  1.5262  0.1221
  719MOL0     H97041   6.458   3.323   0.854  1.3203  0.3178  2.1696
  719MOL0     H97042   6.337   3.204   0.902  0.3947 -0.6123 -2.5401
  719MOL0     H97043   6.636   3.184   0.861  0.0070 -1.4915 -0.5890
  719MOL0     H97044   6.564   3.090   0.995  1.7472  1.0348  0.4704
  719MOL0     H97045   6.300   4.063   1.312  2.1930  1.8835  0.4780
  719MOL0     H97046   6.461   4.244   1.289 -1.0813  1.8365 -1.9047
  719MOL0     H97047   6.968   4.270   0.984 -0.2798 -0.3909  0.3682
  719MOL0     H97048   7.108   4.436   0.889 -0.3014 -1.4045  0.9969
  719MOL0     H97049   8.086   4.357   1.034  0.3939 -0.3248 -0.4311
  719MOL0     H97050   8.313   4.312   1.136 -2.4702  1.1540  1.7865
  719MOL0     H97051   8.795   4.606   1.254  2.7417 -1.0565 -0.3059
  719MOL0     H97052   8.960   4.543   1.417 -2.4198  1.4607  0.9835
  719MOL0     H97053   8.931   4.459   1.670 -0.8914 -1.5172 -0.3304
  719MOL0     H97054   9.090   4.454   1.601 -1.5933  1.4560 -0.7632
  719MOL0     H97055   9.122   4.384   1.825 -0.9445  0.6916  0.5714
  719MOL0     H97056   9.140   4.233   1.718 -3.0108 -2.6789  0.3417
  719MOL0     H97057   9.029   4.140   1.905  0.0420 -1.5764 -0.9413
  719MOL0     H97058   8.912   4.164   1.786  2.3467 -0.9487 -1.6586
  719MOL0     H97059   8.833   4.386   1.896 -0.5550 -2.1862 -1.8819
  719MOL0     H97060   8.820   4.251   2.015 -2.4294  1.2421 -0.7369
  719MOL0     H97061   9.072   4.533   2.184  0.0144 -0.3179  0.0526
  719MOL0     H97062   8.784   4.156   1.441 -1.4781 -0.7536 -2.3315
  719MOL0     H97063   8.715   4.091   1.192 -1.0078 -1.9682  0.8256
  719MOL0     H97064   8.577   4.119   1.286 -0.0412  3.0072  0.5048
  719MOL0     H97065   8.587   4.202   1.136 -1.6056 -0.2183  0.9543
  720MOL0     O97066   8.278   5.202   6.116  0.2267 -0.0453  0.2862
  720MOL0     C97067   8.325   5.320   6.107 -0.8805 -0.5846 -0.0870
  720MOL0     O97068   8.339   5.389   5.985  0.0659  1.2674 -0.5977
  720MOL0     C97069   8.288   5.321   5.881  0.1568  0.2646  0.5715
  720MOL0     C97070   8.382   5.246   5.810  0.1360 -0.2077  0.7920
  720MOL0     C97071   8.345   5.177   5.693 -0.7009  0.4684 -0.1773
  720MOL0     C97072   8.211   5.175   5.648 -0.3231 -0.3599 -0.9741
  720MOL0     O97073   8.176   5.094   5.533  0.2703  0.1816 -0.5604
  720MOL0     C97074   8.110   5.149   5.416 -0.3681  0.3521 -0.6171
  720MOL0     C97075   8.198   5.256   5.347  1.0158  1.1573 -0.3235
  720MOL0     C97076   8.323   5.200   5.275  0.2483 -0.0087  0.4678
  720MOL0     C97077   8.279   5.133   5.150  0.3286 -0.2358 -0.0305
  720MOL0     C97078   8.355   5.171   5.021 -0.0941 -0.2029 -1.2956
  720MOL0     C97079   8.500   5.121   5.034 -0.3767 -0.7663  0.4547
  720MOL0     C97080   8.578   5.197   4.933 -0.1984 -0.4565  0.9114
  720MOL0     C97081   8.712   5.126   4.917  0.4862 -0.0160 -0.1394
  720MOL0     N97082   8.784   5.167   4.801 -0.1910  0.0113  1.0625
  720MOL0     C97083   8.779   5.113   4.670  0.7066  0.5244 -0.0517
  720MOL0     C97084   8.801   5.217   4.589 -0.1654  1.2487 -0.2338
  720MOL0     C97085   8.775   5.213   4.446 -0.1866 -0.4818  0.5158
  720MOL0     C97086   8.893   5.157   4.373  0.5264  0.6852  0.1986
  720MOL0     C97087   8.873   5.168   4.216  0.0165  0.3941  0.6358
  720MOL0     C97088   8.987   5.091   4.142 -0.3915 -0.6077  0.3609
  720MOL0     O97089   8.983   4.946   4.159  0.1970 -0.3313  0.3210
  720MOL0     C97090   9.072   4.895   4.255  0.0642  1.0363 -0.4402
  720MOL0     C97091   9.027   4.772   4.315 -0.0663  0.1424  0.5874
  720MOL0     C97092   9.101   4.701   4.416 -0.0071 -0.7829 -0.3140
  720MOL0     C97093   9.220   4.759   4.462 -0.2366  0.1043 -0.0201
  720MOL0     C97094   9.300   4.698   4.571 -0.4265  0.0432 -0.8034
  720MOL0     O97095   9.429   4.768   4.595  0.1713  0.3320  0.2192
  720MOL0     C97096   9.521   4.698   4.666  0.6137 -0.0354  0.4231
  720MOL0     C97097   9.649   4.673   4.610  0.4773  0.5318  1.0153
  720MOL0     C97098   9.752   4.605   4.676  0.2016  0.2037 -0.6152
  720MOL0     C97099   9.720   4.550   4.796 -0.3118 -0.9027  0.9238
  720MOL0     O97100   9.812   4.491   4.876 -0.1604  0.2844 -0.1755
  720MOL0     C97101   9.867   4.360   4.845  0.5099  0.2972  0.6458
  720MOL0     C97102  10.020   4.355   4.847  0.0555 -0.3719 -0.5288
  720MOL0     C97103  10.057   4.242   4.766 -0.0351 -0.0854 -0.3883
  720MOL0     C97104  10.090   4.273   4.616  0.9785 -0.0131  0.1534
  720MOL0     C97105  10.059   4.138   4.553  0.2554 -0.4453  0.0379
  720MOL0     C97106  10.092   4.166   4.403 -0.4189 -0.5510 -0.2362
  720MOL0     C97107  10.080   4.041   4.317 -0.5535 -0.1962  0.6099
  720MOL0     C97108  10.121   4.065   4.165  1.0170  0.2983 -0.1939
  720MOL0    Cl97109  10.128   3.908   4.079 -0.3035  0.2194  0.1129
  720MOL0     C97110   9.601   4.574   4.852  0.4627  0.0674 -0.7506
  720MOL0     C97111   9.501   4.658   4.798  0.6240  0.2230  0.0556
  720MOL0     O97112   9.264   4.589   4.626  0.4012 -0.3471  0.1133
  720MOL0     C97113   9.262   4.878   4.393  0.3472 -0.1161  0.4288
  720MOL0     C97114   9.197   4.951   4.294  0.2860  0.1696  0.1038
  720MOL0     N97115   8.849   5.322   4.667  0.2922 -0.1812 -0.1430
  720MOL0     N97116   8.831   5.295   4.794  0.6715 -0.5173  0.5102
  720MOL0     C97117   8.111   5.241   5.731  0.5367  0.0105 -0.3005
  720MOL0     C97118   8.152   5.314   5.845 -0.3013 -0.1556  0.2758
  720MOL0     C97119   8.355   5.390   6.238  0.3641 -0.2241  1.1513
  720MOL0     C97120   8.461   5.486   6.233  0.5973 -0.1891 -0.0073
  720MOL0     C97121   8.495   5.560   6.351 -0.1307  0.0479  0.5794
  720MOL0     C97122   8.445   5.523   6.477  0.8847 -0.1975  1.3095
  720MOL0     O97123   8.477   5.590   6.592  0.0066  0.5660 -0.3705
  720MOL0     C97124   8.607   5.630   6.604 -0.2435 -0.1839 -0.5489
  720MOL0     C97125   8.653   5.610   6.743 -0.3793 -0.8498 -0.3027
  720MOL0     C97126   8.575   5.699   6.844  0.4184 -0.2791  0.0341
  720MOL0     C97127   8.553   5.843   6.813 -0.2402 -1.0472 -0.1512
  720MOL0     C97128   8.677   5.915   6.771  0.3328 -0.0279  0.6835
  720MOL0     C97129   8.787   5.977   6.749  0.4879 -0.6838  1.1810
  720MOL0     C97130   8.348   5.421   6.470 -0.4479 -0.8051 -0.9075
  720MOL0     C97131   8.294   5.362   6.356  0.0016 -0.8324  0.1771
  720MOL0     C97132   8.181   5.270   6.386 -0.1572 -0.2258 -0.2506
  720MOL0     H97133   8.486   5.240   5.838  1.0344 -0.0978 -2.1880
  720MOL0     H97134   8.427   5.127   5.642 -1.2796 -0.1875 -0.4827
  720MOL0     H97135   8.094   5.070   5.342 -0.6270 -0.5403  0.3576
  720MOL0     H97136   8.012   5.185   5.448 -0.2265 -1.4330  2.2182
  720MOL0     H97137   8.228   5.323   5.428 -1.9018 -1.9825  3.7561
  720MOL0     H97138   8.129   5.319   5.290 -0.6151  1.8649  2.2451
  720MOL0     H97139   8.361   5.118   5.337  1.6621 -0.2013 -0.6049
  720MOL0     H97140   8.385   5.286   5.250 -0.7640 -0.0297 -2.4643
  720MOL0     H97141   8.282   5.026   5.168 -3.3903 -0.3825  0.4351
  720MOL0     H97142   8.178   5.164   5.120  1.0538  1.1468 -1.2330
  720MOL0     H97143   8.308   5.108   4.945  1.3808 -1.1143 -1.4846
  720MOL0     H97144   8.352   5.275   4.989  1.1726 -0.0334 -0.9260
  720MOL0     H97145   8.534   5.156   5.132 -2.5833  0.2708  0.9010
  720MOL0     H97146   8.484   5.013   5.032 -2.1234 -0.5285 -0.4963
  720MOL0     H97147   8.597   5.301   4.963 -1.6210  0.6587 -1.6744
  720MOL0     H97148   8.521   5.198   4.840  0.2714  2.0381  0.5641
  720MOL0     H97149   8.768   5.149   5.007 -1.3376  2.7765  0.4138
  720MOL0     H97150   8.710   5.017   4.921  0.2392  0.0398  2.1196
  720MOL0     H97151   8.736   5.021   4.633  0.2016 -0.2288  2.2491
  720MOL0     H97152   8.698   5.139   4.421 -0.5798  0.3587 -0.9094
  720MOL0     H97153   8.743   5.313   4.416  0.1540 -0.6735 -0.5269
  720MOL0     H97154   8.984   5.213   4.397  1.0743 -0.5059  0.9698
  720MOL0     H97155   8.909   5.054   4.406 -4.0028  0.3321  2.1354
  720MOL0     H97156   8.872   5.275   4.192 -0.7781  0.6565  1.7247
  720MOL0     H97157   8.776   5.120   4.198  0.2551 -1.5529  3.7233
  720MOL0     H97158   9.079   5.134   4.183  0.1889  0.8745 -2.2788
  720MOL0     H97159   8.982   5.116   4.036 -0.8100  2.6463  1.0367
  720MOL0     H97160   8.932   4.730   4.284 -0.4615 -0.0201  1.9271
  720MOL0     H97161   9.067   4.612   4.468  3.4624 -0.7434  2.3654
  720MOL0     H97162   9.652   4.718   4.511  0.5480 -0.7693  0.4072
  720MOL0     H97163   9.853   4.594   4.636  0.1321 -0.7264 -0.5608
  720MOL0     H97164   9.835   4.285   4.918 -1.8225 -1.5251 -2.0313
  720MOL0     H97165   9.825   4.316   4.753  1.0822 -0.7635  0.8772
  720MOL0     H97166  10.050   4.453   4.808 -2.4678 -0.1293 -2.1117
  720MOL0     H97167  10.064   4.348   4.947  2.3261  1.6453 -1.2782
  720MOL0     H97168  10.143   4.194   4.813  0.9160  0.2309 -1.7449
  720MOL0     H97169   9.980   4.165   4.776  1.4675 -1.7075 -0.8421
  720MOL0     H97170  10.198   4.291   4.609  0.6147  2.0790 -1.0694
  720MOL0     H97171  10.030   4.353   4.571  1.7159  0.0731 -0.7274
  720MOL0     H97172   9.954   4.113   4.569  0.4279 -0.0828  1.8720
  720MOL0     H97173  10.120   4.052   4.584 -3.1481 -3.3930 -0.7485
  720MOL0     H97174  10.019   4.233   4.357  0.4423  0.8459  0.3650
  720MOL0     H97175  10.193   4.208   4.395 -0.5670  0.1290  1.1219
  720MOL0     H97176   9.983   3.990   4.319 -0.6908 -0.1078 -1.5440
  720MOL0     H97177  10.151   3.969   4.359  0.4042  0.1604 -0.3564
  720MOL0     H97178  10.050   4.134   4.119  0.4032  1.7456  2.6868
  720MOL0     H97179  10.217   4.115   4.154  1.5491 -0.7821 -0.6776
  720MOL0     H97180   9.583   4.532   4.951  2.7970  2.4557  0.8402
  720MOL0     H97181   9.411   4.661   4.858  0.9814 -0.8540  0.6854
  720MOL0     H97182   9.351   4.935   4.415  0.2302  0.1399  0.2482
  720MOL0     H97183   9.234   5.046   4.259 -0.6054  0.1440 -0.9541
  720MOL0     H97184   8.003   5.234   5.718  0.6401 -2.7948 -0.2270
  720MOL0     H97185   8.065   5.361   5.891  0.3576 -0.2885  1.7182
  720MOL0     H97186   8.515   5.519   6.145 -0.0934 -1.1092 -0.7956
  720MOL0     H97187   8.550   5.653   6.338 -0.4463  0.2587  0.7351
  720MOL0     H97188   8.610   5.732   6.566  0.3230 -0.6059 -1.6870
  720MOL0     H97189   8.674   5.565   6.546  1.0040  1.1721 -0.6746
  720MOL0     H97190   8.757   5.640   6.763 -0.5276 -1.9774  2.6989
  720MOL0     H97191   8.638   5.505   6.770  0.1221 -0.7014  0.6245
  720MOL0     H97192   8.614   5.680   6.944  0.0303  0.3360  0.3098
  720MOL0     H97193   8.478   5.652   6.862  0.3855 -0.3953 -0.4172
  720MOL0     H97194   8.485   5.872   6.732 -1.4164  0.7728  1.3723
  720MOL0     H97195   8.522   5.889   6.908  6.9803  0.9861  1.8155
  720MOL0     H97196   8.875   6.034   6.729  0.6884 -1.4066 -0.1074
  720MOL0     H97197   8.305   5.400   6.567 -0.4128  2.4229 -0.0868
  720MOL0     H97198   8.120   5.295   6.472  1.3719  0.3942  0.6977
  720MOL0     H97199   8.108   5.268   6.305 -2.1157 -4.0497  1.3183
  720MOL0     H97200   8.227   5.172   6.402 -0.8886 -0.3355  1.3509
  721MOL0     O97201   9.848   5.643   9.437  0.2872 -0.0571  0.0747
  721MOL0     C97202   9.914   5.710   9.352  1.3958 -1.1052 -0.3469
  721MOL0     O97203  10.027   5.661   9.295  0.6397 -0.9219 -0.2769
  721MOL0     C97204  10.094   5.569   9.370  0.6826  0.3242  0.5219
  721MOL0     C97205  10.072   5.432   9.364  0.0700  0.7216  0.1591
  721MOL0     C97206  10.150   5.345   9.446 -0.3951 -0.4953  0.2379
  721MOL0     C97207  10.267   5.388   9.524 -0.3704 -0.3546  1.0542
  721MOL0     O97208  10.337   5.292   9.586 -0.2864  0.0624 -0.6943
  721MOL0     C97209  10.478   5.311   9.604  0.4888 -0.0132  0.1297
  721MOL0     C97210  10.536   5.185   9.648 -0.5377  0.4813 -0.2516
  721MOL0     C97211  10.459   5.128   9.773 -0.5888 -0.2172  0.1975
  721MOL0     C97212  10.527   5.012   9.847  0.2464  0.6094 -0.7273
  721MOL0     C97213  10.645   5.055   9.937 -0.6402 -0.4282  0.2447
  721MOL0     C97214  10.691   4.941  10.023  0.0166  0.8896 -0.4266
  721MOL0     C97215  10.829   4.965  10.085  0.3780  1.1416  0.7704
  721MOL0     C97216  10.891   4.831  10.102  0.0621  0.1131 -0.4605
  721MOL0     N97217  11.028   4.836  10.169  0.1066 -0.0037 -0.1753
  721MOL0     C97218  11.060   4.922  10.263  0.2035 -0.6670 -0.8521
  721MOL0     C97219  11.175   4.879  10.309 -1.0667  0.9465  0.6203
  721MOL0     C97220  11.255   4.936  10.411 -0.5380 -0.0964  0.4747
  721MOL0     C97221  11.384   5.001  10.348  0.1441 -0.0665 -0.8225
  721MOL0     C97222  11.491   4.896  10.340  0.1619  0.7869 -0.8219
  721MOL0     C97223  11.555   4.853  10.477  0.1357  0.0150 -0.5565
  721MOL0     O97224  11.669   4.783  10.446  0.0511  0.3258 -0.3669
  721MOL0     C97225  11.778   4.804  10.530 -0.4388 -0.5698  0.5123
  721MOL0     C97226  11.906   4.778  10.473 -0.3949 -1.2285  0.3568
  721MOL0     C97227  12.016   4.807  10.560  0.5913  0.3929  0.3882
  721MOL0     C97228  12.013   4.824  10.699  0.8173 -0.2681  0.3311
  721MOL0     C97229  12.136   4.855  10.774 -0.2357  0.4819 -0.4451
  721MOL0     O97230  12.249   4.832  10.705  0.0163  0.2783 -0.4845
  721MOL0     C97231  12.369   4.851  10.766 -0.5312 -0.3694  0.4084
  721MOL0     C97232  12.465   4.933  10.705 -0.0166 -0.2689 -0.2074
  721MOL0     C97233  12.587   4.964  10.771  0.1083  0.4105 -1.0227
  721MOL0     C97234  12.620   4.917  10.903 -0.3246 -0.3125  0.2190
  721MOL0     O97235  12.735   4.955  10.966  0.6125  0.7028  0.1104
  721MOL0     C97236  12.788   4.863  11.060 -0.6256  1.0415 -0.4611
  721MOL0     C97237  12.925   4.917  11.092 -0.0482 -0.6167 -0.2682
  721MOL0     C97238  13.020   4.911  10.972  0.1305 -0.7093 -0.7935
  721MOL0     C97239  13.156   4.904  11.035  0.2809 -0.4459  0.1419
  721MOL0     C97240  13.270   4.915  10.936  0.0599 -0.5498 -0.7582
  721MOL0     C97241  13.416   4.900  10.993  0.5360 -0.1059 -0.2834
  721MOL0     C97242  13.507   4.858  10.877  0.2673  0.1520  0.3291
  721MOL0     C97243  13.641   4.785  10.889  0.7243  0.4121 -0.2534
  721MOL0    Cl97244  13.615   4.618  10.948 -0.2700  0.3394  0.1658
  721MOL0     C97245  12.521   4.827  10.951 -0.1865  1.3184 -0.6960
  721MOL0     C97246  12.406   4.794  10.888 -0.3764  0.1389  0.1249
  721MOL0     O97247  12.121   4.896  10.891  0.1024 -0.3011 -0.0020
  721MOL0     C97248  11.886   4.834  10.754 -0.1277 -0.1117  0.2934
  721MOL0     C97249  11.774   4.849  10.662 -0.1434  0.0174 -0.1700
  721MOL0     N97250  11.215   4.767  10.240 -0.6171 -0.3730  1.4775
  721MOL0     N97251  11.122   4.744  10.150 -0.1147 -0.0042  0.2392
  721MOL0     C97252  10.291   5.524   9.517  0.3185 -0.3915 -0.5549
  721MOL0     C97253  10.197   5.612   9.453 -0.3018 -1.3777  0.5779
  721MOL0     C97254   9.838   5.834   9.297  0.1679 -0.5517  0.4618
  721MOL0     C97255   9.903   5.911   9.198  0.6045 -0.1257  0.4323
  721MOL0     C97256   9.848   6.017   9.132 -0.2243 -0.9516 -0.5184
  721MOL0     C97257   9.728   6.071   9.190 -0.0614 -0.2701  0.3791
  721MOL0     O97258   9.668   6.184   9.154 -0.0075  0.1187 -0.5028
  721MOL0     C97259   9.698   6.250   9.023  0.1203  0.3808 -0.1191
  721MOL0     C97260   9.574   6.337   8.989  0.0299 -0.0921  0.6502
  721MOL0     C97261   9.538   6.425   9.102  1.1006 -0.1232  0.0937
  721MOL0     C97262   9.432   6.533   9.077 -0.3398 -0.1613  0.9389
  721MOL0     C97263   9.481   6.628   8.981 -0.2794 -0.1605  0.6144
  721MOL0     C97264   9.520   6.715   8.899  0.8640 -1.0880 -0.2766
  721MOL0     C97265   9.657   5.995   9.280  0.2887 -0.2223  0.1345
  721MOL0     C97266   9.708   5.873   9.335  0.0793  0.1788 -0.1455
  721MOL0     C97267   9.617   5.790   9.421  0.9851 -0.8696 -0.3129
  721MOL0     H97268   9.982   5.406   9.309 -0.2175  1.4560  0.2717
  721MOL0     H97269  10.122   5.240   9.446  1.5158 -1.0609 -1.4414
  721MOL0     H97270  10.519   5.345   9.509 -1.1373  0.6153 -0.3850
  721MOL0     H97271  10.497   5.386   9.681 -1.6249  0.1899  0.5339
  721MOL0     H97272  10.640   5.210   9.670 -0.4034  1.6154 -1.9174
  721MOL0     H97273  10.533   5.110   9.569 -1.1161  0.4046 -0.1578
  721MOL0     H97274  10.362   5.091   9.738 -0.5589 -1.1499  1.0713
  721MOL0     H97275  10.435   5.211   9.840 -0.2751  0.2079 -0.2109
  721MOL0     H97276  10.451   4.964   9.909 -0.3750  1.5669 -0.7326
  721MOL0     H97277  10.559   4.937   9.774  3.0362  1.2617 -0.2811
  721MOL0     H97278  10.728   5.086   9.873 -1.0154 -1.3096 -0.6969
  721MOL0     H97279  10.623   5.145   9.995  1.9255  0.7132 -0.4153
  721MOL0     H97280  10.620   4.921  10.103  0.7705 -0.3732 -0.0370
  721MOL0     H97281  10.698   4.857   9.954 -1.1022 -0.0878  0.5958
  721MOL0     H97282  10.823   5.028  10.174  1.6529  3.0173 -0.3758
  721MOL0     H97283  10.894   5.021  10.016 -0.2444 -1.4906 -2.1972
  721MOL0     H97284  10.826   4.779  10.173  0.0842  1.0754  0.2840
  721MOL0     H97285  10.893   4.772  10.009  0.7596 -0.8858  0.1608
  721MOL0     H97286  11.005   5.010  10.295  2.0286 -0.2990  1.5386
  721MOL0     H97287  11.185   5.003  10.462  1.0761  4.2390 -2.3413
  721MOL0     H97288  11.281   4.846  10.467 -0.2256 -2.6812 -3.3880
  721MOL0     H97289  11.360   5.044  10.250  2.7681  3.0433 -0.2568
  721MOL0     H97290  11.414   5.077  10.420  1.0250 -0.3079 -0.9180
  721MOL0     H97291  11.574   4.921  10.273  0.4521 -1.8999 -1.6016
  721MOL0     H97292  11.451   4.805  10.295  1.5636 -0.8637  1.0780
  721MOL0     H97293  11.489   4.792  10.539  1.5703 -0.5389  0.4640
  721MOL0     H97294  11.586   4.944  10.528 -0.8193 -0.0069  0.1068
  721MOL0     H97295  11.927   4.756  10.369  0.6075  1.1616 -0.0099
  721MOL0     H97296  12.113   4.784  10.516  0.9159 -1.0830  1.7596
  721MOL0     H97297  12.438   4.966  10.606  2.1297 -5.6766 -2.9851
  721MOL0     H97298  12.653   5.034  10.721  3.3643 -2.1284 -0.5584
  721MOL0     H97299  12.726   4.862  11.150 -1.4517 -4.6250 -0.7740
  721MOL0     H97300  12.811   4.759  11.039  1.2314  1.0810  1.0731
  721MOL0     H97301  12.904   5.019  11.125  2.3808 -0.9122  2.6923
  721MOL0     H97302  12.970   4.870  11.181 -0.1061 -0.0418  0.0667
  721MOL0     H97303  13.003   4.818  10.918  2.5559 -1.2292 -0.7761
  721MOL0     H97304  13.005   4.998  10.908  1.0969 -0.6911 -1.0050
  721MOL0     H97305  13.158   4.808  11.087 -2.2129 -1.2884 -1.1910
  721MOL0     H97306  13.168   4.981  11.112  0.8533 -1.8289  1.4937
  721MOL0     H97307  13.262   5.003  10.872 -1.1807  1.4128  1.8789
  721MOL0     H97308  13.247   4.827  10.875 -0.4313 -0.1240 -1.2045
  721MOL0     H97309  13.457   4.994  11.032  1.3324  0.6285 -2.6743
  721MOL0     H97310  13.432   4.820  11.067  2.0713 -1.1244 -1.6501
  721MOL0     H97311  13.513   4.951  10.820  0.0023  1.0377  1.7062
  721MOL0     H97312  13.444   4.788  10.820 -2.0687  1.7471  0.8194
  721MOL0     H97313  13.683   4.784  10.789 -2.6147  3.2603 -1.9041
  721MOL0     H97314  13.703   4.835  10.965  1.0989 -2.5343  1.5411
  721MOL0     H97315  12.529   4.789  11.053  0.5707 -1.2240 -1.6216
  721MOL0     H97316  12.338   4.716  10.921 -0.5947 -0.3966 -1.4883
  721MOL0     H97317  11.870   4.853  10.860  1.5172  1.4008  0.3179
  721MOL0     H97318  11.685   4.889  10.710  0.0068  0.8163 -0.5446
  721MOL0     H97319  10.374   5.565   9.574  0.8036 -2.6954  0.4884
  721MOL0     H97320  10.207   5.720   9.449 -1.6982 -1.2463 -3.0112
  721MOL0     H97321   9.993   5.874   9.151  0.2763  1.6331 -1.7255
  721MOL0     H97322   9.894   6.068   9.047  0.1510  3.2587  1.9490
  721MOL0     H97323   9.707   6.180   8.940 -3.4092  0.5090 -0.7701
  721MOL0     H97324   9.794   6.303   9.029  0.0296  0.4286  1.3378
  721MOL0     H97325   9.484   6.276   8.974  0.8208 -1.6267  1.9619
  721MOL0     H97326   9.599   6.394   8.898 -1.1717 -0.6013 -0.0289
  721MOL0     H97327   9.629   6.465   9.149  1.1077 -1.7710  1.5775
  721MOL0     H97328   9.499   6.361   9.182 -1.6759  0.0298 -1.0410
  721MOL0     H97329   9.342   6.491   9.033  0.1581  0.4081 -0.6830
  721MOL0     H97330   9.403   6.589   9.167 -0.7350 -0.0223  0.7247
  721MOL0     H97331   9.538   6.790   8.824 -3.2085  2.2014  1.6465
  721MOL0     H97332   9.559   6.039   9.298  1.2448  2.9602 -1.6206
  721MOL0     H97333   9.599   5.688   9.386 -0.6405 -0.7444  0.0668
  721MOL0     H97334   9.659   5.791   9.522 -0.7319 -2.7323  0.5020
  721MOL0     H97335   9.519   5.839   9.431 -0.1965 -3.1154 -0.2926
  722MOL0     O97336   1.041   6.902   4.365 -0.1426 -0.1528  0.5136
  722MOL0     C97337   1.141   6.970   4.333  0.6798  0.3627 -0.4006
  722MOL0     O97338   1.264   6.922   4.332 -0.3840 -0.1572  0.3912
  722MOL0     C97339   1.284   6.806   4.407 -0.3627 -0.0299 -0.6537
  722MOL0     C97340   1.322   6.807   4.542  0.8406  0.4330  0.1185
  722MOL0     C97341   1.354   6.681   4.609  0.0198 -0.1905  0.3378
  722MOL0     C97342   1.374   6.569   4.540  0.6006 -0.4028  0.1907
  722MOL0     O97343   1.396   6.450   4.608 -0.2214  0.7485 -0.7006
  722MOL0     C97344   1.280   6.359   4.606  0.8968 -1.0592 -0.8664
  722MOL0     C97345   1.322   6.237   4.536  0.1580 -0.5433 -0.3505
  722MOL0     C97346   1.192   6.175   4.474  0.7011 -0.0443  0.8593
  722MOL0     C97347   1.219   6.055   4.386 -0.1085  0.2571 -0.1063
  722MOL0     C97348   1.116   5.945   4.407  0.7583 -0.0697 -0.3890
  722MOL0     C97349   1.146   5.815   4.318 -0.9275  0.0060 -0.2176
  722MOL0     C97350   1.254   5.733   4.371 -0.2264 -0.7669  0.3791
  722MOL0     C97351   1.252   5.592   4.322 -0.1966 -0.1421  0.9394
  722MOL0     N97352   1.340   5.508   4.403 -0.3171  0.2684 -0.5951
  722MOL0     C97353   1.480   5.502   4.394  0.3481  0.1198 -0.8351
  722MOL0     C97354   1.513   5.452   4.521  0.3376 -0.5884 -0.0261
  722MOL0     C97355   1.655   5.430   4.571  0.2801  0.0264  0.5298
  722MOL0     C97356   1.698   5.287   4.515 -0.2519  0.1605  0.0733
  722MOL0     C97357   1.835   5.247   4.547 -0.7443  0.8744  0.0600
  722MOL0     C97358   1.942   5.302   4.442  0.1073 -0.1296 -0.9628
  722MOL0     O97359   1.950   5.446   4.453  0.4027  0.2709 -1.3590
  722MOL0     C97360   2.039   5.499   4.359 -0.0590  0.3536 -0.7711
  722MOL0     C97361   2.171   5.455   4.354  1.0752  0.0815 -0.1504
  722MOL0     C97362   2.258   5.506   4.258 -1.0224  0.0021  0.4202
  722MOL0     C97363   2.214   5.604   4.163  0.0314  0.6104  1.4934
  722MOL0     C97364   2.298   5.655   4.059  0.8451 -0.2661  0.0427
  722MOL0     O97365   2.431   5.622   4.046 -0.3750  0.0140  0.0515
  722MOL0     C97366   2.517   5.695   3.965  0.3978 -0.3304 -0.2323
  722MOL0     C97367   2.635   5.625   3.939 -0.6449  0.4791 -0.4108
  722MOL0     C97368   2.719   5.682   3.839  0.8678 -0.5029  0.5951
  722MOL0     C97369   2.694   5.803   3.769 -0.0356 -0.5613 -1.2902
  722MOL0     O97370   2.785   5.852   3.672 -0.0185  0.8607  0.6975
  722MOL0     C97371   2.719   5.896   3.555  0.5684 -0.4918  0.1503
  722MOL0     C97372   2.844   5.957   3.490 -0.1201 -0.6296  1.1177
  722MOL0     C97373   2.833   6.045   3.362  0.1599  0.1899  0.9487
  722MOL0     C97374   2.751   5.965   3.254 -0.0545 -0.3737  0.0613
  722MOL0     C97375   2.765   6.033   3.121  0.8825  0.3426  0.1280
  722MOL0     C97376   2.892   5.980   3.045 -1.3197  0.7039 -0.5347
  722MOL0     C97377   2.971   6.098   3.001  0.5722 -0.6766  0.2338
  722MOL0     C97378   3.030   6.074   2.861 -0.7079 -0.0968  0.1495
  722MOL0    Cl97379   3.183   5.974   2.862  0.2199  0.5854  0.2175
  722MOL0     C97380   2.581   5.876   3.819 -0.3515 -0.8073  0.2573
  722MOL0     C97381   2.495   5.818   3.905 -0.2062 -0.8037 -0.5335
  722MOL0     O97382   2.243   5.723   3.978  0.2587 -0.0323 -0.0189
  722MOL0     C97383   2.081   5.650   4.177 -0.5662 -1.4279 -0.0261
  722MOL0     C97384   2.004   5.599   4.279 -0.1675 -0.4199 -0.2759
  722MOL0     N97385   1.405   5.430   4.603  0.8672  0.0393 -0.5961
  722MOL0     N97386   1.307   5.461   4.529  0.6067  0.4780 -0.1784
  722MOL0     C97387   1.352   6.564   4.402  0.1560  0.5897  0.3767
  722MOL0     C97388   1.309   6.687   4.337  0.0087  0.0625  0.2674
  722MOL0     C97389   1.130   7.116   4.288 -0.7334 -0.3968  0.1083
  722MOL0     C97390   1.244   7.193   4.300  0.2252 -1.0776  0.1527
  722MOL0     C97391   1.245   7.323   4.242 -0.4266 -0.3333 -0.0632
  722MOL0     C97392   1.135   7.374   4.170  0.8426  0.3965 -1.0611
  722MOL0     O97393   1.128   7.495   4.099  1.2148 -0.2195  0.1510
  722MOL0     C97394   1.239   7.586   4.103 -0.3181 -0.5410  0.2710
  722MOL0     C97395   1.248   7.657   3.964  0.0170  0.3990 -0.5947
  722MOL0     C97396   1.139   7.748   3.946 -0.2677 -0.2569  0.4549
  722MOL0     C97397   1.147   7.846   3.829  0.4127 -0.3661 -0.1213
  722MOL0     C97398   1.199   7.773   3.711  0.0983  0.0696 -0.0903
  722MOL0     C97399   1.222   7.695   3.620 -0.6152 -0.6797  0.4511
  722MOL0     C97400   1.030   7.287   4.164  0.2803 -0.8277  0.9878
  722MOL0     C97401   1.022   7.159   4.213  1.2853 -0.2145  0.5224
  722MOL0     C97402   0.907   7.062   4.172 -0.4287 -0.1266 -0.8362
  722MOL0     H97403   1.302   6.894   4.604 -4.2986 -0.9222  0.8668
  722MOL0     H97404   1.364   6.682   4.717  0.4459  2.1114  0.3314
  722MOL0     H97405   1.228   6.354   4.702 -2.1529  4.4609 -1.8195
  722MOL0     H97406   1.204   6.406   4.543 -0.3279 -1.2048  0.4572
  722MOL0     H97407   1.372   6.174   4.610 -2.6028  0.6488  2.7441
  722MOL0     H97408   1.402   6.247   4.461  1.6925 -2.7273  0.8760
  722MOL0     H97409   1.157   6.256   4.409  0.3697  0.4852  1.6759
  722MOL0     H97410   1.115   6.166   4.552 -1.1032 -0.9891 -0.9358
  722MOL0     H97411   1.222   6.081   4.279 -1.7224 -0.2809 -0.3236
  722MOL0     H97412   1.315   6.014   4.416 -1.0064 -1.1926  0.9039
  722MOL0     H97413   1.107   5.919   4.513 -2.1266  0.9471 -0.2792
  722MOL0     H97414   1.019   5.979   4.368  0.2743 -2.9777 -2.0418
  722MOL0     H97415   1.054   5.757   4.317 -2.4545  2.2674  0.9032
  722MOL0     H97416   1.173   5.837   4.214  0.0141 -2.9308 -0.7036
  722MOL0     H97417   1.245   5.726   4.480 -0.0666 -2.7209  0.3012
  722MOL0     H97418   1.350   5.779   4.345 -0.7112  0.9126  1.3403
  722MOL0     H97419   1.151   5.552   4.334  0.5498 -2.3447  0.4581
  722MOL0     H97420   1.267   5.594   4.213  1.4331  0.0832  1.1483
  722MOL0     H97421   1.553   5.527   4.318 -0.0742 -0.3654 -1.4175
  722MOL0     H97422   1.732   5.499   4.532 -0.4101  1.0607  0.9425
  722MOL0     H97423   1.658   5.432   4.680  1.9684  2.1953  0.5372
  722MOL0     H97424   1.636   5.208   4.560 -1.7047  1.0043 -0.3732
  722MOL0     H97425   1.683   5.281   4.406 -2.0796 -1.0293  0.3317
  722MOL0     H97426   1.845   5.138   4.552  4.2017  1.1256  0.9023
  722MOL0     H97427   1.838   5.288   4.649 -2.3468 -1.8774  1.3347
  722MOL0     H97428   1.921   5.268   4.340  0.8583 -0.7256 -0.9282
  722MOL0     H97429   2.026   5.245   4.482 -0.1670  0.7992  1.0701
  722MOL0     H97430   2.212   5.375   4.414  1.2869 -0.7977 -1.4322
  722MOL0     H97431   2.362   5.475   4.262  0.3436  3.7844 -1.1423
  722MOL0     H97432   2.655   5.525   3.974 -0.7462  0.8669  0.8108
  722MOL0     H97433   2.801   5.624   3.798  0.1389 -0.9026 -0.3379
  722MOL0     H97434   2.686   5.811   3.494 -0.0380 -1.2710  1.5257
  722MOL0     H97435   2.648   5.979   3.566  1.1445  0.1894 -1.0383
  722MOL0     H97436   2.875   6.026   3.570 -0.4769 -0.2845  0.9627
  722MOL0     H97437   2.911   5.873   3.472 -1.0026 -1.4717  1.6313
  722MOL0     H97438   2.799   6.147   3.384 -1.2137 -0.3479  1.4190
  722MOL0     H97439   2.937   6.050   3.326  0.1045 -1.8136  0.3932
  722MOL0     H97440   2.653   5.987   3.296  0.2292  1.5597 -0.1856
  722MOL0     H97441   2.762   5.856   3.249 -0.5443 -0.4879  1.0595
  722MOL0     H97442   2.756   6.142   3.124  0.8801  0.3492  3.7187
  722MOL0     H97443   2.679   6.008   3.059  1.4898 -0.2890 -0.4915
  722MOL0     H97444   2.952   5.922   3.115 -1.0599 -0.5498 -1.7402
  722MOL0     H97445   2.865   5.919   2.958  3.6471 -1.1372 -1.1172
  722MOL0     H97446   3.050   6.134   3.068  0.1413  0.2772  0.2390
  722MOL0     H97447   2.900   6.181   2.992 -0.1692 -1.2518  0.6216
  722MOL0     H97448   2.956   6.044   2.786 -0.1662  2.7801 -1.7030
  722MOL0     H97449   3.058   6.174   2.826  0.6802  0.2735  2.1368
  722MOL0     H97450   2.559   5.974   3.779 -2.0395 -1.2336  0.0462
  722MOL0     H97451   2.408   5.880   3.928 -1.7460 -2.7186 -0.9535
  722MOL0     H97452   2.041   5.719   4.104  2.2480 -0.5469 -0.8953
  722MOL0     H97453   1.897   5.618   4.289 -0.7330 -2.8433 -1.0613
  722MOL0     H97454   1.366   6.475   4.340  0.0641 -0.4336  1.7856
  722MOL0     H97455   1.302   6.703   4.230  1.2733  1.9833  0.4309
  722MOL0     H97456   1.326   7.140   4.347 -0.4778 -3.3717 -1.0773
  722MOL0     H97457   1.339   7.378   4.246 -0.1428 -0.1833 -4.2403
  722MOL0     H97458   1.326   7.520   4.095 -1.9853 -2.8589  0.0653
  722MOL0     H97459   1.239   7.653   4.189  0.2856  2.5115 -1.9266
  722MOL0     H97460   1.224   7.583   3.886  0.3971  0.3136 -0.6344
  722MOL0     H97461   1.347   7.702   3.957  1.3178 -1.5186  3.0453
  722MOL0     H97462   1.121   7.811   4.034  0.2509  1.2224 -0.4492
  722MOL0     H97463   1.043   7.700   3.925 -0.6910  0.5420  0.5230
  722MOL0     H97464   1.046   7.888   3.819  0.7007  0.5236  0.5279
  722MOL0     H97465   1.218   7.925   3.858  2.0618 -2.2189  1.1775
  722MOL0     H97466   1.257   7.634   3.539 -0.4374 -0.9842  0.7535
  722MOL0     H97467   0.946   7.331   4.111  0.4759 -1.0810  0.4564
  722MOL0     H97468   0.855   7.022   4.260 -2.6031 -1.8546 -2.7742
  722MOL0     H97469   0.830   7.102   4.105 -1.0615 -0.7503 -0.4966
  722MOL0     H97470   0.958   6.983   4.117  2.3051  1.8718 -1.4015
  723MOL0     O97471   5.558   1.097   7.306  0.1681  0.5481  0.3186
  723MOL0     C97472   5.580   1.191   7.373  0.2868 -0.7105 -0.9300
  723MOL0     O97473   5.627   1.304   7.322  0.8801 -0.3336  0.4342
  723MOL0     C97474   5.640   1.317   7.184  0.0944  0.2645  0.0849
  723MOL0     C97475   5.768   1.343   7.119  0.1554  1.2404 -0.3714
  723MOL0     C97476   5.775   1.350   6.986 -0.3760  1.5651 -0.4401
  723MOL0     C97477   5.666   1.312   6.901  0.6312 -0.2988  0.4160
  723MOL0     O97478   5.681   1.306   6.766  0.4299  0.5599 -0.0762
  723MOL0     C97479   5.728   1.177   6.722  0.4263 -0.1355  0.7430
  723MOL0     C97480   5.803   1.183   6.587  0.5742  0.0677 -0.0158
  723MOL0     C97481   5.725   1.248   6.476 -0.6585 -0.3877  0.8387
  723MOL0     C97482   5.825   1.298   6.372  0.8638 -0.0086  0.5027
  723MOL0     C97483   5.747   1.366   6.255 -0.3961 -0.9713 -0.3164
  723MOL0     C97484   5.657   1.494   6.281  0.1369 -0.1403  1.2173
  723MOL0     C97485   5.587   1.512   6.144 -0.5606 -0.0600  0.0248
  723MOL0     C97486   5.482   1.621   6.145 -0.0756 -0.2310  0.5763
  723MOL0     N97487   5.376   1.574   6.231  0.1391  0.0122  0.4342
  723MOL0     C97488   5.272   1.495   6.189  0.5263 -0.9291  0.5920
  723MOL0     C97489   5.183   1.494   6.292  0.5757 -0.0946 -0.8148
  723MOL0     C97490   5.046   1.438   6.302  0.0275  0.2983 -0.0027
  723MOL0     C97491   5.065   1.288   6.282 -0.0090 -0.1502 -0.2404
  723MOL0     C97492   4.930   1.217   6.286  0.1472  0.6984 -1.1836
  723MOL0     C97493   4.935   1.064   6.235 -0.5456 -1.6518 -1.1536
  723MOL0     O97494   4.802   1.008   6.247  0.3486 -0.4517  0.6928
  723MOL0     C97495   4.730   1.045   6.138  0.0565 -0.4177 -0.4440
  723MOL0     C97496   4.732   0.979   6.017 -0.5187 -0.0090 -0.2270
  723MOL0     C97497   4.656   1.017   5.913  0.8400 -0.3099  0.9984
  723MOL0     C97498   4.564   1.127   5.918  0.4252 -0.9983  0.1662
  723MOL0     C97499   4.473   1.164   5.802 -0.3516 -0.0528  0.7341
  723MOL0     O97500   4.463   1.073   5.695  0.3151  0.4316 -0.3167
  723MOL0     C97501   4.390   1.105   5.584 -0.1214 -0.5172 -0.4219
  723MOL0     C97502   4.447   1.078   5.457  0.6952 -0.2561 -0.8565
  723MOL0     C97503   4.372   1.079   5.344 -0.6379 -0.5297  1.0304
  723MOL0     C97504   4.235   1.086   5.345 -0.0346 -0.7921 -0.1015
  723MOL0     O97505   4.154   1.060   5.235 -0.4973 -0.4532 -0.8152
  723MOL0     C97506   4.020   1.111   5.228  0.4726 -0.8323 -0.0281
  723MOL0     C97507   3.979   1.132   5.087  0.2260  1.5159  1.1890
  723MOL0     C97508   3.963   1.007   5.004 -0.0619 -0.4217 -0.4100
  723MOL0     C97509   3.926   1.050   4.855  0.0073 -1.5765  0.7139
  723MOL0     C97510   4.040   1.118   4.769 -0.0526  0.6364 -0.2921
  723MOL0     C97511   4.045   1.088   4.621 -0.0881 -1.1594  0.0999
  723MOL0     C97512   4.179   1.129   4.551 -0.4993 -0.2249 -0.3404
  723MOL0     C97513   4.183   1.107   4.403  0.5706 -1.6388 -0.0639
  723MOL0    Cl97514   4.187   0.921   4.378  0.0676 -0.2990 -0.0622
  723MOL0     C97515   4.176   1.111   5.469 -0.5149 -0.4459 -0.4461
  723MOL0     C97516   4.248   1.115   5.591 -0.5022  0.3871 -0.1190
  723MOL0     O97517   4.402   1.262   5.815 -0.1559 -0.5842  0.1728
  723MOL0     C97518   4.544   1.183   6.042 -1.0468  0.1547 -0.8441
  723MOL0     C97519   4.638   1.152   6.152  0.7132 -0.0439  0.5580
  723MOL0     N97520   5.246   1.552   6.397 -0.4704 -0.3225  0.1750
  723MOL0     N97521   5.352   1.609   6.355 -0.7330  0.4954 -0.6892
  723MOL0     C97522   5.545   1.314   6.963  0.8705 -0.3533 -0.9362
  723MOL0     C97523   5.524   1.321   7.099  0.4910 -0.0952 -0.4747
  723MOL0     C97524   5.567   1.180   7.519 -0.5839  0.3746 -0.7473
  723MOL0     C97525   5.654   1.267   7.598  0.7770  0.0293 -0.1731
  723MOL0     C97526   5.647   1.269   7.742  0.1064  0.9406  0.3963
  723MOL0     C97527   5.567   1.179   7.810  0.1526  0.2592  0.5169
  723MOL0     O97528   5.537   1.166   7.943 -0.0544 -0.5910 -0.1880
  723MOL0     C97529   5.619   1.252   8.034  0.7306  0.2840  0.2148
  723MOL0     C97530   5.580   1.217   8.174 -0.6269 -0.2988 -0.7065
  723MOL0     C97531   5.592   1.077   8.198  0.4742  0.5072 -0.2908
  723MOL0     C97532   5.731   1.012   8.173 -0.0202 -0.1007  1.1481
  723MOL0     C97533   5.832   1.063   8.268  0.2968  0.3332 -0.7548
  723MOL0     C97534   5.911   1.105   8.352 -0.4394 -0.1917  1.0834
  723MOL0     C97535   5.500   1.080   7.733 -0.6082 -0.1725 -0.4959
  723MOL0     C97536   5.498   1.088   7.596  0.4822  0.0659 -0.1643
  723MOL0     C97537   5.403   0.990   7.533 -0.0876  0.0948  0.2846
  723MOL0     H97538   5.870   1.354   7.155  1.5769  1.0967 -3.9846
  723MOL0     H97539   5.872   1.358   6.937  0.2926 -2.4766 -0.1001
  723MOL0     H97540   5.793   1.125   6.793  1.3105 -1.8041 -1.1981
  723MOL0     H97541   5.646   1.105   6.711  0.8471 -0.7407  1.4968
  723MOL0     H97542   5.829   1.080   6.559  4.5535  0.8525  0.2356
  723MOL0     H97543   5.900   1.232   6.600  0.4917 -0.1488  1.7162
  723MOL0     H97544   5.672   1.332   6.522 -1.9744 -0.7530  0.0410
  723MOL0     H97545   5.651   1.175   6.444 -1.4603 -0.3849  2.5811
  723MOL0     H97546   5.892   1.374   6.412 -2.0431  2.5211  0.9911
  723MOL0     H97547   5.876   1.207   6.337 -2.0295 -1.6413  0.2022
  723MOL0     H97548   5.814   1.411   6.182 -2.7364  4.8483  0.5479
  723MOL0     H97549   5.693   1.281   6.212 -1.8738 -0.2162 -0.0234
  723MOL0     H97550   5.588   1.476   6.364 -0.2815  1.0118  1.1386
  723MOL0     H97551   5.719   1.581   6.307 -2.5219  2.3662 -0.2782
  723MOL0     H97552   5.537   1.422   6.108  0.2397  0.7639 -3.5149
  723MOL0     H97553   5.650   1.535   6.057  0.7910 -1.0230  0.7097
  723MOL0     H97554   5.525   1.709   6.194 -1.1696 -0.2782  1.6502
  723MOL0     H97555   5.432   1.628   6.048  0.4354  1.4343  0.4089
  723MOL0     H97556   5.250   1.443   6.097  0.4926 -0.8904  0.5781
  723MOL0     H97557   5.002   1.448   6.402 -1.2275  0.2820 -0.5285
  723MOL0     H97558   4.979   1.476   6.224 -1.5291  0.6928  1.4470
  723MOL0     H97559   5.096   1.281   6.178  0.2057  1.9497 -0.3668
  723MOL0     H97560   5.128   1.238   6.356 -1.2010 -0.1858  0.8033
  723MOL0     H97561   4.867   1.268   6.211  0.6806 -0.3663 -2.3950
  723MOL0     H97562   4.889   1.224   6.387  1.2788  4.5638 -0.8275
  723MOL0     H97563   5.007   0.999   6.285 -1.5018 -0.4536  2.0503
  723MOL0     H97564   4.969   1.054   6.132 -0.1751 -3.8989 -0.8573
  723MOL0     H97565   4.800   0.897   6.000 -1.3972 -0.6810 -0.5630
  723MOL0     H97566   4.669   0.972   5.815  1.2751  0.3436  0.7404
  723MOL0     H97567   4.551   1.070   5.430  0.6142 -1.5227 -0.8145
  723MOL0     H97568   4.424   1.057   5.252  0.4238 -0.1489  1.5150
  723MOL0     H97569   3.947   1.046   5.276  1.2218 -1.3667  0.3951
  723MOL0     H97570   4.014   1.210   5.274 -2.4827  0.8189 -3.4056
  723MOL0     H97571   3.888   1.192   5.091 -0.7496  0.0379  3.9473
  723MOL0     H97572   4.049   1.196   5.033 -1.1256  1.9703 -0.1211
  723MOL0     H97573   4.058   0.953   4.999  0.7622  0.7898  1.2266
  723MOL0     H97574   3.888   0.943   5.053  0.8741 -2.1404 -1.1095
  723MOL0     H97575   3.843   1.121   4.858  0.6037 -0.7603 -1.0107
  723MOL0     H97576   3.898   0.964   4.793  1.2376 -2.1574  0.9180
  723MOL0     H97577   4.128   1.073   4.817  0.2880  4.1240  2.7929
  723MOL0     H97578   4.035   1.226   4.784 -0.6752  0.3731  1.8007
  723MOL0     H97579   4.034   0.982   4.598  1.6937 -1.0392 -1.5451
  723MOL0     H97580   3.962   1.142   4.574 -0.7793 -0.7792  1.6848
  723MOL0     H97581   4.256   1.066   4.598 -2.5556 -0.5473  2.9888
  723MOL0     H97582   4.193   1.237   4.558  0.0233 -0.2121 -1.5010
  723MOL0     H97583   4.097   1.138   4.342  1.0371 -1.5147 -0.6743
  723MOL0     H97584   4.275   1.153   4.367  0.2004  0.2703  1.2594
  723MOL0     H97585   4.069   1.129   5.476 -0.2050  1.1060  4.1605
  723MOL0     H97586   4.216   1.135   5.693 -0.8245 -2.7182  0.4843
  723MOL0     H97587   4.482   1.271   6.057  1.5101  1.7600  1.6054
  723MOL0     H97588   4.629   1.210   6.243 -1.7007  1.2645 -0.4361
  723MOL0     H97589   5.452   1.302   6.907 -0.1758 -0.6125  0.7857
  723MOL0     H97590   5.422   1.318   7.137  0.5255 -0.5414 -0.4107
  723MOL0     H97591   5.724   1.335   7.551 -1.3384 -0.1103 -3.9732
  723MOL0     H97592   5.718   1.329   7.798  1.7777  1.5688 -2.2384
  723MOL0     H97593   5.578   1.351   8.015 -1.0239 -0.4375  0.1122
  723MOL0     H97594   5.727   1.259   8.014  0.4913 -0.0581 -1.2605
  723MOL0     H97595   5.477   1.251   8.192  0.3124  4.0853 -2.4182
  723MOL0     H97596   5.638   1.272   8.249 -1.2458  0.9705 -1.1324
  723MOL0     H97597   5.511   1.027   8.144  0.0291  0.7795  0.1087
  723MOL0     H97598   5.571   1.064   8.305 -0.9600  0.0669 -0.5947
  723MOL0     H97599   5.738   0.903   8.183 -0.7596 -0.1906  0.7555
  723MOL0     H97600   5.760   1.037   8.070 -1.8750  2.5902  1.2017
  723MOL0     H97601   5.968   1.151   8.430  1.3285  1.2228 -0.9151
  723MOL0     H97602   5.457   0.999   7.791  1.1246  0.1591  1.3585
  723MOL0     H97603   5.340   1.036   7.457  0.1982 -0.6514 -0.4238
  723MOL0     H97604   5.458   0.911   7.481  0.1827 -0.3941  1.2871
  723MOL0     H97605   5.337   0.939   7.604 -0.8052 -0.4917 -0.7851
  724MOL0     O97606   0.191   8.459   3.117 -0.2651  0.4920  0.0992
  724MOL0     C97607   0.247   8.449   3.226 -0.3203  0.2355 -0.0276
  724MOL0     O97608   0.290   8.553   3.303  0.2303 -0.2972 -0.6221
  724MOL0     C97609   0.284   8.683   3.260  0.9526 -0.8186 -0.2684
  724MOL0     C97610   0.224   8.741   3.147 -0.1247 -0.9558 -0.0710
  724MOL0     C97611   0.238   8.871   3.121 -0.1609  0.2502 -0.0525
  724MOL0     C97612   0.314   8.952   3.204 -0.3407 -0.0741  0.1052
  724MOL0     O97613   0.325   9.084   3.169 -0.4835 -0.0979 -0.3530
  724MOL0     C97614   0.376   9.114   3.039 -0.5922  0.1342 -0.0886
  724MOL0     C97615   0.399   9.260   3.033 -0.3857  0.8677 -0.4586
  724MOL0     C97616   0.408   9.312   2.892 -0.1829 -0.4077 -0.1598
  724MOL0     C97617   0.458   9.456   2.883  0.1210 -0.0445 -0.1111
  724MOL0     C97618   0.493   9.490   2.740 -0.2617  0.1310 -0.6443
  724MOL0     C97619   0.536   9.634   2.718  1.2117 -0.1040  0.1161
  724MOL0     C97620   0.655   9.643   2.630 -0.0947  0.4940 -0.3521
  724MOL0     C97621   0.722   9.777   2.621  0.6789 -0.5874  0.7903
  724MOL0     N97622   0.668   9.871   2.511 -0.2971 -0.3895  0.1123
  724MOL0     C97623   0.581   9.841   2.409  0.3027  0.5389  0.3053
  724MOL0     C97624   0.521   9.959   2.371  0.7730 -0.7826  0.2293
  724MOL0     C97625   0.425   9.969   2.249  0.2184 -0.3546  0.4630
  724MOL0     C97626   0.493   9.986   2.104  0.6587  0.0264 -0.3863
  724MOL0     C97627   0.510  10.128   2.054  0.2034  0.5009  0.3762
  724MOL0     C97628   0.610  10.126   1.937  0.6621  0.4165  0.3238
  724MOL0     O97629   0.544  10.109   1.806 -0.0557 -0.2158 -1.0194
  724MOL0     C97630   0.603  10.112   1.682  0.5554 -0.5347  0.2901
  724MOL0     C97631   0.737  10.139   1.660 -0.5878  0.6496  0.2928
  724MOL0     C97632   0.801  10.117   1.533  0.0858  0.3628  0.9751
  724MOL0     C97633   0.706  10.097   1.428 -1.4510  0.0151  0.6349
  724MOL0     C97634   0.756  10.082   1.290  0.0002 -0.4765  0.2781
  724MOL0     O97635   0.879  10.137   1.270  0.2302 -0.1455  0.0736
  724MOL0     C97636   0.929  10.165   1.140  0.2991  0.7916  0.9693
  724MOL0     C97637   0.859  10.244   1.049 -0.2920  0.4190 -0.2746
  724MOL0     C97638   0.898  10.255   0.919  0.6257  0.1886  0.5649
  724MOL0     C97639   1.016  10.201   0.875  0.4230  0.2442 -0.0634
  724MOL0     O97640   1.049  10.224   0.744 -0.0902 -0.3762  0.1407
  724MOL0     C97641   1.166  10.179   0.694  0.2798  1.1314 -0.3809
  724MOL0     C97642   1.189  10.238   0.556 -0.1280  0.4349 -0.9154
  724MOL0     C97643   1.092  10.189   0.454  0.0336 -0.0118 -0.0232
  724MOL0     C97644   1.151  10.061   0.387 -1.3506  0.9125  0.3015
  724MOL0     C97645   1.070   9.998   0.275 -0.2303 -0.3265  0.8748
  724MOL0     C97646   0.926   9.952   0.320 -0.8151 -0.3697 -0.2501
  724MOL0     C97647   0.861   9.888   0.198  0.6181 -0.5197  0.2420
  724MOL0     C97648   0.730   9.820   0.235 -0.4573 -0.5455  0.4319
  724MOL0    Cl97649   0.604   9.941   0.270 -0.1098 -0.0060 -0.3335
  724MOL0     C97650   1.090  10.122   0.958  0.0791 -0.0890 -0.1902
  724MOL0     C97651   1.056  10.112   1.095  0.2579 -1.2824 -0.8458
  724MOL0     O97652   0.684  10.036   1.197 -0.1530 -0.3564 -0.1077
  724MOL0     C97653   0.567  10.085   1.444  1.1939 -0.1712  0.0303
  724MOL0     C97654   0.517  10.079   1.571 -0.5903 -0.2103  0.4398
  724MOL0     N97655   0.565  10.054   2.448 -0.0140 -1.1254  0.0750
  724MOL0     N97656   0.658  10.008   2.522 -0.6194  0.9729 -0.9121
  724MOL0     C97657   0.377   8.905   3.323 -0.3239 -0.2465  0.1642
  724MOL0     C97658   0.354   8.769   3.346 -0.1186  0.5044 -0.2242
  724MOL0     C97659   0.265   8.319   3.287  0.2438  0.0488  0.2206
  724MOL0     C97660   0.289   8.305   3.428  0.6906  0.0011  0.0411
  724MOL0     C97661   0.296   8.181   3.491  0.1806 -0.2360 -0.7083
  724MOL0     C97662   0.283   8.063   3.421  0.5200  0.6766 -0.3758
  724MOL0     O97663   0.288   7.933   3.472  0.1873 -0.3998 -0.5047
  724MOL0     C97664   0.379   7.899   3.571 -0.1754 -0.5653 -0.2538
  724MOL0     C97665   0.527   7.898   3.533  0.3810 -0.0178  0.1768
  724MOL0     C97666   0.593   8.032   3.495 -0.3397 -0.3135 -0.4478
  724MOL0     C97667   0.740   8.036   3.527  0.2585 -0.0007  0.1854
  724MOL0     C97668   0.822   7.929   3.466 -0.5632  0.0987  0.0464
  724MOL0     C97669   0.896   7.849   3.409 -0.6568 -0.3131 -0.9340
  724MOL0     C97670   0.277   8.082   3.290 -0.8811  0.1687  0.9487
  724MOL0     C97671   0.275   8.198   3.219 -1.1681 -0.8856 -0.0459
  724MOL0     C97672   0.284   8.184   3.069  0.0758 -0.3192  0.2117
  724MOL0     H97673   0.162   8.678   3.084 -1.4026 -0.8379  1.0209
  724MOL0     H97674   0.177   8.917   3.044  0.7894  2.3846  0.4064
  724MOL0     H97675   0.472   9.065   3.023 -0.5443  0.0920  0.3137
  724MOL0     H97676   0.317   9.071   2.958  1.3652 -1.4808 -0.7240
  724MOL0     H97677   0.494   9.288   3.080 -0.4162 -1.2321  0.9985
  724MOL0     H97678   0.313   9.306   3.082 -1.5311 -1.5344 -0.0984
  724MOL0     H97679   0.308   9.301   2.849  1.2103 -1.2389 -3.5423
  724MOL0     H97680   0.476   9.244   2.840  0.9166  1.0728 -0.7343
  724MOL0     H97681   0.377   9.514   2.929  0.1167  0.4230 -0.6943
  724MOL0     H97682   0.543   9.463   2.951 -0.1896 -1.0215  0.4067
  724MOL0     H97683   0.557   9.413   2.697 -0.4209  0.7393 -2.0581
  724MOL0     H97684   0.400   9.469   2.685 -2.0830 -0.8671  2.5839
  724MOL0     H97685   0.455   9.696   2.679  0.2982 -1.4297 -0.1473
  724MOL0     H97686   0.567   9.674   2.816 -1.6810  1.8921  0.3447
  724MOL0     H97687   0.621   9.613   2.531  0.8497  2.0950 -1.1942
  724MOL0     H97688   0.727   9.571   2.669 -3.6327 -1.8971  2.4331
  724MOL0     H97689   0.714   9.835   2.713 -2.3906  2.9538 -1.4530
  724MOL0     H97690   0.830   9.767   2.604  0.9984  0.1770  2.1987
  724MOL0     H97691   0.558   9.743   2.368 -2.1964  1.4923 -0.7179
  724MOL0     H97692   0.377   9.871   2.248 -1.0933  0.2660 -1.3310
  724MOL0     H97693   0.357  10.050   2.275  0.8656 -0.2781  2.0388
  724MOL0     H97694   0.597   9.953   2.109  0.5447 -0.5301 -1.4582
  724MOL0     H97695   0.434   9.926   2.034  0.7036  0.0425 -0.4380
  724MOL0     H97696   0.551  10.185   2.138 -0.0360 -0.6699  1.3250
  724MOL0     H97697   0.416  10.175   2.021  0.9251  0.9675 -1.0993
  724MOL0     H97698   0.685  10.049   1.955 -1.5852 -1.5751  1.8261
  724MOL0     H97699   0.674  10.214   1.930  0.2781  0.6874  0.1897
  724MOL0     H97700   0.795  10.177   1.744  0.0685  2.7884 -1.0449
  724MOL0     H97701   0.907  10.132   1.521  0.4289 -2.2136  0.1722
  724MOL0     H97702   0.766  10.291   1.080 -0.2317 -0.1384  0.7925
  724MOL0     H97703   0.836  10.307   0.846 -2.6080 -0.6390  2.4971
  724MOL0     H97704   1.254  10.206   0.754  0.9598 -0.0017 -0.8230
  724MOL0     H97705   1.163  10.070   0.686 -1.9497  1.2554 -2.4977
  724MOL0     H97706   1.180  10.347   0.564 -1.5023  0.3017 -0.3560
  724MOL0     H97707   1.295  10.220   0.540  0.1115  0.2336  0.8198
  724MOL0     H97708   0.994  10.159   0.491  0.6146 -2.1253 -0.0164
  724MOL0     H97709   1.074  10.274   0.387 -3.1710  1.6414  2.6801
  724MOL0     H97710   1.154   9.982   0.463  0.5270  0.5414 -0.1084
  724MOL0     H97711   1.256  10.064   0.357 -1.4966 -1.6689 -0.6935
  724MOL0     H97712   1.123   9.917   0.223 -3.4427 -1.0100 -1.6766
  724MOL0     H97713   1.054  10.068   0.192 -0.1487 -2.2807 -0.8777
  724MOL0     H97714   0.934   9.884   0.405  0.9031  0.7829  0.5709
  724MOL0     H97715   0.865  10.040   0.344  0.1605  0.8006 -1.8585
  724MOL0     H97716   0.935   9.821   0.154  0.3101 -0.8230  0.1798
  724MOL0     H97717   0.842   9.965   0.123  1.9141 -2.5636 -2.3621
  724MOL0     H97718   0.699   9.758   0.150  2.8365 -2.6633  0.5893
  724MOL0     H97719   0.755   9.755   0.319 -1.5999 -1.2516  0.2587
  724MOL0     H97720   1.167  10.060   0.912 -1.7399 -2.6066 -0.0907
  724MOL0     H97721   1.110  10.073   1.181 -2.6022 -0.4051  1.5110
  724MOL0     H97722   0.499  10.078   1.360 -1.8439 -0.2088  2.3165
  724MOL0     H97723   0.413  10.050   1.583 -0.6078  0.8323  3.9370
  724MOL0     H97724   0.436   8.970   3.387  1.2199 -3.0753  1.8124
  724MOL0     H97725   0.398   8.721   3.433 -0.5353 -0.1285 -0.3554
  724MOL0     H97726   0.296   8.395   3.488 -3.0666 -0.1292  0.8968
  724MOL0     H97727   0.330   8.173   3.594  0.9795  1.8756 -0.7550
  724MOL0     H97728   0.348   7.800   3.604  0.6727 -2.2373 -3.9660
  724MOL0     H97729   0.348   7.955   3.660 -1.9342 -1.4064 -0.3006
  724MOL0     H97730   0.540   7.835   3.444 -0.8668  1.0387 -0.7753
  724MOL0     H97731   0.578   7.845   3.614  2.1069 -2.9901 -2.5953
  724MOL0     H97732   0.543   8.111   3.551 -2.8410 -2.0931  0.0362
  724MOL0     H97733   0.557   8.052   3.393  0.0934 -0.1188 -0.5671
  724MOL0     H97734   0.785   8.131   3.495 -3.1078  0.5734 -3.7079
  724MOL0     H97735   0.756   8.041   3.635 -1.8983  0.7481  0.5146
  724MOL0     H97736   0.949   7.773   3.354  0.8038 -0.4163  0.5310
  724MOL0     H97737   0.261   7.989   3.237 -2.7057  0.0507  1.6386
  724MOL0     H97738   0.319   8.091   3.024  0.1928 -1.1843  2.0180
  724MOL0     H97739   0.190   8.220   3.025  2.0405  4.8491 -0.5635
  724MOL0     H97740   0.347   8.263   3.026 -1.4286  0.6450 -0.3480
  725MOL0     O97741   0.643   4.913   6.014 -0.2917 -0.2307  0.4467
  725MOL0     C97742   0.766   4.937   6.001  0.8440 -0.6129  0.4888
  725MOL0     O97743   0.865   4.857   6.040 -0.1258 -0.4322 -0.6469
  725MOL0     C97744   0.839   4.722   6.059  0.1217  0.5027 -0.8266
  725MOL0     C97745   0.883   4.651   6.175  0.5681 -0.3633  0.5083
  725MOL0     C97746   0.864   4.518   6.184  0.2836  0.2182  0.2334
  725MOL0     C97747   0.826   4.445   6.071  0.5328  0.4872  0.6124
  725MOL0     O97748   0.814   4.306   6.069 -0.1183 -0.0380 -1.2057
  725MOL0     C97749   0.821   4.230   6.194  0.9372 -0.0098 -0.0019
  725MOL0     C97750   0.773   4.090   6.174  0.1640  0.0373 -0.3816
  725MOL0     C97751   0.621   4.072   6.149  0.3375  0.3653  0.7522
  725MOL0     C97752   0.582   3.929   6.129  0.1728  0.2761  0.2836
  725MOL0     C97753   0.439   3.890   6.146 -0.1168  0.6606 -0.1644
  725MOL0     C97754   0.370   3.902   6.288 -1.0672  0.4997  0.2697
  725MOL0     C97755   0.219   3.902   6.260  0.2039  0.0780 -0.7311
  725MOL0     C97756   0.138   3.840   6.382  0.2179  0.4161 -0.3470
  725MOL0     N97757   0.164   3.697   6.399 -0.1489  0.0319  0.1283
  725MOL0     C97758   0.258   3.628   6.466  0.2890  0.4251 -1.1326
  725MOL0     C97759   0.254   3.497   6.432 -0.4102  0.5447  0.4211
  725MOL0     C97760   0.342   3.388   6.489  0.0310  1.6762  0.8606
  725MOL0     C97761   0.444   3.343   6.394 -0.1468  0.4096 -0.2104
  725MOL0     C97762   0.383   3.282   6.273  0.9540  0.2982  0.5132
  725MOL0     C97763   0.476   3.194   6.186 -0.3726  0.2830  0.0699
  725MOL0     O97764   0.574   3.279   6.119  0.5639 -0.2117 -0.0049
  725MOL0     C97765   0.705   3.249   6.145  0.1113  0.6942  0.1674
  725MOL0     C97766   0.760   3.243   6.268  0.6832  0.5146  0.2467
  725MOL0     C97767   0.898   3.219   6.285  0.3310 -0.1385  0.6799
  725MOL0     C97768   0.981   3.186   6.179 -0.2078  0.6915 -0.2671
  725MOL0     C97769   1.125   3.135   6.195  0.1458  0.2564  0.2231
  725MOL0     O97770   1.196   3.111   6.080  0.7653 -0.1458  0.1675
  725MOL0     C97771   1.332   3.103   6.086  1.0168  0.2007 -0.0574
  725MOL0     C97772   1.400   3.218   6.050 -0.0132  0.5140 -0.1964
  725MOL0     C97773   1.539   3.227   6.071 -0.3555 -1.0619 -1.0771
  725MOL0     C97774   1.610   3.116   6.122  1.6196 -0.3810  0.4000
  725MOL0     O97775   1.745   3.097   6.121  0.1666  0.6099 -0.2382
  725MOL0     C97776   1.823   3.216   6.101 -0.0802 -0.3943  0.2274
  725MOL0     C97777   1.856   3.241   5.950  0.1222 -0.8484 -1.0058
  725MOL0     C97778   2.000   3.218   5.907 -0.8672  0.0835 -0.2993
  725MOL0     C97779   2.036   3.347   5.831  0.1453  0.7026  0.2880
  725MOL0     C97780   2.189   3.363   5.825  0.9000  1.2412 -0.4867
  725MOL0     C97781   2.232   3.496   5.761 -0.7335  0.5363 -0.1245
  725MOL0     C97782   2.382   3.497   5.717 -0.2273 -0.3516  0.1415
  725MOL0     C97783   2.392   3.619   5.622 -0.4090  0.1156  0.5973
  725MOL0    Cl97784   2.510   3.747   5.684  0.0976 -0.0166 -0.4851
  725MOL0     C97785   1.540   2.997   6.156 -0.7544 -0.9272  0.6945
  725MOL0     C97786   1.395   2.990   6.130  0.3631  0.6983 -0.0050
  725MOL0     O97787   1.161   3.122   6.306  0.3653  0.3525 -0.9999
  725MOL0     C97788   0.925   3.193   6.052  0.3356  0.5493 -0.2470
  725MOL0     C97789   0.788   3.214   6.036  0.4773  0.2158  1.8994
  725MOL0     N97790   0.138   3.478   6.358 -0.6642 -0.9539 -1.1462
  725MOL0     N97791   0.090   3.596   6.329  0.4162  0.0610  0.2252
  725MOL0     C97792   0.775   4.514   5.955  0.3081  0.5030  0.0204
  725MOL0     C97793   0.772   4.649   5.951 -0.6442 -0.6194  0.3975
  725MOL0     C97794   0.808   5.071   5.943  0.0122  0.6408 -0.5003
  725MOL0     C97795   0.948   5.104   5.954 -0.1231 -0.1438 -0.8143
  725MOL0     C97796   0.992   5.222   5.903 -0.2419 -0.2102  0.3676
  725MOL0     C97797   0.913   5.326   5.854 -0.4847 -0.2330  0.2595
  725MOL0     O97798   0.975   5.445   5.834 -0.2657 -0.5311  0.4361
  725MOL0     C97799   0.897   5.559   5.889  0.3398 -0.7089  0.6934
  725MOL0     C97800   0.960   5.697   5.862 -0.1535  0.3905  0.3915
  725MOL0     C97801   1.088   5.717   5.946 -0.3791  0.2999  0.0543
  725MOL0     C97802   1.165   5.842   5.910  0.4776 -0.0871  0.7114
  725MOL0     C97803   1.242   5.828   5.781  0.6252  0.6751  0.0471
  725MOL0     C97804   1.305   5.829   5.676 -0.0417  0.1144  0.2093
  725MOL0     C97805   0.777   5.290   5.842  0.0066 -0.1346 -0.1759
  725MOL0     C97806   0.726   5.170   5.877  0.6372  0.3108 -0.6523
  725MOL0     C97807   0.571   5.144   5.847  0.4872 -0.4336 -0.1797
  725MOL0     H97808   0.916   4.716   6.256 -2.2315  0.3244  1.2045
  725MOL0     H97809   0.894   4.471   6.278 -0.8127 -2.9855 -0.8730
  725MOL0     H97810   0.927   4.210   6.213  0.3728 -3.9369 -0.3043
  725MOL0     H97811   0.764   4.279   6.274  0.6071 -0.6963  0.1871
  725MOL0     H97812   0.795   4.025   6.259 -2.0465  2.3809  2.1826
  725MOL0     H97813   0.825   4.045   6.089  0.7291 -0.2649  0.1147
  725MOL0     H97814   0.592   4.122   6.056 -0.5638 -0.4222  0.5895
  725MOL0     H97815   0.571   4.124   6.230 -2.4364  2.5244 -2.1125
  725MOL0     H97816   0.619   3.897   6.031 -1.2793  2.4783 -1.0837
  725MOL0     H97817   0.631   3.871   6.207 -0.3754  1.0220  1.2109
  725MOL0     H97818   0.376   3.950   6.079 -1.1433 -0.0388  0.1566
  725MOL0     H97819   0.426   3.791   6.103 -0.5927 -0.2196  1.8667
  725MOL0     H97820   0.413   3.817   6.341  1.7689  0.2300 -2.1987
  725MOL0     H97821   0.397   3.997   6.335  2.0506 -0.4808  0.6918
  725MOL0     H97822   0.189   3.856   6.166 -2.8422 -0.4961  0.4185
  725MOL0     H97823   0.194   4.008   6.249 -0.5693  0.1485  1.3092
  725MOL0     H97824   0.177   3.888   6.472  0.9238  0.3593 -0.6188
  725MOL0     H97825   0.031   3.847   6.359  0.3291 -1.5341 -1.7373
  725MOL0     H97826   0.329   3.666   6.539  0.2856  3.9612 -2.7878
  725MOL0     H97827   0.390   3.419   6.582 -3.8255  1.8987  3.0067
  725MOL0     H97828   0.285   3.298   6.514  2.7958 -0.9009 -1.3796
  725MOL0     H97829   0.501   3.433   6.370 -2.6315  2.2567  0.4424
  725MOL0     H97830   0.502   3.267   6.447  0.6302  0.6950 -0.6377
  725MOL0     H97831   0.330   3.354   6.210  2.4898 -0.4992 -1.8229
  725MOL0     H97832   0.303   3.215   6.306 -1.3439  1.7744 -1.6880
  725MOL0     H97833   0.418   3.145   6.107  0.5882  0.3635 -0.6950
  725MOL0     H97834   0.526   3.117   6.245  2.1794  0.5578 -1.5783
  725MOL0     H97835   0.698   3.275   6.350 -0.4431  2.4597 -1.2763
  725MOL0     H97836   0.929   3.230   6.388 -0.9192  0.4928  1.0070
  725MOL0     H97837   1.349   3.303   6.006 -2.3615 -0.1202  1.1496
  725MOL0     H97838   1.597   3.315   6.045 -1.7705  0.6260  1.1295
  725MOL0     H97839   1.780   3.305   6.148  0.2716 -0.0021 -0.1951
  725MOL0     H97840   1.916   3.206   6.157 -0.3776 -1.3223  0.5839
  725MOL0     H97841   1.790   3.179   5.888 -1.1747  0.6073 -1.1454
  725MOL0     H97842   1.814   3.341   5.934 -0.4521 -0.8819  0.1755
  725MOL0     H97843   2.063   3.204   5.995 -1.7526 -2.0512  0.0825
  725MOL0     H97844   2.006   3.125   5.850  3.6659 -0.6739  1.0384
  725MOL0     H97845   2.010   3.432   5.895  1.6821  0.3557  1.4506
  725MOL0     H97846   1.986   3.353   5.735 -1.6167 -1.7652  0.9460
  725MOL0     H97847   2.237   3.282   5.770  0.6357 -0.0709  1.1469
  725MOL0     H97848   2.238   3.348   5.921  1.6059  2.3896 -0.6455
  725MOL0     H97849   2.168   3.488   5.674 -1.4175 -1.9537  0.5442
  725MOL0     H97850   2.210   3.583   5.825 -0.3809 -0.8428  1.9970
  725MOL0     H97851   2.404   3.405   5.661 -0.5238 -2.0741  2.6615
  725MOL0     H97852   2.430   3.509   5.815 -2.4789 -2.7122  1.6740
  725MOL0     H97853   2.420   3.584   5.522  3.1903  0.8185  1.2125
  725MOL0     H97854   2.297   3.670   5.601 -1.5758 -1.6897  1.2880
  725MOL0     H97855   1.592   2.905   6.179  0.8686 -0.0959  0.5154
  725MOL0     H97856   1.344   2.896   6.148 -0.0502  0.9855  0.3488
  725MOL0     H97857   0.985   3.189   5.962 -1.6745  1.1697 -1.6874
  725MOL0     H97858   0.741   3.212   5.939  3.6803 -2.8258  0.1844
  725MOL0     H97859   0.730   4.467   5.869  1.5313 -0.0058 -0.3696
  725MOL0     H97860   0.734   4.690   5.858  0.9059 -1.8179 -0.8220
  725MOL0     H97861   1.004   5.030   6.012 -3.1578  0.5723  3.5455
  725MOL0     H97862   1.098   5.236   5.920 -0.4927  0.0939  1.7912
  725MOL0     H97863   0.860   5.552   5.992  0.6272 -1.3954  0.7593
  725MOL0     H97864   0.803   5.564   5.832 -0.2927  0.7982  1.8204
  725MOL0     H97865   0.882   5.770   5.884 -0.6378  0.4417 -1.2897
  725MOL0     H97866   0.977   5.693   5.754  1.2887 -3.6466  0.6249
  725MOL0     H97867   1.149   5.626   5.950 -1.2194 -0.3456 -1.0637
  725MOL0     H97868   1.047   5.717   6.047 -2.8546 -3.4084 -0.7648
  725MOL0     H97869   1.096   5.927   5.909 -1.2956 -1.4267 -1.7164
  725MOL0     H97870   1.225   5.856   6.000 -2.7806 -2.8840  3.6295
  725MOL0     H97871   1.365   5.828   5.587 -1.6964  2.5045 -1.0261
  725MOL0     H97872   0.709   5.357   5.791 -1.5226 -1.5047  0.0136
  725MOL0     H97873   0.548   5.209   5.762  2.8948  3.4134  1.8001
  725MOL0     H97874   0.539   5.041   5.831 -1.6449 -0.1730  1.8709
  725MOL0     H97875   0.510   5.177   5.932  0.8052 -3.0636  1.1638
  726MOL0     O97876   7.958   4.964  11.031 -0.6945  0.1852  0.0587
  726MOL0     C97877   7.908   4.856  11.060 -0.6848  0.8869 -0.2002
  726MOL0     O97878   7.969   4.737  11.070 -0.5240  0.4481 -0.3902
  726MOL0     C97879   8.102   4.744  11.058  0.1251  0.2578 -0.2829
  726MOL0     C97880   8.174   4.764  11.177  0.2085 -0.0432  0.5190
  726MOL0     C97881   8.315   4.787  11.164  0.6005 -0.3422  0.3869
  726MOL0     C97882   8.379   4.796  11.040 -0.6979  0.0944 -0.4987
  726MOL0     O97883   8.518   4.807  11.036  0.2280  0.3219 -1.2668
  726MOL0     C97884   8.603   4.692  11.049 -0.9468 -0.7059  0.0819
  726MOL0     C97885   8.727   4.734  11.133  0.0848 -0.0951  0.9693
  726MOL0     C97886   8.714   4.761  11.284 -0.1746 -0.4037  0.4409
  726MOL0     C97887   8.849   4.800  11.345  0.1971  0.0361  0.4438
  726MOL0     C97888   8.839   4.769  11.495 -0.0372  0.5586  0.0662
  726MOL0     C97889   8.966   4.823  11.563 -0.5178 -0.6596 -0.0014
  726MOL0     C97890   8.970   4.797  11.713 -0.8193  0.7424  0.4351
  726MOL0     C97891   9.052   4.663  11.741 -0.5011 -0.5299  0.2548
  726MOL0     N97892   8.955   4.556  11.757  0.1800  1.3368 -0.2488
  726MOL0     C97893   8.920   4.453  11.656 -0.2701 -0.3553 -0.4813
  726MOL0     C97894   8.826   4.377  11.717  1.1819  0.6249  1.1611
  726MOL0     C97895   8.752   4.254  11.672  0.4795 -0.7401 -0.9833
  726MOL0     C97896   8.599   4.290  11.666 -0.9739  0.4997 -0.1348
  726MOL0     C97897   8.518   4.189  11.587 -1.0540 -0.4727 -0.6644
  726MOL0     C97898   8.487   4.056  11.676 -0.5757 -0.9255  0.0990
  726MOL0     O97899   8.442   3.966  11.580 -0.4481 -0.3248  1.3143
  726MOL0     C97900   8.392   3.855  11.639 -0.8864  0.8856 -0.0195
  726MOL0     C97901   8.474   3.741  11.662 -0.7827 -0.1033 -0.1069
  726MOL0     C97902   8.422   3.625  11.714  0.3275  0.4132  0.8416
  726MOL0     C97903   8.289   3.601  11.743  0.4070  0.4625  0.3359
  726MOL0     C97904   8.231   3.473  11.804  0.3706 -0.1603  0.3601
  726MOL0     O97905   8.309   3.355  11.797  1.1473 -0.7350  0.0907
  726MOL0     C97906   8.259   3.242  11.866 -0.9051 -0.0875  0.1860
  726MOL0     C97907   8.141   3.180  11.821 -0.3674 -0.3762  0.2272
  726MOL0     C97908   8.095   3.074  11.886  0.2684 -0.0916 -0.4891
  726MOL0     C97909   8.170   3.007  11.985  0.1430 -0.1727  0.1835
  726MOL0     O97910   8.113   2.903  12.051  0.2053  0.2610  0.1844
  726MOL0     C97911   8.188   2.787  12.089 -0.6565 -0.1144 -0.0550
  726MOL0     C97912   8.100   2.666  12.138  0.6148 -0.0927  0.4078
  726MOL0     C97913   8.006   2.619  12.021  0.4307 -0.5193 -0.3771
  726MOL0     C97914   7.909   2.506  12.067 -1.1848  0.7904  0.6640
  726MOL0     C97915   7.826   2.468  11.948  0.3265 -0.4447  0.2134
  726MOL0     C97916   7.744   2.352  11.986  1.1788  0.1386 -1.4566
  726MOL0     C97917   7.647   2.314  11.879 -0.8365 -0.4977  0.8141
  726MOL0     C97918   7.558   2.205  11.930  0.0839 -0.4949 -1.0873
  726MOL0    Cl97919   7.460   2.131  11.793 -0.0969 -0.2803  0.2356
  726MOL0     C97920   8.297   3.065  12.028 -0.0136  0.1124  0.0097
  726MOL0     C97921   8.337   3.183  11.968 -1.3125 -0.7098 -0.3546
  726MOL0     O97922   8.119   3.478  11.851 -0.3406  0.3145  0.2011
  726MOL0     C97923   8.202   3.719  11.721 -0.9165  0.2619  0.0102
  726MOL0     C97924   8.259   3.841  11.669  1.1770 -0.4723  0.9498
  726MOL0     N97925   8.815   4.429  11.844  0.4643  0.6406 -0.0733
  726MOL0     N97926   8.891   4.525  11.873 -0.7611  0.4723 -0.1052
  726MOL0     C97927   8.305   4.763  10.925 -0.6093 -0.7577 -0.1271
  726MOL0     C97928   8.163   4.736  10.931  0.1996  0.5561  0.2885
  726MOL0     C97929   7.771   4.845  11.104 -0.1913  1.0673  0.2441
  726MOL0     C97930   7.743   4.818  11.236 -0.2503  0.3412 -0.1561
  726MOL0     C97931   7.615   4.821  11.291  0.2849 -0.5660 -0.0523
  726MOL0     C97932   7.501   4.823  11.208  0.6148 -1.1552 -0.0950
  726MOL0     O97933   7.372   4.821  11.241 -0.1306 -0.2837 -0.5416
  726MOL0     C97934   7.334   4.846  11.376 -0.7567 -0.2467 -0.1243
  726MOL0     C97935   7.177   4.827  11.392 -1.2739 -0.0383 -0.4237
  726MOL0     C97936   7.124   4.683  11.404  0.1734 -0.0844  0.1856
  726MOL0     C97937   7.151   4.587  11.279 -0.2974 -0.4225  0.4372
  726MOL0     C97938   7.073   4.462  11.271 -1.1068  0.1528 -0.1352
  726MOL0     C97939   7.001   4.365  11.256 -1.1044  0.6931 -0.3648
  726MOL0     C97940   7.521   4.835  11.074  0.1977  0.0941 -0.0575
  726MOL0     C97941   7.648   4.843  11.014 -0.7464  0.6296 -0.4752
  726MOL0     C97942   7.668   4.829  10.865  0.6935  0.1358  0.1237
  726MOL0     H97943   8.124   4.774  11.272 -2.2829  1.6501 -0.8656
  726MOL0     H97944   8.360   4.809  11.260 -1.3213 -1.5938  1.6464
  726MOL0     H97945   8.542   4.623  11.106 -0.4797 -0.8343  0.4326
  726MOL0     H97946   8.643   4.649  10.957  1.4366  1.9328 -0.2572
  726MOL0     H97947   8.778   4.816  11.081  1.3567 -1.4171  0.0406
  726MOL0     H97948   8.800   4.652  11.129  0.1782  0.0333 -1.4401
  726MOL0     H97949   8.667   4.670  11.323  0.6020  0.4334  3.6149
  726MOL0     H97950   8.643   4.842  11.305  0.4970 -0.0234  1.2874
  726MOL0     H97951   8.925   4.737  11.298 -1.3269 -0.9770 -0.7644
  726MOL0     H97952   8.867   4.904  11.318 -1.7509 -0.2000 -2.1442
  726MOL0     H97953   8.747   4.808  11.540  1.4156  1.4881  2.4642
  726MOL0     H97954   8.847   4.661  11.511  0.1119  0.2851 -1.7189
  726MOL0     H97955   9.061   4.796  11.516 -0.5576 -2.1400  0.7008
  726MOL0     H97956   8.966   4.932  11.558  0.3862 -0.5480  1.7975
  726MOL0     H97957   8.874   4.788  11.764  0.7485 -0.6282  3.4729
  726MOL0     H97958   9.028   4.875  11.764 -1.9218 -0.5167  3.9618
  726MOL0     H97959   9.125   4.637  11.663  1.4452  1.2356  1.3649
  726MOL0     H97960   9.113   4.680  11.831 -0.9596 -0.4784  0.5583
  726MOL0     H97961   8.971   4.442  11.560  0.8565  0.4251  0.0056
  726MOL0     H97962   8.787   4.242  11.569 -2.1739  0.3538 -2.0997
  726MOL0     H97963   8.779   4.160  11.721 -0.8674 -0.9662 -0.6310
  726MOL0     H97964   8.558   4.310  11.765  1.3636 -0.7240  1.1698
  726MOL0     H97965   8.597   4.386  11.615 -0.3014  2.2619  2.9258
  726MOL0     H97966   8.569   4.173  11.492 -0.0497  1.5999 -0.5199
  726MOL0     H97967   8.422   4.237  11.565 -1.4788 -1.3918 -0.8924
  726MOL0     H97968   8.416   4.074  11.758 -1.2108  0.7120 -0.7765
  726MOL0     H97969   8.582   4.024  11.720  0.3490  0.7643 -0.5762
  726MOL0     H97970   8.581   3.742  11.644 -0.5808  0.7590  1.0191
  726MOL0     H97971   8.488   3.539  11.715 -1.6631 -1.2950 -1.5261
  726MOL0     H97972   8.074   3.225  11.749  1.8061  4.4208  0.8116
  726MOL0     H97973   7.999   3.031  11.861  0.5613 -2.2477  1.6688
  726MOL0     H97974   8.236   2.753  11.996 -3.6239  0.0023 -1.7328
  726MOL0     H97975   8.259   2.805  12.171 -2.0832 -2.0248  1.7092
  726MOL0     H97976   8.158   2.577  12.166  1.7514  0.7246  0.7307
  726MOL0     H97977   8.042   2.693  12.227  1.4596 -0.3617  1.0549
  726MOL0     H97978   7.941   2.704  11.999 -0.0083 -0.3773  1.3276
  726MOL0     H97979   8.072   2.582  11.942  0.7914 -1.8197  0.5054
  726MOL0     H97980   7.845   2.532  12.152 -0.6330  2.9302  0.4740
  726MOL0     H97981   7.975   2.421  12.087  1.2082  2.5314  0.6888
  726MOL0     H97982   7.895   2.450  11.865  0.3746  1.3237 -0.1657
  726MOL0     H97983   7.758   2.548  11.918 -1.5038 -2.4237 -1.1852
  726MOL0     H97984   7.812   2.271  12.014  2.1638  1.8349  1.3777
  726MOL0     H97985   7.679   2.378  12.070  4.4468  0.1494  1.2482
  726MOL0     H97986   7.700   2.277  11.791 -3.6729 -2.7051 -0.1501
  726MOL0     H97987   7.583   2.397  11.848  1.9525  0.8884 -1.6074
  726MOL0     H97988   7.624   2.124  11.961  1.5036  1.8223  2.6444
  726MOL0     H97989   7.508   2.242  12.020  3.9963  2.3345  0.1837
  726MOL0     H97990   8.343   3.017  12.113 -0.3891 -1.5094 -0.6691
  726MOL0     H97991   8.434   3.225  11.994 -0.6618 -1.4574 -1.5350
  726MOL0     H97992   8.098   3.705  11.747 -0.3824  0.1046  2.2386
  726MOL0     H97993   8.191   3.922  11.647  3.6723  1.3520 -0.5284
  726MOL0     H97994   8.368   4.755  10.837 -0.5033  0.0549 -0.1277
  726MOL0     H97995   8.106   4.713  10.842 -0.2166 -1.1303  0.9343
  726MOL0     H97996   7.828   4.825  11.303  0.3403 -1.1414 -0.7205
  726MOL0     H97997   7.608   4.824  11.399 -0.9771  1.1194 -0.1489
  726MOL0     H97998   7.348   4.952  11.394  0.9490 -0.6446  1.0901
  726MOL0     H97999   7.376   4.776  11.449 -2.3285 -2.3365 -1.1012
  726MOL0     H98000   7.129   4.886  11.313 -1.4312  0.2770 -0.1010
  726MOL0     H98001   7.153   4.879  11.485  2.2120  2.3343 -0.6638
  726MOL0     H98002   7.017   4.676  11.423  0.6053  0.6502  3.5281
  726MOL0     H98003   7.152   4.648  11.504 -1.7904  1.4748  1.3502
  726MOL0     H98004   7.148   4.642  11.185  1.1596  1.7855  1.5847
  726MOL0     H98005   7.249   4.541  11.291 -0.3285 -0.8936 -0.9605
  726MOL0     H98006   6.941   4.276  11.245  4.4103 -3.5958 -0.2283
  726MOL0     H98007   7.428   4.826  11.019  1.7999  0.0895 -2.9646
  726MOL0     H98008   7.759   4.881  10.832 -1.3421  3.2641 -1.0115
  726MOL0     H98009   7.672   4.726  10.828 -0.4288 -0.9054  2.7380
  726MOL0     H98010   7.583   4.869  10.810  1.0237 -1.8837 -2.0685
  727MOL0     O98011   4.260   9.511   6.805 -0.1858  1.0915  0.5773
  727MOL0     C98012   4.211   9.421   6.871  0.5390  0.3542  0.0851
  727MOL0     O98013   4.125   9.321   6.816  0.8819  0.1633 -0.5402
  727MOL0     C98014   4.136   9.291   6.683  0.2122  0.2075  0.1698
  727MOL0     C98015   4.048   9.343   6.591 -0.5477 -0.3610  0.1940
  727MOL0     C98016   4.050   9.302   6.452  1.0014 -0.1183 -0.2791
  727MOL0     C98017   4.139   9.203   6.414 -0.3832  0.4916  0.1534
  727MOL0     O98018   4.163   9.163   6.286  1.0333 -0.0946 -0.1717
  727MOL0     C98019   4.068   9.064   6.247 -0.7629 -0.0496 -0.2458
  727MOL0     C98020   4.083   9.045   6.097  0.2315  0.7043 -0.5891
  727MOL0     C98021   4.036   8.906   6.067 -0.1123 -0.3457  0.1060
  727MOL0     C98022   3.980   8.888   5.926  0.8734  0.0168 -0.0805
  727MOL0     C98023   3.861   8.789   5.924  0.2867 -0.1774  0.4671
  727MOL0     C98024   3.901   8.641   5.916  0.9137 -0.0176  0.6565
  727MOL0     C98025   3.781   8.544   5.893  0.1795 -0.5314  0.0459
  727MOL0     C98026   3.847   8.409   5.874  0.7475  0.3720  0.2798
  727MOL0     N98027   3.947   8.364   5.964  0.8459 -0.5029  0.5740
  727MOL0     C98028   3.930   8.323   6.094 -0.4956 -0.5455  0.4908
  727MOL0     C98029   4.055   8.275   6.113 -0.3243 -0.3323 -0.2627
  727MOL0     C98030   4.111   8.251   6.249  0.6304 -0.2165  0.9003
  727MOL0     C98031   4.144   8.388   6.316  0.3042  0.1559  0.9187
  727MOL0     C98032   4.285   8.446   6.272  0.9527 -0.0590 -0.3147
  727MOL0     C98033   4.267   8.572   6.197  0.2482  0.0955  0.2635
  727MOL0     O98034   4.191   8.668   6.282  0.4694 -0.6409  0.0420
  727MOL0     C98035   4.255   8.714   6.397  0.3323  0.5070 -0.6453
  727MOL0     C98036   4.396   8.732   6.406  0.6987  0.3551 -1.0546
  727MOL0     C98037   4.453   8.785   6.521  0.3955 -0.1964  0.7847
  727MOL0     C98038   4.376   8.804   6.629 -0.5414 -0.2017 -0.9661
  727MOL0     C98039   4.423   8.849   6.758  0.1514 -0.6411 -0.8099
  727MOL0     O98040   4.361   8.956   6.817 -0.0023 -0.2694 -0.0476
  727MOL0     C98041   4.368   8.971   6.949  0.4241 -0.2456  0.8857
  727MOL0     C98042   4.287   8.901   7.034  0.4796 -0.6155 -0.0044
  727MOL0     C98043   4.287   8.929   7.172  0.0467 -0.2343 -0.4217
  727MOL0     C98044   4.386   9.018   7.231  0.5142 -0.0238 -0.7959
  727MOL0     O98045   4.404   9.037   7.371 -0.2407  0.5822 -0.3055
  727MOL0     C98046   4.376   8.922   7.445  1.0522  0.4182  0.0840
  727MOL0     C98047   4.450   8.933   7.570  0.3912 -0.8610  0.1565
  727MOL0     C98048   4.401   9.039   7.666 -0.8644  0.0113 -0.5411
  727MOL0     C98049   4.370   8.992   7.809  0.5705 -0.0151 -0.3391
  727MOL0     C98050   4.270   9.085   7.873  0.4206 -0.4596  0.1428
  727MOL0     C98051   4.197   9.045   8.006 -0.6972 -0.7124 -0.0664
  727MOL0     C98052   4.293   9.023   8.117  0.2719  0.6364  0.4091
  727MOL0     C98053   4.330   8.869   8.133  0.1173  0.2251 -0.1197
  727MOL0    Cl98054   4.479   8.864   8.240  0.2941 -0.5769  0.3196
  727MOL0     C98055   4.471   9.084   7.146  1.1493  0.0974 -0.8373
  727MOL0     C98056   4.457   9.064   7.006  0.0168 -0.8659  0.2718
  727MOL0     O98057   4.527   8.797   6.805  0.3067  0.3383  0.1529
  727MOL0     C98058   4.238   8.785   6.627  0.0545 -1.1115 -0.7759
  727MOL0     C98059   4.172   8.752   6.508 -0.1002  0.4674 -0.5998
  727MOL0     N98060   4.137   8.279   6.001 -0.3024  0.7527  0.3048
  727MOL0     N98061   4.068   8.340   5.915  1.0005  0.2096  0.6989
  727MOL0     C98062   4.226   9.135   6.509  0.6777 -0.4445  0.5788
  727MOL0     C98063   4.219   9.192   6.635  0.5275  0.4406  0.3481
  727MOL0     C98064   4.228   9.418   7.025  0.3578  0.1192  0.9809
  727MOL0     C98065   4.187   9.298   7.086  0.3114 -0.3665  0.0274
  727MOL0     C98066   4.196   9.275   7.221 -0.1460  0.9803  0.2584
  727MOL0     C98067   4.240   9.370   7.309  1.2421 -0.0319 -0.7562
  727MOL0     O98068   4.227   9.340   7.447  0.0723  0.1365  0.0679
  727MOL0     C98069   4.286   9.437   7.531  0.6436 -0.5552  0.0801
  727MOL0     C98070   4.433   9.413   7.545  0.1537  0.2199 -1.0951
  727MOL0     C98071   4.508   9.530   7.612  0.0485 -0.0903 -0.1011
  727MOL0     C98072   4.487   9.542   7.762  0.6319 -0.1890 -0.8126
  727MOL0     C98073   4.595   9.631   7.817 -0.4360  0.0326 -0.0685
  727MOL0     C98074   4.688   9.692   7.866  0.5686  0.2573  0.2953
  727MOL0     C98075   4.273   9.495   7.255 -0.2317 -0.4073  0.1498
  727MOL0     C98076   4.278   9.522   7.114 -0.4759  1.0129 -0.5858
  727MOL0     C98077   4.331   9.660   7.080  0.0742 -0.0227  0.6211
  727MOL0     H98078   3.970   9.414   6.620 -0.0362  0.4207 -0.2896
  727MOL0     H98079   3.989   9.355   6.380 -0.5001 -1.1896  0.1762
  727MOL0     H98080   4.105   8.972   6.294  1.3939  1.5896  1.4293
  727MOL0     H98081   3.973   9.097   6.288  0.6597  0.8167  2.5619
  727MOL0     H98082   4.189   9.051   6.072  0.0166 -1.1231 -2.1412
  727MOL0     H98083   4.023   9.119   6.044  3.6857  2.9000 -1.7782
  727MOL0     H98084   3.954   8.873   6.132 -0.6566  0.4280 -0.1659
  727MOL0     H98085   4.122   8.841   6.081 -0.3886 -1.0816 -1.4915
  727MOL0     H98086   3.959   8.983   5.877 -3.9148 -0.6693  0.1253
  727MOL0     H98087   4.053   8.837   5.863  0.6608 -0.9185  0.4058
  727MOL0     H98088   3.799   8.809   6.012  0.5909  1.4442  0.3413
  727MOL0     H98089   3.809   8.815   5.831  4.4482  2.0998 -1.4983
  727MOL0     H98090   3.982   8.631   5.842  0.1772  2.8587 -0.7089
  727MOL0     H98091   3.940   8.605   6.011  1.3178 -1.0990  0.1027
  727MOL0     H98092   3.731   8.569   5.799 -0.8322 -1.8512  0.2039
  727MOL0     H98093   3.715   8.536   5.980 -0.5440  2.3680 -0.1393
  727MOL0     H98094   3.777   8.326   5.868 -1.0024  1.8446 -4.3584
  727MOL0     H98095   3.880   8.406   5.769  0.8497 -0.5116  0.3294
  727MOL0     H98096   3.862   8.336   6.177 -3.2286 -1.7613 -1.4375
  727MOL0     H98097   4.036   8.197   6.307  0.4251 -0.4636  0.4109
  727MOL0     H98098   4.203   8.191   6.259 -0.1619 -1.3383  1.6557
  727MOL0     H98099   4.065   8.457   6.287 -0.6600 -0.4070  2.1248
  727MOL0     H98100   4.146   8.369   6.424 -4.2263 -0.4425  1.0623
  727MOL0     H98101   4.335   8.371   6.210  0.0661  0.2419 -1.4507
  727MOL0     H98102   4.351   8.455   6.358 -1.1378  0.6367  1.3041
  727MOL0     H98103   4.215   8.552   6.103  1.6181  0.2468 -0.5582
  727MOL0     H98104   4.357   8.623   6.160 -0.2505 -0.5262 -1.9445
  727MOL0     H98105   4.456   8.718   6.317  1.2832  0.1523 -0.6322
  727MOL0     H98106   4.559   8.808   6.512  0.2304 -0.1983 -1.9483
  727MOL0     H98107   4.213   8.833   6.993 -1.8842  0.9555  1.4444
  727MOL0     H98108   4.208   8.879   7.227  0.7441 -0.0789  0.7498
  727MOL0     H98109   4.268   8.914   7.458  1.0964  0.0757  0.2617
  727MOL0     H98110   4.409   8.835   7.386  0.8215 -0.5098  1.2832
  727MOL0     H98111   4.444   8.838   7.623 -0.0218 -0.9601 -0.0675
  727MOL0     H98112   4.554   8.958   7.546 -0.7643  1.6806 -2.7828
  727MOL0     H98113   4.489   9.104   7.677 -1.5005  0.4911  3.0498
  727MOL0     H98114   4.316   9.091   7.621 -1.2140 -1.2629 -1.3790
  727MOL0     H98115   4.462   8.989   7.869  0.9992 -0.2395 -0.9915
  727MOL0     H98116   4.321   8.894   7.800  1.3589 -0.2481 -3.0575
  727MOL0     H98117   4.187   9.130   7.818  0.9236  1.1938  0.6649
  727MOL0     H98118   4.331   9.174   7.889 -0.6878  0.7639 -1.9991
  727MOL0     H98119   4.137   9.131   8.039  1.9238  1.0965  0.3205
  727MOL0     H98120   4.137   8.956   7.983 -2.5388  0.8050 -1.5293
  727MOL0     H98121   4.261   9.067   8.212 -0.0858 -2.0895  1.6431
  727MOL0     H98122   4.388   9.063   8.079  1.6487 -1.6871  1.1718
  727MOL0     H98123   4.260   8.801   8.182  2.1165 -0.0547  2.5799
  727MOL0     H98124   4.354   8.836   8.032 -0.8133  1.3818 -0.7442
  727MOL0     H98125   4.551   9.145   7.187 -0.2903  0.4824  1.5471
  727MOL0     H98126   4.521   9.128   6.946 -0.2410  0.9281  1.8147
  727MOL0     H98127   4.179   8.799   6.718 -0.9451 -2.1197 -1.2335
  727MOL0     H98128   4.064   8.740   6.515 -0.2995  1.8653 -1.0507
  727MOL0     H98129   4.304   9.062   6.491  0.4822 -0.4209 -0.3960
  727MOL0     H98130   4.298   9.156   6.699  2.6632  2.0973 -1.1919
  727MOL0     H98131   4.149   9.220   7.021 -2.0572  0.1034  0.7507
  727MOL0     H98132   4.163   9.179   7.261 -0.8965  0.9836 -0.3268
  727MOL0     H98133   4.240   9.410   7.627 -0.0903 -1.4144 -0.4899
  727MOL0     H98134   4.246   9.537   7.512  1.8747 -0.4373 -2.1697
  727MOL0     H98135   4.472   9.396   7.444  2.3276  1.9610 -0.6407
  727MOL0     H98136   4.454   9.328   7.610 -1.5566 -0.7884 -1.7920
  727MOL0     H98137   4.480   9.628   7.571 -1.8012  0.9906  3.3542
  727MOL0     H98138   4.614   9.513   7.596  0.4109  0.9788  0.9687
  727MOL0     H98139   4.389   9.578   7.795  0.2165  0.7923 -2.9549
  727MOL0     H98140   4.499   9.439   7.797  1.8255 -0.6251 -2.3844
  727MOL0     H98141   4.760   9.746   7.926 -0.6778  0.6518  1.4904
  727MOL0     H98142   4.300   9.571   7.328 -3.1061 -0.9082  1.9124
  727MOL0     H98143   4.274   9.701   6.996 -0.7736 -2.0153  0.1658
  727MOL0     H98144   4.307   9.720   7.168 -2.4089 -0.3098  0.2127
  727MOL0     H98145   4.439   9.658   7.059 -0.1740 -0.2482 -0.7086
  728MOL0     O98146   6.017   5.315   4.609 -0.1325  0.0277  0.5787
  728MOL0     C98147   5.950   5.350   4.704  0.3654  0.3563  0.0525
  728MOL0     O98148   5.822   5.398   4.688 -0.7261 -0.7361 -0.5749
  728MOL0     C98149   5.772   5.406   4.562  0.3313 -0.0116  0.3904
  728MOL0     C98150   5.786   5.518   4.481  0.0015 -0.6516 -0.2518
  728MOL0     C98151   5.725   5.524   4.350 -0.0662 -0.0291  0.4847
  728MOL0     C98152   5.639   5.420   4.309 -0.5706 -0.3498  0.3660
  728MOL0     O98153   5.569   5.454   4.194 -1.1955 -0.3393 -0.4364
  728MOL0     C98154   5.453   5.384   4.164 -0.4717  0.1474  0.0949
  728MOL0     C98155   5.357   5.453   4.064 -0.0025  0.3865 -0.4753
  728MOL0     C98156   5.429   5.480   3.935  0.7703 -1.0008 -0.2957
  728MOL0     C98157   5.366   5.586   3.856  0.2523 -0.0447  0.1595
  728MOL0     C98158   5.408   5.593   3.707 -0.1325 -0.2392 -0.0876
  728MOL0     C98159   5.359   5.726   3.645  0.5035 -1.3348  0.0311
  728MOL0     C98160   5.345   5.707   3.482  0.0166  0.6890 -0.2322
  728MOL0     C98161   5.208   5.654   3.439  0.2191  0.5627  0.9885
  728MOL0     N98162   5.156   5.537   3.508 -0.2308 -0.0864 -0.4252
  728MOL0     C98163   5.070   5.553   3.611  0.4550  0.0860 -0.4841
  728MOL0     C98164   5.049   5.428   3.665  0.6950 -0.2869 -0.9047
  728MOL0     C98165   4.958   5.413   3.784  0.0531 -0.2111 -0.3663
  728MOL0     C98166   4.928   5.265   3.816 -1.3289  0.3187  0.0617
  728MOL0     C98167   4.859   5.204   3.697 -0.2543  0.6244  0.2680
  728MOL0     C98168   4.871   5.054   3.702 -0.8405  0.0869 -0.4002
  728MOL0     O98169   4.784   4.999   3.601  0.6910  0.4668  0.2394
  728MOL0     C98170   4.788   4.868   3.565 -0.4944  0.8773  0.0499
  728MOL0     C98171   4.868   4.777   3.629  0.4441  0.6212  0.1976
  728MOL0     C98172   4.872   4.640   3.585 -0.1482  0.4527  0.2012
  728MOL0     C98173   4.778   4.598   3.484  0.1122 -1.1371 -0.4277
  728MOL0     C98174   4.791   4.474   3.419  0.1200 -1.0029 -0.0081
  728MOL0     O98175   4.905   4.419   3.386 -0.7626 -0.5563 -0.3687
  728MOL0     C98176   4.920   4.288   3.334  0.1723  0.2956 -0.1993
  728MOL0     C98177   4.836   4.209   3.257 -0.8373 -0.1244  0.4844
  728MOL0     C98178   4.849   4.078   3.228 -0.4374 -0.3850 -0.1475
  728MOL0     C98179   4.964   4.002   3.274 -0.1833 -0.7441  0.1433
  728MOL0     O98180   4.981   3.869   3.233  0.4097 -0.1417  0.8258
  728MOL0     C98181   4.990   3.843   3.085 -0.5824 -0.5181 -0.6776
  728MOL0     C98182   5.137   3.845   3.042  0.2830 -0.1460 -0.0151
  728MOL0     C98183   5.143   3.848   2.882 -0.3371 -0.1270  0.9325
  728MOL0     C98184   5.141   3.988   2.813  0.4075 -0.0962  0.3339
  728MOL0     C98185   5.107   3.968   2.665 -0.0154  0.4087  0.5183
  728MOL0     C98186   5.168   4.080   2.577  0.7797 -0.2610 -0.2233
  728MOL0     C98187   5.162   4.052   2.430  0.9855  0.2890  1.1215
  728MOL0     C98188   5.176   4.187   2.357  0.5518 -0.5125  0.0592
  728MOL0    Cl98189   5.220   4.171   2.191  0.2331 -0.4259 -0.2500
  728MOL0     C98190   5.050   4.075   3.351 -0.3020  0.5389  0.7238
  728MOL0     C98191   5.028   4.213   3.372 -0.5717 -1.3357 -0.2388
  728MOL0     O98192   4.676   4.422   3.406 -0.4002  0.8185  0.3542
  728MOL0     C98193   4.684   4.690   3.441 -0.3660  0.1876  0.6479
  728MOL0     C98194   4.697   4.826   3.472 -0.0153  0.8714  0.7218
  728MOL0     N98195   5.121   5.339   3.585  0.0529 -0.4582  0.1280
  728MOL0     N98196   5.190   5.402   3.498 -0.5107 -0.6707  0.7989
  728MOL0     C98197   5.617   5.314   4.392 -0.6698 -0.3358  0.4740
  728MOL0     C98198   5.690   5.303   4.512 -0.2400 -0.2231  0.3859
  728MOL0     C98199   6.009   5.335   4.840 -0.3647 -0.4536 -0.5522
  728MOL0     C98200   6.060   5.207   4.873  0.7180 -0.1825 -0.2845
  728MOL0     C98201   6.127   5.178   4.994  0.0143  0.5465 -0.1923
  728MOL0     C98202   6.132   5.280   5.090 -0.5748  0.3406  0.6813
  728MOL0     O98203   6.177   5.242   5.216  0.4040  0.4931  0.0543
  728MOL0     C98204   6.073   5.254   5.311 -0.4604  0.6422  0.9377
  728MOL0     C98205   6.036   5.108   5.364  0.4193  0.3959  0.6973
  728MOL0     C98206   5.970   5.104   5.507 -0.0265 -0.5584 -1.0392
  728MOL0     C98207   5.905   4.970   5.542 -0.6150  0.4389  0.1321
  728MOL0     C98208   5.862   4.969   5.677  1.7339 -0.7036 -0.8488
  728MOL0     C98209   5.833   4.938   5.795  0.7447 -0.6324 -0.2446
  728MOL0     C98210   6.087   5.410   5.056  0.5830  0.0721 -0.0260
  728MOL0     C98211   6.008   5.441   4.935 -0.7172 -0.1561  0.0025
  728MOL0     C98212   5.966   5.577   4.894 -0.5655 -0.2248  0.5179
  728MOL0     H98213   5.840   5.606   4.516  0.4984  0.5622 -3.5850
  728MOL0     H98214   5.744   5.609   4.286 -1.8792 -0.6415 -0.9586
  728MOL0     H98215   5.467   5.283   4.122 -1.8270  0.8920 -2.3814
  728MOL0     H98216   5.391   5.361   4.252  1.1243 -1.8574  0.7836
  728MOL0     H98217   5.312   5.538   4.116  2.5188  0.3710  1.9300
  728MOL0     H98218   5.265   5.397   4.047 -0.1632  0.9790 -1.6900
  728MOL0     H98219   5.435   5.393   3.869  3.2496 -0.7749 -0.4744
  728MOL0     H98220   5.529   5.518   3.962  0.3144 -1.5249  2.4473
  728MOL0     H98221   5.257   5.574   3.857  0.0725  1.4412  0.3363
  728MOL0     H98222   5.377   5.680   3.910  1.6930  0.6016 -1.1558
  728MOL0     H98223   5.513   5.572   3.685 -0.2632 -0.4434 -0.5344
  728MOL0     H98224   5.352   5.517   3.653 -3.1360  2.2561 -0.7905
  728MOL0     H98225   5.262   5.760   3.682  1.2880  2.3373 -0.8955
  728MOL0     H98226   5.431   5.802   3.677  0.0274 -0.2109 -1.4781
  728MOL0     H98227   5.429   5.648   3.446  0.7876  1.0403  0.9531
  728MOL0     H98228   5.369   5.797   3.424  1.8637 -1.4252 -3.0141
  728MOL0     H98229   5.142   5.740   3.454  1.4535  2.1023 -1.7284
  728MOL0     H98230   5.232   5.636   3.334 -3.8037  0.0337  0.0011
  728MOL0     H98231   5.029   5.647   3.646  2.2731  1.2221 -1.2236
  728MOL0     H98232   4.996   5.467   3.871 -0.5903  0.6322 -0.5902
  728MOL0     H98233   4.864   5.469   3.773 -0.9076 -1.1691  2.2340
  728MOL0     H98234   5.028   5.223   3.834 -1.0087  2.4082  5.0162
  728MOL0     H98235   4.872   5.268   3.910 -1.3998  0.1283  0.0238
  728MOL0     H98236   4.882   5.245   3.598  0.8498 -2.9797 -1.1215
  728MOL0     H98237   4.754   5.232   3.710  0.0883  1.6427  0.9010
  728MOL0     H98238   4.834   5.023   3.799 -1.7906  0.2217 -0.7143
  728MOL0     H98239   4.974   5.018   3.695 -0.9538 -0.5169  0.8059
  728MOL0     H98240   4.948   4.812   3.693  1.7893  0.8092 -1.4933
  728MOL0     H98241   4.935   4.563   3.629  0.0728  0.2885 -0.3966
  728MOL0     H98242   4.733   4.232   3.233 -2.3551 -4.1533  2.1614
  728MOL0     H98243   4.766   4.026   3.182 -0.6481  0.5857 -0.9110
  728MOL0     H98244   4.949   3.745   3.061 -1.2934 -0.7148  1.1767
  728MOL0     H98245   4.921   3.901   3.022  2.8295  1.1154 -3.2428
  728MOL0     H98246   5.190   3.936   3.072  0.9137 -0.7135  0.6430
  728MOL0     H98247   5.191   3.757   3.079 -0.2672 -1.0393 -1.2683
  728MOL0     H98248   5.231   3.793   2.847 -0.4414  0.2976 -0.0071
  728MOL0     H98249   5.055   3.790   2.851  0.6540 -0.3615 -1.6796
  728MOL0     H98250   5.239   4.037   2.813 -0.4261  1.6716  0.0378
  728MOL0     H98251   5.071   4.055   2.862 -0.6858 -2.7060  2.5900
  728MOL0     H98252   4.999   3.961   2.647 -0.0602 -0.1428  0.9791
  728MOL0     H98253   5.157   3.878   2.629  2.9541  1.9430  0.4930
  728MOL0     H98254   5.106   4.169   2.596  0.3139 -0.7504  0.5927
  728MOL0     H98255   5.266   4.111   2.612 -1.1988  1.8314  4.2185
  728MOL0     H98256   5.063   4.011   2.406  0.2694  2.2402  0.6062
  728MOL0     H98257   5.240   3.980   2.401  0.4867  0.9227 -2.0758
  728MOL0     H98258   5.073   4.224   2.364  0.2856 -0.7315 -2.0400
  728MOL0     H98259   5.248   4.255   2.405 -2.2379  2.9464 -0.2343
  728MOL0     H98260   5.135   4.021   3.392  1.4336 -0.0048 -3.1893
  728MOL0     H98261   5.104   4.269   3.425 -1.0557  0.5588 -1.4112
  728MOL0     H98262   4.602   4.657   3.377 -2.6062  1.5058  2.6525
  728MOL0     H98263   4.636   4.911   3.447  1.9485  2.1656  0.1103
  728MOL0     H98264   5.538   5.242   4.377 -2.5479  1.5402  0.9708
  728MOL0     H98265   5.662   5.222   4.578  1.6005 -0.9232  0.3508
  728MOL0     H98266   6.051   5.131   4.796  1.2223 -0.6489  0.1084
  728MOL0     H98267   6.173   5.087   5.031 -1.2120  0.7240  1.9470
  728MOL0     H98268   5.983   5.301   5.271 -0.9650 -1.3702 -0.4248
  728MOL0     H98269   6.111   5.317   5.392 -0.5376  0.4057  1.1588
  728MOL0     H98270   6.124   5.043   5.363 -0.3125 -0.6170  0.5637
  728MOL0     H98271   5.971   5.063   5.288 -0.9729  0.1959  1.9734
  728MOL0     H98272   5.900   5.188   5.508  1.2144  0.5062 -0.7150
  728MOL0     H98273   6.052   5.136   5.572 -1.1242 -1.0056  0.6442
  728MOL0     H98274   5.836   4.942   5.462  2.4916  1.7530 -3.3578
  728MOL0     H98275   5.979   4.889   5.545 -3.0632 -1.9431 -0.1083
  728MOL0     H98276   5.807   4.933   5.898 -1.3118  3.3456 -0.3636
  728MOL0     H98277   6.093   5.481   5.137 -0.7445  1.2159 -0.8753
  728MOL0     H98278   5.946   5.638   4.982  0.4427  1.7694 -0.5627
  728MOL0     H98279   6.050   5.619   4.837 -2.0108 -1.2381 -2.6076
  728MOL0     H98280   5.871   5.586   4.841 -0.9248  1.9445  1.4444
  729MOL0     O98281   2.652   2.067   6.609  0.0221 -0.5976 -0.2193
  729MOL0     C98282   2.701   2.050   6.492 -0.3564 -0.7618  0.5220
  729MOL0     O98283   2.637   2.012   6.389  0.3800 -0.6188 -0.7195
  729MOL0     C98284   2.498   1.993   6.410  0.0194 -0.0012  0.5833
  729MOL0     C98285   2.454   1.872   6.357 -0.3527  0.3686  0.6420
  729MOL0     C98286   2.321   1.822   6.382  0.3467 -0.3813 -0.5143
  729MOL0     C98287   2.233   1.903   6.458  0.7273  0.1561 -0.1535
  729MOL0     O98288   2.107   1.857   6.474 -0.0550 -0.3583  0.3507
  729MOL0     C98289   2.064   1.825   6.610 -1.2544 -0.3775  0.0484
  729MOL0     C98290   1.912   1.854   6.621 -0.1609 -0.4630 -0.4629
  729MOL0     C98291   1.816   1.760   6.549 -1.3128  0.6206  0.2730
  729MOL0     C98292   1.823   1.632   6.630  0.0482  0.0299 -0.0785
  729MOL0     C98293   1.704   1.535   6.603  0.4667  0.4925  0.1421
  729MOL0     C98294   1.709   1.406   6.693  0.1323 -1.2022  0.0601
  729MOL0     C98295   1.768   1.292   6.612  0.3087 -0.2643 -0.3735
  729MOL0     C98296   1.905   1.255   6.670 -0.9251 -0.2473  0.4172
  729MOL0     N98297   1.905   1.160   6.790 -0.5061  0.0033  0.1745
  729MOL0     C98298   1.887   1.191   6.924  0.5162 -0.7251  0.3216
  729MOL0     C98299   1.913   1.075   6.992  0.9518  0.7561  0.5727
  729MOL0     C98300   1.915   1.045   7.138 -0.1452  0.3961  0.6824
  729MOL0     C98301   2.052   1.056   7.204 -0.9609 -0.6628 -0.1551
  729MOL0     C98302   2.063   0.984   7.347 -0.4123 -0.5034 -0.7673
  729MOL0     C98303   2.208   0.974   7.392  0.4773  0.3938 -0.6161
  729MOL0     O98304   2.209   0.894   7.500 -0.3916 -0.3374 -0.0987
  729MOL0     C98305   2.263   0.764   7.485 -0.5656 -0.3044  0.0648
  729MOL0     C98306   2.260   0.677   7.371  0.3554  0.8079 -0.6966
  729MOL0     C98307   2.313   0.543   7.372  0.7047 -0.3101  0.5391
  729MOL0     C98308   2.362   0.492   7.491 -0.5875  0.3252 -0.5615
  729MOL0     C98309   2.407   0.344   7.514  0.0867 -0.2168 -0.1477
  729MOL0     O98310   2.450   0.319   7.636 -1.0436 -1.0912  0.6405
  729MOL0     C98311   2.553   0.226   7.645  0.7491  0.7607  0.6852
  729MOL0     C98312   2.523   0.092   7.647  0.0775 -0.3015  0.1615
  729MOL0     C98313   2.613   0.004   7.705  0.1400  0.8416  0.1917
  729MOL0     C98314   2.735   0.050   7.752  0.3911  0.4797 -0.2473
  729MOL0     O98315   2.833  -0.039   7.790 -0.5517  0.6989  0.1103
  729MOL0     C98316   2.956   0.008   7.847 -0.1403 -0.9094 -0.0745
  729MOL0     C98317   3.043  -0.110   7.876 -0.4186  0.3810  0.4286
  729MOL0     C98318   3.082  -0.187   7.748 -0.0024  0.3131  0.5477
  729MOL0     C98319   3.173  -0.306   7.780 -0.1276 -0.1543  1.1428
  729MOL0     C98320   3.204  -0.399   7.655  0.0992 -0.1380  0.1260
  729MOL0     C98321   3.335  -0.368   7.578  0.3182  0.9383 -0.5634
  729MOL0     C98322   3.370  -0.474   7.461  0.0073 -0.5493 -0.5831
  729MOL0     C98323   3.524  -0.498   7.469 -0.2267 -0.0384 -0.5970
  729MOL0    Cl98324   3.621  -0.342   7.472  0.5235  0.2906 -0.3279
  729MOL0     C98325   2.771   0.187   7.742  0.6378 -0.2349 -0.4123
  729MOL0     C98326   2.678   0.275   7.689  0.4205 -0.0177  1.1284
  729MOL0     O98327   2.379   0.259   7.426  0.0276 -0.1033 -1.4742
  729MOL0     C98328   2.371   0.582   7.600  0.2827 -0.3984 -0.5173
  729MOL0     C98329   2.325   0.712   7.597 -1.2063  0.4404 -0.9261
  729MOL0     N98330   1.939   0.980   6.902 -0.5338 -0.6784  0.0302
  729MOL0     N98331   1.935   1.032   6.778 -0.3995 -0.7839 -0.4022
  729MOL0     C98332   2.272   2.032   6.508 -0.3635  0.1785 -0.1638
  729MOL0     C98333   2.405   2.075   6.477  1.1630 -0.0418 -0.0411
  729MOL0     C98334   2.852   2.084   6.467  0.5564  0.9090  0.3610
  729MOL0     C98335   2.931   2.137   6.570  0.8997 -0.1810 -0.4818
  729MOL0     C98336   3.070   2.169   6.557  0.6343 -0.1428  0.3120
  729MOL0     C98337   3.130   2.151   6.436  0.2101 -0.5979 -0.7564
  729MOL0     O98338   3.270   2.174   6.424 -0.4578 -0.2881  0.1284
  729MOL0     C98339   3.351   2.076   6.356 -0.3167 -0.0429 -0.5893
  729MOL0     C98340   3.398   2.118   6.217 -0.7497  0.0633 -0.4171
  729MOL0     C98341   3.469   1.997   6.149 -1.0803 -0.0873  0.1424
  729MOL0     C98342   3.576   2.042   6.037  0.1184 -0.7734 -0.1350
  729MOL0     C98343   3.503   2.132   5.937  0.0950  0.0813 -0.1885
  729MOL0     C98344   3.441   2.203   5.859  0.6667 -0.1893  0.4502
  729MOL0     C98345   3.057   2.102   6.331 -0.5496 -0.1469 -0.8292
  729MOL0     C98346   2.915   2.081   6.344  0.8991  1.4773  0.6659
  729MOL0     C98347   2.852   2.027   6.213  0.7098  0.0370 -2.9666
  729MOL0     H98348   2.526   1.808   6.307  0.7428  0.3099  2.2095
  729MOL0     H98349   2.294   1.725   6.343  0.9368 -0.7885  0.0580
  729MOL0     H98350   2.091   1.722   6.637 -1.1729 -0.6774 -1.1412
  729MOL0     H98351   2.099   1.901   6.680 -1.6563  1.0701 -1.2701
  729MOL0     H98352   1.905   1.946   6.564 -0.9687  0.2581  0.7610
  729MOL0     H98353   1.876   1.864   6.724  0.4284  1.9050 -0.4337
  729MOL0     H98354   1.847   1.744   6.446  2.1726  0.3421  1.2334
  729MOL0     H98355   1.717   1.807   6.546 -1.8202 -0.4195  0.2994
  729MOL0     H98356   1.912   1.574   6.605 -0.1217 -0.9942  1.5545
  729MOL0     H98357   1.821   1.643   6.738 -3.1710 -2.5141  0.2743
  729MOL0     H98358   1.614   1.597   6.610  2.0061  2.9324 -0.5610
  729MOL0     H98359   1.699   1.501   6.499  1.2464  2.7256 -0.6894
  729MOL0     H98360   1.761   1.436   6.784 -0.8479  1.1644 -0.0698
  729MOL0     H98361   1.612   1.378   6.736 -0.5404  2.0564  0.9911
  729MOL0     H98362   1.782   1.320   6.507 -0.6334 -2.6001 -1.1783
  729MOL0     H98363   1.696   1.210   6.609 -1.1765  0.9727  0.1449
  729MOL0     H98364   1.964   1.205   6.592  1.7452  2.6790  0.3625
  729MOL0     H98365   1.977   1.336   6.687 -1.7635  1.2827 -2.6484
  729MOL0     H98366   1.874   1.288   6.971  0.7635  1.0883 -3.0019
  729MOL0     H98367   1.851   1.110   7.198  0.1430 -0.6185  2.1426
  729MOL0     H98368   1.876   0.946   7.162  0.0829  0.3797  0.9874
  729MOL0     H98369   2.128   1.005   7.144 -0.3390 -0.9771  0.8629
  729MOL0     H98370   2.071   1.163   7.210 -2.1687 -0.4955  1.3930
  729MOL0     H98371   2.018   0.884   7.352 -0.4594 -0.5132 -1.3938
  729MOL0     H98372   2.009   1.046   7.419 -0.9661 -1.5670 -0.2398
  729MOL0     H98373   2.259   1.071   7.401  0.8585  0.1971 -0.6331
  729MOL0     H98374   2.260   0.923   7.310 -1.4451 -2.6348 -0.0751
  729MOL0     H98375   2.216   0.711   7.277 -2.0027  0.1365  0.0886
  729MOL0     H98376   2.293   0.478   7.286 -1.4067 -0.1873  0.8819
  729MOL0     H98377   2.424   0.056   7.619 -0.5442  1.5988 -0.2704
  729MOL0     H98378   2.597  -0.103   7.697 -0.0357  0.5954  2.9410
  729MOL0     H98379   3.020   0.074   7.787  0.7961 -2.7875 -1.2193
  729MOL0     H98380   2.928   0.057   7.941  1.3930  2.0584 -1.0184
  729MOL0     H98381   3.137  -0.085   7.925  0.2280  0.5287 -0.8486
  729MOL0     H98382   2.991  -0.185   7.937  1.9874 -0.6971  1.2816
  729MOL0     H98383   2.989  -0.227   7.705 -2.2657 -0.9462  5.7987
  729MOL0     H98384   3.132  -0.126   7.672 -0.9590 -0.8898 -1.1134
  729MOL0     H98385   3.133  -0.357   7.868  3.4897 -1.6279  2.1157
  729MOL0     H98386   3.270  -0.267   7.812 -0.1149  0.2569  0.6125
  729MOL0     H98387   3.105  -0.414   7.609  0.2001  1.5369 -0.7219
  729MOL0     H98388   3.219  -0.501   7.690  0.6306  0.1236  0.6724
  729MOL0     H98389   3.337  -0.266   7.539  0.9397  0.2452 -2.4599
  729MOL0     H98390   3.409  -0.378   7.658 -1.3965 -1.5648  0.8190
  729MOL0     H98391   3.353  -0.424   7.364 -1.9420  0.9404  0.4594
  729MOL0     H98392   3.311  -0.563   7.481 -1.0297 -0.3037 -2.3103
  729MOL0     H98393   3.527  -0.547   7.566  2.0301  0.7550 -0.2116
  729MOL0     H98394   3.562  -0.557   7.385  0.0720  1.3893 -1.5048
  729MOL0     H98395   2.865   0.233   7.769  1.2176 -1.7643  0.3011
  729MOL0     H98396   2.696   0.382   7.684  3.7099 -0.4663  0.9839
  729MOL0     H98397   2.419   0.565   7.695 -1.7518  0.1560  0.6800
  729MOL0     H98398   2.336   0.767   7.690 -0.9336 -1.9687  0.5752
  729MOL0     H98399   2.204   2.101   6.556  0.7390  1.4899 -0.3971
  729MOL0     H98400   2.447   2.169   6.513  1.7111 -1.0274  2.0420
  729MOL0     H98401   2.880   2.146   6.665  2.3003  3.4901  0.0979
  729MOL0     H98402   3.129   2.190   6.645  2.0244  1.1724 -0.8912
  729MOL0     H98403   3.307   1.979   6.382  0.2333  0.4401  2.5649
  729MOL0     H98404   3.442   2.054   6.414 -1.2061 -1.0225  0.5190
  729MOL0     H98405   3.480   2.189   6.226  1.4902 -2.2865 -1.0526
  729MOL0     H98406   3.315   2.157   6.158 -2.3191  1.4692  2.5247
  729MOL0     H98407   3.383   1.941   6.111  0.5052 -1.1749 -2.1231
  729MOL0     H98408   3.529   1.946   6.224  0.0502 -1.0099 -1.3250
  729MOL0     H98409   3.651   2.100   6.092  2.2241 -3.2810 -0.1134
  729MOL0     H98410   3.632   1.964   5.985  0.3642  2.0168 -4.5633
  729MOL0     H98411   3.401   2.268   5.785  1.7026  2.9169  2.4457
  729MOL0     H98412   3.102   2.095   6.232 -1.6611 -2.4431 -1.2574
  729MOL0     H98413   2.759   2.075   6.182 -1.0148 -0.7755  0.4686
  729MOL0     H98414   2.916   2.038   6.125  0.5673  1.3747 -2.9314
  729MOL0     H98415   2.826   1.923   6.235 -0.7192  1.0404  0.8996
  730MOL0     O98416   4.680   2.911   8.638 -0.1964 -0.3813  0.3344
  730MOL0     C98417   4.622   2.848   8.550  0.2527  0.4856  0.4218
  730MOL0     O98418   4.636   2.863   8.416 -0.1523 -0.1241  0.1468
  730MOL0     C98419   4.731   2.946   8.370 -0.0082  0.7152  0.3033
  730MOL0     C98420   4.743   3.076   8.404 -0.2010  0.6262 -0.4819
  730MOL0     C98421   4.852   3.153   8.360 -1.3488 -0.5267 -0.8477
  730MOL0     C98422   4.960   3.096   8.299  0.0399  0.8941  0.1811
  730MOL0     O98423   5.068   3.177   8.261  0.6565 -0.4397 -0.2436
  730MOL0     C98424   5.140   3.231   8.366 -0.7036  0.4659 -0.0091
  730MOL0     C98425   5.288   3.209   8.345 -0.5847 -0.3006 -0.8936
  730MOL0     C98426   5.372   3.244   8.475 -0.5010  0.0845 -0.3277
  730MOL0     C98427   5.519   3.286   8.435  0.1520 -0.4510  0.2400
  730MOL0     C98428   5.620   3.289   8.549 -0.5206 -0.2726  0.4660
  730MOL0     C98429   5.753   3.355   8.507  0.3633 -0.1674 -0.4844
  730MOL0     C98430   5.836   3.378   8.639 -0.6873  0.7456 -0.1135
  730MOL0     C98431   5.909   3.256   8.712 -0.7987 -0.9602 -0.0040
  730MOL0     N98432   5.814   3.208   8.814 -0.3755  0.1061 -0.0047
  730MOL0     C98433   5.875   3.183   8.932 -0.3167 -0.7829  0.0242
  730MOL0     C98434   5.781   3.136   9.011  0.6862  1.0002  0.1178
  730MOL0     C98435   5.800   3.101   9.157 -0.8334 -0.1278  0.4336
  730MOL0     C98436   5.765   2.957   9.198 -0.5291  0.2703  0.3865
  730MOL0     C98437   5.826   2.850   9.106  0.2032  0.1025  0.0960
  730MOL0     C98438   5.968   2.810   9.140 -0.1244 -0.7185  0.5610
  730MOL0     O98439   6.053   2.924   9.161  0.1148  0.4593  0.4367
  730MOL0     C98440   6.113   2.985   9.054 -0.3115 -0.0944  0.3737
  730MOL0     C98441   6.207   3.090   9.085  0.0373  0.8908  0.3073
  730MOL0     C98442   6.273   3.159   8.983  0.6431  0.8795  1.2218
  730MOL0     C98443   6.239   3.130   8.854 -0.1336 -0.5601 -0.1146
  730MOL0     C98444   6.313   3.201   8.744  0.0135 -0.5203 -0.0530
  730MOL0     O98445   6.436   3.237   8.774 -0.1911 -0.0982  0.2275
  730MOL0     C98446   6.516   3.275   8.675  0.0971 -0.1509  1.1956
  730MOL0     C98447   6.558   3.411   8.677 -1.0866  0.0248  0.0426
  730MOL0     C98448   6.656   3.446   8.588  1.3224  0.1408  0.7870
  730MOL0     C98449   6.699   3.356   8.482  0.6226  0.3675  0.6567
  730MOL0     O98450   6.770   3.393   8.371 -0.5269  0.3540 -0.4318
  730MOL0     C98451   6.715   3.506   8.297  0.1187 -0.7704 -0.4621
  730MOL0     C98452   6.665   3.460   8.164  0.4093 -0.0141  0.4938
  730MOL0     C98453   6.530   3.384   8.184  0.1086 -0.9571 -0.5587
  730MOL0     C98454   6.483   3.309   8.063  0.0357  1.0288  0.1115
  730MOL0     C98455   6.366   3.211   8.109 -0.3838 -1.4386  0.4039
  730MOL0     C98456   6.233   3.279   8.128 -0.3692 -0.5439  0.4863
  730MOL0     C98457   6.126   3.180   8.156  0.5189 -0.0027 -0.1406
  730MOL0     C98458   6.128   3.104   8.284 -0.3117  0.0434  0.0632
  730MOL0    Cl98459   5.968   3.048   8.313 -0.3341  0.2162  0.1465
  730MOL0     C98460   6.657   3.226   8.487  0.2427 -0.1673  0.1910
  730MOL0     C98461   6.566   3.183   8.583  0.6094  0.0140  0.5439
  730MOL0     O98462   6.257   3.212   8.631 -0.6231 -0.3495 -0.5536
  730MOL0     C98463   6.146   3.034   8.821 -0.0451  0.5595  0.5224
  730MOL0     C98464   6.090   2.958   8.918 -0.3126 -0.0727  0.1110
  730MOL0     N98465   5.671   3.126   8.935  0.5678  0.0955  0.0966
  730MOL0     N98466   5.684   3.170   8.817 -0.4183 -0.3209 -0.2822
  730MOL0     C98467   4.955   2.959   8.282 -1.3009 -0.6616 -0.1130
  730MOL0     C98468   4.838   2.883   8.310 -0.9062 -0.5503 -0.7171
  730MOL0     C98469   4.529   2.748   8.594  0.0145 -1.3133 -0.4232
  730MOL0     C98470   4.513   2.633   8.523 -0.3519  0.4395 -0.1427
  730MOL0     C98471   4.439   2.524   8.564 -0.0836  0.5425 -0.2684
  730MOL0     C98472   4.372   2.530   8.680  0.9956  0.2087  0.5332
  730MOL0     O98473   4.310   2.414   8.731  0.8448 -0.8045  0.2170
  730MOL0     C98474   4.210   2.425   8.837 -0.2349  0.0962 -0.0918
  730MOL0     C98475   4.092   2.498   8.772  1.2165  0.2886  0.1525
  730MOL0     C98476   4.011   2.561   8.887  0.1483 -0.5590  0.8501
  730MOL0     C98477   3.874   2.614   8.843 -0.1754  0.0902  0.3815
  730MOL0     C98478   3.875   2.733   8.766  0.6012 -0.5767  0.3780
  730MOL0     C98479   3.873   2.823   8.687  0.3052  0.1645 -0.6986
  730MOL0     C98480   4.371   2.651   8.748 -0.2842 -0.4111 -0.0587
  730MOL0     C98481   4.451   2.763   8.713 -0.4533 -0.0163 -0.3351
  730MOL0     C98482   4.446   2.880   8.812 -0.2282  0.9571  0.0941
  730MOL0     H98483   4.670   3.123   8.470  3.4058  1.9886  2.9266
  730MOL0     H98484   4.853   3.260   8.380  0.3410 -0.9426  1.8940
  730MOL0     H98485   5.135   3.339   8.378  0.3643  0.6281 -0.8288
  730MOL0     H98486   5.101   3.195   8.462  1.7312 -0.6584  0.6673
  730MOL0     H98487   5.319   3.275   8.263  0.3468  0.8569  0.3567
  730MOL0     H98488   5.311   3.105   8.317  1.9257  0.6257 -2.7241
  730MOL0     H98489   5.376   3.156   8.539 -1.6949 -0.6805 -1.2595
  730MOL0     H98490   5.318   3.321   8.531  0.3144 -0.0045  0.6081
  730MOL0     H98491   5.575   3.217   8.371 -0.3950 -0.3243 -0.3829
  730MOL0     H98492   5.510   3.384   8.386 -1.8793 -0.9400 -0.4530
  730MOL0     H98493   5.581   3.342   8.637  3.1535  4.5800 -0.3697
  730MOL0     H98494   5.650   3.189   8.581  0.7098  0.2623  1.0563
  730MOL0     H98495   5.811   3.296   8.435  0.6160 -0.1784 -0.2730
  730MOL0     H98496   5.730   3.453   8.466 -2.8137  0.9644  3.4173
  730MOL0     H98497   5.766   3.430   8.706 -0.1196  0.6919  0.5426
  730MOL0     H98498   5.918   3.446   8.614  1.1925 -0.8502  1.3121
  730MOL0     H98499   5.923   3.172   8.644 -0.5489 -0.1436 -0.9818
  730MOL0     H98500   6.007   3.288   8.748 -0.6551 -1.2321 -0.1549
  730MOL0     H98501   5.980   3.196   8.956  0.7325 -3.0222 -2.8060
  730MOL0     H98502   5.904   3.117   9.187 -1.7576  1.0201  3.3345
  730MOL0     H98503   5.750   3.176   9.219  1.6106  2.6688 -0.7027
  730MOL0     H98504   5.787   2.936   9.303 -0.7033  0.9316  0.5548
  730MOL0     H98505   5.656   2.947   9.204 -0.6483 -0.2882 -1.6776
  730MOL0     H98506   5.805   2.889   9.006 -3.3380  2.9904  1.7064
  730MOL0     H98507   5.766   2.759   9.102  0.1979  0.1595 -2.0786
  730MOL0     H98508   6.018   2.734   9.079  3.1198  0.9847  0.8521
  730MOL0     H98509   5.971   2.765   9.240  2.6413  0.6010  1.1770
  730MOL0     H98510   6.242   3.093   9.188 -0.4149  1.7890  0.4514
  730MOL0     H98511   6.336   3.240   9.017  0.9538  1.8267 -1.3413
  730MOL0     H98512   6.527   3.484   8.751  0.1646  0.6049  0.0279
  730MOL0     H98513   6.712   3.538   8.582  1.0371  0.2729 -0.0045
  730MOL0     H98514   6.633   3.559   8.347  0.0230 -1.1440 -0.2168
  730MOL0     H98515   6.787   3.588   8.288 -0.2130 -0.4362 -0.1230
  730MOL0     H98516   6.648   3.538   8.089  5.2664 -0.4270 -1.4066
  730MOL0     H98517   6.747   3.402   8.121  0.2152  0.7707 -0.9987
  730MOL0     H98518   6.548   3.301   8.253 -0.9168 -1.1814 -0.5405
  730MOL0     H98519   6.449   3.447   8.222  0.3975 -0.3393 -0.9546
  730MOL0     H98520   6.567   3.249   8.025  0.8067  1.5054  1.0114
  730MOL0     H98521   6.451   3.380   7.987 -2.3372 -0.0695  0.0072
  730MOL0     H98522   6.384   3.143   8.192  1.7737 -4.2371 -2.1439
  730MOL0     H98523   6.355   3.157   8.015 -0.2178  1.2695 -1.2865
  730MOL0     H98524   6.233   3.344   8.217 -1.3199 -3.2473  2.5996
  730MOL0     H98525   6.207   3.331   8.035 -0.0059 -1.6184 -0.2289
  730MOL0     H98526   6.106   3.124   8.064 -2.1477  0.8903 -0.2117
  730MOL0     H98527   6.032   3.236   8.166  0.5392  0.1663 -0.8330
  730MOL0     H98528   6.194   3.017   8.275 -0.9398 -0.3000 -1.3639
  730MOL0     H98529   6.160   3.181   8.355 -3.6113  2.5968 -0.9442
  730MOL0     H98530   6.678   3.148   8.414  1.7067 -0.2691  0.6868
  730MOL0     H98531   6.514   3.088   8.581  0.3984  0.1270  0.6226
  730MOL0     H98532   6.120   3.007   8.719 -2.1156 -0.8077  1.3366
  730MOL0     H98533   6.013   2.883   8.902 -0.6228 -0.0054  1.2546
  730MOL0     H98534   5.043   2.920   8.233  0.1305  1.4939  0.6002
  730MOL0     H98535   4.837   2.777   8.287  2.4018 -0.4502 -1.8331
  730MOL0     H98536   4.580   2.614   8.439  0.6971 -2.1446  1.1433
  730MOL0     H98537   4.448   2.432   8.506 -0.5770  0.7355 -0.6561
  730MOL0     H98538   4.250   2.472   8.927 -0.8047  2.9782 -1.2163
  730MOL0     H98539   4.174   2.323   8.853 -0.3123 -0.3783 -2.8180
  730MOL0     H98540   4.042   2.429   8.703  2.7158 -0.7705  0.0723
  730MOL0     H98541   4.128   2.573   8.700  1.9362 -1.7937 -1.7801
  730MOL0     H98542   4.079   2.624   8.944 -0.0593  0.9376 -0.4810
  730MOL0     H98543   3.984   2.475   8.949 -1.9613 -2.1687 -2.0200
  730MOL0     H98544   3.828   2.533   8.787 -0.1057 -1.0162  1.8490
  730MOL0     H98545   3.814   2.641   8.931  0.5941 -2.1490  1.6774
  730MOL0     H98546   3.865   2.910   8.625  0.6792 -1.4368 -3.1076
  730MOL0     H98547   4.313   2.664   8.839 -0.4945  0.5157 -0.3074
  730MOL0     H98548   4.473   2.968   8.753 -0.7649  0.3411 -1.1064
  730MOL0     H98549   4.345   2.901   8.847 -1.4779 -0.5043 -2.3270
  730MOL0     H98550   4.516   2.855   8.892  0.0065  1.2466 -0.0200
  731MOL0     O98551   9.029  10.977   1.268 -0.3600  0.0470  0.1924
  731MOL0     C98552   9.000  10.904   1.363  0.6458  0.1952  1.0196
  731MOL0     O98553   8.879  10.876   1.399  0.3863 -0.2997 -0.0233
  731MOL0     C98554   8.770  10.959   1.340 -0.4289 -0.3224  0.0484
  731MOL0     C98555   8.699  11.029   1.436  0.7781  0.5986 -0.2423
  731MOL0     C98556   8.574  11.089   1.399 -0.0166 -0.2998 -0.6150
  731MOL0     C98557   8.546  11.105   1.263 -0.5720  0.5452  0.1053
  731MOL0     O98558   8.426  11.152   1.225  0.7387 -0.2581  0.2094
  731MOL0     C98559   8.366  11.256   1.293  1.1285 -0.1679  0.3114
  731MOL0     C98560   8.215  11.283   1.254 -0.2901  0.9506  0.0510
  731MOL0     C98561   8.211  11.328   1.105 -0.3760 -0.6503  0.2167
  731MOL0     C98562   8.076  11.407   1.085  0.7132 -0.4369  0.8449
  731MOL0     C98563   7.970  11.319   1.028 -0.3913  0.1148  0.7473
  731MOL0     C98564   7.907  11.219   1.128 -0.1511  0.8558  0.4652
  731MOL0     C98565   7.808  11.296   1.213  0.3739 -0.7332 -0.2950
  731MOL0     C98566   7.727  11.194   1.297  0.2343 -0.4220 -0.0634
  731MOL0     N98567   7.614  11.271   1.363  0.6691  0.0829 -0.7977
  731MOL0     C98568   7.530  11.358   1.299  0.4949 -1.1036  0.1242
  731MOL0     C98569   7.455  11.408   1.399 -0.1919  0.9144  0.4145
  731MOL0     C98570   7.344  11.505   1.382  0.2999 -0.0755 -0.5841
  731MOL0     C98571   7.232  11.491   1.487 -0.1090  0.8934  0.4129
  731MOL0     C98572   7.160  11.354   1.492 -0.1109 -0.3187 -0.8632
  731MOL0     C98573   7.049  11.356   1.601  0.0077 -0.4446  0.4245
  731MOL0     O98574   6.956  11.467   1.597  0.1224  0.4467 -0.6800
  731MOL0     C98575   6.860  11.474   1.502 -0.0140 -1.6340  0.2413
  731MOL0     C98576   6.775  11.584   1.486  0.9668 -0.4684 -0.4341
  731MOL0     C98577   6.665  11.598   1.403 -0.4913  0.5350 -0.3352
  731MOL0     C98578   6.634  11.482   1.311  0.5572 -0.3244 -0.1794
  731MOL0     C98579   6.512  11.487   1.230 -0.8263  0.4637  0.4266
  731MOL0     O98580   6.501  11.376   1.145 -0.9969 -0.6622  0.4606
  731MOL0     C98581   6.382  11.330   1.092  0.5957  0.8060  1.2290
  731MOL0     C98582   6.396  11.263   0.973  0.1175  0.8509 -0.1129
  731MOL0     C98583   6.293  11.195   0.909  0.2572 -0.5622 -0.0484
  731MOL0     C98584   6.162  11.205   0.954 -0.3042  0.6229  0.0414
  731MOL0     O98585   6.071  11.124   0.892  0.0303 -0.7882 -0.2412
  731MOL0     C98586   5.967  11.059   0.963  0.9053  0.3199 -0.0172
  731MOL0     C98587   5.841  11.152   0.975 -0.0007  0.6388 -0.2089
  731MOL0     C98588   5.769  11.154   0.839  1.0163 -0.6258  0.2730
  731MOL0     C98589   5.698  11.027   0.796  0.6221  0.2689 -0.2559
  731MOL0     C98590   5.607  11.043   0.679 -0.6174 -0.5393  1.0849
  731MOL0     C98591   5.666  11.025   0.541 -0.3366  0.9009 -0.7634
  731MOL0     C98592   5.704  10.880   0.496 -0.0100  0.8904 -0.4011
  731MOL0     C98593   5.746  10.864   0.344 -0.3008 -0.7396 -0.2392
  731MOL0    Cl98594   5.805  10.698   0.323 -0.0545  0.2551  0.3329
  731MOL0     C98595   6.143  11.266   1.080 -0.3660 -0.0106 -0.0935
  731MOL0     C98596   6.254  11.335   1.150 -0.1448  0.2440 -0.8119
  731MOL0     O98597   6.441  11.585   1.224  0.1950  0.2557 -0.3674
  731MOL0     C98598   6.726  11.375   1.308  0.0627 -0.5673 -0.9212
  731MOL0     C98599   6.826  11.370   1.410 -0.2917 -0.9671  0.3784
  731MOL0     N98600   7.492  11.343   1.516  0.6564  1.1258  0.6248
  731MOL0     N98601   7.581  11.261   1.490  0.7398 -0.2650  0.0462
  731MOL0     C98602   8.629  11.050   1.166 -0.2589  0.3687  0.0089
  731MOL0     C98603   8.737  10.968   1.200 -0.1929 -0.0772 -0.4168
  731MOL0     C98604   9.105  10.817   1.417 -0.5531  0.4228  0.2937
  731MOL0     C98605   9.075  10.690   1.476  0.8129  0.7929 -0.4777
  731MOL0     C98606   9.170  10.626   1.553  0.0188 -0.0367  0.1605
  731MOL0     C98607   9.305  10.657   1.544  0.0535 -0.0699  0.2361
  731MOL0     O98608   9.414  10.588   1.597  0.0278 -0.5626  0.0899
  731MOL0     C98609   9.401  10.454   1.645  0.1573  0.1922  0.6200
  731MOL0     C98610   9.539  10.409   1.691  0.0970 -0.1931 -0.0201
  731MOL0     C98611   9.606  10.530   1.766 -0.7792  0.8234 -0.5111
  731MOL0     C98612   9.724  10.465   1.837  0.3383  0.0602  0.0358
  731MOL0     C98613   9.794  10.555   1.925 -0.5582  0.5897  0.4157
  731MOL0     C98614   9.844  10.643   1.985  0.4609  0.3774  0.2198
  731MOL0     C98615   9.342  10.769   1.472 -0.4885 -0.6539 -0.9371
  731MOL0     C98616   9.247  10.855   1.418  0.2334  0.2881 -0.0900
  731MOL0     C98617   9.306  10.984   1.364  0.1831  0.8112 -1.0096
  731MOL0     H98618   8.708  11.033   1.544 -0.5341  1.1997 -0.1352
  731MOL0     H98619   8.510  11.122   1.479  1.8801  0.8982  0.4831
  731MOL0     H98620   8.357  11.229   1.398 -2.4557 -1.6702 -0.2221
  731MOL0     H98621   8.430  11.344   1.281 -1.3686  1.5555 -1.5056
  731MOL0     H98622   8.162  11.347   1.326 -4.2106 -1.0919 -0.7359
  731MOL0     H98623   8.171  11.184   1.268  2.0105 -0.2768 -0.8686
  731MOL0     H98624   8.231  11.246   1.036 -2.2966  0.1387 -1.4002
  731MOL0     H98625   8.288  11.405   1.093 -0.7558 -0.3171 -0.1466
  731MOL0     H98626   8.045  11.457   1.177 -0.4307  0.8990 -0.2233
  731MOL0     H98627   8.100  11.489   1.017  0.7336 -1.1732 -0.0577
  731MOL0     H98628   7.897  11.382   0.977  0.8306  3.2475  2.6192
  731MOL0     H98629   8.012  11.256   0.949 -0.4865  3.2142 -1.9802
  731MOL0     H98630   7.852  11.144   1.071  0.3198  0.9071 -0.0648
  731MOL0     H98631   7.970  11.163   1.196 -0.2734  0.8919  0.6078
  731MOL0     H98632   7.754  11.373   1.157  0.3914 -0.4592  0.0615
  731MOL0     H98633   7.881  11.331   1.286  0.8571 -1.5898 -0.3549
  731MOL0     H98634   7.681  11.119   1.231  1.3615 -1.0987 -0.0967
  731MOL0     H98635   7.790  11.139   1.366  4.0514 -0.2800 -3.0965
  731MOL0     H98636   7.532  11.376   1.192  0.6749 -3.4411 -0.3217
  731MOL0     H98637   7.384  11.604   1.406  0.4002 -0.4110  0.7580
  731MOL0     H98638   7.302  11.506   1.282  0.2562 -0.6627 -0.5749
  731MOL0     H98639   7.278  11.513   1.584  3.4648 -0.9848 -0.6463
  731MOL0     H98640   7.158  11.568   1.467 -1.4140 -0.4684 -0.2054
  731MOL0     H98641   7.226  11.273   1.524 -1.2709 -0.0786  2.5741
  731MOL0     H98642   7.107  11.332   1.399  0.5099 -2.2576 -0.7916
  731MOL0     H98643   7.098  11.365   1.699 -1.4880  2.2437  1.0334
  731MOL0     H98644   6.985  11.269   1.610 -0.6917  0.0374  0.1809
  731MOL0     H98645   6.800  11.671   1.546  2.0357 -0.9318 -0.1780
  731MOL0     H98646   6.602  11.686   1.391 -2.9732 -1.1289 -0.3488
  731MOL0     H98647   6.493  11.257   0.925 -0.1994 -0.5618 -0.6304
  731MOL0     H98648   6.304  11.146   0.813 -1.6637  0.2611 -0.7486
  731MOL0     H98649   5.934  10.963   0.922  0.7180 -0.3506  1.6332
  731MOL0     H98650   5.987  11.032   1.067 -5.2373 -0.1969  1.3797
  731MOL0     H98651   5.779  11.097   1.046  1.6883 -0.1548  0.7282
  731MOL0     H98652   5.856  11.252   1.017  0.4237 -0.1369  1.5743
  731MOL0     H98653   5.693  11.231   0.851 -1.0662 -2.6281  0.7123
  731MOL0     H98654   5.838  11.176   0.757  0.7354 -1.2197 -0.1338
  731MOL0     H98655   5.647  10.976   0.878  1.0247 -4.7446 -2.7901
  731MOL0     H98656   5.773  10.954   0.763  0.3348  0.6880 -1.9359
  731MOL0     H98657   5.570  11.145   0.685  2.6121  0.8008  0.5911
  731MOL0     H98658   5.526  10.970   0.687 -1.0441 -0.0824  0.9705
  731MOL0     H98659   5.585  11.060   0.476 -1.6044  1.8351  1.2154
  731MOL0     H98660   5.758  11.084   0.529  0.3229 -0.1229 -0.8083
  731MOL0     H98661   5.630  10.800   0.513  0.6672 -0.1812 -2.1881
  731MOL0     H98662   5.789  10.866   0.563  1.9804  0.5886 -2.8682
  731MOL0     H98663   5.664  10.879   0.274  1.9581  3.0311 -2.4776
  731MOL0     H98664   5.813  10.945   0.310 -2.3191  0.3503 -1.8742
  731MOL0     H98665   6.045  11.269   1.127 -0.4619 -0.0135 -0.2914
  731MOL0     H98666   6.240  11.388   1.244 -0.8536 -0.3549 -0.5784
  731MOL0     H98667   6.713  11.292   1.240 -1.4041  0.8287 -2.4371
  731MOL0     H98668   6.861  11.268   1.399  0.9270 -0.5313  0.1252
  731MOL0     H98669   8.604  11.063   1.061  1.3117 -2.3349 -0.8135
  731MOL0     H98670   8.787  10.913   1.120  1.4583 -1.5855  1.5113
  731MOL0     H98671   8.972  10.655   1.475  1.2009 -0.4008  0.5763
  731MOL0     H98672   9.139  10.539   1.611 -0.0075 -2.1055 -2.7645
  731MOL0     H98673   9.360  10.401   1.558 -1.5177  1.5493  0.5281
  731MOL0     H98674   9.341  10.450   1.736  0.9131 -1.4503  1.0830
  731MOL0     H98675   9.593  10.381   1.601  0.1933  3.0481 -1.0797
  731MOL0     H98676   9.534  10.322   1.758  0.3921  0.6187  1.0971
  731MOL0     H98677   9.545  10.590   1.834 -0.9831  1.1993 -1.0154
  731MOL0     H98678   9.645  10.599   1.690 -0.1988 -0.8576 -1.8103
  731MOL0     H98679   9.678  10.387   1.898  0.0828  1.6734  2.0111
  731MOL0     H98680   9.793  10.423   1.763 -1.8964 -0.8022 -1.7086
  731MOL0     H98681   9.880  10.717   2.054  0.5068  0.0153  0.5920
  731MOL0     H98682   9.449  10.790   1.464 -0.7188  0.4487 -1.4021
  731MOL0     H98683   9.415  10.984   1.357  0.1149  0.8646 -2.2164
  731MOL0     H98684   9.267  11.003   1.264 -0.7300  3.5931 -0.2352
  731MOL0     H98685   9.286  11.071   1.428 -0.8045  4.0203 -5.2203
  732MOL0     O98686   4.606   0.179   0.158  1.0262 -0.7806  0.5647
  732MOL0     C98687   4.514   0.237   0.106 -0.0306 -0.9246 -0.1423
  732MOL0     O98688   4.401   0.178   0.054 -0.8570 -0.0745  0.4807
  732MOL0     C98689   4.395   0.043   0.063 -0.7327  0.5979 -0.5974
  732MOL0     C98690   4.310  -0.024   0.147  0.1687  0.0885 -0.9448
  732MOL0     C98691   4.277  -0.156   0.132 -0.5822 -0.4952  0.1623
  732MOL0     C98692   4.349  -0.236   0.047 -0.1999  0.6673 -0.1381
  732MOL0     O98693   4.303  -0.367   0.045  0.1533 -0.2519 -0.6724
  732MOL0     C98694   4.385  -0.476  -0.023 -0.2934 -0.8182 -0.5301
  732MOL0     C98695   4.341  -0.613   0.045 -0.1930  0.6073  0.4727
  732MOL0     C98696   4.187  -0.630   0.052  0.1866  0.6664  0.2394
  732MOL0     C98697   4.157  -0.781   0.069 -0.0105 -0.3384  0.7464
  732MOL0     C98698   4.002  -0.819   0.069  0.2918 -0.5187 -0.1629
  732MOL0     C98699   3.937  -0.795  -0.078 -0.2990 -0.6488 -0.1757
  732MOL0     C98700   3.797  -0.852  -0.074 -0.0360 -0.4972 -0.0445
  732MOL0     C98701   3.776  -0.996  -0.043 -0.3151  0.3588 -0.4223
  732MOL0     N98702   3.887  -1.084  -0.093 -0.1572  0.0063  0.1115
  732MOL0     C98703   3.879  -1.134  -0.223 -0.6217 -0.1316  0.2584
  732MOL0     C98704   3.988  -1.208  -0.247 -0.3953 -0.7170 -0.3982
  732MOL0     C98705   4.031  -1.281  -0.375  0.3710 -0.1424  0.0480
  732MOL0     C98706   4.022  -1.185  -0.498 -0.1110  0.1127  0.9362
  732MOL0     C98707   4.141  -1.082  -0.499 -0.1493  0.3902  0.7997
  732MOL0     C98708   4.085  -0.943  -0.489 -0.1149 -0.4383  0.6837
  732MOL0     O98709   4.061  -0.896  -0.620 -0.3053 -0.0245 -0.2049
  732MOL0     C98710   4.058  -0.761  -0.655 -0.0581 -0.3662 -0.2389
  732MOL0     C98711   4.050  -0.746  -0.798  0.9574  0.0674 -0.2311
  732MOL0     C98712   4.035  -0.618  -0.848  0.2090  0.7173 -0.6872
  732MOL0     C98713   4.050  -0.501  -0.769  0.7112 -0.6863 -0.4109
  732MOL0     C98714   4.046  -0.373  -0.838  1.0981 -0.2080 -0.0986
  732MOL0     O98715   3.978  -0.368  -0.958  0.9223 -0.3231 -0.4371
  732MOL0     C98716   3.998  -0.253  -1.038  0.1465  0.2944  0.1778
  732MOL0     C98717   4.125  -0.213  -1.087 -0.4687  0.4955  0.0785
  732MOL0     C98718   4.134  -0.092  -1.162 -0.0774  0.2518 -0.1541
  732MOL0     C98719   4.014  -0.015  -1.180  0.6102 -0.7177 -0.4192
  732MOL0     O98720   4.032   0.106  -1.242  0.1233 -0.2581 -0.5866
  732MOL0     C98721   3.941   0.215  -1.210  0.5315  0.7192 -0.4590
  732MOL0     C98722   3.988   0.341  -1.297  0.8352  1.5423 -0.0887
  732MOL0     C98723   3.953   0.484  -1.250  1.8312  0.1492 -0.4684
  732MOL0     C98724   3.810   0.532  -1.246 -0.1378  0.7161  0.7511
  732MOL0     C98725   3.792   0.682  -1.204  0.8263 -0.1045  0.2606
  732MOL0     C98726   3.817   0.712  -1.057 -0.3075  0.1188 -0.3884
  732MOL0     C98727   3.781   0.854  -1.004 -0.3287 -0.0084 -0.6722
  732MOL0     C98728   3.626   0.862  -0.982 -0.8641  0.8610  0.8326
  732MOL0    Cl98729   3.519   0.853  -1.125  0.3081  0.1467  0.1161
  732MOL0     C98730   3.886  -0.066  -1.139  0.3280  0.5139  0.2858
  732MOL0     C98731   3.881  -0.177  -1.063 -0.0291 -0.4128  0.2959
  732MOL0     O98732   4.118  -0.286  -0.794  0.1026  0.3873 -0.2061
  732MOL0     C98733   4.043  -0.514  -0.628  0.0878  0.0020  0.0896
  732MOL0     C98734   4.059  -0.643  -0.573  0.8729 -0.7061  0.1472
  732MOL0     N98735   4.059  -1.214  -0.125  0.6145 -0.6410 -0.7674
  732MOL0     N98736   3.999  -1.134  -0.041  0.4991  0.2140  0.0994
  732MOL0     C98737   4.456  -0.181  -0.030  1.4632  0.6034 -0.2043
  732MOL0     C98738   4.475  -0.042  -0.022  0.1750  1.2066  0.6886
  732MOL0     C98739   4.539   0.380   0.073  0.2989 -0.4591 -0.6336
  732MOL0     C98740   4.479   0.432  -0.040  0.5129  0.0274  0.4929
  732MOL0     C98741   4.507   0.560  -0.078  0.0559  0.1531  0.5904
  732MOL0     C98742   4.580   0.645   0.004 -0.4751  0.5657  0.0006
  732MOL0     O98743   4.589   0.777  -0.031  0.0736  0.3127 -0.2503
  732MOL0     C98744   4.470   0.863  -0.004 -0.1557  0.5067  1.0843
  732MOL0     C98745   4.487   1.000  -0.051  0.3919 -0.2001 -0.2233
  732MOL0     C98746   4.542   1.009  -0.193  0.1937  0.7779 -0.1436
  732MOL0     C98747   4.448   0.959  -0.314 -0.4902 -1.1323  0.4894
  732MOL0     C98748   4.306   1.001  -0.328 -0.9836 -0.3511 -1.2526
  732MOL0     C98749   4.195   1.046  -0.334 -1.0199  0.6483  0.0722
  732MOL0     C98750   4.636   0.602   0.119 -0.1103  0.4567 -0.2996
  732MOL0     C98751   4.612   0.473   0.164  0.5183  1.3750 -0.2204
  732MOL0     C98752   4.675   0.421   0.292  0.4695  0.7278 -0.9418
  732MOL0     H98753   4.255   0.033   0.221 -1.2570 -2.3094 -0.0660
  732MOL0     H98754   4.209  -0.212   0.195 -0.6364  0.2723  0.8080
  732MOL0     H98755   4.359  -0.478  -0.129 -0.3612 -3.4777 -0.5246
  732MOL0     H98756   4.493  -0.463  -0.020 -0.0097 -2.8875 -0.4021
  732MOL0     H98757   4.392  -0.626   0.140  0.8364  2.8535  0.3070
  732MOL0     H98758   4.374  -0.696  -0.019  0.1173 -1.3264  2.9903
  732MOL0     H98759   4.140  -0.609  -0.044 -0.8603  1.0085  0.8142
  732MOL0     H98760   4.150  -0.578   0.141 -0.4381 -0.1779  0.4834
  732MOL0     H98761   4.213  -0.835  -0.008  1.4039  1.2211  0.6262
  732MOL0     H98762   4.201  -0.818   0.162  3.2231  1.5531  0.1063
  732MOL0     H98763   3.992  -0.924   0.100  3.2595 -0.6766  0.6336
  732MOL0     H98764   3.956  -0.745   0.135  1.3298  0.4449 -0.4821
  732MOL0     H98765   3.938  -0.687  -0.093  0.7354 -0.1076  3.0746
  732MOL0     H98766   3.988  -0.847  -0.159  4.7000  1.2206  1.4446
  732MOL0     H98767   3.740  -0.824  -0.163 -2.1490 -1.3281  0.9967
  732MOL0     H98768   3.753  -0.785   0.001  0.9252  0.8685 -0.6409
  732MOL0     H98769   3.779  -0.986   0.066  1.4431  2.8916 -0.6116
  732MOL0     H98770   3.676  -1.026  -0.077 -0.0232  0.0980 -1.0505
  732MOL0     H98771   3.792  -1.120  -0.287 -0.3609  0.9488  0.1244
  732MOL0     H98772   4.134  -1.316  -0.380  0.7837  1.0135  0.2215
  732MOL0     H98773   3.965  -1.367  -0.388 -0.5800  0.5484  0.2188
  732MOL0     H98774   4.028  -1.247  -0.588  1.3729  1.3101  0.1593
  732MOL0     H98775   3.922  -1.139  -0.503 -0.2947 -0.3876 -1.5306
  732MOL0     H98776   4.222  -1.100  -0.570 -0.1049  2.9384  0.1345
  732MOL0     H98777   4.192  -1.093  -0.403 -0.4613  1.6808  1.1251
  732MOL0     H98778   4.151  -0.875  -0.435 -1.3410  1.3484  0.0168
  732MOL0     H98779   3.989  -0.944  -0.438 -1.3577  0.1655 -1.5060
  732MOL0     H98780   4.046  -0.830  -0.868  2.1271 -0.4461  0.2977
  732MOL0     H98781   4.022  -0.604  -0.955 -0.6828  0.6864 -0.5930
  732MOL0     H98782   4.216  -0.267  -1.062 -1.9946 -2.7446 -0.8268
  732MOL0     H98783   4.223  -0.049  -1.207 -1.5217  0.1951 -3.2935
  732MOL0     H98784   3.839   0.193  -1.245  1.1889 -0.9342 -1.4807
  732MOL0     H98785   3.947   0.241  -1.104  2.1622  3.1961 -1.0765
  732MOL0     H98786   4.098   0.341  -1.296  0.8602  0.3957 -0.4845
  732MOL0     H98787   3.942   0.320  -1.394 -2.3682 -3.4296  2.1061
  732MOL0     H98788   3.988   0.480  -1.147  1.2980  2.3684 -0.1418
  732MOL0     H98789   4.006   0.563  -1.305  1.3179  0.6338 -0.2775
  732MOL0     H98790   3.748   0.453  -1.204 -0.1721 -0.0464 -0.6497
  732MOL0     H98791   3.776   0.522  -1.350  3.1910  0.2614 -0.4161
  732MOL0     H98792   3.686   0.708  -1.213  0.8103  0.4787  1.7837
  732MOL0     H98793   3.862   0.742  -1.264  2.5753 -1.0478  1.2717
  732MOL0     H98794   3.756   0.635  -1.009  0.8895 -1.4754 -1.3193
  732MOL0     H98795   3.918   0.683  -1.027  0.7177  1.8342 -1.9447
  732MOL0     H98796   3.820   0.927  -1.075 -0.7520  1.8179  0.8989
  732MOL0     H98797   3.834   0.861  -0.909  0.5507 -2.4138 -0.9228
  732MOL0     H98798   3.595   0.790  -0.906  0.5226  0.2727  0.8663
  732MOL0     H98799   3.618   0.965  -0.946  3.1182  2.0844 -1.1672
  732MOL0     H98800   3.793  -0.012  -1.158  1.0842  2.0562  0.8128
  732MOL0     H98801   3.783  -0.204  -1.024 -1.3924  0.9754 -1.8560
  732MOL0     H98802   4.028  -0.426  -0.566  1.2635  1.8064 -2.0577
  732MOL0     H98803   4.063  -0.655  -0.465 -1.6069  1.8823  0.6793
  732MOL0     H98804   4.510  -0.237  -0.105  1.2092  0.3271 -0.1802
  732MOL0     H98805   4.537   0.008  -0.096  2.4380  0.5942  2.0745
  732MOL0     H98806   4.414   0.371  -0.103  1.6876  0.0827 -0.8227
  732MOL0     H98807   4.457   0.601  -0.165  2.0418 -0.0580 -0.7094
  732MOL0     H98808   4.447   0.864   0.103 -4.7911  2.5253  0.3159
  732MOL0     H98809   4.379   0.826  -0.052 -0.5308  0.8295  1.5359
  732MOL0     H98810   4.554   1.037   0.027 -0.7905 -0.6907  1.0714
  732MOL0     H98811   4.393   1.054  -0.038  0.1392 -0.9796  1.4943
  732MOL0     H98812   4.641   0.962  -0.194  0.5840  1.5700 -1.2282
  732MOL0     H98813   4.576   1.109  -0.220 -0.7140  0.3557 -3.2230
  732MOL0     H98814   4.494   1.014  -0.397  0.4337  1.6776  2.6844
  732MOL0     H98815   4.463   0.852  -0.333  0.7329 -0.9113  0.1022
  732MOL0     H98816   4.092   1.076  -0.341 -0.6688  1.9938  0.2725
  732MOL0     H98817   4.693   0.679   0.169  1.8727 -1.0013 -0.1934
  732MOL0     H98818   4.605   0.360   0.351 -1.2980 -0.6212 -4.1491
  732MOL0     H98819   4.771   0.373   0.267  1.6301  1.8390  1.1036
  732MOL0     H98820   4.713   0.508   0.345  2.0964 -0.7493  0.4514
  733MOL0     O98821   2.239  10.388  10.125  0.7798  0.4263  0.7997
  733MOL0     C98822   2.196  10.508  10.143  0.5916  0.6143 -0.0591
  733MOL0     O98823   2.167  10.596  10.046  0.5817 -0.5148  0.3546
  733MOL0     C98824   2.182  10.551   9.919  0.1468  0.5218  0.5238
  733MOL0     C98825   2.301  10.553   9.849  0.6369 -0.8282  1.2193
  733MOL0     C98826   2.310  10.488   9.724  0.1004 -0.4504  0.2733
  733MOL0     C98827   2.199  10.411   9.667  0.3107  0.7086 -0.3365
  733MOL0     O98828   2.209  10.351   9.546  0.1926 -0.6363 -0.6974
  733MOL0     C98829   2.268  10.220   9.528  0.2608 -0.1214  0.0772
  733MOL0     C98830   2.203  10.111   9.601  0.5362  0.2627 -0.0205
  733MOL0     C98831   2.083  10.040   9.536  0.1592 -0.5219  0.2178
  733MOL0     C98832   1.961  10.131   9.512 -0.0580  0.5099  0.1351
  733MOL0     C98833   1.858  10.135   9.630  0.1219  0.7574  0.1493
  733MOL0     C98834   1.786   9.999   9.649 -1.5101 -0.0817 -0.9047
  733MOL0     C98835   1.645  10.021   9.719  0.0135 -0.6550 -0.2934
  733MOL0     C98836   1.664  10.085   9.857 -0.1003 -1.2913  0.0582
  733MOL0     N98837   1.539  10.108   9.912  0.0435  0.4178 -0.5607
  733MOL0     C98838   1.487  10.231   9.944  0.3767 -0.4733  0.6586
  733MOL0     C98839   1.363  10.209   9.981 -0.1315  0.5281 -0.9015
  733MOL0     C98840   1.269  10.307  10.042 -0.1896  0.9152 -0.7421
  733MOL0     C98841   1.328  10.368  10.169 -1.0439 -0.3188 -0.2693
  733MOL0     C98842   1.374  10.259  10.258  0.1113 -0.3566  0.1849
  733MOL0     C98843   1.422  10.300  10.396  0.9621  0.4947  0.6533
  733MOL0     O98844   1.437  10.185  10.478  0.1428 -0.4968  0.0319
  733MOL0     C98845   1.360  10.179  10.595 -0.1682 -0.2893  0.8622
  733MOL0     C98846   1.272  10.068  10.617  0.4260  0.1613  0.1955
  733MOL0     C98847   1.194  10.048  10.736  0.1031 -0.6949  0.7129
  733MOL0     C98848   1.208  10.148  10.836  0.1059  0.5173 -0.6904
  733MOL0     C98849   1.128  10.146  10.961 -0.4943  0.7128  0.1460
  733MOL0     O98850   1.121  10.270  11.024  0.6286 -0.4566 -0.7580
  733MOL0     C98851   1.006  10.314  11.080 -0.1775 -0.1620 -0.0647
  733MOL0     C98852   1.017  10.420  11.172  0.3896  0.6240  0.1644
  733MOL0     C98853   0.910  10.502  11.210 -0.2426  0.0854 -0.1441
  733MOL0     C98854   0.786  10.462  11.175 -0.3847 -0.8350  0.6114
  733MOL0     O98855   0.679  10.527  11.235  0.6578  0.0788 -0.7043
  733MOL0     C98856   0.547  10.485  11.200 -0.2873  0.5457 -0.1828
  733MOL0     C98857   0.447  10.579  11.271  0.0963 -0.3747 -0.6869
  733MOL0     C98858   0.441  10.729  11.221  0.7874  0.2496  0.0240
  733MOL0     C98859   0.346  10.797  11.322 -0.0604 -0.7561 -0.4438
  733MOL0     C98860   0.367  10.951  11.281 -0.3323  0.2393 -0.4439
  733MOL0     C98861   0.260  11.038  11.364 -0.3701 -0.5185 -0.2730
  733MOL0     C98862   0.244  11.176  11.311  0.0118 -0.3498  0.7024
  733MOL0     C98863   0.109  11.243  11.371 -1.0001 -0.4677  0.0178
  733MOL0    Cl98864  -0.050  11.183  11.297  0.1334 -0.3507 -0.2894
  733MOL0     C98865   0.767  10.342  11.100 -0.7607  0.4239 -0.5549
  733MOL0     C98866   0.877  10.279  11.049 -0.3541  0.3963 -0.0643
  733MOL0     O98867   1.073  10.043  11.004 -0.1771 -0.1937  0.1004
  733MOL0     C98868   1.296  10.264  10.811 -0.0772  0.8425 -0.6916
  733MOL0     C98869   1.382  10.277  10.698 -0.0521  0.2035 -0.7144
  733MOL0     N98870   1.326  10.077   9.961 -0.1077 -0.6954  0.1378
  733MOL0     N98871   1.428  10.023   9.907 -0.0468  0.7926 -0.3250
  733MOL0     C98872   2.084  10.408   9.746  1.4371 -1.4337 -0.6250
  733MOL0     C98873   2.070  10.485   9.862 -0.5543 -0.2102 -0.3526
  733MOL0     C98874   2.180  10.547  10.286  0.6886 -0.0785 -0.4625
  733MOL0     C98875   2.175  10.445  10.381  1.0091 -0.6463 -0.0119
  733MOL0     C98876   2.166  10.470  10.517  0.0292 -0.1239  0.3568
  733MOL0     C98877   2.152  10.594  10.575  0.1129 -0.4416  0.6262
  733MOL0     O98878   2.152  10.608  10.711 -0.2115  0.1384  0.1236
  733MOL0     C98879   2.118  10.728  10.778 -0.3187 -0.1603 -0.4935
  733MOL0     C98880   2.212  10.780  10.879 -0.3005 -1.2284 -0.0238
  733MOL0     C98881   2.312  10.884  10.836 -0.0321  0.1681  0.2904
  733MOL0     C98882   2.425  10.905  10.937  0.0657 -0.2466 -0.2071
  733MOL0     C98883   2.380  10.984  11.056 -0.2514  0.2541  0.5704
  733MOL0     C98884   2.332  11.048  11.150 -1.1264 -0.3619  0.5634
  733MOL0     C98885   2.149  10.701  10.483 -0.6132 -0.5880  0.3062
  733MOL0     C98886   2.156  10.681  10.339  0.1888 -0.5896 -0.3943
  733MOL0     C98887   2.138  10.802  10.258 -0.2050 -0.2116 -0.9936
  733MOL0     H98888   2.392  10.604   9.880  1.0159 -0.1251 -0.9068
  733MOL0     H98889   2.402  10.503   9.668 -0.3776  0.7618 -0.2234
  733MOL0     H98890   2.264  10.197   9.421  0.0363  2.3545 -0.4981
  733MOL0     H98891   2.371  10.232   9.563 -0.2899  0.8480  1.4567
  733MOL0     H98892   2.174  10.147   9.700  1.8967 -1.7253  1.1640
  733MOL0     H98893   2.279  10.037   9.626 -0.7302 -0.8206  0.7490
  733MOL0     H98894   2.053   9.949   9.589  0.7553 -0.7219  0.2175
  733MOL0     H98895   2.120  10.010   9.438 -2.8254 -0.5961 -1.0133
  733MOL0     H98896   1.989  10.233   9.482 -2.6265  1.1323 -0.3717
  733MOL0     H98897   1.894  10.102   9.431 -3.0105 -0.4258  2.6976
  733MOL0     H98898   1.907  10.182   9.716  1.7063 -0.9968  0.2610
  733MOL0     H98899   1.785  10.209   9.594  0.5599  0.0625 -2.2686
  733MOL0     H98900   1.765   9.961   9.549 -0.9409  2.6804 -2.1798
  733MOL0     H98901   1.845   9.928   9.707 -0.6078  1.0451 -0.3956
  733MOL0     H98902   1.587   9.929   9.735 -3.0485  1.2720  0.5320
  733MOL0     H98903   1.589  10.095   9.662  0.8072  3.0446  3.2752
  733MOL0     H98904   1.710  10.005   9.915  0.9294 -1.4505 -0.9386
  733MOL0     H98905   1.719  10.180   9.857 -1.8432 -0.2107 -1.1095
  733MOL0     H98906   1.542  10.325   9.952 -1.2662  1.2142 -4.4449
  733MOL0     H98907   1.237  10.380   9.967  1.5722 -0.7864 -3.3308
  733MOL0     H98908   1.176  10.258  10.073  0.9403 -0.9650 -0.1158
  733MOL0     H98909   1.410  10.435  10.141 -3.1396  2.5272 -0.1074
  733MOL0     H98910   1.251  10.431  10.215  0.2742  1.9783 -1.0647
  733MOL0     H98911   1.461  10.209  10.214 -1.0317 -1.0777 -1.3812
  733MOL0     H98912   1.296  10.184  10.278 -0.9450  1.4275  3.4262
  733MOL0     H98913   1.346  10.365  10.441 -0.7768  0.4667 -1.9547
  733MOL0     H98914   1.511  10.360  10.378  1.9891 -1.4899 -1.4746
  733MOL0     H98915   1.276   9.986  10.546  0.2295  0.6554 -0.3951
  733MOL0     H98916   1.141   9.954  10.743  0.0819 -0.6393  1.3564
  733MOL0     H98917   1.114  10.456  11.206  0.4517  1.8153 -1.2009
  733MOL0     H98918   0.922  10.575  11.289 -2.6504 -0.8020  1.1511
  733MOL0     H98919   0.527  10.479  11.093 -2.1546 -2.5211  0.2250
  733MOL0     H98920   0.530  10.387  11.245 -0.4023 -0.8078 -2.9913
  733MOL0     H98921   0.350  10.531  11.251 -0.0003 -1.1545  1.3849
  733MOL0     H98922   0.465  10.575  11.378  2.5412 -1.4261 -1.0617
  733MOL0     H98923   0.540  10.776  11.227  1.6494 -1.5715  1.3443
  733MOL0     H98924   0.408  10.744  11.118  1.0920  3.6625  0.3195
  733MOL0     H98925   0.372  10.793  11.429 -0.2579  0.4450 -0.3392
  733MOL0     H98926   0.249  10.749  11.311  0.9124 -2.7977 -0.6056
  733MOL0     H98927   0.359  10.978  11.175 -2.1023  0.6555 -0.2342
  733MOL0     H98928   0.470  10.978  11.307 -0.0979  1.8658 -2.7637
  733MOL0     H98929   0.167  10.982  11.353 -1.6903  0.7053  3.3362
  733MOL0     H98930   0.300  11.041  11.466  2.3339  2.9642 -1.2438
  733MOL0     H98931   0.228  11.176  11.203 -1.5133  1.3211  0.8904
  733MOL0     H98932   0.337  11.230  11.332  1.2067 -1.1075 -2.1366
  733MOL0     H98933   0.106  11.213  11.476  0.4697 -2.2318 -0.3762
  733MOL0     H98934   0.124  11.350  11.358 -0.5984 -0.2924  1.7008
  733MOL0     H98935   0.668  10.299  11.083  0.2415 -1.4122 -2.2136
  733MOL0     H98936   0.859  10.193  10.986  1.8216 -0.0753 -0.1318
  733MOL0     H98937   1.328  10.340  10.881  2.4585  0.2360 -1.1198
  733MOL0     H98938   1.449  10.361  10.688  1.8360 -1.0115  0.9262
  733MOL0     H98939   1.991  10.363   9.712 -1.8817  4.6803 -0.9483
  733MOL0     H98940   1.978  10.459   9.913 -1.4385  0.4936 -1.5537
  733MOL0     H98941   2.176  10.343  10.345 -2.8759  0.3523 -3.7065
  733MOL0     H98942   2.177  10.383  10.581  0.9988 -1.1850 -1.1784
  733MOL0     H98943   2.034  10.692  10.839  0.5425 -0.8157  0.3214
  733MOL0     H98944   2.072  10.806  10.717 -0.4024 -0.6858 -1.1121
  733MOL0     H98945   2.248  10.684  10.917 -1.8973 -2.1442 -0.7048
  733MOL0     H98946   2.149  10.818  10.960  1.2450 -1.4740  1.3474
  733MOL0     H98947   2.267  10.980  10.808 -1.7660 -0.6750  0.0919
  733MOL0     H98948   2.356  10.844  10.744  0.7687  2.9430 -0.6361
  733MOL0     H98949   2.470  10.809  10.962  1.2647  0.1722 -0.6921
  733MOL0     H98950   2.503  10.968  10.894 -1.2460  1.8562  0.2963
  733MOL0     H98951   2.296  11.114  11.226 -1.2752 -0.8785  0.9478
  733MOL0     H98952   2.160  10.801  10.523  1.8316 -1.7873  2.9796
  733MOL0     H98953   2.234  10.840  10.220 -0.2042  1.4124  0.4935
  733MOL0     H98954   2.077  10.785  10.169 -0.1022 -2.7946 -0.6400
  733MOL0     H98955   2.084  10.878  10.314 -0.7542  0.0100 -1.8022
  734MOL0     O98956   2.327   7.838   3.942  1.0530  0.1669  0.5530
  734MOL0     C98957   2.323   7.957   3.956 -0.4476  0.4226 -0.0766
  734MOL0     O98958   2.433   8.041   3.938  0.9466 -0.4120 -0.1485
  734MOL0     C98959   2.539   7.990   3.876  0.7868 -0.0203  0.6204
  734MOL0     C98960   2.631   7.915   3.956  0.0469 -0.8242  0.7354
  734MOL0     C98961   2.755   7.882   3.904  0.9988 -0.6051 -0.3620
  734MOL0     C98962   2.790   7.939   3.780 -0.7537  0.1825  0.2236
  734MOL0     O98963   2.922   7.934   3.740 -0.3394 -0.0055 -0.3458
  734MOL0     C98964   2.977   8.064   3.705 -0.3485  0.3227  0.2929
  734MOL0     C98965   3.125   8.044   3.755 -0.3308 -0.2401 -0.6241
  734MOL0     C98966   3.137   8.071   3.900 -1.1968  0.1146 -0.1563
  734MOL0     C98967   3.286   8.049   3.941  0.3284 -0.4461  0.1755
  734MOL0     C98968   3.314   8.072   4.092 -0.0326 -0.2291 -0.1894
  734MOL0     C98969   3.239   8.189   4.165 -0.1542  1.3156 -0.3743
  734MOL0     C98970   3.311   8.240   4.287  0.0588  0.2446 -0.3202
  734MOL0     C98971   3.274   8.390   4.315 -0.6939 -0.0687  0.4138
  734MOL0     N98972   3.149   8.419   4.371  0.4031  0.5498 -0.6687
  734MOL0     C98973   3.148   8.509   4.470  0.1790  0.1387 -0.0175
  734MOL0     C98974   3.014   8.544   4.473 -0.3558 -0.9031  0.2241
  734MOL0     C98975   2.982   8.672   4.551 -0.7804  0.5416  0.4851
  734MOL0     C98976   2.830   8.688   4.550 -0.4606  0.1032  0.5070
  734MOL0     C98977   2.799   8.829   4.578  0.2238 -0.6944 -0.6525
  734MOL0     C98978   2.840   8.879   4.726 -0.7505 -0.4024 -0.5634
  734MOL0     O98979   2.784   8.795   4.826 -0.1556 -0.1805  0.9111
  734MOL0     C98980   2.866   8.738   4.922  0.7210 -0.0265 -0.0524
  734MOL0     C98981   2.813   8.622   4.990  0.4745 -0.5145  0.1527
  734MOL0     C98982   2.879   8.561   5.087  0.2741  0.6887  0.6974
  734MOL0     C98983   3.013   8.600   5.114 -0.2716 -0.4465 -0.3003
  734MOL0     C98984   3.085   8.535   5.217  0.5955 -0.0824 -1.0668
  734MOL0     O98985   3.052   8.405   5.271 -0.1450 -0.2216  0.5951
  734MOL0     C98986   3.150   8.338   5.329 -0.7103 -0.1798 -0.2499
  734MOL0     C98987   3.209   8.229   5.269  0.1850  0.3504  0.3116
  734MOL0     C98988   3.332   8.176   5.311  0.3536 -0.0883 -0.6782
  734MOL0     C98989   3.388   8.224   5.428 -0.5445  0.5733 -0.4459
  734MOL0     O98990   3.513   8.166   5.460  0.5407 -0.2056  0.5772
  734MOL0     C98991   3.503   8.091   5.580 -0.1076  0.0489 -0.5028
  734MOL0     C98992   3.650   8.045   5.625  0.9973 -0.2045 -0.4939
  734MOL0     C98993   3.663   7.990   5.771  0.1631  0.3450 -0.1061
  734MOL0     C98994   3.574   7.863   5.783 -0.6872 -0.5692  0.5412
  734MOL0     C98995   3.582   7.789   5.920 -0.0772  1.3370 -0.3745
  734MOL0     C98996   3.509   7.658   5.921  0.8117 -0.2013  0.0320
  734MOL0     C98997   3.350   7.670   5.906 -0.3670 -0.1896  0.1957
  734MOL0     C98998   3.295   7.529   5.880 -0.1231 -0.3437  0.3221
  734MOL0    Cl98999   3.194   7.468   6.024 -0.0501 -0.1688  0.4016
  734MOL0     C99000   3.333   8.334   5.490 -0.6301 -0.0013 -0.4015
  734MOL0     C99001   3.216   8.394   5.440  0.4855 -0.3047  0.3094
  734MOL0     O99002   3.183   8.603   5.254  0.6484  0.0285  0.4451
  734MOL0     C99003   3.066   8.713   5.049  0.2232 -0.4277  0.6188
  734MOL0     C99004   2.990   8.788   4.963 -0.8156  0.5748  0.0877
  734MOL0     N99005   2.941   8.467   4.384  0.0444 -0.4440 -0.0734
  734MOL0     N99006   3.027   8.405   4.318  0.2776 -0.2520  0.1413
  734MOL0     C99007   2.692   7.995   3.692 -0.1798 -1.0651 -0.3012
  734MOL0     C99008   2.561   8.023   3.743  0.2181  0.2689  0.5972
  734MOL0     C99009   2.192   8.020   3.989  0.8659 -0.2919 -0.3732
  734MOL0     C99010   2.179   8.163   3.974  0.4478 -0.8460  0.4258
  734MOL0     C99011   2.064   8.234   3.997  0.7681  0.2398  0.5317
  734MOL0     C99012   1.961   8.166   4.053  0.5941  0.8785 -0.5993
  734MOL0     O99013   1.847   8.227   4.115 -0.0573  0.0204  0.6531
  734MOL0     C99014   1.832   8.370   4.142 -0.4329  0.0265 -0.1031
  734MOL0     C99015   1.693   8.406   4.169  0.1019  0.4290 -0.6859
  734MOL0     C99016   1.610   8.408   4.046  0.5439  0.4525 -0.1458
  734MOL0     C99017   1.601   8.548   3.993  0.0769 -0.3917 -0.3586
  734MOL0     C99018   1.554   8.650   4.089 -0.1640 -0.2875  0.1780
  734MOL0     C99019   1.527   8.716   4.182  0.6425 -0.5227 -1.2095
  734MOL0     C99020   1.969   8.022   4.065  0.0682 -0.2016 -0.0276
  734MOL0     C99021   2.084   7.948   4.042  0.9151  0.0449 -0.6123
  734MOL0     C99022   2.084   7.800   4.074  0.0390 -0.4688  0.4700
  734MOL0     H99023   2.610   7.891   4.059  2.4501  1.5053  1.8993
  734MOL0     H99024   2.824   7.824   3.966 -1.1831 -2.0040  0.8889
  734MOL0     H99025   2.951   8.073   3.600 -3.5886  0.8300  1.0452
  734MOL0     H99026   2.928   8.140   3.766 -2.4322 -2.0803  1.8297
  734MOL0     H99027   3.183   8.110   3.690  0.6186 -1.1918 -0.7633
  734MOL0     H99028   3.159   7.942   3.734 -1.4069 -1.0795  1.4646
  734MOL0     H99029   3.080   7.991   3.948 -2.1437 -0.4582 -2.1048
  734MOL0     H99030   3.093   8.161   3.945 -0.1049 -0.8850  3.1863
  734MOL0     H99031   3.321   7.951   3.907  0.2451  0.2680 -2.0602
  734MOL0     H99032   3.343   8.123   3.885 -0.1568 -1.7131 -2.1114
  734MOL0     H99033   3.283   7.982   4.145 -0.9583  1.1623  1.7949
  734MOL0     H99034   3.423   8.066   4.097  0.0750 -1.0767 -2.3800
  734MOL0     H99035   3.225   8.265   4.088 -2.1117  0.0487 -1.3542
  734MOL0     H99036   3.141   8.149   4.195 -0.6147  2.8280  0.2278
  734MOL0     H99037   3.418   8.237   4.268  1.1347 -2.1697  4.4925
  734MOL0     H99038   3.304   8.170   4.371 -1.4799 -0.9528 -1.3796
  734MOL0     H99039   3.348   8.433   4.383 -1.8662 -1.3084  2.5619
  734MOL0     H99040   3.277   8.443   4.219 -0.5977  1.0866  1.0445
  734MOL0     H99041   3.230   8.560   4.519 -0.0641  0.4223  0.0977
  734MOL0     H99042   3.007   8.648   4.655  1.9220 -1.2963 -0.4789
  734MOL0     H99043   3.047   8.753   4.515  1.5585 -0.8824  1.2528
  734MOL0     H99044   2.783   8.664   4.454 -0.6483 -2.1790  1.0957
  734MOL0     H99045   2.790   8.623   4.628  2.8754  2.0488  4.1763
  734MOL0     H99046   2.691   8.842   4.580  0.2999  2.2228  5.0140
  734MOL0     H99047   2.840   8.893   4.498  1.0418  1.2300  1.2123
  734MOL0     H99048   2.809   8.982   4.744  2.0627  0.3115  0.7588
  734MOL0     H99049   2.949   8.882   4.731 -0.7749  1.2594 -0.5671
  734MOL0     H99050   2.708   8.605   4.973 -0.1827  0.8694  2.3583
  734MOL0     H99051   2.842   8.476   5.143  0.1953 -1.0006 -1.7907
  734MOL0     H99052   3.167   8.191   5.176  2.6445 -1.6922 -0.0756
  734MOL0     H99053   3.374   8.096   5.251 -0.7986 -2.1428  1.0854
  734MOL0     H99054   3.457   8.142   5.666  0.2218 -3.2514  1.8369
  734MOL0     H99055   3.441   8.002   5.564 -0.5440 -0.5820  3.5329
  734MOL0     H99056   3.705   7.988   5.550  2.8805 -0.0637  0.7113
  734MOL0     H99057   3.701   8.141   5.633 -0.5506  0.8180 -2.0810
  734MOL0     H99058   3.767   7.978   5.803  0.1034  0.6225  0.1841
  734MOL0     H99059   3.622   8.062   5.841  1.4511  0.5705  0.4349
  734MOL0     H99060   3.609   7.795   5.705  3.5771  4.8287 -2.9718
  734MOL0     H99061   3.473   7.899   5.763 -0.0945  0.1791 -1.2753
  734MOL0     H99062   3.535   7.853   5.995  1.0667  1.7473  0.0037
  734MOL0     H99063   3.688   7.787   5.948  1.0503  1.1104 -4.0944
  734MOL0     H99064   3.561   7.587   5.856 -1.1036  0.2157 -2.0791
  734MOL0     H99065   3.529   7.622   6.022  0.5280  0.8554  0.4758
  734MOL0     H99066   3.331   7.728   5.815 -0.8803 -2.8231 -1.4799
  734MOL0     H99067   3.302   7.720   5.991  0.2586 -0.4528  0.7081
  734MOL0     H99068   3.227   7.537   5.794  1.7379  2.0984 -1.0437
  734MOL0     H99069   3.379   7.464   5.854  1.1868  1.7495 -0.9984
  734MOL0     H99070   3.396   8.379   5.566 -1.8959 -0.2423  0.8199
  734MOL0     H99071   3.183   8.486   5.487  2.3551 -0.2395  1.6058
  734MOL0     H99072   3.164   8.755   5.068  0.5017  0.8323 -2.7956
  734MOL0     H99073   3.035   8.880   4.928 -0.1190  0.8075  1.5325
  734MOL0     H99074   2.709   8.033   3.592 -0.8658  2.9224  0.9386
  734MOL0     H99075   2.482   8.066   3.682 -1.8527 -2.5653  1.0621
  734MOL0     H99076   2.261   8.218   3.928 -0.6447  0.7299  0.3024
  734MOL0     H99077   2.056   8.342   3.992 -0.9898  0.1375  0.7915
  734MOL0     H99078   1.879   8.429   4.063  0.1760 -2.6094 -1.8805
  734MOL0     H99079   1.891   8.390   4.232 -0.0375 -0.1886 -0.3107
  734MOL0     H99080   1.689   8.504   4.218  3.1309  1.7331 -2.7594
  734MOL0     H99081   1.645   8.325   4.225  2.3632 -1.5112 -1.3966
  734MOL0     H99082   1.508   8.381   4.075 -0.1946  3.4101  0.3710
  734MOL0     H99083   1.630   8.329   3.974  1.9311 -1.8204  2.5101
  734MOL0     H99084   1.698   8.577   3.953  1.3415 -0.2486  2.5998
  734MOL0     H99085   1.530   8.556   3.910  1.7569  1.7932 -1.7132
  734MOL0     H99086   1.511   8.774   4.271 -1.1564 -1.5351 -0.8206
  734MOL0     H99087   1.883   7.976   4.112 -2.2719  1.3503 -2.4549
  734MOL0     H99088   2.079   7.740   3.983 -0.0456 -0.7830  0.6760
  734MOL0     H99089   2.164   7.767   4.142  0.4505  2.2233  1.4155
  734MOL0     H99090   1.998   7.775   4.137  0.5668  3.7483  3.2464
  735MOL0     O99091   5.316   2.800   3.062  0.1625 -0.9323  0.2076
  735MOL0     C99092   5.408   2.786   2.982 -0.7993 -0.1724  0.0028
  735MOL0     O99093   5.534   2.790   3.023 -0.5846 -0.4466 -0.2970
  735MOL0     C99094   5.568   2.813   3.159  0.2830  0.5972 -0.8457
  735MOL0     C99095   5.575   2.948   3.217 -0.1986 -0.1714 -0.1438
  735MOL0     C99096   5.610   2.966   3.350  0.4070 -0.0299  0.5451
  735MOL0     C99097   5.639   2.857   3.431 -0.1537  0.1358  0.2210
  735MOL0     O99098   5.679   2.885   3.561 -0.1397  0.4434  0.1831
  735MOL0     C99099   5.787   2.806   3.612 -0.0249  1.0893 -0.0747
  735MOL0     C99100   5.861   2.851   3.737  0.2947 -0.5952 -0.4697
  735MOL0     C99101   5.995   2.779   3.758 -1.0306 -0.6671 -0.1634
  735MOL0     C99102   6.076   2.841   3.871  0.1003  1.3666  0.0734
  735MOL0     C99103   6.187   2.744   3.913  0.2994 -0.3908 -0.9005
  735MOL0     C99104   6.196   2.709   4.067 -0.0092  0.3074 -0.2912
  735MOL0     C99105   6.290   2.812   4.135  0.2115  0.6967  0.1456
  735MOL0     C99106   6.292   2.782   4.285 -0.4114 -0.1066  0.1282
  735MOL0     N99107   6.404   2.860   4.325  1.0617  0.4786  0.2847
  735MOL0     C99108   6.534   2.819   4.321  0.2773  0.1437  0.6533
  735MOL0     C99109   6.605   2.922   4.360 -0.1154 -0.6285  0.6222
  735MOL0     C99110   6.759   2.926   4.373  0.6024  0.9636  0.8984
  735MOL0     C99111   6.828   2.909   4.239  0.3647 -0.5552  0.1325
  735MOL0     C99112   6.824   3.029   4.135 -0.6356 -0.0958  0.1287
  735MOL0     C99113   6.880   3.169   4.189 -0.3583 -0.5757 -0.2493
  735MOL0     O99114   7.014   3.150   4.234 -0.0834  0.1517  0.0711
  735MOL0     C99115   7.067   3.273   4.264  0.1768  1.0178 -0.9807
  735MOL0     C99116   7.212   3.265   4.272 -0.0286 -0.5208  0.3506
  735MOL0     C99117   7.278   3.382   4.314  0.3783  0.5840 -0.2546
  735MOL0     C99118   7.214   3.502   4.335  0.2211 -1.1473  0.0614
  735MOL0     C99119   7.295   3.622   4.371  0.1669  0.2586 -0.4221
  735MOL0     O99120   7.233   3.744   4.381 -0.2427  0.5962 -0.0454
  735MOL0     C99121   7.287   3.854   4.441  0.7497 -0.6527  0.0453
  735MOL0     C99122   7.224   3.970   4.400  0.2816  0.1664 -0.2209
  735MOL0     C99123   7.263   4.098   4.446  0.3436  0.0279 -0.2678
  735MOL0     C99124   7.368   4.109   4.532  0.0181  0.6244 -1.5829
  735MOL0     O99125   7.419   4.222   4.577  0.1182 -1.0012 -0.3347
  735MOL0     C99126   7.384   4.338   4.507 -0.3578 -0.8712 -0.6311
  735MOL0     C99127   7.473   4.452   4.573  0.2149 -1.0430  0.0694
  735MOL0     C99128   7.518   4.555   4.475  0.2118  0.1208  0.3203
  735MOL0     C99129   7.636   4.510   4.384  0.1552 -0.4693 -0.6285
  735MOL0     C99130   7.662   4.613   4.277 -1.3385  0.1801 -0.2995
  735MOL0     C99131   7.788   4.579   4.194  0.0755  0.3988  1.3799
  735MOL0     C99132   7.922   4.562   4.265 -0.0402  0.0181  0.3475
  735MOL0     C99133   8.038   4.601   4.170 -0.5559 -0.4559 -0.7824
  735MOL0    Cl99134   8.083   4.468   4.069  0.7260  0.1166 -0.0221
  735MOL0     C99135   7.412   3.992   4.592 -0.7329  0.9538 -0.2937
  735MOL0     C99136   7.385   3.863   4.536 -0.2168 -0.8031 -0.3086
  735MOL0     O99137   7.411   3.603   4.406 -0.3107  0.2304  0.1646
  735MOL0     C99138   7.072   3.512   4.320 -0.1332  0.2299  0.6003
  735MOL0     C99139   7.001   3.391   4.289  1.0412 -0.0247  0.4062
  735MOL0     N99140   6.527   3.034   4.379 -0.3587 -1.0251  0.3020
  735MOL0     N99141   6.404   2.992   4.348 -0.4928 -0.0054  0.3363
  735MOL0     C99142   5.652   2.730   3.373 -0.7112 -0.6298 -0.3778
  735MOL0     C99143   5.615   2.714   3.239  0.2415  0.0134 -0.8500
  735MOL0     C99144   5.376   2.775   2.842  0.4398  1.1204 -0.1901
  735MOL0     C99145   5.471   2.826   2.748  0.2113  0.5781  0.4169
  735MOL0     C99146   5.464   2.797   2.621  0.6202  1.4282 -0.0474
  735MOL0     C99147   5.361   2.722   2.567 -0.0197  0.2355  0.2613
  735MOL0     O99148   5.368   2.692   2.432 -0.2742  0.3971  1.1381
  735MOL0     C99149   5.307   2.573   2.384 -0.3511 -0.1996  1.3519
  735MOL0     C99150   5.387   2.528   2.261 -0.3902  0.8199  0.0181
  735MOL0     C99151   5.368   2.379   2.249 -0.3532 -0.7894  0.3753
  735MOL0     C99152   5.436   2.315   2.127  0.2818  0.5677  0.8260
  735MOL0     C99153   5.364   2.190   2.094  0.2696 -0.2236  0.4488
  735MOL0     C99154   5.312   2.093   2.062 -0.7195  0.3156  0.5164
  735MOL0     C99155   5.260   2.685   2.655  0.5868 -0.4735  0.2683
  735MOL0     C99156   5.265   2.702   2.790  0.1803  0.4535  0.3442
  735MOL0     C99157   5.156   2.644   2.881 -0.6595 -0.1833  0.0805
  735MOL0     H99158   5.569   3.039   3.158 -0.1540  0.0656  0.2138
  735MOL0     H99159   5.610   3.065   3.395  1.1596  0.2398 -0.0095
  735MOL0     H99160   5.745   2.708   3.638 -0.8997  1.8695  1.5678
  735MOL0     H99161   5.865   2.792   3.536  0.0804  0.7573  0.0926
  735MOL0     H99162   5.795   2.849   3.824 -0.8854  2.8891 -1.1195
  735MOL0     H99163   5.888   2.956   3.727 -0.5462 -0.3873 -0.6011
  735MOL0     H99164   6.064   2.789   3.674 -1.9648  0.2672 -0.8333
  735MOL0     H99165   5.970   2.674   3.780 -0.9088 -0.0790  3.5450
  735MOL0     H99166   6.115   2.935   3.832  1.3777  1.0623  0.5787
  735MOL0     H99167   6.004   2.851   3.953 -0.2036 -0.4856  0.0866
  735MOL0     H99168   6.186   2.655   3.849  2.8590  0.6008 -2.4858
  735MOL0     H99169   6.283   2.785   3.880  0.8476 -1.3999 -0.6334
  735MOL0     H99170   6.098   2.699   4.115 -0.9205  0.7386 -1.9821
  735MOL0     H99171   6.244   2.611   4.074 -2.7424 -1.1384 -0.5743
  735MOL0     H99172   6.239   2.907   4.115 -0.2582  0.2447 -0.9004
  735MOL0     H99173   6.385   2.814   4.080  0.9050 -1.1437  1.1937
  735MOL0     H99174   6.205   2.820   4.339 -0.5610 -0.7136  0.3223
  735MOL0     H99175   6.300   2.673   4.297 -0.6403 -0.3786 -1.8026
  735MOL0     H99176   6.570   2.722   4.289 -0.4835  0.1118 -0.1592
  735MOL0     H99177   6.780   3.022   4.420 -1.5512  1.7289  0.4498
  735MOL0     H99178   6.789   2.835   4.427  0.5615  0.1632 -0.3790
  735MOL0     H99179   6.933   2.891   4.263  0.7202  1.6010  0.4294
  735MOL0     H99180   6.789   2.816   4.197 -1.5934  0.6348 -0.8305
  735MOL0     H99181   6.721   3.043   4.100 -0.5932  2.0284  0.7155
  735MOL0     H99182   6.892   3.003   4.054  0.5911  1.8605  0.4583
  735MOL0     H99183   6.831   3.200   4.281  2.9994 -2.9750  2.6081
  735MOL0     H99184   6.875   3.243   4.108 -2.2850 -0.3476  0.0462
  735MOL0     H99185   7.263   3.173   4.245 -0.1567 -0.4661 -0.0755
  735MOL0     H99186   7.385   3.369   4.324  0.3801 -0.3886 -1.2882
  735MOL0     H99187   7.151   3.969   4.319  0.1848  1.4095 -0.1621
  735MOL0     H99188   7.217   4.191   4.415  1.8695  0.8204 -0.2378
  735MOL0     H99189   7.423   4.327   4.405  0.9560  1.3046 -0.4380
  735MOL0     H99190   7.278   4.358   4.525  0.2360  0.4993  1.7535
  735MOL0     H99191   7.407   4.499   4.647  1.4084  0.9702 -0.0584
  735MOL0     H99192   7.569   4.423   4.616  0.5087  0.5628  0.5737
  735MOL0     H99193   7.427   4.579   4.419 -0.0478 -0.2475  0.5807
  735MOL0     H99194   7.549   4.643   4.532 -1.3223  0.3587  0.8504
  735MOL0     H99195   7.613   4.407   4.354 -3.2172 -1.2826  3.7725
  735MOL0     H99196   7.726   4.504   4.445 -0.6335 -0.0500  0.6068
  735MOL0     H99197   7.672   4.710   4.328 -0.3871  0.8936 -1.7613
  735MOL0     H99198   7.576   4.625   4.211 -1.2432  3.0687 -0.0363
  735MOL0     H99199   7.773   4.487   4.136 -1.1084  2.0880 -1.1976
  735MOL0     H99200   7.781   4.669   4.131 -1.8161 -0.3934  0.3604
  735MOL0     H99201   7.922   4.457   4.294  0.9098  0.1767  0.9729
  735MOL0     H99202   7.919   4.621   4.358  0.4221  1.5791 -0.5843
  735MOL0     H99203   8.016   4.685   4.103  1.1589 -0.6775 -1.6769
  735MOL0     H99204   8.125   4.627   4.231  2.0151 -0.9291 -3.9711
  735MOL0     H99205   7.460   4.002   4.689 -1.1974  2.5127 -0.1902
  735MOL0     H99206   7.419   3.768   4.577 -1.4374 -1.7281 -1.3260
  735MOL0     H99207   7.028   3.609   4.339  1.4543  1.4086 -1.3186
  735MOL0     H99208   6.893   3.401   4.287  1.1282  1.2593  1.0932
  735MOL0     H99209   5.676   2.646   3.436  1.2298  0.2627  0.1461
  735MOL0     H99210   5.629   2.615   3.196 -0.3473  0.1409 -1.3514
  735MOL0     H99211   5.552   2.888   2.787  0.6879 -0.3848  1.0153
  735MOL0     H99212   5.539   2.836   2.553  2.7869 -0.1869  1.2789
  735MOL0     H99213   5.204   2.602   2.359 -1.2125 -4.5383 -1.0974
  735MOL0     H99214   5.294   2.494   2.458  2.9173  1.5574  4.1168
  735MOL0     H99215   5.492   2.552   2.279 -0.3642  0.7539 -0.0443
  735MOL0     H99216   5.352   2.584   2.173 -0.2796 -0.3761 -0.8064
  735MOL0     H99217   5.263   2.371   2.218 -0.2130  0.8881 -0.6869
  735MOL0     H99218   5.403   2.334   2.342 -1.7455 -1.9977  0.3505
  735MOL0     H99219   5.425   2.373   2.035 -3.1727  0.7969  1.2585
  735MOL0     H99220   5.540   2.288   2.147  0.6414  1.2494 -0.0247
  735MOL0     H99221   5.275   1.996   2.036  1.2345 -0.0202 -1.3482
  735MOL0     H99222   5.172   2.637   2.613 -0.2049  2.7281 -2.2105
  735MOL0     H99223   5.092   2.582   2.817  0.5783  0.0726 -1.4800
  735MOL0     H99224   5.200   2.575   2.953  1.5087  0.9902 -0.0320
  735MOL0     H99225   5.089   2.709   2.937 -0.2825  1.2793 -1.0889
  736MOL0     O99226   4.164   2.620   1.601  0.3477 -0.3474 -0.2475
  736MOL0     C99227   4.166   2.738   1.647 -0.1876  1.1271 -0.3016
  736MOL0     O99228   4.233   2.840   1.595  0.4506  0.3213  0.2100
  736MOL0     C99229   4.326   2.813   1.492  1.0684  0.7102 -0.2511
  736MOL0     C99230   4.293   2.856   1.362  0.3918 -0.2166 -0.5281
  736MOL0     C99231   4.377   2.826   1.252 -0.3826  0.1309 -0.1057
  736MOL0     C99232   4.498   2.754   1.267 -1.0024 -0.6707  1.0673
  736MOL0     O99233   4.593   2.731   1.165 -0.1949  0.1978 -0.4977
  736MOL0     C99234   4.580   2.797   1.032 -0.9664  0.0904 -0.0424
  736MOL0     C99235   4.641   2.939   1.031 -0.5827  0.2144  0.0967
  736MOL0     C99236   4.795   2.940   1.037  0.7625  0.0645 -0.6646
  736MOL0     C99237   4.848   3.070   1.106  0.8668  0.6989 -0.7916
  736MOL0     C99238   5.006   3.081   1.100 -0.4836  0.0409 -0.2862
  736MOL0     C99239   5.076   3.054   0.964  0.5882  0.3230  1.0477
  736MOL0     C99240   5.225   3.068   0.977  0.6626 -0.2089 -0.4352
  736MOL0     C99241   5.295   3.064   0.852 -0.2363  0.3249  1.4830
  736MOL0     N99242   5.300   3.184   0.765  0.0258 -0.1839 -0.7255
  736MOL0     C99243   5.321   3.312   0.822  0.3209 -0.1057  0.0903
  736MOL0     C99244   5.317   3.394   0.715  0.1512  0.4569 -0.7796
  736MOL0     C99245   5.350   3.540   0.713 -1.1669 -0.1275 -0.5850
  736MOL0     C99246   5.494   3.588   0.694 -0.0463  1.2581  0.2428
  736MOL0     C99247   5.561   3.508   0.580  0.6693  0.0756 -0.9875
  736MOL0     C99248   5.491   3.536   0.449 -0.8840 -1.3628 -0.2283
  736MOL0     O99249   5.581   3.587   0.355  0.3485 -0.1511 -0.4255
  736MOL0     C99250   5.518   3.649   0.248 -0.5407 -0.6001  0.5130
  736MOL0     C99251   5.504   3.791   0.264  0.5449  0.5387 -0.5274
  736MOL0     C99252   5.437   3.867   0.174  0.9677  0.1122  0.1295
  736MOL0     C99253   5.372   3.803   0.065  0.7485 -0.1919 -0.0998
  736MOL0     C99254   5.285   3.876  -0.025 -0.1613  0.1339  0.4629
  736MOL0     O99255   5.275   4.013  -0.014  0.4900 -0.4130  0.8492
  736MOL0     C99256   5.175   4.067  -0.103 -0.0700 -0.0432 -0.2631
  736MOL0     C99257   5.058   4.113  -0.057  0.9892  0.9340  0.3919
  736MOL0     C99258   4.973   4.186  -0.144  0.1976 -0.3922 -0.0848
  736MOL0     C99259   5.004   4.212  -0.281 -0.2933  0.4221 -0.2481
  736MOL0     O99260   4.926   4.278  -0.377 -0.4728 -0.1054 -0.4436
  736MOL0     C99261   4.802   4.218  -0.392  0.5445  0.0343  0.4230
  736MOL0     C99262   4.746   4.274  -0.520  0.7782  0.1472  1.0045
  736MOL0     C99263   4.600   4.234  -0.534 -0.1429 -0.4935 -0.3136
  736MOL0     C99264   4.513   4.327  -0.451  0.9377 -0.2217 -0.3512
  736MOL0     C99265   4.370   4.332  -0.510 -0.2144  0.7977  0.1379
  736MOL0     C99266   4.269   4.413  -0.426 -0.1415 -0.0196  0.6986
  736MOL0     C99267   4.302   4.560  -0.424 -1.0718 -0.0450  0.0752
  736MOL0     C99268   4.173   4.651  -0.389 -0.1067 -0.9425 -0.2430
  736MOL0    Cl99269   4.120   4.721  -0.544 -0.0095  0.6683 -0.3549
  736MOL0     C99270   5.124   4.153  -0.325  0.0512 -0.4083 -0.7991
  736MOL0     C99271   5.209   4.090  -0.234  0.2878 -0.3178  0.2388
  736MOL0     O99272   5.220   3.804  -0.096 -0.0798 -0.3550 -0.6338
  736MOL0     C99273   5.381   3.666   0.048  0.4926 -0.0005  0.2550
  736MOL0     C99274   5.455   3.590   0.139 -0.2386  0.0105  1.2946
  736MOL0     N99275   5.292   3.324   0.603 -0.4189  0.0137  0.0249
  736MOL0     N99276   5.291   3.203   0.630  0.0139  0.2443 -1.0562
  736MOL0     C99277   4.522   2.702   1.391  0.1381 -0.0853 -0.4366
  736MOL0     C99278   4.436   2.727   1.501 -0.6428  0.0898  0.3976
  736MOL0     C99279   4.069   2.777   1.755  0.1266  0.0731  0.2450
  736MOL0     C99280   4.046   2.911   1.786  0.1522 -0.5727 -0.0921
  736MOL0     C99281   3.946   2.956   1.869 -0.5191  0.5338 -0.2388
  736MOL0     C99282   3.862   2.867   1.937 -0.7552  0.9853  0.5711
  736MOL0     O99283   3.749   2.889   2.005  0.5812 -0.0618 -0.1791
  736MOL0     C99284   3.634   2.935   1.928 -0.3986  0.7281  0.1027
  736MOL0     C99285   3.527   3.004   2.015 -0.4842 -0.2828 -0.2507
  736MOL0     C99286   3.415   3.066   1.924 -0.3101 -0.0283  0.6042
  736MOL0     C99287   3.374   3.194   1.993 -0.1085 -0.1272  1.5883
  736MOL0     C99288   3.258   3.264   1.939 -0.3193 -0.5725  1.4738
  736MOL0     C99289   3.154   3.320   1.914  0.0404  0.0645 -0.2671
  736MOL0     C99290   3.880   2.728   1.911 -0.4625  0.3325 -0.1766
  736MOL0     C99291   3.991   2.679   1.832 -0.4129  0.2361  0.5988
  736MOL0     C99292   4.026   2.533   1.852 -0.6778 -0.7202 -0.2276
  736MOL0     H99293   4.208   2.924   1.361 -2.2157 -2.6776  5.2836
  736MOL0     H99294   4.342   2.857   1.154 -0.2103  0.5405 -0.0386
  736MOL0     H99295   4.633   2.740   0.954 -1.4094 -2.3584  1.3453
  736MOL0     H99296   4.476   2.810   1.002 -1.0316 -1.4981 -0.6289
  736MOL0     H99297   4.607   2.982   1.126  1.8711 -2.6525  2.5118
  736MOL0     H99298   4.602   2.997   0.947 -0.5607  0.8863  0.5431
  736MOL0     H99299   4.838   2.928   0.937  1.8342 -1.2895 -0.0790
  736MOL0     H99300   4.823   2.851   1.095 -2.9137 -3.1182 -3.2207
  736MOL0     H99301   4.808   3.158   1.055  1.6338  0.4611 -1.8258
  736MOL0     H99302   4.832   3.079   1.214  3.8675 -1.4442 -0.0410
  736MOL0     H99303   5.027   3.186   1.125  3.9956 -1.3128  2.7452
  736MOL0     H99304   5.051   3.024   1.180  0.5545  1.0029 -0.1599
  736MOL0     H99305   5.060   2.958   0.913 -1.5351  2.5961 -3.1123
  736MOL0     H99306   5.033   3.124   0.892 -0.9636 -2.0037 -0.4495
  736MOL0     H99307   5.259   2.979   1.032  0.4247  0.2596  0.4853
  736MOL0     H99308   5.257   3.153   1.037  0.4879 -0.6233  0.2495
  736MOL0     H99309   5.401   3.049   0.875 -0.4071  0.3017  2.2876
  736MOL0     H99310   5.265   2.977   0.792  1.2381 -1.7115  3.5594
  736MOL0     H99311   5.356   3.325   0.924  1.8841  0.1499 -0.4546
  736MOL0     H99312   5.290   3.586   0.633 -1.6930  3.2397  1.5280
  736MOL0     H99313   5.307   3.595   0.797 -4.0153  1.5713 -2.9389
  736MOL0     H99314   5.513   3.690   0.657 -0.0234  1.8217  1.7572
  736MOL0     H99315   5.557   3.576   0.782  1.6418  0.5914 -0.9884
  736MOL0     H99316   5.577   3.401   0.590 -0.1039 -0.3108 -3.1731
  736MOL0     H99317   5.662   3.548   0.568  1.1288 -0.3504  1.1658
  736MOL0     H99318   5.414   3.613   0.463 -0.4047 -0.5671 -1.7746
  736MOL0     H99319   5.452   3.439   0.416 -0.2308 -1.6594 -0.1505
  736MOL0     H99320   5.511   3.830   0.365 -3.7985  2.3620 -0.7093
  736MOL0     H99321   5.417   3.974   0.174  0.0140  0.0523 -3.4563
  736MOL0     H99322   5.043   4.098   0.050 -2.2361  4.4780  0.6322
  736MOL0     H99323   4.879   4.221  -0.103  0.1804 -1.1843  0.5733
  736MOL0     H99324   4.802   4.108  -0.395 -2.8845 -0.0390 -0.8079
  736MOL0     H99325   4.735   4.245  -0.311 -0.1090  0.6152 -0.2953
  736MOL0     H99326   4.756   4.383  -0.524  2.5212 -0.0090 -0.9463
  736MOL0     H99327   4.800   4.243  -0.611  1.0999  2.2180  0.4478
  736MOL0     H99328   4.575   4.251  -0.640 -0.7984 -1.7309 -0.3739
  736MOL0     H99329   4.576   4.135  -0.495 -0.3326 -0.5848 -0.6524
  736MOL0     H99330   4.544   4.432  -0.449 -0.9908  0.4048  2.0064
  736MOL0     H99331   4.518   4.288  -0.348 -2.9695  0.0783  0.1118
  736MOL0     H99332   4.328   4.232  -0.523  1.9671  0.1795 -2.9960
  736MOL0     H99333   4.383   4.364  -0.613  1.2949 -3.0330 -1.0396
  736MOL0     H99334   4.174   4.389  -0.473  0.0076 -2.9714  1.6658
  736MOL0     H99335   4.265   4.371  -0.325 -0.7974  0.1533  0.7467
  736MOL0     H99336   4.321   4.587  -0.529  2.4991 -2.2084  0.0382
  736MOL0     H99337   4.394   4.575  -0.368  0.9051 -0.6049 -2.7961
  736MOL0     H99338   4.097   4.589  -0.339  0.5584 -0.1430  1.8864
  736MOL0     H99339   4.192   4.731  -0.316  1.1517 -1.7921  0.3935
  736MOL0     H99340   5.157   4.186  -0.423 -3.2034  1.2453 -1.4739
  736MOL0     H99341   5.311   4.065  -0.261 -0.1506 -2.4153  0.2839
  736MOL0     H99342   5.336   3.608  -0.032  1.6921 -0.9109  0.2220
  736MOL0     H99343   5.464   3.486   0.108  0.5564  0.2383  0.7327
  736MOL0     H99344   4.614   2.646   1.399  1.6455  2.3007 -0.1170
  736MOL0     H99345   4.461   2.691   1.600 -0.9610 -0.3692  0.3123
  736MOL0     H99346   4.105   2.984   1.732  0.1683  0.8126  1.7122
  736MOL0     H99347   3.932   3.057   1.908  1.1052  0.5951  0.2434
  736MOL0     H99348   3.573   2.862   1.874 -1.4058  1.3345  0.3891
  736MOL0     H99349   3.670   3.012   1.860  1.4020  1.6299  1.9806
  736MOL0     H99350   3.586   3.086   2.058 -0.9269 -0.0092 -0.1599
  736MOL0     H99351   3.491   2.934   2.091 -0.7768 -1.0643 -1.0869
  736MOL0     H99352   3.332   2.995   1.916  0.5850 -0.9447 -1.0483
  736MOL0     H99353   3.458   3.083   1.825 -1.1442 -1.9012 -0.1141
  736MOL0     H99354   3.361   3.176   2.100 -2.0818  1.2325  1.6305
  736MOL0     H99355   3.451   3.272   1.990  0.6844 -0.8841 -0.9827
  736MOL0     H99356   3.056   3.359   1.895 -0.5886 -0.1175  2.2434
  736MOL0     H99357   3.820   2.659   1.969 -1.7481  1.5849  0.0402
  736MOL0     H99358   4.047   2.493   1.951  1.4292  1.2216  0.2011
  736MOL0     H99359   3.962   2.469   1.791  1.1257 -2.1029 -0.7679
  736MOL0     H99360   4.123   2.507   1.810  0.6899 -0.6731  2.6434
  737MOL0     O99361   1.933   5.971   4.236 -0.3673  0.5447 -0.0954
  737MOL0     C99362   2.017   5.938   4.318  0.2681  0.3092  0.1135
  737MOL0     O99363   1.985   5.917   4.451  0.3104  0.2952  0.1756
  737MOL0     C99364   1.851   5.914   4.481 -1.0705  0.5977  1.7372
  737MOL0     C99365   1.783   5.794   4.488 -0.0504  0.1285 -1.1122
  737MOL0     C99366   1.650   5.792   4.537 -0.9548  0.4642 -0.5908
  737MOL0     C99367   1.586   5.913   4.565  0.2695  0.3782  0.2359
  737MOL0     O99368   1.462   5.896   4.630  0.1818  0.1450  0.4824
  737MOL0     C99369   1.473   5.907   4.769  0.0228  0.7938  0.0823
  737MOL0     C99370   1.354   5.837   4.833  0.4178 -0.2296 -0.0092
  737MOL0     C99371   1.367   5.682   4.825 -1.2743 -0.3960  0.4776
  737MOL0     C99372   1.453   5.621   4.940  0.5487  1.1104  0.6372
  737MOL0     C99373   1.459   5.467   4.921  0.1729  0.1787  1.3528
  737MOL0     C99374   1.523   5.400   5.034  0.1605 -0.1294  0.1224
  737MOL0     C99375   1.433   5.383   5.161 -0.3471 -0.0024  0.2906
  737MOL0     C99376   1.516   5.309   5.275 -0.5341 -0.1042  0.4640
  737MOL0     N99377   1.623   5.392   5.346  0.0201 -0.1317  0.2014
  737MOL0     C99378   1.595   5.516   5.400  0.4516 -0.5148  0.7255
  737MOL0     C99379   1.711   5.574   5.417 -0.0795  0.5295 -0.3661
  737MOL0     C99380   1.745   5.714   5.464  1.0231 -0.2878 -0.5941
  737MOL0     C99381   1.682   5.815   5.361 -0.0548  0.2561 -1.0862
  737MOL0     C99382   1.766   5.828   5.243  0.1625 -0.6036  0.1736
  737MOL0     C99383   1.684   5.782   5.122  0.0487 -0.2608  0.5522
  737MOL0     O99384   1.764   5.795   5.004  0.3651 -1.2428  0.4361
  737MOL0     C99385   1.840   5.695   4.957  0.8955  0.3089  0.7356
  737MOL0     C99386   1.887   5.698   4.826 -0.9650 -0.5527  0.4416
  737MOL0     C99387   1.966   5.592   4.770  0.0028  0.4363 -0.1241
  737MOL0     C99388   2.003   5.477   4.849  0.5093  0.5843 -0.1947
  737MOL0     C99389   2.080   5.360   4.792  0.5863 -0.0807 -0.2885
  737MOL0     O99390   2.069   5.252   4.865  0.1257 -0.1858 -0.1689
  737MOL0     C99391   2.152   5.147   4.876  0.9204  0.3113 -0.7752
  737MOL0     C99392   2.289   5.135   4.840  0.7865 -0.7616  1.7255
  737MOL0     C99393   2.365   5.023   4.866  0.5430 -0.4476 -0.1054
  737MOL0     C99394   2.309   4.910   4.918  0.1845 -0.5450 -0.2608
  737MOL0     O99395   2.366   4.787   4.947  0.1920  0.1960 -0.5280
  737MOL0     C99396   2.499   4.754   4.885 -0.2066 -0.0748  0.2505
  737MOL0     C99397   2.501   4.740   4.735 -0.1224 -0.1358  0.4741
  737MOL0     C99398   2.642   4.704   4.699 -0.0517 -0.0510  0.6692
  737MOL0     C99399   2.663   4.692   4.552  0.2072 -0.1230 -0.3257
  737MOL0     C99400   2.799   4.643   4.518 -0.1264 -0.6033 -0.1233
  737MOL0     C99401   2.831   4.689   4.373  0.6167 -0.0605 -0.1330
  737MOL0     C99402   2.979   4.675   4.364 -0.0654 -0.0065  0.6919
  737MOL0     C99403   3.012   4.668   4.219 -0.0938  0.3011  0.0313
  737MOL0    Cl99404   3.196   4.653   4.200 -0.1706 -0.7710  0.3572
  737MOL0     C99405   2.177   4.922   4.947 -0.9251  0.7467  0.3570
  737MOL0     C99406   2.104   5.034   4.945  0.5259  0.2537  0.8725
  737MOL0     O99407   2.159   5.375   4.696 -0.5818 -0.1748  0.5977
  737MOL0     C99408   1.946   5.468   4.981  0.2517 -1.1508 -0.9878
  737MOL0     C99409   1.866   5.578   5.031  0.2708  1.0642  0.5362
  737MOL0     N99410   1.810   5.485   5.379  0.0144  0.2422 -0.0028
  737MOL0     N99411   1.754   5.375   5.340 -0.0368 -0.3557 -0.3507
  737MOL0     C99412   1.655   6.030   4.557  0.7126 -0.8942 -0.8262
  737MOL0     C99413   1.783   6.032   4.498  0.2180 -0.7491 -0.2646
  737MOL0     C99414   2.158   5.948   4.279  0.2240  0.2770  0.4834
  737MOL0     C99415   2.198   6.043   4.186  0.2348 -0.1921 -0.6617
  737MOL0     C99416   2.327   6.077   4.156  0.2581 -0.1169 -0.2181
  737MOL0     C99417   2.429   6.013   4.221  0.1091  0.3000  0.2512
  737MOL0     O99418   2.558   6.039   4.182 -0.0923  0.2183 -0.9952
  737MOL0     C99419   2.662   6.053   4.288  0.0066 -0.2251 -0.6585
  737MOL0     C99420   2.795   6.062   4.211  0.2354 -0.4438  0.1145
  737MOL0     C99421   2.818   5.940   4.120  0.3453 -0.0035  0.4510
  737MOL0     C99422   2.894   5.992   3.989  0.1270  0.0689 -0.5167
  737MOL0     C99423   3.024   6.046   4.032  0.1015 -0.1852  1.8162
  737MOL0     C99424   3.129   6.107   4.049  0.1792 -0.1782  0.0844
  737MOL0     C99425   2.397   5.915   4.322 -0.2828 -0.4878  0.4004
  737MOL0     C99426   2.263   5.884   4.353  0.5868 -0.1597  0.0728
  737MOL0     C99427   2.248   5.790   4.476 -0.3342 -0.6536  0.7714
  737MOL0     H99428   1.836   5.705   4.456  0.1456 -0.1866  0.0501
  737MOL0     H99429   1.592   5.700   4.550  0.6547 -1.1434 -3.6503
  737MOL0     H99430   1.565   5.861   4.806  0.6197  1.7454 -0.1855
  737MOL0     H99431   1.472   6.013   4.795  1.3501  0.2811  2.5251
  737MOL0     H99432   1.261   5.866   4.782  0.4386 -0.0230  0.0691
  737MOL0     H99433   1.346   5.869   4.937 -1.3130 -3.8500  1.1531
  737MOL0     H99434   1.412   5.656   4.729  0.1399  1.3415  0.6200
  737MOL0     H99435   1.264   5.646   4.834 -1.7720  0.6824 -0.5681
  737MOL0     H99436   1.551   5.670   4.934  1.4063 -0.5239  0.6562
  737MOL0     H99437   1.411   5.650   5.037 -0.3696  0.1973  0.5330
  737MOL0     H99438   1.354   5.438   4.915  0.2114  0.0787 -4.3937
  737MOL0     H99439   1.508   5.432   4.830 -0.9991  1.2213  0.2890
  737MOL0     H99440   1.559   5.303   4.997  1.9486 -0.4258  2.4129
  737MOL0     H99441   1.604   5.467   5.066  1.3249 -0.6128 -1.6319
  737MOL0     H99442   1.338   5.329   5.153 -2.7439  3.7619  0.6917
  737MOL0     H99443   1.400   5.480   5.198 -1.1741  0.3132 -1.2322
  737MOL0     H99444   1.447   5.269   5.350 -2.0248  2.5593  0.6458
  737MOL0     H99445   1.574   5.227   5.231 -1.6047 -1.4626  1.5153
  737MOL0     H99446   1.500   5.559   5.427  1.5908  2.9162 -0.2570
  737MOL0     H99447   1.719   5.732   5.568  0.7579  0.5449 -0.7970
  737MOL0     H99448   1.852   5.734   5.469  0.9270 -0.1087  1.8292
  737MOL0     H99449   1.575   5.801   5.341 -0.4969  1.3761  0.3355
  737MOL0     H99450   1.675   5.910   5.414 -2.5501 -0.9962  1.0550
  737MOL0     H99451   1.857   5.768   5.245  0.1959 -0.5943 -0.7583
  737MOL0     H99452   1.802   5.931   5.229  1.3029 -0.8450  1.1616
  737MOL0     H99453   1.593   5.839   5.107  2.0325  3.2322  0.7651
  737MOL0     H99454   1.657   5.679   5.147  0.9652 -0.6021  0.1932
  737MOL0     H99455   1.865   5.787   4.767 -2.4187 -1.5937 -0.6434
  737MOL0     H99456   1.999   5.608   4.668 -1.0551 -1.2468 -0.7638
  737MOL0     H99457   2.332   5.218   4.784  0.5618 -2.7191 -1.5702
  737MOL0     H99458   2.473   5.035   4.864  0.4237  1.3016  1.4119
  737MOL0     H99459   2.579   4.822   4.918  0.1101 -0.9203  1.2883
  737MOL0     H99460   2.525   4.661   4.937 -0.0114  0.4007  1.0346
  737MOL0     H99461   2.437   4.657   4.703  2.6979 -1.4862 -2.1487
  737MOL0     H99462   2.483   4.839   4.690 -3.7184 -0.1249  1.5684
  737MOL0     H99463   2.707   4.779   4.747  1.3570  0.4823 -1.9264
  737MOL0     H99464   2.658   4.601   4.731  0.2142  0.1619  1.2409
  737MOL0     H99465   2.649   4.795   4.519 -1.7728  0.9409  3.2581
  737MOL0     H99466   2.592   4.632   4.495  1.6577 -3.9174  1.4668
  737MOL0     H99467   2.811   4.537   4.540  0.2913 -0.3920  0.6888
  737MOL0     H99468   2.860   4.698   4.591 -1.8477 -1.0615  1.7324
  737MOL0     H99469   2.776   4.622   4.306  0.2901 -0.9624  1.0045
  737MOL0     H99470   2.804   4.793   4.353  1.8112  0.6877  1.8591
  737MOL0     H99471   3.012   4.583   4.412  4.3642  0.4628 -0.9446
  737MOL0     H99472   3.038   4.750   4.419 -0.9803  0.3150  1.2553
  737MOL0     H99473   2.968   4.582   4.167  1.0783 -0.6152  0.5084
  737MOL0     H99474   2.986   4.763   4.171  3.1776  0.7530 -1.1635
  737MOL0     H99475   2.144   4.834   5.002 -0.1494  1.2994  1.7761
  737MOL0     H99476   1.998   5.020   4.966  0.7367 -0.4122  1.5407
  737MOL0     H99477   1.960   5.386   5.051 -0.8592  1.3871  2.4551
  737MOL0     H99478   1.829   5.547   5.129 -1.3375  0.8737 -0.1170
  737MOL0     H99479   1.611   6.120   4.598  0.8967 -1.2929  0.2753
  737MOL0     H99480   1.835   6.125   4.478  1.5056 -1.6100 -1.0058
  737MOL0     H99481   2.117   6.095   4.136  0.7662  0.9758 -0.3533
  737MOL0     H99482   2.357   6.146   4.078  1.2465 -0.8971 -0.5466
  737MOL0     H99483   2.650   5.970   4.358 -1.2342 -0.0938 -0.6792
  737MOL0     H99484   2.637   6.143   4.345 -1.7508 -1.8017  1.2590
  737MOL0     H99485   2.888   6.067   4.270 -0.1604  1.2743  0.6368
  737MOL0     H99486   2.789   6.151   4.149  0.8559 -0.6101 -0.1911
  737MOL0     H99487   2.729   5.886   4.088 -0.9896  2.8376 -1.0340
  737MOL0     H99488   2.881   5.864   4.168 -1.7924 -3.7824 -2.1645
  737MOL0     H99489   2.910   5.909   3.920  2.1751  1.4869 -1.8491
  737MOL0     H99490   2.836   6.072   3.942  0.6483  1.3455  0.9141
  737MOL0     H99491   3.228   6.147   4.063 -0.3582  1.7234 -1.1305
  737MOL0     H99492   2.478   5.864   4.374  0.9281  2.3217  1.4933
  737MOL0     H99493   2.332   5.720   4.478  1.5367  1.4494  3.2824
  737MOL0     H99494   2.239   5.859   4.561  0.9351  0.5406 -0.0285
  737MOL0     H99495   2.157   5.729   4.473  1.0432 -2.8340  1.0116
  738MOL0     O99496   3.950   2.303   9.933 -0.1295 -0.1793  0.7188
  738MOL0     C99497   3.961   2.286   9.811 -0.5714  0.0559  0.0913
  738MOL0     O99498   4.038   2.193   9.747  0.2192  0.4047  0.0572
  738MOL0     C99499   4.087   2.080   9.811  0.5287 -0.2333 -0.5060
  738MOL0     C99500   4.040   2.024   9.931 -0.8561  0.4098 -0.7058
  738MOL0     C99501   4.095   1.908   9.984 -0.1818 -0.7923 -0.1133
  738MOL0     C99502   4.186   1.832   9.910  0.3898 -0.1060 -0.7141
  738MOL0     O99503   4.239   1.719   9.968  0.3596  0.1545 -1.2444
  738MOL0     C99504   4.380   1.739  10.007  1.4209 -0.5080 -0.7653
  738MOL0     C99505   4.446   1.606  10.006 -0.6056 -0.2723 -0.1249
  738MOL0     C99506   4.382   1.488  10.099 -0.0274  0.6603 -0.1197
  738MOL0     C99507   4.483   1.375  10.101  0.2287 -0.4545 -0.0721
  738MOL0     C99508   4.413   1.248  10.157 -0.4146 -0.7681  0.5375
  738MOL0     C99509   4.506   1.125  10.131 -0.2503 -0.5097  0.2716
  738MOL0     C99510   4.660   1.151  10.161  0.3977  0.2553  0.5281
  738MOL0     C99511   4.745   1.030  10.139  0.5380 -1.2273  0.5343
  738MOL0     N99512   4.755   0.940  10.256  0.3382  0.2062 -0.0745
  738MOL0     C99513   4.679   0.829  10.277  0.3507  0.7867 -0.1466
  738MOL0     C99514   4.721   0.786  10.400 -0.7081  0.2293 -0.3883
  738MOL0     C99515   4.667   0.668  10.474 -1.1244  0.5707  0.1613
  738MOL0     C99516   4.778   0.554  10.501  1.1380 -0.5638  0.6340
  738MOL0     C99517   4.737   0.451  10.614  0.1909 -0.2984  1.2874
  738MOL0     C99518   4.797   0.308  10.578 -0.3798 -0.4248 -0.0994
  738MOL0     O99519   4.742   0.258  10.457  0.5400  0.2124  0.5664
  738MOL0     C99520   4.724   0.125  10.434  0.5804 -0.5968 -0.6055
  738MOL0     C99521   4.618   0.083  10.362  0.2541  0.9285  0.4339
  738MOL0     C99522   4.576  -0.051  10.350  0.1872 -0.4575  0.0539
  738MOL0     C99523   4.660  -0.150  10.404  0.1727  0.3635  0.1686
  738MOL0     C99524   4.610  -0.297  10.393  0.7850  0.3950  0.1047
  738MOL0     O99525   4.498  -0.311  10.322 -0.5030 -0.5776  0.1364
  738MOL0     C99526   4.417  -0.430  10.325  0.0520 -0.9066  0.7699
  738MOL0     C99527   4.417  -0.506  10.442  0.0187 -0.0557  0.5232
  738MOL0     C99528   4.342  -0.618  10.455  0.6025 -0.2665  0.7400
  738MOL0     C99529   4.274  -0.674  10.349  0.5711  0.1780  0.0344
  738MOL0     O99530   4.212  -0.797  10.346 -0.1357 -0.1424 -0.4082
  738MOL0     C99531   4.292  -0.912  10.342 -0.6072 -0.7087  0.5651
  738MOL0     C99532   4.326  -0.938  10.488  1.0264 -1.2629  0.0390
  738MOL0     C99533   4.321  -1.079  10.545  0.6728 -0.0133  0.2755
  738MOL0     C99534   4.181  -1.136  10.541  0.1053  0.2963 -0.4523
  738MOL0     C99535   4.177  -1.275  10.610 -0.1022  0.3151 -1.0813
  738MOL0     C99536   4.035  -1.326  10.597 -0.1697  0.5286  0.4379
  738MOL0     C99537   4.015  -1.459  10.677  0.4755 -1.1816 -0.0489
  738MOL0     C99538   3.913  -1.562  10.622  0.1600  0.9076 -0.5779
  738MOL0    Cl99539   3.732  -1.529  10.669  0.1024 -0.1903  0.3224
  738MOL0     C99540   4.250  -0.588  10.245 -0.4104  0.4628  0.0223
  738MOL0     C99541   4.328  -0.466  10.226 -0.4822  0.3012 -0.2977
  738MOL0     O99542   4.682  -0.381  10.435  0.0025  0.1932 -0.6657
  738MOL0     C99543   4.776  -0.109  10.475  0.6772  0.6240  0.9720
  738MOL0     C99544   4.811   0.024  10.495 -0.3760 -0.2553  0.8389
  738MOL0     N99545   4.824   0.864  10.449 -0.4023  0.0121  0.1304
  738MOL0     N99546   4.855   0.949  10.356 -0.0037 -0.0907 -0.0252
  738MOL0     C99547   4.232   1.884   9.793 -0.1709 -0.3777  0.1547
  738MOL0     C99548   4.185   2.009   9.744  0.4170  0.5510 -0.1602
  738MOL0     C99549   3.872   2.372   9.735 -0.4182 -0.1834  0.1345
  738MOL0     C99550   3.780   2.311   9.649 -0.5036 -0.6355 -0.5739
  738MOL0     C99551   3.667   2.380   9.598 -0.9695  0.3135 -0.3753
  738MOL0     C99552   3.646   2.512   9.645  0.0785  0.0134  0.2223
  738MOL0     O99553   3.535   2.577   9.597 -0.0420 -0.0703  0.3213
  738MOL0     C99554   3.541   2.619   9.460 -0.2989  0.2883  0.2401
  738MOL0     C99555   3.478   2.755   9.441  0.0625  0.3805  0.6375
  738MOL0     C99556   3.548   2.857   9.531 -0.6775 -0.6803  0.5433
  738MOL0     C99557   3.513   3.002   9.490 -0.9878  0.2258 -0.4406
  738MOL0     C99558   3.543   3.106   9.592  0.5667 -0.1356 -0.0124
  738MOL0     C99559   3.575   3.196   9.667 -0.3259  0.2253  0.0788
  738MOL0     C99560   3.744   2.584   9.718 -0.5962 -0.9325  1.0380
  738MOL0     C99561   3.864   2.509   9.760  0.1854  0.0448  0.2552
  738MOL0     C99562   3.962   2.575   9.847  0.4262 -0.2895 -0.1068
  738MOL0     H99563   3.968   2.072   9.996 -1.7493  0.2270 -1.5301
  738MOL0     H99564   4.079   1.876  10.086 -1.2673  0.1065  0.0181
  738MOL0     H99565   4.424   1.810   9.936 -0.0873 -0.4378 -1.6842
  738MOL0     H99566   4.359   1.784  10.104  3.8457 -1.0381  0.0768
  738MOL0     H99567   4.547   1.621  10.046 -0.5384 -0.8130 -0.0754
  738MOL0     H99568   4.451   1.563   9.905 -1.0394 -0.1507 -0.1968
  738MOL0     H99569   4.283   1.453  10.069 -1.0322  0.9205  2.5921
  738MOL0     H99570   4.377   1.520  10.204  1.2968  1.2220 -0.1998
  738MOL0     H99571   4.524   1.358  10.001  1.4755  3.2771 -0.3387
  738MOL0     H99572   4.569   1.401  10.164 -1.7112  2.1724  1.7292
  738MOL0     H99573   4.409   1.256  10.266  0.8574 -2.3767  0.7330
  738MOL0     H99574   4.317   1.236  10.106 -0.5640  2.6797 -0.2770
  738MOL0     H99575   4.479   1.034  10.185  1.1329 -0.3735  1.2241
  738MOL0     H99576   4.494   1.105  10.024  0.6005 -1.0134  0.2643
  738MOL0     H99577   4.672   1.175  10.267  2.7150 -0.6154  0.5267
  738MOL0     H99578   4.698   1.230  10.097  2.0042 -0.6413  0.3095
  738MOL0     H99579   4.706   0.963  10.062  3.6364 -1.4082 -1.0598
  738MOL0     H99580   4.842   1.065  10.102 -0.4913  1.6278  0.3026
  738MOL0     H99581   4.605   0.775  10.218  0.7474 -1.6958  1.4853
  738MOL0     H99582   4.619   0.705  10.565 -2.9706  0.5143 -0.7594
  738MOL0     H99583   4.587   0.625  10.414  1.9119 -4.0061 -1.1449
  738MOL0     H99584   4.791   0.513  10.401 -2.8371  3.3998 -1.8953
  738MOL0     H99585   4.874   0.598  10.528 -0.4988  3.3778  0.5772
  738MOL0     H99586   4.628   0.453  10.624  0.0344 -1.7316  0.2495
  738MOL0     H99587   4.786   0.482  10.707  1.5735  2.1878 -0.1621
  738MOL0     H99588   4.782   0.238  10.661 -1.9782 -1.8030 -1.4740
  738MOL0     H99589   4.905   0.302  10.560 -0.2955 -0.0035  0.2322
  738MOL0     H99590   4.549   0.159  10.326 -0.3160  0.1712 -0.0958
  738MOL0     H99591   4.477  -0.083  10.317  0.7098 -0.9551 -1.1030
  738MOL0     H99592   4.472  -0.461  10.524 -0.4784  0.1994  0.7251
  738MOL0     H99593   4.354  -0.670  10.550 -0.5165 -2.6440 -0.3424
  738MOL0     H99594   4.234  -0.997  10.305  1.6540 -1.6117 -1.0704
  738MOL0     H99595   4.383  -0.895  10.284  0.1028 -0.1553  1.7876
  738MOL0     H99596   4.430  -0.905  10.490  0.7105 -0.2586  0.6361
  738MOL0     H99597   4.273  -0.871  10.556  0.1813 -0.3352 -1.4766
  738MOL0     H99598   4.383  -1.151  10.492  1.0351  0.7237 -0.3299
  738MOL0     H99599   4.359  -1.081  10.647  0.8658 -2.7774  0.2145
  738MOL0     H99600   4.140  -1.157  10.441 -1.7260  2.9141 -0.3734
  738MOL0     H99601   4.109  -1.082  10.603  0.9519 -0.3027  1.1131
  738MOL0     H99602   4.191  -1.262  10.717  0.9309 -1.2696 -0.9890
  738MOL0     H99603   4.254  -1.339  10.566 -0.3363 -0.3405 -0.5522
  738MOL0     H99604   3.954  -1.256  10.622 -1.3089 -0.7555  0.4881
  738MOL0     H99605   4.018  -1.349  10.492  0.4705  0.6314  0.3118
  738MOL0     H99606   4.003  -1.440  10.784  1.2604  4.2239 -0.6564
  738MOL0     H99607   4.116  -1.500  10.674  0.2781 -1.8408  1.4040
  738MOL0     H99608   3.927  -1.575  10.515 -2.3170 -0.1512 -0.8358
  738MOL0     H99609   3.946  -1.659  10.661  3.0002  1.0376 -2.4147
  738MOL0     H99610   4.183  -0.631  10.171 -0.4266 -0.0070  0.3049
  738MOL0     H99611   4.302  -0.393  10.150 -0.1279 -2.2535 -3.0782
  738MOL0     H99612   4.842  -0.187  10.512 -1.1158 -2.4237 -1.6590
  738MOL0     H99613   4.898   0.050  10.553  0.2901 -2.0935  0.7337
  738MOL0     H99614   4.310   1.850   9.727  1.0729  2.7502 -0.1817
  738MOL0     H99615   4.210   2.055   9.649 -2.5393  1.8015 -0.4526
  738MOL0     H99616   3.795   2.211   9.608  1.0348 -1.0012  0.7627
  738MOL0     H99617   3.591   2.332   9.536  0.2217  0.5624 -2.1100
  738MOL0     H99618   3.488   2.542   9.402  0.3745 -2.1159  2.6515
  738MOL0     H99619   3.647   2.623   9.434  0.0635  0.3842  1.6634
  738MOL0     H99620   3.372   2.738   9.462 -0.3735  0.8198 -1.1089
  738MOL0     H99621   3.472   2.778   9.335  2.2794 -0.1706  0.3377
  738MOL0     H99622   3.657   2.846   9.520 -0.2762 -0.6280  3.6249
  738MOL0     H99623   3.527   2.837   9.637 -0.5244  0.3024  0.7693
  738MOL0     H99624   3.587   3.028   9.413  1.2560  1.8405  2.0944
  738MOL0     H99625   3.408   2.999   9.459 -0.8726 -0.2729 -0.7974
  738MOL0     H99626   3.586   3.286   9.725 -1.1846 -0.3916  1.2412
  738MOL0     H99627   3.712   2.686   9.732  0.3399 -0.4972  0.1242
  738MOL0     H99628   3.949   2.681   9.822 -1.3042 -1.0999 -3.2011
  738MOL0     H99629   3.960   2.560   9.955 -0.9284 -0.4859 -0.1484
  738MOL0     H99630   4.058   2.540   9.807 -1.0740 -1.7478 -2.6936
  739MOL0     O99631   5.907   1.821   8.573  0.0109 -0.3808  0.2799
  739MOL0     C99632   5.969   1.833   8.467  0.5083  0.1444  0.8768
  739MOL0     O99633   6.053   1.937   8.433 -0.0582  0.8084 -0.7003
  739MOL0     C99634   6.114   2.014   8.529 -0.3665  0.4670  0.3812
  739MOL0     C99635   6.052   2.082   8.638 -0.3359 -0.0712 -0.4592
  739MOL0     C99636   6.126   2.156   8.726 -0.7516  0.2219 -0.1878
  739MOL0     C99637   6.266   2.174   8.708 -0.0307  0.2453 -0.5107
  739MOL0     O99638   6.341   2.259   8.789 -0.3517  0.5690  0.2274
  739MOL0     C99639   6.373   2.200   8.919  0.4146 -0.1279  0.7958
  739MOL0     C99640   6.485   2.291   8.976  0.1123 -0.0235 -0.0584
  739MOL0     C99641   6.532   2.251   9.109 -1.0368  0.6920 -1.1053
  739MOL0     C99642   6.565   2.373   9.186 -0.2888 -0.6097 -0.0271
  739MOL0     C99643   6.433   2.396   9.267 -0.0232 -0.4805  0.7807
  739MOL0     C99644   6.414   2.527   9.344 -0.7247  0.1472  0.4351
  739MOL0     C99645   6.456   2.649   9.276  0.4650 -0.0397 -0.3202
  739MOL0     C99646   6.436   2.780   9.366  0.5588  0.3507  0.3111
  739MOL0     N99647   6.488   2.900   9.301  0.3595 -0.2976  0.1338
  739MOL0     C99648   6.497   2.911   9.164 -0.1284 -0.8866  0.0769
  739MOL0     C99649   6.559   3.030   9.135 -1.0267  2.3460 -1.0586
  739MOL0     C99650   6.609   3.071   8.993 -0.8726  0.7981 -0.6699
  739MOL0     C99651   6.746   3.005   8.964  0.1338  1.3992  0.4556
  739MOL0     C99652   6.775   3.000   8.812  0.3641 -0.1586  0.8011
  739MOL0     C99653   6.834   3.142   8.779 -0.4145 -0.0574  0.3359
  739MOL0     O99654   6.967   3.157   8.825 -0.6743  0.2746 -1.0101
  739MOL0     C99655   7.017   3.278   8.827 -0.2301  0.0354 -0.3105
  739MOL0     C99656   7.136   3.304   8.891 -0.0701 -0.6925 -0.5481
  739MOL0     C99657   7.211   3.423   8.862 -0.2704 -0.9486 -1.4770
  739MOL0     C99658   7.172   3.508   8.759 -0.9259  0.5855  0.5223
  739MOL0     C99659   7.255   3.634   8.724  0.2374  0.1180  0.2703
  739MOL0     O99660   7.358   3.649   8.798 -0.0533  0.8698 -0.6545
  739MOL0     C99661   7.418   3.765   8.806  0.0431 -0.6162 -0.4481
  739MOL0     C99662   7.463   3.811   8.933  0.1172 -0.0298  0.2786
  739MOL0     C99663   7.526   3.932   8.960  1.0356  0.9728 -0.4432
  739MOL0     C99664   7.571   4.000   8.847 -0.0903 -0.9909 -0.8117
  739MOL0     O99665   7.647   4.111   8.871  0.6468 -0.7014  0.7702
  739MOL0     C99666   7.781   4.091   8.839 -0.3672 -0.4865 -0.1902
  739MOL0     C99667   7.869   4.187   8.908 -0.3095  0.4094  0.6436
  739MOL0     C99668   7.896   4.168   9.054  0.4654  0.1383  0.1194
  739MOL0     C99669   7.972   4.043   9.093  0.0547  1.3991 -1.1788
  739MOL0     C99670   8.017   4.056   9.244 -0.6334 -0.9824  0.2547
  739MOL0     C99671   7.919   4.093   9.351 -0.1237 -1.2351 -0.5574
  739MOL0     C99672   7.977   4.131   9.485  0.7835  1.3517  1.2818
  739MOL0     C99673   7.870   4.177   9.589  0.5899 -1.0487  0.2192
  739MOL0    Cl99674   7.766   4.040   9.628  0.0364 -0.3491  0.2233
  739MOL0     C99675   7.536   3.953   8.722 -0.5883  0.4992  0.5203
  739MOL0     C99676   7.466   3.836   8.695  0.3970  0.5684  0.2141
  739MOL0     O99677   7.207   3.721   8.641  0.3808 -1.1502  0.3845
  739MOL0     C99678   7.055   3.474   8.688 -0.2195 -1.1137 -0.1483
  739MOL0     C99679   6.979   3.362   8.726  1.4258 -0.3220 -0.0726
  739MOL0     N99680   6.594   3.084   9.260  0.4805 -0.4722 -0.0136
  739MOL0     N99681   6.545   3.012   9.357 -0.3159  0.3237  0.3171
  739MOL0     C99682   6.320   2.111   8.596  0.5663 -0.0679 -0.1783
  739MOL0     C99683   6.251   2.036   8.505  0.9115  0.7109  0.0724
  739MOL0     C99684   5.968   1.720   8.369 -0.3458 -0.1776  1.0440
  739MOL0     C99685   6.042   1.730   8.252 -0.3228  0.2787  1.0353
  739MOL0     C99686   6.049   1.632   8.154  0.0581 -0.2164  0.4629
  739MOL0     C99687   5.972   1.515   8.155  0.1356 -0.1751  0.2713
  739MOL0     O99688   5.960   1.423   8.049 -0.1164  0.0135  0.4712
  739MOL0     C99689   6.093   1.382   8.007 -0.1243 -0.8274  0.5548
  739MOL0     C99690   6.162   1.292   8.112  0.2164 -0.0219  0.3491
  739MOL0     C99691   6.315   1.289   8.092 -0.0092 -0.8879  0.0811
  739MOL0     C99692   6.375   1.433   8.115 -0.2294  0.3687 -0.9253
  739MOL0     C99693   6.350   1.480   8.249  0.4801  0.0748 -0.3769
  739MOL0     C99694   6.324   1.532   8.362 -0.1194  0.1640 -0.2192
  739MOL0     C99695   5.894   1.502   8.269  0.2929  0.4179 -0.0069
  739MOL0     C99696   5.886   1.597   8.376  0.2919  0.3509 -0.0197
  739MOL0     C99697   5.809   1.557   8.502 -0.7238  0.2721 -0.1377
  739MOL0     H99698   5.947   2.058   8.650  0.0020 -0.6163  1.8182
  739MOL0     H99699   6.080   2.207   8.810  1.9399  1.9181  0.4007
  739MOL0     H99700   6.282   2.202   8.979  1.4883  0.5250  2.4789
  739MOL0     H99701   6.409   2.097   8.909 -3.1680 -1.3254 -1.2633
  739MOL0     H99702   6.438   2.390   8.985 -2.0432 -1.0552  0.6591
  739MOL0     H99703   6.571   2.295   8.909 -1.4108  3.6441 -2.1317
  739MOL0     H99704   6.623   2.196   9.082 -0.6784  1.6175 -1.8849
  739MOL0     H99705   6.465   2.183   9.161 -0.9575  1.8802  0.6414
  739MOL0     H99706   6.638   2.358   9.267  1.4314  2.2839 -0.8946
  739MOL0     H99707   6.596   2.457   9.124 -1.1735  1.2202  1.8817
  739MOL0     H99708   6.345   2.387   9.202 -0.0637 -2.5188  1.0566
  739MOL0     H99709   6.426   2.313   9.337  0.5371 -1.3138 -0.1275
  739MOL0     H99710   6.312   2.522   9.385 -0.6145 -1.1196  0.5921
  739MOL0     H99711   6.482   2.516   9.429  0.7581  0.2831 -0.6913
  739MOL0     H99712   6.400   2.670   9.184  0.4216 -0.6053 -0.4212
  739MOL0     H99713   6.563   2.645   9.255  1.0340 -0.3477  2.2772
  739MOL0     H99714   6.330   2.795   9.388 -0.4845  3.2576 -4.9183
  739MOL0     H99715   6.474   2.762   9.467 -1.5621 -2.2181  0.7765
  739MOL0     H99716   6.468   2.839   9.089  3.7464 -2.3236 -0.2650
  739MOL0     H99717   6.539   3.041   8.914 -0.1704 -3.0319 -0.0347
  739MOL0     H99718   6.631   3.178   8.984  2.7124  0.4109  1.3035
  739MOL0     H99719   6.833   3.045   9.017 -0.2206  1.5609  0.9241
  739MOL0     H99720   6.734   2.899   8.984 -0.6737  0.9549 -2.0320
  739MOL0     H99721   6.677   2.994   8.764  1.1848 -0.4265 -0.8923
  739MOL0     H99722   6.845   2.918   8.792 -1.3826 -2.1771  2.4445
  739MOL0     H99723   6.776   3.223   8.824 -0.5700  0.0032  0.0266
  739MOL0     H99724   6.826   3.150   8.670  0.0729  0.6173  0.3448
  739MOL0     H99725   7.179   3.232   8.961 -1.2407 -0.1870  0.7410
  739MOL0     H99726   7.303   3.445   8.915 -0.9746 -0.0641 -0.5830
  739MOL0     H99727   7.441   3.742   9.014 -2.1536 -0.2024 -0.4166
  739MOL0     H99728   7.544   3.969   9.060 -1.1156 -2.5329  1.4319
  739MOL0     H99729   7.820   3.990   8.853 -1.1014 -0.8727 -0.8448
  739MOL0     H99730   7.780   4.117   8.732 -3.8282  1.0479  0.0901
  739MOL0     H99731   7.974   4.185   8.877  0.4294  0.6683  2.9479
  739MOL0     H99732   7.824   4.286   8.898 -0.3547  0.3013 -0.3117
  739MOL0     H99733   7.954   4.257   9.079 -3.2176  2.9091 -0.3018
  739MOL0     H99734   7.802   4.184   9.108  2.1624  1.5600  2.8805
  739MOL0     H99735   8.063   4.034   9.034 -1.8222  2.5669 -4.5148
  739MOL0     H99736   7.907   3.955   9.091  0.0622  1.1818  2.1024
  739MOL0     H99737   8.095   4.131   9.256 -1.1537 -0.3947  0.0208
  739MOL0     H99738   8.072   3.963   9.262  3.5404  0.5332 -3.0460
  739MOL0     H99739   7.857   4.175   9.312  4.2945  1.6148 -2.3042
  739MOL0     H99740   7.858   4.002   9.349  0.4384 -1.6884  1.0811
  739MOL0     H99741   8.052   4.209   9.476 -0.4695  2.4540 -0.1020
  739MOL0     H99742   8.021   4.041   9.528  0.8753  1.2162  0.9108
  739MOL0     H99743   7.924   4.212   9.677  3.4156 -5.2582  0.4775
  739MOL0     H99744   7.812   4.264   9.558  2.4063  0.3695  0.6371
  739MOL0     H99745   7.577   4.012   8.641 -3.9184  0.2539 -1.5394
  739MOL0     H99746   7.443   3.801   8.596  0.4475  1.5161 -0.1465
  739MOL0     H99747   7.016   3.535   8.607 -0.8965 -2.5045 -0.8951
  739MOL0     H99748   6.884   3.343   8.678  1.5577 -1.8145  0.2306
  739MOL0     H99749   6.427   2.125   8.582  0.3978  0.3634 -1.1130
  739MOL0     H99750   6.297   1.995   8.416 -0.6635  2.7448 -1.7818
  739MOL0     H99751   6.101   1.817   8.225  1.6314 -0.8718  1.4207
  739MOL0     H99752   6.113   1.647   8.068 -2.1307  0.5005 -1.1390
  739MOL0     H99753   6.156   1.466   7.975  1.3369 -2.2692 -0.5322
  739MOL0     H99754   6.071   1.319   7.921  0.7076 -1.4299  0.7735
  739MOL0     H99755   6.123   1.191   8.095  0.0532 -0.1462  1.4243
  739MOL0     H99756   6.145   1.322   8.215 -1.1898 -0.1752  0.1802
  739MOL0     H99757   6.344   1.254   7.992  0.2857 -0.1886 -0.0886
  739MOL0     H99758   6.347   1.229   8.177 -2.7261  0.2112  2.0192
  739MOL0     H99759   6.483   1.437   8.098 -0.0428  1.0824  0.3287
  739MOL0     H99760   6.332   1.511   8.051  1.8727  2.1974 -0.2518
  739MOL0     H99761   6.283   1.573   8.452  0.9903 -0.8031  0.7425
  739MOL0     H99762   5.826   1.418   8.271 -2.2555  2.3066 -0.8686
  739MOL0     H99763   5.773   1.454   8.501  3.2381 -1.2495 -1.8488
  739MOL0     H99764   5.877   1.572   8.587  2.3870  0.5167 -2.5168
  739MOL0     H99765   5.726   1.629   8.503 -1.8864 -0.9869 -1.3000
  740MOL0     O99766   2.784   3.900   2.229 -0.1611  0.2159 -0.3426
  740MOL0     C99767   2.900   3.881   2.257  0.6073 -0.7633 -1.1693
  740MOL0     O99768   2.988   3.799   2.190 -0.1103  0.1934 -0.1389
  740MOL0     C99769   2.950   3.772   2.060 -0.0858  0.4062 -0.2862
  740MOL0     C99770   2.940   3.638   2.012 -0.1697  0.2800 -0.7677
  740MOL0     C99771   2.916   3.615   1.877  0.4041 -0.6936 -0.5433
  740MOL0     C99772   2.920   3.719   1.784  0.9497 -0.2995 -0.0119
  740MOL0     O99773   2.891   3.673   1.654  0.1076  0.5586 -0.0323
  740MOL0     C99774   2.824   3.753   1.560 -0.0636  0.0414  1.1477
  740MOL0     C99775   2.679   3.741   1.584  0.0717  0.3523  0.5942
  740MOL0     C99776   2.615   3.620   1.509 -0.6350 -0.5907 -0.5965
  740MOL0     C99777   2.696   3.484   1.541  0.1531  0.1836 -0.2913
  740MOL0     C99778   2.613   3.354   1.526 -0.4060 -0.1569  0.6368
  740MOL0     C99779   2.595   3.320   1.381  0.3362  0.2696 -0.2955
  740MOL0     C99780   2.506   3.197   1.378  0.5876  0.4055 -0.4441
  740MOL0     C99781   2.433   3.160   1.252 -0.3052 -0.8462  0.5224
  740MOL0     N99782   2.358   3.037   1.270  0.4840  0.1671  0.3206
  740MOL0     C99783   2.235   3.030   1.331 -0.5415  0.7879 -0.1546
  740MOL0     C99784   2.189   2.909   1.301 -0.4328  0.0131  0.1675
  740MOL0     C99785   2.053   2.866   1.342 -0.9738 -0.3005 -0.3771
  740MOL0     C99786   2.026   2.717   1.288 -0.0353  0.4410 -0.2921
  740MOL0     C99787   1.938   2.638   1.385 -0.6904  1.0310  0.6837
  740MOL0     C99788   1.789   2.672   1.372 -0.1111 -0.6759  0.3401
  740MOL0     O99789   1.731   2.631   1.239  0.2021 -0.0023  0.3027
  740MOL0     C99790   1.704   2.504   1.215 -0.6902  0.6280  0.3231
  740MOL0     C99791   1.741   2.448   1.098  0.1277  0.3237  0.5742
  740MOL0     C99792   1.731   2.307   1.074  0.0581 -1.7898  0.2066
  740MOL0     C99793   1.661   2.227   1.169 -0.1063  0.3849  0.0400
  740MOL0     C99794   1.646   2.081   1.137 -0.3209 -0.4763 -0.5208
  740MOL0     O99795   1.626   1.990   1.241  0.7157 -0.4911 -0.3396
  740MOL0     C99796   1.631   1.852   1.228  0.1182  0.0209  0.5114
  740MOL0     C99797   1.757   1.786   1.224  0.3656  0.2111  0.9400
  740MOL0     C99798   1.756   1.643   1.203 -0.4394 -0.0604  0.6707
  740MOL0     C99799   1.640   1.576   1.174 -0.3509  0.9390  0.2181
  740MOL0     O99800   1.646   1.442   1.169 -0.3679 -0.7155 -0.0482
  740MOL0     C99801   1.735   1.364   1.083  0.1904  0.6162  0.1020
  740MOL0     C99802   1.665   1.326   0.954  0.1249  0.6166  0.2848
  740MOL0     C99803   1.528   1.251   0.957  0.5732 -0.0570  0.1998
  740MOL0     C99804   1.492   1.171   0.834 -0.6266  0.0375 -1.4702
  740MOL0     C99805   1.420   1.256   0.731 -0.3520  0.7388  0.6551
  740MOL0     C99806   1.380   1.180   0.605 -0.2364  0.4963 -0.2327
  740MOL0     C99807   1.326   1.037   0.644  0.2663  0.4713 -0.3819
  740MOL0     C99808   1.236   0.981   0.532  0.4814 -0.7585  0.2603
  740MOL0    Cl99809   1.072   1.039   0.586 -0.0046  0.0402  0.0166
  740MOL0     C99810   1.515   1.643   1.172 -0.6046  0.1006 -0.1663
  740MOL0     C99811   1.510   1.787   1.191  0.0248  0.3975 -0.8670
  740MOL0     O99812   1.650   2.050   1.022  0.7244 -0.2968  0.2622
  740MOL0     C99813   1.624   2.283   1.291  0.1079 -0.1252  0.1323
  740MOL0     C99814   1.639   2.428   1.304  0.0748  0.2099  1.2529
  740MOL0     N99815   2.277   2.839   1.225 -0.5819 -0.5854 -0.3223
  740MOL0     N99816   2.378   2.914   1.214  0.1416  0.4982  0.0688
  740MOL0     C99817   2.934   3.853   1.832  0.5705  0.1763  0.2474
  740MOL0     C99818   2.947   3.873   1.968 -0.1385  0.6300 -0.2377
  740MOL0     C99819   2.942   3.933   2.384 -0.7455  0.3695  0.2284
  740MOL0     C99820   2.998   3.839   2.472  0.3627 -0.5320 -0.7497
  740MOL0     C99821   3.016   3.868   2.606  0.2788 -0.3485 -0.3059
  740MOL0     C99822   2.989   3.996   2.656  0.5611 -0.3124  0.1793
  740MOL0     O99823   2.994   4.017   2.794 -0.0025  0.1294 -0.7699
  740MOL0     C99824   3.125   4.064   2.832 -0.2517 -0.1481 -0.3114
  740MOL0     C99825   3.191   3.957   2.905 -0.3853 -0.2205 -0.4074
  740MOL0     C99826   3.329   4.000   2.948 -0.3041  0.1889 -0.3309
  740MOL0     C99827   3.400   3.883   3.016 -0.6404  0.1696  0.9036
  740MOL0     C99828   3.539   3.910   3.047  0.9349  0.3498  0.1354
  740MOL0     C99829   3.658   3.915   3.066  0.1556 -0.3873 -0.5691
  740MOL0     C99830   2.939   4.092   2.557 -0.0397 -0.5805 -0.9772
  740MOL0     C99831   2.917   4.065   2.425  0.6937 -0.2989  0.3404
  740MOL0     C99832   2.860   4.164   2.336  0.7740 -0.1978  0.2391
  740MOL0     H99833   2.956   3.546   2.068  0.9799  0.2777 -1.0819
  740MOL0     H99834   2.896   3.511   1.854 -0.7473 -0.4849 -0.5407
  740MOL0     H99835   2.847   3.860   1.565  1.5256 -0.1635 -0.7651
  740MOL0     H99836   2.858   3.716   1.463  2.3497  2.0834  1.1114
  740MOL0     H99837   2.637   3.837   1.552  1.3404  1.2238  1.4163
  740MOL0     H99838   2.658   3.742   1.692 -1.8571  3.0107  0.2905
  740MOL0     H99839   2.600   3.632   1.401  2.9481 -3.1334 -1.5465
  740MOL0     H99840   2.514   3.613   1.551 -0.4827 -0.3059 -0.1671
  740MOL0     H99841   2.786   3.473   1.480  0.0988 -0.8303 -0.2087
  740MOL0     H99842   2.725   3.500   1.645  0.4726  0.7922 -0.4717
  740MOL0     H99843   2.660   3.272   1.580  2.9333  1.0080 -0.2482
  740MOL0     H99844   2.518   3.370   1.577 -0.5419 -0.8169  0.5950
  740MOL0     H99845   2.533   3.394   1.329 -2.2465 -1.5197  0.0715
  740MOL0     H99846   2.690   3.316   1.327  2.5097  0.9292  3.2040
  740MOL0     H99847   2.429   3.203   1.455  1.0076 -0.9376  0.1199
  740MOL0     H99848   2.567   3.114   1.415 -0.1149  1.2693  2.9984
  740MOL0     H99849   2.361   3.234   1.215  1.2693  1.8948  2.4786
  740MOL0     H99850   2.514   3.129   1.184 -0.1760 -1.2619  0.8642
  740MOL0     H99851   2.186   3.102   1.395 -3.5730 -3.5149  2.9298
  740MOL0     H99852   2.052   2.869   1.452 -0.4652  1.8051 -0.3795
  740MOL0     H99853   1.982   2.938   1.300  2.6122  1.2723 -4.4988
  740MOL0     H99854   1.978   2.726   1.190  1.4681  0.4656 -1.0574
  740MOL0     H99855   2.118   2.662   1.264 -0.4268 -0.7270  0.7353
  740MOL0     H99856   1.984   2.650   1.483  4.1348  5.5135 -1.6526
  740MOL0     H99857   1.949   2.532   1.359 -2.0976  1.2237 -0.8807
  740MOL0     H99858   1.765   2.777   1.392 -2.5045 -1.4697  2.1681
  740MOL0     H99859   1.736   2.618   1.451 -2.1673 -1.0716 -1.2025
  740MOL0     H99860   1.791   2.504   1.020  1.5802  0.9552  1.8986
  740MOL0     H99861   1.755   2.271   0.974 -0.3290 -2.2996  0.2922
  740MOL0     H99862   1.846   1.834   1.263 -1.3974  3.7660  1.0810
  740MOL0     H99863   1.847   1.584   1.208  0.3290  1.0899  0.6700
  740MOL0     H99864   1.826   1.416   1.052 -0.0581  0.0829 -1.6112
  740MOL0     H99865   1.772   1.279   1.141 -0.8062 -0.0019 -0.1404
  740MOL0     H99866   1.654   1.417   0.894  0.1626  0.6025  0.2552
  740MOL0     H99867   1.728   1.262   0.891 -3.1360 -1.8774 -0.6869
  740MOL0     H99868   1.528   1.189   1.047  1.8122  2.4615  2.0724
  740MOL0     H99869   1.457   1.332   0.976  2.2461  2.5637 -3.4009
  740MOL0     H99870   1.437   1.082   0.868  1.4661 -1.3540 -1.5385
  740MOL0     H99871   1.586   1.131   0.796  1.6397  2.1087  1.5003
  740MOL0     H99872   1.484   1.328   0.679 -1.0200 -0.1572 -1.5507
  740MOL0     H99873   1.333   1.306   0.774 -0.5730  0.1210  0.9366
  740MOL0     H99874   1.304   1.239   0.554 -2.7378 -0.8786  1.6634
  740MOL0     H99875   1.471   1.164   0.547 -0.2945  0.3573 -0.2870
  740MOL0     H99876   1.274   1.040   0.740 -1.6366  0.2922 -1.3381
  740MOL0     H99877   1.414   0.976   0.663 -0.3755 -0.5468 -0.5627
  740MOL0     H99878   1.256   1.024   0.434 -2.8600  0.1375 -0.1709
  740MOL0     H99879   1.232   0.873   0.517 -1.1424 -0.4636 -1.9390
  740MOL0     H99880   1.422   1.590   1.153 -0.3843 -1.6183  2.9513
  740MOL0     H99881   1.417   1.842   1.180 -0.9352 -0.9591  0.1462
  740MOL0     H99882   1.579   2.220   1.367  0.3869 -1.7627 -1.0161
  740MOL0     H99883   1.612   2.477   1.397  0.1939 -0.1547  1.4853
  740MOL0     H99884   2.924   3.934   1.760 -1.2533 -0.2965 -0.0794
  740MOL0     H99885   2.951   3.978   1.994 -1.7720  0.7845 -0.5058
  740MOL0     H99886   3.024   3.736   2.451 -1.1031 -1.3578  1.1824
  740MOL0     H99887   3.049   3.789   2.672  1.4100 -0.7342 -1.2908
  740MOL0     H99888   3.126   4.154   2.894  1.6480 -0.5215  0.2904
  740MOL0     H99889   3.191   4.091   2.748 -1.4038  3.0138 -0.3128
  740MOL0     H99890   3.199   3.874   2.834  0.5398  0.7982 -1.5533
  740MOL0     H99891   3.138   3.918   2.992 -3.0931  0.2904 -1.7246
  740MOL0     H99892   3.315   4.074   3.028 -4.1754 -1.2743  0.5582
  740MOL0     H99893   3.393   4.041   2.870 -0.4206  0.7022 -0.1660
  740MOL0     H99894   3.344   3.849   3.103 -1.6380 -2.0756 -0.5247
  740MOL0     H99895   3.388   3.800   2.946 -2.9797  1.1491  0.0336
  740MOL0     H99896   3.764   3.903   3.064 -0.0414 -3.5560  1.6405
  740MOL0     H99897   2.923   4.193   2.593  2.4688 -0.2835 -0.5600
  740MOL0     H99898   2.752   4.152   2.345  0.9543 -0.8181  1.8236
  740MOL0     H99899   2.897   4.262   2.365  1.9609  0.2235 -2.4068
  740MOL0     H99900   2.895   4.147   2.233  1.5401 -0.1840  0.4893
  741MOL0     O99901   0.607   5.720   5.771  0.4415  0.3135  0.8349
  741MOL0     C99902   0.515   5.801   5.774 -0.4328  0.2515 -0.2720
  741MOL0     O99903   0.500   5.904   5.863 -0.3075 -0.4303 -0.2493
  741MOL0     C99904   0.604   5.918   5.943  0.0624  0.8684 -0.0129
  741MOL0     C99905   0.692   6.025   5.921  1.2660 -0.2101  0.8822
  741MOL0     C99906   0.797   6.032   6.008  0.1837 -0.5821 -0.5842
  741MOL0     C99907   0.821   5.945   6.124 -0.5288  0.0484  0.0058
  741MOL0     O99908   0.909   5.962   6.222 -0.2431  0.5330 -0.2531
  741MOL0     C99909   1.015   6.064   6.221  0.3981  0.1154 -0.9543
  741MOL0     C99910   1.071   6.082   6.366 -0.6064  0.7718  0.9931
  741MOL0     C99911   1.124   5.949   6.431 -0.7554 -0.3037  0.2334
  741MOL0     C99912   1.260   5.908   6.374  0.3610  1.0523  0.2728
  741MOL0     C99913   1.306   5.765   6.414 -0.1360  0.4642  0.1600
  741MOL0     C99914   1.282   5.662   6.298 -0.0908  0.6207 -0.8469
  741MOL0     C99915   1.347   5.529   6.336  0.2958  0.9853  0.7683
  741MOL0     C99916   1.302   5.417   6.237 -0.7171  0.3415 -0.1739
  741MOL0     N99917   1.168   5.372   6.266  0.3155 -0.0843 -0.0326
  741MOL0     C99918   1.056   5.400   6.194 -0.7522  0.0467  0.1116
  741MOL0     C99919   0.960   5.320   6.250  0.0157 -0.4440 -0.0322
  741MOL0     C99920   0.816   5.325   6.210 -0.5854  0.2995  0.0633
  741MOL0     C99921   0.725   5.387   6.307  0.1834  0.0952  0.7484
  741MOL0     C99922   0.576   5.339   6.279  0.1728 -0.8439 -0.3582
  741MOL0     C99923   0.478   5.457   6.295  0.1490  0.6620  0.8039
  741MOL0     O99924   0.342   5.406   6.304 -0.1697 -0.7254 -0.5849
  741MOL0     C99925   0.306   5.346   6.187 -0.2686 -0.1037 -0.9826
  741MOL0     C99926   0.293   5.212   6.183 -1.1032  0.7288 -0.3672
  741MOL0     C99927   0.235   5.141   6.069  0.5795  0.3417 -0.2582
  741MOL0     C99928   0.195   5.213   5.955 -0.3006  0.2702 -1.0722
  741MOL0     C99929   0.122   5.142   5.842 -0.2889 -0.7994  0.6856
  741MOL0     O99930   0.031   5.042   5.867 -0.4805 -0.5853  0.2646
  741MOL0     C99931  -0.039   4.979   5.767 -0.8135  0.8074  0.4662
  741MOL0     C99932   0.018   4.907   5.660 -0.1300 -1.2296 -0.5998
  741MOL0     C99933  -0.061   4.845   5.561  0.2086 -0.1528  0.1800
  741MOL0     C99934  -0.195   4.841   5.575 -0.1954  0.7886  0.6583
  741MOL0     O99935  -0.263   4.779   5.475  0.0407  0.1553  0.4693
  741MOL0     C99936  -0.397   4.754   5.492  0.1891  0.3189  0.1195
  741MOL0     C99937  -0.464   4.747   5.354 -0.2840  0.3196 -0.1432
  741MOL0     C99938  -0.428   4.638   5.260 -0.1401  0.3082  0.2777
  741MOL0     C99939  -0.509   4.621   5.125  0.1627  0.1236 -0.9194
  741MOL0     C99940  -0.444   4.529   5.024  0.0992  0.1266  0.0980
  741MOL0     C99941  -0.503   4.546   4.883 -0.7820 -0.1221  0.5657
  741MOL0     C99942  -0.433   4.468   4.767  0.8974  0.0122  0.0395
  741MOL0     C99943  -0.353   4.556   4.671 -0.6684  0.1129 -0.2895
  741MOL0    Cl99944  -0.451   4.668   4.585  0.0749  0.3639  0.2747
  741MOL0     C99945  -0.250   4.896   5.688  0.4190  0.0886  0.5824
  741MOL0     C99946  -0.177   4.963   5.778  0.4914  0.1802 -0.6313
  741MOL0     O99947   0.149   5.182   5.729  0.2887  0.1238 -0.1684
  741MOL0     C99948   0.218   5.353   5.956 -0.4903  0.1870  0.6598
  741MOL0     C99949   0.272   5.421   6.070 -0.3762  0.1982 -0.5175
  741MOL0     N99950   1.006   5.243   6.356  0.1786  0.0477 -0.4784
  741MOL0     N99951   1.136   5.277   6.365 -0.6990  0.0191 -0.3096
  741MOL0     C99952   0.734   5.848   6.147  0.1046  0.2534 -0.2131
  741MOL0     C99953   0.630   5.829   6.053  0.1640 -0.0663 -1.1810
  741MOL0     C99954   0.410   5.786   5.665 -0.4022 -0.7330 -0.0403
  741MOL0     C99955   0.347   5.903   5.622  0.0330  0.4708 -0.4384
  741MOL0     C99956   0.245   5.906   5.531 -0.2894  0.4782  0.6968
  741MOL0     C99957   0.199   5.782   5.486 -0.3508 -0.3204  0.1804
  741MOL0     O99958   0.087   5.756   5.411  0.3964  0.1111 -0.4626
  741MOL0     C99959   0.026   5.866   5.345  0.9541  0.0270 -0.1881
  741MOL0     C99960  -0.082   5.804   5.251  0.2538 -0.3373 -1.0437
  741MOL0     C99961  -0.116   5.878   5.122  0.4301  0.1610  1.3001
  741MOL0     C99962  -0.232   5.812   5.046 -0.3196  0.7039  0.2795
  741MOL0     C99963  -0.349   5.783   5.133  0.4886  0.6109 -0.3446
  741MOL0     C99964  -0.442   5.760   5.209 -1.0872 -0.1503  1.0977
  741MOL0     C99965   0.262   5.661   5.523  0.1384 -0.6332  0.3198
  741MOL0     C99966   0.366   5.663   5.613  0.3104  0.5958 -0.8731
  741MOL0     C99967   0.407   5.523   5.672  0.5896  0.1032 -0.1167
  741MOL0     H99968   0.677   6.103   5.846  2.2599  0.8232  1.7366
  741MOL0     H99969   0.850   6.127   6.004 -0.9177  0.2998  2.6740
  741MOL0     H99970   1.100   6.026   6.164  1.1827  2.7219 -1.6997
  741MOL0     H99971   0.972   6.162   6.197 -2.5496 -0.7855  0.2051
  741MOL0     H99972   0.990   6.121   6.428  0.3579  2.3889  1.2789
  741MOL0     H99973   1.150   6.157   6.368 -2.1934  2.5705 -0.1835
  741MOL0     H99974   1.049   5.870   6.418 -4.2300  2.8395 -0.4472
  741MOL0     H99975   1.139   5.973   6.537 -0.5908  1.8643 -0.2428
  741MOL0     H99976   1.258   5.913   6.265  0.7253 -1.8195  0.0746
  741MOL0     H99977   1.342   5.973   6.404 -0.4958  1.9806  0.6598
  741MOL0     H99978   1.412   5.773   6.440 -0.3861  0.5568  1.1763
  741MOL0     H99979   1.253   5.740   6.506 -0.0025  3.2491  1.0967
  741MOL0     H99980   1.175   5.650   6.285 -0.1189  0.0598 -0.1772
  741MOL0     H99981   1.315   5.702   6.202 -0.6001 -1.9332 -2.1566
  741MOL0     H99982   1.306   5.492   6.431 -0.9152 -1.8350 -0.7419
  741MOL0     H99983   1.456   5.536   6.340  0.5479 -0.4987 -1.5733
  741MOL0     H99984   1.298   5.450   6.133 -0.9719  2.9634  0.5896
  741MOL0     H99985   1.368   5.333   6.258  1.9151  2.6061  1.2753
  741MOL0     H99986   1.034   5.454   6.103  0.9681 -1.7441 -1.4633
  741MOL0     H99987   0.811   5.378   6.115 -1.7372  0.9867  0.4823
  741MOL0     H99988   0.782   5.224   6.185 -1.0234  0.3949  0.2717
  741MOL0     H99989   0.760   5.351   6.404  1.5713 -1.8620 -0.4000
  741MOL0     H99990   0.744   5.495   6.311  1.9029 -0.1645  0.4005
  741MOL0     H99991   0.542   5.261   6.347 -0.1044 -2.0504 -1.8120
  741MOL0     H99992   0.575   5.307   6.174  0.3457  2.3045 -1.4286
  741MOL0     H99993   0.492   5.521   6.208 -0.7086 -0.9570 -0.5832
  741MOL0     H99994   0.496   5.519   6.384  0.7308  1.4981  0.1155
  741MOL0     H99995   0.319   5.154   6.271 -3.3555 -0.3922 -0.3554
  741MOL0     H99996   0.203   5.038   6.080 -0.3434  0.4546 -1.6426
  741MOL0     H99997   0.126   4.909   5.657 -0.1399 -0.2385 -0.6662
  741MOL0     H99998  -0.014   4.794   5.478 -0.0169 -0.1119  0.0265
  741MOL0     H99999  -0.396   4.653   5.536 -2.0084  0.1986  0.0241
  741MOL0     H    0  -0.455   4.825   5.552 -2.9397 -2.1485  0.2826
  741MOL0     H    1  -0.569   4.721   5.366 -0.4093  0.5241 -0.7921
  741MOL0     H    2  -0.451   4.842   5.301 -2.0868  0.5077 -0.3144
  741MOL0     H    3  -0.327   4.669   5.232 -0.6006  0.5898 -1.1348
  741MOL0     H    4  -0.438   4.544   5.314  0.2291  0.1968  0.1550
  741MOL0     H    5  -0.522   4.723   5.088  1.5600  0.0448 -1.6792
  741MOL0     H    6  -0.613   4.590   5.139  0.6173 -2.3493 -2.3905
  741MOL0     H    7  -0.444   4.425   5.056 -2.8109  0.1867  0.5790
  741MOL0     H    8  -0.343   4.571   5.013 -0.2019  0.8314 -0.0234
  741MOL0     H    9  -0.606   4.512   4.896 -1.6548  1.6717 -1.2626
  741MOL0     H   10  -0.519   4.650   4.856 -1.5849  0.5761  3.4428
  741MOL0     H   11  -0.505   4.413   4.706  0.0748  0.4199  0.6210
  741MOL0     H   12  -0.363   4.393   4.807  0.0854 -2.4073 -2.7548
  741MOL0     H   13  -0.279   4.608   4.732 -1.6474 -0.7120  1.6873
  741MOL0     H   14  -0.298   4.496   4.597 -2.4389  0.2663 -1.8011
  741MOL0     H   15  -0.351   4.884   5.726  0.8040  3.0527  2.8540
  741MOL0     H   16  -0.246   5.000   5.853 -0.0887  1.1932 -1.6360
  741MOL0     H   17   0.189   5.414   5.871  3.2550 -1.2050 -1.9302
  741MOL0     H   18   0.275   5.529   6.054  0.2391 -0.0565 -2.4379
  741MOL0     H   19   0.740   5.773   6.225 -2.6928  0.3137  0.1812
  741MOL0     H   20   0.569   5.743   6.081 -1.1536  1.0151 -0.6330
  741MOL0     H   21   0.380   5.993   5.673  1.4616 -0.6731  0.7222
  741MOL0     H   22   0.198   5.993   5.487  0.0057  0.4383  0.2921
  741MOL0     H   23   0.094   5.920   5.279 -3.7586  1.0098 -4.9500
  741MOL0     H   24  -0.022   5.937   5.413 -0.5119  1.6469 -2.7431
  741MOL0     H   25  -0.169   5.799   5.316 -0.6368  0.8290 -2.1078
  741MOL0     H   26  -0.064   5.698   5.228  0.6623 -0.7336  0.9495
  741MOL0     H   27  -0.029   5.887   5.056 -1.0482 -0.7626 -0.8589
  741MOL0     H   28  -0.148   5.979   5.149  2.2694  1.2400 -0.2673
  741MOL0     H   29  -0.265   5.886   4.973  0.7082  0.9556  0.0533
  741MOL0     H   30  -0.188   5.727   4.992 -0.6346  1.8099 -1.8131
  741MOL0     H   31  -0.526   5.754   5.275  0.0813  2.6642  3.0104
  741MOL0     H   32   0.222   5.567   5.487  2.6691 -0.2284 -4.3265
  741MOL0     H   33   0.338   5.441   5.650 -0.9788  1.3284  0.1508
  741MOL0     H   34   0.508   5.494   5.639  0.4602  0.1539 -0.5700
  741MOL0     H   35   0.407   5.530   5.781  3.2448 -0.5334  0.0003
  742MOL0     O   36   8.850  10.562   1.685  0.1200 -0.2356  0.4254
  742MOL0     C   37   8.736  10.526   1.714 -0.1840 -0.1331  0.6180
  742MOL0     O   38   8.706  10.472   1.827 -0.1767 -0.4776  0.0128
  742MOL0     C   39   8.808  10.450   1.913 -0.1754  0.1930 -0.4586
  742MOL0     C   40   8.888  10.339   1.919 -0.3643  0.4461  0.3035
  742MOL0     C   41   8.998  10.340   2.010 -0.7919 -0.2149  0.6478
  742MOL0     C   42   9.024  10.439   2.095 -0.6938 -0.4860 -0.2574
  742MOL0     O   43   9.141  10.451   2.180  0.3424  0.0227  0.3923
  742MOL0     C   44   9.221  10.334   2.195  0.1927  0.5933 -0.1623
  742MOL0     C   45   9.341  10.356   2.294  0.4401  0.3203  0.1246
  742MOL0     C   46   9.471  10.412   2.232  1.3984  0.2670  1.0070
  742MOL0     C   47   9.559  10.446   2.351  0.2585  0.1273  0.2975
  742MOL0     C   48   9.692  10.480   2.299 -0.3417  0.2141 -0.6918
  742MOL0     C   49   9.785  10.499   2.418  0.3526 -1.2170  0.1755
  742MOL0     C   50   9.924  10.547   2.369  0.5753 -0.0925 -0.2305
  742MOL0     C   51  10.003  10.433   2.305 -0.0841  0.1140  1.2265
  742MOL0     N   52  10.025  10.312   2.387 -0.1078  0.3839  0.3227
  742MOL0     C   53  10.142  10.265   2.450 -0.1284 -0.3418  0.1122
  742MOL0     C   54  10.114  10.153   2.517  0.4309 -0.3398 -0.0674
  742MOL0     C   55  10.221  10.064   2.565 -0.4337  0.0603  0.4026
  742MOL0     C   56  10.225   9.927   2.488  0.2271 -0.6628 -0.8588
  742MOL0     C   57  10.202   9.939   2.337  0.6751 -0.5935 -0.3873
  742MOL0     C   58  10.317  10.006   2.275  0.4903 -0.4614  0.3987
  742MOL0     O   59  10.316   9.969   2.137  0.2622  0.1669  0.3628
  742MOL0     C   60  10.400  10.033   2.055 -0.2812 -0.3494  0.1668
  742MOL0     C   61  10.376  10.017   1.918  1.4066  1.0298  0.3848
  742MOL0     C   62  10.462  10.068   1.832 -0.1728 -0.3806 -0.8535
  742MOL0     C   63  10.578  10.139   1.871 -0.2569  0.1196 -0.2358
  742MOL0     C   64  10.677  10.178   1.768 -0.4513  0.5121  0.3581
  742MOL0     O   65  10.766  10.271   1.793 -0.2791  0.4089  0.4635
  742MOL0     C   66  10.828  10.334   1.686  0.6307 -0.5378 -0.0947
  742MOL0     C   67  10.799  10.332   1.552 -0.8979 -0.2267 -0.6092
  742MOL0     C   68  10.880  10.408   1.464  0.0440 -0.3525 -0.0351
  742MOL0     C   69  10.980  10.493   1.516 -0.0419  0.3641  0.6719
  742MOL0     O   70  11.056  10.568   1.423 -0.5696 -0.2510 -0.0879
  742MOL0     C   71  11.165  10.648   1.464  0.3328  0.1547 -0.7244
  742MOL0     C   72  11.224  10.708   1.345 -0.1928  0.3428 -0.7119
  742MOL0     C   73  11.325  10.824   1.353 -0.5438  0.5925  0.1168
  742MOL0     C   74  11.472  10.773   1.389  0.4770  0.2062  0.1975
  742MOL0     C   75  11.579  10.877   1.393 -0.2337  0.0896 -0.5281
  742MOL0     C   76  11.715  10.805   1.431 -0.2425  0.4684  1.1266
  742MOL0     C   77  11.818  10.919   1.446  0.4478 -0.8824  0.4913
  742MOL0     C   78  11.933  10.863   1.521 -0.9787 -0.6323 -0.0336
  742MOL0    Cl   79  12.056  10.997   1.506 -0.2817 -0.1466 -0.2055
  742MOL0     C   80  11.000  10.500   1.653 -0.0355  0.9183 -0.4271
  742MOL0     C   81  10.925  10.412   1.733 -0.8874 -0.5521  0.5850
  742MOL0     O   82  10.679  10.094   1.674  0.4228 -0.0348 -0.2838
  742MOL0     C   83  10.602  10.157   2.006  0.3586 -0.5244  0.6794
  742MOL0     C   84  10.510  10.102   2.101  0.4606 -0.4645  0.2805
  742MOL0     N   85   9.979  10.127   2.485 -0.0134 -0.6322  0.1008
  742MOL0     N   86   9.924  10.222   2.405 -0.2415  0.1053 -0.4458
  742MOL0     C   87   8.934  10.549   2.094 -0.1412 -0.1817 -0.4308
  742MOL0     C   88   8.827  10.548   2.007 -0.6118  0.3416  0.4200
  742MOL0     C   89   8.627  10.542   1.617 -0.4412 -0.7229 -0.2712
  742MOL0     C   90   8.616  10.662   1.541 -0.3602 -0.0170  0.2716
  742MOL0     C   91   8.506  10.679   1.456 -0.3731 -0.6064  0.8756
  742MOL0     C   92   8.415  10.577   1.441  0.6106  1.0876  0.1662
  742MOL0     O   93   8.312  10.576   1.348  0.3645 -0.6188 -0.4376
  742MOL0     C   94   8.287  10.694   1.276  0.8713 -0.2757  0.3340
  742MOL0     C   95   8.230  10.808   1.372  1.2206  0.1880  0.3591
  742MOL0     C   96   8.143  10.772   1.492 -0.4540 -0.1441  0.0641
  742MOL0     C   97   8.034  10.671   1.447  0.3080  0.4333 -0.2909
  742MOL0     C   98   7.923  10.734   1.366  0.3954 -0.2972 -0.1195
  742MOL0     C   99   7.838  10.792   1.306  0.0316  0.6712  0.5794
  742MOL0     C  100   8.424  10.459   1.523 -0.8622  0.9726 -0.2172
  742MOL0     C  101   8.531  10.436   1.605 -0.5941  0.2403 -0.2140
  742MOL0     C  102   8.541  10.303   1.672 -0.6757 -0.8881  0.4965
  742MOL0     H  103   8.879  10.253   1.853 -0.3423  0.1964  0.6193
  742MOL0     H  104   9.065  10.255   2.017 -3.6129 -2.5846  0.7147
  742MOL0     H  105   9.165  10.244   2.223  1.3564 -0.3420 -0.7441
  742MOL0     H  106   9.258  10.299   2.098 -0.5605 -0.5843 -0.0409
  742MOL0     H  107   9.369  10.257   2.332 -1.3648  0.2642  1.4075
  742MOL0     H  108   9.308  10.411   2.382 -0.5349 -0.5734  0.3391
  742MOL0     H  109   9.443  10.500   2.173  0.1162 -1.4153 -1.0694
  742MOL0     H  110   9.516  10.343   2.161  0.1748  1.9962 -1.5989
  742MOL0     H  111   9.520  10.528   2.412  0.0874 -0.1824  0.6094
  742MOL0     H  112   9.563  10.366   2.425 -1.5516  0.5414  0.8949
  742MOL0     H  113   9.729  10.398   2.238 -2.7933 -2.8980  1.6624
  742MOL0     H  114   9.693  10.575   2.244  2.2077  0.6373 -0.0456
  742MOL0     H  115   9.741  10.575   2.483  0.2997  0.6950 -1.9664
  742MOL0     H  116   9.789  10.409   2.480 -0.6409 -1.2801  0.1619
  742MOL0     H  117   9.971  10.581   2.461 -1.1126 -0.1891  0.7115
  742MOL0     H  118   9.906  10.630   2.301  0.2323  0.2913  0.3250
  742MOL0     H  119   9.950  10.402   2.214  1.0748 -0.4957  0.7441
  742MOL0     H  120  10.097  10.475   2.267 -0.8107  0.7027  0.0165
  742MOL0     H  121  10.239  10.311   2.437 -0.0320 -0.1217  1.4559
  742MOL0     H  122  10.316  10.113   2.544  1.4052 -3.5572 -0.3033
  742MOL0     H  123  10.210  10.042   2.672  2.9430  0.7791  0.9978
  742MOL0     H  124  10.323   9.883   2.508 -0.6457 -4.2512 -3.3489
  742MOL0     H  125  10.144   9.866   2.531 -0.7870  1.1116 -0.1542
  742MOL0     H  126  10.110   9.994   2.315  2.2660  2.0017 -1.0012
  742MOL0     H  127  10.197   9.838   2.296  1.3216 -0.9830  0.4595
  742MOL0     H  128  10.408   9.973   2.326 -0.4416  0.6540  2.8969
  742MOL0     H  129  10.311  10.114   2.292  1.4063  0.2039 -2.7458
  742MOL0     H  130  10.288   9.963   1.885  2.1030  0.4460 -0.5736
  742MOL0     H  131  10.440  10.053   1.727 -1.4011 -4.6741 -0.1936
  742MOL0     H  132  10.715  10.280   1.508 -1.0863 -1.3237  0.9752
  742MOL0     H  133  10.860  10.402   1.358  0.4249  2.5475 -0.3396
  742MOL0     H  134  11.119  10.721   1.532 -0.0265 -1.7988  1.2157
  742MOL0     H  135  11.250  10.599   1.514  0.7178  0.1914 -1.3317
  742MOL0     H  136  11.264  10.620   1.294  2.4540  1.3265 -0.5139
  742MOL0     H  137  11.137  10.740   1.288 -1.1637 -2.2484 -0.7849
  742MOL0     H  138  11.314  10.874   1.256  0.6023 -1.0394 -0.9245
  742MOL0     H  139  11.304  10.887   1.439  1.5316 -1.9141  2.6383
  742MOL0     H  140  11.508  10.699   1.316 -3.6688 -3.4589  1.4112
  742MOL0     H  141  11.470  10.728   1.488  1.1993 -0.7481 -0.2096
  742MOL0     H  142  11.546  10.956   1.461  1.0308  2.2745 -2.3203
  742MOL0     H  143  11.581  10.926   1.295 -2.4930 -2.7494 -2.1465
  742MOL0     H  144  11.712  10.753   1.527  1.4241  1.1591  1.5961
  742MOL0     H  145  11.742  10.729   1.357  1.1314  0.8957  1.1592
  742MOL0     H  146  11.784  11.009   1.498  0.1721 -0.4547 -0.4036
  742MOL0     H  147  11.831  10.950   1.341 -3.4173 -0.2358  0.0457
  742MOL0     H  148  11.897  10.842   1.622 -3.8923  0.7321 -0.6849
  742MOL0     H  149  11.979  10.769   1.488  1.5835 -0.1361  1.7524
  742MOL0     H  150  11.086  10.552   1.693 -0.6164  1.9305 -0.4652
  742MOL0     H  151  10.939  10.416   1.841  1.1376 -1.9911  0.4267
  742MOL0     H  152  10.683  10.221   2.039 -1.5753  2.2732  0.3925
  742MOL0     H  153  10.530  10.131   2.203  3.5768 -0.6761 -0.1621
  742MOL0     H  154   8.947  10.628   2.168 -1.7634 -0.6282  0.3651
  742MOL0     H  155   8.756  10.630   2.004 -0.7643  0.3015  1.8625
  742MOL0     H  156   8.679  10.750   1.548 -0.6259  0.5976 -3.3687
  742MOL0     H  157   8.505  10.775   1.405  3.2395 -0.6836  0.4067
  742MOL0     H  158   8.209  10.672   1.202  0.8897  1.1060 -0.1342
  742MOL0     H  159   8.379  10.725   1.227  0.1336 -0.1193 -1.0205
  742MOL0     H  160   8.170  10.867   1.302 -1.9821 -1.2730  1.6625
  742MOL0     H  161   8.312  10.860   1.421  0.0811  3.8935 -1.3050
  742MOL0     H  162   8.091  10.867   1.507 -1.8165 -0.7920 -0.3125
  742MOL0     H  163   8.192  10.732   1.581 -0.7944 -0.1481  0.2527
  742MOL0     H  164   8.088  10.586   1.402  1.2518  0.3436  0.9481
  742MOL0     H  165   7.993  10.620   1.535  0.2996 -2.3957 -1.7991
  742MOL0     H  166   7.758  10.838   1.251  0.5845  0.6961 -0.2235
  742MOL0     H  167   8.357  10.375   1.505 -0.7527  1.1340 -1.4606
  742MOL0     H  168   8.496  10.303   1.772 -0.5371 -3.3638  0.6115
  742MOL0     H  169   8.488  10.226   1.614 -0.0942  0.0306 -1.3173
  742MOL0     H  170   8.646  10.273   1.673 -0.6794 -1.5067 -3.3661
  743MOL0     O  171   6.613   4.162   7.117  0.3849 -0.2077  0.0051
  743MOL0     C  172   6.584   4.047   7.117 -0.2216  0.3309  0.1305
  743MOL0     O  173   6.565   3.975   7.230 -0.3648  0.3045  0.6818
  743MOL0     C  174   6.591   4.027   7.355  0.6204 -0.2790  0.2978
  743MOL0     C  175   6.494   4.104   7.427  0.2793 -0.4852 -0.0881
  743MOL0     C  176   6.530   4.156   7.560 -0.5517  0.4734  0.7845
  743MOL0     C  177   6.658   4.136   7.617  0.5751  0.3139  0.0332
  743MOL0     O  178   6.688   4.169   7.748 -0.5899 -0.2536 -0.4186
  743MOL0     C  179   6.574   4.169   7.838  0.1687  0.1825 -0.4039
  743MOL0     C  180   6.609   4.185   7.985  0.2080  0.0956  0.1501
  743MOL0     C  181   6.696   4.072   8.030 -0.6807 -0.1285  0.9522
  743MOL0     C  182   6.715   4.080   8.175  0.5611  0.6958  0.1612
  743MOL0     C  183   6.849   4.034   8.232 -0.9905  0.4632  0.1191
  743MOL0     C  184   6.882   4.087   8.376  0.2383 -0.1776 -0.1234
  743MOL0     C  185   6.832   3.994   8.484 -1.1055  0.4958  0.1673
  743MOL0     C  186   6.686   4.002   8.534 -0.8885  0.1205  0.3275
  743MOL0     N  187   6.669   3.908   8.648  0.2413 -0.0442  0.5152
  743MOL0     C  188   6.601   3.953   8.759  0.0540  0.3282 -0.3695
  743MOL0     C  189   6.572   3.840   8.833 -0.7004  0.3637  0.0066
  743MOL0     C  190   6.523   3.859   8.976 -0.0803  0.1853  0.3679
  743MOL0     C  191   6.380   3.910   8.992  0.4980  0.8537  0.5188
  743MOL0     C  192   6.361   4.018   9.101  0.4943  0.2797  0.5997
  743MOL0     C  193   6.358   3.940   9.234 -0.1499  0.0525  0.6298
  743MOL0     O  194   6.357   4.045   9.333  0.1998  0.6168  0.5286
  743MOL0     C  195   6.375   4.010   9.467  0.3012 -0.1994  0.0169
  743MOL0     C  196   6.408   3.886   9.517 -0.3562  0.5897  0.7439
  743MOL0     C  197   6.426   3.864   9.651  0.6343  0.0935  0.2377
  743MOL0     C  198   6.406   3.973   9.738  0.4655  0.0574 -0.2877
  743MOL0     C  199   6.412   3.970   9.887 -0.3391 -1.6837 -0.2418
  743MOL0     O  200   6.430   3.845   9.939  0.3922 -0.3610 -0.4487
  743MOL0     C  201   6.407   3.799  10.066 -0.2076  0.0469  0.1489
  743MOL0     C  202   6.400   3.668  10.088  0.0867  0.4951 -0.7719
  743MOL0     C  203   6.397   3.614  10.225 -0.1913 -0.1396  0.8209
  743MOL0     C  204   6.376   3.704  10.333 -0.8951 -0.1069  0.6220
  743MOL0     O  205   6.368   3.670  10.465  0.5018 -0.3304 -0.2000
  743MOL0     C  206   6.391   3.539  10.520  0.6310 -0.9548 -0.1895
  743MOL0     C  207   6.381   3.537  10.673  0.3697 -1.0336  0.0031
  743MOL0     C  208   6.504   3.602  10.740  0.8377 -0.8324 -0.3127
  743MOL0     C  209   6.496   3.754  10.744  0.1785  0.3502  0.3818
  743MOL0     C  210   6.541   3.816  10.878  0.2266 -0.4286  0.6007
  743MOL0     C  211   6.692   3.809  10.887  0.7120 -0.2509 -0.0796
  743MOL0     C  212   6.741   3.840  11.033 -0.1450  0.0862 -0.6794
  743MOL0     C  213   6.673   3.961  11.096  0.6229 -0.1449 -0.1413
  743MOL0    Cl  214   6.727   3.990  11.263  0.2141  0.0820 -0.0330
  743MOL0     C  215   6.369   3.834  10.301 -0.5808  0.0075  0.3430
  743MOL0     C  216   6.394   3.885  10.173 -0.3602  0.2157 -0.8085
  743MOL0     O  217   6.379   4.073   9.950  0.3655  0.6406  0.0034
  743MOL0     C  218   6.377   4.105   9.680  0.3545  0.4468 -0.5100
  743MOL0     C  219   6.358   4.121   9.546  0.3451  0.1562 -0.7110
  743MOL0     N  220   6.639   3.733   8.765  0.0885  0.6553 -0.2258
  743MOL0     N  221   6.681   3.776   8.652  0.2681 -0.3304 -0.3794
  743MOL0     C  222   6.745   4.053   7.540  0.4297  0.0153  0.6432
  743MOL0     C  223   6.715   4.006   7.415  0.3791  0.0479 -0.0600
  743MOL0     C  224   6.585   3.970   6.990 -0.1956  0.3671 -0.2820
  743MOL0     C  225   6.586   3.830   6.988  0.3544  0.2314 -0.3910
  743MOL0     C  226   6.583   3.751   6.871  0.1139 -0.6167  0.3066
  743MOL0     C  227   6.596   3.819   6.750  1.0292  0.3589 -1.6825
  743MOL0     O  228   6.608   3.738   6.642 -0.4236  0.2758  0.3483
  743MOL0     C  229   6.658   3.804   6.525  0.5256  0.6696 -0.2507
  743MOL0     C  230   6.711   3.694   6.424 -0.8640  0.0641  0.2668
  743MOL0     C  231   6.829   3.618   6.507 -0.8771 -0.3525 -0.2259
  743MOL0     C  232   6.902   3.505   6.436 -0.0868 -0.2241 -0.0638
  743MOL0     C  233   6.810   3.397   6.410  0.7259 -0.9289 -0.0016
  743MOL0     C  234   6.712   3.333   6.398 -0.1477  0.5079 -0.0270
  743MOL0     C  235   6.573   3.956   6.749  0.0495 -0.0408  0.3453
  743MOL0     C  236   6.579   4.030   6.866 -0.5049 -0.1898  0.4308
  743MOL0     C  237   6.557   4.180   6.852  0.0378  0.2488 -0.1183
  743MOL0     H  238   6.397   4.121   7.381 -1.3501 -1.3428  2.8158
  743MOL0     H  239   6.452   4.219   7.601  0.1852  0.0461  3.0356
  743MOL0     H  240   6.519   4.258   7.807  1.5412  0.3075 -2.6723
  743MOL0     H  241   6.517   4.076   7.825  1.0218 -0.3796 -0.2362
  743MOL0     H  242   6.520   4.197   8.048  0.6820  2.7726  0.4016
  743MOL0     H  243   6.672   4.273   7.999  0.9494 -0.4463  0.2298
  743MOL0     H  244   6.797   4.081   7.989 -1.9703 -1.2675 -2.9555
  743MOL0     H  245   6.661   3.973   7.998 -0.5025 -0.0562  0.5263
  743MOL0     H  246   6.697   4.184   8.204 -1.5396  0.6447 -0.7944
  743MOL0     H  247   6.635   4.023   8.224  0.7016  0.8568  0.5835
  743MOL0     H  248   6.860   3.926   8.227  1.3645  0.6700 -0.3423
  743MOL0     H  249   6.932   4.083   8.179 -0.7118 -0.0050  0.1185
  743MOL0     H  250   6.991   4.101   8.382  0.3671 -1.0775 -0.2371
  743MOL0     H  251   6.840   4.188   8.383  0.9861  0.1794 -0.5888
  743MOL0     H  252   6.893   4.012   8.573  0.4335 -0.0500 -0.7433
  743MOL0     H  253   6.857   3.891   8.454  0.5428  0.8358  0.2662
  743MOL0     H  254   6.679   4.104   8.571 -2.5119  0.8269 -1.7276
  743MOL0     H  255   6.621   3.976   8.450 -0.9857 -0.0877  0.4645
  743MOL0     H  256   6.590   4.056   8.791  0.9561 -0.0148  1.1567
  743MOL0     H  257   6.543   3.764   9.026 -0.2202  0.3081  0.6568
  743MOL0     H  258   6.592   3.927   9.026  3.2481 -0.7051 -2.5443
  743MOL0     H  259   6.353   3.968   8.903  1.9138 -2.5241 -2.4172
  743MOL0     H  260   6.312   3.825   9.000  2.4445 -0.8797 -0.2724
  743MOL0     H  261   6.264   4.064   9.078  0.3798 -0.9024 -1.4734
  743MOL0     H  262   6.441   4.091   9.111  0.9076 -0.3419  2.2031
  743MOL0     H  263   6.446   3.876   9.250 -2.3369 -2.5888  2.9839
  743MOL0     H  264   6.272   3.873   9.237  0.4510 -0.9156 -1.5558
  743MOL0     H  265   6.412   3.791   9.466  2.7486  0.3232  1.2664
  743MOL0     H  266   6.447   3.766   9.693 -1.0148 -0.0318  0.8346
  743MOL0     H  267   6.424   3.605  10.002 -0.1604 -0.2586 -0.2995
  743MOL0     H  268   6.415   3.508  10.242 -3.5771 -0.4631  3.2437
  743MOL0     H  269   6.325   3.464  10.476  1.9344 -3.1267  1.3259
  743MOL0     H  270   6.490   3.495  10.501  0.7510 -1.8767  2.1432
  743MOL0     H  271   6.287   3.575  10.715  0.2165 -2.9308  1.5329
  743MOL0     H  272   6.374   3.432  10.704  0.8162 -1.1847 -0.3982
  743MOL0     H  273   6.516   3.563  10.841  1.3850 -0.2195 -0.1350
  743MOL0     H  274   6.596   3.577  10.685  1.8787  1.3716  0.2942
  743MOL0     H  275   6.396   3.797  10.733  0.0445  1.0982  3.5614
  743MOL0     H  276   6.556   3.790  10.660 -0.2254 -0.3014 -0.1989
  743MOL0     H  277   6.494   3.756  10.957  0.2815 -2.2296 -0.6859
  743MOL0     H  278   6.503   3.919  10.877  0.6280 -0.0096 -5.1862
  743MOL0     H  279   6.749   3.717  10.871  0.8831 -0.2494  0.4952
  743MOL0     H  280   6.722   3.883  10.812 -1.8345 -0.8435 -1.8191
  743MOL0     H  281   6.848   3.863  11.034  0.4153 -2.1957  1.0733
  743MOL0     H  282   6.712   3.758  11.099  0.1646  1.4758  1.2792
  743MOL0     H  283   6.688   4.055  11.042 -0.6171 -0.2179 -0.6290
  743MOL0     H  284   6.564   3.950  11.098  0.6549 -2.3169 -3.3142
  743MOL0     H  285   6.347   3.889  10.391  0.4111 -2.8205  2.4746
  743MOL0     H  286   6.393   3.992  10.154  1.4162 -0.0198 -2.5732
  743MOL0     H  287   6.381   4.189   9.748  1.3172  0.6431 -0.7973
  743MOL0     H  288   6.351   4.223   9.508  1.2147  0.6286  0.3468
  743MOL0     H  289   6.841   4.030   7.584 -0.1032 -2.2179  0.7422
  743MOL0     H  290   6.784   3.945   7.357  1.4360 -0.9485  2.1364
  743MOL0     H  291   6.576   3.785   7.086  2.5326  2.4900  1.0023
  743MOL0     H  292   6.587   3.643   6.872  2.8503 -0.5991 -0.8827
  743MOL0     H  293   6.741   3.871   6.546  0.5147  0.3539  0.8631
  743MOL0     H  294   6.590   3.878   6.481 -0.2177  1.3142  1.8616
  743MOL0     H  295   6.758   3.736   6.335 -2.6386  0.8751 -0.3490
  743MOL0     H  296   6.638   3.621   6.388  0.2857  0.1667 -2.4930
  743MOL0     H  297   6.784   3.564   6.591  0.2734 -2.5688 -0.9596
  743MOL0     H  298   6.899   3.689   6.551 -2.2731  0.0718  1.4131
  743MOL0     H  299   6.952   3.545   6.348  0.4016  0.5451  0.5503
  743MOL0     H  300   6.990   3.466   6.487  0.6747 -2.3466 -2.7722
  743MOL0     H  301   6.616   3.285   6.400  0.5356 -1.0468 -1.2750
  743MOL0     H  302   6.576   4.005   6.652  3.2374  0.6758  0.7055
  743MOL0     H  303   6.545   4.213   6.748 -1.7077 -0.6920 -0.2493
  743MOL0     H  304   6.466   4.209   6.906  0.4784  1.3419  0.0751
  743MOL0     H  305   6.638   4.237   6.898 -0.0879  1.7060 -1.5902
  744MOL0     O  306  10.639   5.461   8.816 -0.0308 -0.1167 -0.1454
  744MOL0     C  307  10.628   5.537   8.718  0.5973 -0.4512  1.4531
  744MOL0     O  308  10.621   5.670   8.714 -0.4564 -0.0723  0.5106
  744MOL0     C  309  10.673   5.728   8.824  0.3183  0.3167  0.0762
  744MOL0     C  310  10.780   5.684   8.904 -0.3834 -1.4010  0.4293
  744MOL0     C  311  10.829   5.769   9.002 -1.5026 -0.0386  0.6267
  744MOL0     C  312  10.793   5.898   9.016 -0.0212 -0.7431  0.6373
  744MOL0     O  313  10.848   5.991   9.098  0.2794  0.7685  0.2228
  744MOL0     C  314  10.815   5.970   9.234  0.5255 -0.1556  0.0432
  744MOL0     C  315  10.946   5.960   9.307  0.7505  0.0033  0.2326
  744MOL0     C  316  11.007   5.815   9.302 -0.2169 -0.5536  0.0262
  744MOL0     C  317  11.129   5.817   9.393 -0.2178  0.2088  0.8473
  744MOL0     C  318  11.178   5.681   9.444 -1.0170  0.0066  0.9533
  744MOL0     C  319  11.236   5.593   9.336  0.0733  0.1859  0.6202
  744MOL0     C  320  11.259   5.456   9.391  0.2283  0.9841 -0.5566
  744MOL0     C  321  11.291   5.369   9.264  0.4035 -0.6181  0.4196
  744MOL0     N  322  11.335   5.229   9.287  0.0128 -0.1321  0.6702
  744MOL0     C  323  11.453   5.197   9.342  0.1659  1.0311 -0.1796
  744MOL0     C  324  11.437   5.064   9.376 -0.2161 -0.4918 -0.0780
  744MOL0     C  325  11.543   4.973   9.427 -0.2528 -0.4078 -0.5859
  744MOL0     C  326  11.641   5.047   9.515 -0.4310  0.1726 -0.4617
  744MOL0     C  327  11.734   4.970   9.609  0.1598 -0.0284 -0.6272
  744MOL0     C  328  11.795   4.848   9.546  0.3762  0.2552 -0.0858
  744MOL0     O  329  11.891   4.787   9.629  0.0899  1.1879  0.3638
  744MOL0     C  330  11.947   4.668   9.591  0.5342  0.1599 -0.2606
  744MOL0     C  331  12.033   4.606   9.685  0.0404  0.5370  0.0570
  744MOL0     C  332  12.077   4.475   9.666  0.0639  0.5245  0.1578
  744MOL0     C  333  12.043   4.407   9.549  0.6203  0.1854 -0.3871
  744MOL0     C  334  12.103   4.274   9.525  0.3136  0.9313 -2.0029
  744MOL0     O  335  12.206   4.241   9.613 -0.2549  0.2669  0.4816
  744MOL0     C  336  12.275   4.124   9.588 -0.1614  0.8076  0.8375
  744MOL0     C  337  12.408   4.124   9.548 -0.2267 -0.2387  0.2152
  744MOL0     C  338  12.463   4.004   9.501 -0.3345 -0.3290 -0.7863
  744MOL0     C  339  12.390   3.882   9.504  0.2518  0.3046 -0.0288
  744MOL0     O  340  12.446   3.767   9.467  0.5464  0.2236  0.3374
  744MOL0     C  341  12.361   3.653   9.437 -0.3204  0.3495  0.1867
  744MOL0     C  342  12.438   3.565   9.329  0.4603  0.4304  0.1790
  744MOL0     C  343  12.377   3.431   9.357 -0.0359 -0.6179 -0.0873
  744MOL0     C  344  12.389   3.329   9.244  0.4524  0.1001 -0.0961
  744MOL0     C  345  12.533   3.294   9.201 -0.8204 -0.0748  0.4819
  744MOL0     C  346  12.622   3.223   9.304 -0.2102 -0.2973 -0.7960
  744MOL0     C  347  12.542   3.108   9.382 -0.2438 -0.4593  0.3001
  744MOL0     C  348  12.616   2.974   9.391  0.0396  0.7384 -0.0964
  744MOL0    Cl  349  12.686   2.929   9.231  0.3208  0.7288  0.0872
  744MOL0     C  350  12.266   3.883   9.562  0.4045  0.4689 -0.7613
  744MOL0     C  351  12.205   4.002   9.596 -0.9609  0.0433  0.5312
  744MOL0     O  352  12.076   4.211   9.424  0.3583  0.0323  0.3917
  744MOL0     C  353  11.961   4.472   9.456 -0.3020 -0.7828 -0.0595
  744MOL0     C  354  11.903   4.596   9.481 -0.1922  0.0596 -0.9630
  744MOL0     N  355  11.318   5.018   9.336  1.0487 -0.4587 -0.3019
  744MOL0     N  356  11.257   5.118   9.281  0.1509  1.1969 -0.0775
  744MOL0     C  357  10.691   5.943   8.938  0.9154 -0.0330  0.8599
  744MOL0     C  358  10.623   5.856   8.843 -0.0282 -0.0339  0.5606
  744MOL0     C  359  10.639   5.482   8.582  0.2269  0.3627  0.2402
  744MOL0     C  360  10.698   5.568   8.481 -0.3573  0.9896 -0.9838
  744MOL0     C  361  10.694   5.522   8.349  0.0390  0.6860 -0.1533
  744MOL0     C  362  10.622   5.406   8.312  0.0936  0.3415  0.3121
  744MOL0     O  363  10.622   5.373   8.174 -0.1111  0.0127 -0.3028
  744MOL0     C  364  10.540   5.264   8.126 -0.2780 -0.2133  0.4408
  744MOL0     C  365  10.524   5.282   7.969 -0.1161 -0.1033  0.1283
  744MOL0     C  366  10.457   5.155   7.921 -0.0677  0.0171  0.8912
  744MOL0     C  367  10.334   5.176   7.833 -0.2022 -0.4745 -0.2217
  744MOL0     C  368  10.216   5.216   7.911 -0.8299  0.8402  0.0272
  744MOL0     C  369  10.107   5.254   7.952  0.0246  0.3719  0.1388
  744MOL0     C  370  10.563   5.325   8.407 -0.1466 -0.9094 -0.5190
  744MOL0     C  371  10.568   5.362   8.545  0.2096 -0.0374 -0.0874
  744MOL0     C  372  10.479   5.280   8.630  0.2295 -0.7503 -0.6701
  744MOL0     H  373  10.827   5.586   8.894  1.2530 -1.1344  4.0030
  744MOL0     H  374  10.913   5.721   9.052  0.6288  2.0785 -0.6889
  744MOL0     H  375  10.756   6.056   9.266 -3.7092 -1.6927 -2.7663
  744MOL0     H  376  10.753   5.883   9.258  1.3349 -0.0814  2.6739
  744MOL0     H  377  10.929   5.990   9.411 -0.9164 -0.8858  0.2550
  744MOL0     H  378  11.010   6.035   9.260  0.2678  1.1698  1.3486
  744MOL0     H  379  11.043   5.795   9.201 -2.1032 -1.2930 -0.5431
  744MOL0     H  380  10.922   5.753   9.330 -1.8937  0.8407 -1.6499
  744MOL0     H  381  11.209   5.873   9.344 -0.6977  0.2443  0.0873
  744MOL0     H  382  11.113   5.883   9.478 -1.3506  0.1946  0.6533
  744MOL0     H  383  11.260   5.699   9.516  1.1079 -0.5402 -1.1993
  744MOL0     H  384  11.096   5.620   9.482 -1.2420  0.9653  2.0794
  744MOL0     H  385  11.166   5.581   9.253  1.1480  2.1968 -0.6460
  744MOL0     H  386  11.333   5.635   9.306  1.7435 -0.5113  4.4251
  744MOL0     H  387  11.184   5.413   9.457  2.4408  0.7253  1.9865
  744MOL0     H  388  11.354   5.460   9.446  2.3928  1.4310 -3.9771
  744MOL0     H  389  11.206   5.361   9.195  0.7431 -0.3868 -0.0374
  744MOL0     H  390  11.370   5.415   9.202  0.5970 -1.2945  0.1542
  744MOL0     H  391  11.534   5.267   9.359  0.6000  0.1000  1.9622
  744MOL0     H  392  11.490   4.889   9.471  2.3921 -3.6023 -2.9784
  744MOL0     H  393  11.602   4.937   9.342  0.3663 -0.8105  0.0084
  744MOL0     H  394  11.712   5.109   9.458  1.5676 -0.7103  0.9443
  744MOL0     H  395  11.572   5.101   9.579  0.3203  1.5062 -0.7557
  744MOL0     H  396  11.668   4.934   9.689  2.5776 -1.7955  0.6897
  744MOL0     H  397  11.815   5.032   9.649  1.9042 -2.2948 -0.4553
  744MOL0     H  398  11.853   4.867   9.455  0.5955  2.8323  0.5279
  744MOL0     H  399  11.707   4.784   9.542  1.4677 -1.7688  3.5379
  744MOL0     H  400  12.082   4.660   9.765 -1.4486  0.0597  1.3403
  744MOL0     H  401  12.156   4.437   9.730  1.6299  0.0552 -1.9504
  744MOL0     H  402  12.461   4.219   9.551 -1.1255  0.2565  0.8935
  744MOL0     H  403  12.560   4.005   9.454 -0.7222 -0.3512 -1.5954
  744MOL0     H  404  12.340   3.601   9.531 -0.9135  2.8147  1.4891
  744MOL0     H  405  12.265   3.682   9.394  0.4765  1.5012 -0.8729
  744MOL0     H  406  12.417   3.597   9.227 -0.0247  0.3296  0.2438
  744MOL0     H  407  12.546   3.572   9.346  1.0126  0.3072 -2.7707
  744MOL0     H  408  12.412   3.401   9.457 -0.6561  0.3595  0.4454
  744MOL0     H  409  12.268   3.443   9.355 -0.1513 -1.6435 -2.1143
  744MOL0     H  410  12.335   3.372   9.160 -0.3813 -1.1325 -0.2182
  744MOL0     H  411  12.329   3.239   9.258 -2.4942  1.9383  0.0231
  744MOL0     H  412  12.584   3.388   9.177 -3.6648  1.5202  0.1725
  744MOL0     H  413  12.528   3.232   9.111  1.0260 -0.0804  0.3464
  744MOL0     H  414  12.726   3.202   9.275  0.4617 -0.7331  1.7363
  744MOL0     H  415  12.621   3.294   9.387 -4.7449 -0.4098 -0.4996
  744MOL0     H  416  12.455   3.078   9.323  0.2272  0.3475 -0.8470
  744MOL0     H  417  12.499   3.148   9.474 -1.7341 -0.6655 -0.2753
  744MOL0     H  418  12.685   2.977   9.475  0.2346 -0.3334 -0.2026
  744MOL0     H  419  12.564   2.884   9.422  2.8617 -0.7455  0.6220
  744MOL0     H  420  12.208   3.792   9.568 -0.5502  0.9667 -1.9873
  744MOL0     H  421  12.101   3.987   9.623 -0.7453 -1.9489  0.4351
  744MOL0     H  422  11.941   4.415   9.366  1.5716 -0.3366 -0.8052
  744MOL0     H  423  11.822   4.635   9.420  0.4520 -0.1191 -1.9514
  744MOL0     H  424  10.674   6.050   8.946  1.0940 -0.0804  1.9625
  744MOL0     H  425  10.545   5.899   8.781  2.3571  1.7438 -1.4042
  744MOL0     H  426  10.748   5.663   8.498 -0.1667  0.4689  1.7564
  744MOL0     H  427  10.735   5.568   8.260  0.7878 -2.1271 -1.3651
  744MOL0     H  428  10.441   5.260   8.171 -1.1925 -1.1549 -1.5414
  744MOL0     H  429  10.588   5.168   8.145  3.6651  1.5533  0.4819
  744MOL0     H  430  10.618   5.290   7.912  0.4118  1.3714  1.1286
  744MOL0     H  431  10.468   5.370   7.937 -0.0485 -0.4792 -1.0690
  744MOL0     H  432  10.426   5.090   8.004 -0.8128 -1.9018 -0.7838
  744MOL0     H  433  10.529   5.095   7.866  1.3948  1.2248  1.4248
  744MOL0     H  434  10.349   5.238   7.743  1.9757 -1.8780 -0.8952
  744MOL0     H  435  10.314   5.089   7.770  1.7503  0.9422 -3.0286
  744MOL0     H  436  10.022   5.310   7.988 -2.0293 -0.2112 -3.3250
  744MOL0     H  437  10.510   5.234   8.379 -1.0344 -0.0572 -1.6813
  744MOL0     H  438  10.541   5.208   8.684  1.5005  1.4393  0.9533
  744MOL0     H  439  10.420   5.341   8.698 -0.5519 -0.4434 -1.6030
  744MOL0     H  440  10.403   5.225   8.574  0.2299  0.1740 -1.5971
  745MOL0     O  441   2.312   5.863   6.379  0.3202  0.0701 -0.1045
  745MOL0     C  442   2.311   5.803   6.271 -0.5751 -0.2743  0.4122
  745MOL0     O  443   2.212   5.722   6.218  0.1375 -0.0750 -0.5242
  745MOL0     C  444   2.109   5.692   6.298  0.2038  0.6148 -0.7327
  745MOL0     C  445   2.119   5.658   6.430 -0.8238  0.3651 -0.4165
  745MOL0     C  446   2.009   5.627   6.510 -0.1985  0.2282 -0.2454
  745MOL0     C  447   1.886   5.622   6.451  0.3971 -0.0692  0.5631
  745MOL0     O  448   1.767   5.609   6.525  0.2053  0.8214  1.0362
  745MOL0     C  449   1.765   5.616   6.670  0.4237  0.4390  0.2235
  745MOL0     C  450   1.784   5.475   6.721 -0.4078 -0.1365 -0.4781
  745MOL0     C  451   1.676   5.376   6.677 -0.7548 -0.1039 -0.5800
  745MOL0     C  452   1.541   5.432   6.730 -0.3807 -1.0663 -0.8155
  745MOL0     C  453   1.430   5.343   6.690  0.4170 -0.6025 -0.5489
  745MOL0     C  454   1.297   5.400   6.747  0.1146 -0.4519  0.7736
  745MOL0     C  455   1.181   5.294   6.742 -0.8911  0.3013 -0.2049
  745MOL0     C  456   1.040   5.364   6.738  0.6413 -0.3942 -0.3187
  745MOL0     N  457   0.924   5.274   6.757 -0.4352  0.0764  1.0858
  745MOL0     C  458   0.896   5.165   6.677  0.1319 -0.4843  1.0068
  745MOL0     C  459   0.779   5.122   6.709  0.3854  0.6405  1.4356
  745MOL0     C  460   0.693   5.005   6.654 -0.1402  0.5921 -0.5835
  745MOL0     C  461   0.745   4.970   6.514  0.1052 -0.8377 -0.0770
  745MOL0     C  462   0.629   4.946   6.420  0.4612  0.3717  0.4800
  745MOL0     C  463   0.518   4.854   6.471 -0.5544 -0.0279  0.8761
  745MOL0     O  464   0.420   4.854   6.365  0.1784 -0.4288  0.1869
  745MOL0     C  465   0.344   4.736   6.358  0.1743 -1.1832 -0.2510
  745MOL0     C  466   0.223   4.729   6.432 -0.0637 -0.6589 -0.1663
  745MOL0     C  467   0.147   4.616   6.427 -0.4614 -0.6236 -0.9128
  745MOL0     C  468   0.193   4.506   6.351 -0.0541  0.8758 -0.0422
  745MOL0     C  469   0.105   4.386   6.336 -0.5258 -0.5453 -0.0843
  745MOL0     O  470  -0.027   4.391   6.374 -0.4210 -0.3233  0.2256
  745MOL0     C  471  -0.100   4.279   6.354  0.2826  0.5015  0.3055
  745MOL0     C  472  -0.169   4.256   6.237 -0.4551  0.3967 -0.1370
  745MOL0     C  473  -0.230   4.139   6.218  1.2237  1.1646 -0.9116
  745MOL0     C  474  -0.236   4.036   6.311  0.0625 -0.4104  0.0242
  745MOL0     O  475  -0.271   3.914   6.262 -0.2855  0.0941 -0.3017
  745MOL0     C  476  -0.253   3.799   6.347 -0.2105  0.1545  0.7100
  745MOL0     C  477  -0.333   3.682   6.289 -0.1335 -0.0060 -0.4320
  745MOL0     C  478  -0.284   3.555   6.354  0.0046 -1.0216 -0.6872
  745MOL0     C  479  -0.352   3.545   6.498  0.4972 -1.0926 -0.0934
  745MOL0     C  480  -0.305   3.430   6.579  0.3474 -1.0976  0.2837
  745MOL0     C  481  -0.401   3.401   6.703  0.3511 -0.1217  1.3017
  745MOL0     C  482  -0.341   3.349   6.829 -0.0686  0.4499  0.7742
  745MOL0     C  483  -0.442   3.345   6.939 -0.4669 -0.0985 -0.3037
  745MOL0    Cl  484  -0.436   3.520   6.996 -0.0753 -0.1929 -0.1535
  745MOL0     C  485  -0.177   4.063   6.437  0.0708 -0.5015  0.5650
  745MOL0     C  486  -0.106   4.185   6.454  0.0244  0.8089  0.0401
  745MOL0     O  487   0.153   4.293   6.279  0.5720  0.3374 -0.0274
  745MOL0     C  488   0.314   4.514   6.292 -0.3318  1.1078 -0.3232
  745MOL0     C  489   0.393   4.632   6.293  0.2502  1.6213  0.4456
  745MOL0     N  490   0.743   5.201   6.813 -0.4428 -0.2843 -0.1709
  745MOL0     N  491   0.830   5.292   6.848  0.2805 -0.0547  0.6470
  745MOL0     C  492   1.866   5.646   6.312 -0.2104 -0.2710 -1.1325
  745MOL0     C  493   1.980   5.683   6.242 -0.1026 -0.1476  1.2512
  745MOL0     C  494   2.443   5.810   6.194 -1.0753  0.7862 -0.3897
  745MOL0     C  495   2.455   5.738   6.070  0.2048 -0.8906  0.5631
  745MOL0     C  496   2.578   5.726   6.001  0.5625  0.6450  1.1424
  745MOL0     C  497   2.685   5.791   6.042  0.3662  0.0746  0.3463
  745MOL0     O  498   2.795   5.793   5.961  0.7167  0.0187 -0.3443
  745MOL0     C  499   2.915   5.728   6.021 -0.2064 -0.9704 -0.2169
  745MOL0     C  500   2.932   5.591   5.949 -0.8489 -1.2839 -0.0520
  745MOL0     C  501   2.985   5.602   5.808  0.3242  0.4560  0.6031
  745MOL0     C  502   3.071   5.477   5.756  0.0793  1.1807  0.4459
  745MOL0     C  503   2.980   5.365   5.776  0.5917  0.1485  0.1921
  745MOL0     C  504   2.898   5.275   5.793 -0.5722  0.8960  0.0397
  745MOL0     C  505   2.677   5.873   6.153 -0.6862  0.2522  0.8475
  745MOL0     C  506   2.567   5.874   6.241  0.2566  0.3557  0.8469
  745MOL0     C  507   2.589   5.953   6.365  0.5871 -0.2602  0.0824
  745MOL0     H  508   2.214   5.660   6.482 -1.1524  4.2659  0.3622
  745MOL0     H  509   2.038   5.604   6.612 -3.1528  0.4403  0.7195
  745MOL0     H  510   1.843   5.685   6.704  0.0755  1.0451 -0.1745
  745MOL0     H  511   1.678   5.668   6.711  0.7762  2.0252 -0.9093
  745MOL0     H  512   1.781   5.477   6.831 -1.4739  0.6950 -0.5031
  745MOL0     H  513   1.879   5.431   6.690 -0.5501  0.8578 -2.4891
  745MOL0     H  514   1.703   5.280   6.723 -0.2171  2.1843  4.5021
  745MOL0     H  515   1.673   5.364   6.568 -0.5372  1.1551 -0.7382
  745MOL0     H  516   1.544   5.444   6.839 -0.0465  0.4438 -0.9581
  745MOL0     H  517   1.526   5.535   6.697  1.7213 -0.8972 -1.3911
  745MOL0     H  518   1.431   5.337   6.580 -0.5321 -0.8758 -0.5430
  745MOL0     H  519   1.454   5.251   6.743 -0.7493  0.7839  2.6219
  745MOL0     H  520   1.302   5.429   6.853 -1.1834 -0.9411  0.9768
  745MOL0     H  521   1.272   5.493   6.696  0.6357 -0.7879 -0.1029
  745MOL0     H  522   1.182   5.230   6.831 -0.4931  1.3480  0.5592
  745MOL0     H  523   1.194   5.240   6.648  1.0878 -0.4737  0.4671
  745MOL0     H  524   1.028   5.437   6.818 -3.0538  0.6660 -1.6139
  745MOL0     H  525   1.030   5.431   6.652 -1.4388  1.6305  1.4133
  745MOL0     H  526   0.960   5.116   6.604 -1.4108 -2.2324  0.7525
  745MOL0     H  527   0.692   4.918   6.720  0.3181  1.0673  0.0663
  745MOL0     H  528   0.592   5.045   6.660  0.2353  1.4911  0.0598
  745MOL0     H  529   0.793   5.061   6.475 -0.2467  0.2419  1.8715
  745MOL0     H  530   0.805   4.879   6.522 -2.6690 -2.8376 -0.4417
  745MOL0     H  531   0.666   4.906   6.325  0.2580 -0.7868  0.8681
  745MOL0     H  532   0.579   5.042   6.406 -0.0063  0.3381  1.8422
  745MOL0     H  533   0.481   4.880   6.571 -0.7886  3.1164  0.0675
  745MOL0     H  534   0.564   4.755   6.478  2.4466  1.2949  1.3429
  745MOL0     H  535   0.203   4.799   6.513  1.1493 -1.3239  0.7448
  745MOL0     H  536   0.052   4.601   6.478 -2.5711  2.0253 -3.7088
  745MOL0     H  537  -0.163   4.323   6.152  0.5571  1.7367  0.9410
  745MOL0     H  538  -0.281   4.124   6.123  4.5991 -1.8361 -2.4955
  745MOL0     H  539  -0.149   3.763   6.345 -0.5232 -0.8229 -1.6655
  745MOL0     H  540  -0.284   3.826   6.448 -0.1467 -1.2788  1.1279
  745MOL0     H  541  -0.439   3.691   6.313 -0.0113  0.7063 -0.1526
  745MOL0     H  542  -0.311   3.680   6.181  1.8682 -0.4645 -0.0649
  745MOL0     H  543  -0.317   3.463   6.305 -0.4049 -0.9750 -0.5019
  745MOL0     H  544  -0.176   3.544   6.365  0.2363  0.8371 -0.7824
  745MOL0     H  545  -0.457   3.540   6.468  1.0217  2.1466 -3.0441
  745MOL0     H  546  -0.348   3.641   6.550 -0.3645  1.6705 -4.6343
  745MOL0     H  547  -0.207   3.458   6.617  0.7596  0.9801 -2.0631
  745MOL0     H  548  -0.298   3.341   6.515 -0.0260 -0.5539 -0.5259
  745MOL0     H  549  -0.450   3.496   6.722 -0.0900 -0.2758  0.9555
  745MOL0     H  550  -0.472   3.319   6.690  3.0443 -2.8063  2.3461
  745MOL0     H  551  -0.262   3.414   6.868 -2.3062  4.0438 -0.2227
  745MOL0     H  552  -0.314   3.245   6.812  0.7636  0.8892 -0.7844
  745MOL0     H  553  -0.540   3.327   6.894 -1.0108  2.3242 -0.2371
  745MOL0     H  554  -0.428   3.272   7.019 -0.6968  0.9424  0.7230
  745MOL0     H  555  -0.173   3.994   6.520  2.0897 -0.7371  0.3033
  745MOL0     H  556  -0.053   4.199   6.548 -0.7774 -1.8487  1.0079
  745MOL0     H  557   0.347   4.422   6.244  1.5037 -0.0763  2.8739
  745MOL0     H  558   0.481   4.636   6.230  2.2404  2.5728  3.0985
  745MOL0     H  559   1.763   5.652   6.277 -0.2840 -0.2363 -0.9110
  745MOL0     H  560   1.963   5.713   6.139 -0.2063 -0.8331  1.0668
  745MOL0     H  561   2.372   5.685   6.025  0.6366 -0.4983 -0.7585
  745MOL0     H  562   2.587   5.673   5.906  2.5106  3.0003 -0.0921
  745MOL0     H  563   2.899   5.717   6.129 -0.5286  1.6635  0.0835
  745MOL0     H  564   3.004   5.791   6.016  0.0303 -0.7389  3.6742
  745MOL0     H  565   2.837   5.538   5.942 -0.5856 -1.5330 -2.9214
  745MOL0     H  566   3.006   5.534   6.006  2.2946  1.3348 -1.2087
  745MOL0     H  567   3.036   5.698   5.796 -2.1178  1.8513  0.8440
  745MOL0     H  568   2.897   5.616   5.746  0.4201 -1.9050 -0.1632
  745MOL0     H  569   3.096   5.498   5.651 -1.2829  3.9565  0.6122
  745MOL0     H  570   3.173   5.459   5.790 -0.0671  0.8976  0.7465
  745MOL0     H  571   2.830   5.194   5.806 -0.2173  0.1011 -2.5153
  745MOL0     H  572   2.764   5.935   6.173  1.6229 -1.2360 -3.3435
  745MOL0     H  573   2.517   6.034   6.376 -0.4546 -1.5518  4.8545
  745MOL0     H  574   2.573   5.877   6.442 -3.0760  0.0234 -0.1990
  745MOL0     H  575   2.691   5.992   6.360  0.5293 -0.1792 -0.6578
  746MOL0     O  576   4.545  10.243   0.652 -0.4525  0.1155 -0.9184
  746MOL0     C  577   4.538  10.177   0.549  0.3675  0.6250 -0.2849
  746MOL0     O  578   4.648  10.152   0.465 -0.3611  0.1392 -0.1948
  746MOL0     C  579   4.762  10.214   0.494  0.1620  0.0017 -0.0852
  746MOL0     C  580   4.881  10.143   0.522  0.4841 -0.2995 -0.3690
  746MOL0     C  581   5.000  10.209   0.532  1.2496 -0.3333 -0.7865
  746MOL0     C  582   5.004  10.348   0.511 -0.4670 -0.1419  0.0954
  746MOL0     O  583   5.120  10.423   0.502 -0.3620  0.2735  0.8234
  746MOL0     C  584   5.241  10.350   0.520  0.2612  0.1916 -0.3553
  746MOL0     C  585   5.351  10.467   0.519  1.3693  0.4443 -0.4021
  746MOL0     C  586   5.350  10.574   0.637 -0.2956 -0.7329 -0.1510
  746MOL0     C  587   5.494  10.595   0.681  0.6712  0.2019  0.5915
  746MOL0     C  588   5.507  10.698   0.786 -0.5643  0.7111 -0.8396
  746MOL0     C  589   5.436  10.674   0.920  0.5847 -0.3737  0.5730
  746MOL0     C  590   5.508  10.549   0.994 -0.0017 -0.3020  0.7916
  746MOL0     C  591   5.532  10.590   1.139  0.0194  0.3037 -0.1026
  746MOL0     N  592   5.655  10.663   1.162  0.0913 -0.4809 -0.2785
  746MOL0     C  593   5.780  10.611   1.171 -0.2685  1.2083 -0.0083
  746MOL0     C  594   5.866  10.709   1.163  0.5458 -0.3965  0.5169
  746MOL0     C  595   6.016  10.721   1.173  0.1454  0.5937 -0.3197
  746MOL0     C  596   6.091  10.723   1.040 -0.0860 -0.1418  0.2833
  746MOL0     C  597   6.056  10.602   0.948 -0.0917 -0.1463 -0.0931
  746MOL0     C  598   5.920  10.620   0.865  0.0002  0.4423  0.1332
  746MOL0     O  599   5.928  10.577   0.734 -0.2002  0.3478 -0.3346
  746MOL0     C  600   5.853  10.466   0.697 -0.0062 -0.4126  0.2167
  746MOL0     C  601   5.808  10.367   0.780  1.3175  0.3336 -0.2356
  746MOL0     C  602   5.733  10.256   0.739 -0.6597  0.1333  0.1037
  746MOL0     C  603   5.689  10.246   0.607 -0.3749  0.5711 -0.5140
  746MOL0     C  604   5.590  10.141   0.565 -0.3113  0.1117 -0.0563
  746MOL0     O  605   5.571  10.144   0.425  0.1142 -0.3267 -0.8684
  746MOL0     C  606   5.466  10.093   0.353  0.2967  0.5589  0.7596
  746MOL0     C  607   5.482  10.087   0.214 -0.8715  0.4988  0.6180
  746MOL0     C  608   5.372  10.055   0.130  0.2174 -0.0038 -0.7733
  746MOL0     C  609   5.244  10.038   0.188  0.4604  0.7374 -1.0321
  746MOL0     O  610   5.134   9.999   0.113 -0.4193  0.4569 -0.0886
  746MOL0     C  611   5.006  10.061   0.133  0.0497 -0.9429 -0.3358
  746MOL0     C  612   4.910  10.034   0.017  0.0855 -0.1723 -0.5035
  746MOL0     C  613   4.960  10.121  -0.093  0.3191 -0.1731 -0.4192
  746MOL0     C  614   4.890  10.078  -0.223 -0.2096  0.2591  0.4642
  746MOL0     C  615   4.893  10.194  -0.324  0.2879  0.4381 -0.7525
  746MOL0     C  616   4.841  10.147  -0.464 -0.0543 -1.0512 -0.0173
  746MOL0     C  617   4.842  10.256  -0.574  0.0325  0.1387  0.1839
  746MOL0     C  618   4.967  10.335  -0.591  0.0345  0.2138 -1.7479
  746MOL0    Cl  619   4.956  10.452  -0.735 -0.0213  0.1751 -0.2157
  746MOL0     C  620   5.232  10.022   0.328 -0.3862 -0.5693  0.1077
  746MOL0     C  621   5.347  10.044   0.404 -0.3251 -0.3847 -0.0436
  746MOL0     O  622   5.547  10.060   0.650 -0.5997 -0.0146  0.4480
  746MOL0     C  623   5.739  10.346   0.517  0.3276  0.4272  0.3988
  746MOL0     C  624   5.822  10.447   0.561 -0.7514  0.3058  0.4231
  746MOL0     N  625   5.796  10.827   1.149  0.3744 -0.5347 -0.5018
  746MOL0     N  626   5.672  10.798   1.142  0.0648  0.0366  0.5249
  746MOL0     C  627   4.885  10.419   0.489 -0.4987 -0.1719 -0.0738
  746MOL0     C  628   4.765  10.352   0.477 -0.3566 -0.0945  0.3972
  746MOL0     C  629   4.406  10.144   0.495  0.0827  0.2233  0.5684
  746MOL0     C  630   4.380  10.180   0.362 -0.0040 -0.4365 -0.8631
  746MOL0     C  631   4.261  10.127   0.303  0.5729  0.2816  0.4722
  746MOL0     C  632   4.164  10.050   0.374 -0.1392 -0.2704  0.0801
  746MOL0     O  633   4.049  10.011   0.323 -0.4150 -0.5994  0.2388
  746MOL0     C  634   4.013  10.026   0.185  0.6324 -1.2203 -0.1104
  746MOL0     C  635   3.896   9.934   0.153  0.0095 -0.3447  0.2662
  746MOL0     C  636   3.941   9.799   0.158 -0.0044  0.1202 -0.4325
  746MOL0     C  637   3.925   9.731   0.296  0.0820  0.4018  0.7339
  746MOL0     C  638   3.945   9.587   0.293 -0.3172  0.0935 -0.5746
  746MOL0     C  639   3.969   9.472   0.289  0.4672 -0.3506  0.4616
  746MOL0     C  640   4.193  10.023   0.513 -0.4996  0.2728 -0.1965
  746MOL0     C  641   4.316  10.059   0.566 -0.0142  0.2934 -0.0246
  746MOL0     C  642   4.339  10.026   0.712 -0.9202  0.6400  0.3391
  746MOL0     H  643   4.877  10.035   0.533  0.6140 -0.1586  1.2324
  746MOL0     H  644   5.089  10.149   0.551  2.2554  1.4338  0.4741
  746MOL0     H  645   5.252  10.296   0.614  2.2257  3.8601  1.7753
  746MOL0     H  646   5.257  10.296   0.426 -0.0411 -1.1365  0.3335
  746MOL0     H  647   5.323  10.525   0.430  0.9487 -1.6295 -1.7109
  746MOL0     H  648   5.447  10.417   0.500  0.6088 -1.7503  1.1257
  746MOL0     H  649   5.291  10.528   0.717 -1.0841 -0.6728 -0.6890
  746MOL0     H  650   5.309  10.673   0.613  1.4087  1.0471  3.5250
  746MOL0     H  651   5.543  10.499   0.702  2.5967  1.4097  1.9029
  746MOL0     H  652   5.550  10.627   0.593  2.7746 -0.6204  1.5718
  746MOL0     H  653   5.613  10.714   0.806 -0.7586 -2.1257  3.6727
  746MOL0     H  654   5.474  10.795   0.748 -2.8199  0.2112 -0.2776
  746MOL0     H  655   5.446  10.766   0.978  0.3501 -2.3183  3.9596
  746MOL0     H  656   5.329  10.653   0.903  0.7723 -1.7465  0.9572
  746MOL0     H  657   5.597  10.513   0.942  1.0908  2.2418  0.7514
  746MOL0     H  658   5.440  10.463   0.988  0.3882 -0.5149 -1.7652
  746MOL0     H  659   5.445  10.647   1.175 -1.1733 -1.2745 -0.4001
  746MOL0     H  660   5.531  10.504   1.207  0.0504 -0.7202 -1.3673
  746MOL0     H  661   5.812  10.512   1.203  0.4241  1.9815  1.8241
  746MOL0     H  662   6.031  10.813   1.232 -1.9998  0.1119  1.1197
  746MOL0     H  663   6.047  10.634   1.232 -1.9630 -0.5445 -0.7966
  746MOL0     H  664   6.079  10.821   0.994  3.8668 -0.4336 -1.8009
  746MOL0     H  665   6.200  10.718   1.053  0.0800 -2.5295 -1.3105
  746MOL0     H  666   6.066  10.522   1.022  0.1619  1.4481  1.6496
  746MOL0     H  667   6.141  10.581   0.882  0.1269  1.0258 -0.1945
  746MOL0     H  668   5.887  10.725   0.865  0.9230  0.8523 -2.7469
  746MOL0     H  669   5.836  10.569   0.912  1.2646 -1.0932  0.8202
  746MOL0     H  670   5.852  10.358   0.879  1.9509 -0.4555 -0.5783
  746MOL0     H  671   5.695  10.185   0.813 -1.9117  0.9878  0.3016
  746MOL0     H  672   5.580  10.099   0.169 -0.7365 -3.6609 -0.5909
  746MOL0     H  673   5.394  10.048   0.024  1.4428  0.9182 -0.6014
  746MOL0     H  674   4.961  10.018   0.224 -1.4336 -0.8643 -0.9977
  746MOL0     H  675   5.020  10.167   0.153 -1.7292 -0.2414 -2.4127
  746MOL0     H  676   4.922   9.927  -0.003  1.0813 -0.1597 -0.0489
  746MOL0     H  677   4.808  10.048   0.053 -0.7456 -5.2862 -0.1187
  746MOL0     H  678   4.951  10.228  -0.072 -1.1860 -0.3014 -0.3581
  746MOL0     H  679   5.067  10.104  -0.107  1.0673  0.5146  3.3225
  746MOL0     H  680   4.786  10.049  -0.203  0.3307  0.0936  3.6327
  746MOL0     H  681   4.942   9.995  -0.271  1.1830  0.8636  0.8899
  746MOL0     H  682   4.998  10.222  -0.335  0.6025  0.2121  1.2631
  746MOL0     H  683   4.840  10.282  -0.286  1.6119  2.1222 -2.5553
  746MOL0     H  684   4.902  10.062  -0.496  2.7049 -0.9960  4.3405
  746MOL0     H  685   4.741  10.102  -0.466 -0.5766  0.0676  0.1302
  746MOL0     H  686   4.755  10.320  -0.553  0.5093  0.3783  1.5147
  746MOL0     H  687   4.823  10.197  -0.664  0.8838  1.4506 -0.8867
  746MOL0     H  688   4.993  10.394  -0.502  1.8157  0.9801 -2.7358
  746MOL0     H  689   5.053  10.268  -0.597 -0.4240 -0.3563 -2.0330
  746MOL0     H  690   5.143   9.993   0.383  0.4392 -1.2372  1.1491
  746MOL0     H  691   5.336  10.029   0.511  0.6290 -1.1591 -0.0398
  746MOL0     H  692   5.719  10.332   0.412 -1.5710  0.9312  0.6564
  746MOL0     H  693   5.863  10.528   0.500 -3.0792  2.2312  1.2336
  746MOL0     H  694   4.882  10.526   0.473 -1.6081 -0.4243 -1.8122
  746MOL0     H  695   4.676  10.409   0.456 -1.2953 -1.5671  0.2033
  746MOL0     H  696   4.446  10.246   0.307  1.2553 -0.0075  1.0738
  746MOL0     H  697   4.258  10.156   0.199 -0.5819 -1.1493  0.0787
  746MOL0     H  698   4.102  10.006   0.125  1.2658 -1.5473  0.9122
  746MOL0     H  699   3.983  10.129   0.164  0.6297 -1.3672 -0.8257
  746MOL0     H  700   3.880   9.954   0.047  1.3269 -1.8004 -0.2264
  746MOL0     H  701   3.808   9.963   0.212  0.3392  3.1505 -0.7092
  746MOL0     H  702   4.047   9.782   0.135  0.4283  0.4195  1.2268
  746MOL0     H  703   3.897   9.741   0.076 -1.7243  2.5879 -1.3822
  746MOL0     H  704   4.005   9.758   0.365  0.9050 -2.2718  0.9328
  746MOL0     H  705   3.824   9.754   0.331 -0.5569  2.1465 -1.9453
  746MOL0     H  706   3.984   9.366   0.284 -3.5921 -1.0811  0.7857
  746MOL0     H  707   4.123   9.969   0.574  1.9720 -0.7350  1.9265
  746MOL0     H  708   4.446  10.007   0.724 -1.1324 -2.1057 -1.1161
  746MOL0     H  709   4.297  10.111   0.766 -1.5207  0.7527 -0.2925
  746MOL0     H  710   4.297   9.927   0.734 -1.7052  0.8402 -0.2318
  747MOL0     O  711   2.561   2.655   8.527  0.5699 -0.4616  0.8553
  747MOL0     C  712   2.683   2.643   8.514  0.1337  0.3682 -0.4111
  747MOL0     O  713   2.763   2.547   8.574  0.5736  0.4853 -0.0317
  747MOL0     C  714   2.724   2.451   8.668  0.3955  0.9514  0.2205
  747MOL0     C  715   2.593   2.416   8.692 -0.1658  0.0832  0.0058
  747MOL0     C  716   2.557   2.306   8.773  0.2110 -0.0351 -0.5060
  747MOL0     C  717   2.653   2.218   8.822  0.1121  0.5059  0.0592
  747MOL0     O  718   2.611   2.097   8.879  0.6009 -0.5017 -0.5257
  747MOL0     C  719   2.702   2.027   8.965 -0.0187 -1.0101  0.2925
  747MOL0     C  720   2.638   1.924   9.055 -0.8525  0.5691 -0.6658
  747MOL0     C  721   2.537   1.831   8.987 -0.3810 -0.4169 -0.0350
  747MOL0     C  722   2.461   1.750   9.097 -0.0722 -0.4727  0.1394
  747MOL0     C  723   2.361   1.662   9.019  0.2458  0.0913  0.2099
  747MOL0     C  724   2.277   1.579   9.113  0.6918 -0.3984 -0.4326
  747MOL0     C  725   2.150   1.506   9.059 -0.0708 -0.4694 -0.1371
  747MOL0     C  726   2.049   1.459   9.168  0.0686 -0.0128 -0.2720
  747MOL0     N  727   2.100   1.356   9.257  0.0137  0.3930  0.0176
  747MOL0     C  728   2.057   1.228   9.253  0.0988 -0.7248 -0.3367
  747MOL0     C  729   2.109   1.169   9.371  0.6121  0.2057  0.4180
  747MOL0     C  730   2.082   1.028   9.413  0.4850  0.4207  0.3674
  747MOL0     C  731   1.943   1.022   9.470 -0.3688  0.2617  0.8635
  747MOL0     C  732   1.913   1.111   9.598  0.8603  0.1521  0.6318
  747MOL0     C  733   1.986   1.053   9.719 -0.1137 -0.4480  0.0678
  747MOL0     O  734   2.112   1.133   9.729 -0.1197  0.8641 -0.5609
  747MOL0     C  735   2.199   1.097   9.831 -0.3351  0.4074  0.9948
  747MOL0     C  736   2.323   1.157   9.828  1.1744 -0.3907 -0.6031
  747MOL0     C  737   2.403   1.137   9.937 -0.7227  0.5501 -0.9665
  747MOL0     C  738   2.391   1.022  10.021 -0.0112 -0.1320 -0.2250
  747MOL0     C  739   2.500   0.964  10.104 -0.1059 -0.2339 -0.3464
  747MOL0     O  740   2.458   0.906  10.216  0.5650  0.3882 -0.0404
  747MOL0     C  741   2.549   0.873  10.306  1.1502  0.1009 -0.1638
  747MOL0     C  742   2.563   0.734  10.324 -0.0445 -0.5916  0.4937
  747MOL0     C  743   2.643   0.685  10.427  0.0552 -0.6202  0.1097
  747MOL0     C  744   2.718   0.773  10.499 -0.5631  0.3454  0.1191
  747MOL0     O  745   2.793   0.728  10.604 -0.3274 -0.8543  0.4607
  747MOL0     C  746   2.828   0.587  10.613  0.6308 -0.8453  0.3685
  747MOL0     C  747   2.941   0.565  10.713 -0.4043 -0.0983  0.4685
  747MOL0     C  748   2.909   0.615  10.861  0.2591 -0.2972 -0.1135
  747MOL0     C  749   2.982   0.740  10.908 -0.2812  1.0332  0.1374
  747MOL0     C  750   2.934   0.788  11.052  0.0620  0.5590 -0.0302
  747MOL0     C  751   2.951   0.690  11.168  0.2798 -0.2338 -0.0664
  747MOL0     C  752   2.884   0.739  11.295  0.1611 -0.2314  0.6991
  747MOL0     C  753   2.918   0.666  11.419  0.4569  0.6173 -0.8455
  747MOL0    Cl  754   3.086   0.688  11.448 -0.5550 -0.3074 -0.3310
  747MOL0     C  755   2.707   0.909  10.477  1.3184 -0.6420  0.3647
  747MOL0     C  756   2.620   0.961  10.377  0.2508 -0.2970 -0.0183
  747MOL0     O  757   2.621   0.989  10.066 -0.0426 -0.0795  0.8337
  747MOL0     C  758   2.260   0.964  10.019  0.0333 -0.2269  0.4478
  747MOL0     C  759   2.166   1.008   9.927 -0.1574  0.3742  0.6036
  747MOL0     N  760   2.181   1.265   9.428 -0.9417 -0.3993 -0.2469
  747MOL0     N  761   2.174   1.375   9.368 -0.2091 -0.6177 -0.5113
  747MOL0     C  762   2.787   2.252   8.797  0.0252 -0.0649 -0.3659
  747MOL0     C  763   2.822   2.370   8.731  0.4236 -0.4177 -0.4045
  747MOL0     C  764   2.743   2.751   8.439 -0.2854  0.2292 -0.6839
  747MOL0     C  765   2.863   2.798   8.489  0.6319 -0.8363 -0.6847
  747MOL0     C  766   2.937   2.895   8.423  0.0000 -0.6356 -0.2579
  747MOL0     C  767   2.878   2.953   8.309  0.6533 -0.8694 -0.4277
  747MOL0     O  768   2.952   3.046   8.241  0.2076  0.2920 -0.0922
  747MOL0     C  769   2.884   3.157   8.181  0.4127 -0.1739  0.5325
  747MOL0     C  770   2.871   3.125   8.029 -1.0790 -0.5712  0.6618
  747MOL0     C  771   2.985   3.061   7.947  0.0339  1.1862  1.5944
  747MOL0     C  772   3.122   3.125   7.960  0.5722  0.1972 -0.5827
  747MOL0     C  773   3.226   3.035   7.899  0.0558 -0.5805 -0.3006
  747MOL0     C  774   3.308   2.973   7.830  0.1053  0.0549 -0.2872
  747MOL0     C  775   2.758   2.898   8.260 -1.0054  0.4578 -0.4745
  747MOL0     C  776   2.694   2.797   8.319 -0.0407  0.5549  1.0282
  747MOL0     C  777   2.585   2.735   8.229 -0.0815  0.1843 -0.0590
  747MOL0     H  778   2.514   2.470   8.642 -0.6751  0.7694  1.4887
  747MOL0     H  779   2.458   2.262   8.784  0.4819 -0.9535 -1.6011
  747MOL0     H  780   2.771   1.975   8.899  0.7121  0.2801  0.0088
  747MOL0     H  781   2.765   2.089   9.030  3.2879 -1.0179 -2.6240
  747MOL0     H  782   2.587   1.973   9.138  0.9041 -0.7027  1.2667
  747MOL0     H  783   2.721   1.863   9.089 -2.9028 -1.3800  1.1617
  747MOL0     H  784   2.579   1.762   8.913 -0.7073  0.5738 -1.1677
  747MOL0     H  785   2.471   1.883   8.918  0.9383  1.3712 -0.0013
  747MOL0     H  786   2.533   1.689   9.153  2.2497  2.3712  0.4659
  747MOL0     H  787   2.415   1.808   9.177  0.9456 -0.3457  0.6485
  747MOL0     H  788   2.297   1.717   8.950 -1.1923 -3.3312 -1.4613
  747MOL0     H  789   2.421   1.580   8.977 -3.0991 -4.1471  2.8608
  747MOL0     H  790   2.342   1.499   9.150  0.5361 -0.1531  0.3873
  747MOL0     H  791   2.234   1.643   9.191  0.7961  0.0619 -0.7495
  747MOL0     H  792   2.173   1.420   8.995  1.7281 -2.0582  2.4507
  747MOL0     H  793   2.100   1.578   8.992  0.8573 -2.0975 -2.7432
  747MOL0     H  794   2.017   1.540   9.234 -4.6787 -3.1109  1.7802
  747MOL0     H  795   1.962   1.416   9.116  0.7357  2.5896 -3.9400
  747MOL0     H  796   1.984   1.187   9.185  2.7485 -2.5254 -2.3083
  747MOL0     H  797   2.093   0.970   9.321 -2.3381 -0.5299  0.5377
  747MOL0     H  798   2.156   0.995   9.486 -0.5581 -2.8090  0.1278
  747MOL0     H  799   1.873   1.031   9.387  0.6607  1.6151  0.1008
  747MOL0     H  800   1.923   0.917   9.497 -0.8073  0.8172  2.8934
  747MOL0     H  801   1.804   1.111   9.604  0.4984  1.1046 -3.0507
  747MOL0     H  802   1.955   1.212   9.588  0.2874  0.2955 -0.4226
  747MOL0     H  803   2.013   0.947   9.712  4.5643  0.6314 -2.7645
  747MOL0     H  804   1.924   1.055   9.809 -2.7111 -0.6086 -1.6030
  747MOL0     H  805   2.335   1.237   9.755 -1.1762  0.1980 -0.4234
  747MOL0     H  806   2.506   1.173   9.938  0.5941 -2.8019  1.2997
  747MOL0     H  807   2.503   0.664  10.268  2.9587 -2.1331 -1.0245
  747MOL0     H  808   2.646   0.578  10.438  0.0331 -0.7010 -0.6146
  747MOL0     H  809   2.747   0.519  10.639 -1.2911  0.5780 -1.4501
  747MOL0     H  810   2.863   0.560  10.513  0.9498  0.8089 -0.0105
  747MOL0     H  811   2.965   0.458  10.712  2.5255  0.4773 -0.1256
  747MOL0     H  812   3.029   0.613  10.670 -1.3480 -0.1299 -1.6081
  747MOL0     H  813   2.803   0.615  10.888  0.7238 -3.4784  2.2909
  747MOL0     H  814   2.954   0.534  10.918 -0.8217  1.0302  2.8037
  747MOL0     H  815   2.967   0.828  10.845  0.5214  1.3609  0.3892
  747MOL0     H  816   3.091   0.739  10.899 -0.3238 -0.4825 -0.3397
  747MOL0     H  817   2.826   0.807  11.052  0.2351  1.6420  1.0724
  747MOL0     H  818   2.988   0.880  11.074  2.1624 -1.6216  5.8539
  747MOL0     H  819   2.905   0.596  11.134 -0.5671 -0.0967  0.6800
  747MOL0     H  820   3.055   0.663  11.188 -0.5452 -3.8723  0.0451
  747MOL0     H  821   2.776   0.748  11.280  0.5459  2.3001 -1.1917
  747MOL0     H  822   2.918   0.842  11.314 -0.9844  0.3737 -0.3907
  747MOL0     H  823   2.868   0.720  11.500 -0.2240  2.7187 -2.5469
  747MOL0     H  824   2.902   0.558  11.422  0.8620  0.4883 -2.4669
  747MOL0     H  825   2.781   0.979  10.515 -0.6966  1.4384  0.7391
  747MOL0     H  826   2.619   1.066  10.348  1.4722 -0.9584 -2.7685
  747MOL0     H  827   2.237   0.878  10.081 -2.1580  0.8161  1.1915
  747MOL0     H  828   2.071   0.958   9.942  0.6481 -1.3973  0.1409
  747MOL0     H  829   2.874   2.197   8.833  0.6782  2.0442  1.5328
  747MOL0     H  830   2.922   2.403   8.705  0.9179 -2.1228 -0.8071
  747MOL0     H  831   2.907   2.764   8.582  0.4459  1.5323  0.3406
  747MOL0     H  832   3.030   2.941   8.452 -0.0299 -1.6376  1.6037
  747MOL0     H  833   2.949   3.244   8.196  1.0955  0.0956 -3.1056
  747MOL0     H  834   2.786   3.175   8.226 -0.0007  1.0954 -0.8029
  747MOL0     H  835   2.854   3.223   7.982  0.7249  0.0881  1.3030
  747MOL0     H  836   2.784   3.060   8.014 -2.2520  0.6552  1.8503
  747MOL0     H  837   2.959   3.071   7.842  1.7635  0.9193  1.1214
  747MOL0     H  838   2.985   2.954   7.971 -1.7203  0.7741  0.0352
  747MOL0     H  839   3.132   3.218   7.904 -2.1990  0.1769 -1.2564
  747MOL0     H  840   3.140   3.143   8.066 -0.8231 -1.9374  0.0811
  747MOL0     H  841   3.377   2.911   7.776  0.3380  0.8930 -0.9899
  747MOL0     H  842   2.725   2.950   8.171  0.2027  1.2528 -0.4713
  747MOL0     H  843   2.529   2.659   8.283 -0.4131  1.0200  0.7943
  747MOL0     H  844   2.518   2.805   8.178  0.7868  2.0762  1.2668
  747MOL0     H  845   2.637   2.679   8.151 -2.4047 -3.2855  0.6749
  748MOL0     O  846   5.718  11.353   6.153  0.9498 -0.2537  0.3326
  748MOL0     C  847   5.761  11.466   6.173  0.8442  0.2492 -0.9641
  748MOL0     O  848   5.819  11.551   6.082 -0.3156 -1.0416 -0.2686
  748MOL0     C  849   5.817  11.546   5.942 -0.0843 -0.4515 -0.0483
  748MOL0     C  850   5.776  11.440   5.860  0.4737 -0.6041 -0.2830
  748MOL0     C  851   5.777  11.459   5.722 -0.7313 -0.0382  0.7760
  748MOL0     C  852   5.810  11.584   5.663  0.0925  0.7250 -0.2404
  748MOL0     O  853   5.821  11.615   5.529 -0.2963  0.6131  0.3179
  748MOL0     C  854   5.837  11.511   5.431  0.0213  0.7703 -0.0888
  748MOL0     C  855   5.890  11.581   5.311  0.2309  1.2552  0.1514
  748MOL0     C  856   5.895  11.472   5.198 -0.0075 -0.1142  0.6792
  748MOL0     C  857   5.957  11.530   5.065  0.1379 -0.9325  0.0956
  748MOL0     C  858   5.975  11.416   4.975 -0.6284  0.3100  0.8933
  748MOL0     C  859   6.019  11.464   4.832  0.6076 -0.0508 -0.2594
  748MOL0     C  860   6.160  11.518   4.831  0.2800 -1.1238  0.8293
  748MOL0     C  861   6.219  11.519   4.691 -0.6193  1.1764 -0.9227
  748MOL0     N  862   6.356  11.576   4.692  0.4895 -0.3854 -0.0955
  748MOL0     C  863   6.383  11.712   4.715 -0.1514  0.1285 -0.7091
  748MOL0     C  864   6.511  11.721   4.672 -0.4238 -0.3323 -0.2706
  748MOL0     C  865   6.590  11.851   4.671 -0.1088  0.4581  0.7923
  748MOL0     C  866   6.659  11.883   4.809  0.6552 -0.4463  0.4409
  748MOL0     C  867   6.559  11.896   4.931  0.0050  0.2599 -1.4398
  748MOL0     C  868   6.634  11.954   5.064  0.2938  0.5516  1.1385
  748MOL0     O  869   6.645  12.095   5.051 -0.1119  0.2053  0.4728
  748MOL0     C  870   6.625  12.163   5.164  0.1072 -0.6087 -0.2403
  748MOL0     C  871   6.716  12.146   5.269  0.2703 -0.0100 -0.0683
  748MOL0     C  872   6.710  12.224   5.387  0.3831  0.0116  0.5444
  748MOL0     C  873   6.625  12.332   5.399  0.3292 -0.7943  0.3322
  748MOL0     C  874   6.652  12.427   5.519 -0.0641  0.1436 -1.0993
  748MOL0     O  875   6.783  12.419   5.569 -0.1066 -0.3165 -0.5734
  748MOL0     C  876   6.820  12.470   5.691  0.1532  0.9128 -0.4372
  748MOL0     C  877   6.728  12.507   5.793  0.5890  0.0585 -0.5852
  748MOL0     C  878   6.758  12.562   5.914  0.9017  0.1333 -0.4395
  748MOL0     C  879   6.891  12.581   5.938  0.6874  0.2616  0.1141
  748MOL0     O  880   6.909  12.637   6.059  0.2501  0.4998  0.4894
  748MOL0     C  881   7.037  12.616   6.122 -0.4126 -0.0646 -0.2346
  748MOL0     C  882   7.027  12.624   6.269 -0.7216  0.1414 -0.2776
  748MOL0     C  883   7.161  12.563   6.333  0.1815  1.0204  0.6940
  748MOL0     C  884   7.297  12.635   6.289  0.2689  0.5797  0.9321
  748MOL0     C  885   7.424  12.573   6.347  0.5939  0.9443 -0.5079
  748MOL0     C  886   7.451  12.432   6.292  1.1804 -0.9122  0.1966
  748MOL0     C  887   7.573  12.359   6.304 -0.0135 -0.3482 -0.4895
  748MOL0     C  888   7.610  12.280   6.429 -0.5469 -0.6227 -0.6169
  748MOL0    Cl  889   7.504  12.151   6.471 -0.2594 -0.3215 -0.2091
  748MOL0     C  890   6.990  12.542   5.843 -0.1877  0.1342 -0.2494
  748MOL0     C  891   6.956  12.489   5.720 -0.0236 -0.2365 -0.2174
  748MOL0     O  892   6.568  12.505   5.559  0.0638 -0.0933  0.1675
  748MOL0     C  893   6.530  12.353   5.297 -1.1996 -0.2760  0.6060
  748MOL0     C  894   6.532  12.271   5.186 -0.7175 -0.1603 -0.1613
  748MOL0     N  895   6.558  11.600   4.623 -0.1564 -0.0370  0.6956
  748MOL0     N  896   6.464  11.510   4.638 -0.4028  0.6253  0.1096
  748MOL0     C  897   5.866  11.679   5.745  0.0913 -0.2398 -0.1865
  748MOL0     C  898   5.874  11.662   5.883 -0.2334  0.7227  0.3101
  748MOL0     C  899   5.753  11.519   6.316  0.5165 -0.6667  0.6351
  748MOL0     C  900   5.827  11.629   6.350  0.5519  0.3860 -0.1554
  748MOL0     C  901   5.818  11.688   6.472 -0.5109 -0.4285  0.1340
  748MOL0     C  902   5.733  11.637   6.565  0.1863 -0.2225  1.1804
  748MOL0     O  903   5.718  11.706   6.681 -0.4414  0.3124 -0.2461
  748MOL0     C  904   5.601  11.687   6.764  0.2441 -0.3629 -0.3116
  748MOL0     C  905   5.640  11.673   6.911  0.2641  0.2283  0.6118
  748MOL0     C  906   5.720  11.795   6.966  0.4858 -0.7270 -0.1317
  748MOL0     C  907   5.826  11.747   7.061 -0.1123  0.2850  0.6144
  748MOL0     C  908   5.895  11.855   7.125 -0.1235  1.3822  0.5330
  748MOL0     C  909   5.965  11.935   7.193  0.5744 -0.3653  0.9471
  748MOL0     C  910   5.668  11.522   6.539 -0.1655  0.1332  1.7549
  748MOL0     C  911   5.664  11.466   6.409  0.6208 -0.5510  0.8565
  748MOL0     C  912   5.564  11.347   6.384  0.5637  0.3585  0.1429
  748MOL0     H  913   5.740  11.343   5.894  0.7054 -0.6872 -0.2705
  748MOL0     H  914   5.753  11.377   5.655  0.5359 -0.3195  0.6510
  748MOL0     H  915   5.906  11.434   5.468 -3.0069 -1.8739  0.4526
  748MOL0     H  916   5.738  11.466   5.424  1.6744 -3.0848 -1.0668
  748MOL0     H  917   5.985  11.625   5.341 -0.6254  1.7425  2.3990
  748MOL0     H  918   5.814  11.652   5.277 -0.4442 -0.2836 -1.7316
  748MOL0     H  919   5.795  11.432   5.179 -0.1017  0.3424  0.1986
  748MOL0     H  920   5.951  11.384   5.232 -0.6625 -0.7528  0.1306
  748MOL0     H  921   5.899  11.609   5.018  1.0566 -0.4124 -0.1959
  748MOL0     H  922   6.053  11.576   5.091  1.0124 -2.3805 -0.4476
  748MOL0     H  923   6.059  11.356   5.013  2.6133  4.4275  0.8993
  748MOL0     H  924   5.884  11.355   4.974 -0.3998 -0.0538 -0.9549
  748MOL0     H  925   6.008  11.372   4.773  0.5133  0.2900 -0.7805
  748MOL0     H  926   5.950  11.539   4.792  2.9952  2.8877  0.7457
  748MOL0     H  927   6.231  11.456   4.887  1.2560 -2.0912 -1.3245
  748MOL0     H  928   6.167  11.616   4.878  0.6800 -1.6963  1.9818
  748MOL0     H  929   6.222  11.414   4.661 -2.7156  0.1337  2.0345
  748MOL0     H  930   6.146  11.566   4.624 -2.1067 -0.5840 -0.6140
  748MOL0     H  931   6.316  11.790   4.747  1.9250  2.0732 -0.8698
  748MOL0     H  932   6.660  11.850   4.586  0.5441 -1.5294  1.2953
  748MOL0     H  933   6.509  11.922   4.654  0.1154  0.5573  0.1033
  748MOL0     H  934   6.730  11.801   4.821  1.7138 -0.1718 -2.7861
  748MOL0     H  935   6.713  11.977   4.798  0.3866 -0.4228 -0.8161
  748MOL0     H  936   6.527  11.792   4.946 -1.0509  0.6489 -0.9335
  748MOL0     H  937   6.471  11.960   4.921  1.0476  1.7773 -1.2204
  748MOL0     H  938   6.727  11.898   5.071 -0.4119 -0.7362  0.6587
  748MOL0     H  939   6.585  11.933   5.159 -1.2222 -1.6590 -0.0508
  748MOL0     H  940   6.792  12.069   5.278  0.7919  0.5462  0.4570
  748MOL0     H  941   6.785  12.200   5.461  0.5802  0.2289  0.4145
  748MOL0     H  942   6.620  12.496   5.784  0.6382 -0.4859 -0.5723
  748MOL0     H  943   6.676  12.590   5.978  1.5241  0.3981  0.2571
  748MOL0     H  944   7.078  12.520   6.088 -1.4546 -0.4143 -0.5773
  748MOL0     H  945   7.112  12.687   6.086 -0.0621 -0.2174  0.1927
  748MOL0     H  946   7.023  12.732   6.287  1.8150  0.6261 -2.1361
  748MOL0     H  947   6.936  12.578   6.309 -2.2384  3.6558  0.6878
  748MOL0     H  948   7.156  12.571   6.442 -2.5887 -1.0045  0.8486
  748MOL0     H  949   7.171  12.454   6.321  0.2505  0.8430  2.1043
  748MOL0     H  950   7.275  12.740   6.309 -0.2138  0.6812 -0.0440
  748MOL0     H  951   7.291  12.648   6.181 -4.3109 -2.4547  0.5563
  748MOL0     H  952   7.430  12.550   6.453  0.8433  2.8309 -0.0701
  748MOL0     H  953   7.501  12.650   6.336  0.4190  1.0365 -1.1705
  748MOL0     H  954   7.368  12.374   6.334 -1.7365  1.8023 -1.3941
  748MOL0     H  955   7.434  12.430   6.184  2.0338  1.1356 -0.0192
  748MOL0     H  956   7.650  12.431   6.278 -0.3693  0.4812  0.7005
  748MOL0     H  957   7.564  12.285   6.223  0.5821  0.0729 -0.9492
  748MOL0     H  958   7.703  12.229   6.404  1.8855  2.3142  1.6514
  748MOL0     H  959   7.640  12.338   6.517  0.5451 -1.5137 -0.3837
  748MOL0     H  960   7.094  12.550   5.874 -0.5517  0.7598  0.8464
  748MOL0     H  961   7.024  12.437   5.653  2.8798  2.0639  0.7511
  748MOL0     H  962   6.457  12.432   5.309  0.1744  1.7613 -2.9519
  748MOL0     H  963   6.480  12.301   5.095  0.6176 -1.6506 -1.4683
  748MOL0     H  964   5.903  11.765   5.691  0.6576 -1.3104 -1.5919
  748MOL0     H  965   5.921  11.729   5.954  0.1241  1.9795 -1.0642
  748MOL0     H  966   5.896  11.673   6.279 -1.8520  0.0347 -2.9394
  748MOL0     H  967   5.880  11.776   6.483 -0.5560 -0.1577 -1.4938
  748MOL0     H  968   5.539  11.604   6.727  1.0740 -1.5888  0.9329
  748MOL0     H  969   5.523  11.762   6.750 -0.1938 -0.0708  2.8507
  748MOL0     H  970   5.714  11.593   6.905 -0.8257 -1.2908  4.4274
  748MOL0     H  971   5.565  11.643   6.985 -0.7408  3.2237  0.9431
  748MOL0     H  972   5.650  11.857   7.023  0.5889 -1.2932  0.6322
  748MOL0     H  973   5.775  11.858   6.895  0.2918 -0.2919  0.0962
  748MOL0     H  974   5.789  11.678   7.137 -0.0133  0.1810  0.5693
  748MOL0     H  975   5.905  11.696   7.006 -2.0046 -2.0160 -0.1519
  748MOL0     H  976   6.024  12.002   7.251  3.8063  0.9492 -3.3409
  748MOL0     H  977   5.612  11.469   6.616 -0.7443 -3.1150 -0.6707
  748MOL0     H  978   5.620  11.253   6.382  1.9638  1.1332  1.1919
  748MOL0     H  979   5.483  11.354   6.457 -1.2176  3.4778 -1.8981
  748MOL0     H  980   5.513  11.360   6.288  1.8513 -3.2803 -1.1977
  749MOL0     O  981  10.923   5.074   7.936 -0.1975  0.2526  0.0750
  749MOL0     C  982  10.946   5.166   8.012  0.8421 -0.9487  0.1286
  749MOL0     O  983  10.970   5.291   7.967 -0.8075 -0.4650 -0.4351
  749MOL0     C  984  10.956   5.324   7.835 -0.2574 -0.8576  0.5161
  749MOL0     C  985  10.852   5.420   7.801 -0.5625  0.0911 -0.1287
  749MOL0     C  986  10.842   5.476   7.671 -0.0626  0.2485 -0.4633
  749MOL0     C  987  10.927   5.435   7.568 -0.3198 -0.6646  0.1654
  749MOL0     O  988  10.917   5.483   7.438 -0.0296  0.2087  0.4321
  749MOL0     C  989  10.798   5.546   7.391  0.2317 -0.2449  0.3967
  749MOL0     C  990  10.668   5.453   7.386 -1.4789  0.9102  0.3705
  749MOL0     C  991  10.573   5.502   7.279  0.4129  0.0960 -0.7768
  749MOL0     C  992  10.454   5.406   7.272 -0.6201  0.3171  0.4954
  749MOL0     C  993  10.345   5.494   7.205 -0.0189 -0.0187 -0.5417
  749MOL0     C  994  10.222   5.411   7.169 -0.3467  0.3504 -0.5987
  749MOL0     C  995  10.141   5.361   7.285  0.1916  0.4283  0.5616
  749MOL0     C  996  10.070   5.474   7.352  0.1656  0.4534  0.5337
  749MOL0     N  997   9.958   5.428   7.429  0.0363 -0.1717 -0.3551
  749MOL0     C  998   9.966   5.363   7.544  0.2748  0.1262 -0.2151
  749MOL0     C  999   9.842   5.342   7.588  0.4848  0.0590  1.0787
  749MOL0     C 1000   9.820   5.253   7.707 -0.1635 -0.3471 -0.3701
  749MOL0     C 1001   9.725   5.138   7.679  0.3644  0.0181  0.3541
  749MOL0     C 1002   9.690   5.060   7.806  0.1815  0.5863 -0.2619
  749MOL0     C 1003   9.571   4.960   7.787  0.0362  1.2461  0.4034
  749MOL0     O 1004   9.613   4.852   7.699 -0.0134  0.3940  0.1648
  749MOL0     C 1005   9.517   4.807   7.609 -0.0293  0.5002 -0.5162
  749MOL0     C 1006   9.506   4.870   7.485 -0.0020 -0.1784  0.1394
  749MOL0     C 1007   9.409   4.835   7.388 -0.1588 -0.5280 -1.2538
  749MOL0     C 1008   9.314   4.731   7.414  0.6961 -0.0762 -0.0895
  749MOL0     C 1009   9.205   4.695   7.320  1.1658  0.9120  1.0727
  749MOL0     O 1010   9.206   4.748   7.188  0.6103  0.3354 -0.5494
  749MOL0     C 1011   9.110   4.744   7.095  0.2877 -1.0121  0.2307
  749MOL0     C 1012   9.156   4.814   6.980  0.0525 -0.1955  0.3902
  749MOL0     C 1013   9.074   4.822   6.865  1.0541 -0.7506  0.6195
  749MOL0     C 1014   8.943   4.755   6.867 -0.0960 -1.1403  0.2576
  749MOL0     O 1015   8.874   4.758   6.751  0.1011  0.7398  0.1562
  749MOL0     C 1016   8.731   4.731   6.762 -0.1883  0.6954 -0.6722
  749MOL0     C 1017   8.671   4.722   6.627  0.5572  0.1985 -0.0525
  749MOL0     C 1018   8.681   4.855   6.551  0.0099  0.1847 -1.2771
  749MOL0     C 1019   8.593   4.871   6.431  0.0366  0.0205  1.2005
  749MOL0     C 1020   8.588   5.016   6.373 -0.5637  0.2759 -0.3819
  749MOL0     C 1021   8.725   5.046   6.303 -0.0228  0.3573  0.4725
  749MOL0     C 1022   8.736   5.172   6.214  0.5241  0.7600 -0.1189
  749MOL0     C 1023   8.657   5.164   6.079  0.1418 -0.2727 -0.2279
  749MOL0    Cl 1024   8.678   5.316   5.979  0.1231 -0.3119  0.1735
  749MOL0     C 1025   8.905   4.686   6.987 -0.0797 -0.8994 -0.4449
  749MOL0     C 1026   8.990   4.681   7.099 -0.2703 -0.0050 -0.2012
  749MOL0     O 1027   9.112   4.626   7.365 -0.2786 -0.3984 -0.5082
  749MOL0     C 1028   9.338   4.663   7.535 -0.6023  0.8624  0.2006
  749MOL0     C 1029   9.439   4.698   7.627  0.0120 -0.2617 -0.6516
  749MOL0     N 1030   9.754   5.410   7.504  0.8470 -0.1263  0.4198
  749MOL0     N 1031   9.821   5.468   7.411 -0.7538 -1.3298  0.4329
  749MOL0     C 1032  11.016   5.335   7.596  0.4455 -0.1434  0.1567
  749MOL0     C 1033  11.042   5.284   7.727 -0.5240  0.5387 -0.4704
  749MOL0     C 1034  10.944   5.149   8.159 -0.0058 -1.0756 -0.7973
  749MOL0     C 1035  10.948   5.267   8.236 -0.7521  0.5322 -0.2888
  749MOL0     C 1036  10.949   5.260   8.379  0.4531  1.5584  0.4106
  749MOL0     C 1037  10.946   5.134   8.447  0.0807  0.9102  0.2511
  749MOL0     O 1038  10.969   5.124   8.586  0.6612  0.2688  0.5351
  749MOL0     C 1039  10.882   5.205   8.654  0.9271  0.0877 -0.5166
  749MOL0     C 1040  10.881   5.177   8.806  0.2493 -0.3765 -0.2516
  749MOL0     C 1041  11.017   5.177   8.876  0.6331  0.3137 -0.1200
  749MOL0     C 1042  11.007   5.162   9.024 -0.6764  0.3908  0.4887
  749MOL0     C 1043  10.960   5.284   9.079  0.9853  0.2597 -0.2503
  749MOL0     C 1044  10.902   5.381   9.124  0.8590 -0.1325  0.2515
  749MOL0     C 1045  10.939   5.026   8.370 -0.2438 -0.6121  0.2843
  749MOL0     C 1046  10.941   5.030   8.226 -0.6663 -0.3877 -0.1487
  749MOL0     C 1047  10.941   4.904   8.149  0.0398  0.3657 -0.9439
  749MOL0     H 1048  10.771   5.440   7.871 -0.0731 -1.7935  1.0506
  749MOL0     H 1049  10.771   5.554   7.645  0.6391  0.0266 -3.4123
  749MOL0     H 1050  10.778   5.640   7.444 -1.9293 -0.2529 -0.3224
  749MOL0     H 1051  10.823   5.573   7.288  0.5906 -1.5163  0.1356
  749MOL0     H 1052  10.614   5.459   7.481  0.0146  1.8926  1.2032
  749MOL0     H 1053  10.706   5.352   7.372 -0.1599  0.8911  3.4551
  749MOL0     H 1054  10.631   5.508   7.187  2.9667  4.4062  0.8050
  749MOL0     H 1055  10.537   5.604   7.298 -1.0429 -0.5256  0.0047
  749MOL0     H 1056  10.468   5.318   7.208 -1.2550  1.4687 -1.2939
  749MOL0     H 1057  10.423   5.382   7.374  2.4035 -1.5629  1.1044
  749MOL0     H 1058  10.315   5.571   7.276 -0.8883  0.4443 -1.3856
  749MOL0     H 1059  10.382   5.539   7.113  3.3911 -0.4100  0.4971
  749MOL0     H 1060  10.166   5.483   7.109  0.5854  2.2829  0.7401
  749MOL0     H 1061  10.258   5.329   7.105  4.0430  1.5429 -0.0095
  749MOL0     H 1062  10.208   5.311   7.355  0.9878  2.1582  1.0994
  749MOL0     H 1063  10.078   5.279   7.248  1.4176  0.3757 -1.5602
  749MOL0     H 1064  10.137   5.524   7.423  1.4239 -2.0877  1.2270
  749MOL0     H 1065  10.033   5.540   7.273 -1.8300 -0.9164  0.2612
  749MOL0     H 1066  10.050   5.303   7.576 -2.3579 -2.8071  1.8022
  749MOL0     H 1067   9.915   5.216   7.746 -0.9627 -0.4239  1.6346
  749MOL0     H 1068   9.781   5.323   7.782  3.3460  2.0522 -0.5840
  749MOL0     H 1069   9.634   5.174   7.629 -0.4764 -1.3117  0.8875
  749MOL0     H 1070   9.779   5.079   7.604  0.6190  0.0318  0.5281
  749MOL0     H 1071   9.659   5.131   7.883 -3.2439 -0.4729 -0.4938
  749MOL0     H 1072   9.774   5.001   7.844  0.4035  0.9598 -0.1718
  749MOL0     H 1073   9.479   5.003   7.744 -2.2204 -2.7688  0.7638
  749MOL0     H 1074   9.550   4.920   7.886  1.6248  2.0028  1.0639
  749MOL0     H 1075   9.573   4.953   7.467  3.5833 -2.0147  3.4334
  749MOL0     H 1076   9.398   4.892   7.297  2.1553 -0.5904 -1.6257
  749MOL0     H 1077   9.255   4.856   6.974 -1.2778  3.3354  0.6510
  749MOL0     H 1078   9.117   4.867   6.776  0.6543 -0.2973  0.6511
  749MOL0     H 1079   8.708   4.633   6.804 -0.4932  0.9429 -0.2527
  749MOL0     H 1080   8.684   4.798   6.834  0.4747 -2.2526  2.7711
  749MOL0     H 1081   8.719   4.649   6.560 -1.7464  0.1199 -1.7326
  749MOL0     H 1082   8.565   4.697   6.633  0.3057  1.1391 -0.4772
  749MOL0     H 1083   8.639   4.937   6.611 -1.0160  0.3315 -2.1592
  749MOL0     H 1084   8.788   4.873   6.533  1.3296 -3.5265  1.5522
  749MOL0     H 1085   8.489   4.841   6.442  0.2448 -0.8756  0.8470
  749MOL0     H 1086   8.655   4.815   6.360  1.3775  1.2462  1.3347
  749MOL0     H 1087   8.574   5.087   6.455  2.7337  0.3226  0.3146
  749MOL0     H 1088   8.510   5.028   6.298  0.6637  0.0906 -1.7459
  749MOL0     H 1089   8.799   5.051   6.383 -0.2709 -2.3189  0.9633
  749MOL0     H 1090   8.762   4.966   6.239  2.0030  1.0083  0.7583
  749MOL0     H 1091   8.838   5.194   6.183  1.3038 -1.1729  0.9020
  749MOL0     H 1092   8.701   5.252   6.279 -1.6508 -0.3868  0.2388
  749MOL0     H 1093   8.693   5.072   6.031 -1.6879 -0.8877 -0.5186
  749MOL0     H 1094   8.551   5.164   6.105  0.1980  1.8650  0.1205
  749MOL0     H 1095   8.808   4.636   6.987  0.1221 -1.3148 -1.5370
  749MOL0     H 1096   8.959   4.636   7.193  0.1089 -1.7970 -0.8898
  749MOL0     H 1097   9.303   4.564   7.561  2.2341  0.3237  2.4765
  749MOL0     H 1098   9.472   4.630   7.705 -0.5531  0.0319 -0.1526
  749MOL0     H 1099  11.087   5.302   7.521 -0.7627 -0.0892 -1.0266
  749MOL0     H 1100  11.130   5.223   7.739  1.5156  2.3803 -4.2275
  749MOL0     H 1101  10.974   5.365   8.195  1.6016  0.5862  1.1040
  749MOL0     H 1102  10.964   5.353   8.432  1.9030  0.0777  2.7644
  749MOL0     H 1103  10.778   5.204   8.619 -0.5623  4.9817  2.7388
  749MOL0     H 1104  10.910   5.310   8.637  3.1667 -0.4892 -0.7687
  749MOL0     H 1105  10.840   5.076   8.809  0.6642 -0.5527 -0.5548
  749MOL0     H 1106  10.825   5.256   8.857  2.3718  2.0970 -1.5283
  749MOL0     H 1107  11.072   5.265   8.840 -3.2180  3.0040 -0.0790
  749MOL0     H 1108  11.081   5.095   8.842  2.4919  0.9963  1.5293
  749MOL0     H 1109  10.935   5.083   9.048 -2.4092  2.0473  0.9959
  749MOL0     H 1110  11.107   5.143   9.063  0.9813  3.0185 -2.1022
  749MOL0     H 1111  10.845   5.466   9.152 -1.9319 -1.1218 -2.0101
  749MOL0     H 1112  10.932   4.929   8.419 -1.8627  0.3441  2.1112
  749MOL0     H 1113  10.846   4.896   8.096 -0.1548 -0.5704 -0.4816
  749MOL0     H 1114  11.031   4.908   8.086  1.5706 -0.1302  1.0946
  749MOL0     H 1115  10.943   4.819   8.219 -0.3166  0.6323 -0.6091
  750MOL0     O 1116   0.492   3.362   1.121  0.0070 -0.1843 -0.6301
  750MOL0     C 1117   0.502   3.248   1.141  0.2933 -0.0456 -0.3985
  750MOL0     O 1118   0.406   3.164   1.104 -0.3792 -0.7635 -0.2822
  750MOL0     C 1119   0.276   3.215   1.058 -0.6103  0.8219 -0.1844
  750MOL0     C 1120   0.192   3.282   1.141  0.2438 -0.0876 -0.4423
  750MOL0     C 1121   0.061   3.315   1.097 -0.3853  0.8991 -0.3124
  750MOL0     C 1122   0.016   3.287   0.966 -0.6013  0.0142 -0.5678
  750MOL0     O 1123  -0.108   3.330   0.931 -0.0160 -0.0672 -0.1997
  750MOL0     C 1124  -0.171   3.260   0.825  0.9520  0.3020  0.4632
  750MOL0     C 1125  -0.312   3.307   0.794  0.4218  0.2059 -0.3290
  750MOL0     C 1126  -0.337   3.456   0.775 -0.3463  0.6375 -0.2002
  750MOL0     C 1127  -0.478   3.486   0.817 -0.3955 -0.6020  0.7964
  750MOL0     C 1128  -0.538   3.614   0.777 -0.5259 -0.0461  0.2176
  750MOL0     C 1129  -0.566   3.644   0.630 -0.8920  0.9781  0.2831
  750MOL0     C 1130  -0.452   3.708   0.542  0.3425 -0.2888  0.4577
  750MOL0     C 1131  -0.526   3.765   0.416 -0.6329 -0.0551  0.0686
  750MOL0     N 1132  -0.444   3.831   0.309 -0.3143  0.5121 -0.0067
  750MOL0     C 1133  -0.372   3.770   0.209  0.4785  0.2371 -0.1664
  750MOL0     C 1134  -0.310   3.872   0.147  0.2615 -1.1072 -0.5593
  750MOL0     C 1135  -0.218   3.880   0.034 -0.5907 -0.0716  1.2811
  750MOL0     C 1136  -0.106   3.774   0.053  0.4801 -0.8909  0.2627
  750MOL0     C 1137  -0.024   3.778   0.179  0.4539  0.7581  0.4428
  750MOL0     C 1138  -0.086   3.711   0.304 -0.5628 -0.0048  0.3366
  750MOL0     O 1139   0.026   3.664   0.373  0.0120  0.6786  0.9983
  750MOL0     C 1140   0.044   3.527   0.379  0.3608 -0.6619  0.2157
  750MOL0     C 1141   0.163   3.500   0.450  0.0317 -0.1230  0.3234
  750MOL0     C 1142   0.195   3.368   0.481 -0.8095  0.2790  0.5739
  750MOL0     C 1143   0.115   3.255   0.440  0.8385 -1.0241 -0.4591
  750MOL0     C 1144   0.160   3.119   0.472 -0.3394  0.0777 -0.2674
  750MOL0     O 1145   0.286   3.105   0.525  0.7098 -0.3648  0.1703
  750MOL0     C 1146   0.347   2.983   0.508 -0.4309  0.0531 -0.1193
  750MOL0     C 1147   0.335   2.895   0.613  0.1960 -0.2917  0.3158
  750MOL0     C 1148   0.411   2.778   0.610  0.2485  1.0323 -0.1595
  750MOL0     C 1149   0.481   2.736   0.511  0.3447  0.0766 -0.6867
  750MOL0     O 1150   0.524   2.609   0.524 -0.0583  0.1735  0.1632
  750MOL0     C 1151   0.664   2.585   0.518 -0.4772 -0.8113 -0.2963
  750MOL0     C 1152   0.686   2.455   0.441  0.0094  0.7501 -0.5227
  750MOL0     C 1153   0.803   2.374   0.499 -0.0831 -0.4623  0.4022
  750MOL0     C 1154   0.769   2.287   0.620  0.3597  0.8804  0.2247
  750MOL0     C 1155   0.886   2.189   0.655 -0.1686 -0.4198  0.4356
  750MOL0     C 1156   1.011   2.257   0.683  0.3480 -0.2655  0.5651
  750MOL0     C 1157   1.120   2.156   0.714 -0.5438  0.0455  0.2191
  750MOL0     C 1158   1.182   2.091   0.587  0.1032 -0.4416 -0.6698
  750MOL0    Cl 1159   1.280   2.215   0.500  0.1279 -0.4901  0.2593
  750MOL0     C 1160   0.499   2.820   0.409 -0.3867 -0.1149  0.2613
  750MOL0     C 1161   0.430   2.943   0.405 -0.4890  1.1424  1.3615
  750MOL0     O 1162   0.089   3.025   0.441  1.1841  0.3428 -0.4701
  750MOL0     C 1163  -0.001   3.283   0.369 -0.1319 -1.2953 -0.3633
  750MOL0     C 1164  -0.038   3.419   0.341  0.5122 -0.1606  0.1244
  750MOL0     N 1165  -0.338   3.987   0.220 -0.1834 -0.0001 -0.1646
  750MOL0     N 1166  -0.417   3.964   0.317  0.2080 -0.2291  0.6513
  750MOL0     C 1167   0.102   3.210   0.888  0.0564 -0.5067  0.3638
  750MOL0     C 1168   0.230   3.179   0.932 -0.3421 -0.3785 -0.5218
  750MOL0     C 1169   0.618   3.185   1.194  0.3144  0.8192 -1.0335
  750MOL0     C 1170   0.595   3.072   1.265  0.3029  0.3721  0.5108
  750MOL0     C 1171   0.696   2.991   1.307  0.5730 -0.1855  0.3301
  750MOL0     C 1172   0.826   3.018   1.269  0.1162 -0.0341  0.4631
  750MOL0     O 1173   0.933   2.933   1.280 -0.3946  0.1494 -0.4593
  750MOL0     C 1174   0.924   2.827   1.373 -0.4693  0.3303 -0.1865
  750MOL0     C 1175   1.064   2.778   1.399  0.6672 -0.7502 -0.1384
  750MOL0     C 1176   1.156   2.881   1.478 -0.1131  0.0119  0.3158
  750MOL0     C 1177   1.295   2.866   1.410  0.2282 -0.4312 -0.7045
  750MOL0     C 1178   1.399   2.947   1.482 -0.4082  0.4109 -0.1296
  750MOL0     C 1179   1.499   2.985   1.539  0.3910  0.6223 -0.1097
  750MOL0     C 1180   0.851   3.138   1.196 -0.5768  1.0122 -0.0211
  750MOL0     C 1181   0.747   3.229   1.165 -0.4537 -0.3925  0.4561
  750MOL0     C 1182   0.787   3.346   1.077 -0.2627  0.2002  0.2408
  750MOL0     H 1183   0.224   3.310   1.241 -0.2867 -0.5923 -0.1267
  750MOL0     H 1184  -0.007   3.370   1.162 -0.2739  0.0993  0.4948
  750MOL0     H 1185  -0.114   3.271   0.732 -0.7242 -0.7923 -0.7562
  750MOL0     H 1186  -0.174   3.155   0.853 -1.4168  0.6819  1.8758
  750MOL0     H 1187  -0.378   3.272   0.873  0.1087 -3.3161 -1.9650
  750MOL0     H 1188  -0.339   3.253   0.703 -1.1517 -1.0737  0.8401
  750MOL0     H 1189  -0.314   3.487   0.672  5.2149 -2.3564 -0.2593
  750MOL0     H 1190  -0.278   3.518   0.843  0.4761  1.9266 -1.9998
  750MOL0     H 1191  -0.549   3.409   0.784 -1.4430 -0.4766  2.6187
  750MOL0     H 1192  -0.490   3.488   0.926  0.7328 -0.9994  0.9454
  750MOL0     H 1193  -0.633   3.606   0.830  0.0922 -0.2448  1.3164
  750MOL0     H 1194  -0.481   3.696   0.822 -0.2363 -0.0122 -0.2047
  750MOL0     H 1195  -0.596   3.550   0.582  1.6835  0.2771 -0.1043
  750MOL0     H 1196  -0.658   3.704   0.627 -1.4807  0.1730 -3.6580
  750MOL0     H 1197  -0.370   3.647   0.502 -0.3687 -1.4638  0.7204
  750MOL0     H 1198  -0.416   3.793   0.600 -0.0140 -0.9560  1.6996
  750MOL0     H 1199  -0.566   3.675   0.368 -2.3284  0.8807 -0.3871
  750MOL0     H 1200  -0.599   3.840   0.449 -0.7894 -0.3466  0.3892
  750MOL0     H 1201  -0.363   3.666   0.178 -0.9612  0.7880 -2.6820
  750MOL0     H 1202  -0.276   3.863  -0.057 -0.1703  2.4337  0.4600
  750MOL0     H 1203  -0.174   3.979   0.016  2.7818 -1.9251 -2.4943
  750MOL0     H 1204  -0.151   3.676   0.036  4.2300 -2.6343 -0.7619
  750MOL0     H 1205  -0.043   3.780  -0.036 -1.7291  2.3910 -1.2858
  750MOL0     H 1206   0.002   3.881   0.205  1.3492  0.8931 -0.9133
  750MOL0     H 1207   0.075   3.735   0.159  0.0685 -0.6007  1.3078
  750MOL0     H 1208  -0.157   3.635   0.269  2.0364 -3.3021  1.6625
  750MOL0     H 1209  -0.138   3.782   0.369  0.4562  1.8239 -0.7631
  750MOL0     H 1210   0.237   3.579   0.450 -1.0625  0.9885 -1.4031
  750MOL0     H 1211   0.287   3.354   0.538  1.3912 -1.3886 -3.0317
  750MOL0     H 1212   0.269   2.911   0.697  2.1391  3.1470  1.3885
  750MOL0     H 1213   0.398   2.706   0.691 -0.7196 -1.6817 -2.5250
  750MOL0     H 1214   0.713   2.669   0.466 -0.5028  0.6746  1.9546
  750MOL0     H 1215   0.718   2.572   0.612 -0.9106 -0.2222  0.0325
  750MOL0     H 1216   0.597   2.392   0.434 -0.3669  1.1331  0.6839
  750MOL0     H 1217   0.700   2.486   0.337  2.2616  1.3633 -0.0737
  750MOL0     H 1218   0.840   2.314   0.415 -1.1253 -0.6947  0.0858
  750MOL0     H 1219   0.882   2.445   0.525 -1.4377  1.0862  0.5191
  750MOL0     H 1220   0.681   2.231   0.587 -0.8560  1.8943  1.6205
  750MOL0     H 1221   0.742   2.352   0.703 -0.5772  1.0933 -0.2343
  750MOL0     H 1222   0.907   2.132   0.564  1.8717  2.0162 -0.7361
  750MOL0     H 1223   0.854   2.115   0.729 -1.8652 -2.1082 -1.8255
  750MOL0     H 1224   1.038   2.334   0.611  1.9528 -1.8706 -0.6491
  750MOL0     H 1225   0.995   2.308   0.779  0.7460 -1.2084  1.1541
  750MOL0     H 1226   1.072   2.083   0.779 -1.6905 -1.7829 -2.5088
  750MOL0     H 1227   1.201   2.207   0.768  0.1966  0.0925 -0.8822
  750MOL0     H 1228   1.240   2.002   0.609 -0.1077 -0.5498 -0.5494
  750MOL0     H 1229   1.108   2.049   0.518 -0.6195 -0.2961 -0.0022
  750MOL0     H 1230   0.577   2.790   0.340  1.6714 -0.3590  2.5432
  750MOL0     H 1231   0.444   3.019   0.329 -2.7087  0.1866 -0.1018
  750MOL0     H 1232  -0.044   3.191   0.332  0.9280 -2.2366  0.6470
  750MOL0     H 1233  -0.121   3.424   0.271  1.3902  2.2054 -0.8543
  750MOL0     H 1234   0.064   3.171   0.794 -0.4793  1.7314 -0.4093
  750MOL0     H 1235   0.287   3.102   0.881  0.6707  0.8311 -1.2752
  750MOL0     H 1236   0.494   3.043   1.293 -0.1380  1.6576  0.3075
  750MOL0     H 1237   0.673   2.902   1.366  3.1543 -0.0664  1.6589
  750MOL0     H 1238   0.859   2.742   1.351 -0.8014  0.9460 -1.7381
  750MOL0     H 1239   0.878   2.866   1.464  0.3648 -1.0735  0.8903
  750MOL0     H 1240   1.109   2.736   1.309  1.8158  1.2122 -0.5283
  750MOL0     H 1241   1.056   2.699   1.475  2.1636 -0.1536  0.6722
  750MOL0     H 1242   1.166   2.866   1.586 -0.1807  2.2511  0.6686
  750MOL0     H 1243   1.117   2.982   1.466  0.5261  0.3947  1.3440
  750MOL0     H 1244   1.316   2.759   1.413 -1.2971 -0.7788 -1.2389
  750MOL0     H 1245   1.284   2.899   1.307  0.0520 -2.3964 -1.3432
  750MOL0     H 1246   1.582   3.033   1.588  0.2762  0.6327  0.0751
  750MOL0     H 1247   0.956   3.162   1.180 -0.3771  0.0201 -0.2157
  750MOL0     H 1248   0.894   3.356   1.057 -0.8496  1.9864 -2.5297
  750MOL0     H 1249   0.746   3.346   0.976 -0.0038 -0.9776  0.1204
  750MOL0     H 1250   0.771   3.447   1.116  0.9774  0.9940 -1.1790
  751MOL0     O 1251   6.955   6.569   7.446  0.1969  0.7288 -0.6317
  751MOL0     C 1252   6.989   6.578   7.567  0.7009  0.1613  0.5382
  751MOL0     O 1253   6.952   6.677   7.652 -0.1768 -0.5941  1.3495
  751MOL0     C 1254   6.915   6.797   7.599  0.1099 -0.2719 -0.0717
  751MOL0     C 1255   6.783   6.838   7.631  0.5055  0.7280  0.4436
  751MOL0     C 1256   6.733   6.939   7.556  0.2538  0.7421 -0.6448
  751MOL0     C 1257   6.809   7.022   7.473 -0.6698 -0.1171  1.0256
  751MOL0     O 1258   6.759   7.136   7.425  0.7532 -0.3451 -0.0085
  751MOL0     C 1259   6.779   7.166   7.281  0.3371  0.1935 -0.2377
  751MOL0     C 1260   6.653   7.129   7.209  0.1775 -0.2687 -0.0591
  751MOL0     C 1261   6.532   7.190   7.285 -0.8850 -0.0955 -0.9675
  751MOL0     C 1262   6.411   7.190   7.204 -0.6016 -0.0136  0.8762
  751MOL0     C 1263   6.293   7.266   7.281  0.2583  0.0773  0.0929
  751MOL0     C 1264   6.157   7.204   7.243  0.6179  0.2183  0.2945
  751MOL0     C 1265   6.030   7.270   7.295  0.7551  0.4023 -1.1009
  751MOL0     C 1266   5.905   7.178   7.297  0.1337  0.2041  0.6051
  751MOL0     N 1267   5.926   7.072   7.403 -0.7933 -0.4973 -0.1379
  751MOL0     C 1268   5.899   7.093   7.535  0.6936  1.0309  0.3416
  751MOL0     C 1269   5.895   6.961   7.591  0.1902 -0.4641 -0.5997
  751MOL0     C 1270   5.876   6.924   7.741 -0.5639  0.1850 -0.2133
  751MOL0     C 1271   5.735   6.942   7.787  0.9278  0.3007  0.2611
  751MOL0     C 1272   5.682   6.840   7.900 -0.7153 -0.1419 -0.3746
  751MOL0     C 1273   5.636   6.711   7.840  1.5264 -0.1163 -0.6207
  751MOL0     O 1274   5.604   6.625   7.949 -0.7582  0.4067  0.4912
  751MOL0     C 1275   5.496   6.643   8.028 -0.7172 -0.7954 -0.4640
  751MOL0     C 1276   5.482   6.578   8.149 -0.5616  0.4463 -0.4886
  751MOL0     C 1277   5.371   6.590   8.229 -0.6683 -0.4335 -0.1232
  751MOL0     C 1278   5.266   6.671   8.183  0.5480  0.2913 -0.1080
  751MOL0     C 1279   5.146   6.686   8.268  1.3713  0.1280  0.0189
  751MOL0     O 1280   5.053   6.782   8.227  0.2602  0.6956 -0.0295
  751MOL0     C 1281   4.923   6.778   8.267  0.2204  0.8275 -0.5509
  751MOL0     C 1282   4.861   6.892   8.316 -0.0542  0.4011 -0.0728
  751MOL0     C 1283   4.723   6.889   8.353  0.4950  0.1508  0.7036
  751MOL0     C 1284   4.641   6.781   8.333  0.3516 -0.4465 -0.8798
  751MOL0     O 1285   4.504   6.790   8.356  0.4166  0.9627 -0.1888
  751MOL0     C 1286   4.423   6.666   8.369  0.1065 -0.9426 -0.2913
  751MOL0     C 1287   4.291   6.695   8.443 -0.3064  0.0890  0.3451
  751MOL0     C 1288   4.321   6.743   8.585  0.1038  0.3209 -0.3381
  751MOL0     C 1289   4.185   6.762   8.661 -0.0923  1.1772 -0.6750
  751MOL0     C 1290   4.204   6.837   8.798 -1.2665  0.7802  0.3651
  751MOL0     C 1291   4.064   6.854   8.844  0.8886 -0.4356 -0.8809
  751MOL0     C 1292   4.064   6.914   8.990  0.1063 -0.5500 -0.0553
  751MOL0     C 1293   3.919   6.920   9.047 -0.4311 -0.1006  0.7373
  751MOL0    Cl 1294   3.819   7.051   8.968  0.1873  0.0828 -0.3512
  751MOL0     C 1295   4.699   6.660   8.298 -0.9396 -0.2029  1.0699
  751MOL0     C 1296   4.840   6.661   8.260 -1.3469  0.4106  0.4833
  751MOL0     O 1297   5.116   6.595   8.352 -0.5157 -0.3265  0.7320
  751MOL0     C 1298   5.280   6.741   8.067 -0.3091 -0.8826 -0.2418
  751MOL0     C 1299   5.394   6.730   7.991  0.8310 -0.1640  0.6914
  751MOL0     N 1300   5.914   6.864   7.493 -0.9481  0.4518 -0.4561
  751MOL0     N 1301   5.937   6.934   7.386  0.7452  0.3537  0.6957
  751MOL0     C 1302   6.942   6.982   7.453  0.8267  0.8546  0.0002
  751MOL0     C 1303   6.995   6.870   7.513  0.6212  0.5933  0.4338
  751MOL0     C 1304   7.058   6.455   7.632 -0.0266 -0.1328 -0.4742
  751MOL0     C 1305   7.156   6.384   7.544 -0.2209 -0.2905 -0.7191
  751MOL0     C 1306   7.219   6.274   7.591  0.7124  1.1039 -0.3643
  751MOL0     C 1307   7.200   6.231   7.726  0.2830 -0.4663 -0.7627
  751MOL0     O 1308   7.247   6.117   7.783  0.9998 -0.1684  0.5147
  751MOL0     C 1309   7.150   6.014   7.793 -0.6553  0.6381 -0.0458
  751MOL0     C 1310   7.160   5.920   7.669  0.7038  0.4424  0.0898
  751MOL0     C 1311   7.298   5.865   7.637  0.1395  0.9674 -0.6025
  751MOL0     C 1312   7.345   5.755   7.749 -0.4140 -0.2051  0.5636
  751MOL0     C 1313   7.415   5.647   7.681  0.1131  0.6627  0.2550
  751MOL0     C 1314   7.462   5.558   7.612  0.7061  0.1115 -1.1334
  751MOL0     C 1315   7.113   6.304   7.813  0.1570 -0.3198 -0.5311
  751MOL0     C 1316   7.041   6.415   7.763  0.2306  0.4240  0.4664
  751MOL0     C 1317   6.942   6.481   7.861  0.4755 -0.3357  0.5806
  751MOL0     H 1318   6.720   6.780   7.697  0.8198 -0.1651 -0.0120
  751MOL0     H 1319   6.629   6.970   7.560 -0.0679 -0.4568  1.9005
  751MOL0     H 1320   6.786   7.273   7.260 -0.0951 -0.0112 -1.4718
  751MOL0     H 1321   6.864   7.111   7.240 -0.6429  0.7600 -3.2206
  751MOL0     H 1322   6.649   7.020   7.217 -0.9029 -0.2059  0.4189
  751MOL0     H 1323   6.657   7.174   7.109 -0.4385  3.1136  1.2991
  751MOL0     H 1324   6.556   7.284   7.337  2.2258 -0.1692 -2.0665
  751MOL0     H 1325   6.521   7.119   7.368  0.1085 -2.3217 -2.6744
  751MOL0     H 1326   6.427   7.250   7.114  0.3461 -2.0918 -0.4246
  751MOL0     H 1327   6.390   7.089   7.167 -2.9061  0.3519  1.0268
  751MOL0     H 1328   6.315   7.265   7.388  2.0266  0.4141 -0.2369
  751MOL0     H 1329   6.311   7.368   7.245 -2.1724  1.0717  1.4898
  751MOL0     H 1330   6.150   7.196   7.134 -0.0536 -2.1605  0.4565
  751MOL0     H 1331   6.155   7.104   7.289 -2.5933 -0.0437 -0.1810
  751MOL0     H 1332   6.006   7.357   7.234 -0.1783  1.9168  1.2605
  751MOL0     H 1333   6.049   7.308   7.396  0.7633 -1.4894 -0.3426
  751MOL0     H 1334   5.818   7.242   7.317  2.0973  2.9040  1.1567
  751MOL0     H 1335   5.901   7.128   7.200 -0.0689 -1.8547  1.6359
  751MOL0     H 1336   5.890   7.188   7.587  1.3477  0.9775  0.5526
  751MOL0     H 1337   5.905   6.819   7.743 -1.5248 -0.0914  1.6529
  751MOL0     H 1338   5.934   6.993   7.803 -2.3106 -0.2693  2.0750
  751MOL0     H 1339   5.731   7.045   7.824 -1.0476  0.8158 -1.2014
  751MOL0     H 1340   5.667   6.939   7.701 -2.6130  0.3255  2.8654
  751MOL0     H 1341   5.598   6.896   7.942 -0.8170 -0.7994  0.3256
  751MOL0     H 1342   5.763   6.840   7.973 -1.8234  2.0329  0.9818
  751MOL0     H 1343   5.718   6.660   7.788  1.2310 -3.7449  2.0569
  751MOL0     H 1344   5.552   6.736   7.774  1.9165 -0.0064 -1.0836
  751MOL0     H 1345   5.565   6.511   8.166 -1.3006 -0.4207 -0.1785
  751MOL0     H 1346   5.368   6.536   8.323  2.9033 -1.9533 -0.7493
  751MOL0     H 1347   4.921   6.981   8.333  2.2054 -1.1646  0.5800
  751MOL0     H 1348   4.672   6.977   8.391 -2.2175  0.1985 -2.6106
  751MOL0     H 1349   4.393   6.622   8.274  1.7903 -0.5537 -1.0327
  751MOL0     H 1350   4.476   6.588   8.424 -0.5632 -1.0298  0.2423
  751MOL0     H 1351   4.244   6.777   8.388 -0.6619 -1.5107 -1.8784
  751MOL0     H 1352   4.237   6.600   8.448 -0.1811 -0.1520 -1.7885
  751MOL0     H 1353   4.367   6.658   8.636 -2.6660  0.2083  2.2354
  751MOL0     H 1354   4.374   6.839   8.590  0.8642 -0.1552  1.3304
  751MOL0     H 1355   4.139   6.663   8.667  0.5835  0.8966  0.0434
  751MOL0     H 1356   4.116   6.820   8.600 -1.2302  0.7253  0.1506
  751MOL0     H 1357   4.257   6.932   8.786 -0.6289  0.2455 -1.4653
  751MOL0     H 1358   4.264   6.771   8.862 -2.1186 -1.6931 -1.2074
  751MOL0     H 1359   4.013   6.923   8.777  1.4095  1.4065  0.5282
  751MOL0     H 1360   4.012   6.758   8.845  0.4472 -0.2000 -1.1011
  751MOL0     H 1361   4.103   7.016   8.990 -1.5398  0.1191  0.3250
  751MOL0     H 1362   4.128   6.862   9.062  3.6141  2.0928 -0.9788
  751MOL0     H 1363   3.872   6.823   9.033  0.6261 -0.2460 -2.7588
  751MOL0     H 1364   3.927   6.952   9.151  0.5379 -0.2919  0.7306
  751MOL0     H 1365   4.636   6.574   8.277 -1.0911 -0.0238  0.7822
  751MOL0     H 1366   4.888   6.571   8.222 -2.0582  0.1771  0.1246
  751MOL0     H 1367   5.200   6.802   8.028 -0.6118  0.1946  1.8949
  751MOL0     H 1368   5.405   6.789   7.901  2.3553 -1.2048  0.1670
  751MOL0     H 1369   7.012   7.038   7.393 -0.4600 -0.0125 -2.4689
  751MOL0     H 1370   7.096   6.831   7.505 -0.0827 -1.0699 -1.1836
  751MOL0     H 1371   7.175   6.422   7.444 -1.0435  1.8755 -0.1020
  751MOL0     H 1372   7.280   6.215   7.524  1.1277  2.2627 -1.0241
  751MOL0     H 1373   7.051   6.060   7.802 -0.8359 -0.1446  2.9803
  751MOL0     H 1374   7.161   5.960   7.887 -2.8451  2.0125  1.0737
  751MOL0     H 1375   7.133   5.986   7.586  2.3539  1.6572  0.4753
  751MOL0     H 1376   7.086   5.842   7.692 -1.7842  2.6608  0.0751
  751MOL0     H 1377   7.364   5.950   7.619 -3.2134  3.8510 -0.2881
  751MOL0     H 1378   7.283   5.810   7.544 -2.0677 -0.7538  0.6724
  751MOL0     H 1379   7.383   5.801   7.841 -1.0931 -0.3616  0.9367
  751MOL0     H 1380   7.251   5.707   7.780  0.0819 -1.1423  0.6535
  751MOL0     H 1381   7.504   5.489   7.542 -0.4180  0.7904 -2.5282
  751MOL0     H 1382   7.097   6.275   7.916  0.4541 -0.4101 -0.5087
  751MOL0     H 1383   6.994   6.569   7.901 -0.1077 -0.4378  1.5897
  751MOL0     H 1384   6.854   6.510   7.803 -0.1514  0.2122  1.7718
  751MOL0     H 1385   6.907   6.417   7.942 -4.2071  1.6915  0.4896
  752MOL0     O 1386   8.766  11.452   5.003 -0.1286 -0.5533 -0.7216
  752MOL0     C 1387   8.874  11.400   4.981 -0.2466  0.2221  0.5413
  752MOL0     O 1388   8.904  11.327   4.867  0.1038 -0.4469  0.1003
  752MOL0     C 1389   8.803  11.275   4.790  0.4263 -0.6615 -0.1343
  752MOL0     C 1390   8.831  11.156   4.729 -0.2275 -0.6710 -0.2184
  752MOL0     C 1391   8.743  11.084   4.643  0.2201  0.7136 -0.7222
  752MOL0     C 1392   8.618  11.145   4.614  1.1863  0.5494  0.1052
  752MOL0     O 1393   8.511  11.092   4.546 -0.7279 -0.0517 -0.5024
  752MOL0     C 1394   8.503  10.949   4.521 -0.3885 -0.4295  0.6005
  752MOL0     C 1395   8.370  10.920   4.448  0.0272 -1.1180 -0.4038
  752MOL0     C 1396   8.330  11.021   4.334 -1.1682 -0.4296  0.5252
  752MOL0     C 1397   8.209  10.984   4.261  0.2024  0.4891 -0.8031
  752MOL0     C 1398   8.175  11.088   4.150  0.4144  0.7839 -0.1701
  752MOL0     C 1399   8.036  11.055   4.095 -0.7570 -0.0636 -0.8962
  752MOL0     C 1400   7.993  11.152   3.992 -0.1713  1.1910 -0.0857
  752MOL0     C 1401   7.882  11.076   3.910  0.0882  0.1158  0.9466
  752MOL0     N 1402   7.751  11.053   3.980 -0.0009  0.6699 -0.7837
  752MOL0     C 1403   7.661  11.141   4.022 -0.3280 -0.3013 -0.2055
  752MOL0     C 1404   7.582  11.083   4.109  0.5617 -0.7095  0.2820
  752MOL0     C 1405   7.478  11.146   4.195 -0.2678  0.4078 -0.3115
  752MOL0     C 1406   7.333  11.119   4.150  1.1091 -0.1879 -0.0472
  752MOL0     C 1407   7.273  10.990   4.221  0.3024  0.6076 -0.2231
  752MOL0     C 1408   7.135  10.968   4.160  0.8280 -0.2057 -0.3344
  752MOL0     O 1409   7.121  10.966   4.018 -0.5317  0.5932 -0.4761
  752MOL0     C 1410   7.008  11.014   3.960 -0.8227 -0.2489  0.1192
  752MOL0     C 1411   7.021  11.012   3.819 -0.0828 -0.5171 -0.8873
  752MOL0     C 1412   6.908  11.053   3.735 -0.2685  0.4021 -1.0204
  752MOL0     C 1413   6.785  11.095   3.793 -0.5314 -0.0582  0.3669
  752MOL0     C 1414   6.673  11.141   3.704 -0.6592  0.6079 -0.1495
  752MOL0     O 1415   6.565  11.198   3.765  0.1539  0.2823  0.3026
  752MOL0     C 1416   6.468  11.237   3.682  0.3450  0.3001 -0.0619
  752MOL0     C 1417   6.469  11.361   3.602 -0.0710 -0.2899  0.2243
  752MOL0     C 1418   6.356  11.392   3.516  0.5315  0.3373 -0.6218
  752MOL0     C 1419   6.255  11.295   3.508 -0.1682 -0.3471 -0.6986
  752MOL0     O 1420   6.156  11.308   3.419  0.4999  0.2363  0.7807
  752MOL0     C 1421   6.095  11.181   3.373 -0.0863  0.5357 -0.1081
  752MOL0     C 1422   6.056  11.195   3.225 -0.5660  0.1663  0.5395
  752MOL0     C 1423   5.956  11.084   3.174 -0.1591  0.6885 -0.5119
  752MOL0     C 1424   5.929  11.101   3.020 -1.4170 -0.9058  0.2564
  752MOL0     C 1425   6.045  11.083   2.922  0.4390 -0.6863  0.3875
  752MOL0     C 1426   6.094  10.943   2.932 -1.0649  0.5667 -0.2469
  752MOL0     C 1427   6.231  10.934   2.865  0.0213 -0.1641 -0.0863
  752MOL0     C 1428   6.262  10.791   2.849  0.2430  0.1459  1.0266
  752MOL0    Cl 1429   6.362  10.735   2.990 -0.0467 -0.0828 -0.2110
  752MOL0     C 1430   6.257  11.189   3.605  0.2691 -0.4263 -0.4655
  752MOL0     C 1431   6.362  11.153   3.687  0.8102  0.0019  0.6824
  752MOL0     O 1432   6.687  11.111   3.585 -0.4718  0.3407  0.0586
  752MOL0     C 1433   6.784  11.114   3.934  0.2128  0.0983 -0.3594
  752MOL0     C 1434   6.890  11.074   4.018  0.7595  0.8644 -0.3928
  752MOL0     N 1435   7.624  10.951   4.120  0.9504 -0.7615  0.7168
  752MOL0     N 1436   7.723  10.937   4.038 -0.3269  1.0762 -0.7443
  752MOL0     C 1437   8.588  11.266   4.681  0.6380  0.3220 -0.1131
  752MOL0     C 1438   8.679  11.330   4.767  0.3594 -0.1634  0.5244
  752MOL0     C 1439   8.981  11.413   5.084 -0.7016 -0.8032 -1.0908
  752MOL0     C 1440   9.083  11.320   5.083  0.5569 -0.2097  0.4269
  752MOL0     C 1441   9.183  11.326   5.179 -0.5876  0.4658  0.2787
  752MOL0     C 1442   9.161  11.406   5.292  0.4273 -0.2430 -0.4387
  752MOL0     O 1443   9.261  11.420   5.385  0.2088 -0.5184 -0.7717
  752MOL0     C 1444   9.250  11.500   5.505 -0.5923 -0.1914 -0.1729
  752MOL0     C 1445   9.363  11.449   5.604 -0.7184 -0.4658 -0.4859
  752MOL0     C 1446   9.460  11.563   5.643  0.1446  1.0093 -0.3735
  752MOL0     C 1447   9.430  11.620   5.783  0.0275 -0.5040  0.0202
  752MOL0     C 1448   9.288  11.655   5.804  0.7589  0.2098 -0.2395
  752MOL0     C 1449   9.172  11.689   5.825  0.5950 -0.2996  0.3052
  752MOL0     C 1450   9.068  11.509   5.289  1.4272 -0.7603  0.6511
  752MOL0     C 1451   8.972  11.505   5.184 -0.3479 -0.6171 -1.5703
  752MOL0     C 1452   8.877  11.620   5.187  0.6648  0.0754  0.0204
  752MOL0     H 1453   8.927  11.109   4.749  1.0259  0.4914 -2.9437
  752MOL0     H 1454   8.771  10.983   4.614 -1.9331 -0.2505  0.2997
  752MOL0     H 1455   8.587  10.930   4.453 -1.3496 -0.7016 -0.5263
  752MOL0     H 1456   8.517  10.887   4.610  1.5327  0.1151  0.7289
  752MOL0     H 1457   8.287  10.924   4.519 -0.6147 -3.2497 -0.9473
  752MOL0     H 1458   8.376  10.818   4.409 -0.7614 -1.7657  1.0598
  752MOL0     H 1459   8.416  11.034   4.267 -0.2616 -0.0856  1.7147
  752MOL0     H 1460   8.315  11.116   4.387 -1.2181 -0.6660  0.9437
  752MOL0     H 1461   8.229  10.889   4.211 -0.8013 -0.9226  1.2975
  752MOL0     H 1462   8.128  10.955   4.329  1.2905 -0.2068  0.2503
  752MOL0     H 1463   8.170  11.190   4.189 -1.3245  1.1594 -1.2564
  752MOL0     H 1464   8.252  11.080   4.072 -1.4090  1.0557 -2.0978
  752MOL0     H 1465   8.042  10.955   4.050  0.3553 -1.9515  3.0036
  752MOL0     H 1466   7.962  11.042   4.175 -1.7959  1.0766 -1.6514
  752MOL0     H 1467   8.083  11.168   3.932  0.8494  0.3091  1.1602
  752MOL0     H 1468   7.958  11.248   4.031  0.6876  0.9202  1.4147
  752MOL0     H 1469   7.860  11.128   3.817 -2.5206 -0.1271  1.3505
  752MOL0     H 1470   7.921  10.979   3.879  2.6653  0.1371  3.6242
  752MOL0     H 1471   7.664  11.248   4.004  0.0065 -0.3989 -0.7453
  752MOL0     H 1472   7.506  11.109   4.294  3.1725  0.2797 -1.2210
  752MOL0     H 1473   7.502  11.252   4.192  3.9054 -0.3673  0.1445
  752MOL0     H 1474   7.266  11.205   4.150 -0.3304 -1.2515 -1.1327
  752MOL0     H 1475   7.348  11.085   4.048  0.6350 -1.0559  0.1640
  752MOL0     H 1476   7.284  10.989   4.329 -0.0998  0.5565 -0.1816
  752MOL0     H 1477   7.329  10.901   4.190 -2.1796 -0.9311 -0.4909
  752MOL0     H 1478   7.071  11.042   4.209  1.0237 -0.3050  0.0719
  752MOL0     H 1479   7.086  10.877   4.196  2.4744 -1.0009 -0.0194
  752MOL0     H 1480   7.107  10.974   3.765 -0.7349 -0.4039 -2.0458
  752MOL0     H 1481   6.911  11.040   3.627 -1.0520 -0.1114 -0.9890
  752MOL0     H 1482   6.558  11.424   3.611  0.2755 -0.8547  0.8414
  752MOL0     H 1483   6.354  11.477   3.448 -1.5442  1.1383  0.3283
  752MOL0     H 1484   6.159  11.093   3.383 -1.8442 -0.8769 -0.7200
  752MOL0     H 1485   5.995  11.170   3.417 -2.1523  0.8321 -4.2316
  752MOL0     H 1486   6.013  11.295   3.209 -0.3923 -0.1764 -2.5873
  752MOL0     H 1487   6.152  11.187   3.172 -1.6697  1.0814 -1.7287
  752MOL0     H 1488   5.997  10.987   3.206  1.2859  0.7610 -2.0054
  752MOL0     H 1489   5.855  11.097   3.214 -0.3756  1.1317 -1.1929
  752MOL0     H 1490   5.901  11.207   3.018 -0.1418 -0.5400  0.8494
  752MOL0     H 1491   5.842  11.045   2.986 -1.3931  0.7491 -2.8823
  752MOL0     H 1492   6.121  11.159   2.940 -1.5154  1.3711  0.3677
  752MOL0     H 1493   6.008  11.092   2.819 -2.2721 -1.6873  1.1953
  752MOL0     H 1494   6.117  10.903   3.031  0.0446 -0.6337 -0.9557
  752MOL0     H 1495   6.018  10.872   2.899 -0.5069 -1.3435  2.2741
  752MOL0     H 1496   6.301  10.983   2.934 -0.6998  2.7315 -1.2589
  752MOL0     H 1497   6.241  10.989   2.771  2.5939 -0.3365 -0.0002
  752MOL0     H 1498   6.171  10.732   2.832  0.0750  0.7627 -0.3412
  752MOL0     H 1499   6.322  10.788   2.758 -1.8227  0.7488 -0.4268
  752MOL0     H 1500   6.162  11.136   3.606  0.5253 -0.9047  0.7243
  752MOL0     H 1501   6.360  11.076   3.764  6.2418 -0.3721  0.7984
  752MOL0     H 1502   6.699  11.164   3.979  0.9450  1.7365 -0.7035
  752MOL0     H 1503   6.877  11.082   4.125  0.5762 -0.4296 -0.3028
  752MOL0     H 1504   8.490  11.306   4.658  0.4736  0.0709  0.1503
  752MOL0     H 1505   8.672  11.436   4.789  0.5087 -0.0920  0.2292
  752MOL0     H 1506   9.077  11.238   5.012 -1.1915 -1.3595  1.8126
  752MOL0     H 1507   9.256  11.247   5.194 -0.8079  0.2880  0.4371
  752MOL0     H 1508   9.150  11.482   5.545 -1.4410 -2.0224 -2.8072
  752MOL0     H 1509   9.260  11.606   5.479 -0.7540 -0.3211 -0.7962
  752MOL0     H 1510   9.432  11.380   5.554  0.9551  1.2810 -0.7018
  752MOL0     H 1511   9.311  11.399   5.686 -0.8858 -0.5125 -0.6211
  752MOL0     H 1512   9.444  11.644   5.570 -2.3849  0.0657 -0.9565
  752MOL0     H 1513   9.563  11.528   5.638  0.9317  3.1843 -0.3220
  752MOL0     H 1514   9.481  11.556   5.855  2.3586  2.9904  1.7656
  752MOL0     H 1515   9.486  11.714   5.787 -0.1205 -0.3747 -0.7677
  752MOL0     H 1516   9.072  11.726   5.831  0.9949  0.6856  0.9758
  752MOL0     H 1517   9.074  11.587   5.364 -0.0084 -0.7072  0.7429
  752MOL0     H 1518   8.783  11.585   5.230  1.5309 -2.5162 -0.0531
  752MOL0     H 1519   8.901  11.705   5.252 -1.3642  0.1707  0.7233
  752MOL0     H 1520   8.861  11.651   5.083  1.4169 -1.6558 -0.6470
  753MOL0     O 1521   8.652   5.863   6.255  0.7317  0.6490  0.4848
  753MOL0     C 1522   8.714   5.907   6.166 -0.5993 -0.1550  0.5560
  753MOL0     O 1523   8.850   5.932   6.165  0.0578  0.8617 -0.1670
  753MOL0     C 1524   8.916   5.898   6.279 -0.1456 -0.0642 -0.4681
  753MOL0     C 1525   8.938   5.763   6.321 -0.8402 -0.3277  0.3524
  753MOL0     C 1526   9.020   5.738   6.432 -0.7711  0.3926  0.1362
  753MOL0     C 1527   9.083   5.838   6.503 -0.4754  0.1915  0.1863
  753MOL0     O 1528   9.164   5.813   6.619 -0.4697  0.5457 -0.6923
  753MOL0     C 1529   9.160   5.685   6.692  0.0089 -0.5970 -0.1968
  753MOL0     C 1530   9.188   5.729   6.845 -0.4650 -0.1125  0.7885
  753MOL0     C 1531   9.186   5.607   6.934  0.3860  1.1183 -0.4847
  753MOL0     C 1532   9.324   5.551   6.973 -0.5725  0.2359  0.4978
  753MOL0     C 1533   9.323   5.442   7.085  0.5228 -0.3127  0.6709
  753MOL0     C 1534   9.462   5.383   7.115 -0.4506  0.0390 -0.6405
  753MOL0     C 1535   9.448   5.268   7.221 -0.6105 -0.6638 -0.4324
  753MOL0     C 1536   9.579   5.205   7.252  0.7587  0.7029  0.8727
  753MOL0     N 1537   9.657   5.161   7.133  0.0925 -0.3306  0.2887
  753MOL0     C 1538   9.749   5.239   7.073 -0.4252 -0.7035  1.4008
  753MOL0     C 1539   9.826   5.152   6.997  0.5683 -0.3075  0.1845
  753MOL0     C 1540   9.939   5.180   6.910  0.5993  0.0658  0.9416
  753MOL0     C 1541   9.937   5.319   6.853 -0.1620  0.1206  0.2446
  753MOL0     C 1542  10.015   5.335   6.719  0.5886  0.1661  0.3451
  753MOL0     C 1543  10.092   5.463   6.722 -0.0899 -0.0363 -0.9458
  753MOL0     O 1544  10.197   5.462   6.816 -0.6296  0.0840  0.1324
  753MOL0     C 1545  10.298   5.558   6.798  0.0601  0.6917  0.2624
  753MOL0     C 1546  10.280   5.681   6.738 -0.1927 -0.8380 -0.5079
  753MOL0     C 1547  10.388   5.768   6.722 -0.2413 -1.1435 -0.2103
  753MOL0     C 1548  10.516   5.742   6.763 -0.4228  0.2337 -0.3118
  753MOL0     C 1549  10.632   5.830   6.745  0.3366  0.3695 -0.3002
  753MOL0     O 1550  10.752   5.769   6.770 -0.3667  0.7860  0.1339
  753MOL0     C 1551  10.862   5.845   6.757  0.1732  0.0079  0.2793
  753MOL0     C 1552  10.967   5.797   6.676 -0.0120  0.3659 -0.9406
  753MOL0     C 1553  11.090   5.864   6.674 -0.0357 -0.1743 -0.7707
  753MOL0     C 1554  11.111   5.969   6.762 -0.5941 -0.5281 -0.4055
  753MOL0     O 1555  11.232   6.035   6.757 -0.5600  0.0932  0.2940
  753MOL0     C 1556  11.267   6.148   6.839  0.3824 -0.2483 -0.1811
  753MOL0     C 1557  11.281   6.107   6.992  0.4128 -0.6667  0.9769
  753MOL0     C 1558  11.408   6.022   7.010  0.0277  0.1979 -0.0533
  753MOL0     C 1559  11.449   6.026   7.159 -0.0777 -0.7712 -0.8976
  753MOL0     C 1560  11.505   6.171   7.198  0.4987  0.2101 -0.0013
  753MOL0     C 1561  11.586   6.141   7.327  0.3981 -0.4598 -0.4887
  753MOL0     C 1562  11.613   6.269   7.409  0.3144  0.9269  1.0133
  753MOL0     C 1563  11.728   6.243   7.505  0.4647  0.0479 -0.3656
  753MOL0    Cl 1564  11.756   6.397   7.582 -0.5917  0.1240 -0.4628
  753MOL0     C 1565  11.005   6.019   6.838 -0.1562  0.4040  0.7903
  753MOL0     C 1566  10.885   5.953   6.838 -0.1501  0.3243 -0.6798
  753MOL0     O 1567  10.616   5.943   6.708 -0.5981  0.9485 -0.4084
  753MOL0     C 1568  10.528   5.613   6.823  0.0826 -0.1068  0.5607
  753MOL0     C 1569  10.428   5.520   6.834  1.0897 -0.0812  0.5974
  753MOL0     N 1570   9.765   5.028   7.005  0.2246 -0.2708  0.5448
  753MOL0     N 1571   9.668   5.031   7.094  0.7136 -0.6705  0.2672
  753MOL0     C 1572   9.045   5.964   6.470 -0.3522 -1.1073 -0.8411
  753MOL0     C 1573   8.979   6.001   6.353 -0.2112 -0.0031 -0.5910
  753MOL0     C 1574   8.651   5.969   6.052  1.3047  0.4278 -0.9694
  753MOL0     C 1575   8.700   6.088   6.005  1.1066 -0.4549  0.5475
  753MOL0     C 1576   8.657   6.147   5.882 -0.5015  0.4462  0.3667
  753MOL0     C 1577   8.539   6.095   5.820 -0.1888 -0.4686  0.5163
  753MOL0     O 1578   8.497   6.127   5.695 -0.1950 -0.1873  0.0145
  753MOL0     C 1579   8.358   6.149   5.679  0.1441 -0.0343 -0.2281
  753MOL0     C 1580   8.309   6.272   5.598  0.3990  0.8011 -0.3526
  753MOL0     C 1581   8.328   6.400   5.693 -0.7134  0.4383  0.4163
  753MOL0     C 1582   8.291   6.522   5.610 -0.2653  0.2323 -0.7054
  753MOL0     C 1583   8.147   6.540   5.596  0.4909  0.6681  0.0261
  753MOL0     C 1584   8.029   6.534   5.559 -0.2560  0.2067  1.4483
  753MOL0     C 1585   8.488   5.982   5.879  0.5867 -0.2489 -0.1330
  753MOL0     C 1586   8.547   5.907   5.980  0.3515 -0.7203 -0.5237
  753MOL0     C 1587   8.470   5.790   6.035 -0.2420 -0.3092  0.1363
  753MOL0     H 1588   8.899   5.674   6.271 -3.1507 -0.0661  1.5292
  753MOL0     H 1589   9.031   5.635   6.465  1.9434 -0.0278 -1.6792
  753MOL0     H 1590   9.065   5.630   6.687  0.4596 -1.6023  1.5291
  753MOL0     H 1591   9.219   5.603   6.650  0.5686 -0.7728  0.9167
  753MOL0     H 1592   9.107   5.795   6.879 -0.6594  1.2945 -2.1187
  753MOL0     H 1593   9.281   5.784   6.836 -2.1550  2.6137 -1.5326
  753MOL0     H 1594   9.122   5.533   6.885  0.2045 -0.4221  1.9391
  753MOL0     H 1595   9.127   5.631   7.023  1.4129 -2.1307  1.2124
  753MOL0     H 1596   9.375   5.521   6.881  1.9770  2.1449  1.1744
  753MOL0     H 1597   9.374   5.639   7.016 -1.5667  0.5443  1.0572
  753MOL0     H 1598   9.271   5.489   7.168 -1.5842  0.8512 -1.2041
  753MOL0     H 1599   9.263   5.356   7.052  1.3979 -0.4764 -0.5417
  753MOL0     H 1600   9.510   5.339   7.027  1.1127  1.9154 -0.8015
  753MOL0     H 1601   9.523   5.461   7.161 -2.2367  0.5558  1.0271
  753MOL0     H 1602   9.385   5.186   7.184 -1.0280 -1.3668  1.6716
  753MOL0     H 1603   9.396   5.309   7.308 -1.1895 -1.4507 -0.3902
  753MOL0     H 1604   9.645   5.272   7.307  0.4258  1.6078  0.1993
  753MOL0     H 1605   9.557   5.119   7.316 -2.0807  2.0384  1.8733
  753MOL0     H 1606   9.767   5.346   7.077  1.2987 -0.8403 -0.7554
  753MOL0     H 1607  10.029   5.179   6.972  2.9333 -0.7217 -2.2311
  753MOL0     H 1608   9.960   5.104   6.834 -0.9995 -1.6958  2.1503
  753MOL0     H 1609   9.832   5.343   6.832 -0.9562 -3.7259 -0.9788
  753MOL0     H 1610   9.982   5.384   6.928  1.1872 -0.9149  0.3713
  753MOL0     H 1611   9.941   5.341   6.638 -0.4362 -0.2460  1.2242
  753MOL0     H 1612  10.085   5.253   6.703 -0.1365 -0.9402  2.4735
  753MOL0     H 1613  10.021   5.545   6.736 -0.6217  1.0637 -7.1541
  753MOL0     H 1614  10.141   5.480   6.626 -2.0828 -0.4464 -2.0888
  753MOL0     H 1615  10.180   5.718   6.716 -0.4227  0.9477  2.8832
  753MOL0     H 1616  10.368   5.864   6.674 -1.6575  0.7116  3.6759
  753MOL0     H 1617  10.958   5.707   6.617 -0.4029  0.5297 -1.1318
  753MOL0     H 1618  11.169   5.827   6.610 -0.6907  1.4519 -2.6155
  753MOL0     H 1619  11.355   6.206   6.811 -1.9445  2.5290 -2.4379
  753MOL0     H 1620  11.183   6.217   6.835 -1.0587 -1.7135  2.1430
  753MOL0     H 1621  11.290   6.203   7.044  2.1201  1.4794 -2.8528
  753MOL0     H 1622  11.188   6.058   7.026 -0.2502 -0.7093 -0.7916
  753MOL0     H 1623  11.398   5.918   6.979 -0.5447 -0.4648  2.1218
  753MOL0     H 1624  11.486   6.057   6.943  0.3334 -0.3836  0.0014
  753MOL0     H 1625  11.530   5.955   7.176  0.2786 -0.4380 -1.1911
  753MOL0     H 1626  11.367   6.010   7.230  1.7573  0.7988  1.7378
  753MOL0     H 1627  11.422   6.242   7.212 -0.8861 -1.5877  1.3880
  753MOL0     H 1628  11.570   6.215   7.121 -0.1257  2.3009  0.6048
  753MOL0     H 1629  11.521   6.076   7.387  3.1956  0.1119  3.6380
  753MOL0     H 1630  11.675   6.082   7.303 -1.1380 -5.1807  3.4531
  753MOL0     H 1631  11.530   6.303   7.473  1.7826  3.1689  1.8559
  753MOL0     H 1632  11.628   6.354   7.341  2.5181 -0.2464 -0.0461
  753MOL0     H 1633  11.699   6.176   7.587  0.3851 -0.3341 -0.7024
  753MOL0     H 1634  11.817   6.207   7.454  0.5057 -0.6326  0.1724
  753MOL0     H 1635  11.016   6.101   6.908 -0.5532  2.2588 -1.2106
  753MOL0     H 1636  10.799   5.995   6.887 -1.2345 -1.9150 -0.5596
  753MOL0     H 1637  10.626   5.592   6.862  0.9402  0.7430 -1.0216
  753MOL0     H 1638  10.449   5.420   6.871 -1.3580 -0.8400  0.0720
  753MOL0     H 1639   9.085   6.047   6.528 -1.6958 -1.1178  0.1654
  753MOL0     H 1640   8.943   6.103   6.338  0.2856  0.4190  0.9160
  753MOL0     H 1641   8.788   6.123   6.058  0.3010  1.1454  0.8941
  753MOL0     H 1642   8.720   6.220   5.833 -2.9031  0.2676 -3.3324
  753MOL0     H 1643   8.319   6.172   5.779  1.8873  2.1596  0.0212
  753MOL0     H 1644   8.304   6.061   5.642 -0.3066  0.5822 -1.0667
  753MOL0     H 1645   8.210   6.251   5.556  1.5502  0.5892 -3.2041
  753MOL0     H 1646   8.367   6.288   5.506 -1.3204 -2.2294 -2.1389
  753MOL0     H 1647   8.432   6.404   5.724 -0.2248 -1.4827 -0.7611
  753MOL0     H 1648   8.266   6.397   5.783 -3.7283 -0.5099 -1.5099
  753MOL0     H 1649   8.316   6.614   5.665  0.0176  1.8523 -3.3587
  753MOL0     H 1650   8.339   6.531   5.512 -2.4936 -0.3818 -1.9133
  753MOL0     H 1651   7.926   6.522   5.532  0.3041 -2.5855  0.2397
  753MOL0     H 1652   8.408   5.931   5.826  1.2687 -1.3635 -0.1196
  753MOL0     H 1653   8.450   5.804   6.142  0.7319 -1.4417  0.4890
  753MOL0     H 1654   8.373   5.767   5.991 -0.3571 -3.5008  1.7945
  753MOL0     H 1655   8.525   5.696   6.038  1.4219  0.5820 -0.6457
  754MOL0     O 1656   2.760   5.446   3.259 -0.0706  0.6669  0.3352
  754MOL0     C 1657   2.810   5.499   3.358  0.0489 -0.6770  1.8438
  754MOL0     O 1658   2.749   5.493   3.478 -0.0425 -0.4767  0.3839
  754MOL0     C 1659   2.627   5.428   3.497  0.3898 -1.1216  0.2612
  754MOL0     C 1660   2.525   5.506   3.556 -0.2289  0.0790 -0.2241
  754MOL0     C 1661   2.404   5.441   3.588  0.2672 -0.1068 -0.0635
  754MOL0     C 1662   2.381   5.294   3.566 -0.1924  0.2557  0.3023
  754MOL0     O 1663   2.257   5.234   3.604 -0.7294  0.4250 -0.5316
  754MOL0     C 1664   2.152   5.305   3.677  0.0577 -0.7662 -0.4024
  754MOL0     C 1665   2.162   5.291   3.824  0.2093  0.0442 -0.7929
  754MOL0     C 1666   2.076   5.401   3.897  0.2972 -0.6198 -0.6708
  754MOL0     C 1667   1.922   5.396   3.877 -0.6995 -0.2263  0.6570
  754MOL0     C 1668   1.860   5.259   3.895 -0.7501  0.8514 -0.3312
  754MOL0     C 1669   1.718   5.261   3.837 -0.0673 -0.3196 -0.1566
  754MOL0     C 1670   1.709   5.245   3.682  0.4207  0.0620  1.1220
  754MOL0     C 1671   1.708   5.096   3.638  0.1674  0.1995  0.7152
  754MOL0     N 1672   1.616   5.072   3.519  0.2493 -0.4104  0.4510
  754MOL0     C 1673   1.616   5.151   3.403 -0.8493  0.0133  0.1600
  754MOL0     C 1674   1.516   5.099   3.328  1.1332  1.1819 -0.3396
  754MOL0     C 1675   1.480   5.141   3.193  0.4009 -0.1875  0.2447
  754MOL0     C 1676   1.554   5.270   3.154  0.2369  0.4144  0.2288
  754MOL0     C 1677   1.497   5.324   3.012  1.2037 -0.0499 -0.7316
  754MOL0     C 1678   1.550   5.459   2.981 -0.1953 -0.1530 -0.2286
  754MOL0     O 1679   1.467   5.542   3.051 -0.1469  0.6663 -0.3709
  754MOL0     C 1680   1.540   5.647   3.100 -0.8935 -0.1299 -0.1994
  754MOL0     C 1681   1.615   5.743   3.030 -1.0817 -0.9734 -0.3646
  754MOL0     C 1682   1.662   5.855   3.093 -0.7998 -0.3856  0.6920
  754MOL0     C 1683   1.644   5.880   3.227 -0.0277  0.4845  0.5499
  754MOL0     C 1684   1.703   6.006   3.289 -0.2101  0.1648 -0.3778
  754MOL0     O 1685   1.737   5.994   3.424 -0.0315  0.1900 -0.6035
  754MOL0     C 1686   1.792   6.104   3.487  0.1475  0.4359 -0.0239
  754MOL0     C 1687   1.911   6.168   3.437 -0.6084 -0.2450  0.4257
  754MOL0     C 1688   1.969   6.263   3.518  0.1938 -0.5819 -0.5037
  754MOL0     C 1689   1.926   6.306   3.645  0.7014  1.0519  0.9182
  754MOL0     O 1690   2.005   6.409   3.714 -0.3952 -0.6698  0.3574
  754MOL0     C 1691   1.949   6.447   3.833  1.0722 -0.0214  0.1189
  754MOL0     C 1692   2.032   6.541   3.915  1.1259  0.4419 -0.8500
  754MOL0     C 1693   2.015   6.683   3.882  0.2773 -0.1797  0.3630
  754MOL0     C 1694   2.087   6.710   3.742 -0.1206 -0.0781  0.9585
  754MOL0     C 1695   2.092   6.864   3.713  0.0365  0.8833  0.6758
  754MOL0     C 1696   1.944   6.920   3.698 -0.4775 -0.3182 -0.1141
  754MOL0     C 1697   1.943   7.074   3.686  0.7178  0.0012  0.2209
  754MOL0     C 1698   1.794   7.141   3.670 -0.2765  0.2757 -1.2344
  754MOL0    Cl 1699   1.685   7.080   3.543  0.0402  0.8048 -0.2865
  754MOL0     C 1700   1.815   6.231   3.689  0.4270 -0.0119  0.6871
  754MOL0     C 1701   1.754   6.124   3.619  0.5492 -0.5664 -0.3470
  754MOL0     O 1702   1.728   6.104   3.214  0.4734 -0.2610 -0.8483
  754MOL0     C 1703   1.568   5.793   3.294  1.0868 -0.0567  0.1291
  754MOL0     C 1704   1.517   5.677   3.236  0.9850 -0.0470  0.4496
  754MOL0     N 1705   1.450   4.994   3.402 -0.2088 -0.2748 -0.5438
  754MOL0     N 1706   1.508   4.989   3.520  0.7228 -0.1916 -1.2317
  754MOL0     C 1707   2.482   5.228   3.497  1.3547 -0.5484 -0.1872
  754MOL0     C 1708   2.605   5.292   3.464  0.6313 -0.7222  0.7348
  754MOL0     C 1709   2.924   5.590   3.338  0.3284 -0.1581  0.1941
  754MOL0     C 1710   3.014   5.612   3.448  0.4174 -0.0373 -0.5470
  754MOL0     C 1711   3.125   5.706   3.434  0.2922  0.0206 -0.0233
  754MOL0     C 1712   3.158   5.762   3.311 -0.3386 -1.3089 -0.6644
  754MOL0     O 1713   3.256   5.860   3.306 -0.4249 -0.4455 -0.3188
  754MOL0     C 1714   3.246   5.967   3.207 -0.4661  0.5301 -0.7879
  754MOL0     C 1715   3.355   6.065   3.227  0.1760  0.7370 -0.5414
  754MOL0     C 1716   3.323   6.202   3.165 -0.1703 -0.1519  0.7774
  754MOL0     C 1717   3.207   6.278   3.234 -0.1498 -0.5777  0.7832
  754MOL0     C 1718   3.193   6.398   3.153 -0.4584  0.3047  1.0517
  754MOL0     C 1719   3.172   6.506   3.101  0.2705 -0.7962 -0.0211
  754MOL0     C 1720   3.070   5.735   3.204 -0.2700 -0.8507 -0.2735
  754MOL0     C 1721   2.959   5.655   3.219 -0.0397  0.5939  1.2326
  754MOL0     C 1722   2.883   5.621   3.090 -0.4071 -0.0259 -0.2157
  754MOL0     H 1723   2.538   5.612   3.573  1.9987 -0.3885  1.4125
  754MOL0     H 1724   2.330   5.499   3.643  0.1809 -1.1037  0.9074
  754MOL0     H 1725   2.149   5.410   3.646 -0.3779  0.1323  2.4295
  754MOL0     H 1726   2.049   5.285   3.646 -0.6790  1.8786  0.1101
  754MOL0     H 1727   2.267   5.300   3.854  0.6814 -2.1700 -1.5655
  754MOL0     H 1728   2.121   5.195   3.857  0.3297 -1.0279 -3.4921
  754MOL0     H 1729   2.113   5.503   3.882  0.8581 -0.6987  0.1185
  754MOL0     H 1730   2.098   5.386   4.003 -2.5097 -0.9360 -0.0416
  754MOL0     H 1731   1.869   5.461   3.948 -2.2711  0.5803 -1.1652
  754MOL0     H 1732   1.898   5.435   3.778 -0.3298  0.0702  0.6809
  754MOL0     H 1733   1.918   5.176   3.853 -1.0077  1.9665 -3.0274
  754MOL0     H 1734   1.854   5.235   4.002  2.6770 -0.0598 -0.2145
  754MOL0     H 1735   1.662   5.180   3.885 -1.0894  1.4683  1.8318
  754MOL0     H 1736   1.674   5.351   3.880  1.4594 -0.2860  1.4511
  754MOL0     H 1737   1.784   5.307   3.633 -0.2740  0.0594  0.0086
  754MOL0     H 1738   1.617   5.300   3.656 -1.2401 -1.8798  2.5316
  754MOL0     H 1739   1.810   5.065   3.614 -0.3915 -0.5551 -0.8464
  754MOL0     H 1740   1.671   5.035   3.721  1.5150 -1.3326  0.2422
  754MOL0     H 1741   1.670   5.243   3.383 -1.3707  0.2850 -0.0386
  754MOL0     H 1742   1.502   5.065   3.118 -1.1335  1.7661 -2.3678
  754MOL0     H 1743   1.372   5.158   3.190  0.4952  0.3624 -1.4865
  754MOL0     H 1744   1.537   5.347   3.229  0.1898  0.9011 -0.2822
  754MOL0     H 1745   1.663   5.259   3.146  0.1677 -0.8444  0.7471
  754MOL0     H 1746   1.390   5.323   3.035  1.3293 -0.1857 -0.1241
  754MOL0     H 1747   1.522   5.242   2.943  2.2042 -2.9514  2.7465
  754MOL0     H 1748   1.539   5.475   2.874 -1.5563 -2.5290 -0.5001
  754MOL0     H 1749   1.659   5.469   2.991 -0.3465  1.9323 -0.1638
  754MOL0     H 1750   1.642   5.750   2.925 -1.1902  2.0158 -0.2849
  754MOL0     H 1751   1.734   5.920   3.044  1.1753 -2.3919  0.7290
  754MOL0     H 1752   1.966   6.136   3.349  1.6539  0.4070  1.5135
  754MOL0     H 1753   2.062   6.311   3.489  0.2086 -0.4662 -0.2647
  754MOL0     H 1754   1.848   6.479   3.807  1.1212 -1.5426 -2.2707
  754MOL0     H 1755   1.953   6.356   3.893 -3.4046 -0.6734 -0.1890
  754MOL0     H 1756   1.989   6.534   4.015 -0.2361  1.1805 -1.3482
  754MOL0     H 1757   2.136   6.507   3.919  0.6414 -1.0214  1.5790
  754MOL0     H 1758   1.908   6.704   3.893  0.0787 -1.1306  0.2797
  754MOL0     H 1759   2.068   6.741   3.959  0.0861 -0.7721  0.9507
  754MOL0     H 1760   2.027   6.666   3.661  1.4854  0.6657 -0.7150
  754MOL0     H 1761   2.183   6.658   3.733  0.3952  1.1196 -1.1548
  754MOL0     H 1762   2.145   6.872   3.618  2.2241  1.4393  1.8881
  754MOL0     H 1763   2.157   6.909   3.788  1.5722 -2.6688  1.6701
  754MOL0     H 1764   1.901   6.868   3.612 -0.3409 -0.6692  0.0268
  754MOL0     H 1765   1.892   6.884   3.788  1.2841 -3.9412 -0.3509
  754MOL0     H 1766   1.991   7.076   3.588  0.9817 -0.4207  0.3365
  754MOL0     H 1767   2.007   7.114   3.764  1.5747  0.1718 -0.5541
  754MOL0     H 1768   1.744   7.124   3.766  2.7035  0.9726  0.5710
  754MOL0     H 1769   1.814   7.248   3.659 -0.4378  0.6140  1.0952
  754MOL0     H 1770   1.771   6.252   3.786  1.2501  2.8730  0.5182
  754MOL0     H 1771   1.695   6.041   3.658  3.8284 -3.4451 -1.0007
  754MOL0     H 1772   1.533   5.804   3.396 -2.9623  2.1801 -1.2595
  754MOL0     H 1773   1.453   5.607   3.288 -0.1319 -0.5372 -1.4983
  754MOL0     H 1774   2.462   5.126   3.464  3.0822 -0.6447 -1.0176
  754MOL0     H 1775   2.688   5.241   3.417 -1.6229 -3.8842 -0.0947
  754MOL0     H 1776   2.992   5.572   3.546  3.4155  1.7331  1.0053
  754MOL0     H 1777   3.184   5.723   3.523  1.2322 -0.1388 -0.6021
  754MOL0     H 1778   3.150   6.009   3.241  0.1986  0.7682  0.8987
  754MOL0     H 1779   3.243   5.931   3.104  3.2165 -0.1237 -0.7908
  754MOL0     H 1780   3.444   6.019   3.182 -0.6991  1.9037 -3.7303
  754MOL0     H 1781   3.367   6.074   3.335  2.6615  0.4382 -0.7256
  754MOL0     H 1782   3.285   6.183   3.064  0.8246  0.2993  0.2951
  754MOL0     H 1783   3.413   6.265   3.159 -0.2998 -0.1019 -1.1610
  754MOL0     H 1784   3.122   6.210   3.237 -1.2212  0.7619  1.6083
  754MOL0     H 1785   3.225   6.306   3.338 -0.4089  3.0666 -0.0362
  754MOL0     H 1786   3.153   6.609   3.077 -1.8742 -0.7646  1.5248
  754MOL0     H 1787   3.104   5.762   3.104 -2.0240 -1.2524 -1.0212
  754MOL0     H 1788   2.924   5.678   3.006  1.7695 -0.7013  0.3292
  754MOL0     H 1789   2.901   5.515   3.072 -1.3065 -0.0492 -1.0300
  754MOL0     H 1790   2.778   5.643   3.109 -0.6474 -2.7817  2.3165
  755MOL0     O 1791   7.947   7.781   7.977 -0.1536  0.3205 -0.3141
  755MOL0     C 1792   7.941   7.717   7.877  0.5568  0.1538  0.8676
  755MOL0     O 1793   7.956   7.578   7.865 -0.2221 -0.8988  0.3967
  755MOL0     C 1794   7.969   7.507   7.980  0.8676 -0.2125  0.2908
  755MOL0     C 1795   8.040   7.538   8.091 -0.2400 -0.0385 -0.6409
  755MOL0     C 1796   8.035   7.451   8.208 -0.5372  0.3558 -0.0961
  755MOL0     C 1797   7.956   7.335   8.205 -0.3946 -0.2117  0.4399
  755MOL0     O 1798   7.933   7.248   8.313  0.5452  0.1998  0.3480
  755MOL0     C 1799   7.934   7.300   8.451  0.1974  0.6411  0.3067
  755MOL0     C 1800   7.979   7.195   8.548 -1.5201 -1.0362 -0.1421
  755MOL0     C 1801   7.890   7.068   8.571 -0.5944 -0.9128 -0.5145
  755MOL0     C 1802   7.966   6.978   8.664  0.1999  0.3971 -0.1721
  755MOL0     C 1803   7.887   6.858   8.708 -0.6689  0.6323 -0.1661
  755MOL0     C 1804   7.971   6.759   8.791  0.0713  1.1269 -1.1446
  755MOL0     C 1805   7.907   6.619   8.789 -0.2436  0.5407 -0.4370
  755MOL0     C 1806   8.025   6.532   8.846  0.4835  0.0896  0.2912
  755MOL0     N 1807   8.006   6.396   8.816  0.3532  0.1228  0.1235
  755MOL0     C 1808   7.883   6.336   8.836 -0.8444 -0.3457  0.3239
  755MOL0     C 1809   7.900   6.204   8.807  0.2660 -0.1503  0.6180
  755MOL0     C 1810   7.798   6.098   8.822  0.5260 -0.6128  0.0014
  755MOL0     C 1811   7.774   6.064   8.966  0.4103 -0.3067 -0.5059
  755MOL0     C 1812   7.647   5.983   8.986  0.7860  0.8627 -0.3469
  755MOL0     C 1813   7.515   6.051   8.942 -0.3067  0.2531  0.3838
  755MOL0     O 1814   7.493   6.171   9.013 -0.1442 -1.0006 -0.4552
  755MOL0     C 1815   7.452   6.181   9.141 -0.0885  0.6320 -0.0737
  755MOL0     C 1816   7.439   6.308   9.187 -0.0978  0.2720 -0.9441
  755MOL0     C 1817   7.377   6.328   9.313 -0.1841  0.3561 -0.5455
  755MOL0     C 1818   7.328   6.227   9.393  0.1049 -0.5195  0.6437
  755MOL0     C 1819   7.255   6.267   9.513 -0.0172  0.7479  0.0305
  755MOL0     O 1820   7.257   6.170   9.609  0.2908  0.3441 -0.1565
  755MOL0     C 1821   7.205   6.189   9.733  0.3321  0.5185  0.4310
  755MOL0     C 1822   7.295   6.225   9.833  0.3667  0.3214 -0.0933
  755MOL0     C 1823   7.250   6.237   9.970 -0.0396 -0.5803  0.1576
  755MOL0     C 1824   7.122   6.222  10.012 -0.2893  0.1103  0.2615
  755MOL0     O 1825   7.095   6.235  10.147  0.9289 -0.1044 -0.0877
  755MOL0     C 1826   6.948   6.257  10.171  0.2383 -0.1394  0.7462
  755MOL0     C 1827   6.871   6.122  10.178  0.2329  0.6395  0.1713
  755MOL0     C 1828   6.947   5.993  10.224 -0.0812  0.0614  0.9397
  755MOL0     C 1829   6.848   5.897  10.296 -0.0159 -0.0081  0.2333
  755MOL0     C 1830   6.908   5.780  10.377 -0.5612  0.1788 -0.1651
  755MOL0     C 1831   6.982   5.679  10.282  0.3352 -0.6061 -1.2137
  755MOL0     C 1832   7.064   5.569  10.361 -0.6673 -1.2164 -0.0222
  755MOL0     C 1833   6.973   5.465  10.422  0.2911  0.7438 -1.2300
  755MOL0    Cl 1834   6.876   5.389  10.294 -0.1021  0.4002  0.6056
  755MOL0     C 1835   7.036   6.178   9.907 -0.0239 -0.2695  0.0246
  755MOL0     C 1836   7.078   6.163   9.775  1.4625 -0.7399  0.0250
  755MOL0     O 1837   7.210   6.379   9.527  0.5510 -0.1702 -0.1796
  755MOL0     C 1838   7.339   6.098   9.349 -0.1568  0.2479 -0.2067
  755MOL0     C 1839   7.401   6.076   9.220 -0.4383  0.4853  0.0951
  755MOL0     N 1840   8.035   6.196   8.776  0.8111  0.3900 -0.0487
  755MOL0     N 1841   8.097   6.309   8.766  0.3168  0.7266 -0.2173
  755MOL0     C 1842   7.890   7.301   8.087 -0.1373 -0.1662  0.1770
  755MOL0     C 1843   7.903   7.385   7.981  0.0873 -0.0079 -0.0164
  755MOL0     C 1844   7.904   7.789   7.752  0.2202 -0.3205  0.1626
  755MOL0     C 1845   7.985   7.906   7.726  0.3875  0.1215  0.0298
  755MOL0     C 1846   7.965   7.975   7.606  0.8306 -0.6781 -0.5727
  755MOL0     C 1847   7.865   7.940   7.518  0.3047  0.3975 -0.2281
  755MOL0     O 1848   7.840   8.015   7.406  0.2390 -0.2303 -1.0717
  755MOL0     C 1849   7.735   7.990   7.310 -0.2527 -1.0999  0.3559
  755MOL0     C 1850   7.718   8.117   7.219  0.6854  0.4467  0.2265
  755MOL0     C 1851   7.837   8.183   7.160  0.0347 -0.2786  0.3020
  755MOL0     C 1852   7.848   8.179   7.008  0.0766 -0.0055 -0.0850
  755MOL0     C 1853   7.748   8.250   6.923 -1.1786 -0.6641 -0.0395
  755MOL0     C 1854   7.664   8.318   6.862  0.7657  0.1289  0.1445
  755MOL0     C 1855   7.795   7.817   7.547  0.0784  0.0157  0.4828
  755MOL0     C 1856   7.809   7.745   7.663  0.2759  0.6034 -0.3949
  755MOL0     C 1857   7.720   7.615   7.668 -0.2198  0.1902  0.2715
  755MOL0     H 1858   8.095   7.632   8.089 -0.4814  0.1316  0.0986
  755MOL0     H 1859   8.088   7.488   8.294 -0.5355 -0.9472  0.4836
  755MOL0     H 1860   8.005   7.383   8.453  1.5935 -0.4477 -1.0676
  755MOL0     H 1861   7.840   7.338   8.491 -0.5508  1.5639 -2.1652
  755MOL0     H 1862   8.011   7.235   8.644 -2.5649 -1.4087  0.3771
  755MOL0     H 1863   8.071   7.168   8.496 -1.0507  1.7023 -0.9364
  755MOL0     H 1864   7.865   7.020   8.476 -1.4475  0.8949 -1.2432
  755MOL0     H 1865   7.803   7.111   8.621  2.5014  1.6873  3.2650
  755MOL0     H 1866   8.055   6.954   8.605  1.7992 -0.2343  2.3265
  755MOL0     H 1867   7.991   7.040   8.751 -1.2822 -0.7082  1.1117
  755MOL0     H 1868   7.801   6.894   8.764 -0.4338 -1.6514  1.8081
  755MOL0     H 1869   7.854   6.801   8.621  2.2399  1.9260 -2.3273
  755MOL0     H 1870   8.072   6.756   8.749  1.3935  0.2915  1.7774
  755MOL0     H 1871   7.975   6.790   8.896  0.5297  0.7271 -1.0372
  755MOL0     H 1872   7.882   6.596   8.685 -3.9282  0.3809  0.3318
  755MOL0     H 1873   7.817   6.602   8.849  0.9534 -2.0054  0.8115
  755MOL0     H 1874   8.124   6.557   8.807  0.6467 -0.7760  0.1263
  755MOL0     H 1875   8.023   6.540   8.956 -1.4051  1.0129  0.2166
  755MOL0     H 1876   7.788   6.375   8.869 -0.5358  0.7189 -0.0242
  755MOL0     H 1877   7.705   6.131   8.775  0.8305  0.4875  0.1429
  755MOL0     H 1878   7.829   6.007   8.769 -0.7410 -2.0963  1.6826
  755MOL0     H 1879   7.857   5.998   8.994 -1.5425 -3.1683 -1.0247
  755MOL0     H 1880   7.780   6.149   9.035  3.1198 -3.9992  4.4198
  755MOL0     H 1881   7.626   5.957   9.090 -1.3328  0.9252 -0.7070
  755MOL0     H 1882   7.671   5.888   8.938 -2.9903 -0.9839  1.0039
  755MOL0     H 1883   7.426   5.987   8.951 -1.5249  1.8742  0.3689
  755MOL0     H 1884   7.512   6.077   8.836 -3.4169 -1.2480 -0.0259
  755MOL0     H 1885   7.483   6.389   9.130  1.9987 -0.8787 -1.0918
  755MOL0     H 1886   7.370   6.426   9.360  0.2086 -1.3369  3.4341
  755MOL0     H 1887   7.393   6.251   9.797 -0.2939  0.7601 -1.6632
  755MOL0     H 1888   7.334   6.262  10.034  0.3138 -1.4629  0.0456
  755MOL0     H 1889   6.947   6.304  10.270 -0.3971  0.1876  0.5926
  755MOL0     H 1890   6.897   6.328  10.105 -2.2500 -0.7798  1.8503
  755MOL0     H 1891   6.787   6.131  10.248 -1.3493 -1.0638 -1.3803
  755MOL0     H 1892   6.821   6.110  10.081  0.3037 -1.5510  0.3473
  755MOL0     H 1893   6.999   5.942  10.143  0.6131 -1.5046  2.3289
  755MOL0     H 1894   7.025   6.031  10.291  1.6602  0.9672 -1.4414
  755MOL0     H 1895   6.777   5.857  10.223  1.1318 -1.3407 -0.2109
  755MOL0     H 1896   6.794   5.963  10.364 -3.0732 -1.1600 -0.9266
  755MOL0     H 1897   6.822   5.728  10.422  0.0932 -3.0593 -2.2548
  755MOL0     H 1898   6.981   5.819  10.448 -1.4595  1.9909 -0.2018
  755MOL0     H 1899   6.906   5.627  10.224 -1.9118 -0.9558  1.8166
  755MOL0     H 1900   7.056   5.723  10.215  3.5274 -1.5943  1.3966
  755MOL0     H 1901   7.120   5.626  10.435  2.7746 -1.7734 -1.9404
  755MOL0     H 1902   7.141   5.509  10.311  0.4753 -2.7483  3.2590
  755MOL0     H 1903   7.021   5.380  10.471  4.1663  2.1901 -2.1633
  755MOL0     H 1904   6.904   5.498  10.500  0.7653 -0.9029 -0.0654
  755MOL0     H 1905   6.931   6.174   9.935  0.4746  2.5169  2.7713
  755MOL0     H 1906   7.003   6.143   9.700  0.3185  2.3153  0.2133
  755MOL0     H 1907   7.305   6.014   9.410 -1.4696 -0.8280 -2.2971
  755MOL0     H 1908   7.401   5.976   9.176 -0.1945  1.5164 -2.4218
  755MOL0     H 1909   7.834   7.208   8.089 -1.3703  0.5310  3.1011
  755MOL0     H 1910   7.858   7.353   7.887 -2.2869 -0.1022  1.0694
  755MOL0     H 1911   8.057   7.945   7.798 -1.0380  2.6679  0.1904
  755MOL0     H 1912   8.030   8.061   7.598  1.6421 -1.2231 -0.0060
  755MOL0     H 1913   7.640   7.961   7.355 -0.7332 -1.7017 -0.9958
  755MOL0     H 1914   7.772   7.916   7.238  0.3304  0.6312 -1.2168
  755MOL0     H 1915   7.689   8.201   7.283 -0.6124  0.4129 -0.2836
  755MOL0     H 1916   7.642   8.094   7.143  0.9182 -0.7698  0.3518
  755MOL0     H 1917   7.928   8.142   7.203 -0.4153 -0.6707  0.9100
  755MOL0     H 1918   7.824   8.291   7.178 -3.7917 -0.4527 -0.4371
  755MOL0     H 1919   7.944   8.216   6.971 -0.1694  0.9017  0.1626
  755MOL0     H 1920   7.843   8.073   6.983  2.4991 -0.6286  1.6536
  755MOL0     H 1921   7.586   8.373   6.814  0.5257 -0.9551 -0.7563
  755MOL0     H 1922   7.722   7.784   7.474 -1.6661  1.2218  1.5955
  755MOL0     H 1923   7.635   7.617   7.600  0.7306 -0.5068 -0.9927
  755MOL0     H 1924   7.774   7.529   7.628 -0.5135 -0.5053  1.3194
  755MOL0     H 1925   7.689   7.593   7.771  0.6729 -2.1030  0.1238
  756MOL0     O 1926   2.246   9.145   2.678 -0.0609  0.0207 -0.4242
  756MOL0     C 1927   2.189   9.232   2.612  0.0484  0.1824 -0.4155
  756MOL0     O 1928   2.062   9.254   2.627  0.0760 -1.1123 -0.6836
  756MOL0     C 1929   1.997   9.216   2.741  0.2303 -0.6983  0.2981
  756MOL0     C 1930   1.915   9.097   2.731  0.5587  0.3514 -1.7319
  756MOL0     C 1931   1.834   9.057   2.843  0.0760 -0.8295  0.5831
  756MOL0     C 1932   1.846   9.127   2.963 -0.0822  0.1257 -0.4792
  756MOL0     O 1933   1.761   9.084   3.066 -0.7648  0.5420 -0.2896
  756MOL0     C 1934   1.822   9.023   3.182  0.6203 -0.7086  0.8381
  756MOL0     C 1935   1.709   8.916   3.221 -0.3140 -1.6072  0.0149
  756MOL0     C 1936   1.715   8.796   3.120 -0.1328  0.3368 -0.3721
  756MOL0     C 1937   1.600   8.701   3.153 -0.2419  1.1877 -0.8810
  756MOL0     C 1938   1.610   8.580   3.064  0.4501  0.4095 -0.2157
  756MOL0     C 1939   1.485   8.567   2.972 -0.2274  0.0619 -0.8099
  756MOL0     C 1940   1.447   8.422   2.938  0.5413 -0.7519 -0.0603
  756MOL0     C 1941   1.559   8.375   2.849 -0.2008 -0.4498  0.3842
  756MOL0     N 1942   1.521   8.253   2.779 -0.3558 -0.0107 -0.4337
  756MOL0     C 1943   1.477   8.147   2.867  0.4906 -0.2352  0.0042
  756MOL0     C 1944   1.436   8.062   2.774  0.5868 -0.8736  0.5790
  756MOL0     C 1945   1.372   7.936   2.797  0.3431  0.0903  0.4735
  756MOL0     C 1946   1.222   7.945   2.820  0.4841  0.4259 -0.8262
  756MOL0     C 1947   1.137   8.010   2.710  0.5554  0.0836  0.0845
  756MOL0     C 1948   1.161   7.939   2.572  0.3018 -0.0977 -0.3033
  756MOL0     O 1949   1.063   7.988   2.469  0.2604 -0.6674 -0.3240
  756MOL0     C 1950   1.115   8.052   2.363  0.3170 -0.7507 -0.1779
  756MOL0     C 1951   1.240   8.123   2.363  0.2151 -0.4083  0.9687
  756MOL0     C 1952   1.304   8.156   2.249 -0.5530  0.0022 -0.4217
  756MOL0     C 1953   1.253   8.115   2.127 -0.1906 -0.3094  0.2753
  756MOL0     C 1954   1.329   8.125   2.001 -0.5290 -0.1648 -0.7542
  756MOL0     O 1955   1.446   8.183   2.016 -0.5424 -0.6965  1.0008
  756MOL0     C 1956   1.530   8.226   1.910  0.9442  0.6827  0.5353
  756MOL0     C 1957   1.664   8.195   1.929  0.2571  0.4819 -0.9290
  756MOL0     C 1958   1.768   8.249   1.840  0.3259  0.4867  0.0658
  756MOL0     C 1959   1.722   8.319   1.730 -0.6073 -0.0588  0.2419
  756MOL0     O 1960   1.819   8.376   1.641 -0.4240 -0.3159 -0.0110
  756MOL0     C 1961   1.792   8.418   1.512 -0.3855 -0.8893  1.0247
  756MOL0     C 1962   1.925   8.448   1.437  0.1584  0.8386 -0.7758
  756MOL0     C 1963   1.990   8.314   1.406 -0.4590 -0.1018 -0.7077
  756MOL0     C 1964   2.101   8.341   1.299  0.5760  0.7377 -0.1608
  756MOL0     C 1965   2.203   8.218   1.314 -0.2776 -0.2896  0.1824
  756MOL0     C 1966   2.317   8.221   1.218 -0.0068 -0.5466 -0.3028
  756MOL0     C 1967   2.412   8.348   1.228  0.8080 -0.1302 -0.1724
  756MOL0     C 1968   2.536   8.315   1.149 -1.3847 -0.0718 -0.6240
  756MOL0    Cl 1969   2.654   8.442   1.140  0.0715 -0.3423  0.0388
  756MOL0     C 1970   1.582   8.325   1.696 -0.0610 -0.4702  0.3225
  756MOL0     C 1971   1.491   8.293   1.799  0.2968 -0.4570  0.2994
  756MOL0     O 1972   1.283   8.071   1.898 -0.6960  0.2114 -0.0280
  756MOL0     C 1973   1.131   8.042   2.116 -0.4514  0.5503 -0.4759
  756MOL0     C 1974   1.073   8.008   2.234  0.0367 -0.1589 -0.0728
  756MOL0     N 1975   1.433   8.121   2.648  1.0635 -0.7699 -0.3434
  756MOL0     N 1976   1.482   8.240   2.656  0.0216 -0.0704 -0.5786
  756MOL0     C 1977   1.931   9.234   2.975 -0.4229 -0.3614  0.6509
  756MOL0     C 1978   2.005   9.282   2.864 -0.0370  0.1614  0.3101
  756MOL0     C 1979   2.254   9.320   2.514  0.2917  0.5049  0.4140
  756MOL0     C 1980   2.374   9.262   2.473 -0.6232 -0.5083  0.0125
  756MOL0     C 1981   2.468   9.329   2.394  0.3239 -0.6305 -0.5438
  756MOL0     C 1982   2.442   9.463   2.366 -0.0705 -0.7323 -0.0313
  756MOL0     O 1983   2.541   9.543   2.305 -0.8031  0.6398 -0.3892
  756MOL0     C 1984   2.596   9.656   2.374 -0.6861  0.0464  0.5245
  756MOL0     C 1985   2.713   9.601   2.452  0.4270  0.2047  1.4287
  756MOL0     C 1986   2.817   9.520   2.363 -1.0303 -0.0515  0.2889
  756MOL0     C 1987   2.945   9.490   2.454  0.0479 -0.0384  0.0135
  756MOL0     C 1988   3.032   9.604   2.481  0.0326  0.3307 -0.3122
  756MOL0     C 1989   3.099   9.695   2.517 -0.7747 -0.7097 -0.1364
  756MOL0     C 1990   2.320   9.520   2.397  0.0906  0.3304 -0.0510
  756MOL0     C 1991   2.227   9.454   2.486 -0.1264  0.2022  0.9131
  756MOL0     C 1992   2.100   9.531   2.525  0.9872  0.1873  0.2436
  756MOL0     H 1993   1.916   9.044   2.637 -1.2766  0.1773 -1.6942
  756MOL0     H 1994   1.773   8.968   2.832 -0.6042 -0.1138 -2.8091
  756MOL0     H 1995   1.909   8.970   3.142  0.2019 -0.1725 -0.8710
  756MOL0     H 1996   1.855   9.093   3.259 -2.4488  3.6740 -1.4067
  756MOL0     H 1997   1.612   8.966   3.218  1.1879  1.4660 -2.0375
  756MOL0     H 1998   1.740   8.878   3.319  0.1799 -1.0168  0.0930
  756MOL0     H 1999   1.816   8.753   3.116  1.2463  3.3864 -3.8197
  756MOL0     H 2000   1.706   8.851   3.026  4.6467  1.9340 -0.1946
  756MOL0     H 2001   1.600   8.675   3.259 -0.0305  0.3173 -1.0826
  756MOL0     H 2002   1.502   8.745   3.135 -0.6910  0.4193 -0.4040
  756MOL0     H 2003   1.704   8.588   3.008  1.4979  1.6565  1.6017
  756MOL0     H 2004   1.617   8.493   3.130 -1.2308  0.3143 -0.1299
  756MOL0     H 2005   1.400   8.598   3.034  0.3082  3.3702 -1.5237
  756MOL0     H 2006   1.496   8.629   2.882  0.0147 -0.5741 -1.2244
  756MOL0     H 2007   1.366   8.418   2.865  1.8704  1.0423 -1.7417
  756MOL0     H 2008   1.433   8.356   3.024  1.1025 -2.0845 -0.9494
  756MOL0     H 2009   1.590   8.450   2.777  0.3566 -0.3617  0.7136
  756MOL0     H 2010   1.644   8.350   2.914  0.1665  3.5564  1.7137
  756MOL0     H 2011   1.469   8.138   2.975  0.4876  1.5936  0.1898
  756MOL0     H 2012   1.388   7.863   2.717 -2.3739  1.7265 -1.7752
  756MOL0     H 2013   1.422   7.896   2.885  2.9530  1.1718 -0.4360
  756MOL0     H 2014   1.182   7.843   2.831 -0.7093  0.9449 -0.1437
  756MOL0     H 2015   1.201   7.993   2.916 -1.2961  2.6936 -2.2457
  756MOL0     H 2016   1.154   8.116   2.690 -0.0671  0.3838  1.0671
  756MOL0     H 2017   1.030   8.000   2.727 -0.1255  0.0679 -3.4111
  756MOL0     H 2018   1.126   7.836   2.584 -1.7526  0.6622  0.6791
  756MOL0     H 2019   1.268   7.940   2.548  0.5377  3.7019  0.1925
  756MOL0     H 2020   1.294   8.136   2.457 -0.3978 -0.3154  1.3183
  756MOL0     H 2021   1.401   8.203   2.255  0.5060 -2.1003 -0.2608
  756MOL0     H 2022   1.695   8.149   2.023  3.6464 -1.8355 -2.9600
  756MOL0     H 2023   1.872   8.217   1.840  0.5341  0.8262  3.2005
  756MOL0     H 2024   1.739   8.332   1.470  0.1307 -0.9413  0.4732
  756MOL0     H 2025   1.725   8.504   1.517 -0.6471 -1.1560  2.7872
  756MOL0     H 2026   1.919   8.509   1.347  1.8840  3.4159  0.7273
  756MOL0     H 2027   1.998   8.486   1.510  0.2238 -0.1231 -0.3137
  756MOL0     H 2028   2.026   8.269   1.499 -2.0023  0.1954  0.0704
  756MOL0     H 2029   1.919   8.248   1.355 -1.6509  0.7787 -0.2429
  756MOL0     H 2030   2.145   8.438   1.325 -0.9768  0.8662  2.3565
  756MOL0     H 2031   2.074   8.351   1.193 -0.3167  3.6997  0.2664
  756MOL0     H 2032   2.163   8.117   1.323  1.6443 -1.0659  0.5351
  756MOL0     H 2033   2.249   8.221   1.413 -1.2635  0.6000  0.6281
  756MOL0     H 2034   2.379   8.134   1.243 -2.3149 -1.5955  2.2336
  756MOL0     H 2035   2.285   8.235   1.115  2.1773  3.8165 -0.6290
  756MOL0     H 2036   2.438   8.373   1.331 -2.1966  0.4090  0.5397
  756MOL0     H 2037   2.364   8.438   1.191 -0.0960 -0.1620  0.8871
  756MOL0     H 2038   2.584   8.237   1.209  2.1319  1.0238 -1.7646
  756MOL0     H 2039   2.501   8.286   1.050 -3.8109  2.8387 -0.7907
  756MOL0     H 2040   1.554   8.353   1.595  0.1207  1.0453  0.6670
  756MOL0     H 2041   1.386   8.312   1.782  0.1916 -1.6995 -0.6556
  756MOL0     H 2042   1.094   8.009   2.020 -1.0516  1.4028 -0.5479
  756MOL0     H 2043   0.990   7.938   2.238 -0.2952  0.2105  3.7109
  756MOL0     H 2044   1.937   9.271   3.077  3.1620 -2.1485  1.2500
  756MOL0     H 2045   2.069   9.370   2.873 -0.5623  1.3262 -4.5787
  756MOL0     H 2046   2.403   9.158   2.490 -1.0998 -0.6326  0.0696
  756MOL0     H 2047   2.557   9.282   2.353  1.8331  1.0206  0.6953
  756MOL0     H 2048   2.525   9.697   2.447 -1.1410 -2.9761  1.9647
  756MOL0     H 2049   2.628   9.730   2.301  0.6970 -0.1035  0.9505
  756MOL0     H 2050   2.673   9.538   2.532  0.8561 -1.9737  0.0130
  756MOL0     H 2051   2.765   9.684   2.501  0.8666  1.5181 -1.0566
  756MOL0     H 2052   2.838   9.581   2.275  0.1857 -0.5193  0.2325
  756MOL0     H 2053   2.778   9.425   2.327 -0.3619  0.7088 -2.6808
  756MOL0     H 2054   2.909   9.432   2.540 -0.7945 -1.2373 -1.0863
  756MOL0     H 2055   3.018   9.422   2.409  1.3436  0.0300  1.9161
  756MOL0     H 2056   3.159   9.776   2.554 -2.7395  0.6964  0.1854
  756MOL0     H 2057   2.300   9.619   2.358 -0.5600 -0.1361 -0.9465
  756MOL0     H 2058   2.111   9.639   2.534 -2.5332  0.5601  1.3649
  756MOL0     H 2059   2.020   9.504   2.456  0.1655  0.5572  1.0262
  756MOL0     H 2060   2.062   9.495   2.621  2.5972 -2.6040 -0.0390
  757MOL0     O 2061   9.615   3.186   6.301  0.0859 -0.3156  0.0902
  757MOL0     C 2062   9.510   3.253   6.279 -0.7416 -0.3126  0.0629
  757MOL0     O 2063   9.466   3.348   6.357 -0.0442  0.4230 -0.0619
  757MOL0     C 2064   9.496   3.354   6.486  0.5082  0.4240 -0.4025
  757MOL0     C 2065   9.500   3.240   6.565  0.0011 -0.3776 -0.3816
  757MOL0     C 2066   9.517   3.255   6.713 -0.7876 -0.0595  0.4788
  757MOL0     C 2067   9.520   3.379   6.775 -0.6353  0.0100 -0.5477
  757MOL0     O 2068   9.529   3.408   6.911  0.8645 -0.3400  0.6110
  757MOL0     C 2069   9.491   3.307   6.996 -0.7406 -0.5569  0.3015
  757MOL0     C 2070   9.483   3.345   7.144  0.1758 -0.3347 -0.1141
  757MOL0     C 2071   9.610   3.415   7.197 -0.0439  0.2277 -0.2508
  757MOL0     C 2072   9.746   3.344   7.178  0.3182  0.2795  0.2551
  757MOL0     C 2073   9.861   3.421   7.260 -0.1648  0.1516 -1.1486
  757MOL0     C 2074   9.999   3.363   7.228  0.1719  0.0850 -0.4771
  757MOL0     C 2075  10.102   3.423   7.330  0.2535  0.0904 -0.1272
  757MOL0     C 2076  10.242   3.446   7.270  0.3048 -0.2540  0.3292
  757MOL0     N 2077  10.336   3.502   7.364  1.0174  0.4015 -0.1953
  757MOL0     C 2078  10.438   3.585   7.339  1.0146 -0.0586  0.4431
  757MOL0     C 2079  10.511   3.594   7.447  0.1119 -0.2582 -0.4416
  757MOL0     C 2080  10.632   3.682   7.450  1.0334 -0.5910  0.2502
  757MOL0     C 2081  10.763   3.615   7.421  0.5641 -0.6575 -0.8877
  757MOL0     C 2082  10.873   3.725   7.456  0.0251 -0.0369  0.9648
  757MOL0     C 2083  11.012   3.672   7.402  0.6823  0.3567 -0.9716
  757MOL0     O 2084  11.117   3.771   7.415  0.3856 -0.2904  0.3835
  757MOL0     C 2085  11.241   3.740   7.366  0.2957  1.2451  0.1007
  757MOL0     C 2086  11.272   3.615   7.300 -0.2465 -0.8874 -0.0544
  757MOL0     C 2087  11.404   3.594   7.256 -0.8947  0.0961  0.6960
  757MOL0     C 2088  11.507   3.682   7.271  0.1677 -0.0707  0.4197
  757MOL0     C 2089  11.644   3.645   7.218  0.0031 -0.2149  0.1055
  757MOL0     O 2090  11.728   3.742   7.215 -0.3921  0.6923 -0.8405
  757MOL0     C 2091  11.861   3.707   7.212 -0.4078 -0.2716 -0.2499
  757MOL0     C 2092  11.938   3.692   7.327  0.7006 -0.0109 -0.2739
  757MOL0     C 2093  12.066   3.650   7.315 -0.6090  0.1054  0.0814
  757MOL0     C 2094  12.131   3.636   7.199 -0.9092 -0.3428 -0.2636
  757MOL0     O 2095  12.267   3.602   7.205 -0.5179 -0.0387 -0.7935
  757MOL0     C 2096  12.350   3.612   7.091 -0.1853  0.8322  0.2683
  757MOL0     C 2097  12.486   3.558   7.121  0.5583 -0.3224  0.1450
  757MOL0     C 2098  12.564   3.672   7.206  0.5585 -0.8881 -0.4497
  757MOL0     C 2099  12.706   3.686   7.149  0.1057  0.2698  0.3680
  757MOL0     C 2100  12.785   3.796   7.219 -0.7612 -0.0693 -0.0739
  757MOL0     C 2101  12.951   3.774   7.205  0.4649  0.1725 -0.8662
  757MOL0     C 2102  13.006   3.653   7.279 -0.1639  0.0975 -0.6941
  757MOL0     C 2103  13.138   3.673   7.361  1.5913  0.5298 -0.1576
  757MOL0    Cl 2104  13.275   3.731   7.264  0.3037  0.1627 -0.0310
  757MOL0     C 2105  12.050   3.642   7.079  0.1850 -0.5102 -0.2352
  757MOL0     C 2106  11.919   3.686   7.087 -0.0504 -0.6460  0.4099
  757MOL0     O 2107  11.670   3.536   7.175  0.0684  0.3324  0.1871
  757MOL0     C 2108  11.474   3.808   7.335 -0.2862  0.5882 -0.0858
  757MOL0     C 2109  11.345   3.830   7.386 -0.1983 -0.3358  0.6470
  757MOL0     N 2110  10.459   3.513   7.543  0.3514 -0.0272  0.2678
  757MOL0     N 2111  10.352   3.464   7.496 -0.0207 -0.4606 -0.6408
  757MOL0     C 2112   9.515   3.486   6.690 -0.0559 -0.8311  0.2730
  757MOL0     C 2113   9.503   3.474   6.549  0.0929 -0.1666 -0.5706
  757MOL0     C 2114   9.440   3.231   6.147  0.1777 -0.6118  0.5676
  757MOL0     C 2115   9.347   3.329   6.094 -0.1577  0.2804  0.4930
  757MOL0     C 2116   9.272   3.313   5.975 -1.1031  0.8515  1.0285
  757MOL0     C 2117   9.305   3.195   5.902  0.4953 -0.8344  0.1653
  757MOL0     O 2118   9.261   3.192   5.778 -0.3177  0.7974  1.1541
  757MOL0     C 2119   9.184   3.076   5.741  0.7443  0.1050  0.2142
  757MOL0     C 2120   9.068   3.119   5.641 -0.3209  0.4863 -0.1804
  757MOL0     C 2121   9.130   3.142   5.502  0.6820 -0.1212 -0.0298
  757MOL0     C 2122   9.183   3.016   5.430 -0.1954 -0.1331 -0.1673
  757MOL0     C 2123   9.107   2.894   5.459 -0.7199 -0.2964 -0.3041
  757MOL0     C 2124   9.046   2.791   5.477  0.1058 -0.4394  0.3043
  757MOL0     C 2125   9.385   3.096   5.957  0.8206  0.3309  0.5122
  757MOL0     C 2126   9.465   3.113   6.071  0.2539  0.4808 -0.2778
  757MOL0     C 2127   9.549   2.997   6.103  0.1749  0.2422 -0.9932
  757MOL0     H 2128   9.489   3.138   6.532  0.6064 -1.3816  2.2798
  757MOL0     H 2129   9.520   3.161   6.767  0.2675 -1.9219 -2.5906
  757MOL0     H 2130   9.399   3.258   6.966 -0.0879 -1.4863 -0.2279
  757MOL0     H 2131   9.567   3.229   6.986 -0.3441  0.1442 -2.9965
  757MOL0     H 2132   9.461   3.253   7.199 -1.3703  0.4604  0.6510
  757MOL0     H 2133   9.400   3.414   7.164  1.0729  0.5808  0.5374
  757MOL0     H 2134   9.596   3.426   7.305 -2.0525 -0.1711 -0.4324
  757MOL0     H 2135   9.606   3.516   7.155 -2.1288 -0.1069 -0.9679
  757MOL0     H 2136   9.748   3.244   7.221  1.6164  0.6837  1.1932
  757MOL0     H 2137   9.782   3.340   7.074  0.5519 -2.4142  0.3750
  757MOL0     H 2138   9.873   3.524   7.226 -0.8689  2.1415  3.8385
  757MOL0     H 2139   9.841   3.413   7.367 -1.7129  0.4794 -1.3818
  757MOL0     H 2140   9.993   3.255   7.245 -0.8193  0.2393  0.2195
  757MOL0     H 2141  10.017   3.373   7.121 -1.4590  0.8364 -0.6991
  757MOL0     H 2142  10.111   3.359   7.419  1.4318  0.4694  0.0474
  757MOL0     H 2143  10.071   3.524   7.361  1.2731  0.7616 -1.2051
  757MOL0     H 2144  10.286   3.351   7.238 -3.2212 -1.3487 -1.8266
  757MOL0     H 2145  10.233   3.495   7.172  2.6043 -2.3636 -1.0614
  757MOL0     H 2146  10.449   3.639   7.245 -2.9611 -1.4897 -1.0835
  757MOL0     H 2147  10.639   3.764   7.377  0.7728 -1.7779 -1.1587
  757MOL0     H 2148  10.614   3.733   7.545  1.5004  0.5883 -0.2713
  757MOL0     H 2149  10.778   3.517   7.468  2.6449 -0.3441 -0.8043
  757MOL0     H 2150  10.774   3.595   7.314 -2.3476  1.1409 -1.6173
  757MOL0     H 2151  10.878   3.744   7.564  0.5156 -2.4363  1.4268
  757MOL0     H 2152  10.852   3.815   7.398 -0.7525 -1.0891 -0.4537
  757MOL0     H 2153  11.004   3.642   7.297 -0.3156 -0.0937 -0.7776
  757MOL0     H 2154  11.039   3.583   7.461  2.3229  1.0875 -0.5664
  757MOL0     H 2155  11.200   3.535   7.307  0.4767 -1.6092 -0.7259
  757MOL0     H 2156  11.429   3.497   7.214 -3.1778 -1.2037  2.0917
  757MOL0     H 2157  11.893   3.701   7.426  1.5407  0.6894  0.0607
  757MOL0     H 2158  12.124   3.628   7.404  0.1030  2.3693  0.2203
  757MOL0     H 2159  12.311   3.559   7.004 -0.4144 -0.0332  0.8843
  757MOL0     H 2160  12.359   3.717   7.061 -1.1350  0.7394 -0.3896
  757MOL0     H 2161  12.486   3.469   7.185  0.9427 -2.5782 -2.7372
  757MOL0     H 2162  12.539   3.523   7.031  0.4351  2.6326 -1.1911
  757MOL0     H 2163  12.512   3.768   7.211  2.2334  0.1239 -1.3709
  757MOL0     H 2164  12.574   3.632   7.307 -1.7812 -0.8298 -0.1559
  757MOL0     H 2165  12.703   3.704   7.042 -2.5487 -0.4757  0.2310
  757MOL0     H 2166  12.763   3.594   7.164 -1.9633 -1.0392  0.7583
  757MOL0     H 2167  12.755   3.806   7.324 -2.9247 -1.1421 -0.5433
  757MOL0     H 2168  12.766   3.893   7.173  1.2288  0.7438  0.6915
  757MOL0     H 2169  12.982   3.764   7.101  0.7984 -1.3177 -0.6527
  757MOL0     H 2170  12.998   3.863   7.248 -1.2278 -0.2674  2.1885
  757MOL0     H 2171  13.006   3.564   7.215 -3.3860 -1.3730  1.1339
  757MOL0     H 2172  12.934   3.621   7.355  0.7730 -1.6820 -0.5091
  757MOL0     H 2173  13.114   3.748   7.437  1.6123 -2.7693  3.4242
  757MOL0     H 2174  13.157   3.578   7.413 -2.5927 -2.1366 -2.8314
  757MOL0     H 2175  12.082   3.641   6.975  0.4189  0.9646 -0.2049
  757MOL0     H 2176  11.871   3.702   6.991 -0.9398  1.3446  1.1336
  757MOL0     H 2177  11.559   3.868   7.365 -1.9395  2.8286  0.3942
  757MOL0     H 2178  11.305   3.920   7.432 -1.0736  1.0940 -2.6383
  757MOL0     H 2179   9.524   3.588   6.725 -1.3707 -0.7986  0.5923
  757MOL0     H 2180   9.486   3.561   6.487 -1.7335 -1.9077 -2.6786
  757MOL0     H 2181   9.335   3.422   6.149  0.4825 -0.3265  1.7066
  757MOL0     H 2182   9.199   3.382   5.935 -0.2074  1.0834 -0.3103
  757MOL0     H 2183   9.131   3.023   5.821  0.1488 -0.6150 -0.6416
  757MOL0     H 2184   9.247   2.999   5.696  2.2986  2.3546 -1.7351
  757MOL0     H 2185   9.010   3.208   5.668  1.6849  1.6655  0.5252
  757MOL0     H 2186   9.010   3.028   5.653  1.8846 -1.2449 -1.8191
  757MOL0     H 2187   9.210   3.217   5.514  3.8057 -2.7868 -2.4018
  757MOL0     H 2188   9.046   3.190   5.451  0.7989  0.4767  0.3207
  757MOL0     H 2189   9.188   3.025   5.321 -0.2553  1.1240 -0.0810
  757MOL0     H 2190   9.282   2.982   5.465 -0.2733  1.8159  2.2001
  757MOL0     H 2191   8.981   2.706   5.484 -1.8619  0.8134 -1.3500
  757MOL0     H 2192   9.390   3.007   5.896 -3.1919 -1.0959  1.9443
  757MOL0     H 2193   9.498   2.934   6.176  0.2562 -2.5316 -3.1756
  757MOL0     H 2194   9.553   2.930   6.017 -1.0804 -0.2984 -0.6542
  757MOL0     H 2195   9.644   3.038   6.137 -1.1323  4.8564 -2.2396
  758MOL0     O 2196   5.060   1.639   5.330 -1.0232  0.0781 -0.9076
  758MOL0     C 2197   5.047   1.516   5.369  0.4523  0.1475  0.1381
  758MOL0     O 2198   5.062   1.475   5.493  0.4319  0.0178 -0.0052
  758MOL0     C 2199   5.065   1.567   5.600  0.2121  0.1736  0.2836
  758MOL0     C 2200   5.127   1.527   5.713 -1.8949  0.2840 -0.1948
  758MOL0     C 2201   5.168   1.623   5.804  0.5517  0.2010  0.2751
  758MOL0     C 2202   5.114   1.751   5.806 -0.1377  0.1592 -0.0366
  758MOL0     O 2203   5.151   1.835   5.901  0.7378 -0.1935 -0.4344
  758MOL0     C 2204   5.109   1.796   6.031 -0.0199 -0.5161  0.1851
  758MOL0     C 2205   5.021   1.912   6.076  0.6214  0.1143 -1.3794
  758MOL0     C 2206   4.981   1.898   6.218  0.5680 -0.1804  0.9757
  758MOL0     C 2207   5.089   1.913   6.317  0.5175 -0.8660  0.0759
  758MOL0     C 2208   5.035   1.931   6.461 -0.2255 -0.1661 -0.4364
  758MOL0     C 2209   4.901   1.873   6.503  0.2256  0.5110  0.2441
  758MOL0     C 2210   4.858   1.912   6.643  0.3781 -0.7085 -0.2011
  758MOL0     C 2211   4.952   1.856   6.748  0.3982  1.1495  1.0993
  758MOL0     N 2212   4.947   1.709   6.725 -0.9150 -0.4953 -0.0545
  758MOL0     C 2213   5.050   1.622   6.720 -0.5156 -0.6292 -0.0235
  758MOL0     C 2214   4.990   1.499   6.736 -0.3443 -0.4450  0.1809
  758MOL0     C 2215   5.062   1.373   6.704  0.3454 -0.4078  0.1421
  758MOL0     C 2216   5.053   1.275   6.816  0.4276 -0.4836 -0.5731
  758MOL0     C 2217   5.106   1.136   6.791  0.0930  0.1365  0.7146
  758MOL0     C 2218   5.257   1.109   6.808 -1.0062  0.5653 -0.0485
  758MOL0     O 2219   5.330   1.188   6.708  0.0992  0.0905 -0.6207
  758MOL0     C 2220   5.330   1.162   6.568  0.0647 -0.8712  0.4399
  758MOL0     C 2221   5.383   1.253   6.478  0.9206 -0.1597 -0.0922
  758MOL0     C 2222   5.399   1.227   6.343 -0.7092  0.6762  0.0610
  758MOL0     C 2223   5.355   1.107   6.290  0.5498 -0.0785 -0.1334
  758MOL0     C 2224   5.357   1.069   6.148  0.3706  0.6514  0.8247
  758MOL0     O 2225   5.384   1.172   6.064 -0.3004  0.3590  0.1099
  758MOL0     C 2226   5.401   1.143   5.924 -0.1161 -0.4134  0.0170
  758MOL0     C 2227   5.537   1.168   5.892  0.2499  0.6820 -0.2534
  758MOL0     C 2228   5.593   1.130   5.769 -0.4284  1.3573  1.0055
  758MOL0     C 2229   5.511   1.077   5.668 -0.0294 -0.2136  0.1242
  758MOL0     O 2230   5.560   1.047   5.544 -0.2684  0.7496  0.4891
  758MOL0     C 2231   5.663   0.941   5.528 -0.1633  0.5464  1.1531
  758MOL0     C 2232   5.692   0.907   5.378  1.1314 -1.1980  0.2378
  758MOL0     C 2233   5.778   1.013   5.316 -0.6840 -1.2887  0.2976
  758MOL0     C 2234   5.713   1.148   5.276 -0.0501  0.5825 -0.3051
  758MOL0     C 2235   5.806   1.238   5.186 -0.0805 -0.8771 -0.6561
  758MOL0     C 2236   5.760   1.373   5.145 -0.2245 -0.2039 -0.0784
  758MOL0     C 2237   5.872   1.455   5.077  0.4315 -1.3567 -0.6402
  758MOL0     C 2238   5.897   1.397   4.939  0.9576 -0.5193 -0.1847
  758MOL0    Cl 2239   6.001   1.520   4.866 -0.1393  0.3077  0.0201
  758MOL0     C 2240   5.373   1.043   5.702 -0.0355  0.2408  0.5097
  758MOL0     C 2241   5.322   1.074   5.828  0.7073 -0.1572 -0.1298
  758MOL0     O 2242   5.333   0.955   6.112  0.1030  1.0701  0.8253
  758MOL0     C 2243   5.311   1.010   6.380 -0.3136  0.5674 -0.3826
  758MOL0     C 2244   5.288   1.036   6.516  0.5039 -0.6299 -0.1771
  758MOL0     N 2245   4.853   1.509   6.746 -0.2836  0.1683  0.5573
  758MOL0     N 2246   4.829   1.638   6.735  1.2088  0.4312 -0.2751
  758MOL0     C 2247   5.023   1.785   5.705  0.0465  0.0496 -0.3863
  758MOL0     C 2248   5.009   1.698   5.599  0.6842  0.4783  0.2878
  758MOL0     C 2249   5.035   1.409   5.268  0.4067  0.4319  0.5743
  758MOL0     C 2250   5.053   1.275   5.311  0.3366  0.6980  0.4770
  758MOL0     C 2251   5.043   1.168   5.219  0.0605  0.1019  0.1931
  758MOL0     C 2252   4.997   1.187   5.083 -0.3296  0.0780 -0.8506
  758MOL0     O 2253   4.975   1.079   5.001 -0.3908  0.0845  0.5365
  758MOL0     C 2254   4.921   1.092   4.863 -0.0601 -1.4545 -0.4580
  758MOL0     C 2255   4.772   1.085   4.860 -0.3924 -0.7025 -0.3974
  758MOL0     C 2256   4.719   0.989   4.740  0.3639 -0.2010 -0.0225
  758MOL0     C 2257   4.573   1.012   4.733  0.2911  0.1338 -0.1112
  758MOL0     C 2258   4.496   1.000   4.856 -0.3321 -0.5581 -0.4507
  758MOL0     C 2259   4.430   0.988   4.954 -0.7532  0.0455  0.1342
  758MOL0     C 2260   4.963   1.325   5.047 -0.3262 -0.5420  0.6760
  758MOL0     C 2261   4.983   1.432   5.129 -0.6471  0.6948  0.3703
  758MOL0     C 2262   4.946   1.568   5.074 -0.3726  0.9237 -0.6137
  758MOL0     H 2263   5.156   1.423   5.723 -1.2999  0.4034 -0.6443
  758MOL0     H 2264   5.216   1.582   5.892 -2.4858 -5.4161 -0.2135
  758MOL0     H 2265   5.046   1.706   6.031 -2.9780  1.4301  1.1457
  758MOL0     H 2266   5.197   1.769   6.091  0.0579 -0.3599  0.1403
  758MOL0     H 2267   4.926   1.919   6.021  1.3303  0.8902 -2.5648
  758MOL0     H 2268   5.068   2.011   6.071  2.1254  0.1564  5.1238
  758MOL0     H 2269   4.957   1.793   6.239  0.6104 -1.2622 -3.3421
  758MOL0     H 2270   4.896   1.966   6.231 -1.7538 -3.0652  2.0520
  758MOL0     H 2271   5.161   1.832   6.303  0.1989 -0.9333 -1.2649
  758MOL0     H 2272   5.145   2.007   6.309 -1.0852  0.0400 -0.8625
  758MOL0     H 2273   5.112   1.881   6.520 -1.3429  0.2345  1.4620
  758MOL0     H 2274   5.039   2.036   6.490 -2.8544 -0.6729  2.2970
  758MOL0     H 2275   4.828   1.917   6.435  0.9380 -0.5527 -1.2715
  758MOL0     H 2276   4.902   1.765   6.484  0.9255  0.4935  0.3217
  758MOL0     H 2277   4.759   1.888   6.682 -0.2742  2.2359  0.2149
  758MOL0     H 2278   4.880   2.019   6.651  1.5936 -0.9319 -0.4099
  758MOL0     H 2279   5.047   1.895   6.710  0.5691 -0.3963 -0.1726
  758MOL0     H 2280   4.932   1.886   6.851 -0.9300 -0.0639  1.2205
  758MOL0     H 2281   5.154   1.649   6.714 -0.3410 -1.2131  0.2713
  758MOL0     H 2282   5.021   1.348   6.605  1.0864  1.3352 -0.6445
  758MOL0     H 2283   5.169   1.397   6.709 -0.1145  1.4798  2.3984
  758MOL0     H 2284   5.096   1.330   6.901  1.4539 -1.7754 -0.2278
  758MOL0     H 2285   4.945   1.261   6.832  1.0215 -2.2894  3.0719
  758MOL0     H 2286   5.080   1.111   6.687  0.4910  0.2481  0.5895
  758MOL0     H 2287   5.050   1.072   6.860 -2.4583  2.8173  1.3582
  758MOL0     H 2288   5.280   1.002   6.807 -2.6377  0.0851  3.1855
  758MOL0     H 2289   5.283   1.146   6.907  0.3620 -3.1282  1.1423
  758MOL0     H 2290   5.413   1.355   6.501 -1.1587  1.9153 -5.1780
  758MOL0     H 2291   5.441   1.307   6.282 -1.4328  0.8073 -0.2707
  758MOL0     H 2292   5.610   1.203   5.964  0.1435  3.2936 -1.2970
  758MOL0     H 2293   5.697   1.150   5.746 -0.6772 -0.1209 -1.8838
  758MOL0     H 2294   5.755   0.975   5.575 -0.1553  3.6680 -0.8306
  758MOL0     H 2295   5.639   0.840   5.563  1.3586 -1.8275 -3.7295
  758MOL0     H 2296   5.730   0.806   5.362  0.4997 -1.4256  0.1864
  758MOL0     H 2297   5.599   0.921   5.322  1.2395  0.2192  0.3690
  758MOL0     H 2298   5.867   1.039   5.374 -0.7550  3.6590 -1.3037
  758MOL0     H 2299   5.816   0.969   5.223 -3.7110  4.9248 -4.7187
  758MOL0     H 2300   5.668   1.205   5.358  1.7167  2.3628 -0.4981
  758MOL0     H 2301   5.626   1.115   5.220 -0.8129  0.1712  1.0742
  758MOL0     H 2302   5.842   1.175   5.104  1.9578 -3.5977  2.1024
  758MOL0     H 2303   5.894   1.247   5.250 -1.1733  1.5246  0.6147
  758MOL0     H 2304   5.679   1.365   5.072  0.6553 -0.0281 -1.0866
  758MOL0     H 2305   5.715   1.430   5.228 -0.7319  3.4907 -2.6375
  758MOL0     H 2306   5.961   1.465   5.139  0.2512  1.1116 -0.6737
  758MOL0     H 2307   5.826   1.552   5.099 -1.9142 -2.7497  1.0112
  758MOL0     H 2308   5.939   1.296   4.935 -2.9263 -2.3016 -3.6210
  758MOL0     H 2309   5.804   1.396   4.880 -0.8573  0.6769  2.4763
  758MOL0     H 2310   5.302   1.010   5.627  1.3571 -0.6461 -0.4487
  758MOL0     H 2311   5.231   1.026   5.863  0.7875  0.3195  0.7653
  758MOL0     H 2312   5.282   0.912   6.344  0.2048  0.8453 -1.5997
  758MOL0     H 2313   5.240   0.952   6.566 -0.9407  0.8606  1.0249
  758MOL0     H 2314   4.969   1.877   5.683 -1.2040 -0.5959 -0.1016
  758MOL0     H 2315   4.947   1.724   5.513 -0.1585 -0.4939  0.5720
  758MOL0     H 2316   5.090   1.262   5.413  0.6536  0.8314  0.3795
  758MOL0     H 2317   5.057   1.064   5.246  1.5667  0.8203  2.4890
  758MOL0     H 2318   4.967   1.016   4.799  0.9643  0.4951 -2.1676
  758MOL0     H 2319   4.961   1.183   4.816  0.6972 -0.7393  1.4810
  758MOL0     H 2320   4.723   1.181   4.844  1.5616  0.6108  1.1602
  758MOL0     H 2321   4.736   1.054   4.959  1.1543  0.9057  0.7283
  758MOL0     H 2322   4.741   0.883   4.753  1.6043 -0.0422 -0.7403
  758MOL0     H 2323   4.769   1.028   4.651  1.9669  2.0559  1.7542
  758MOL0     H 2324   4.567   1.113   4.691  3.1527  1.3954  2.1466
  758MOL0     H 2325   4.525   0.943   4.663 -0.5104  0.2160  0.3429
  758MOL0     H 2326   4.372   0.966   5.040 -1.9381 -2.0786 -1.1097
  758MOL0     H 2327   4.925   1.340   4.947 -3.0868 -0.3498  1.6562
  758MOL0     H 2328   4.922   1.565   4.967 -1.6148  1.4157 -0.3704
  758MOL0     H 2329   4.863   1.609   5.132  2.4599  1.6726  3.2585
  758MOL0     H 2330   5.033   1.632   5.088  0.4472 -0.4061  0.6648
  759MOL0     O 2331   8.002   5.732   9.721 -0.8215 -0.5324  0.1894
  759MOL0     C 2332   7.913   5.663   9.767  0.0319 -0.0178  0.1074
  759MOL0     O 2333   7.862   5.556   9.708 -0.4113 -0.6911  0.2819
  759MOL0     C 2334   7.868   5.534   9.568 -0.5747  0.3242 -0.0230
  759MOL0     C 2335   7.991   5.517   9.498  0.2305  0.5517 -0.4787
  759MOL0     C 2336   8.005   5.486   9.362 -0.4077 -0.2295  0.2340
  759MOL0     C 2337   7.884   5.448   9.294 -0.2885  0.0533 -1.3449
  759MOL0     O 2338   7.873   5.426   9.159  0.0280  0.3336 -0.6787
  759MOL0     C 2339   7.984   5.450   9.072  0.1587 -0.4340 -0.9925
  759MOL0     C 2340   7.961   5.436   8.927  0.5325  0.3488  1.0706
  759MOL0     C 2341   7.934   5.285   8.904 -0.0516  0.6333  0.7382
  759MOL0     C 2342   7.896   5.258   8.756 -0.5812  0.1518  0.6596
  759MOL0     C 2343   8.002   5.297   8.646  0.1843 -0.1796 -0.2085
  759MOL0     C 2344   7.953   5.253   8.510 -0.3086  1.3327 -0.3673
  759MOL0     C 2345   8.054   5.270   8.399  0.1562 -0.3851  0.3237
  759MOL0     C 2346   7.996   5.247   8.253 -0.3056 -0.3534  0.0988
  759MOL0     N 2347   8.083   5.312   8.153  0.5044 -0.2622 -0.4842
  759MOL0     C 2348   8.203   5.279   8.100  0.3323 -0.5144  0.0047
  759MOL0     C 2349   8.235   5.363   8.003  0.1854  0.3436  0.8071
  759MOL0     C 2350   8.360   5.367   7.920 -0.2089  0.0085 -0.1040
  759MOL0     C 2351   8.363   5.321   7.773  0.1432  0.4527 -0.1094
  759MOL0     C 2352   8.250   5.363   7.679  0.6645  0.0174 -0.3391
  759MOL0     C 2353   8.131   5.261   7.658  0.1418 -0.2408  0.1707
  759MOL0     O 2354   8.055   5.323   7.549 -0.2424 -0.3816 -0.5425
  759MOL0     C 2355   7.985   5.439   7.567  0.4713  0.1350 -0.1937
  759MOL0     C 2356   7.939   5.494   7.683 -0.1482  0.6753 -0.0436
  759MOL0     C 2357   7.860   5.613   7.688  0.9689 -0.5010 -0.5421
  759MOL0     C 2358   7.818   5.678   7.564 -0.2068  0.2171 -1.1810
  759MOL0     C 2359   7.748   5.803   7.586 -0.2699  0.8635 -0.3816
  759MOL0     O 2360   7.773   5.869   7.713 -0.3510 -0.2587  0.2087
  759MOL0     C 2361   7.713   5.986   7.740  0.2258  0.6708 -0.6587
  759MOL0     C 2362   7.757   6.097   7.676  0.6756 -0.2710 -0.7383
  759MOL0     C 2363   7.703   6.227   7.707  0.1202  0.4879  0.6924
  759MOL0     C 2364   7.606   6.233   7.806  0.9818 -0.6528 -0.0894
  759MOL0     O 2365   7.544   6.351   7.839 -0.0060  0.4436 -0.8003
  759MOL0     C 2366   7.521   6.445   7.739 -0.1047 -0.1598 -0.0163
  759MOL0     C 2367   7.418   6.556   7.779  0.1164  0.1108  0.8542
  759MOL0     C 2368   7.408   6.672   7.686 -0.5018  0.6401 -0.9118
  759MOL0     C 2369   7.497   6.788   7.743  0.6115 -0.2332 -0.5065
  759MOL0     C 2370   7.503   6.892   7.628  0.0843 -0.0588 -0.6540
  759MOL0     C 2371   7.580   7.018   7.664  0.0222 -0.8737  1.1719
  759MOL0     C 2372   7.593   7.117   7.552  0.0732  0.3553 -0.1356
  759MOL0     C 2373   7.584   7.265   7.597 -0.0598 -0.9631 -0.6354
  759MOL0    Cl 2374   7.414   7.285   7.660  0.2844  0.4714 -0.2801
  759MOL0     C 2375   7.552   6.121   7.867  0.2678 -0.0721 -0.5496
  759MOL0     C 2376   7.618   5.997   7.844 -0.3869 -0.2125 -0.1509
  759MOL0     O 2377   7.688   5.851   7.493  0.5262 -0.9029 -0.6557
  759MOL0     C 2378   7.850   5.614   7.438 -0.9187  0.0342 -0.0035
  759MOL0     C 2379   7.938   5.499   7.446  0.2292  0.3177  0.5285
  759MOL0     N 2380   8.118   5.433   7.977  1.0783  0.6508 -0.5413
  759MOL0     N 2381   8.034   5.402   8.074  0.2912 -0.9972  0.5723
  759MOL0     C 2382   7.763   5.464   9.360  0.0789  0.7728 -1.3665
  759MOL0     C 2383   7.757   5.510   9.491 -0.3365  0.3039  0.1436
  759MOL0     C 2384   7.842   5.703   9.897 -0.1121  0.7200 -0.1838
  759MOL0     C 2385   7.758   5.602   9.957  0.4847 -0.0243  0.1991
  759MOL0     C 2386   7.690   5.628  10.076  0.2829  0.7428 -0.8852
  759MOL0     C 2387   7.726   5.750  10.140  0.5477  0.3658  0.0339
  759MOL0     O 2388   7.681   5.779  10.263 -1.0120 -0.7160 -0.3904
  759MOL0     C 2389   7.581   5.694  10.328  0.9710  0.5357 -0.1358
  759MOL0     C 2390   7.441   5.724  10.282  0.0047  0.6597  0.8345
  759MOL0     C 2391   7.404   5.871  10.278 -0.3020  0.7096 -0.6645
  759MOL0     C 2392   7.310   5.897  10.390  0.8220 -0.2541 -0.4972
  759MOL0     C 2393   7.309   6.036  10.445 -0.1400 -0.3715  0.4726
  759MOL0     C 2394   7.313   6.133  10.509 -0.1903 -0.2246 -0.0161
  759MOL0     C 2395   7.822   5.839  10.089 -0.6237 -0.2842 -0.0255
  759MOL0     C 2396   7.879   5.817   9.967  0.2390 -0.2766  0.6100
  759MOL0     C 2397   7.992   5.914   9.934  0.0226 -0.3146  0.2931
  759MOL0     H 2398   8.091   5.526   9.539  0.1277  1.7298 -0.4510
  759MOL0     H 2399   8.099   5.483   9.308 -0.5422  1.0761 -0.1046
  759MOL0     H 2400   7.998   5.557   9.094 -0.4245 -0.5403 -0.0309
  759MOL0     H 2401   8.066   5.386   9.106 -0.5937 -1.2882 -0.7680
  759MOL0     H 2402   8.054   5.468   8.879  0.3548  3.2998  2.4653
  759MOL0     H 2403   7.871   5.492   8.899  0.3569  1.5117  3.6680
  759MOL0     H 2404   7.851   5.252   8.967  0.4589  1.1824  1.7404
  759MOL0     H 2405   8.024   5.227   8.928  0.4209 -0.1412 -2.4875
  759MOL0     H 2406   7.882   5.150   8.758  1.4054 -0.1261  1.0869
  759MOL0     H 2407   7.799   5.306   8.738 -0.3366  0.8416  1.1473
  759MOL0     H 2408   8.043   5.399   8.644  3.2552 -1.3129 -1.2783
  759MOL0     H 2409   8.092   5.239   8.670 -0.7074 -1.5158 -0.0005
  759MOL0     H 2410   7.919   5.150   8.528  0.1987  0.6507 -2.9316
  759MOL0     H 2411   7.863   5.310   8.482 -1.0109  0.9136  0.9641
  759MOL0     H 2412   8.137   5.204   8.424  0.3706 -0.6997 -1.1250
  759MOL0     H 2413   8.088   5.373   8.388  0.3362 -0.6414 -1.9163
  759MOL0     H 2414   7.993   5.140   8.229 -1.4117 -0.3507  0.1415
  759MOL0     H 2415   7.891   5.276   8.246  0.4544  2.3179 -2.0634
  759MOL0     H 2416   8.255   5.186   8.124 -2.1819 -1.9030  0.3997
  759MOL0     H 2417   8.369   5.476   7.921 -1.0639  0.0830  0.2920
  759MOL0     H 2418   8.438   5.334   7.989 -1.5268  0.1825  1.5494
  759MOL0     H 2419   8.455   5.366   7.734  1.1769 -2.5608 -1.4765
  759MOL0     H 2420   8.375   5.212   7.767  3.9824  0.8311 -3.0828
  759MOL0     H 2421   8.290   5.390   7.581  1.3713 -0.3098 -0.1469
  759MOL0     H 2422   8.204   5.455   7.718 -2.0053 -0.9170 -1.1306
  759MOL0     H 2423   8.062   5.258   7.743  0.4264 -2.5526  0.3675
  759MOL0     H 2424   8.163   5.159   7.637 -4.3345 -2.4596  2.7458
  759MOL0     H 2425   7.968   5.439   7.772  1.2962 -0.6840 -1.2911
  759MOL0     H 2426   7.815   5.640   7.783  1.2485 -1.7904 -0.0282
  759MOL0     H 2427   7.842   6.099   7.608  2.6158 -1.4266  1.5010
  759MOL0     H 2428   7.734   6.316   7.654  0.6176  1.3296  2.3537
  759MOL0     H 2429   7.612   6.499   7.712 -0.6725 -1.1540 -4.7394
  759MOL0     H 2430   7.485   6.401   7.646 -1.4924  0.5568  0.1544
  759MOL0     H 2431   7.319   6.512   7.766 -0.0953  1.2185 -1.9136
  759MOL0     H 2432   7.427   6.584   7.884  0.0259 -1.8010  1.4199
  759MOL0     H 2433   7.444   6.661   7.583  4.5299  1.3487  0.5276
  759MOL0     H 2434   7.304   6.707   7.682 -1.4114 -0.6610  4.1810
  759MOL0     H 2435   7.597   6.751   7.765  1.5936  1.7894 -1.3541
  759MOL0     H 2436   7.450   6.820   7.836 -0.0865  0.7697 -1.1722
  759MOL0     H 2437   7.398   6.922   7.615  0.3379  0.6277 -1.2204
  759MOL0     H 2438   7.542   6.839   7.541  0.3861  0.2441 -0.7040
  759MOL0     H 2439   7.532   7.068   7.748 -1.5087 -3.0716  1.6871
  759MOL0     H 2440   7.680   6.992   7.702  0.5792 -0.2357  0.1946
  759MOL0     H 2441   7.524   7.105   7.468 -1.2683  0.5844  0.8893
  759MOL0     H 2442   7.692   7.101   7.510 -0.5159 -1.6786 -0.8603
  759MOL0     H 2443   7.654   7.288   7.678 -0.4396  0.2368 -0.6321
  759MOL0     H 2444   7.595   7.337   7.515  2.4328  1.7995  1.9019
  759MOL0     H 2445   7.483   6.133   7.951  0.3277  1.6860 -0.7241
  759MOL0     H 2446   7.601   5.905   7.900 -1.9487  0.7338  0.9986
  759MOL0     H 2447   7.822   5.671   7.349  2.1881  0.4913 -0.7941
  759MOL0     H 2448   7.952   5.445   7.353 -3.3742  0.2855 -0.1506
  759MOL0     H 2449   7.665   5.439   9.320 -1.6007  1.1091  2.1359
  759MOL0     H 2450   7.672   5.545   9.549  1.6018  3.2856  1.3966
  759MOL0     H 2451   7.743   5.503   9.915  3.9859 -1.7791  2.5779
  759MOL0     H 2452   7.622   5.562  10.128  1.9349 -2.2624 -2.2600
  759MOL0     H 2453   7.571   5.735  10.429 -2.2044 -0.4121  0.0360
  759MOL0     H 2454   7.609   5.589  10.339  0.3882  0.3929 -0.0331
  759MOL0     H 2455   7.378   5.672  10.355  2.5183 -0.6144  2.2429
  759MOL0     H 2456   7.417   5.680  10.185 -0.1980  0.3436  1.0274
  759MOL0     H 2457   7.349   5.884  10.184  0.9922 -1.5352 -1.7981
  759MOL0     H 2458   7.497   5.928  10.283  1.5312 -2.1913  2.7320
  759MOL0     H 2459   7.217   5.853  10.355  1.2004  0.2813 -2.2472
  759MOL0     H 2460   7.340   5.828  10.470  0.1878  0.6804  0.5643
  759MOL0     H 2461   7.322   6.232  10.548  0.8684 -0.1066 -0.5037
  759MOL0     H 2462   7.855   5.918  10.156 -2.3729  1.8820 -1.5580
  759MOL0     H 2463   7.962   5.949   9.835 -0.5582 -2.5342 -0.3796
  759MOL0     H 2464   7.999   5.994  10.009  2.8613 -0.1886  0.0047
  759MOL0     H 2465   8.089   5.864   9.923 -0.0787 -0.2394 -1.1144
  760MOL0     O 2466   7.598   4.430   8.061  0.0461 -0.2548  0.0999
  760MOL0     C 2467   7.483   4.398   8.105 -0.3609 -0.3458  0.9673
  760MOL0     O 2468   7.420   4.286   8.071 -0.2712 -0.4111 -0.2168
  760MOL0     C 2469   7.482   4.193   7.988  0.1287  1.1298 -0.1088
  760MOL0     C 2470   7.546   4.080   8.046 -0.1252 -0.0177 -0.2407
  760MOL0     C 2471   7.589   3.968   7.971 -0.6256 -0.4805 -0.2670
  760MOL0     C 2472   7.561   3.960   7.836  0.1468 -0.4462  0.7846
  760MOL0     O 2473   7.592   3.850   7.770  0.5287  0.6861  0.5081
  760MOL0     C 2474   7.651   3.863   7.641 -0.3050 -0.0469  0.0544
  760MOL0     C 2475   7.714   3.725   7.605 -0.3713  0.1182  1.5919
  760MOL0     C 2476   7.803   3.744   7.473  1.6823 -0.1236 -0.9325
  760MOL0     C 2477   7.719   3.708   7.344 -0.0732 -0.7229 -1.2046
  760MOL0     C 2478   7.807   3.710   7.219  0.0096  0.5109  1.1215
  760MOL0     C 2479   7.717   3.686   7.098 -0.4267 -0.7407 -0.2753
  760MOL0     C 2480   7.796   3.657   6.979 -0.1428  0.1021 -0.1983
  760MOL0     C 2481   7.826   3.790   6.893 -0.3852  0.0852 -0.7256
  760MOL0     N 2482   7.913   3.757   6.781 -0.7718 -1.1384 -0.9215
  760MOL0     C 2483   8.044   3.762   6.791  0.2080 -0.2062 -0.4804
  760MOL0     C 2484   8.094   3.717   6.677 -0.8104 -0.9560 -0.3211
  760MOL0     C 2485   8.229   3.684   6.639  0.1706  0.1200  0.8291
  760MOL0     C 2486   8.256   3.534   6.614  0.1915  0.3035  0.7323
  760MOL0     C 2487   8.407   3.499   6.601 -0.3242  0.3880  0.2794
  760MOL0     C 2488   8.430   3.350   6.567  0.4244  0.3779  0.7792
  760MOL0     O 2489   8.566   3.314   6.550  0.4643 -0.1113 -0.3207
  760MOL0     C 2490   8.586   3.182   6.519  0.1329 -0.2230 -0.1335
  760MOL0     C 2491   8.709   3.141   6.477  0.6621 -0.1750 -0.0794
  760MOL0     C 2492   8.719   3.022   6.421 -0.4077 -0.4121 -0.1745
  760MOL0     C 2493   8.620   2.923   6.413  0.7989 -0.7678 -0.6594
  760MOL0     C 2494   8.653   2.796   6.355  0.2060  0.9939  0.3192
  760MOL0     O 2495   8.771   2.772   6.299  0.4049 -0.1897 -0.3167
  760MOL0     C 2496   8.801   2.653   6.243  0.4105 -0.1009  0.6954
  760MOL0     C 2497   8.726   2.579   6.153 -0.3796  0.2548 -0.2120
  760MOL0     C 2498   8.761   2.450   6.113  1.0151  0.4274 -0.7831
  760MOL0     C 2499   8.893   2.408   6.128 -0.6129  0.1876 -0.2621
  760MOL0     O 2500   8.936   2.288   6.067 -0.1987 -0.3020 -0.0453
  760MOL0     C 2501   9.079   2.266   6.070 -0.1783 -0.6218 -0.1661
  760MOL0     C 2502   9.118   2.139   5.991 -0.1276 -0.2124  0.8779
  760MOL0     C 2503   9.050   2.019   6.060 -0.0871  0.2966 -0.4889
  760MOL0     C 2504   9.110   1.887   6.020 -0.3606  0.7959 -0.1117
  760MOL0     C 2505   9.009   1.771   6.040  0.2542  0.6254  0.2680
  760MOL0     C 2506   9.073   1.635   6.001 -0.6589 -0.3918 -0.0200
  760MOL0     C 2507   9.175   1.579   6.106  0.5598  0.8333 -0.1767
  760MOL0     C 2508   9.206   1.436   6.067 -0.3940  0.7992 -0.4063
  760MOL0    Cl 2509   9.077   1.324   6.118 -0.1332  0.2764  0.5067
  760MOL0     C 2510   8.975   2.490   6.220  0.3844 -0.0438 -0.1005
  760MOL0     C 2511   8.927   2.607   6.274  1.0886 -0.8012 -0.0750
  760MOL0     O 2512   8.561   2.716   6.366  0.5935  0.7267 -0.5474
  760MOL0     C 2513   8.504   2.956   6.473 -0.8149 -0.2912  0.5983
  760MOL0     C 2514   8.486   3.076   6.530 -0.5601 -0.3480  0.1575
  760MOL0     N 2515   7.987   3.714   6.586 -0.2975  0.0328  0.0732
  760MOL0     N 2516   7.872   3.730   6.651 -0.2314 -0.2810 -0.7985
  760MOL0     C 2517   7.480   4.057   7.778 -0.3631 -1.0974 -0.3113
  760MOL0     C 2518   7.451   4.176   7.850 -0.2841 -0.2796  0.7162
  760MOL0     C 2519   7.415   4.489   8.200  0.0287  0.4623  0.3571
  760MOL0     C 2520   7.292   4.442   8.257  0.4483 -0.3511 -0.9864
  760MOL0     C 2521   7.212   4.514   8.341 -0.4655  0.1086 -1.1674
  760MOL0     C 2522   7.257   4.643   8.378  0.5665  0.5440 -0.4974
  760MOL0     O 2523   7.181   4.730   8.447  0.2119  0.6293 -0.1205
  760MOL0     C 2524   7.073   4.671   8.525 -0.3023  0.7778  0.2536
  760MOL0     C 2525   7.003   4.756   8.627 -0.7912 -1.4572 -0.2557
  760MOL0     C 2526   7.113   4.776   8.743  0.3750 -0.8292  0.9267
  760MOL0     C 2527   7.052   4.872   8.843 -0.0976  0.0296  0.2621
  760MOL0     C 2528   7.029   5.009   8.790 -0.5415 -0.1238  1.1862
  760MOL0     C 2529   6.982   5.113   8.742 -0.1186 -0.3641 -0.0562
  760MOL0     C 2530   7.378   4.693   8.326  0.0677  0.0399  0.6786
  760MOL0     C 2531   7.452   4.623   8.225  0.0243  0.7998 -0.0294
  760MOL0     C 2532   7.571   4.687   8.166  0.4786  1.5395  0.4924
  760MOL0     H 2533   7.553   4.051   8.151  0.6653 -0.2154 -0.3424
  760MOL0     H 2534   7.645   3.886   8.015  1.0281  0.2987 -0.8562
  760MOL0     H 2535   7.568   3.890   7.575  0.9263  1.2381 -1.0300
  760MOL0     H 2536   7.728   3.939   7.633 -0.7721  0.5859  1.3979
  760MOL0     H 2537   7.638   3.651   7.579 -0.5267  0.0300  2.2909
  760MOL0     H 2538   7.783   3.690   7.682 -2.1118 -0.8423  2.7854
  760MOL0     H 2539   7.888   3.676   7.487  1.1433 -0.2375  2.4833
  760MOL0     H 2540   7.836   3.848   7.474  0.6778  0.1969  0.0018
  760MOL0     H 2541   7.675   3.609   7.355  1.3087 -1.2862 -0.5015
  760MOL0     H 2542   7.635   3.778   7.339  1.0917  0.9143  0.6736
  760MOL0     H 2543   7.840   3.813   7.205 -3.8307  1.6936 -0.6212
  760MOL0     H 2544   7.892   3.641   7.221 -0.4857 -0.1094  2.4080
  760MOL0     H 2545   7.638   3.616   7.127  0.9002 -0.8684  3.6818
  760MOL0     H 2546   7.657   3.776   7.082 -1.2533 -1.4810 -1.4427
  760MOL0     H 2547   7.749   3.590   6.907  3.2479 -2.8268  0.0198
  760MOL0     H 2548   7.887   3.603   7.007  1.4666  2.7202  0.0525
  760MOL0     H 2549   7.729   3.827   6.859 -0.2631 -0.4264 -1.6931
  760MOL0     H 2550   7.883   3.861   6.954  0.7986 -1.8902  0.5988
  760MOL0     H 2551   8.114   3.777   6.873  2.6981  0.7365 -2.6576
  760MOL0     H 2552   8.249   3.740   6.547 -0.8036 -3.7276 -1.9652
  760MOL0     H 2553   8.306   3.711   6.712 -0.6825 -1.0922  2.2337
  760MOL0     H 2554   8.216   3.479   6.700  0.7204  2.9332  2.7841
  760MOL0     H 2555   8.217   3.500   6.518 -0.5380  0.9217  0.7950
  760MOL0     H 2556   8.449   3.520   6.700  1.5409 -1.0132 -0.1569
  760MOL0     H 2557   8.458   3.560   6.526 -1.1211  0.8683  0.1205
  760MOL0     H 2558   8.371   3.336   6.476 -0.4197  2.2256  0.9895
  760MOL0     H 2559   8.393   3.293   6.653 -1.5967  1.1948  0.5174
  760MOL0     H 2560   8.793   3.210   6.482  0.0029  0.6829 -0.5012
  760MOL0     H 2561   8.807   3.005   6.361 -0.4399 -0.0975 -0.3140
  760MOL0     H 2562   8.641   2.641   6.127  1.1239  2.0026 -1.1331
  760MOL0     H 2563   8.687   2.400   6.051  0.3039  3.0127 -2.1416
  760MOL0     H 2564   9.125   2.361   6.040 -0.7594  0.1906  1.3869
  760MOL0     H 2565   9.107   2.247   6.174 -1.0297 -0.1343  0.1718
  760MOL0     H 2566   9.083   2.138   5.887  0.9407 -3.0970  0.4492
  760MOL0     H 2567   9.227   2.124   5.994  0.3417  1.5535 -2.3558
  760MOL0     H 2568   9.057   2.026   6.169  0.5645 -3.2498 -0.2032
  760MOL0     H 2569   8.944   2.021   6.031  0.1894  2.4094 -1.5235
  760MOL0     H 2570   9.196   1.872   6.085  0.1898 -1.6654 -1.2763
  760MOL0     H 2571   9.141   1.889   5.915 -2.0953 -2.4774 -0.8198
  760MOL0     H 2572   8.917   1.790   5.984  1.8061  0.7436 -2.4388
  760MOL0     H 2573   8.983   1.757   6.146  0.4745  1.4084  0.4309
  760MOL0     H 2574   8.990   1.563   5.996 -0.2841 -0.7209 -2.8001
  760MOL0     H 2575   9.124   1.644   5.905  0.7375  0.3194  0.7712
  760MOL0     H 2576   9.123   1.593   6.201  1.7439 -0.5936  0.7305
  760MOL0     H 2577   9.262   1.646   6.103  0.4715  0.9631  0.1248
  760MOL0     H 2578   9.219   1.444   5.959  0.4773 -0.3797 -0.4120
  760MOL0     H 2579   9.298   1.407   6.118 -1.4580 -1.8683  0.1306
  760MOL0     H 2580   9.071   2.450   6.249  0.2533  1.0681  2.0551
  760MOL0     H 2581   8.998   2.655   6.341  0.2739 -1.7702  1.5503
  760MOL0     H 2582   8.419   2.888   6.473  0.3997 -1.8727 -0.4119
  760MOL0     H 2583   8.394   3.095   6.585 -0.6168 -0.1581 -0.0019
  760MOL0     H 2584   7.441   4.042   7.678 -0.0767  0.9634 -0.7654
  760MOL0     H 2585   7.393   4.255   7.803 -0.6731  1.9881  4.5548
  760MOL0     H 2586   7.258   4.342   8.230 -1.4085  0.4665 -1.9138
  760MOL0     H 2587   7.118   4.469   8.370 -0.1758 -0.7109 -1.4361
  760MOL0     H 2588   7.109   4.575   8.565  0.7174  0.0037 -2.3438
  760MOL0     H 2589   6.999   4.648   8.448  1.3951 -0.1284 -1.1838
  760MOL0     H 2590   6.923   4.697   8.673 -0.6004 -1.3921  0.1557
  760MOL0     H 2591   6.973   4.849   8.577 -0.0936 -0.5871  0.9019
  760MOL0     H 2592   7.195   4.830   8.697 -0.3907 -1.7749 -1.7265
  760MOL0     H 2593   7.151   4.681   8.782  1.8961  0.4680  2.7981
  760MOL0     H 2594   6.953   4.844   8.878 -0.3759  1.8466  1.0575
  760MOL0     H 2595   7.104   4.881   8.939  0.4147  2.8885 -0.1853
  760MOL0     H 2596   6.927   5.200   8.710 -0.4464 -0.1645  0.9989
  760MOL0     H 2597   7.405   4.796   8.344 -0.7792  1.3159 -3.9767
  760MOL0     H 2598   7.659   4.636   8.206 -0.8402  0.2904  1.9733
  760MOL0     H 2599   7.567   4.673   8.058  0.6405 -1.5345  0.7770
  760MOL0     H 2600   7.561   4.793   8.191  1.0632  1.5866  0.5293
  761MOL0     O 2601   0.266   2.977   4.171  1.0016  0.7635 -0.3440
  761MOL0     C 2602   0.188   2.925   4.253 -0.0635  0.2449 -0.7984
  761MOL0     O 2603   0.221   2.833   4.352  0.5924  0.2482 -1.0646
  761MOL0     C 2604   0.343   2.776   4.354  0.2311 -0.6013 -0.6858
  761MOL0     C 2605   0.358   2.641   4.317  0.4705  0.7334  0.1875
  761MOL0     C 2606   0.479   2.580   4.339  0.9066  0.1022  0.8180
  761MOL0     C 2607   0.587   2.644   4.400 -0.5918  0.2318  0.4334
  761MOL0     O 2608   0.711   2.596   4.433 -0.1141  0.0976  0.6467
  761MOL0     C 2609   0.771   2.516   4.329  0.6360 -0.7809  0.7509
  761MOL0     C 2610   0.924   2.503   4.368  0.8580  0.2015  1.2467
  761MOL0     C 2611   1.008   2.443   4.251  0.6553  0.4441 -0.3886
  761MOL0     C 2612   0.936   2.359   4.146  0.2100 -0.8239 -0.0987
  761MOL0     C 2613   1.025   2.321   4.024 -0.3352  0.0460  0.0055
  761MOL0     C 2614   1.139   2.245   4.073 -0.3372  0.1502  0.2838
  761MOL0     C 2615   1.236   2.179   3.971  0.6413  0.3641 -0.0105
  761MOL0     C 2616   1.279   2.272   3.855 -0.4671 -0.0694 -0.4373
  761MOL0     N 2617   1.376   2.208   3.765 -1.1157  0.4763 -0.3962
  761MOL0     C 2618   1.355   2.098   3.689 -0.0903 -0.0243 -0.6478
  761MOL0     C 2619   1.466   2.084   3.609  0.4866 -0.1335 -0.4570
  761MOL0     C 2620   1.487   1.973   3.506 -0.2869 -0.1308  0.5612
  761MOL0     C 2621   1.628   1.958   3.452  0.2713 -0.0554 -0.4915
  761MOL0     C 2622   1.633   1.858   3.335  0.3801 -0.0953  0.4258
  761MOL0     C 2623   1.759   1.864   3.247  0.7660  0.1157 -0.8610
  761MOL0     O 2624   1.771   1.742   3.169  0.6938  0.3236 -0.4491
  761MOL0     C 2625   1.874   1.753   3.073  1.4723 -0.5312 -0.4725
  761MOL0     C 2626   1.969   1.848   3.064 -0.3136  0.1090 -0.7805
  761MOL0     C 2627   2.074   1.837   2.976  0.4432  0.8667  0.4139
  761MOL0     C 2628   2.087   1.731   2.883  0.4093  0.2574 -0.4722
  761MOL0     C 2629   2.201   1.718   2.784  1.2558 -0.3952 -0.0615
  761MOL0     O 2630   2.307   1.791   2.797  0.5225  0.0294  0.5194
  761MOL0     C 2631   2.409   1.753   2.713 -0.3124 -0.7613  0.1097
  761MOL0     C 2632   2.482   1.855   2.658 -1.1333  0.1503 -0.6940
  761MOL0     C 2633   2.597   1.844   2.581 -0.0457  0.1695  0.1202
  761MOL0     C 2634   2.653   1.711   2.556  0.1356  0.3392  0.8747
  761MOL0     O 2635   2.762   1.678   2.473  0.6294 -0.2635 -0.0726
  761MOL0     C 2636   2.784   1.776   2.365  0.1689 -1.2353  0.7253
  761MOL0     C 2637   2.871   1.715   2.252 -0.5297  0.2959  0.4178
  761MOL0     C 2638   2.783   1.701   2.126  0.1304 -0.4873  1.4617
  761MOL0     C 2639   2.865   1.720   1.994  0.0225  0.3675 -0.0204
  761MOL0     C 2640   2.795   1.754   1.864 -0.3603  0.5014 -0.6145
  761MOL0     C 2641   2.661   1.684   1.826 -0.6130 -0.4011  0.4228
  761MOL0     C 2642   2.673   1.535   1.793 -0.1664  0.4806 -0.9190
  761MOL0     C 2643   2.545   1.456   1.755 -0.4072  0.4470 -0.1641
  761MOL0    Cl 2644   2.409   1.487   1.877 -0.3707  0.5092  0.1001
  761MOL0     C 2645   2.587   1.606   2.621  0.6797 -0.7443  0.3097
  761MOL0     C 2646   2.470   1.626   2.700 -0.5981 -0.0688 -0.5895
  761MOL0     O 2647   2.183   1.634   2.700  0.0307  0.4703 -0.0823
  761MOL0     C 2648   1.985   1.634   2.901  0.4011 -0.0143  0.1018
  761MOL0     C 2649   1.887   1.643   2.996 -0.1011  0.0775  0.1475
  761MOL0     N 2650   1.543   2.195   3.631 -1.2375 -0.4391 -0.0289
  761MOL0     N 2651   1.496   2.254   3.737  0.3090 -0.6083  0.5704
  761MOL0     C 2652   0.569   2.782   4.420 -0.0559 -0.5739 -0.1130
  761MOL0     C 2653   0.446   2.848   4.411  0.0483  0.2723  0.0575
  761MOL0     C 2654   0.052   2.986   4.247 -0.2906 -0.3016 -0.9635
  761MOL0     C 2655  -0.018   2.991   4.370 -1.2033  0.7247  0.4993
  761MOL0     C 2656  -0.148   3.060   4.381 -0.1964  0.9272  0.0029
  761MOL0     C 2657  -0.191   3.134   4.266 -1.0114 -0.1750 -0.1892
  761MOL0     O 2658  -0.312   3.190   4.269  0.4219 -0.8648 -0.5565
  761MOL0     C 2659  -0.433   3.113   4.243 -0.2638  0.3832  1.1711
  761MOL0     C 2660  -0.480   3.048   4.378  0.3587 -0.3190 -0.1101
  761MOL0     C 2661  -0.622   2.983   4.364  0.6562  0.6558  0.0676
  761MOL0     C 2662  -0.606   2.839   4.305 -0.9789  0.4549 -0.3071
  761MOL0     C 2663  -0.514   2.750   4.374  0.2018 -0.6036 -0.1668
  761MOL0     C 2664  -0.447   2.683   4.446  0.0836  0.0596  0.8890
  761MOL0     C 2665  -0.120   3.125   4.148 -0.0236 -0.1424  0.4792
  761MOL0     C 2666   0.001   3.061   4.135  0.0517  0.9534  0.4039
  761MOL0     C 2667   0.057   3.067   3.992  0.1316 -0.2164 -0.6271
  761MOL0     H 2668   0.282   2.576   4.276 -0.8466  0.7968  2.3588
  761MOL0     H 2669   0.496   2.476   4.311 -2.3492  0.2873 -2.5677
  761MOL0     H 2670   0.729   2.416   4.311  2.5077 -1.1621 -2.3434
  761MOL0     H 2671   0.753   2.576   4.240 -2.3248 -0.1072  1.7182
  761MOL0     H 2672   0.930   2.441   4.459 -2.5344 -3.0268 -0.4349
  761MOL0     H 2673   0.976   2.597   4.386  0.3130  0.8661 -0.5180
  761MOL0     H 2674   1.075   2.376   4.306 -0.6592  1.0984  2.1597
  761MOL0     H 2675   1.060   2.529   4.206 -0.6390  0.4878 -1.8628
  761MOL0     H 2676   0.895   2.279   4.208  2.6895 -1.4122  0.8885
  761MOL0     H 2677   0.855   2.416   4.099  0.4754  0.3027  0.7432
  761MOL0     H 2678   0.967   2.261   3.953  0.4042  1.0465 -1.4984
  761MOL0     H 2679   1.058   2.415   3.980  0.7024  1.5785  3.7555
  761MOL0     H 2680   1.191   2.303   4.150  0.1513  1.2901 -0.8660
  761MOL0     H 2681   1.087   2.171   4.134 -4.1647  0.9221 -1.7233
  761MOL0     H 2682   1.191   2.085   3.939 -0.3783  0.9830 -0.4468
  761MOL0     H 2683   1.332   2.163   4.021  0.6776  1.2501  0.2190
  761MOL0     H 2684   1.193   2.299   3.794 -0.6905 -1.6196 -0.8730
  761MOL0     H 2685   1.322   2.366   3.890 -1.8057 -0.3717  2.2797
  761MOL0     H 2686   1.268   2.032   3.686 -2.1884  2.2371  2.8613
  761MOL0     H 2687   1.448   1.880   3.547 -1.8770  1.0079  1.7841
  761MOL0     H 2688   1.425   1.991   3.418 -0.7523 -1.3210  0.6317
  761MOL0     H 2689   1.654   2.055   3.408  0.9743 -1.0777 -2.4520
  761MOL0     H 2690   1.706   1.925   3.522  1.5279 -0.9096 -2.2363
  761MOL0     H 2691   1.557   1.880   3.260  0.9272  1.5756  0.3203
  761MOL0     H 2692   1.622   1.755   3.370  0.8138 -0.5590 -0.7504
  761MOL0     H 2693   1.853   1.865   3.302  0.1991 -1.2271  0.1818
  761MOL0     H 2694   1.754   1.951   3.180  0.9115  0.2770 -0.6645
  761MOL0     H 2695   1.969   1.935   3.129  3.6889  0.1342 -0.5963
  761MOL0     H 2696   2.159   1.904   2.970 -1.0892  2.8919  0.4083
  761MOL0     H 2697   2.454   1.958   2.677 -0.3492 -0.0067  1.7145
  761MOL0     H 2698   2.641   1.931   2.533 -1.3068 -0.1329 -1.7092
  761MOL0     H 2699   2.691   1.816   2.325  1.9132  4.0842  1.1143
  761MOL0     H 2700   2.826   1.868   2.408  0.9652 -1.2892  0.0867
  761MOL0     H 2701   2.958   1.778   2.230 -1.2633  1.4150  0.6376
  761MOL0     H 2702   2.906   1.615   2.277 -2.6028 -0.4380  0.5480
  761MOL0     H 2703   2.743   1.600   2.116 -0.8609  0.0124  0.2037
  761MOL0     H 2704   2.699   1.769   2.113 -0.0130 -1.2087 -2.3507
  761MOL0     H 2705   2.924   1.628   1.997  0.9440  0.9537  2.3586
  761MOL0     H 2706   2.943   1.792   2.023 -0.7745  0.1941  2.8574
  761MOL0     H 2707   2.868   1.760   1.783  0.7280  3.6024  0.4512
  761MOL0     H 2708   2.764   1.857   1.885  1.0294  0.9772 -0.8340
  761MOL0     H 2709   2.587   1.710   1.901  0.3023 -0.0377  1.2200
  761MOL0     H 2710   2.628   1.722   1.729  0.9923  1.2445  0.4722
  761MOL0     H 2711   2.722   1.483   1.875  2.6179  0.0345 -2.7304
  761MOL0     H 2712   2.740   1.536   1.706 -1.5844 -0.8736 -2.0728
  761MOL0     H 2713   2.512   1.494   1.658 -1.0579  2.7392  0.8876
  761MOL0     H 2714   2.575   1.351   1.751 -0.3878  0.3106  2.1474
  761MOL0     H 2715   2.620   1.505   2.597 -0.0075 -0.7593 -0.6234
  761MOL0     H 2716   2.432   1.539   2.752  3.0694 -1.9858 -0.7627
  761MOL0     H 2717   1.989   1.547   2.836 -1.7512  2.2219 -3.3370
  761MOL0     H 2718   1.819   1.559   2.997  0.4772 -0.3879  1.0418
  761MOL0     H 2719   0.650   2.835   4.469  1.1821 -0.0472 -2.5214
  761MOL0     H 2720   0.438   2.953   4.435  0.9042  0.9747 -2.4470
  761MOL0     H 2721   0.034   2.951   4.457  3.9676  1.2494 -1.9963
  761MOL0     H 2722  -0.194   3.068   4.479 -4.4544  0.7990 -1.7666
  761MOL0     H 2723  -0.410   3.040   4.165  0.3304  1.0452  0.7139
  761MOL0     H 2724  -0.512   3.181   4.212  0.7813  1.3212  0.5199
  761MOL0     H 2725  -0.501   3.127   4.451 -0.8754 -0.0643 -0.7174
  761MOL0     H 2726  -0.404   2.980   4.419  0.0465 -1.9736 -2.1301
  761MOL0     H 2727  -0.691   3.039   4.301  0.9055  0.6323 -0.2296
  761MOL0     H 2728  -0.666   2.966   4.463 -0.9571 -4.1393 -1.2251
  761MOL0     H 2729  -0.701   2.786   4.309  0.2836 -1.9037  0.0068
  761MOL0     H 2730  -0.572   2.845   4.201  0.9277  0.4159  0.2747
  761MOL0     H 2731  -0.375   2.647   4.517  1.2909  2.5195  1.0225
  761MOL0     H 2732  -0.171   3.170   4.064 -0.9349 -1.4268  0.3048
  761MOL0     H 2733   0.038   3.165   3.947 -2.2226  0.2898  1.2894
  761MOL0     H 2734   0.161   3.041   3.972  0.0306 -2.2612  1.1211
  761MOL0     H 2735   0.012   2.986   3.934 -1.7585  1.3345 -1.4646
  762MOL0     O 2736   9.352   0.024  11.450 -0.1538  0.0539  0.2193
  762MOL0     C 2737   9.319   0.142  11.428  0.0680 -0.1880  0.5790
  762MOL0     O 2738   9.405   0.245  11.366  0.6088 -0.2839 -0.8375
  762MOL0     C 2739   9.503   0.206  11.285 -0.3495  0.8821  0.2672
  762MOL0     C 2740   9.509   0.255  11.150  0.0716  0.4883  0.1658
  762MOL0     C 2741   9.605   0.214  11.057  0.7838  0.4617 -0.2657
  762MOL0     C 2742   9.704   0.121  11.103 -0.4982  0.0735  0.3332
  762MOL0     O 2743   9.790   0.097  11.003  0.9375  0.0603 -0.3056
  762MOL0     C 2744   9.913   0.039  11.033 -1.1317 -0.0104 -0.2680
  762MOL0     C 2745  10.011   0.147  11.088  0.4091 -0.7767 -0.1609
  762MOL0     C 2746  10.151   0.093  11.137 -0.1170 -0.3477  0.1448
  762MOL0     C 2747  10.249   0.066  11.022 -0.3546  0.8297 -0.0584
  762MOL0     C 2748  10.381   0.018  11.063 -0.0315 -0.1205  0.2158
  762MOL0     C 2749  10.484   0.055  10.952  0.5866  0.1479 -0.5567
  762MOL0     C 2750  10.619   0.046  11.020  0.4891 -0.0618 -0.1596
  762MOL0     C 2751  10.730   0.050  10.911  0.7232  0.3134 -0.0511
  762MOL0     N 2752  10.858   0.010  10.975  0.3738 -0.5807 -0.3988
  762MOL0     C 2753  10.983   0.019  10.922 -0.3384  0.7982  0.1571
  762MOL0     C 2754  11.067   0.009  11.032  0.9722 -0.5387  1.0736
  762MOL0     C 2755  11.217   0.031  11.018  0.1168  1.1714 -0.1403
  762MOL0     C 2756  11.261   0.166  10.979  0.8839 -0.4368  0.6859
  762MOL0     C 2757  11.411   0.182  11.009 -0.3672  0.2120 -0.4647
  762MOL0     C 2758  11.509   0.091  10.960 -0.2195  0.2244 -0.1678
  762MOL0     O 2759  11.502  -0.029  11.040 -0.4999 -0.0651 -0.8760
  762MOL0     C 2760  11.573  -0.131  10.991  0.1298  0.0023  0.4586
  762MOL0     C 2761  11.517  -0.246  10.955 -0.3219  0.0288  0.2435
  762MOL0     C 2762  11.586  -0.364  10.906 -0.5049 -0.3957 -0.8532
  762MOL0     C 2763  11.726  -0.349  10.886 -0.1676  0.4816 -0.4955
  762MOL0     C 2764  11.802  -0.465  10.844  0.1385 -0.0386 -0.2306
  762MOL0     O 2765  11.938  -0.440  10.829  0.1006  0.3385  0.0672
  762MOL0     C 2766  12.018  -0.541  10.804 -0.3952  0.1909 -0.2493
  762MOL0     C 2767  12.076  -0.559  10.673 -0.1166 -0.6524 -0.8774
  762MOL0     C 2768  12.184  -0.646  10.651  0.3104  1.2701  0.1232
  762MOL0     C 2769  12.224  -0.731  10.750 -0.6516  0.1692 -0.3740
  762MOL0     O 2770  12.341  -0.801  10.738 -0.0593  0.2151 -0.5386
  762MOL0     C 2771  12.304  -0.933  10.699 -0.7609  0.8938  0.7472
  762MOL0     C 2772  12.432  -1.033  10.659  0.1082 -0.7597 -0.3546
  762MOL0     C 2773  12.499  -0.983  10.525  0.3769  0.9139 -0.2271
  762MOL0     C 2774  12.388  -0.944  10.419  0.4496  0.6016  0.1697
  762MOL0     C 2775  12.443  -0.954  10.276 -0.0860 -0.0541  1.0072
  762MOL0     C 2776  12.364  -0.868  10.172  0.0606 -0.6346 -0.3952
  762MOL0     C 2777  12.420  -0.863  10.034  0.7488 -0.3573 -0.2688
  762MOL0     C 2778  12.401  -1.001   9.978 -0.2837 -0.2562 -0.0034
  762MOL0    Cl 2779  12.481  -0.991   9.822  0.1178 -0.3677  0.0658
  762MOL0     C 2780  12.162  -0.722  10.879 -0.2940 -0.6278  0.0328
  762MOL0     C 2781  12.055  -0.638  10.899  1.2713 -0.8000 -0.0817
  762MOL0     O 2782  11.745  -0.576  10.837  0.2776  0.6658  0.2986
  762MOL0     C 2783  11.783  -0.225  10.910  0.8046  0.1970  0.4721
  762MOL0     C 2784  11.710  -0.121  10.966  0.5093 -0.5912 -1.5083
  762MOL0     N 2785  10.989  -0.009  11.146 -0.5552 -0.3939 -0.0133
  762MOL0     N 2786  10.866  -0.013  11.111  0.8271 -0.7261 -0.0942
  762MOL0     C 2787   9.718   0.088  11.238  1.0759 -0.3308 -0.3139
  762MOL0     C 2788   9.605   0.115  11.324  0.4772  0.1365 -0.0837
  762MOL0     C 2789   9.183   0.186  11.450  0.9926 -0.9130 -0.7706
  762MOL0     C 2790   9.132   0.309  11.387 -0.0525 -0.1960  0.4544
  762MOL0     C 2791   8.994   0.334  11.382  0.9891 -0.0702 -0.9836
  762MOL0     C 2792   8.902   0.250  11.441  0.1484 -0.1023 -0.1991
  762MOL0     O 2793   8.764   0.271  11.418 -1.4766 -0.4809 -0.3806
  762MOL0     C 2794   8.677   0.268  11.538  0.0354  1.1765  0.5024
  762MOL0     C 2795   8.534   0.315  11.505 -0.1802  0.3504  0.1385
  762MOL0     C 2796   8.524   0.442  11.420 -0.2689  0.3166  0.0444
  762MOL0     C 2797   8.439   0.542  11.493  0.4350 -0.1092  0.0151
  762MOL0     C 2798   8.306   0.491  11.524  0.0148 -0.3153  0.6376
  762MOL0     C 2799   8.188   0.460  11.560 -1.0834 -0.2492 -0.5082
  762MOL0     C 2800   8.942   0.138  11.507 -0.6467 -0.5202 -0.0466
  762MOL0     C 2801   9.084   0.110  11.516  0.3188 -0.4312  0.0083
  762MOL0     C 2802   9.117  -0.010  11.602 -0.2698  1.4188 -0.7038
  762MOL0     H 2803   9.436   0.323  11.105  1.4977  2.0850  0.1450
  762MOL0     H 2804   9.591   0.253  10.957  0.1609  1.7958  0.3089
  762MOL0     H 2805   9.908  -0.032  11.116 -1.2293  0.3371  0.0302
  762MOL0     H 2806   9.956  -0.010  10.945  1.1095  0.6956  0.3528
  762MOL0     H 2807   9.958   0.204  11.165  1.4510  0.3380 -0.2520
  762MOL0     H 2808  10.022   0.221  11.009 -1.9070 -0.3696 -0.1653
  762MOL0     H 2809  10.140   0.003  11.197  0.5117  0.7709  2.0116
  762MOL0     H 2810  10.192   0.170  11.203  0.7809 -1.3700  0.8140
  762MOL0     H 2811  10.202  -0.008  10.957  0.6019  0.8615 -0.7995
  762MOL0     H 2812  10.247   0.164  10.973 -4.1238  0.0601 -1.7758
  762MOL0     H 2813  10.402   0.084  11.148 -1.5438  3.0269 -1.6843
  762MOL0     H 2814  10.382  -0.088  11.089  1.9755  0.5477  3.5541
  762MOL0     H 2815  10.465  -0.015  10.870  0.9325 -1.9797  1.1075
  762MOL0     H 2816  10.471   0.155  10.909 -0.6144 -0.4318 -1.6217
  762MOL0     H 2817  10.627  -0.044  11.082 -0.5520  0.9714  1.5484
  762MOL0     H 2818  10.644   0.135  11.078  0.0017 -0.5952  0.9037
  762MOL0     H 2819  10.709  -0.028  10.838  1.1604 -1.7925  1.9342
  762MOL0     H 2820  10.737   0.150  10.868 -1.7773  0.2479 -0.7446
  762MOL0     H 2821  11.002   0.054  10.821  2.7700  1.7698  0.9644
  762MOL0     H 2822  11.278   0.003  11.105  0.8379 -0.8943 -1.2572
  762MOL0     H 2823  11.227  -0.039  10.935 -1.9034 -0.2618  0.7298
  762MOL0     H 2824  11.235   0.203  10.879  0.8825  3.1585  1.8819
  762MOL0     H 2825  11.197   0.226  11.044 -2.5490 -4.6457  1.6563
  762MOL0     H 2826  11.422   0.174  11.117  2.0794  0.3366 -0.6277
  762MOL0     H 2827  11.444   0.282  10.978  2.5576 -0.5183 -0.0037
  762MOL0     H 2828  11.606   0.142  10.951 -0.5800  0.7484 -1.2806
  762MOL0     H 2829  11.468   0.057  10.865 -0.0712  0.4721 -0.3227
  762MOL0     H 2830  11.410  -0.248  10.973 -0.0563 -0.4801  1.8833
  762MOL0     H 2831  11.533  -0.457  10.887  1.6957 -2.1887  1.2047
  762MOL0     H 2832  12.045  -0.500  10.588 -4.8260  0.6874  1.4538
  762MOL0     H 2833  12.233  -0.656  10.555  1.6782  1.2494  0.7968
  762MOL0     H 2834  12.244  -0.980  10.778  1.5348  0.3586  2.2765
  762MOL0     H 2835  12.218  -0.938  10.631 -3.3624 -2.6014  3.8861
  762MOL0     H 2836  12.501  -1.023  10.744 -0.9891 -0.5350  0.5335
  762MOL0     H 2837  12.397  -1.136  10.659  0.5338 -0.9076 -0.9347
  762MOL0     H 2838  12.567  -0.901  10.550 -1.4822  2.6636 -0.6397
  762MOL0     H 2839  12.542  -1.072  10.479  1.1746  2.3263 -2.4140
  762MOL0     H 2840  12.346  -0.847  10.448 -2.0599 -0.5015  0.5318
  762MOL0     H 2841  12.299  -1.009  10.420  1.0227 -0.3091 -1.9153
  762MOL0     H 2842  12.429  -1.061  10.258 -3.3682 -0.3600  4.3326
  762MOL0     H 2843  12.549  -0.928  10.272 -0.0755 -0.1583  0.4795
  762MOL0     H 2844  12.258  -0.895  10.167 -0.7188  2.2218 -1.4682
  762MOL0     H 2845  12.357  -0.765  10.210 -0.6990 -1.4123  1.7263
  762MOL0     H 2846  12.524  -0.834  10.054  0.8357 -2.4122  3.2469
  762MOL0     H 2847  12.381  -0.782   9.973 -2.3356  2.3981  4.6890
  762MOL0     H 2848  12.443  -1.082  10.037 -4.4121 -0.8661  2.5386
  762MOL0     H 2849  12.293  -1.018   9.969 -1.6016  3.2303  4.9755
  762MOL0     H 2850  12.200  -0.777  10.965 -0.8473 -0.6921  0.2414
  762MOL0     H 2851  11.995  -0.629  10.989  1.9776 -1.7631  0.5042
  762MOL0     H 2852  11.887  -0.208  10.886  1.5232  1.5858  3.9547
  762MOL0     H 2853  11.760  -0.034  11.005 -1.5457 -0.8284  2.1475
  762MOL0     H 2854   9.794   0.027  11.285  2.2688  0.9075 -0.5638
  762MOL0     H 2855   9.593   0.086  11.427 -2.1561  0.1801 -0.3236
  762MOL0     H 2856   9.199   0.380  11.340 -1.9694  2.3803  1.4203
  762MOL0     H 2857   8.966   0.428  11.335 -1.8479  2.8694  5.2843
  762MOL0     H 2858   8.720   0.331  11.618 -2.3661  1.1865  1.8686
  762MOL0     H 2859   8.680   0.166  11.575 -2.2745  1.0988  0.6004
  762MOL0     H 2860   8.483   0.323  11.602  0.5887 -1.5203  0.7554
  762MOL0     H 2861   8.489   0.237  11.442  0.5596  2.0756 -2.7152
  762MOL0     H 2862   8.487   0.411  11.322  0.0314  0.7830 -0.2202
  762MOL0     H 2863   8.625   0.481  11.403  0.4946 -0.8920  1.5467
  762MOL0     H 2864   8.475   0.565  11.594 -2.7120  2.1987  0.7463
  762MOL0     H 2865   8.420   0.636  11.440 -2.3358 -0.5013  0.1752
  762MOL0     H 2866   8.091   0.418  11.578 -0.1632 -2.0157  0.6186
  762MOL0     H 2867   8.865   0.074  11.548 -1.3007 -1.1570 -2.1274
  762MOL0     H 2868   9.131  -0.095  11.535  2.4252  1.6095 -0.5112
  762MOL0     H 2869   9.208   0.002  11.662 -1.4187 -1.3239  1.8159
  762MOL0     H 2870   9.037  -0.035  11.672  1.9432  0.2249  1.5746
  763MOL0     O 2871   0.230   0.436   7.010  0.3315  0.0805 -0.2385
  763MOL0     C 2872   0.106   0.442   6.993  0.2662  0.0492  0.3097
  763MOL0     O 2873   0.017   0.509   7.070  0.2938 -0.1254 -0.1025
  763MOL0     C 2874   0.067   0.602   7.162 -0.2325 -1.2697 -0.2652
  763MOL0     C 2875   0.041   0.739   7.140 -1.4785  0.4402 -0.1138
  763MOL0     C 2876   0.100   0.831   7.226 -0.1617  0.2192  0.2816
  763MOL0     C 2877   0.170   0.801   7.346 -0.5582  0.1969  0.0649
  763MOL0     O 2878   0.212   0.893   7.437 -0.4040  0.1970  0.9730
  763MOL0     C 2879   0.138   1.023   7.441 -0.3793 -0.7101 -0.2625
  763MOL0     C 2880   0.181   1.112   7.565  0.3820  0.5836 -0.1536
  763MOL0     C 2881   0.146   1.060   7.706 -1.0029 -0.2635  0.0298
  763MOL0     C 2882   0.196   0.916   7.744 -0.6908 -0.8012 -0.3123
  763MOL0     C 2883   0.169   0.883   7.895 -0.7186 -0.4521  0.2545
  763MOL0     C 2884   0.247   0.976   7.991 -0.6308  0.0050 -1.1581
  763MOL0     C 2885   0.230   0.915   8.142  0.4264  0.4663 -0.4165
  763MOL0     C 2886   0.090   0.933   8.205 -0.1109 -0.7348 -0.1940
  763MOL0     N 2887  -0.026   0.852   8.150  0.0205 -0.8275 -1.1433
  763MOL0     C 2888  -0.022   0.722   8.151 -0.2319  0.6597 -0.1476
  763MOL0     C 2889  -0.143   0.687   8.104 -0.8285  0.6298 -0.3318
  763MOL0     C 2890  -0.176   0.547   8.080 -0.0929  0.3509 -0.6780
  763MOL0     C 2891  -0.093   0.485   7.962  0.2853 -0.3006  0.5608
  763MOL0     C 2892  -0.147   0.347   7.933 -0.9088 -0.0824  0.6087
  763MOL0     C 2893  -0.046   0.279   7.834  0.6346  0.2005 -0.5999
  763MOL0     O 2894   0.065   0.230   7.918 -0.3543  0.3948  0.0043
  763MOL0     C 2895   0.075   0.097   7.932  0.0642  0.7886 -0.7545
  763MOL0     C 2896   0.082   0.050   8.063  0.6990  0.1794 -0.6170
  763MOL0     C 2897   0.102  -0.093   8.087  0.5924  0.4226  0.2608
  763MOL0     C 2898   0.113  -0.181   7.976  0.3497  0.7900  0.0001
  763MOL0     C 2899   0.135  -0.330   8.005 -0.4394 -1.7482 -0.0903
  763MOL0     O 2900   0.156  -0.365   8.130 -0.6461  0.9278 -0.2145
  763MOL0     C 2901   0.171  -0.502   8.150 -0.8196  0.6402  0.4502
  763MOL0     C 2902   0.064  -0.586   8.168 -0.1608  0.3613  0.3260
  763MOL0     C 2903   0.077  -0.721   8.203 -0.1766 -0.5122  0.8316
  763MOL0     C 2904   0.202  -0.784   8.192 -0.3006 -0.0183  0.2209
  763MOL0     O 2905   0.220  -0.919   8.203  0.2146 -0.4273  0.1827
  763MOL0     C 2906   0.278  -0.965   8.317 -0.5064  0.1353 -0.1789
  763MOL0     C 2907   0.257  -1.113   8.301  0.1693 -0.1207 -1.1084
  763MOL0     C 2908   0.346  -1.183   8.407  0.0814 -0.5230  1.2313
  763MOL0     C 2909   0.357  -1.336   8.397 -0.3983 -0.0385 -0.2567
  763MOL0     C 2910   0.460  -1.397   8.497  0.3266 -0.3137  0.7580
  763MOL0     C 2911   0.487  -1.317   8.622  0.2573  0.6332 -0.3234
  763MOL0     C 2912   0.576  -1.396   8.722  1.0145 -0.5782 -0.2166
  763MOL0     C 2913   0.561  -1.310   8.848 -0.2296  0.5256  0.5491
  763MOL0    Cl 2914   0.660  -1.160   8.827  0.1393 -0.2997  0.1011
  763MOL0     C 2915   0.309  -0.695   8.185  0.5443  0.1745  0.3488
  763MOL0     C 2916   0.299  -0.558   8.165  0.1771  0.4051  0.7361
  763MOL0     O 2917   0.165  -0.399   7.911  0.6686  0.2462  0.2761
  763MOL0     C 2918   0.101  -0.132   7.844  0.2242 -0.3647 -0.2052
  763MOL0     C 2919   0.084   0.003   7.827  0.5490 -0.6227 -0.0488
  763MOL0     N 2920  -0.224   0.798   8.095 -0.5479  0.3423  0.5145
  763MOL0     N 2921  -0.154   0.897   8.125 -0.2766 -0.3448 -0.0305
  763MOL0     C 2922   0.197   0.665   7.364  0.2963  0.6055  0.3085
  763MOL0     C 2923   0.144   0.567   7.270 -0.8938 -1.1952 -0.0462
  763MOL0     C 2924   0.055   0.368   6.876  0.3067  0.2104 -0.4064
  763MOL0     C 2925   0.140   0.352   6.767 -0.9859 -0.4596  0.0716
  763MOL0     C 2926   0.107   0.284   6.651 -0.1891 -0.5614  0.5280
  763MOL0     C 2927  -0.027   0.239   6.631  0.1185 -0.0281 -0.4634
  763MOL0     O 2928  -0.041   0.174   6.515  0.2415 -0.5091 -0.3111
  763MOL0     C 2929  -0.167   0.096   6.507 -0.8125 -0.4811  0.3585
  763MOL0     C 2930  -0.167   0.014   6.374  0.3375 -0.0401 -0.0195
  763MOL0     C 2931  -0.286  -0.077   6.354  1.0193 -0.2808  0.2488
  763MOL0     C 2932  -0.276  -0.167   6.228  1.7334  0.6146  0.0877
  763MOL0     C 2933  -0.418  -0.171   6.173  0.8017  0.2131  0.0822
  763MOL0     C 2934  -0.530  -0.160   6.130 -0.0553  0.4137  0.3735
  763MOL0     C 2935  -0.119   0.266   6.735  0.2831  1.4961 -0.5438
  763MOL0     C 2936  -0.077   0.321   6.857  1.0592  0.4140  0.1958
  763MOL0     C 2937  -0.184   0.344   6.961  0.2282  0.1688  0.2939
  763MOL0     H 2938  -0.016   0.766   7.053 -0.9714 -0.6806 -0.8219
  763MOL0     H 2939   0.091   0.935   7.198  0.9354  0.9968  2.5650
  763MOL0     H 2940   0.147   1.071   7.343 -0.2896  2.2758  1.0902
  763MOL0     H 2941   0.033   0.997   7.457 -0.9387  2.2648  1.6838
  763MOL0     H 2942   0.133   1.209   7.549  1.3632  0.4713 -6.0545
  763MOL0     H 2943   0.289   1.127   7.557  0.4488 -0.1686 -0.8356
  763MOL0     H 2944   0.037   1.067   7.712 -0.9927 -0.3852  0.3846
  763MOL0     H 2945   0.188   1.136   7.774 -1.3860 -3.1995  3.9129
  763MOL0     H 2946   0.136   0.844   7.687 -3.0364  2.5929 -2.6178
  763MOL0     H 2947   0.302   0.899   7.727 -1.1799 -3.4080 -1.2657
  763MOL0     H 2948   0.061   0.902   7.898 -0.5714  0.7006 -0.9590
  763MOL0     H 2949   0.201   0.779   7.908 -0.8107 -0.4398  0.5816
  763MOL0     H 2950   0.354   0.988   7.972 -0.4753  2.6823  0.8947
  763MOL0     H 2951   0.226   1.083   7.992 -0.2229  0.1262  1.3416
  763MOL0     H 2952   0.299   0.968   8.208 -2.8990  0.9712  3.0107
  763MOL0     H 2953   0.250   0.807   8.140 -2.6145 -0.1807 -1.0792
  763MOL0     H 2954   0.087   0.925   8.314 -1.3729  1.4548 -0.0113
  763MOL0     H 2955   0.058   1.032   8.172  1.2615 -0.7908 -1.8142
  763MOL0     H 2956   0.049   0.649   8.188 -2.8201 -1.7407  0.4527
  763MOL0     H 2957  -0.161   0.482   8.166  0.1224 -1.3659 -1.9453
  763MOL0     H 2958  -0.283   0.543   8.057 -0.2106  4.6686 -1.6787
  763MOL0     H 2959  -0.098   0.550   7.875  1.5341 -0.0635  0.6400
  763MOL0     H 2960   0.011   0.470   7.992  0.6047 -3.2289 -1.5637
  763MOL0     H 2961  -0.239   0.361   7.876 -0.6135 -2.8344 -0.6971
  763MOL0     H 2962  -0.160   0.295   8.028 -0.2627  2.9190  2.4810
  763MOL0     H 2963  -0.012   0.351   7.760  0.1523 -1.3357 -2.3969
  763MOL0     H 2964  -0.103   0.200   7.784 -4.9800  3.7744 -0.6749
  763MOL0     H 2965   0.074   0.117   8.148 -3.1795 -2.2134  1.2106
  763MOL0     H 2966   0.093  -0.122   8.192  1.1664 -0.7076  0.0103
  763MOL0     H 2967  -0.030  -0.534   8.155 -0.8375 -1.1841 -1.3835
  763MOL0     H 2968  -0.009  -0.786   8.220 -0.5704 -0.6513 -1.3637
  763MOL0     H 2969   0.383  -0.946   8.294 -0.6248  4.2506  1.6269
  763MOL0     H 2970   0.262  -0.921   8.416  2.0154  5.0583 -1.6225
  763MOL0     H 2971   0.151  -1.133   8.318 -0.0092  2.1649  1.2748
  763MOL0     H 2972   0.297  -1.142   8.204  3.0817 -3.3611  0.8317
  763MOL0     H 2973   0.446  -1.140   8.389 -1.1860  2.7912  1.3313
  763MOL0     H 2974   0.306  -1.149   8.503 -0.3155  1.3304  0.4687
  763MOL0     H 2975   0.390  -1.374   8.300  3.9479 -0.2351  1.0851
  763MOL0     H 2976   0.259  -1.379   8.421 -0.8077 -0.0076 -1.7511
  763MOL0     H 2977   0.552  -1.410   8.440 -0.0093 -1.4127  0.4385
  763MOL0     H 2978   0.428  -1.498   8.526 -3.2261  0.5280  0.3202
  763MOL0     H 2979   0.557  -1.234   8.605 -0.1926  1.7044  2.5317
  763MOL0     H 2980   0.393  -1.275   8.657  1.3135  1.2969  1.9599
  763MOL0     H 2981   0.683  -1.390   8.703  0.9080  0.3030 -0.5955
  763MOL0     H 2982   0.539  -1.498   8.735 -1.4685  0.4400  1.4345
  763MOL0     H 2983   0.454  -1.301   8.868 -0.2533  1.5255  0.0223
  763MOL0     H 2984   0.595  -1.363   8.938  2.4765  0.4016 -0.4618
  763MOL0     H 2985   0.409  -0.734   8.198  0.7259  0.1362 -1.0039
  763MOL0     H 2986   0.383  -0.490   8.156  2.3543 -2.4009 -4.2230
  763MOL0     H 2987   0.101  -0.196   7.756 -1.9722 -0.3942 -0.2388
  763MOL0     H 2988   0.063   0.031   7.724 -0.3861 -0.7781  0.0894
  763MOL0     H 2989   0.261   0.641   7.449  2.3858 -0.0094 -1.3368
  763MOL0     H 2990   0.149   0.459   7.283 -0.1332 -1.6417 -3.3253
  763MOL0     H 2991   0.244   0.381   6.772 -1.1361  1.2122 -3.3963
  763MOL0     H 2992   0.173   0.256   6.570  0.0314  0.9970  0.1306
  763MOL0     H 2993  -0.246   0.171   6.504  0.8651  1.3611 -1.6193
  763MOL0     H 2994  -0.177   0.029   6.593 -2.5953  1.2424  1.5687
  763MOL0     H 2995  -0.079  -0.047   6.354  1.9945  2.4398 -0.7582
  763MOL0     H 2996  -0.175   0.095   6.300  2.4860 -0.8878 -1.2691
  763MOL0     H 2997  -0.368  -0.006   6.349  1.5090  0.2016 -1.9227
  763MOL0     H 2998  -0.307  -0.135   6.445 -1.8034  0.7059  0.3371
  763MOL0     H 2999  -0.207  -0.146   6.145 -0.8380  1.8847 -1.8973
  763MOL0     H 3000  -0.244  -0.269   6.251 -0.2292 -0.2399 -0.7938
  763MOL0     H 3001  -0.628  -0.152   6.088  0.4106  2.6228 -0.4253
  763MOL0     H 3002  -0.227   0.253   6.734  0.1998  1.3763  2.0750
  763MOL0     H 3003  -0.266   0.272   6.946  1.4801 -1.0037 -1.2583
  763MOL0     H 3004  -0.148   0.335   7.063 -0.0073 -1.0188  0.2890
  763MOL0     H 3005  -0.228   0.444   6.952  1.2856  0.6312  0.2331
  764MOL0     O 3006   9.140   6.140   9.745 -0.0656 -0.0870  0.2349
  764MOL0     C 3007   9.081   6.165   9.848 -0.3733 -0.4341  0.8950
  764MOL0     O 3008   9.082   6.293   9.909  0.6243 -0.0365  1.0030
  764MOL0     C 3009   9.153   6.398   9.853  0.8547  0.2763  0.3148
  764MOL0     C 3010   9.076   6.520   9.836  0.2959 -0.0448  0.1500
  764MOL0     C 3011   9.140   6.635   9.799  0.4747 -0.0590  0.0088
  764MOL0     C 3012   9.282   6.644   9.792  0.6355  0.0211  0.3445
  764MOL0     O 3013   9.362   6.760   9.770 -0.3039 -0.1854 -0.2579
  764MOL0     C 3014   9.309   6.885   9.746 -0.3793 -0.8298  0.6462
  764MOL0     C 3015   9.371   6.938   9.612  0.4583 -0.2236  0.3541
  764MOL0     C 3016   9.382   7.095   9.607 -0.1315  0.2591 -0.9618
  764MOL0     C 3017   9.510   7.145   9.672 -0.4616 -0.5691  0.0860
  764MOL0     C 3018   9.639   7.144   9.585  0.6837 -0.0351  0.4532
  764MOL0     C 3019   9.759   7.208   9.663 -1.5185 -0.0597 -0.1512
  764MOL0     C 3020   9.761   7.364   9.634 -0.4739 -0.2623 -0.0302
  764MOL0     C 3021   9.892   7.424   9.690  0.1369 -0.8813  0.3956
  764MOL0     N 3022   9.917   7.384   9.833 -1.0857  0.3372 -0.5740
  764MOL0     C 3023   9.849   7.419   9.946 -0.1655 -0.5246 -1.2806
  764MOL0     C 3024   9.911   7.358  10.051 -0.8985 -0.9091 -0.2070
  764MOL0     C 3025   9.854   7.344  10.193 -0.7395  0.2343 -0.6762
  764MOL0     C 3026   9.876   7.197  10.235 -0.0927  0.3960  0.6228
  764MOL0     C 3027   9.821   7.169  10.372  0.5812  0.0147  0.0354
  764MOL0     C 3028   9.914   7.217  10.485  0.7414  0.0418  0.5864
  764MOL0     O 3029   9.835   7.198  10.604 -0.5239 -0.0205  1.0870
  764MOL0     C 3030   9.843   7.089  10.684 -0.5669 -1.0981 -0.7004
  764MOL0     C 3031   9.796   7.113  10.817  0.1564  0.0273 -0.0344
  764MOL0     C 3032   9.816   7.027  10.919  0.5870  0.2293 -0.4942
  764MOL0     C 3033   9.842   6.896  10.886  0.7588  0.6244 -1.3119
  764MOL0     C 3034   9.823   6.788  10.994 -0.0837  0.4225  0.5308
  764MOL0     O 3035   9.836   6.829  11.125  0.7681  0.8076  0.3749
  764MOL0     C 3036   9.889   6.751  11.226 -0.4600  0.1825  0.1472
  764MOL0     C 3037   9.949   6.627  11.215 -0.4779 -0.0207  0.7709
  764MOL0     C 3038   9.994   6.565  11.332 -0.3496  0.9336 -0.6337
  764MOL0     C 3039   9.985   6.622  11.457  0.6822 -0.5074 -0.4296
  764MOL0     O 3040  10.025   6.559  11.571 -0.4576  0.3844 -0.0942
  764MOL0     C 3041  10.107   6.433  11.554  0.1725 -0.2459 -0.0446
  764MOL0     C 3042  10.149   6.400  11.698 -0.3832  0.0382 -0.8317
  764MOL0     C 3043  10.116   6.252  11.716 -0.3254  0.4118  0.9384
  764MOL0     C 3044  10.138   6.198  11.855 -0.5071  0.0071 -0.4397
  764MOL0     C 3045  10.289   6.177  11.889  0.0252  0.3942  0.1710
  764MOL0     C 3046  10.318   6.100  12.018  0.4442  0.1665  0.0056
  764MOL0     C 3047  10.453   6.023  12.002 -0.5590  0.6328  0.5540
  764MOL0     C 3048  10.482   5.912  12.101  0.1931 -0.6015 -0.8293
  764MOL0    Cl 3049  10.346   5.793  12.069  0.2821 -0.1860  0.4504
  764MOL0     C 3050   9.928   6.745  11.465  0.8640  0.1988  0.2248
  764MOL0     C 3051   9.878   6.807  11.351  0.9407 -0.7469 -0.2294
  764MOL0     O 3052   9.817   6.669  10.957 -0.4950 -0.5501 -0.6946
  764MOL0     C 3053   9.897   6.862  10.761  0.1121 -0.2412  0.4197
  764MOL0     C 3054   9.898   6.961  10.659 -0.7085  0.0499  0.7887
  764MOL0     N 3055  10.023   7.299  10.007 -0.2240  0.2461  0.4988
  764MOL0     N 3056  10.032   7.320   9.874  0.0755 -0.9710 -0.7510
  764MOL0     C 3057   9.355   6.521   9.801  0.5549  0.0226 -0.0321
  764MOL0     C 3058   9.293   6.400   9.837 -0.3448 -0.5446  0.3786
  764MOL0     C 3059   9.008   6.055   9.919  0.6034 -0.0665 -0.4200
  764MOL0     C 3060   9.002   6.058  10.059  0.1073 -0.6947  0.8448
  764MOL0     C 3061   8.952   5.947  10.132  0.3707 -0.0540  0.8029
  764MOL0     C 3062   8.890   5.837  10.064 -0.5080  0.0648  0.4965
  764MOL0     O 3063   8.815   5.750  10.143 -0.1845 -0.1687 -0.5290
  764MOL0     C 3064   8.759   5.630  10.094  0.5227  0.0035  0.2397
  764MOL0     C 3065   8.842   5.535  10.016  0.1403  0.3505  0.7375
  764MOL0     C 3066   8.967   5.482  10.089  0.8364  0.1805 -0.8327
  764MOL0     C 3067   8.934   5.404  10.223  0.1576  1.2018  0.6224
  764MOL0     C 3068   9.048   5.388  10.305  0.2063 -0.1781  0.3678
  764MOL0     C 3069   9.136   5.377  10.385  0.8952  0.1173  0.0397
  764MOL0     C 3070   8.884   5.845   9.922 -0.1139  0.0225 -1.4249
  764MOL0     C 3071   8.939   5.946   9.853 -1.0209 -0.2910  0.5253
  764MOL0     C 3072   8.949   5.937   9.698  0.6503  0.5268  0.4627
  764MOL0     H 3073   8.972   6.509   9.865  0.6788 -0.0423  1.6366
  764MOL0     H 3074   9.084   6.726   9.779  1.0990  0.6925  1.5062
  764MOL0     H 3075   9.200   6.880   9.741 -0.4695  0.4890  0.9082
  764MOL0     H 3076   9.341   6.958   9.821 -0.2464 -0.0355 -0.1681
  764MOL0     H 3077   9.319   6.914   9.518 -0.2237  0.8674  0.4396
  764MOL0     H 3078   9.469   6.895   9.584 -0.8391 -0.2944 -5.2112
  764MOL0     H 3079   9.299   7.143   9.659  0.8890 -1.8529  2.9892
  764MOL0     H 3080   9.391   7.125   9.502 -1.7340  0.6101 -1.0187
  764MOL0     H 3081   9.488   7.250   9.692 -0.0860 -0.1197 -1.7058
  764MOL0     H 3082   9.524   7.090   9.766 -1.8973 -1.1354 -0.0040
  764MOL0     H 3083   9.646   7.038   9.558 -0.1629 -0.2522  1.0386
  764MOL0     H 3084   9.625   7.190   9.487  4.6158 -0.7193 -0.6283
  764MOL0     H 3085   9.755   7.188   9.771  0.5872  0.2931  0.0321
  764MOL0     H 3086   9.854   7.164   9.631 -1.5868  0.0628 -0.5233
  764MOL0     H 3087   9.681   7.419   9.685 -0.5752 -1.7338  1.4835
  764MOL0     H 3088   9.735   7.397   9.533 -2.0247 -0.5174  0.2586
  764MOL0     H 3089   9.976   7.397   9.626  1.8411 -3.3721  3.3973
  764MOL0     H 3090   9.879   7.531   9.669 -1.3659 -1.4240 -1.7468
  764MOL0     H 3091   9.761   7.483   9.951  0.9649  1.2619 -2.8901
  764MOL0     H 3092   9.914   7.408  10.259 -1.0601 -2.7581  2.8524
  764MOL0     H 3093   9.750   7.366  10.220 -0.6962 -1.1973  0.8334
  764MOL0     H 3094   9.828   7.127  10.166 -0.3071  1.7966 -0.7113
  764MOL0     H 3095   9.984   7.179  10.235  0.4413  3.0267 -0.9222
  764MOL0     H 3096   9.807   7.062  10.384 -2.5041  0.2322 -0.7647
  764MOL0     H 3097   9.716   7.199  10.372  0.2114 -0.5521 -4.6419
  764MOL0     H 3098   9.946   7.322  10.477  1.9040 -0.2462  1.3066
  764MOL0     H 3099  10.010   7.165  10.479  0.9507  0.3861  0.9354
  764MOL0     H 3100   9.751   7.210  10.834  0.4409  0.2241 -0.3842
  764MOL0     H 3101   9.775   7.063  11.013 -1.0432  0.3635 -1.2159
  764MOL0     H 3102   9.978   6.561  11.134  0.3369  1.6776 -0.3753
  764MOL0     H 3103  10.038   6.466  11.320  0.4980  1.1793  0.3227
  764MOL0     H 3104  10.051   6.361  11.493  2.8696 -0.3386 -2.6469
  764MOL0     H 3105  10.195   6.465  11.498  0.7496 -2.7306 -0.7049
  764MOL0     H 3106  10.255   6.419  11.718 -0.3663 -2.3076  1.9508
  764MOL0     H 3107  10.102   6.466  11.771  0.2846  0.1618 -0.5054
  764MOL0     H 3108  10.008   6.245  11.697 -0.1568 -0.3418  0.1553
  764MOL0     H 3109  10.167   6.179  11.652 -1.4834  0.0452  0.4039
  764MOL0     H 3110  10.104   6.097  11.880  2.8706 -0.4489  3.4148
  764MOL0     H 3111  10.086   6.265  11.924 -2.2596  0.5187 -2.1758
  764MOL0     H 3112  10.340   6.273  11.885 -1.7966  1.4130  0.4618
  764MOL0     H 3113  10.328   6.120  11.804  3.5199  1.3735  0.9635
  764MOL0     H 3114  10.322   6.172  12.100  1.8261  0.7835 -0.5855
  764MOL0     H 3115  10.243   6.022  12.035  1.7376 -0.9312  0.8862
  764MOL0     H 3116  10.536   6.094  12.005  0.5417 -0.0938 -4.3721
  764MOL0     H 3117  10.463   5.971  11.907 -1.6953 -1.8033  1.6735
  764MOL0     H 3118  10.581   5.872  12.075  0.7434  2.3727 -3.9583
  764MOL0     H 3119  10.481   5.941  12.206 -0.9035 -2.3012 -0.3206
  764MOL0     H 3120   9.932   6.779  11.568 -0.8804  0.2925  0.2832
  764MOL0     H 3121   9.818   6.898  11.356  0.2707 -0.6777 -5.0520
  764MOL0     H 3122   9.912   6.758  10.734  1.3143  0.2387 -0.8331
  764MOL0     H 3123   9.929   6.928  10.560  3.7413  2.6272  1.0074
  764MOL0     H 3124   9.463   6.528   9.808  0.3642  3.0417  2.1579
  764MOL0     H 3125   9.344   6.309   9.865 -2.6965 -1.9709  0.2671
  764MOL0     H 3126   9.022   6.153  10.109  1.8239 -0.9806  0.7863
  764MOL0     H 3127   8.954   5.935  10.240  1.7324 -0.8841  0.7167
  764MOL0     H 3128   8.680   5.660  10.025  0.1369  0.2403  0.7746
  764MOL0     H 3129   8.710   5.574  10.174 -1.2777  1.5419  0.2950
  764MOL0     H 3130   8.871   5.577   9.919 -2.2491 -0.9648 -0.6484
  764MOL0     H 3131   8.764   5.463   9.990  0.8274  0.1632 -0.9667
  764MOL0     H 3132   9.028   5.571  10.108  1.6434 -0.0151 -2.3886
  764MOL0     H 3133   9.028   5.419  10.024  1.1999 -1.9443  1.4088
  764MOL0     H 3134   8.864   5.462  10.283 -1.0548  0.2349  0.1799
  764MOL0     H 3135   8.893   5.306  10.197  0.3941  1.5477 -1.2045
  764MOL0     H 3136   9.202   5.386  10.469 -0.2076  4.3008  0.7133
  764MOL0     H 3137   8.829   5.768   9.869 -1.0925  0.1740 -0.6494
  764MOL0     H 3138   8.924   6.029   9.645 -1.6334  1.0734  2.2986
  764MOL0     H 3139   9.048   5.906   9.665 -0.1767 -1.6349 -0.1343
  764MOL0     H 3140   8.886   5.856   9.660  2.8080  0.0929 -2.4923
  765MOL0     O 3141  11.339   0.993   3.808  0.2322  0.4998 -0.7124
  765MOL0     C 3142  11.373   1.099   3.858 -0.5200  0.6882 -0.1805
  765MOL0     O 3143  11.307   1.168   3.965 -0.0977  0.7125  0.2454
  765MOL0     C 3144  11.173   1.169   3.981  0.1903  0.6119  0.5472
  765MOL0     C 3145  11.106   1.047   4.001 -0.2495 -0.5726 -1.1276
  765MOL0     C 3146  10.967   1.034   4.003  0.1702 -0.6630 -0.0735
  765MOL0     C 3147  10.886   1.143   4.011  0.0520 -0.0222  0.1998
  765MOL0     O 3148  10.758   1.116   4.052  0.2729  0.0078  0.2776
  765MOL0     C 3149  10.659   1.218   4.038  0.0928 -0.4532  0.5780
  765MOL0     C 3150  10.563   1.207   4.157 -0.8316 -1.1082  1.1488
  765MOL0     C 3151  10.639   1.219   4.293 -0.1057 -0.0149  0.8739
  765MOL0     C 3152  10.547   1.273   4.397  0.1234  0.2398 -0.3023
  765MOL0     C 3153  10.595   1.276   4.544  0.2231 -0.7810  0.1862
  765MOL0     C 3154  10.513   1.367   4.634  0.7852 -0.0992  0.5387
  765MOL0     C 3155  10.586   1.405   4.762 -0.6287  1.2209 -0.4800
  765MOL0     C 3156  10.496   1.489   4.849 -0.0842 -0.1375  0.2381
  765MOL0     N 3157  10.506   1.466   4.997  0.1883  0.4872  0.2252
  765MOL0     C 3158  10.623   1.441   5.060 -0.5504  0.4324  0.0360
  765MOL0     C 3159  10.591   1.411   5.189  0.8974 -0.3454  0.9082
  765MOL0     C 3160  10.684   1.400   5.299  0.5353  0.4018 -0.1188
  765MOL0     C 3161  10.784   1.293   5.263 -0.6878  0.0964 -0.1493
  765MOL0     C 3162  10.876   1.267   5.375  0.2955  0.0872  0.0269
  765MOL0     C 3163  10.933   1.392   5.450  0.0417 -0.6874  0.2572
  765MOL0     O 3164  11.048   1.341   5.520 -0.1362  0.5662  0.5553
  765MOL0     C 3165  11.130   1.425   5.591  0.0905  0.1849 -0.2120
  765MOL0     C 3166  11.269   1.420   5.596 -0.0670  0.1379 -0.5807
  765MOL0     C 3167  11.350   1.512   5.663  0.2063  0.2576  0.2842
  765MOL0     C 3168  11.300   1.614   5.737 -0.6852  0.1991  0.1816
  765MOL0     C 3169  11.386   1.715   5.798  0.3757  0.0235 -1.1839
  765MOL0     O 3170  11.322   1.813   5.869 -0.1911  0.3386 -1.0962
  765MOL0     C 3171  11.371   1.931   5.918  0.2966 -0.3536 -0.6241
  765MOL0     C 3172  11.498   1.973   5.896 -0.3163 -0.2766  0.7415
  765MOL0     C 3173  11.545   2.086   5.969  0.4412 -0.5316 -0.3807
  765MOL0     C 3174  11.473   2.158   6.070 -0.8931  0.4636 -0.1603
  765MOL0     O 3175  11.543   2.252   6.137 -0.4987 -0.0160 -0.1158
  765MOL0     C 3176  11.504   2.273   6.272 -0.2154 -0.2508  0.0106
  765MOL0     C 3177  11.431   2.402   6.303 -0.0966  0.3254 -0.7305
  765MOL0     C 3178  11.351   2.396   6.439  0.2706 -0.0034  0.4432
  765MOL0     C 3179  11.200   2.335   6.411  0.6003 -0.2865  0.3693
  765MOL0     C 3180  11.182   2.180   6.437 -0.7677  0.2776 -0.4059
  765MOL0     C 3181  11.041   2.135   6.414  0.5682  0.1370 -0.0614
  765MOL0     C 3182  11.003   2.117   6.262 -0.3739 -0.1437  0.1507
  765MOL0     C 3183  10.858   2.111   6.238  0.9446  0.3864 -0.3062
  765MOL0    Cl 3184  10.749   2.246   6.312 -0.0940 -0.0772 -0.0000
  765MOL0     C 3185  11.340   2.120   6.071  0.0562 -0.1214 -0.3158
  765MOL0     C 3186  11.288   2.005   6.006 -0.1925  0.2867  0.4497
  765MOL0     O 3187  11.505   1.709   5.774 -0.1219 -0.6625 -0.1519
  765MOL0     C 3188  11.156   1.620   5.743 -0.1727  0.3181 -0.0510
  765MOL0     C 3189  11.077   1.529   5.669  0.4230 -0.2914  0.1702
  765MOL0     N 3190  10.451   1.415   5.194 -0.1268  0.1341 -0.9291
  765MOL0     N 3191  10.403   1.456   5.084 -0.0743  0.0331  0.2925
  765MOL0     C 3192  10.958   1.269   4.009 -0.1115  0.0312  0.1712
  765MOL0     C 3193  11.100   1.288   3.996 -0.1700  1.5782  0.5612
  765MOL0     C 3194  11.502   1.141   3.803 -0.5513  1.0939  0.2473
  765MOL0     C 3195  11.594   1.043   3.754  0.4257  0.2986  0.3187
  765MOL0     C 3196  11.717   1.084   3.704 -0.1324 -0.3196 -0.4536
  765MOL0     C 3197  11.752   1.216   3.712 -0.1697 -0.7123 -0.1205
  765MOL0     O 3198  11.878   1.264   3.679  0.8200  0.2429  0.1532
  765MOL0     C 3199  11.942   1.197   3.563  0.2853 -0.8833 -0.0904
  765MOL0     C 3200  11.860   1.231   3.428  0.1303 -0.7675  0.6540
  765MOL0     C 3201  11.939   1.190   3.297  0.8347  0.5546  0.3451
  765MOL0     C 3202  11.966   1.040   3.285  0.5683  0.0269  0.0260
  765MOL0     C 3203  11.966   0.997   3.146  0.2643 -0.1668  0.1605
  765MOL0     C 3204  11.964   0.961   3.029  0.5441  0.0312  0.5286
  765MOL0     C 3205  11.664   1.316   3.765 -0.1328  0.4728  0.1325
  765MOL0     C 3206  11.534   1.278   3.803  0.3017 -1.2187 -0.0958
  765MOL0     C 3207  11.430   1.390   3.816 -0.0873 -0.8982  0.0919
  765MOL0     H 3208  11.172   0.961   4.001  2.2497  1.2192 -2.6618
  765MOL0     H 3209  10.930   0.932   4.012 -1.6667  0.0306  0.6063
  765MOL0     H 3210  10.698   1.316   4.011  2.1491 -1.9202 -2.2428
  765MOL0     H 3211  10.597   1.186   3.954 -1.3879  0.0800  1.4198
  765MOL0     H 3212  10.504   1.116   4.144 -1.1109 -0.8490  0.5907
  765MOL0     H 3213  10.505   1.299   4.148  1.3720  0.1664 -1.3373
  765MOL0     H 3214  10.717   1.294   4.276 -0.8284  0.2383 -1.7272
  765MOL0     H 3215  10.679   1.121   4.320 -4.2969 -1.6127  2.2047
  765MOL0     H 3216  10.513   1.374   4.376 -1.1712  0.1107  1.0312
  765MOL0     H 3217  10.457   1.211   4.406 -1.2680  2.4613  3.6824
  765MOL0     H 3218  10.570   1.176   4.580  1.9316 -0.5670  2.1770
  765MOL0     H 3219  10.703   1.294   4.547 -0.3871  3.9116  1.2702
  765MOL0     H 3220  10.484   1.458   4.581  1.4592  2.6880  4.5144
  765MOL0     H 3221  10.418   1.321   4.663 -2.4894  5.0233 -0.7314
  765MOL0     H 3222  10.676   1.463   4.738 -0.3584 -0.0786 -2.8806
  765MOL0     H 3223  10.619   1.318   4.820 -3.5394  1.0045  1.0542
  765MOL0     H 3224  10.508   1.594   4.818  2.3688 -0.4789 -0.1678
  765MOL0     H 3225  10.398   1.447   4.824  1.2686 -1.6201 -3.2003
  765MOL0     H 3226  10.720   1.445   5.013  1.0500  1.5756  3.1605
  765MOL0     H 3227  10.735   1.496   5.309 -2.1992  1.7468  2.7371
  765MOL0     H 3228  10.637   1.387   5.397 -0.3856  1.1715 -0.4469
  765MOL0     H 3229  10.739   1.197   5.236 -2.6206  0.6008  1.0789
  765MOL0     H 3230  10.832   1.315   5.167 -1.3584  0.9604 -0.3016
  765MOL0     H 3231  10.966   1.214   5.341  0.8506  1.1081 -0.1519
  765MOL0     H 3232  10.836   1.199   5.450  1.0596  1.6955  1.9806
  765MOL0     H 3233  10.864   1.431   5.525  2.8534 -4.0161  5.2003
  765MOL0     H 3234  10.971   1.464   5.378 -0.6822 -0.1402  0.4088
  765MOL0     H 3235  11.322   1.350   5.533  2.1300  1.3284 -0.1448
  765MOL0     H 3236  11.456   1.502   5.645  0.6454 -0.5845  2.9242
  765MOL0     H 3237  11.571   1.916   5.838 -0.1660  0.9007 -0.2608
  765MOL0     H 3238  11.648   2.117   5.953  1.1076 -1.8739  1.0626
  765MOL0     H 3239  11.438   2.195   6.311 -1.9870 -0.3485 -2.8346
  765MOL0     H 3240  11.597   2.265   6.329 -0.6690 -1.9684  0.5550
  765MOL0     H 3241  11.517   2.469   6.313  0.9541 -0.9007 -1.3186
  765MOL0     H 3242  11.368   2.444   6.224 -1.1572  0.2128  0.0433
  765MOL0     H 3243  11.397   2.334   6.517  1.7592 -1.2229 -1.3302
  765MOL0     H 3244  11.347   2.492   6.492 -0.7199  0.8014 -1.0085
  765MOL0     H 3245  11.166   2.363   6.311  0.9945  0.3644  0.4103
  765MOL0     H 3246  11.137   2.385   6.485 -2.2012 -0.3046 -1.8298
  765MOL0     H 3247  11.199   2.160   6.543 -1.1577  0.0772 -0.3793
  765MOL0     H 3248  11.245   2.111   6.381  0.4661  0.5083  0.6454
  765MOL0     H 3249  11.036   2.037   6.463  1.1675  1.3764  2.6737
  765MOL0     H 3250  10.972   2.204   6.463  0.7715 -0.6905  1.4169
  765MOL0     H 3251  11.061   2.040   6.211  0.6183  2.7370 -3.4466
  765MOL0     H 3252  11.030   2.212   6.215  1.2799 -1.1883 -1.0791
  765MOL0     H 3253  10.841   2.102   6.130  0.5495  1.7080 -0.3689
  765MOL0     H 3254  10.826   2.018   6.286 -0.1848  1.2289  0.6256
  765MOL0     H 3255  11.289   2.181   6.145  4.1310  2.8821  0.3453
  765MOL0     H 3256  11.194   1.951   6.016 -0.1616 -0.4955 -2.7041
  765MOL0     H 3257  11.102   1.691   5.804 -0.5528  0.9442 -1.0822
  765MOL0     H 3258  10.972   1.534   5.693  0.4365  0.1710  0.1296
  765MOL0     H 3259  10.914   1.364   4.035  0.3954  0.0487  0.9996
  765MOL0     H 3260  11.150   1.382   3.976  0.5469  1.0560 -0.1618
  765MOL0     H 3261  11.559   0.941   3.737 -1.1972  0.8707  0.0719
  765MOL0     H 3262  11.780   1.007   3.662 -0.6216 -0.5066 -0.8618
  765MOL0     H 3263  11.935   1.089   3.576  1.6477 -0.8984  0.6765
  765MOL0     H 3264  12.044   1.234   3.551 -0.6483  1.8694 -0.3272
  765MOL0     H 3265  11.843   1.338   3.412  0.0524 -1.0703 -1.6648
  765MOL0     H 3266  11.758   1.193   3.427 -1.3571  2.8185  0.2607
  765MOL0     H 3267  12.034   1.242   3.307  1.4353 -0.4455 -0.0005
  765MOL0     H 3268  11.887   1.223   3.207  2.1322  3.2233  0.4673
  765MOL0     H 3269  12.053   1.004   3.340 -1.0566 -1.8952  1.5038
  765MOL0     H 3270  11.874   0.997   3.326  0.3491  1.9969  1.7372
  765MOL0     H 3271  11.967   0.915   2.932  2.8700  2.2127 -0.5382
  765MOL0     H 3272  11.698   1.419   3.758  1.2505 -0.0514 -1.5606
  765MOL0     H 3273  11.325   1.365   3.795 -0.3751  0.2374  0.1288
  765MOL0     H 3274  11.431   1.417   3.922 -0.9819 -0.0671 -0.0988
  765MOL0     H 3275  11.463   1.479   3.761 -1.8798  0.4156  1.0286
  766MOL0     O 3276   9.799   7.490   7.777 -1.0093  0.1189 -0.2682
  766MOL0     C 3277   9.766   7.402   7.695  0.9534 -0.9626 -0.0544
  766MOL0     O 3278   9.690   7.293   7.731  0.3804 -0.4513  0.2456
  766MOL0     C 3279   9.598   7.313   7.828 -0.7099 -0.5499 -1.1058
  766MOL0     C 3280   9.592   7.218   7.927  0.7942  0.3808  0.0280
  766MOL0     C 3281   9.482   7.216   8.012 -0.1705  0.2130  0.5665
  766MOL0     C 3282   9.386   7.314   8.003  0.1441 -1.1507 -0.2189
  766MOL0     O 3283   9.305   7.317   8.108  0.1270  0.7274  0.0731
  766MOL0     C 3284   9.177   7.392   8.117 -0.7494 -0.1306  0.7490
  766MOL0     C 3285   9.075   7.309   8.193 -0.2292 -0.5600 -0.4296
  766MOL0     C 3286   8.937   7.330   8.156 -1.4659 -0.2205 -0.4409
  766MOL0     C 3287   8.860   7.239   8.249 -0.0350 -0.0973 -0.0292
  766MOL0     C 3288   8.713   7.261   8.229  0.4337 -0.5284 -0.1642
  766MOL0     C 3289   8.615   7.197   8.326  0.2107  0.0477 -0.7200
  766MOL0     C 3290   8.478   7.263   8.305  0.0502 -0.5387  0.2250
  766MOL0     C 3291   8.386   7.178   8.401 -0.4400  0.4637  0.6879
  766MOL0     N 3292   8.361   7.267   8.510 -0.5107  0.9424  0.2812
  766MOL0     C 3293   8.442   7.282   8.616  0.5332 -0.2343 -1.0940
  766MOL0     C 3294   8.383   7.373   8.692 -0.7833 -0.7413  0.1057
  766MOL0     C 3295   8.437   7.426   8.813  0.0498  0.1373 -0.2611
  766MOL0     C 3296   8.413   7.331   8.930 -0.1386 -0.7175  0.3620
  766MOL0     C 3297   8.278   7.261   8.942 -0.1136  0.4161 -0.0634
  766MOL0     C 3298   8.272   7.168   9.066 -0.3665  0.3588  0.3589
  766MOL0     O 3299   8.304   7.242   9.189 -0.3678 -0.5793  0.3232
  766MOL0     C 3300   8.272   7.192   9.306 -0.2629 -0.9548 -0.0716
  766MOL0     C 3301   8.261   7.283   9.413 -0.4987 -0.3874 -0.3628
  766MOL0     C 3302   8.247   7.229   9.537  0.9146  0.0542 -0.1655
  766MOL0     C 3303   8.244   7.097   9.568  0.4273  0.1392  0.1964
  766MOL0     C 3304   8.243   7.051   9.709 -0.2789  0.1485  0.6625
  766MOL0     O 3305   8.281   6.922   9.729  0.0060  0.1409 -0.6931
  766MOL0     C 3306   8.339   6.874   9.839 -0.0773  0.4318 -0.5440
  766MOL0     C 3307   8.370   6.738   9.847 -0.7774 -0.2766  0.5092
  766MOL0     C 3308   8.421   6.677   9.958 -0.9890 -0.2680 -0.5548
  766MOL0     C 3309   8.444   6.744  10.082 -0.5864 -0.5788 -0.9109
  766MOL0     O 3310   8.473   6.675  10.201  0.3096  0.3957 -0.2456
  766MOL0     C 3311   8.382   6.691  10.312  0.2587  0.9682  0.0024
  766MOL0     C 3312   8.430   6.586  10.429 -0.1451 -0.3940  0.5757
  766MOL0     C 3313   8.352   6.594  10.560  0.5494 -0.3219 -0.2400
  766MOL0     C 3314   8.430   6.538  10.681  0.0326 -0.0452  0.2023
  766MOL0     C 3315   8.345   6.529  10.803  0.5513  0.4756 -0.0275
  766MOL0     C 3316   8.411   6.469  10.926 -0.3810 -0.9388  0.0821
  766MOL0     C 3317   8.311   6.471  11.044 -0.1358 -0.9514  0.4536
  766MOL0     C 3318   8.373   6.448  11.178  1.4310  0.7030  0.6606
  766MOL0    Cl 3319   8.457   6.297  11.217  0.2990  0.1032  0.2231
  766MOL0     C 3320   8.420   6.885  10.082 -0.1540 -0.2808  0.1448
  766MOL0     C 3321   8.372   6.944   9.962  0.1718 -0.7275  0.3520
  766MOL0     O 3322   8.199   7.121   9.802  0.5029  1.0441  0.2028
  766MOL0     C 3323   8.259   7.004   9.457 -0.4736 -0.1492 -0.0359
  766MOL0     C 3324   8.269   7.055   9.330  0.2259 -0.7895  0.3438
  766MOL0     N 3325   8.282   7.421   8.619  0.3431  0.5548  0.2628
  766MOL0     N 3326   8.267   7.360   8.505  0.2751 -0.0271 -0.3720
  766MOL0     C 3327   9.398   7.416   7.911  0.8766 -0.3648 -0.3418
  766MOL0     C 3328   9.502   7.408   7.817 -0.4528  0.5501 -0.2460
  766MOL0     C 3329   9.805   7.420   7.543  0.0885  0.8152  0.4662
  766MOL0     C 3330   9.719   7.362   7.448 -0.2713 -0.3964 -0.2060
  766MOL0     C 3331   9.742   7.367   7.312  0.2772 -0.0820 -0.0114
  766MOL0     C 3332   9.835   7.445   7.250  0.5243 -0.5747  0.4661
  766MOL0     O 3333   9.850   7.448   7.109 -0.0164  0.4970 -0.3114
  766MOL0     C 3334   9.976   7.475   7.068  1.3930 -0.5274 -0.6489
  766MOL0     C 3335   9.988   7.413   6.929  0.3764  0.6010 -0.3858
  766MOL0     C 3336  10.018   7.258   6.942  0.3938 -0.8284  0.1435
  766MOL0     C 3337   9.902   7.159   6.975  0.3858  0.8346  0.1140
  766MOL0     C 3338   9.969   7.032   6.953  0.3599 -0.9401  0.2805
  766MOL0     C 3339  10.028   6.927   6.913  0.6268  0.2366  0.4645
  766MOL0     C 3340   9.912   7.524   7.344 -0.3493  0.7879 -0.3587
  766MOL0     C 3341   9.899   7.513   7.492  0.3358  0.4292 -0.0202
  766MOL0     C 3342   9.969   7.603   7.589 -0.0513 -0.6916 -0.6205
  766MOL0     H 3343   9.655   7.130   7.928 -1.5374 -1.6468 -3.7801
  766MOL0     H 3344   9.478   7.149   8.098 -0.4144  1.3320  1.4515
  766MOL0     H 3345   9.175   7.491   8.163  0.2054  0.1941  0.1240
  766MOL0     H 3346   9.150   7.391   8.011 -0.6362 -0.8613  0.7262
  766MOL0     H 3347   9.092   7.354   8.291  1.9646  0.8157 -1.3637
  766MOL0     H 3348   9.094   7.201   8.185 -1.0437 -0.7943  0.5517
  766MOL0     H 3349   8.914   7.296   8.055 -0.1178 -1.0248 -0.5067
  766MOL0     H 3350   8.907   7.434   8.173  4.7716  1.9284 -0.0001
  766MOL0     H 3351   8.880   7.133   8.230  0.3568 -0.3827  1.7936
  766MOL0     H 3352   8.893   7.253   8.352  0.9363 -2.0057 -0.0349
  766MOL0     H 3353   8.696   7.368   8.238  3.1181 -0.0814  0.4437
  766MOL0     H 3354   8.687   7.225   8.129  1.5093 -2.3668  0.1567
  766MOL0     H 3355   8.603   7.091   8.301  0.2612  0.0106 -0.5869
  766MOL0     H 3356   8.655   7.213   8.427 -0.9111 -0.1785 -0.2256
  766MOL0     H 3357   8.446   7.258   8.200 -1.4576  2.9690  0.3705
  766MOL0     H 3358   8.481   7.366   8.339  1.8893 -0.7051  0.6393
  766MOL0     H 3359   8.287   7.158   8.358  0.3426  0.2864 -1.1124
  766MOL0     H 3360   8.417   7.080   8.439 -3.3607 -1.9912 -2.6134
  766MOL0     H 3361   8.531   7.225   8.638  0.8195 -0.2509 -2.2290
  766MOL0     H 3362   8.544   7.447   8.799 -0.4110  3.0295 -0.2033
  766MOL0     H 3363   8.395   7.525   8.836  3.3122  1.6066 -0.0285
  766MOL0     H 3364   8.494   7.258   8.921  2.6026  1.8828  1.6078
  766MOL0     H 3365   8.431   7.386   9.023 -2.2941  1.2015 -0.2611
  766MOL0     H 3366   8.253   7.207   8.850 -0.2939 -0.9625  0.7774
  766MOL0     H 3367   8.192   7.329   8.942 -1.2405 -0.9836  0.3870
  766MOL0     H 3368   8.339   7.082   9.052 -0.6748  0.2259 -0.3194
  766MOL0     H 3369   8.173   7.122   9.068  1.1950 -3.5253  2.9809
  766MOL0     H 3370   8.268   7.390   9.396  0.1678  0.1296  2.6555
  766MOL0     H 3371   8.242   7.292   9.626  1.9854 -0.6903  0.4404
  766MOL0     H 3372   8.358   6.676   9.759 -1.2534  1.7211 -0.9066
  766MOL0     H 3373   8.439   6.570   9.955 -2.8749 -0.6608  0.3429
  766MOL0     H 3374   8.398   6.786  10.364  2.2005 -0.3227  1.9352
  766MOL0     H 3375   8.279   6.678  10.278 -0.0256  1.7219  0.5378
  766MOL0     H 3376   8.422   6.485  10.387  0.8181  0.6420 -2.3606
  766MOL0     H 3377   8.536   6.611  10.441 -0.8532  2.6371  1.2670
  766MOL0     H 3378   8.347   6.702  10.579  0.8858 -0.2748 -0.4188
  766MOL0     H 3379   8.249   6.558  10.553  1.0968 -2.3621  1.3564
  766MOL0     H 3380   8.527   6.585  10.700 -1.1311  1.7858  2.0791
  766MOL0     H 3381   8.453   6.435  10.653  1.6134  0.9509 -2.5201
  766MOL0     H 3382   8.261   6.466  10.770  1.6591  0.4087 -2.9943
  766MOL0     H 3383   8.314   6.632  10.828 -0.5972 -0.0782  0.9563
  766MOL0     H 3384   8.435   6.364  10.908 -1.4606 -1.4625  1.5173
  766MOL0     H 3385   8.505   6.514  10.960 -0.3331 -1.4855  0.6949
  766MOL0     H 3386   8.237   6.390  11.040  0.2139 -1.2435 -0.1205
  766MOL0     H 3387   8.267   6.571  11.054 -1.7501 -1.6584  0.8881
  766MOL0     H 3388   8.448   6.527  11.184  1.2633  0.7802  2.1212
  766MOL0     H 3389   8.314   6.456  11.270  1.8438  0.7359  0.9253
  766MOL0     H 3390   8.441   6.949  10.168 -1.8031  0.3582  0.1003
  766MOL0     H 3391   8.347   7.050   9.965  1.2250 -0.3095 -2.6575
  766MOL0     H 3392   8.276   6.899   9.478 -3.1127 -0.9507 -1.4460
  766MOL0     H 3393   8.310   6.991   9.253 -1.4641 -1.3926 -0.0762
  766MOL0     H 3394   9.312   7.482   7.909  0.1271 -1.3202 -0.3578
  766MOL0     H 3395   9.497   7.470   7.728  3.7507  1.5890  0.0467
  766MOL0     H 3396   9.638   7.295   7.475 -0.9562 -0.5523 -2.4400
  766MOL0     H 3397   9.688   7.293   7.255  2.1298 -1.1909 -0.4049
  766MOL0     H 3398  10.055   7.446   7.137 -0.8647 -2.1244  1.4194
  766MOL0     H 3399   9.988   7.583   7.049 -2.0565  0.3531  1.3284
  766MOL0     H 3400  10.078   7.451   6.878 -1.2755  0.3914 -3.6925
  766MOL0     H 3401   9.907   7.425   6.857  0.3955  3.0348 -0.0800
  766MOL0     H 3402  10.100   7.254   7.014 -0.5437 -1.2499  1.2336
  766MOL0     H 3403  10.054   7.226   6.844 -1.1984 -0.0862 -0.7375
  766MOL0     H 3404   9.867   7.160   7.078 -2.0746 -2.2517 -0.5263
  766MOL0     H 3405   9.809   7.173   6.920 -2.4673 -1.3385  3.8655
  766MOL0     H 3406  10.075   6.840   6.871  1.1956  1.3491 -1.2943
  766MOL0     H 3407   9.978   7.601   7.307 -3.1189  2.7939 -1.5266
  766MOL0     H 3408  10.026   7.550   7.666  0.7416  2.6899  1.3166
  766MOL0     H 3409  10.045   7.664   7.539 -1.6694  0.8089 -1.3428
  766MOL0     H 3410   9.897   7.671   7.635 -1.5460 -1.8754 -1.1073
  767MOL0     O 3411   4.586   7.319   1.882  1.0711  0.1663  0.1955
  767MOL0     C 3412   4.528   7.386   1.793 -0.2087 -0.1829 -0.3788
  767MOL0     O 3413   4.411   7.350   1.728  0.3009  0.2675 -0.1740
  767MOL0     C 3414   4.366   7.219   1.724 -0.2421 -0.0926 -0.0751
  767MOL0     C 3415   4.224   7.204   1.716 -0.6079 -0.3842  0.1554
  767MOL0     C 3416   4.167   7.081   1.712  0.1179 -0.3811  0.6904
  767MOL0     C 3417   4.232   6.967   1.727  0.3308  1.3079  0.1711
  767MOL0     O 3418   4.156   6.852   1.731 -0.7500  0.8848 -0.2054
  767MOL0     C 3419   4.194   6.745   1.820 -0.1039  0.6781  0.1789
  767MOL0     C 3420   4.083   6.650   1.880  0.9197  0.9132 -0.4788
  767MOL0     C 3421   4.154   6.553   1.972 -0.2140  0.5058  0.1718
  767MOL0     C 3422   4.048   6.458   2.030 -0.0831 -0.5055  1.4143
  767MOL0     C 3423   4.106   6.316   2.083 -0.1908 -0.2205  0.1770
  767MOL0     C 3424   4.211   6.345   2.191  0.1451  0.7641 -0.6670
  767MOL0     C 3425   4.222   6.252   2.309 -0.1285  0.0672 -0.0277
  767MOL0     C 3426   4.283   6.114   2.279  0.2040  0.5415  0.5352
  767MOL0     N 3427   4.186   6.005   2.239  0.3954  0.0220  0.3240
  767MOL0     C 3428   4.094   5.958   2.315 -0.0694 -0.7995  0.2279
  767MOL0     C 3429   4.013   5.894   2.231  0.2259  0.4422  0.2474
  767MOL0     C 3430   3.903   5.832   2.299  1.1796  0.0959  0.0739
  767MOL0     C 3431   3.772   5.874   2.228 -0.4610  0.7401  0.0958
  767MOL0     C 3432   3.648   5.800   2.265  0.3241  0.4019 -0.5376
  767MOL0     C 3433   3.580   5.878   2.370 -0.4943  0.1373  1.1715
  767MOL0     O 3434   3.465   5.799   2.424 -1.0473 -0.2980  0.1337
  767MOL0     C 3435   3.351   5.868   2.438 -1.1432 -0.2472  0.2495
  767MOL0     C 3436   3.359   5.982   2.522 -0.0184 -0.3224 -0.0765
  767MOL0     C 3437   3.242   6.058   2.531  0.1709 -0.3306  0.7826
  767MOL0     C 3438   3.119   6.031   2.463 -0.3205  1.6348 -0.2537
  767MOL0     C 3439   3.010   6.125   2.474 -0.5497  0.2653  0.2972
  767MOL0     O 3440   2.884   6.082   2.461  1.0100 -0.3662  0.1740
  767MOL0     C 3441   2.784   6.179   2.484 -0.0249  0.6701  0.0444
  767MOL0     C 3442   2.677   6.136   2.573 -1.7852 -0.8874 -1.3901
  767MOL0     C 3443   2.567   6.218   2.605  0.0726  0.3920  0.1140
  767MOL0     C 3444   2.553   6.335   2.523  0.2759  0.2107  0.0613
  767MOL0     O 3445   2.451   6.433   2.528  0.8886  0.6129  0.2120
  767MOL0     C 3446   2.340   6.424   2.618  0.6323 -0.1024 -0.2430
  767MOL0     C 3447   2.231   6.515   2.587  0.5689  0.6940  0.3392
  767MOL0     C 3448   2.120   6.518   2.688  0.2146  0.1029  0.1903
  767MOL0     C 3449   2.008   6.610   2.655  0.3660 -0.2215  0.5671
  767MOL0     C 3450   1.947   6.567   2.517 -0.7488 -0.9173 -0.4425
  767MOL0     C 3451   1.821   6.652   2.482 -0.3640 -1.8069 -0.0723
  767MOL0     C 3452   1.831   6.812   2.512  0.9394 -0.0174  1.3886
  767MOL0     C 3453   1.691   6.866   2.472  0.0486 -0.9946  0.2646
  767MOL0    Cl 3454   1.683   7.045   2.505  0.1674  0.4459  0.0087
  767MOL0     C 3455   2.657   6.379   2.452 -0.2670 -0.2022  0.1570
  767MOL0     C 3456   2.776   6.303   2.430 -0.2060 -0.4785 -0.4079
  767MOL0     O 3457   3.042   6.241   2.493  0.3965 -0.2052  0.5882
  767MOL0     C 3458   3.114   5.918   2.381 -0.6514 -0.2234  0.0456
  767MOL0     C 3459   3.230   5.838   2.376  0.3267  0.2581  1.2153
  767MOL0     N 3460   4.056   5.892   2.101 -0.6656 -0.4712 -0.2913
  767MOL0     N 3461   4.168   5.965   2.106  0.0752 -0.4547 -0.3954
  767MOL0     C 3462   4.379   6.978   1.739 -0.0785 -0.3310 -0.2241
  767MOL0     C 3463   4.445   7.103   1.734  0.1238  0.4591 -0.1058
  767MOL0     C 3464   4.584   7.518   1.750  0.7432 -0.1662  0.4705
  767MOL0     C 3465   4.723   7.537   1.746 -0.3606  0.3483  0.3695
  767MOL0     C 3466   4.778   7.652   1.695 -1.4461 -0.6789 -0.1281
  767MOL0     C 3467   4.704   7.761   1.651  0.7424  0.5017  0.4136
  767MOL0     O 3468   4.769   7.865   1.592 -0.4197 -0.4977 -0.2516
  767MOL0     C 3469   4.717   7.997   1.579 -0.3991  0.0715 -0.6899
  767MOL0     C 3470   4.779   8.079   1.688  1.0022 -0.0143 -0.0475
  767MOL0     C 3471   4.768   8.230   1.687  0.5649 -0.0080  0.3085
  767MOL0     C 3472   4.621   8.282   1.667  0.1091  0.3416  0.6411
  767MOL0     C 3473   4.525   8.202   1.740 -0.3594  0.2555  0.1242
  767MOL0     C 3474   4.460   8.124   1.808 -0.2541  0.0778  0.0983
  767MOL0     C 3475   4.565   7.748   1.656  0.0552  0.2457  0.1020
  767MOL0     C 3476   4.501   7.632   1.708  0.5657 -0.5945  0.2916
  767MOL0     C 3477   4.346   7.632   1.710 -0.1297  1.0636  0.9436
  767MOL0     H 3478   4.157   7.290   1.712 -0.0341  0.0833  0.4293
  767MOL0     H 3479   4.060   7.083   1.699  0.0799 -4.4063 -1.0122
  767MOL0     H 3480   4.262   6.671   1.775  0.7069 -1.7142  4.7298
  767MOL0     H 3481   4.247   6.781   1.909  2.6080  0.8050 -1.3607
  767MOL0     H 3482   4.034   6.600   1.796  1.0624 -0.9800  0.5211
  767MOL0     H 3483   4.006   6.708   1.933  0.1908 -1.2660  0.9891
  767MOL0     H 3484   4.211   6.606   2.049 -1.4696  4.6743 -1.4987
  767MOL0     H 3485   4.224   6.494   1.913 -2.2220  1.9550 -4.1027
  767MOL0     H 3486   3.980   6.509   2.099 -2.1608  0.4937 -1.1986
  767MOL0     H 3487   3.977   6.435   1.950  1.8596 -2.4677  0.1622
  767MOL0     H 3488   4.023   6.262   2.128  0.9387 -3.4495 -1.2817
  767MOL0     H 3489   4.144   6.255   2.000 -0.9835 -4.2842  2.5288
  767MOL0     H 3490   4.311   6.345   2.147  1.0265 -7.0219  0.0286
  767MOL0     H 3491   4.187   6.443   2.233 -2.3493 -0.9785  2.3991
  767MOL0     H 3492   4.125   6.237   2.357  0.7347 -2.1155  1.1527
  767MOL0     H 3493   4.292   6.299   2.378  1.0319 -0.6428 -0.6798
  767MOL0     H 3494   4.356   6.130   2.198  1.8472  1.1255  2.0629
  767MOL0     H 3495   4.327   6.067   2.368  0.8503  0.1642  0.0296
  767MOL0     H 3496   4.075   5.970   2.422  2.2872 -0.6452  0.6673
  767MOL0     H 3497   3.928   5.726   2.292 -1.1758 -0.5238  0.2330
  767MOL0     H 3498   3.895   5.862   2.404 -3.1378 -0.6271  0.1538
  767MOL0     H 3499   3.751   5.981   2.238  0.9017  1.1594 -1.1103
  767MOL0     H 3500   3.794   5.854   2.123  0.4726 -2.5874  0.8066
  767MOL0     H 3501   3.677   5.701   2.301  0.6194 -0.3966 -2.8253
  767MOL0     H 3502   3.571   5.790   2.188 -1.4053 -0.1383  1.1933
  767MOL0     H 3503   3.539   5.963   2.314 -1.3453 -1.1629 -0.2541
  767MOL0     H 3504   3.651   5.919   2.443  2.0269 -2.5070  0.4199
  767MOL0     H 3505   3.447   6.020   2.574 -0.2884 -0.7015  0.6808
  767MOL0     H 3506   3.238   6.150   2.587 -0.4731 -0.3890  0.8368
  767MOL0     H 3507   2.669   6.031   2.602  3.2547 -0.3214  3.7742
  767MOL0     H 3508   2.490   6.179   2.671  0.5233  2.5185  2.0390
  767MOL0     H 3509   2.299   6.323   2.630  0.0937  0.1029 -0.2951
  767MOL0     H 3510   2.389   6.450   2.712  3.2349 -2.8359 -0.6939
  767MOL0     H 3511   2.251   6.615   2.547 -3.9260  0.5546 -3.1246
  767MOL0     H 3512   2.192   6.472   2.494  0.2332  2.2387 -0.2798
  767MOL0     H 3513   2.072   6.420   2.699  1.7597 -0.6883  0.0830
  767MOL0     H 3514   2.160   6.538   2.788  3.6969  0.5641 -1.1460
  767MOL0     H 3515   2.039   6.714   2.667  0.3075 -0.2126  0.6496
  767MOL0     H 3516   1.937   6.615   2.738 -0.4338 -1.1316 -0.0428
  767MOL0     H 3517   1.926   6.461   2.498 -0.3517 -0.8590 -1.2726
  767MOL0     H 3518   2.024   6.598   2.445 -1.2313 -2.1905 -1.5603
  767MOL0     H 3519   1.807   6.646   2.374 -1.7704  1.3599 -0.1701
  767MOL0     H 3520   1.737   6.607   2.536 -1.3762  0.6873  0.5821
  767MOL0     H 3521   1.905   6.862   2.449  2.9886 -1.4699  2.5018
  767MOL0     H 3522   1.861   6.841   2.613  2.5743 -0.6501  1.1107
  767MOL0     H 3523   1.678   6.852   2.364  0.6427  0.1742  0.0242
  767MOL0     H 3524   1.607   6.807   2.510 -1.8357  1.4202  0.1495
  767MOL0     H 3525   2.655   6.476   2.403  1.1509  0.4304  1.2629
  767MOL0     H 3526   2.859   6.358   2.388  1.5453 -0.5399  2.6478
  767MOL0     H 3527   3.023   5.892   2.329  1.2382  0.6166 -4.0931
  767MOL0     H 3528   3.234   5.743   2.324 -1.0937  1.9561 -2.3617
  767MOL0     H 3529   4.426   6.880   1.740 -0.4868 -0.5400 -0.7108
  767MOL0     H 3530   4.553   7.108   1.731  0.1558  2.4106  1.5815
  767MOL0     H 3531   4.785   7.453   1.773  0.7666  1.1731  0.4150
  767MOL0     H 3532   4.885   7.660   1.680 -1.1886  1.3055  2.1259
  767MOL0     H 3533   4.610   7.999   1.560 -0.5949 -1.1198  0.2333
  767MOL0     H 3534   4.767   8.038   1.490  0.2540  0.4798 -0.1511
  767MOL0     H 3535   4.884   8.048   1.695  0.0209 -4.1444 -0.8214
  767MOL0     H 3536   4.737   8.042   1.782  0.5955  1.7368  0.4930
  767MOL0     H 3537   4.835   8.261   1.607  0.2112 -0.1833 -0.0637
  767MOL0     H 3538   4.809   8.260   1.784  3.0980 -0.0050 -0.6980
  767MOL0     H 3539   4.617   8.386   1.703  0.6291  0.2454  0.9918
  767MOL0     H 3540   4.605   8.285   1.559 -2.4100  3.1921  0.9709
  767MOL0     H 3541   4.409   8.059   1.877 -2.1971  0.1460 -1.1801
  767MOL0     H 3542   4.501   7.833   1.634  1.0664  1.4240  1.4942
  767MOL0     H 3543   4.307   7.734   1.716  1.2830  1.6936 -0.0775
  767MOL0     H 3544   4.308   7.590   1.616 -3.2199  0.3299  2.3778
  767MOL0     H 3545   4.304   7.568   1.788  0.9510 -2.2750 -0.9959
  768MOL0     O 3546   0.171   0.621   9.836  0.6044 -0.2871 -0.5609
  768MOL0     C 3547   0.168   0.513   9.782  1.0246 -0.9467  1.1478
  768MOL0     O 3548   0.111   0.480   9.650 -0.8521 -0.3477  0.1055
  768MOL0     C 3549   0.017   0.556   9.586 -0.0635 -0.6654  0.0965
  768MOL0     C 3550  -0.095   0.490   9.529 -0.5565  1.6320 -0.0404
  768MOL0     C 3551  -0.190   0.563   9.449 -0.6966 -0.2354 -0.4986
  768MOL0     C 3552  -0.165   0.704   9.422  0.2646 -1.0462  0.7172
  768MOL0     O 3553  -0.235   0.769   9.315  0.3607 -0.2888  0.6559
  768MOL0     C 3554  -0.359   0.716   9.269 -0.0918  0.2017  0.3928
  768MOL0     C 3555  -0.441   0.817   9.198 -0.3854 -0.2247 -0.0119
  768MOL0     C 3556  -0.544   0.886   9.291  0.8513  0.5098 -0.4560
  768MOL0     C 3557  -0.483   1.016   9.355 -0.6768 -1.6579 -0.2459
  768MOL0     C 3558  -0.571   1.069   9.462  0.6202 -0.9005 -0.2343
  768MOL0     C 3559  -0.513   1.203   9.525 -0.6155  0.3451  0.5473
  768MOL0     C 3560  -0.626   1.262   9.620 -0.7557 -0.6379  0.5051
  768MOL0     C 3561  -0.555   1.354   9.720  0.6438  0.0287  0.3380
  768MOL0     N 3562  -0.648   1.398   9.831  0.1493  0.3866  0.3691
  768MOL0     C 3563  -0.595   1.420   9.956  0.5676  0.3015 -0.0888
  768MOL0     C 3564  -0.703   1.474  10.021 -0.2634  0.2140  1.0412
  768MOL0     C 3565  -0.709   1.494  10.168 -0.4325  0.2405  0.6123
  768MOL0     C 3566  -0.852   1.442  10.213  0.9621 -0.4214 -1.8583
  768MOL0     C 3567  -0.895   1.471  10.355 -0.2159 -0.4455 -0.7124
  768MOL0     C 3568  -0.789   1.410  10.450  0.3827  0.6500  0.1432
  768MOL0     O 3569  -0.828   1.458  10.585 -0.3637 -0.6344  0.6719
  768MOL0     C 3570  -0.918   1.391  10.654  0.9331  0.0076 -0.5139
  768MOL0     C 3571  -1.052   1.433  10.664  0.2198  0.4956 -0.1792
  768MOL0     C 3572  -1.127   1.380  10.768  0.5315 -0.2115 -0.8812
  768MOL0     C 3573  -1.084   1.258  10.825 -0.6322  0.2738 -1.1881
  768MOL0     C 3574  -1.180   1.182  10.901  0.0933 -0.5317  0.5452
  768MOL0     O 3575  -1.311   1.219  10.883 -0.4817 -0.2199 -0.7384
  768MOL0     C 3576  -1.405   1.129  10.925  0.0547  0.7034 -0.1138
  768MOL0     C 3577  -1.427   1.112  11.063  0.6897 -0.0333  0.2013
  768MOL0     C 3578  -1.532   1.025  11.112  0.3968  0.1951 -0.2481
  768MOL0     C 3579  -1.618   0.957  11.023  0.3154 -0.6046  0.4380
  768MOL0     O 3580  -1.723   0.883  11.061 -0.1670 -0.0837 -0.4234
  768MOL0     C 3581  -1.772   0.867  11.191 -0.2503 -0.5031 -0.2324
  768MOL0     C 3582  -1.890   0.772  11.195 -0.0245  0.3358  0.0070
  768MOL0     C 3583  -1.953   0.754  11.334 -0.0349 -0.6752  0.3212
  768MOL0     C 3584  -2.100   0.709  11.340  0.2434  0.0013 -0.0704
  768MOL0     C 3585  -2.130   0.626  11.467  0.5465 -0.1456 -0.3566
  768MOL0     C 3586  -2.265   0.659  11.524  0.7515 -0.1151 -0.4437
  768MOL0     C 3587  -2.306   0.579  11.647  0.6019 -0.3055 -0.3791
  768MOL0     C 3588  -2.435   0.623  11.729  0.1599 -1.1797  0.3511
  768MOL0    Cl 3589  -2.412   0.782  11.828 -0.1107 -0.5084  0.2483
  768MOL0     C 3590  -1.589   0.967  10.882 -1.0681 -0.4166 -0.1821
  768MOL0     C 3591  -1.485   1.055  10.835  0.6854 -0.2376  0.5702
  768MOL0     O 3592  -1.138   1.087  10.966  0.0850  0.9254  0.3242
  768MOL0     C 3593  -0.960   1.207  10.809 -0.6843  0.6082 -0.2038
  768MOL0     C 3594  -0.876   1.285  10.726 -0.4943  1.0826 -0.0126
  768MOL0     N 3595  -0.812   1.483   9.939 -0.4796  0.1020  0.3355
  768MOL0     N 3596  -0.777   1.433   9.821 -0.4177  0.3822  0.2034
  768MOL0     C 3597  -0.048   0.761   9.478 -0.1559  0.1663  0.6008
  768MOL0     C 3598   0.038   0.692   9.559 -0.0407 -0.1869  0.5048
  768MOL0     C 3599   0.215   0.385   9.861 -0.0121 -0.4871  0.4617
  768MOL0     C 3600   0.194   0.264   9.794  0.5946 -0.0711  0.1560
  768MOL0     C 3601   0.217   0.149   9.862  0.3849 -0.9111  0.0894
  768MOL0     C 3602   0.267   0.156   9.993 -0.9409  0.0321  1.0137
  768MOL0     O 3603   0.276   0.032  10.052  0.0822 -0.2500 -0.2619
  768MOL0     C 3604   0.230   0.020  10.177 -0.7790  0.3094 -0.2498
  768MOL0     C 3605   0.289  -0.113  10.244 -0.0238  1.4176  0.0820
  768MOL0     C 3606   0.230  -0.163  10.379  0.0018 -0.4486 -0.4532
  768MOL0     C 3607   0.299  -0.284  10.455  1.5888  0.4103  0.4677
  768MOL0     C 3608   0.439  -0.256  10.478  0.5726  0.0183 -0.0860
  768MOL0     C 3609   0.553  -0.239  10.502  0.3111  0.4169 -0.8798
  768MOL0     C 3610   0.312   0.273  10.050 -2.5047 -0.0679  0.8214
  768MOL0     C 3611   0.282   0.388   9.983 -0.9967  0.8035 -0.1946
  768MOL0     C 3612   0.333   0.516  10.043 -0.5578  0.1511 -1.4635
  768MOL0     H 3613  -0.105   0.387   9.563  1.2262  1.5229  0.2977
  768MOL0     H 3614  -0.284   0.522   9.415 -1.6331  0.8526  0.6427
  768MOL0     H 3615  -0.334   0.631   9.206 -2.0660 -1.9469  2.3308
  768MOL0     H 3616  -0.410   0.668   9.353  0.1839 -2.6959 -1.0074
  768MOL0     H 3617  -0.494   0.764   9.118 -0.8218 -0.3316  0.3386
  768MOL0     H 3618  -0.376   0.892   9.153 -0.1505 -1.9954 -2.8558
  768MOL0     H 3619  -0.600   0.818   9.356 -3.0489  2.3304 -1.5943
  768MOL0     H 3620  -0.624   0.933   9.232 -0.5477 -0.0046  0.9797
  768MOL0     H 3621  -0.380   1.001   9.388  0.1298  1.2376 -1.1918
  768MOL0     H 3622  -0.476   1.095   9.280 -2.3055 -2.0287 -0.8246
  768MOL0     H 3623  -0.672   1.096   9.429 -1.2648 -2.8996  3.3140
  768MOL0     H 3624  -0.577   0.989   9.536 -1.6806 -3.1275 -2.5884
  768MOL0     H 3625  -0.416   1.178   9.568 -0.3919 -2.5468 -1.3307
  768MOL0     H 3626  -0.497   1.273   9.443 -3.0199  0.3599  0.0057
  768MOL0     H 3627  -0.673   1.181   9.676  0.3555  0.3555  3.0252
  768MOL0     H 3628  -0.702   1.310   9.556 -0.0794 -0.0403  0.1290
  768MOL0     H 3629  -0.477   1.292   9.765  0.1853 -1.3724 -0.7305
  768MOL0     H 3630  -0.497   1.431   9.667 -0.1032  0.0936 -0.4067
  768MOL0     H 3631  -0.500   1.409  10.006  0.3595  0.7280  0.4104
  768MOL0     H 3632  -0.629   1.438  10.216 -0.1190  0.6387  0.5571
  768MOL0     H 3633  -0.699   1.600  10.194  0.2683 -0.1270  1.9351
  768MOL0     H 3634  -0.921   1.500  10.151  0.5439  1.5901  0.3601
  768MOL0     H 3635  -0.860   1.334  10.192 -3.3094 -0.7723  0.4454
  768MOL0     H 3636  -0.993   1.431  10.380  0.0720  0.1001  1.5359
  768MOL0     H 3637  -0.900   1.579  10.368  0.4528 -0.6377  1.6029
  768MOL0     H 3638  -0.684   1.435  10.431 -0.0059  1.2987 -1.2633
  768MOL0     H 3639  -0.796   1.301  10.443  1.1092  0.7125 -3.8674
  768MOL0     H 3640  -1.090   1.520  10.610  0.2618 -0.0628 -1.1253
  768MOL0     H 3641  -1.228   1.418  10.783  0.8532  0.3188  0.0238
  768MOL0     H 3642  -1.362   1.169  11.129  0.1057  0.3262  0.4700
  768MOL0     H 3643  -1.556   1.032  11.217 -0.7700  0.3841 -0.5027
  768MOL0     H 3644  -1.698   0.825  11.260 -3.2458 -1.9391  2.3776
  768MOL0     H 3645  -1.793   0.969  11.224 -1.5001 -0.3684 -1.3409
  768MOL0     H 3646  -1.966   0.799  11.122 -1.5464  0.4811  1.5880
  768MOL0     H 3647  -1.856   0.674  11.162  0.3661  0.2041  0.7855
  768MOL0     H 3648  -1.905   0.675  11.393 -0.9441  0.1919  2.3037
  768MOL0     H 3649  -1.940   0.849  11.386 -0.6246  0.5482 -1.6337
  768MOL0     H 3650  -2.124   0.640  11.258 -1.5484 -1.0627  1.2637
  768MOL0     H 3651  -2.167   0.795  11.340  1.2181  0.9033  3.4570
  768MOL0     H 3652  -2.054   0.655  11.540  0.6817 -3.2723  0.8944
  768MOL0     H 3653  -2.116   0.522  11.436 -1.2711  0.3327 -3.1679
  768MOL0     H 3654  -2.267   0.765  11.551  0.5284 -0.0017 -0.9052
  768MOL0     H 3655  -2.345   0.654  11.450 -0.9654 -1.2285  1.3763
  768MOL0     H 3656  -2.231   0.573  11.727 -0.9553 -0.3271  1.1511
  768MOL0     H 3657  -2.316   0.475  11.615 -1.7439  0.1665 -1.4080
  768MOL0     H 3658  -2.517   0.648  11.662 -0.9248  1.6166  2.5092
  768MOL0     H 3659  -2.469   0.548  11.801 -0.2409  0.5493  2.0631
  768MOL0     H 3660  -1.658   0.925  10.809  0.4041 -0.9466 -1.3055
  768MOL0     H 3661  -1.485   1.076  10.729 -0.8163  1.6356  0.8821
  768MOL0     H 3662  -0.934   1.107  10.842  1.6658  0.1152 -3.1242
  768MOL0     H 3663  -0.772   1.257  10.737 -0.0907  3.4036  4.7922
  768MOL0     H 3664  -0.017   0.861   9.449 -0.1288  0.3418  1.2047
  768MOL0     H 3665   0.120   0.745   9.606  0.3405 -1.6732  1.5537
  768MOL0     H 3666   0.167   0.251   9.690  3.5495  0.4712 -0.7662
  768MOL0     H 3667   0.203   0.054   9.811 -0.4061 -0.6503 -0.1944
  768MOL0     H 3668   0.121   0.028  10.173 -0.9042 -1.3965 -2.3259
  768MOL0     H 3669   0.260   0.095  10.250  3.2208 -1.4725  0.2118
  768MOL0     H 3670   0.397  -0.106  10.261 -0.0177 -1.0631  1.5653
  768MOL0     H 3671   0.289  -0.204  10.183 -0.4551  0.8321  0.9330
  768MOL0     H 3672   0.126  -0.190  10.360 -0.1481  1.3360 -2.5647
  768MOL0     H 3673   0.232  -0.088  10.459  1.3073 -1.8170  0.8489
  768MOL0     H 3674   0.246  -0.308  10.548 -0.6716  0.5576 -0.6991
  768MOL0     H 3675   0.275  -0.370  10.392 -3.8228  1.5533  0.4727
  768MOL0     H 3676   0.659  -0.234  10.515  0.4168 -1.2740 -0.9260
  768MOL0     H 3677   0.385   0.265  10.129  2.4970 -1.7029 -3.4210
  768MOL0     H 3678   0.415   0.551   9.980  0.7554  0.6521  0.4488
  768MOL0     H 3679   0.246   0.583  10.047 -1.5072 -1.0070  2.7204
  768MOL0     H 3680   0.374   0.488  10.141  1.0372 -2.2309 -2.7175
  769MOL0     O 3681   6.902   0.761   3.962 -0.0095 -0.7194 -0.2359
  769MOL0     C 3682   6.919   0.699   3.860  0.3411 -0.3289  0.6265
  769MOL0     O 3683   6.847   0.734   3.741 -0.1717 -0.2353  0.2221
  769MOL0     C 3684   6.758   0.834   3.747  0.0964 -0.1223  0.0555
  769MOL0     C 3685   6.622   0.810   3.778  0.1098  0.5756  0.9765
  769MOL0     C 3686   6.523   0.913   3.762 -0.0920  0.2959 -0.2777
  769MOL0     C 3687   6.566   1.044   3.728  0.3565  0.3081  0.0919
  769MOL0     O 3688   6.491   1.152   3.693  0.3053 -0.4583 -0.2148
  769MOL0     C 3689   6.354   1.126   3.720 -0.0552  0.5938 -0.1325
  769MOL0     C 3690   6.269   1.251   3.713  0.1756 -0.9903  0.5754
  769MOL0     C 3691   6.246   1.288   3.559  0.3583 -0.4531 -0.2525
  769MOL0     C 3692   6.119   1.206   3.499  0.0670 -0.9257 -0.8407
  769MOL0     C 3693   6.051   1.258   3.369  0.2606 -0.5199  0.9567
  769MOL0     C 3694   5.924   1.177   3.322 -0.5982 -0.0307 -0.5788
  769MOL0     C 3695   5.848   1.246   3.211  0.2747 -0.2705  0.7133
  769MOL0     C 3696   5.919   1.262   3.076  0.3502 -0.5236  0.3256
  769MOL0     N 3697   5.825   1.328   2.977  0.5198  0.5509  0.4930
  769MOL0     C 3698   5.690   1.310   2.971 -1.1209 -0.1541 -1.0730
  769MOL0     C 3699   5.648   1.410   2.895  0.0899  1.4397  0.0472
  769MOL0     C 3700   5.505   1.419   2.841 -0.3223 -0.6049  0.5814
  769MOL0     C 3701   5.500   1.364   2.692 -0.1545  0.6099 -0.4254
  769MOL0     C 3702   5.358   1.357   2.630 -1.1179 -0.9076  0.1708
  769MOL0     C 3703   5.257   1.255   2.688  0.4131 -0.0667  0.0669
  769MOL0     O 3704   5.147   1.272   2.606 -0.1649  0.2582  0.4147
  769MOL0     C 3705   5.059   1.168   2.586 -0.8978  0.4596  0.8297
  769MOL0     C 3706   4.988   1.146   2.455  0.0285 -0.1183 -0.8439
  769MOL0     C 3707   4.912   1.034   2.427  0.2868 -0.1973  0.2949
  769MOL0     C 3708   4.887   0.941   2.530 -0.3375  0.1196 -0.7512
  769MOL0     C 3709   4.786   0.832   2.502 -0.4980 -0.7498 -0.2759
  769MOL0     O 3710   4.755   0.750   2.607 -0.7273  0.0815 -0.7587
  769MOL0     C 3711   4.645   0.665   2.579  0.3680 -0.4882  0.5141
  769MOL0     C 3712   4.666   0.532   2.550 -0.2971  0.3294 -0.0430
  769MOL0     C 3713   4.557   0.452   2.521  0.1102 -0.8902  0.1172
  769MOL0     C 3714   4.428   0.493   2.548 -0.1881 -0.8470  0.5364
  769MOL0     O 3715   4.335   0.399   2.519  0.4353  0.2253  0.3557
  769MOL0     C 3716   4.207   0.457   2.479  0.3954  0.0896 -1.1001
  769MOL0     C 3717   4.104   0.347   2.443  0.1007 -0.0760  0.5231
  769MOL0     C 3718   3.989   0.386   2.334 -0.5558 -0.3506  0.0100
  769MOL0     C 3719   4.039   0.407   2.200  0.2672 -0.3079  0.3367
  769MOL0     C 3720   3.919   0.439   2.105 -0.0701  0.4808  0.0803
  769MOL0     C 3721   3.966   0.481   1.966  0.6759 -0.5709  0.5543
  769MOL0     C 3722   3.851   0.491   1.858 -0.6852  0.4309  0.8706
  769MOL0     C 3723   3.888   0.542   1.721  0.0422  0.4582  0.4014
  769MOL0    Cl 3724   3.943   0.716   1.737  0.5437  0.1526 -0.0861
  769MOL0     C 3725   4.407   0.627   2.571  0.0999 -0.0626 -0.5433
  769MOL0     C 3726   4.513   0.714   2.591 -0.6311  0.2870 -0.0672
  769MOL0     O 3727   4.735   0.825   2.390 -0.0436 -0.1110  0.1667
  769MOL0     C 3728   4.942   0.961   2.654  0.1471  0.1329  0.4584
  769MOL0     C 3729   5.034   1.068   2.685 -0.1585 -0.0244 -0.8292
  769MOL0     N 3730   5.752   1.490   2.856 -0.9664 -0.6493 -0.6909
  769MOL0     N 3731   5.856   1.451   2.921  0.2253  0.2354 -0.4169
  769MOL0     C 3732   6.700   1.058   3.690  0.1829  0.0390 -0.3473
  769MOL0     C 3733   6.793   0.956   3.693  0.2806 -0.4568 -0.5324
  769MOL0     C 3734   7.023   0.593   3.844  0.2612 -0.2854 -0.2347
  769MOL0     C 3735   7.075   0.562   3.723  0.6767  1.0756  0.1846
  769MOL0     C 3736   7.178   0.464   3.715  0.6764  0.3261 -0.1699
  769MOL0     C 3737   7.226   0.391   3.829  0.9067  0.9071 -0.2161
  769MOL0     O 3738   7.302   0.285   3.813  0.0437  1.0355  0.1889
  769MOL0     C 3739   7.287   0.163   3.885  0.0172 -0.2385  0.0524
  769MOL0     C 3740   7.302   0.045   3.777 -0.2209 -0.3719 -0.5492
  769MOL0     C 3741   7.295  -0.097   3.853 -0.3594  0.2306  0.9603
  769MOL0     C 3742   7.337  -0.211   3.758 -0.2841  0.8308  0.0052
  769MOL0     C 3743   7.242  -0.216   3.645 -0.1358  1.9350  0.1280
  769MOL0     C 3744   7.156  -0.246   3.550  0.3679  0.9155 -0.1886
  769MOL0     C 3745   7.171   0.424   3.956 -0.2686  0.6423  0.7930
  769MOL0     C 3746   7.067   0.521   3.962  0.4158  0.5997 -0.1864
  769MOL0     C 3747   6.992   0.527   4.095 -0.2418  0.5414 -0.6303
  769MOL0     H 3748   6.616   0.706   3.809  3.4011  0.0368  0.1622
  769MOL0     H 3749   6.420   0.885   3.784 -0.0304  1.7067  2.0974
  769MOL0     H 3750   6.315   1.048   3.653  1.2062 -2.2368  2.2421
  769MOL0     H 3751   6.349   1.097   3.825  2.9134  0.1953 -0.0084
  769MOL0     H 3752   6.321   1.333   3.762 -1.0660  1.9911 -2.6531
  769MOL0     H 3753   6.167   1.225   3.743 -1.8203 -1.3575 -5.2426
  769MOL0     H 3754   6.335   1.285   3.494  0.6090  0.5889  0.0347
  769MOL0     H 3755   6.212   1.391   3.554  3.8610  1.0785  2.7973
  769MOL0     H 3756   6.141   1.101   3.481 -2.1505 -1.2634 -1.8740
  769MOL0     H 3757   6.043   1.200   3.577 -0.7461  3.3491 -1.0517
  769MOL0     H 3758   6.011   1.359   3.387  0.0828 -1.0713  4.3479
  769MOL0     H 3759   6.136   1.271   3.302 -1.1542 -0.1658 -0.8643
  769MOL0     H 3760   5.957   1.079   3.288  1.8333  1.6703 -3.5502
  769MOL0     H 3761   5.854   1.167   3.406 -0.5851 -1.3715 -0.7051
  769MOL0     H 3762   5.812   1.342   3.250  5.4638  1.2052  2.8402
  769MOL0     H 3763   5.764   1.180   3.189  3.7034 -4.1147 -2.4818
  769MOL0     H 3764   6.008   1.325   3.089 -0.1476 -0.0783  1.8072
  769MOL0     H 3765   5.963   1.168   3.044  1.5958  0.4063 -0.7963
  769MOL0     H 3766   5.637   1.220   3.000 -0.5906  0.3687  1.8379
  769MOL0     H 3767   5.438   1.369   2.912 -4.0851  1.5624 -1.1733
  769MOL0     H 3768   5.463   1.520   2.839 -0.6100 -0.7357  0.0565
  769MOL0     H 3769   5.573   1.410   2.624  0.6058 -1.7903 -1.3553
  769MOL0     H 3770   5.530   1.259   2.684  0.3345  0.8637 -3.1268
  769MOL0     H 3771   5.369   1.343   2.522  1.6786 -1.7791  0.4917
  769MOL0     H 3772   5.313   1.455   2.646 -1.6415 -1.0542 -0.3718
  769MOL0     H 3773   5.233   1.275   2.793 -3.8602 -1.8162 -0.3843
  769MOL0     H 3774   5.296   1.153   2.687  0.4114 -0.0920 -1.9283
  769MOL0     H 3775   5.003   1.224   2.381 -0.5100  0.5204 -0.2921
  769MOL0     H 3776   4.867   1.009   2.332 -1.9602 -1.8324  1.6871
  769MOL0     H 3777   4.759   0.482   2.527 -0.0016 -0.3491  2.3714
  769MOL0     H 3778   4.558   0.351   2.480 -2.1093 -0.5897 -0.8403
  769MOL0     H 3779   4.158   0.507   2.564 -2.3730  0.0535 -2.5626
  769MOL0     H 3780   4.225   0.530   2.400  1.7102  1.5552  0.4789
  769MOL0     H 3781   4.149   0.257   2.400 -1.0691  1.6530 -5.1622
  769MOL0     H 3782   4.056   0.313   2.534 -1.6534 -1.4092 -0.8316
  769MOL0     H 3783   3.915   0.305   2.324 -3.0565  1.2665  3.2159
  769MOL0     H 3784   3.938   0.470   2.383  3.9336  2.0825  1.0099
  769MOL0     H 3785   4.092   0.318   2.164 -1.8993 -0.2806 -3.5541
  769MOL0     H 3786   4.108   0.492   2.206  0.3058 -0.4100  1.5135
  769MOL0     H 3787   3.858   0.518   2.149 -1.1057 -0.2291 -0.0497
  769MOL0     H 3788   3.863   0.345   2.099 -0.4727  0.8024 -2.0993
  769MOL0     H 3789   4.021   0.574   1.980  0.0184 -0.3365  1.6500
  769MOL0     H 3790   4.041   0.406   1.940  1.7746  1.2733 -2.1119
  769MOL0     H 3791   3.779   0.559   1.904  1.8517  2.3310  2.2859
  769MOL0     H 3792   3.813   0.389   1.851  1.6975 -0.4050 -1.8729
  769MOL0     H 3793   3.972   0.488   1.678 -1.1592 -1.0707 -0.1062
  769MOL0     H 3794   3.802   0.529   1.655 -0.2892 -2.1094  1.2055
  769MOL0     H 3795   4.311   0.669   2.596  0.7393  2.2357 -1.6939
  769MOL0     H 3796   4.500   0.820   2.605  1.1652  0.3662  1.3655
  769MOL0     H 3797   4.913   0.886   2.727  3.6476 -2.6372 -0.7447
  769MOL0     H 3798   5.097   1.078   2.773  0.7126  3.3542 -1.6801
  769MOL0     H 3799   6.742   1.153   3.658  1.7858 -0.9599 -1.3068
  769MOL0     H 3800   6.897   0.959   3.663  2.0973 -1.9682  4.4829
  769MOL0     H 3801   7.047   0.621   3.635 -2.8625  2.0850  1.8243
  769MOL0     H 3802   7.215   0.440   3.615 -0.7816  4.1493 -1.8284
  769MOL0     H 3803   7.190   0.158   3.933  0.9405  0.0906  2.0580
  769MOL0     H 3804   7.368   0.163   3.958  1.1331  0.3121 -1.1277
  769MOL0     H 3805   7.396   0.041   3.721 -0.5387 -1.4369 -1.0353
  769MOL0     H 3806   7.217   0.050   3.708  0.3134  0.1698 -1.1872
  769MOL0     H 3807   7.192  -0.116   3.885 -1.4133  1.0538 -1.6765
  769MOL0     H 3808   7.370  -0.092   3.934  1.6434 -1.6579 -0.6471
  769MOL0     H 3809   7.442  -0.200   3.730 -0.3784 -0.7812 -1.0688
  769MOL0     H 3810   7.324  -0.303   3.817 -1.7296 -0.6654 -2.4909
  769MOL0     H 3811   7.090  -0.265   3.468 -1.3325  2.0043  0.8818
  769MOL0     H 3812   7.201   0.367   4.043  1.0109 -2.8240 -1.6677
  769MOL0     H 3813   6.983   0.624   4.145  2.0695  0.8737 -0.7358
  769MOL0     H 3814   6.887   0.503   4.074  0.1768 -0.3342 -1.7850
  769MOL0     H 3815   7.031   0.450   4.162 -2.2277  0.7704  0.8964
  770MOL0     O 3816   8.938   1.157   3.292  0.2277  0.4233  0.0036
  770MOL0     C 3817   8.895   1.047   3.253  0.1104 -0.3567 -0.5966
  770MOL0     O 3818   8.916   0.921   3.311 -0.6741 -0.3044  0.3748
  770MOL0     C 3819   9.002   0.911   3.418 -0.4413 -0.2958 -0.7760
  770MOL0     C 3820   9.145   0.916   3.397 -1.2425  0.1953  0.3707
  770MOL0     C 3821   9.221   0.936   3.515  0.0884  0.5401 -0.1101
  770MOL0     C 3822   9.158   0.945   3.644 -0.7910 -0.7557  0.0471
  770MOL0     O 3823   9.245   0.977   3.739 -0.0727  1.0113  0.5634
  770MOL0     C 3824   9.197   1.000   3.872  0.1551  0.3443 -0.2878
  770MOL0     C 3825   9.306   1.000   3.967  0.4229  0.1182 -0.0415
  770MOL0     C 3826   9.276   0.937   4.108  0.1440 -0.7714 -0.4893
  770MOL0     C 3827   9.406   0.919   4.193  0.6935  0.3855  0.0077
  770MOL0     C 3828   9.379   0.827   4.328  0.2026 -0.7988  0.8421
  770MOL0     C 3829   9.494   0.863   4.423  1.0084 -0.0223 -0.1617
  770MOL0     C 3830   9.484   0.796   4.565 -0.6958  1.3018  0.3426
  770MOL0     C 3831   9.579   0.868   4.653  0.0660  0.0320 -1.2127
  770MOL0     N 3832   9.721   0.830   4.640 -0.6199  0.3349 -0.1987
  770MOL0     C 3833   9.766   0.702   4.681  0.5560 -0.5535 -0.2718
  770MOL0     C 3834   9.902   0.721   4.661  0.2703  0.9552 -0.7211
  770MOL0     C 3835   9.994   0.612   4.703 -0.2651 -0.4433 -0.5127
  770MOL0     C 3836  10.116   0.674   4.773  0.2351 -0.4368 -0.9634
  770MOL0     C 3837  10.196   0.568   4.857 -0.3836  0.6750 -0.4906
  770MOL0     C 3838  10.333   0.638   4.898 -1.2637  1.0214 -0.4996
  770MOL0     O 3839  10.413   0.548   4.984  0.0762  0.4333  0.1192
  770MOL0     C 3840  10.533   0.587   5.028 -0.7483 -0.4850 -0.0835
  770MOL0     C 3841  10.608   0.488   5.098  0.4138 -0.6469  0.3759
  770MOL0     C 3842  10.733   0.518   5.161  0.0226 -0.2368  0.0253
  770MOL0     C 3843  10.796   0.635   5.138 -0.6839 -0.0680 -0.5311
  770MOL0     C 3844  10.926   0.657   5.195  0.5939 -0.3750  1.1221
  770MOL0     O 3845  10.983   0.551   5.251 -0.2220  0.2402 -0.7112
  770MOL0     C 3846  11.101   0.548   5.328 -0.6373 -0.3192 -0.0921
  770MOL0     C 3847  11.198   0.654   5.316 -0.5235  0.3355 -0.6668
  770MOL0     C 3848  11.304   0.654   5.400 -0.9105  0.3990  0.5070
  770MOL0     C 3849  11.325   0.545   5.486  0.5109  0.2575 -0.3410
  770MOL0     O 3850  11.447   0.527   5.552 -0.1933  0.3829  0.0166
  770MOL0     C 3851  11.446   0.559   5.696  0.9707 -0.8069  0.5404
  770MOL0     C 3852  11.493   0.436   5.771 -0.7300 -0.1758  0.9071
  770MOL0     C 3853  11.636   0.395   5.730  0.7161  0.6282  0.3408
  770MOL0     C 3854  11.690   0.277   5.818  0.6381  0.0187  0.3698
  770MOL0     C 3855  11.841   0.242   5.805 -0.3015  0.1769  0.6492
  770MOL0     C 3856  11.885   0.154   5.924  0.3667 -0.4000 -0.4330
  770MOL0     C 3857  12.034   0.110   5.910  0.3337 -0.6038  0.1168
  770MOL0     C 3858  12.091   0.012   6.015 -0.1828  0.2245 -0.7049
  770MOL0    Cl 3859  12.144   0.106   6.160 -0.1432  0.2580  0.1792
  770MOL0     C 3860  11.225   0.443   5.505 -1.5874 -1.6078 -0.2042
  770MOL0     C 3861  11.110   0.444   5.418 -0.7007  0.9778 -0.0868
  770MOL0     O 3862  10.974   0.766   5.189  0.1915 -0.2310  1.0462
  770MOL0     C 3863  10.714   0.737   5.079  0.2231 -0.3767  0.4282
  770MOL0     C 3864  10.589   0.712   5.017 -0.0152  1.4451  0.2118
  770MOL0     N 3865   9.939   0.846   4.622  0.1772  0.8135  0.1800
  770MOL0     N 3866   9.824   0.911   4.612  0.9174 -0.7563 -0.5270
  770MOL0     C 3867   9.017   0.936   3.654 -0.5436  0.0950 -0.3519
  770MOL0     C 3868   8.937   0.928   3.539  0.4015 -0.2703  0.1236
  770MOL0     C 3869   8.848   1.044   3.107 -0.3456 -0.1179  0.4346
  770MOL0     C 3870   8.883   0.926   3.027  1.1400 -0.2280 -0.1549
  770MOL0     C 3871   8.842   0.910   2.897 -0.0096 -0.7000 -0.2470
  770MOL0     C 3872   8.799   1.028   2.829 -0.0001  0.7249 -0.2031
  770MOL0     O 3873   8.786   1.023   2.691  0.1211 -0.5095  0.3426
  770MOL0     C 3874   8.914   1.033   2.627 -0.0261  0.5332  0.8554
  770MOL0     C 3875   8.927   0.934   2.514  0.1384 -0.0167 -0.5866
  770MOL0     C 3876   9.034   0.964   2.412 -0.7943 -0.7367  0.4047
  770MOL0     C 3877   9.022   1.105   2.340 -0.2824 -0.3197  0.5775
  770MOL0     C 3878   8.897   1.122   2.265 -0.0217 -0.4773  0.3746
  770MOL0     C 3879   8.796   1.105   2.211  0.5113 -0.6786 -0.6380
  770MOL0     C 3880   8.767   1.139   2.906  0.8785 -0.0378  0.6626
  770MOL0     C 3881   8.783   1.156   3.047  1.2117  0.1270  0.5138
  770MOL0     C 3882   8.730   1.279   3.113 -0.6177  0.2407  0.3626
  770MOL0     H 3883   9.183   0.892   3.299 -1.5297 -3.7005  1.0685
  770MOL0     H 3884   9.329   0.931   3.516  0.0423 -0.9835 -0.0777
  770MOL0     H 3885   9.147   1.096   3.883  1.4238  1.2855 -2.2289
  770MOL0     H 3886   9.146   0.907   3.897  2.5436 -1.7366 -2.5148
  770MOL0     H 3887   9.332   1.103   3.994 -0.2755  0.3959 -0.3964
  770MOL0     H 3888   9.389   0.947   3.919 -0.7222 -2.9995  1.1894
  770MOL0     H 3889   9.227   0.840   4.104  2.9269 -2.2402 -1.2331
  770MOL0     H 3890   9.214   1.018   4.148  0.2973 -1.1935  0.6338
  770MOL0     H 3891   9.457   0.850   4.125 -1.1105  1.1604 -2.2556
  770MOL0     H 3892   9.472   1.006   4.205  3.2557 -1.4345 -0.0203
  770MOL0     H 3893   9.278   0.840   4.367  0.7236 -2.7586  3.0489
  770MOL0     H 3894   9.377   0.724   4.292 -0.9647  0.1330 -2.1743
  770MOL0     H 3895   9.586   0.825   4.378  0.9067 -0.8623  0.3084
  770MOL0     H 3896   9.492   0.971   4.437 -1.5106 -0.3519  3.4278
  770MOL0     H 3897   9.513   0.690   4.562  0.4068  1.6101 -0.7313
  770MOL0     H 3898   9.381   0.802   4.600 -0.8432 -2.3558  0.8992
  770MOL0     H 3899   9.571   0.977   4.653  2.7571  0.5880  4.5506
  770MOL0     H 3900   9.561   0.832   4.755  2.8019  0.1113 -0.6255
  770MOL0     H 3901   9.708   0.621   4.725  0.7627  2.0990  5.9772
  770MOL0     H 3902   9.952   0.546   4.779  1.8647 -0.2602  0.9086
  770MOL0     H 3903  10.020   0.555   4.613 -1.3265 -1.2151 -0.3515
  770MOL0     H 3904  10.175   0.734   4.702  1.9836  0.0722  0.8227
  770MOL0     H 3905  10.078   0.742   4.850  1.9794 -2.3671  1.8092
  770MOL0     H 3906  10.224   0.475   4.806 -4.5112 -1.8336  1.3043
  770MOL0     H 3907  10.142   0.535   4.946 -1.4001  0.6709 -1.0897
  770MOL0     H 3908  10.316   0.741   4.932 -0.1952  2.6664 -4.4072
  770MOL0     H 3909  10.389   0.644   4.804  0.7262 -1.0492  0.4709
  770MOL0     H 3910  10.555   0.395   5.114 -0.3609 -0.6093 -1.6601
  770MOL0     H 3911  10.787   0.432   5.201 -0.0658 -0.0098  0.6466
  770MOL0     H 3912  11.192   0.734   5.243  2.2005  0.6377 -0.6817
  770MOL0     H 3913  11.368   0.742   5.402  2.9526 -1.9805 -2.6265
  770MOL0     H 3914  11.527   0.631   5.705  0.6594 -0.2137 -1.0386
  770MOL0     H 3915  11.350   0.597   5.732  1.0271  1.1799 -1.2229
  770MOL0     H 3916  11.498   0.460   5.878  4.9173 -0.8738  1.0802
  770MOL0     H 3917  11.417   0.358   5.758  1.0340 -1.7677 -0.2908
  770MOL0     H 3918  11.646   0.369   5.625  1.2405  0.2325  0.4822
  770MOL0     H 3919  11.702   0.477   5.762  2.1240 -1.2249  2.4936
  770MOL0     H 3920  11.622   0.194   5.800  0.2068  1.0913 -3.9985
  770MOL0     H 3921  11.670   0.306   5.922  0.8211  0.9124  0.1703
  770MOL0     H 3922  11.913   0.324   5.806 -1.1051  0.9016  0.0876
  770MOL0     H 3923  11.853   0.181   5.715 -0.1643  4.0410 -2.1983
  770MOL0     H 3924  11.873   0.222   6.009  0.6260  0.4308 -1.0502
  770MOL0     H 3925  11.820   0.066   5.928 -0.5371  0.3045  1.4987
  770MOL0     H 3926  12.104   0.194   5.901 -1.5509  1.3261  2.0815
  770MOL0     H 3927  12.036   0.042   5.824 -0.6697 -0.1092 -0.3065
  770MOL0     H 3928  12.025  -0.069   6.047  1.0761 -0.8061 -0.6500
  770MOL0     H 3929  12.171  -0.036   5.958  2.2316  1.3390  1.5667
  770MOL0     H 3930  11.235   0.359   5.574 -1.4971 -1.3728  0.0697
  770MOL0     H 3931  11.035   0.366   5.417  1.8099 -1.5934 -0.8165
  770MOL0     H 3932  10.750   0.839   5.088  0.3556 -0.3553 -0.3128
  770MOL0     H 3933  10.539   0.786   4.956 -1.1988  0.2675 -0.2759
  770MOL0     H 3934   8.968   0.949   3.750  1.4757 -0.3579  0.8095
  770MOL0     H 3935   8.831   0.945   3.554  0.5869  0.1494  1.0550
  770MOL0     H 3936   8.927   0.842   3.079  1.4674  1.8623  3.2942
  770MOL0     H 3937   8.873   0.817   2.851  1.5467 -0.2332 -0.1788
  770MOL0     H 3938   9.001   0.998   2.683 -0.9744 -1.1895  1.3411
  770MOL0     H 3939   8.920   1.137   2.596 -0.8230 -0.1212 -1.8248
  770MOL0     H 3940   8.834   0.933   2.457  0.9410  1.7598 -2.0511
  770MOL0     H 3941   8.932   0.832   2.552  0.1123  0.4037  0.5996
  770MOL0     H 3942   9.028   0.887   2.335 -1.0699 -2.7349  2.3193
  770MOL0     H 3943   9.131   0.961   2.463 -0.0695  2.1629 -0.5910
  770MOL0     H 3944   9.041   1.184   2.413 -0.5037  2.9957 -2.6608
  770MOL0     H 3945   9.110   1.098   2.276 -0.4198  0.9279  0.2314
  770MOL0     H 3946   8.698   1.095   2.169  0.0088 -0.6189  0.4763
  770MOL0     H 3947   8.733   1.223   2.848 -0.1046 -0.4993  0.5609
  770MOL0     H 3948   8.720   1.353   3.033 -3.4569 -0.5755 -0.1395
  770MOL0     H 3949   8.638   1.255   3.166 -1.6793 -1.8388 -2.1924
  770MOL0     H 3950   8.804   1.323   3.181  0.1852 -1.5185  0.7014
  771MOL0     O 3951  10.219   6.340   4.596 -1.2275  0.4666 -0.2795
  771MOL0     C 3952  10.263   6.275   4.693 -0.3044  0.5131  0.4200
  771MOL0     O 3953  10.369   6.190   4.686  0.3020 -0.2923 -0.7124
  771MOL0     C 3954  10.422   6.174   4.563 -0.5056 -0.1092 -0.5078
  771MOL0     C 3955  10.380   6.066   4.484 -0.2260  0.4629  0.7526
  771MOL0     C 3956  10.447   6.051   4.359 -0.6127 -0.3349 -0.2030
  771MOL0     C 3957  10.554   6.137   4.322  0.1169 -0.0509 -0.0120
  771MOL0     O 3958  10.636   6.123   4.204  0.5368 -0.3376 -0.0784
  771MOL0     C 3959  10.681   5.986   4.182  0.3124 -0.0202 -0.0416
  771MOL0     C 3960  10.809   5.967   4.275 -0.3045  0.2358  0.3286
  771MOL0     C 3961  10.876   5.832   4.275  0.6998  1.0913  0.3196
  771MOL0     C 3962  10.973   5.815   4.392  0.6150 -0.7611 -0.3341
  771MOL0     C 3963  11.014   5.670   4.420  0.4546  0.3397 -0.1724
  771MOL0     C 3964  11.114   5.616   4.317 -0.5575 -0.3729 -0.6164
  771MOL0     C 3965  11.138   5.464   4.321  0.4152  0.0979 -0.5337
  771MOL0     C 3966  11.201   5.415   4.191  0.2302  0.0457 -0.6103
  771MOL0     N 3967  11.219   5.267   4.183 -0.6069  1.0977  0.1433
  771MOL0     C 3968  11.337   5.202   4.205 -0.3439  1.1388  0.3065
  771MOL0     C 3969  11.304   5.068   4.192 -0.2170 -0.0407  0.1366
  771MOL0     C 3970  11.410   4.965   4.220 -0.3173  0.6067  0.2700
  771MOL0     C 3971  11.401   4.893   4.354  0.3875  0.1474 -0.0211
  771MOL0     C 3972  11.350   4.746   4.337  0.2475  0.3074 -1.1054
  771MOL0     C 3973  11.206   4.745   4.298  0.3504  0.3197 -0.1526
  771MOL0     O 3974  11.170   4.609   4.303 -0.2719 -0.0219 -0.2598
  771MOL0     C 3975  11.062   4.572   4.229  0.3486  0.5926 -1.1078
  771MOL0     C 3976  11.028   4.435   4.232 -0.3515 -0.7563  0.0899
  771MOL0     C 3977  10.912   4.380   4.182  0.1658 -0.1613 -0.6263
  771MOL0     C 3978  10.803   4.462   4.136  0.0586 -0.0883 -0.5365
  771MOL0     C 3979  10.679   4.413   4.079 -0.8295  0.2457  0.2215
  771MOL0     O 3980  10.665   4.291   4.013 -0.2420  0.3587 -0.4175
  771MOL0     C 3981  10.543   4.263   3.953 -0.0791  0.1525  0.1372
  771MOL0     C 3982  10.488   4.132   3.960  0.9843  0.1547  0.2186
  771MOL0     C 3983  10.354   4.106   3.909 -1.4739  0.4939  0.5220
  771MOL0     C 3984  10.289   4.200   3.839  0.4234 -0.0656  0.3032
  771MOL0     O 3985  10.166   4.170   3.784  0.0237 -0.4396 -0.2003
  771MOL0     C 3986  10.062   4.260   3.765 -0.2356  0.0354  0.7100
  771MOL0     C 3987   9.945   4.204   3.687  0.7143 -0.2959  0.7655
  771MOL0     C 3988   9.878   4.074   3.742 -0.3058  0.3069  1.6201
  771MOL0     C 3989   9.765   4.034   3.638 -1.2324 -1.3869 -1.4476
  771MOL0     C 3990   9.689   3.916   3.694  0.2423  0.5276 -0.5167
  771MOL0     C 3991   9.761   3.785   3.667  0.2349  0.7392 -0.5783
  771MOL0     C 3992   9.665   3.678   3.741  0.4213 -0.2269  0.5590
  771MOL0     C 3993   9.718   3.537   3.728 -0.2262  0.8940  0.0854
  771MOL0    Cl 3994   9.699   3.470   3.557  0.0997  0.0399 -0.3385
  771MOL0     C 3995  10.354   4.321   3.817 -0.7412 -0.3499  0.4127
  771MOL0     C 3996  10.475   4.354   3.869  0.6103 -0.4150  0.1968
  771MOL0     O 3997  10.587   4.494   4.087 -1.0826  0.4262  0.3089
  771MOL0     C 3998  10.839   4.593   4.131 -0.2451  0.0209 -0.7422
  771MOL0     C 3999  10.964   4.657   4.171  0.2133 -0.3968 -0.2662
  771MOL0     N 4000  11.170   5.060   4.167 -0.7290  0.3842 -0.3474
  771MOL0     N 4001  11.116   5.174   4.170 -0.1188  0.1333  0.6959
  771MOL0     C 4002  10.595   6.240   4.409 -0.1208 -0.2726 -1.3374
  771MOL0     C 4003  10.525   6.264   4.527  0.2266  0.3835 -0.8077
  771MOL0     C 4004  10.202   6.288   4.828 -0.4507 -0.1764 -0.5075
  771MOL0     C 4005  10.192   6.163   4.899  0.8461  0.1195  0.0710
  771MOL0     C 4006  10.159   6.157   5.032 -0.7011 -0.1684  0.3000
  771MOL0     C 4007  10.116   6.276   5.096  0.1465 -0.0757  0.1129
  771MOL0     O 4008  10.072   6.273   5.233 -1.6218 -0.2786 -0.1602
  771MOL0     C 4009  10.025   6.147   5.290  0.9273 -0.6165 -0.7159
  771MOL0     C 4010   9.889   6.094   5.230  0.3957  0.0531 -0.1376
  771MOL0     C 4011   9.787   6.196   5.171 -0.4521  0.7991  0.4938
  771MOL0     C 4012   9.660   6.120   5.107  0.1008  0.2481 -0.6660
  771MOL0     C 4013   9.586   6.029   5.199  0.3070 -0.4333  0.1128
  771MOL0     C 4014   9.530   5.957   5.279 -0.5219 -0.1579 -0.5169
  771MOL0     C 4015  10.113   6.395   5.018  0.2940  0.4885 -0.1931
  771MOL0     C 4016  10.154   6.408   4.888 -0.0258  0.1873 -0.4208
  771MOL0     C 4017  10.177   6.551   4.828  0.5858 -0.5043  1.1873
  771MOL0     H 4018  10.296   6.009   4.521 -1.2867  1.9606  0.7671
  771MOL0     H 4019  10.414   5.968   4.297 -0.7613  0.2388 -0.9065
  771MOL0     H 4020  10.608   5.906   4.198  0.2569 -0.2216 -1.2187
  771MOL0     H 4021  10.711   5.973   4.078 -1.9250  0.1962 -0.7560
  771MOL0     H 4022  10.783   5.984   4.380  1.3481 -1.5856  1.1130
  771MOL0     H 4023  10.886   6.036   4.240 -2.0634  2.3356  0.3964
  771MOL0     H 4024  10.931   5.814   4.183  2.2631 -1.3874  1.6354
  771MOL0     H 4025  10.796   5.756   4.277  2.5886 -1.2143 -3.0017
  771MOL0     H 4026  11.060   5.881   4.383 -0.3943  0.6672  0.0090
  771MOL0     H 4027  10.925   5.854   4.482  1.0047 -1.4289  0.1777
  771MOL0     H 4028  11.067   5.671   4.516  0.3221  2.9234 -0.0628
  771MOL0     H 4029  10.930   5.600   4.425  3.2313 -3.2299  2.7589
  771MOL0     H 4030  11.072   5.642   4.220 -0.6584 -0.7508 -0.6745
  771MOL0     H 4031  11.212   5.665   4.306 -0.4035 -1.2396 -3.9859
  771MOL0     H 4032  11.048   5.406   4.344 -0.1548  1.2460  0.2358
  771MOL0     H 4033  11.200   5.436   4.407 -1.2623 -1.0288  0.3646
  771MOL0     H 4034  11.131   5.445   4.113 -0.8420  2.1441  1.0741
  771MOL0     H 4035  11.300   5.455   4.168  0.4152  0.3982  0.6713
  771MOL0     H 4036  11.431   5.252   4.226  0.7755 -0.1632 -1.3142
  771MOL0     H 4037  11.396   4.894   4.137 -1.6931  0.8320  0.2745
  771MOL0     H 4038  11.512   5.002   4.208 -0.8850  1.8050 -1.2496
  771MOL0     H 4039  11.496   4.877   4.406 -0.9475 -1.8379  2.0080
  771MOL0     H 4040  11.339   4.955   4.419 -0.3371  1.2381 -1.6735
  771MOL0     H 4041  11.370   4.697   4.433 -1.6266  1.3236 -0.1428
  771MOL0     H 4042  11.407   4.694   4.259 -0.2794  0.0014 -1.2930
  771MOL0     H 4043  11.191   4.786   4.198 -2.5705 -1.9139 -0.7717
  771MOL0     H 4044  11.140   4.796   4.368 -0.8232  1.5115 -2.0381
  771MOL0     H 4045  11.106   4.366   4.264 -0.5103 -0.7694  0.4599
  771MOL0     H 4046  10.899   4.273   4.187 -0.5484 -0.0680  3.0011
  771MOL0     H 4047  10.535   4.053   4.018  1.0165  1.6364  2.3428
  771MOL0     H 4048  10.317   4.005   3.922  3.2001 -1.5400  0.0819
  771MOL0     H 4049  10.029   4.285   3.866  0.6774  1.2630  0.7194
  771MOL0     H 4050  10.108   4.338   3.703  0.1394 -0.9289 -0.2691
  771MOL0     H 4051   9.869   4.281   3.670 -0.2505 -1.6185 -1.3328
  771MOL0     H 4052   9.992   4.179   3.591  0.4352 -0.4718  0.6717
  771MOL0     H 4053   9.964   4.007   3.753 -0.1213 -0.1434 -1.5680
  771MOL0     H 4054   9.842   4.080   3.845  2.7348  1.6134  2.7294
  771MOL0     H 4055   9.797   4.016   3.535 -0.4362  0.8374 -1.6567
  771MOL0     H 4056   9.698   4.119   3.621 -0.0484  0.2005  1.1244
  771MOL0     H 4057   9.593   3.905   3.643  0.2391 -1.2273 -0.1979
  771MOL0     H 4058   9.682   3.931   3.802 -1.5365 -0.8038 -0.4079
  771MOL0     H 4059   9.779   3.764   3.561  1.3684  0.1482 -0.2884
  771MOL0     H 4060   9.860   3.778   3.714 -0.0698 -3.9696 -0.1858
  771MOL0     H 4061   9.567   3.681   3.694  0.7609 -2.8430 -0.5146
  771MOL0     H 4062   9.664   3.708   3.846 -0.4185 -1.3614  0.8900
  771MOL0     H 4063   9.826   3.553   3.738  0.0473  1.4859 -2.8974
  771MOL0     H 4064   9.663   3.466   3.790 -0.8525  0.1636 -1.2583
  771MOL0     H 4065  10.294   4.392   3.761  1.5677  1.2675 -0.1200
  771MOL0     H 4066  10.504   4.459   3.865  1.3039 -0.5495  1.2926
  771MOL0     H 4067  10.773   4.671   4.093 -0.6224  0.0689  0.0089
  771MOL0     H 4068  10.983   4.762   4.151 -0.7369 -0.1491  0.0907
  771MOL0     H 4069  10.688   6.296   4.402 -0.6887  0.9021  0.1667
  771MOL0     H 4070  10.550   6.348   4.591 -0.1609  2.0768 -2.7579
  771MOL0     H 4071  10.212   6.072   4.843 -0.0850 -0.0797  0.0330
  771MOL0     H 4072  10.182   6.069   5.092  0.0009 -0.6358 -0.6327
  771MOL0     H 4073  10.015   6.162   5.398  0.0764 -1.9896 -0.5755
  771MOL0     H 4074  10.110   6.079   5.276  1.3728 -0.3951  0.6990
  771MOL0     H 4075   9.839   6.035   5.307 -0.1130 -1.3443 -1.4629
  771MOL0     H 4076   9.904   6.021   5.149 -1.5030  2.9227 -3.3733
  771MOL0     H 4077   9.832   6.258   5.092  1.1358  0.9309  1.4654
  771MOL0     H 4078   9.755   6.269   5.246 -3.3639  1.0416 -0.8451
  771MOL0     H 4079   9.585   6.190   5.070 -1.4965 -0.4288  1.1045
  771MOL0     H 4080   9.695   6.056   5.025  1.2220 -1.2290  0.8830
  771MOL0     H 4081   9.487   5.891   5.352 -2.6016  1.8333  0.1846
  771MOL0     H 4082  10.072   6.482   5.068  0.3343  1.2914 -1.5121
  771MOL0     H 4083  10.198   6.620   4.910  1.0275 -0.1784  0.8044
  771MOL0     H 4084  10.263   6.559   4.761  0.2152 -1.4552  0.5841
  771MOL0     H 4085  10.093   6.585   4.768 -0.8836  3.0530  4.8297
  772MOL0     O 4086   8.371   6.380   9.212  0.1772 -0.0550  0.3151
  772MOL0     C 4087   8.440   6.328   9.299 -0.1741 -0.6209  0.5813
  772MOL0     O 4088   8.579   6.296   9.295  0.2123 -0.2972  0.7502
  772MOL0     C 4089   8.648   6.322   9.177 -0.4970  0.4136  0.0380
  772MOL0     C 4090   8.727   6.220   9.113 -0.3739 -0.2410  0.8560
  772MOL0     C 4091   8.806   6.259   9.000 -0.3453  0.5292 -0.9564
  772MOL0     C 4092   8.796   6.387   8.948  0.7562  0.9864 -0.6840
  772MOL0     O 4093   8.893   6.424   8.856  0.1365 -0.2139 -0.0353
  772MOL0     C 4094   8.867   6.539   8.775 -0.1164 -0.0203  0.9472
  772MOL0     C 4095   8.974   6.553   8.659 -0.4982  0.2335 -0.5756
  772MOL0     C 4096   9.096   6.639   8.694 -0.5696 -0.4402 -0.0643
  772MOL0     C 4097   9.084   6.780   8.650  0.7299 -0.6338 -0.0279
  772MOL0     C 4098   9.224   6.866   8.648  1.5844  0.3984 -0.5294
  772MOL0     C 4099   9.189   6.979   8.558 -0.8185 -0.8608  0.4689
  772MOL0     C 4100   9.324   7.058   8.538  0.4782  0.6915  0.4910
  772MOL0     C 4101   9.319   7.163   8.433 -0.0439  0.7894  0.0785
  772MOL0     N 4102   9.449   7.233   8.425 -0.2825 -0.1786 -0.2154
  772MOL0     C 4103   9.461   7.349   8.367 -0.6358  0.5932 -0.0610
  772MOL0     C 4104   9.589   7.390   8.391  0.5874  0.1908 -0.1276
  772MOL0     C 4105   9.647   7.522   8.342 -0.1423 -0.2082 -0.7882
  772MOL0     C 4106   9.674   7.540   8.186 -0.8901  0.3870 -0.7727
  772MOL0     C 4107   9.775   7.443   8.115 -0.1885 -0.5675  0.0646
  772MOL0     C 4108   9.920   7.471   8.147  0.1677  0.4968 -0.2884
  772MOL0     O 4109   9.978   7.343   8.173  0.4473  0.3941 -0.0360
  772MOL0     C 4110  10.021   7.260   8.072  0.7591 -0.0948  0.2398
  772MOL0     C 4111  10.019   7.295   7.940  1.2413  0.0753 -0.4893
  772MOL0     C 4112  10.074   7.209   7.849  0.8707 -0.0567  0.1048
  772MOL0     C 4113  10.136   7.091   7.888 -0.2846 -0.0294 -0.3395
  772MOL0     C 4114  10.212   7.012   7.790 -0.4232 -0.0942  0.7307
  772MOL0     O 4115  10.286   6.902   7.833  0.5221  0.2258 -0.6954
  772MOL0     C 4116  10.361   6.837   7.739  0.1697  0.0024 -0.0962
  772MOL0     C 4117  10.308   6.781   7.618 -0.2292  0.7360  0.3749
  772MOL0     C 4118  10.384   6.708   7.530  0.6358 -0.0047  0.5456
  772MOL0     C 4119  10.521   6.674   7.548  0.3246  0.1979  0.4054
  772MOL0     O 4120  10.594   6.589   7.466  0.3062  0.4111  0.1717
  772MOL0     C 4121  10.562   6.599   7.324 -0.2484 -0.7410 -0.9277
  772MOL0     C 4122  10.682   6.540   7.249 -0.5122  0.4818  0.3323
  772MOL0     C 4123  10.684   6.583   7.104 -0.6992 -0.4939 -0.0012
  772MOL0     C 4124  10.781   6.495   7.037  0.1107  0.7577  0.1248
  772MOL0     C 4125  10.799   6.537   6.901 -0.7911 -0.2032 -0.1898
  772MOL0     C 4126  10.870   6.428   6.823 -0.6472  0.4808 -0.0827
  772MOL0     C 4127  10.873   6.461   6.678  0.3180 -0.1646 -0.5449
  772MOL0     C 4128  10.916   6.355   6.576 -0.4723 -0.4143  0.2481
  772MOL0    Cl 4129  11.095   6.331   6.601 -0.3771 -0.1661  0.2782
  772MOL0     C 4130  10.573   6.741   7.653  1.0758 -0.6416  0.6194
  772MOL0     C 4131  10.498   6.823   7.748 -0.2419 -0.4296 -0.4251
  772MOL0     O 4132  10.196   7.049   7.676  0.3297 -0.5308 -0.0170
  772MOL0     C 4133  10.137   7.052   8.025  0.0065 -0.7993  0.5635
  772MOL0     C 4134  10.076   7.139   8.118  0.8334  0.6846 -0.6179
  772MOL0     N 4135   9.651   7.285   8.456 -0.4832 -1.2815 -0.1396
  772MOL0     N 4136   9.569   7.182   8.466 -0.0404 -0.3434 -0.5850
  772MOL0     C 4137   8.719   6.487   9.019 -1.0734 -0.7895 -0.1315
  772MOL0     C 4138   8.657   6.456   9.137 -0.4039  0.5571 -1.1262
  772MOL0     C 4139   8.379   6.307   9.438 -0.8744 -1.1120  0.1390
  772MOL0     C 4140   8.286   6.407   9.485 -0.5980  0.5627 -0.3164
  772MOL0     C 4141   8.225   6.402   9.611  0.3803 -0.1811  0.6955
  772MOL0     C 4142   8.260   6.287   9.689  0.1544 -0.3103 -0.3756
  772MOL0     O 4143   8.240   6.275   9.828  0.0832  0.4497  0.1484
  772MOL0     C 4144   8.173   6.379   9.893  0.5634 -0.8289 -0.5926
  772MOL0     C 4145   8.210   6.370  10.039 -0.0283 -0.0691 -0.2006
  772MOL0     C 4146   8.145   6.243  10.107  0.5272 -0.1022  0.0769
  772MOL0     C 4147   8.177   6.238  10.256 -0.3779  0.2461 -0.9174
  772MOL0     C 4148   8.118   6.345  10.335 -0.1528 -0.1251  0.1452
  772MOL0     C 4149   8.069   6.430  10.402  0.1049  0.2679 -0.0693
  772MOL0     C 4150   8.354   6.190   9.648 -0.7823 -0.6062 -0.7709
  772MOL0     C 4151   8.407   6.194   9.513 -0.6768  0.2782 -0.8715
  772MOL0     C 4152   8.499   6.087   9.472  0.0989  0.8069 -0.8380
  772MOL0     H 4153   8.724   6.120   9.155  0.4994 -0.6815 -0.1121
  772MOL0     H 4154   8.861   6.183   8.945 -0.1481  1.8706 -2.7389
  772MOL0     H 4155   8.773   6.522   8.723 -0.2382 -0.8147  1.4239
  772MOL0     H 4156   8.852   6.633   8.830  1.7060  0.7048  0.3046
  772MOL0     H 4157   8.927   6.583   8.565 -0.2941  1.1658 -0.3933
  772MOL0     H 4158   9.013   6.452   8.643  1.2369  0.3713  2.2128
  772MOL0     H 4159   9.191   6.599   8.658  0.6164 -0.2563  2.6014
  772MOL0     H 4160   9.099   6.644   8.803  0.0162 -1.1475 -0.0406
  772MOL0     H 4161   9.054   6.765   8.546 -0.1252  0.8735 -0.0221
  772MOL0     H 4162   8.996   6.819   8.702  0.7513 -1.2287  0.4741
  772MOL0     H 4163   9.268   6.887   8.746  2.7579 -1.2057 -0.6672
  772MOL0     H 4164   9.297   6.798   8.602  4.2842  0.0715  3.6834
  772MOL0     H 4165   9.157   6.939   8.461 -0.2674 -1.7768  0.6557
  772MOL0     H 4166   9.118   7.051   8.599  1.1741  0.8764  1.0411
  772MOL0     H 4167   9.401   6.983   8.519  1.7038  1.7398  1.1514
  772MOL0     H 4168   9.347   7.090   8.640  0.5961  0.6920  0.4648
  772MOL0     H 4169   9.294   7.106   8.343  1.5689 -0.6426  0.4691
  772MOL0     H 4170   9.234   7.230   8.451 -1.7265 -1.5165  1.1747
  772MOL0     H 4171   9.382   7.395   8.309 -1.3630 -0.4221  0.1014
  772MOL0     H 4172   9.568   7.593   8.371  3.1087  2.2332  3.2531
  772MOL0     H 4173   9.730   7.563   8.400 -2.4967  1.2686  1.8140
  772MOL0     H 4174   9.575   7.533   8.141 -1.5306  0.6821  0.5536
  772MOL0     H 4175   9.707   7.643   8.170 -0.2124 -0.0235 -2.2578
  772MOL0     H 4176   9.758   7.457   8.008 -0.5516 -0.1865  0.1705
  772MOL0     H 4177   9.753   7.340   8.145  1.6732 -1.0716 -0.1667
  772MOL0     H 4178   9.930   7.528   8.240 -0.8859  2.4471 -1.3151
  772MOL0     H 4179   9.960   7.526   8.061 -1.2728 -0.8585 -1.9096
  772MOL0     H 4180   9.983   7.393   7.910  0.0556  0.2893  1.4950
  772MOL0     H 4181  10.072   7.230   7.743 -0.1564  0.5644  0.2366
  772MOL0     H 4182  10.203   6.778   7.591 -0.4155 -2.1734  1.1143
  772MOL0     H 4183  10.334   6.652   7.451  0.1684  1.9182 -0.5671
  772MOL0     H 4184  10.469   6.545   7.304 -0.8159 -0.3764  0.5886
  772MOL0     H 4185  10.536   6.703   7.303 -1.4388 -1.3206 -2.5426
  772MOL0     H 4186  10.771   6.571   7.305  0.1972 -0.3258 -0.3198
  772MOL0     H 4187  10.676   6.433   7.267  1.7662  0.3580  0.6873
  772MOL0     H 4188  10.584   6.577   7.061  0.0587  0.0812 -1.9705
  772MOL0     H 4189  10.719   6.685   7.082 -0.9891  0.1982  2.4545
  772MOL0     H 4190  10.733   6.397   7.032 -0.3955  1.0150 -4.0011
  772MOL0     H 4191  10.868   6.487   7.103 -1.5770 -1.2287  2.2754
  772MOL0     H 4192  10.854   6.632   6.904  1.8970 -1.5459 -2.2069
  772MOL0     H 4193  10.699   6.553   6.858 -0.4864  0.4569 -0.6818
  772MOL0     H 4194  10.967   6.400   6.865 -0.6313  1.3409  0.4925
  772MOL0     H 4195  10.805   6.341   6.833 -1.1453  0.8661  0.1387
  772MOL0     H 4196  10.946   6.542   6.661 -2.6839  2.3933 -2.2825
  772MOL0     H 4197  10.783   6.512   6.644  0.2801  0.5975  0.6636
  772MOL0     H 4198  10.852   6.268   6.591 -3.8556  2.0673  1.4192
  772MOL0     H 4199  10.904   6.388   6.473 -0.2736 -0.6163  0.1597
  772MOL0     H 4200  10.678   6.726   7.675  0.7679 -0.4312  2.4261
  772MOL0     H 4201  10.549   6.856   7.838  0.9174 -0.0637 -1.1965
  772MOL0     H 4202  10.169   6.953   8.057  1.4179 -2.0880 -3.9389
  772MOL0     H 4203  10.071   7.115   8.224  2.1913 -0.8734 -0.8650
  772MOL0     H 4204   8.739   6.591   8.996  1.9278 -0.9461  1.2216
  772MOL0     H 4205   8.617   6.528   9.208  1.0253 -1.4558  1.9228
  772MOL0     H 4206   8.262   6.496   9.428  1.0476  2.5184  1.8485
  772MOL0     H 4207   8.164   6.485   9.643  1.7732  0.2714  2.3602
  772MOL0     H 4208   8.064   6.376   9.892  0.2132  2.2409  3.4484
  772MOL0     H 4209   8.199   6.482   9.866 -1.3135 -0.8361 -2.7932
  772MOL0     H 4210   8.189   6.466  10.086 -1.9007 -0.1259 -0.8438
  772MOL0     H 4211   8.318   6.350  10.034 -0.5643 -3.2114 -2.4522
  772MOL0     H 4212   8.187   6.159  10.052  0.6248  1.3219 -2.1571
  772MOL0     H 4213   8.036   6.250  10.102  0.6257  1.6701 -0.5146
  772MOL0     H 4214   8.146   6.141  10.297  0.5730  1.3730  2.8478
  772MOL0     H 4215   8.286   6.242  10.268 -0.2679 -2.7693 -0.1468
  772MOL0     H 4216   8.016   6.487  10.475  0.0001 -4.2066  3.8133
  772MOL0     H 4217   8.393   6.115   9.716 -1.3272  1.2375  1.7314
  772MOL0     H 4218   8.461   5.992   9.511 -0.8224  1.3916 -0.2773
  772MOL0     H 4219   8.490   6.072   9.364 -0.8585 -3.7111 -0.3475
  772MOL0     H 4220   8.605   6.098   9.499  0.1345  1.4709 -1.2253
  773MOL0     O 4221   9.987   8.937   4.638 -0.2774 -0.2536 -0.2983
  773MOL0     C 4222  10.044   8.830   4.624 -0.3763  0.1280  0.2457
  773MOL0     O 4223  10.060   8.758   4.515  0.6550 -0.5462 -0.3352
  773MOL0     C 4224   9.991   8.807   4.412 -1.0747 -0.4038 -0.7896
  773MOL0     C 4225  10.052   8.878   4.314  0.5271  0.0652 -0.3556
  773MOL0     C 4226   9.989   8.917   4.202  1.2511 -0.3153  0.5829
  773MOL0     C 4227   9.860   8.875   4.170  0.9108 -0.3303  1.2623
  773MOL0     O 4228   9.820   8.900   4.041  1.4917  0.0443 -0.3559
  773MOL0     C 4229   9.678   8.926   4.033 -0.7257  0.2235 -0.6632
  773MOL0     C 4230   9.642   9.020   3.922  0.1182 -0.2183 -1.2591
  773MOL0     C 4231   9.505   9.075   3.951 -0.5704 -0.0044 -0.5236
  773MOL0     C 4232   9.469   9.176   3.844 -0.5693 -0.0182 -0.4662
  773MOL0     C 4233   9.322   9.215   3.849  1.2680 -0.0246 -0.1392
  773MOL0     C 4234   9.290   9.346   3.776  0.0045  0.3866 -0.1934
  773MOL0     C 4235   9.141   9.385   3.776 -1.5109 -0.1301  0.4370
  773MOL0     C 4236   9.081   9.293   3.665 -0.0565  0.6886  0.4235
  773MOL0     N 4237   8.935   9.325   3.639 -0.1983  0.4841  0.7230
  773MOL0     C 4238   8.857   9.436   3.692  0.3703  0.9428  1.5437
  773MOL0     C 4239   8.735   9.424   3.632  0.2979  1.0079  0.2688
  773MOL0     C 4240   8.622   9.523   3.647 -0.2611  0.2668 -0.0409
  773MOL0     C 4241   8.521   9.481   3.754 -0.5662  1.1675  0.9065
  773MOL0     C 4242   8.413   9.374   3.712 -0.1452  0.3901  1.0649
  773MOL0     C 4243   8.311   9.428   3.601  0.0589  0.4050 -0.1055
  773MOL0     O 4244   8.210   9.510   3.652  0.0479  0.3150  0.3831
  773MOL0     C 4245   8.116   9.567   3.569  0.8158  0.0202  0.0285
  773MOL0     C 4246   8.104   9.549   3.429  0.4239 -0.0723  0.2899
  773MOL0     C 4247   8.007   9.618   3.359  0.9421 -0.0777 -0.3885
  773MOL0     C 4248   7.922   9.714   3.421  0.2806 -0.2994  0.2057
  773MOL0     C 4249   7.816   9.797   3.347 -0.6897  2.5261 -0.0803
  773MOL0     O 4250   7.744   9.888   3.422  0.4021  0.6205  0.2455
  773MOL0     C 4251   7.652   9.963   3.352 -0.8392 -0.2361  0.2608
  773MOL0     C 4252   7.691  10.060   3.259 -0.4138 -0.3925  0.1755
  773MOL0     C 4253   7.594  10.146   3.195  0.5883 -0.0273 -0.4460
  773MOL0     C 4254   7.459  10.129   3.229 -0.8413  0.2021 -0.4346
  773MOL0     O 4255   7.360  10.208   3.174 -0.2691  0.7018 -0.3611
  773MOL0     C 4256   7.280  10.138   3.071 -0.9805  0.5346 -0.7866
  773MOL0     C 4257   7.355  10.157   2.931  0.4999  0.4210 -0.4990
  773MOL0     C 4258   7.354  10.300   2.866  0.1478  0.5528  0.1722
  773MOL0     C 4259   7.442  10.397   2.938  0.2002 -0.4612 -0.9161
  773MOL0     C 4260   7.464  10.516   2.848 -0.4443  0.6553 -1.6550
  773MOL0     C 4261   7.607  10.579   2.864  0.2094  0.5606  0.7934
  773MOL0     C 4262   7.624  10.697   2.767  0.1417 -0.0888  0.0466
  773MOL0     C 4263   7.718  10.806   2.818 -0.2896  0.5967  0.2484
  773MOL0    Cl 4264   7.698  10.960   2.725 -0.3571 -0.4938 -0.4905
  773MOL0     C 4265   7.424  10.036   3.331 -0.1555 -0.1550  0.9898
  773MOL0     C 4266   7.517   9.949   3.391  0.2770 -0.0981  1.4965
  773MOL0     O 4267   7.809   9.777   3.230  0.6506  0.1680  0.4458
  773MOL0     C 4268   7.936   9.728   3.557 -0.2499 -0.0103  0.6258
  773MOL0     C 4269   8.023   9.653   3.633  0.0296  0.1535 -0.3393
  773MOL0     N 4270   8.740   9.310   3.557 -0.0185 -0.2666  0.2691
  773MOL0     N 4271   8.850   9.251   3.554 -0.9808 -0.9014  0.0065
  773MOL0     C 4272   9.795   8.792   4.264 -0.0137  0.4356  0.9584
  773MOL0     C 4273   9.860   8.760   4.390  0.2679  1.0428  0.2746
  773MOL0     C 4274  10.101   8.773   4.741 -0.4293  0.1602 -1.0693
  773MOL0     C 4275  10.242   8.768   4.750 -0.6306 -0.8934 -1.0578
  773MOL0     C 4276  10.299   8.729   4.875  0.2143 -0.7348  0.4073
  773MOL0     C 4277  10.225   8.673   4.985 -0.2319  0.0959  0.7004
  773MOL0     O 4278  10.281   8.614   5.085  0.2018  0.5123  0.0726
  773MOL0     C 4279  10.250   8.472   5.078 -0.2672  0.1700  0.3023
  773MOL0     C 4280  10.372   8.401   5.028  0.5432  0.0545 -0.5392
  773MOL0     C 4281  10.483   8.411   5.135  0.6916  0.3958  0.6484
  773MOL0     C 4282  10.620   8.386   5.062 -0.1531  0.5234 -0.6241
  773MOL0     C 4283  10.701   8.310   5.159 -0.4656 -0.3305 -0.4434
  773MOL0     C 4284  10.768   8.259   5.247  0.3001  0.1392 -0.5431
  773MOL0     C 4285  10.088   8.671   4.959  0.0153 -0.2813 -0.4494
  773MOL0     C 4286  10.022   8.727   4.843 -0.2394 -0.4423  0.9730
  773MOL0     C 4287   9.874   8.707   4.815 -0.2115 -0.5765 -0.2024
  773MOL0     H 4288  10.155   8.903   4.337  0.7631 -1.1381 -0.0370
  773MOL0     H 4289  10.039   8.978   4.128  0.3329 -1.8121 -1.3741
  773MOL0     H 4290   9.619   8.835   4.021  0.1909 -0.2321 -1.9125
  773MOL0     H 4291   9.641   8.966   4.128 -1.2534 -1.8417  0.0658
  773MOL0     H 4292   9.643   8.973   3.823 -1.5145 -0.4670 -1.1849
  773MOL0     H 4293   9.718   9.098   3.932 -1.1510  0.9174 -0.0494
  773MOL0     H 4294   9.495   9.124   4.048 -1.6125 -3.5272  1.2955
  773MOL0     H 4295   9.430   8.996   3.962 -1.1905  0.5393 -0.6988
  773MOL0     H 4296   9.536   9.263   3.848 -1.6334  0.7884  2.7042
  773MOL0     H 4297   9.484   9.127   3.747 -1.1972  0.9136 -1.0494
  773MOL0     H 4298   9.269   9.129   3.807 -0.2797 -0.1457  1.9148
  773MOL0     H 4299   9.290   9.236   3.951  1.6704 -0.4101  0.0696
  773MOL0     H 4300   9.348   9.428   3.819 -0.3039  2.5410 -3.5495
  773MOL0     H 4301   9.333   9.342   3.676  1.2692  1.6239  0.2701
  773MOL0     H 4302   9.134   9.488   3.740 -1.6533 -0.9569 -2.0978
  773MOL0     H 4303   9.081   9.367   3.866 -1.6318  1.9230  0.8222
  773MOL0     H 4304   9.138   9.302   3.572  1.4744 -1.0618  1.1210
  773MOL0     H 4305   9.088   9.195   3.712 -0.3560  1.2916  1.7567
  773MOL0     H 4306   8.896   9.520   3.749  3.4062  0.3437  0.5549
  773MOL0     H 4307   8.674   9.616   3.671  0.3343 -0.1156  0.1708
  773MOL0     H 4308   8.570   9.534   3.551  0.9717 -2.6208 -1.1363
  773MOL0     H 4309   8.579   9.439   3.837  0.5585 -3.0895 -1.7656
  773MOL0     H 4310   8.468   9.571   3.790 -0.4921  2.7120 -2.4862
  773MOL0     H 4311   8.359   9.341   3.801  1.9057 -2.6901  1.3369
  773MOL0     H 4312   8.465   9.287   3.672 -1.3177 -0.1716  0.7278
  773MOL0     H 4313   8.258   9.351   3.543 -1.8151  2.7237 -1.6748
  773MOL0     H 4314   8.364   9.486   3.524  1.7512 -0.4019  0.4022
  773MOL0     H 4315   8.174   9.478   3.386 -1.2799 -3.1091  2.1604
  773MOL0     H 4316   8.003   9.608   3.251  2.6748  2.3346 -0.7501
  773MOL0     H 4317   7.798  10.073   3.248 -0.7143  1.4828 -0.9882
  773MOL0     H 4318   7.621  10.210   3.112 -2.2492 -0.8967 -2.2082
  773MOL0     H 4319   7.272  10.031   3.093 -2.6688  0.2814 -2.3426
  773MOL0     H 4320   7.179  10.179   3.077  0.3283  4.1266 -1.2316
  773MOL0     H 4321   7.455  10.113   2.926 -0.4288 -2.0836  1.0942
  773MOL0     H 4322   7.299  10.096   2.859 -1.6071 -1.1200  2.2582
  773MOL0     H 4323   7.389  10.292   2.763 -1.2298 -3.5476 -0.1555
  773MOL0     H 4324   7.253  10.342   2.869  0.1177  0.5089 -0.1996
  773MOL0     H 4325   7.541  10.352   2.953  0.5490  0.7668  0.7739
  773MOL0     H 4326   7.411  10.414   3.042  1.0076 -2.0723 -0.3812
  773MOL0     H 4327   7.391  10.590   2.881  1.8485  0.8363  4.1420
  773MOL0     H 4328   7.450  10.485   2.744 -1.6184 -0.1578 -1.2768
  773MOL0     H 4329   7.615  10.613   2.967  1.3938 -1.4984  1.4532
  773MOL0     H 4330   7.685  10.504   2.847 -0.0714  0.3367  0.4745
  773MOL0     H 4331   7.526  10.743   2.773  0.8992  1.3661  3.5000
  773MOL0     H 4332   7.648  10.669   2.664  0.4481  0.0849  0.0699
  773MOL0     H 4333   7.688  10.823   2.921 -1.8819  0.6604 -0.1973
  773MOL0     H 4334   7.819  10.764   2.812 -1.4091 -2.3158  0.1450
  773MOL0     H 4335   7.317  10.024   3.347 -0.0067 -1.5084  1.0944
  773MOL0     H 4336   7.483   9.868   3.454 -3.8509 -1.6759 -2.1830
  773MOL0     H 4337   7.872   9.804   3.600 -0.1528  0.7289 -0.4972
  773MOL0     H 4338   8.035   9.656   3.740  1.9381 -0.8417 -0.4789
  773MOL0     H 4339   9.693   8.762   4.244  0.6471  0.0701 -2.4964
  773MOL0     H 4340   9.817   8.692   4.462  1.1833  1.0466  0.8370
  773MOL0     H 4341  10.306   8.810   4.672  1.4160  1.0318  1.4711
  773MOL0     H 4342  10.407   8.731   4.887  0.6439  1.5343 -2.6835
  773MOL0     H 4343  10.168   8.435   5.016 -0.3551 -2.3429  1.7895
  773MOL0     H 4344  10.219   8.430   5.174 -1.7832 -0.5624 -0.4895
  773MOL0     H 4345  10.407   8.446   4.935 -0.3411 -1.9854 -1.9338
  773MOL0     H 4346  10.338   8.298   5.016 -0.8275  0.2041  1.4726
  773MOL0     H 4347  10.466   8.346   5.222 -0.7085  1.7302  1.4103
  773MOL0     H 4348  10.486   8.512   5.175 -3.0912  1.0026 -0.2758
  773MOL0     H 4349  10.600   8.327   4.972  0.6048  0.8994 -1.0392
  773MOL0     H 4350  10.667   8.482   5.042 -0.0430  0.5443 -0.2679
  773MOL0     H 4351  10.812   8.210   5.331 -1.1472 -1.4631 -0.6656
  773MOL0     H 4352  10.011   8.646   5.031 -2.6703  0.4145 -2.9078
  773MOL0     H 4353   9.860   8.656   4.720  0.5787 -2.3866  0.5886
  773MOL0     H 4354   9.840   8.635   4.891  1.1443 -0.8512  0.1778
  773MOL0     H 4355   9.819   8.799   4.838  1.0944 -0.9238  6.5808
  774MOL0     O 4356   7.720   8.206   3.225 -0.0257  0.0979  0.3781
  774MOL0     C 4357   7.799   8.116   3.200  0.1074  0.3596 -0.1890
  774MOL0     O 4358   7.881   8.060   3.294  0.3106 -0.5931 -0.0860
  774MOL0     C 4359   7.836   8.071   3.426  0.6838  0.5823 -0.7836
  774MOL0     C 4360   7.839   8.197   3.491 -0.5693  0.6066  0.0047
  774MOL0     C 4361   7.785   8.216   3.617 -0.5440 -1.2924  0.8308
  774MOL0     C 4362   7.724   8.114   3.687 -0.9787  0.0514  0.2306
  774MOL0     O 4363   7.650   8.125   3.798  0.5893  0.9756 -0.0055
  774MOL0     C 4364   7.596   8.250   3.816 -0.0376 -0.2217  0.6318
  774MOL0     C 4365   7.503   8.253   3.946 -1.0480  0.4173  0.9211
  774MOL0     C 4366   7.373   8.164   3.945 -0.3800  0.1490  0.0232
  774MOL0     C 4367   7.388   8.015   3.943 -0.0515 -0.7366 -0.1471
  774MOL0     C 4368   7.245   7.959   3.964 -1.2623  0.0596  0.0520
  774MOL0     C 4369   7.246   7.800   3.929  1.3724 -0.1429 -0.5666
  774MOL0     C 4370   7.130   7.744   3.992  1.3701  0.7083 -1.0954
  774MOL0     C 4371   7.138   7.708   4.140  0.3377  0.1174 -0.0216
  774MOL0     N 4372   7.273   7.701   4.193  0.0824 -0.6068 -0.1236
  774MOL0     C 4373   7.350   7.591   4.192 -0.3246  0.0083 -0.2240
  774MOL0     C 4374   7.459   7.619   4.264  0.2142  0.3991  0.1122
  774MOL0     C 4375   7.571   7.522   4.281 -0.4806  1.1159  0.4270
  774MOL0     C 4376   7.531   7.375   4.323 -0.4986 -0.5067  0.1698
  774MOL0     C 4377   7.635   7.276   4.377  0.9280 -0.0099  0.3141
  774MOL0     C 4378   7.564   7.139   4.391  0.4534  0.4096  0.1486
  774MOL0     O 4379   7.480   7.131   4.513 -0.7770  0.7478 -0.5347
  774MOL0     C 4380   7.438   7.006   4.548 -0.6254  0.0201  0.3048
  774MOL0     C 4381   7.376   6.993   4.670 -0.0979  0.2092  0.1149
  774MOL0     C 4382   7.330   6.868   4.716  0.2001  0.3862 -0.2046
  774MOL0     C 4383   7.329   6.753   4.627  0.0235  0.1520  0.0223
  774MOL0     C 4384   7.276   6.625   4.672  0.6540 -0.2417 -0.4250
  774MOL0     O 4385   7.218   6.550   4.570  0.2051  0.2242  0.4517
  774MOL0     C 4386   7.115   6.460   4.605 -0.2717 -0.7595  0.2497
  774MOL0     C 4387   7.125   6.350   4.694  0.7260 -0.5811  0.4233
  774MOL0     C 4388   7.017   6.267   4.713 -0.2255  0.0556 -0.8711
  774MOL0     C 4389   6.893   6.291   4.651 -0.5936  0.5913  0.2518
  774MOL0     O 4390   6.785   6.206   4.671 -0.3861  0.2085  0.2085
  774MOL0     C 4391   6.757   6.111   4.569 -0.3320  1.1637  0.5871
  774MOL0     C 4392   6.821   5.975   4.605  0.1899  0.0163  0.1964
  774MOL0     C 4393   6.845   5.888   4.482  0.9541  0.0541 -1.0991
  774MOL0     C 4394   6.722   5.786   4.463  0.8903  0.2853 -0.7544
  774MOL0     C 4395   6.708   5.703   4.331  0.6055 -0.2736 -0.0031
  774MOL0     C 4396   6.729   5.790   4.207 -0.4273  0.5862 -0.8213
  774MOL0     C 4397   6.624   5.907   4.213 -0.0370  0.4295 -0.4153
  774MOL0     C 4398   6.578   5.943   4.072 -0.3207 -0.1583  0.0564
  774MOL0    Cl 4399   6.470   6.087   4.095  0.0002  0.4995  0.6356
  774MOL0     C 4400   6.884   6.397   4.563  0.8678 -0.6861 -0.7336
  774MOL0     C 4401   6.994   6.471   4.534  0.1261 -0.3924  0.4702
  774MOL0     O 4402   7.301   6.585   4.785 -0.1597 -0.7399  0.8805
  774MOL0     C 4403   7.400   6.765   4.506 -0.3886 -0.3892 -0.4274
  774MOL0     C 4404   7.455   6.885   4.469  0.2512 -0.0516 -0.1036
  774MOL0     N 4405   7.444   7.746   4.312  0.1379 -0.1553 -0.6003
  774MOL0     N 4406   7.329   7.794   4.274 -0.4052  1.5908  0.3982
  774MOL0     C 4407   7.731   7.990   3.634  0.3600 -0.6498 -0.1983
  774MOL0     C 4408   7.780   7.964   3.503 -0.2852  0.8701 -0.4976
  774MOL0     C 4409   7.822   8.107   3.053 -0.3661  0.0144 -0.4458
  774MOL0     C 4410   7.958   8.104   3.012 -0.8252  0.1359  0.6782
  774MOL0     C 4411   7.998   8.093   2.876  0.3910 -0.5290 -0.6511
  774MOL0     C 4412   7.903   8.081   2.779 -0.2249  0.3443 -1.0390
  774MOL0     O 4413   7.949   8.067   2.648 -0.1052 -0.3773  0.1294
  774MOL0     C 4414   7.847   8.054   2.542 -0.3853 -1.1225  0.0164
  774MOL0     C 4415   7.922   8.033   2.413  0.3434  0.2099 -0.3484
  774MOL0     C 4416   7.837   8.062   2.295 -0.5732 -0.2410 -0.7932
  774MOL0     C 4417   7.916   8.083   2.169  0.0902  0.3021 -0.6059
  774MOL0     C 4418   7.824   8.100   2.049  1.0997 -0.7351 -0.1023
  774MOL0     C 4419   7.749   8.123   1.955 -0.1772  0.3014  0.3470
  774MOL0     C 4420   7.765   8.096   2.814  0.2676 -0.2427 -0.0538
  774MOL0     C 4421   7.722   8.103   2.948  0.1611 -0.1363 -0.0800
  774MOL0     C 4422   7.572   8.107   2.969  0.3965  0.1846 -0.4638
  774MOL0     H 4423   7.873   8.288   3.444  3.9570  0.2967  2.1414
  774MOL0     H 4424   7.779   8.316   3.657 -1.7373 -1.7911  1.9787
  774MOL0     H 4425   7.675   8.323   3.841 -1.0408  1.7517 -1.5758
  774MOL0     H 4426   7.545   8.286   3.727  2.0283  1.2969 -0.0442
  774MOL0     H 4427   7.467   8.355   3.963 -3.6927 -0.4795  1.0959
  774MOL0     H 4428   7.558   8.215   4.032  0.1749  0.7532  0.3219
  774MOL0     H 4429   7.329   8.193   3.850  1.8571 -0.8032 -1.3939
  774MOL0     H 4430   7.297   8.200   4.015  1.0301 -0.8218  2.1550
  774MOL0     H 4431   7.427   7.979   3.847  2.3448  1.3980 -0.0717
  774MOL0     H 4432   7.440   7.967   4.026 -2.9665 -2.9597  0.5715
  774MOL0     H 4433   7.217   7.973   4.069  2.9691  2.7216  1.0577
  774MOL0     H 4434   7.170   8.014   3.906 -2.1289  4.4138  4.5704
  774MOL0     H 4435   7.241   7.784   3.821  2.5594  0.8807 -0.7970
  774MOL0     H 4436   7.337   7.748   3.962  2.0570  2.1713  1.4784
  774MOL0     H 4437   7.109   7.653   3.935 -1.6513  1.0855 -0.7694
  774MOL0     H 4438   7.043   7.805   3.966  0.0481 -1.3057 -1.5845
  774MOL0     H 4439   7.098   7.793   4.197  3.1891  0.4719  1.6398
  774MOL0     H 4440   7.085   7.617   4.167 -0.7512  1.7369  4.1277
  774MOL0     H 4441   7.333   7.495   4.145  0.8075 -1.0318  1.4473
  774MOL0     H 4442   7.626   7.520   4.187  0.1231 -1.5742  0.7316
  774MOL0     H 4443   7.635   7.571   4.354  0.5472  4.1416 -2.2818
  774MOL0     H 4444   7.462   7.382   4.407  2.1884  1.8293  2.3406
  774MOL0     H 4445   7.473   7.339   4.237 -1.4623 -2.1726  1.4520
  774MOL0     H 4446   7.675   7.301   4.476 -0.2114 -1.6253  1.2369
  774MOL0     H 4447   7.711   7.279   4.298 -1.4948  0.5130 -2.1666
  774MOL0     H 4448   7.642   7.062   4.394 -1.7732 -1.9998  0.8864
  774MOL0     H 4449   7.497   7.106   4.311  0.5131 -2.2621  1.1011
  774MOL0     H 4450   7.373   7.091   4.716 -0.1484  2.4834 -4.2365
  774MOL0     H 4451   7.272   6.859   4.807 -0.8179 -2.6074 -1.0457
  774MOL0     H 4452   7.223   6.328   4.737  0.7787 -1.2343 -0.0204
  774MOL0     H 4453   7.031   6.188   4.786 -0.6936  3.3782  3.2151
  774MOL0     H 4454   6.650   6.099   4.550 -0.0830  0.6016 -0.5482
  774MOL0     H 4455   6.797   6.145   4.473 -1.4754 -2.5085 -1.3749
  774MOL0     H 4456   6.916   5.997   4.655 -0.5988  0.5287  1.5169
  774MOL0     H 4457   6.755   5.929   4.679 -1.0979 -0.9052 -1.4701
  774MOL0     H 4458   6.860   5.950   4.393 -0.9444  1.8889 -0.2002
  774MOL0     H 4459   6.936   5.828   4.490  0.2199 -1.7210 -4.2726
  774MOL0     H 4460   6.633   5.849   4.475  0.8376 -0.1518  1.4703
  774MOL0     H 4461   6.716   5.719   4.549  2.3593  1.3436  0.2173
  774MOL0     H 4462   6.611   5.653   4.336  1.1667 -1.3077  1.6741
  774MOL0     H 4463   6.789   5.630   4.341 -2.2996 -3.5325  1.8753
  774MOL0     H 4464   6.833   5.824   4.197  0.1363 -0.9423 -0.3881
  774MOL0     H 4465   6.710   5.725   4.121 -0.4187  0.5048 -0.7612
  774MOL0     H 4466   6.670   6.000   4.250 -0.5812  0.7043 -0.4190
  774MOL0     H 4467   6.526   5.889   4.258 -1.3734  2.2321 -2.4242
  774MOL0     H 4468   6.666   5.966   4.011  0.3407 -1.9582  0.2714
  774MOL0     H 4469   6.509   5.872   4.025 -0.6626  0.8982 -1.0673
  774MOL0     H 4470   6.791   6.423   4.515 -0.3993  3.1384  3.2049
  774MOL0     H 4471   6.986   6.545   4.454 -1.2225 -2.7953 -1.7640
  774MOL0     H 4472   7.427   6.680   4.443 -1.2411  2.8348 -5.7345
  774MOL0     H 4473   7.512   6.886   4.376  0.6942 -0.6763  0.1570
  774MOL0     H 4474   7.680   7.915   3.695 -0.5096  0.5159  0.5337
  774MOL0     H 4475   7.781   7.861   3.470  2.7917  0.6530  0.0443
  774MOL0     H 4476   8.036   8.124   3.085 -1.1246  0.7597  0.8404
  774MOL0     H 4477   8.105   8.092   2.858  0.4936  0.4183 -0.1613
  774MOL0     H 4478   7.790   8.147   2.536 -0.3385 -1.1859 -2.5791
  774MOL0     H 4479   7.781   7.968   2.546 -2.0137 -0.0847 -2.0845
  774MOL0     H 4480   7.949   7.928   2.427  2.0601  0.8146  1.1966
  774MOL0     H 4481   8.021   8.080   2.419  0.1798  0.5925 -0.6016
  774MOL0     H 4482   7.775   8.149   2.318  0.5099  1.5650 -3.9463
  774MOL0     H 4483   7.769   7.977   2.286  1.1559 -1.6949 -0.6940
  774MOL0     H 4484   7.980   8.170   2.185 -0.4925  0.4851  0.9614
  774MOL0     H 4485   7.973   7.990   2.157  1.8037  0.8704  2.1556
  774MOL0     H 4486   7.688   8.149   1.871 -2.3239  1.3283  2.1365
  774MOL0     H 4487   7.697   8.105   2.730  2.0760 -1.1663 -1.7108
  774MOL0     H 4488   7.552   8.053   3.062  0.2271  0.1767 -0.5059
  774MOL0     H 4489   7.548   8.212   2.991 -0.4687 -0.2275  0.6394
  774MOL0     H 4490   7.521   8.062   2.884 -2.4155 -0.7207  1.5560
  775MOL0     O 4491   8.233   2.780   2.319 -0.2657  0.6024 -1.0935
  775MOL0     C 4492   8.157   2.824   2.237 -0.2760  0.3574  0.2814
  775MOL0     O 4493   8.180   2.929   2.145 -0.0106 -0.5302  0.3934
  775MOL0     C 4494   8.294   2.991   2.152 -1.6668 -2.3785  0.0858
  775MOL0     C 4495   8.311   3.097   2.238 -0.1705 -0.1817 -0.0512
  775MOL0     C 4496   8.442   3.160   2.268  0.6449  0.1062 -0.2221
  775MOL0     C 4497   8.551   3.107   2.201  0.0398 -0.2073 -0.3157
  775MOL0     O 4498   8.665   3.172   2.231  0.1606  0.1831 -0.3765
  775MOL0     C 4499   8.756   3.110   2.314 -0.8755 -0.1853  0.0252
  775MOL0     C 4500   8.728   3.130   2.466 -0.3381  0.3241  0.1002
  775MOL0     C 4501   8.853   3.104   2.548  0.2509 -0.1271  0.2196
  775MOL0     C 4502   8.868   2.951   2.573 -0.2469 -1.0637 -0.5382
  775MOL0     C 4503   9.010   2.899   2.570 -0.8528 -0.0014 -0.8220
  775MOL0     C 4504   9.087   2.904   2.700  0.2652  0.1764  0.0199
  775MOL0     C 4505   9.158   3.040   2.714 -0.2831 -0.6143  0.6151
  775MOL0     C 4506   9.221   3.062   2.857  0.4117  0.2482 -0.5378
  775MOL0     N 4507   9.365   3.071   2.851  0.5851 -0.1569 -0.3526
  775MOL0     C 4508   9.452   3.184   2.850  0.5471  0.4210  0.9224
  775MOL0     C 4509   9.574   3.133   2.820  1.1302  0.3075  0.1253
  775MOL0     C 4510   9.709   3.215   2.837  0.3458  0.5564  0.3413
  775MOL0     C 4511   9.755   3.220   2.980 -0.1948 -0.3740 -0.7948
  775MOL0     C 4512   9.875   3.308   3.014  1.0453  0.0237 -0.2300
  775MOL0     C 4513  10.010   3.247   2.983 -0.4530  0.2901 -0.4792
  775MOL0     O 4514  10.121   3.329   3.022  0.5839 -0.6254  0.1917
  775MOL0     C 4515  10.157   3.439   2.947  0.4128  0.6378  1.3085
  775MOL0     C 4516  10.137   3.455   2.806 -0.2949 -0.0520  0.0696
  775MOL0     C 4517  10.190   3.555   2.730  0.1285 -1.0503  0.6232
  775MOL0     C 4518  10.258   3.665   2.794  0.2120  0.6890  0.4118
  775MOL0     C 4519  10.318   3.778   2.711  0.7246  1.0331  0.3689
  775MOL0     O 4520  10.364   3.876   2.789 -0.1246 -0.3802  0.3828
  775MOL0     C 4521  10.449   3.980   2.734 -0.2335  0.3253  1.5133
  775MOL0     C 4522  10.570   3.948   2.667 -0.4754  0.0229 -1.0107
  775MOL0     C 4523  10.651   4.055   2.634 -0.3321  0.5806 -0.1382
  775MOL0     C 4524  10.640   4.187   2.686  0.1437 -0.7197  0.7398
  775MOL0     O 4525  10.719   4.293   2.646  0.2092 -0.4041  0.8104
  775MOL0     C 4526  10.845   4.284   2.704 -0.3156 -0.3342 -0.0966
  775MOL0     C 4527  10.952   4.224   2.602  0.6699  0.1991 -0.0879
  775MOL0     C 4528  10.990   4.287   2.464  0.1559  0.1109 -0.1800
  775MOL0     C 4529  10.868   4.335   2.382  0.1638 -0.3006 -0.4302
  775MOL0     C 4530  10.920   4.403   2.255 -0.1600  0.5510 -0.4913
  775MOL0     C 4531  10.986   4.309   2.153 -0.8103 -0.2326 -0.3018
  775MOL0     C 4532  10.974   4.371   2.008  0.2316 -0.0538 -0.2643
  775MOL0     C 4533  11.027   4.505   1.982 -0.6541 -0.1900 -0.0037
  775MOL0    Cl 4534  11.205   4.533   1.987 -0.3418 -0.0613  0.2511
  775MOL0     C 4535  10.523   4.206   2.752  0.1137  0.4518 -0.6137
  775MOL0     C 4536  10.426   4.109   2.782 -0.0592  0.1047  0.5858
  775MOL0     O 4537  10.310   3.772   2.584 -0.3731 -0.5701 -0.0173
  775MOL0     C 4538  10.274   3.654   2.936  0.8461  0.2336 -0.2947
  775MOL0     C 4539  10.222   3.542   3.010  0.0973 -0.0533 -0.1122
  775MOL0     N 4540   9.555   2.996   2.789 -0.8493  0.2153 -1.2161
  775MOL0     N 4541   9.436   2.958   2.815  0.6577 -1.2830 -0.4085
  775MOL0     C 4542   8.542   3.005   2.104 -0.5755  0.3002 -0.1728
  775MOL0     C 4543   8.411   2.947   2.083  0.2509  0.1372  0.4034
  775MOL0     C 4544   8.024   2.770   2.226 -0.7108 -0.0937  0.4504
  775MOL0     C 4545   7.921   2.848   2.172  0.8405  0.0315  0.7699
  775MOL0     C 4546   7.778   2.800   2.165 -1.4403  0.2678  0.2656
  775MOL0     C 4547   7.753   2.667   2.195 -0.2880  0.8357 -0.1402
  775MOL0     O 4548   7.631   2.595   2.187  0.4034  0.2722 -0.0202
  775MOL0     C 4549   7.530   2.648   2.098 -0.4511 -0.5904  0.1909
  775MOL0     C 4550   7.565   2.622   1.958 -0.8666 -0.3897  0.4515
  775MOL0     C 4551   7.457   2.688   1.877 -0.7455  0.1853 -0.4211
  775MOL0     C 4552   7.508   2.734   1.738  0.4809 -0.1606  0.0257
  775MOL0     C 4553   7.517   2.631   1.631  0.2431 -0.2653  0.3682
  775MOL0     C 4554   7.519   2.545   1.540  1.0388  0.1266  0.1496
  775MOL0     C 4555   7.858   2.594   2.252 -0.1169  0.1273 -0.2164
  775MOL0     C 4556   7.992   2.638   2.266  0.7702  0.2211  0.7804
  775MOL0     C 4557   8.094   2.535   2.322  1.0879  0.3369  0.4639
  775MOL0     H 4558   8.216   3.122   2.284  0.1997 -0.0627  0.6502
  775MOL0     H 4559   8.451   3.219   2.358 -1.3329 -2.0901  1.5046
  775MOL0     H 4560   8.770   3.005   2.286  5.6976  1.0094 -2.9298
  775MOL0     H 4561   8.842   3.176   2.300 -0.0357 -0.5681  2.7466
  775MOL0     H 4562   8.648   3.063   2.499 -1.6153  1.3003 -0.8996
  775MOL0     H 4563   8.693   3.233   2.477 -1.2713  0.5719 -3.7773
  775MOL0     H 4564   8.851   3.155   2.645  1.9775  2.4493 -0.9763
  775MOL0     H 4565   8.938   3.150   2.496  1.3799 -1.3457  0.9447
  775MOL0     H 4566   8.818   2.922   2.666 -0.8896 -0.0037 -0.5505
  775MOL0     H 4567   8.818   2.880   2.507 -0.9724 -1.5767  0.5243
  775MOL0     H 4568   9.011   2.795   2.536 -1.7193  0.1616 -1.3659
  775MOL0     H 4569   9.050   2.966   2.493 -2.7092  1.7870 -0.3104
  775MOL0     H 4570   9.022   2.886   2.785 -1.8196  2.0430 -1.0662
  775MOL0     H 4571   9.166   2.829   2.701  3.3927  3.2087  1.4215
  775MOL0     H 4572   9.089   3.125   2.704 -0.5532 -0.8164  0.7209
  775MOL0     H 4573   9.233   3.039   2.635  2.1377  0.2725  2.7733
  775MOL0     H 4574   9.184   3.159   2.891 -2.7655  0.0423 -2.9381
  775MOL0     H 4575   9.193   2.985   2.930  2.9022  0.8025  1.1312
  775MOL0     H 4576   9.425   3.284   2.883 -1.4978 -1.0407  4.2048
  775MOL0     H 4577   9.787   3.162   2.782  0.7588 -2.0584  3.1858
  775MOL0     H 4578   9.685   3.317   2.803 -2.1113  0.3043  1.0872
  775MOL0     H 4579   9.669   3.260   3.034  0.1837  2.9872 -2.4115
  775MOL0     H 4580   9.781   3.117   3.005 -1.2569 -0.4420  0.0934
  775MOL0     H 4581   9.883   3.318   3.122 -2.2868  2.8716 -0.0841
  775MOL0     H 4582   9.863   3.408   2.971  0.9288  0.5441  0.9799
  775MOL0     H 4583  10.024   3.217   2.879  0.7726 -1.3141  0.1172
  775MOL0     H 4584  10.020   3.156   3.043  0.2106  2.1506  2.4451
  775MOL0     H 4585  10.093   3.366   2.762  1.2803 -1.8979  2.0257
  775MOL0     H 4586  10.173   3.563   2.623  3.2306  1.3064  0.1686
  775MOL0     H 4587  10.602   3.857   2.616 -2.0857  0.1942 -2.4212
  775MOL0     H 4588  10.726   4.051   2.555 -1.1125  2.8533 -1.1078
  775MOL0     H 4589  10.882   4.378   2.746 -0.7426 -2.3016  5.4639
  775MOL0     H 4590  10.834   4.224   2.794  0.0081  1.0869  0.9271
  775MOL0     H 4591  11.053   4.213   2.644 -0.0256  2.2456  2.3040
  775MOL0     H 4592  10.906   4.127   2.580 -2.4592  1.4406  0.4692
  775MOL0     H 4593  11.051   4.376   2.482 -1.2511  1.1251 -0.2662
  775MOL0     H 4594  11.050   4.221   2.401 -1.5562  0.7997 -2.7163
  775MOL0     H 4595  10.811   4.408   2.439  1.9914  0.8928 -0.0723
  775MOL0     H 4596  10.797   4.255   2.358 -0.9162  1.0027 -1.7993
  775MOL0     H 4597  10.992   4.481   2.284 -0.6068  0.0491  2.2179
  775MOL0     H 4598  10.847   4.461   2.198  1.5815  2.1314 -1.2457
  775MOL0     H 4599  11.090   4.292   2.182 -1.6406  1.3863  4.4564
  775MOL0     H 4600  10.936   4.213   2.161 -0.4573 -0.5296 -1.3858
  775MOL0     H 4601  10.868   4.367   1.984 -0.4146  2.9945  1.5806
  775MOL0     H 4602  11.027   4.301   1.943 -0.2372 -1.6427  1.0119
  775MOL0     H 4603  11.010   4.533   1.878  1.9510  1.7395 -0.0352
  775MOL0     H 4604  10.991   4.574   2.059  0.7398 -0.0699  0.5732
  775MOL0     H 4605  10.503   4.302   2.799  0.6493  0.5651 -0.6131
  775MOL0     H 4606  10.335   4.137   2.834 -0.0748 -1.6131  1.5773
  775MOL0     H 4607  10.336   3.728   2.986 -0.9935  0.7973  1.2548
  775MOL0     H 4608  10.240   3.523   3.115  0.8761 -0.1575 -0.2516
  775MOL0     H 4609   8.627   2.966   2.049 -0.3951 -0.9643  0.9597
  775MOL0     H 4610   8.398   2.860   2.019  0.2323 -0.3713  1.0797
  775MOL0     H 4611   7.942   2.947   2.135 -0.9352  1.5876  3.5049
  775MOL0     H 4612   7.708   2.857   2.106  0.8577  0.5791 -2.3863
  775MOL0     H 4613   7.518   2.755   2.119 -0.7421 -0.8688  1.4831
  775MOL0     H 4614   7.431   2.610   2.122 -0.4950  1.2604  3.5350
  775MOL0     H 4615   7.579   2.514   1.942  3.0846  0.4454 -4.3059
  775MOL0     H 4616   7.666   2.655   1.931 -1.3803 -1.5929 -3.5299
  775MOL0     H 4617   7.423   2.778   1.929 -1.3121 -2.1310  3.6475
  775MOL0     H 4618   7.373   2.620   1.866  0.3799 -1.0903 -1.3771
  775MOL0     H 4619   7.444   2.815   1.702  0.6626  0.8981  1.9198
  775MOL0     H 4620   7.608   2.775   1.752 -1.0008  2.8916  3.0981
  775MOL0     H 4621   7.523   2.472   1.462  0.1143 -1.8439  1.8454
  775MOL0     H 4622   7.817   2.497   2.281 -3.3082  1.6288  0.7404
  775MOL0     H 4623   8.043   2.439   2.329 -2.3020  2.0238  0.8511
  775MOL0     H 4624   8.183   2.526   2.258 -0.1524 -2.5091 -0.9921
  775MOL0     H 4625   8.125   2.568   2.421 -0.7366  1.8169  0.5982
  776MOL0     O 4626   6.067   5.237   9.970  0.5026  0.6109 -0.5239
  776MOL0     C 4627   6.062   5.128   9.917  0.0222 -0.3596  0.6865
  776MOL0     O 4628   6.079   5.002   9.976  0.5554 -0.4093  0.0224
  776MOL0     C 4629   6.137   4.982  10.101 -0.2759  0.2742  0.2606
  776MOL0     C 4630   6.108   4.857  10.151 -0.2321  0.0335  0.9420
  776MOL0     C 4631   6.151   4.815  10.282  0.8173  0.1306  1.7167
  776MOL0     C 4632   6.224   4.904  10.361 -0.5696  0.0433  0.4185
  776MOL0     O 4633   6.269   4.866  10.487  0.5979  0.2669 -0.5898
  776MOL0     C 4634   6.307   4.725  10.511 -0.0663 -0.2859 -0.9885
  776MOL0     C 4635   6.408   4.724  10.626  0.9202  0.1993  0.8033
  776MOL0     C 4636   6.550   4.765  10.575 -0.6413  0.2128  0.2498
  776MOL0     C 4637   6.662   4.758  10.677 -0.2359  0.1939 -0.1995
  776MOL0     C 4638   6.710   4.613  10.687  0.1595  0.0854 -0.4231
  776MOL0     C 4639   6.799   4.582  10.814 -0.4091  0.1868  0.1436
  776MOL0     C 4640   6.927   4.682  10.823  0.4759  0.3630 -0.1066
  776MOL0     C 4641   7.026   4.651  10.717  0.1549 -0.1421  0.4762
  776MOL0     N 4642   7.164   4.634  10.753 -0.1562  1.1122 -0.5645
  776MOL0     C 4643   7.198   4.552  10.857 -0.4310 -0.4441 -0.7213
  776MOL0     C 4644   7.333   4.567  10.878 -0.5821 -0.3796  0.1295
  776MOL0     C 4645   7.412   4.487  10.980  0.2611 -0.0294 -0.4197
  776MOL0     C 4646   7.440   4.341  10.939 -0.2373 -0.4101  0.3326
  776MOL0     C 4647   7.479   4.256  11.053 -0.5386  0.2681 -0.5280
  776MOL0     C 4648   7.609   4.310  11.111  0.1342  0.5752  0.2156
  776MOL0     O 4649   7.728   4.324  11.023  0.9161  0.2476  0.5936
  776MOL0     C 4650   7.855   4.342  11.079  0.3044 -0.9525  0.6948
  776MOL0     C 4651   7.879   4.421  11.193 -0.0225  0.4444 -0.1496
  776MOL0     C 4652   8.012   4.433  11.239  0.0434 -0.1867  0.8533
  776MOL0     C 4653   8.114   4.361  11.178 -0.9067  0.2989 -0.3342
  776MOL0     C 4654   8.253   4.371  11.237 -0.1027  0.9371  0.1520
  776MOL0     O 4655   8.355   4.316  11.170 -0.0683 -0.3207 -0.4011
  776MOL0     C 4656   8.489   4.319  11.202  0.2508 -0.5350 -0.2276
  776MOL0     C 4657   8.577   4.254  11.113 -0.5621  0.6766 -0.6870
  776MOL0     C 4658   8.717   4.263  11.129  0.0877 -0.6006  1.4079
  776MOL0     C 4659   8.779   4.327  11.241 -0.8636  0.6140  0.9186
  776MOL0     O 4660   8.916   4.316  11.272 -0.2966  0.5573  0.3011
  776MOL0     C 4661   9.004   4.288  11.159  0.0317  0.4713 -0.7325
  776MOL0     C 4662   9.123   4.388  11.188 -0.1303 -0.6214  0.2501
  776MOL0     C 4663   9.206   4.341  11.309 -0.0403  0.7741 -0.0004
  776MOL0     C 4664   9.339   4.415  11.297 -0.0077 -0.0105  0.7736
  776MOL0     C 4665   9.406   4.429  11.438 -0.7429  0.1294  0.6446
  776MOL0     C 4666   9.466   4.297  11.491  0.1308  0.0509  0.2143
  776MOL0     C 4667   9.523   4.317  11.630  0.2766  0.3195 -0.3047
  776MOL0     C 4668   9.604   4.190  11.677  0.2030  1.0954  0.9710
  776MOL0    Cl 4669   9.761   4.174  11.590 -0.0833 -0.2006  0.5540
  776MOL0     C 4670   8.693   4.400  11.327  0.0964 -0.1218  0.1277
  776MOL0     C 4671   8.558   4.400  11.296  0.2330  0.4237  0.3908
  776MOL0     O 4672   8.260   4.418  11.358  0.4260  0.7336  0.2227
  776MOL0     C 4673   8.091   4.286  11.057 -0.9315 -0.3278  0.3385
  776MOL0     C 4674   7.956   4.282  11.008  0.0869 -0.0334  1.1486
  776MOL0     N 4675   7.379   4.651  10.779 -0.6286 -0.5555  0.6656
  776MOL0     N 4676   7.284   4.683  10.693  0.0299  0.0040 -0.5585
  776MOL0     C 4677   6.259   5.029  10.311  0.3150  0.1041  0.6979
  776MOL0     C 4678   6.213   5.065  10.182 -0.0004 -0.4773 -0.0380
  776MOL0     C 4679   6.011   5.136   9.771 -0.3071  1.3347  0.1574
  776MOL0     C 4680   5.876   5.107   9.735  0.5417 -0.5924 -0.1649
  776MOL0     C 4681   5.847   5.113   9.598  0.1258 -0.0394  0.8961
  776MOL0     C 4682   5.937   5.140   9.496 -0.5420 -0.0349  0.3079
  776MOL0     O 4683   5.893   5.137   9.367 -0.7826 -0.1819 -0.1991
  776MOL0     C 4684   5.866   5.256   9.291  0.2283  0.9101 -0.5256
  776MOL0     C 4685   5.983   5.337   9.243 -0.9188  0.9701 -0.1172
  776MOL0     C 4686   5.919   5.428   9.137 -0.1169  0.0373 -0.9105
  776MOL0     C 4687   6.019   5.521   9.082 -0.7336 -0.2894  0.2976
  776MOL0     C 4688   6.050   5.640   9.156 -0.7945 -0.5143 -0.5925
  776MOL0     C 4689   6.080   5.745   9.219 -0.7822 -0.3851  0.0442
  776MOL0     C 4690   6.072   5.164   9.530 -0.8013 -0.1905 -0.2226
  776MOL0     C 4691   6.106   5.162   9.669 -0.6431 -0.6618  0.8148
  776MOL0     C 4692   6.247   5.206   9.703 -0.0146 -0.3579 -1.1239
  776MOL0     H 4693   6.039   4.793  10.097 -2.0434 -0.1070  3.2462
  776MOL0     H 4694   6.115   4.717  10.312  0.8545 -0.7012 -0.7335
  776MOL0     H 4695   6.222   4.671  10.553  0.7424  0.7823  2.3322
  776MOL0     H 4696   6.339   4.678  10.417  1.2792 -1.8985  0.2133
  776MOL0     H 4697   6.402   4.624  10.670 -1.2461 -0.0029  0.1463
  776MOL0     H 4698   6.377   4.797  10.701 -1.7339  0.2974 -0.2865
  776MOL0     H 4699   6.538   4.867  10.536 -2.0204  0.4312  1.1735
  776MOL0     H 4700   6.589   4.699  10.498  1.1268  1.4708 -0.0148
  776MOL0     H 4701   6.746   4.811  10.630 -1.8665  3.4665  0.3122
  776MOL0     H 4702   6.646   4.802  10.776  0.5698 -2.2148  1.0905
  776MOL0     H 4703   6.627   4.543  10.701 -0.1638  0.4690 -0.3821
  776MOL0     H 4704   6.750   4.571  10.595  0.6073  2.6987 -1.5273
  776MOL0     H 4705   6.740   4.593  10.905  1.0297  1.8936  0.9221
  776MOL0     H 4706   6.833   4.478  10.803  1.7042  0.8797 -0.3433
  776MOL0     H 4707   6.980   4.680  10.918 -0.8893  2.8939  0.7956
  776MOL0     H 4708   6.884   4.783  10.819 -3.1169 -1.0672 -0.3841
  776MOL0     H 4709   6.999   4.557  10.667 -1.7295  1.4074 -1.6321
  776MOL0     H 4710   7.037   4.728  10.640 -0.3173  0.2112  0.7566
  776MOL0     H 4711   7.124   4.484  10.898 -3.0190  0.2822 -3.7513
  776MOL0     H 4712   7.507   4.539  10.987 -0.0242  0.2905  3.0277
  776MOL0     H 4713   7.350   4.486  11.071  2.6095 -0.8857  1.2860
  776MOL0     H 4714   7.348   4.291  10.906  0.6161 -1.1348 -1.0252
  776MOL0     H 4715   7.508   4.333  10.854  0.0153  2.3302  0.1992
  776MOL0     H 4716   7.494   4.154  11.016  1.8166  1.2696 -2.6650
  776MOL0     H 4717   7.391   4.251  11.118 -0.7685  1.3331 -0.7339
  776MOL0     H 4718   7.639   4.242  11.191  4.0074  0.3665 -1.1772
  776MOL0     H 4719   7.600   4.408  11.157 -1.0708 -0.0176  1.2831
  776MOL0     H 4720   7.804   4.483  11.242 -2.6202 -1.2037 -1.7776
  776MOL0     H 4721   8.028   4.491  11.330 -2.3771 -2.2251  2.7339
  776MOL0     H 4722   8.538   4.206  11.024 -1.9358  1.6497 -0.6446
  776MOL0     H 4723   8.777   4.205  11.060  0.2992 -0.4681  1.4781
  776MOL0     H 4724   9.033   4.182  11.161  0.8779  0.6808 -1.2963
  776MOL0     H 4725   8.957   4.302  11.062 -0.7872 -1.8094 -0.7391
  776MOL0     H 4726   9.187   4.407  11.101 -2.1805 -1.5542 -1.5603
  776MOL0     H 4727   9.073   4.481  11.218 -1.5020 -1.7023  1.4604
  776MOL0     H 4728   9.152   4.369  11.400  0.4818  3.9937 -0.5698
  776MOL0     H 4729   9.218   4.232  11.314 -1.7318  0.4703 -1.5712
  776MOL0     H 4730   9.326   4.514  11.252  2.1681 -0.4014 -0.9299
  776MOL0     H 4731   9.405   4.356  11.232  0.1715  0.7830  0.2157
  776MOL0     H 4732   9.330   4.471  11.504 -1.4742 -0.6600  0.3190
  776MOL0     H 4733   9.482   4.507  11.433 -2.8502  2.2854 -3.2318
  776MOL0     H 4734   9.389   4.221  11.483  0.4186  0.0045 -4.4608
  776MOL0     H 4735   9.551   4.280  11.425 -0.5927  4.5646 -2.3535
  776MOL0     H 4736   9.439   4.327  11.700 -0.5889 -0.1458 -1.2459
  776MOL0     H 4737   9.590   4.403  11.628  1.2217 -0.3636  0.9457
  776MOL0     H 4738   9.627   4.214  11.781  0.1828 -1.3282  1.5832
  776MOL0     H 4739   9.549   4.096  11.676  2.9903 -0.7276 -2.0175
  776MOL0     H 4740   8.723   4.463  11.411 -2.7699 -0.8141  1.7974
  776MOL0     H 4741   8.498   4.465  11.359  1.3394  0.1432  1.7743
  776MOL0     H 4742   8.178   4.247  11.005 -0.4813  0.0542  0.7974
  776MOL0     H 4743   7.934   4.231  10.914  1.7005 -0.0321  0.7417
  776MOL0     H 4744   6.316   5.102  10.368  1.8992 -0.3310 -0.2573
  776MOL0     H 4745   6.221   5.167  10.146 -2.5327 -0.6446 -1.2326
  776MOL0     H 4746   5.800   5.092   9.810  0.9016  1.1283  0.5743
  776MOL0     H 4747   5.745   5.083   9.574 -0.1419  1.3436  0.1692
  776MOL0     H 4748   5.791   5.323   9.336  0.3900  1.1668 -0.6348
  776MOL0     H 4749   5.833   5.219   9.194 -0.7836  1.0652 -0.2600
  776MOL0     H 4750   6.057   5.271   9.197 -1.0980  0.3311  0.4948
  776MOL0     H 4751   6.024   5.393   9.327 -4.1531 -3.1412  4.7895
  776MOL0     H 4752   5.842   5.483   9.192  1.3839  1.5185 -0.2164
  776MOL0     H 4753   5.873   5.365   9.059  0.5407  1.6776 -2.6950
  776MOL0     H 4754   6.115   5.470   9.077 -0.6899 -0.1583 -0.3953
  776MOL0     H 4755   6.006   5.550   8.977  4.1593  2.3704  0.1442
  776MOL0     H 4756   6.111   5.828   9.280  1.2442 -2.3481  1.8594
  776MOL0     H 4757   6.152   5.182   9.458 -0.2218 -1.8490 -0.0197
  776MOL0     H 4758   6.324   5.192   9.626 -0.6859  1.2498 -2.1515
  776MOL0     H 4759   6.252   5.302   9.755  3.2226 -0.1757 -1.5994
  776MOL0     H 4760   6.280   5.136   9.780  1.3752 -1.5666 -2.7352
  777MOL0     O 4761   9.359   9.692   9.420  0.1704 -0.5589 -0.2249
  777MOL0     C 4762   9.361   9.698   9.543 -0.1584  0.0560 -0.4933
  777MOL0     O 4763   9.311   9.587   9.621  0.8451  0.2508  0.0746
  777MOL0     C 4764   9.335   9.459   9.575  1.1357  0.2468  0.2507
  777MOL0     C 4765   9.238   9.360   9.605  0.4703  0.1145  0.3323
  777MOL0     C 4766   9.258   9.223   9.563 -0.3502 -0.1147  0.1753
  777MOL0     C 4767   9.384   9.185   9.507  0.3917 -0.1064  0.6524
  777MOL0     O 4768   9.394   9.056   9.469  0.1602  0.3445 -0.0583
  777MOL0     C 4769   9.507   9.000   9.417 -0.5578 -0.5632  0.5061
  777MOL0     C 4770   9.473   8.867   9.358  0.2726  0.7277  0.2323
  777MOL0     C 4771   9.395   8.883   9.220  0.7092  0.4381  0.1390
  777MOL0     C 4772   9.339   8.749   9.181 -0.4477 -0.5887  0.0092
  777MOL0     C 4773   9.337   8.729   9.024  0.0273 -0.1531 -0.8974
  777MOL0     C 4774   9.306   8.585   8.994  0.6669 -0.6843  0.7844
  777MOL0     C 4775   9.278   8.553   8.847  0.2877  0.3617  0.5641
  777MOL0     C 4776   9.173   8.448   8.838 -0.5365  0.0547  0.0488
  777MOL0     N 4777   9.162   8.397   8.694  0.2046  0.2991 -0.4533
  777MOL0     C 4778   9.159   8.468   8.575  0.0760 -0.1300  0.4687
  777MOL0     C 4779   9.111   8.386   8.479  0.4465 -0.3416  0.1005
  777MOL0     C 4780   9.075   8.440   8.337 -0.1077 -1.1519 -0.0125
  777MOL0     C 4781   9.172   8.387   8.233 -0.0877 -0.4892  0.7743
  777MOL0     C 4782   9.137   8.250   8.196 -0.3356  0.2807  0.0096
  777MOL0     C 4783   9.216   8.192   8.081 -0.7315  0.4129  0.8306
  777MOL0     O 4784   9.360   8.185   8.106 -0.3057 -0.5739 -0.0006
  777MOL0     C 4785   9.425   8.173   7.988 -0.0373 -1.1904  0.2860
  777MOL0     C 4786   9.377   8.163   7.857 -0.5648 -0.1812  0.9985
  777MOL0     C 4787   9.474   8.147   7.759  0.0028  0.6271  0.0801
  777MOL0     C 4788   9.609   8.138   7.786 -0.9022  0.3211  0.2732
  777MOL0     C 4789   9.714   8.123   7.679 -0.2002  0.8855 -0.8389
  777MOL0     O 4790   9.851   8.114   7.713  0.4967  0.0665 -0.3252
  777MOL0     C 4791   9.944   8.087   7.622  0.4181  0.2952 -0.5651
  777MOL0     C 4792  10.061   8.078   7.679 -0.4743  0.1227  0.0371
  777MOL0     C 4793  10.180   8.055   7.613  0.1398 -0.5605 -0.4403
  777MOL0     C 4794  10.176   8.049   7.471 -0.1288  0.5634 -0.3868
  777MOL0     O 4795  10.293   8.018   7.405 -0.3456 -0.1888 -0.1741
  777MOL0     C 4796  10.309   8.076   7.271 -0.0105  0.0623 -0.4514
  777MOL0     C 4797  10.461   8.076   7.232 -0.3333 -0.2356  0.2056
  777MOL0     C 4798  10.530   8.203   7.274 -0.3726  0.0519  0.5755
  777MOL0     C 4799  10.570   8.198   7.422 -0.8583  0.3251 -0.8909
  777MOL0     C 4800  10.620   8.326   7.481 -1.4052 -0.0065  0.2274
  777MOL0     C 4801  10.741   8.380   7.398  0.8544 -0.5518 -0.9234
  777MOL0     C 4802  10.872   8.314   7.440 -0.0837  0.2170 -0.0940
  777MOL0     C 4803  10.908   8.194   7.351 -0.8890  0.5709  0.3414
  777MOL0    Cl 4804  10.920   8.260   7.182 -0.1092 -0.0649 -0.0573
  777MOL0     C 4805  10.050   8.060   7.403  0.3343  1.4783 -0.7205
  777MOL0     C 4806   9.940   8.085   7.483  0.8887  2.0579  0.1144
  777MOL0     O 4807   9.663   8.091   7.574 -0.2523 -0.8844  0.8011
  777MOL0     C 4808   9.650   8.144   7.916  0.4585 -0.1454 -0.0423
  777MOL0     C 4809   9.558   8.163   8.018  0.5880 -0.5081 -0.5584
  777MOL0     N 4810   9.097   8.271   8.539  0.3324 -0.9249  0.5213
  777MOL0     N 4811   9.129   8.272   8.660 -0.8643  0.0054  0.2197
  777MOL0     C 4812   9.476   9.285   9.465 -0.7889  0.8264 -0.4636
  777MOL0     C 4813   9.446   9.421   9.501  0.1223 -0.3407  0.0155
  777MOL0     C 4814   9.412   9.820   9.619  0.1574  0.3363  0.5952
  777MOL0     C 4815   9.425   9.815   9.756  0.0041 -0.3793 -0.2857
  777MOL0     C 4816   9.491   9.914   9.830  0.8328 -0.4226 -0.1916
  777MOL0     C 4817   9.500  10.037   9.770 -0.3494 -0.2807 -0.6469
  777MOL0     O 4818   9.546  10.136   9.853  0.2876 -1.0603  0.2001
  777MOL0     C 4819   9.681  10.107   9.909  0.3377  0.0417 -0.3471
  777MOL0     C 4820   9.681  10.122  10.063  0.0246  1.0361  0.6784
  777MOL0     C 4821   9.639  10.267  10.107 -0.0444 -0.2312  0.0760
  777MOL0     C 4822   9.645  10.273  10.256  0.0946  0.3749 -0.2466
  777MOL0     C 4823   9.621  10.413  10.302 -1.3917  0.4925  0.4066
  777MOL0     C 4824   9.603  10.521  10.360  0.0035 -0.7243  0.6097
  777MOL0     C 4825   9.468  10.058   9.636  0.7881  0.7501 -0.0894
  777MOL0     C 4826   9.438   9.946   9.555 -0.2856  0.0549 -0.3760
  777MOL0     C 4827   9.411   9.972   9.410 -0.2464 -0.9097 -0.7882
  777MOL0     H 4828   9.143   9.391   9.648 -1.0074 -0.9735 -1.9554
  777MOL0     H 4829   9.182   9.148   9.582  0.9588 -1.2188  1.2938
  777MOL0     H 4830   9.541   9.065   9.335  1.1059 -2.4196 -0.3441
  777MOL0     H 4831   9.586   8.989   9.491  0.3827 -0.0966 -0.4053
  777MOL0     H 4832   9.421   8.806   9.432  3.3241 -3.6976 -0.8729
  777MOL0     H 4833   9.565   8.811   9.340 -1.6620 -1.8007 -2.8533
  777MOL0     H 4834   9.462   8.922   9.144  2.3147 -1.5602  0.4395
  777MOL0     H 4835   9.309   8.949   9.236 -0.0302 -0.1585 -1.2621
  777MOL0     H 4836   9.392   8.657   9.209  0.2295 -0.1634  0.1532
  777MOL0     H 4837   9.241   8.721   9.219 -0.6577 -0.0621 -0.1382
  777MOL0     H 4838   9.266   8.796   8.975 -2.2187 -1.2022  0.7555
  777MOL0     H 4839   9.440   8.747   8.993 -0.6347  1.1650 -2.4677
  777MOL0     H 4840   9.379   8.515   9.035  0.6231 -0.7574  0.7398
  777MOL0     H 4841   9.219   8.561   9.056 -0.1343 -2.2876 -0.8406
  777MOL0     H 4842   9.366   8.504   8.806  2.1007  3.1623  0.8597
  777MOL0     H 4843   9.244   8.634   8.782 -4.1265 -3.3139 -2.3515
  777MOL0     H 4844   9.195   8.375   8.916  1.7308  0.5463 -0.0484
  777MOL0     H 4845   9.075   8.489   8.864 -1.8407 -1.5298 -2.0248
  777MOL0     H 4846   9.154   8.577   8.575  0.7259 -0.0880 -0.5949
  777MOL0     H 4847   8.970   8.441   8.306 -0.8933  2.8793  2.0614
  777MOL0     H 4848   9.094   8.548   8.342  0.3295 -1.2498  0.5412
  777MOL0     H 4849   9.153   8.444   8.141 -1.4688 -1.5525  0.3803
  777MOL0     H 4850   9.276   8.401   8.265 -0.1758 -0.9440  1.2830
  777MOL0     H 4851   9.033   8.250   8.162  0.5052 -1.4694 -2.9718
  777MOL0     H 4852   9.141   8.179   8.279 -0.1102 -1.7364 -1.6510
  777MOL0     H 4853   9.188   8.251   7.993 -1.7789 -3.2690 -1.5534
  777MOL0     H 4854   9.187   8.090   8.054 -0.0446  0.8674 -1.9951
  777MOL0     H 4855   9.276   8.159   7.820  0.0894  3.1483 -1.5851
  777MOL0     H 4856   9.443   8.158   7.656  0.3804  3.0445  0.1801
  777MOL0     H 4857  10.065   8.089   7.787  1.6059  4.0739 -0.2546
  777MOL0     H 4858  10.281   8.066   7.651  0.8878 -1.4566 -2.0496
  777MOL0     H 4859  10.249   8.020   7.198  0.3689  2.2169 -2.5566
  777MOL0     H 4860  10.274   8.180   7.267  1.2669  0.5944  1.1314
  777MOL0     H 4861  10.507   7.991   7.285  1.3979 -1.8157 -3.5072
  777MOL0     H 4862  10.481   8.049   7.128  5.7482  0.9056  0.7085
  777MOL0     H 4863  10.620   8.211   7.211 -0.2595  0.5747  0.8001
  777MOL0     H 4864  10.473   8.290   7.242 -1.0403 -0.9863 -1.2528
  777MOL0     H 4865  10.637   8.113   7.436 -2.6845 -1.2786 -1.4889
  777MOL0     H 4866  10.482   8.174   7.483 -1.5141 -0.6965 -2.2084
  777MOL0     H 4867  10.642   8.315   7.588 -2.0300 -1.9462  0.1875
  777MOL0     H 4868  10.535   8.394   7.474 -1.8394 -0.0812  3.2916
  777MOL0     H 4869  10.714   8.383   7.292 -1.3254  1.4501 -0.4007
  777MOL0     H 4870  10.750   8.486   7.424  0.2455 -0.3626 -1.4472
  777MOL0     H 4871  10.873   8.280   7.544  1.6912  0.5825  0.0405
  777MOL0     H 4872  10.950   8.388   7.418  0.0407  0.0257 -0.3114
  777MOL0     H 4873  11.005   8.158   7.388 -1.0680 -0.5650 -0.2460
  777MOL0     H 4874  10.843   8.108   7.369 -1.3447  1.4460  3.5043
  777MOL0     H 4875  10.038   8.041   7.297  3.3512 -1.2145 -0.7089
  777MOL0     H 4876   9.843   8.094   7.435  0.6592  0.2169  0.1376
  777MOL0     H 4877   9.756   8.130   7.938  1.1203  2.4409 -1.2595
  777MOL0     H 4878   9.592   8.172   8.121 -0.5682  1.2811 -0.2886
  777MOL0     H 4879   9.562   9.249   9.408 -1.1033  0.3442 -0.6450
  777MOL0     H 4880   9.506   9.509   9.476 -1.8604  0.5474 -1.9495
  777MOL0     H 4881   9.394   9.731   9.818 -1.3957  0.7854  0.6596
  777MOL0     H 4882   9.515   9.890   9.933  1.7285 -0.2075 -0.3406
  777MOL0     H 4883   9.761  10.173   9.875 -0.4016 -0.0919 -2.4813
  777MOL0     H 4884   9.708  10.006   9.875 -1.4333 -0.1680 -1.2270
  777MOL0     H 4885   9.785  10.099  10.089  1.7432  2.6753 -3.6489
  777MOL0     H 4886   9.623  10.044  10.113 -3.3752  3.5555  1.0508
  777MOL0     H 4887   9.536  10.286  10.075 -1.7277 -2.4340  3.6259
  777MOL0     H 4888   9.701  10.348  10.066  0.3790 -0.8154 -0.4637
  777MOL0     H 4889   9.569  10.209  10.302  1.0618 -0.2938  0.4623
  777MOL0     H 4890   9.738  10.238  10.302  0.7843  2.6533  0.1743
  777MOL0     H 4891   9.568  10.607  10.414  0.5065  0.9546 -1.5943
  777MOL0     H 4892   9.472  10.158   9.595 -0.9305  0.1166 -1.9854
  777MOL0     H 4893   9.305   9.957   9.390 -0.5986  2.9386 -2.9461
  777MOL0     H 4894   9.421  10.081   9.400 -1.9628 -0.8449 -2.1390
  777MOL0     H 4895   9.471   9.905   9.348  1.1739  1.1600 -1.7695
  778MOL0     O 4896   8.052  10.917   2.852  0.3323  0.1857  0.4729
  778MOL0     C 4897   8.094  11.029   2.875 -0.2734 -0.0161 -0.3622
  778MOL0     O 4898   8.077  11.100   3.000 -0.4850 -0.0883  0.1651
  778MOL0     C 4899   7.992  11.047   3.091 -0.3040  0.3371  0.8360
  778MOL0     C 4900   7.854  11.021   3.047  0.1407 -0.0842 -0.4776
  778MOL0     C 4901   7.759  10.997   3.145  0.5280 -0.5188 -0.1067
  778MOL0     C 4902   7.793  10.983   3.282  0.2288  0.4782  0.5243
  778MOL0     O 4903   7.699  10.940   3.381 -0.0510 -0.1580  0.3505
  778MOL0     C 4904   7.562  10.965   3.361  0.0068  0.4477  1.2265
  778MOL0     C 4905   7.484  10.969   3.499 -0.4905  0.7028 -0.2365
  778MOL0     C 4906   7.523  10.854   3.597 -0.1800 -0.0826  0.2310
  778MOL0     C 4907   7.501  10.877   3.751 -0.0115 -0.1672 -0.0869
  778MOL0     C 4908   7.492  10.748   3.840 -0.2581 -0.0065 -0.2272
  778MOL0     C 4909   7.366  10.659   3.791 -0.9537  0.2081 -0.5412
  778MOL0     C 4910   7.317  10.566   3.911  0.0326  0.1024 -0.2956
  778MOL0     C 4911   7.186  10.500   3.891 -0.3187  0.0798 -0.6112
  778MOL0     N 4912   7.064  10.591   3.905 -0.6332  0.3636  0.5604
  778MOL0     C 4913   6.961  10.603   3.807  0.9428 -0.7832 -0.9693
  778MOL0     C 4914   6.868  10.692   3.861  0.1094  0.6655 -0.3023
  778MOL0     C 4915   6.739  10.738   3.805  1.0811  0.1455 -0.5895
  778MOL0     C 4916   6.746  10.754   3.652  0.9790 -0.0027 -0.4071
  778MOL0     C 4917   6.714  10.624   3.573  0.3051  0.5095  0.4974
  778MOL0     C 4918   6.745  10.636   3.429 -0.2612  0.0778 -1.1463
  778MOL0     O 4919   6.720  10.517   3.352 -1.0333 -0.1310 -0.5527
  778MOL0     C 4920   6.589  10.484   3.339  0.5603  0.5516 -0.3254
  778MOL0     C 4921   6.506  10.526   3.231 -0.3557  1.2814  0.1154
  778MOL0     C 4922   6.375  10.485   3.230 -0.7031 -0.8979  0.0197
  778MOL0     C 4923   6.323  10.420   3.340 -0.0004  0.4513  0.3349
  778MOL0     C 4924   6.179  10.378   3.344 -0.1521 -0.3566  0.2390
  778MOL0     O 4925   6.109  10.382   3.232  0.5412  0.8172  1.2460
  778MOL0     C 4926   5.985  10.325   3.207 -0.4780 -0.8570  0.0397
  778MOL0     C 4927   5.960  10.214   3.126  0.4813 -0.3423  0.1586
  778MOL0     C 4928   5.824  10.164   3.120  0.5383  0.5622 -0.4403
  778MOL0     C 4929   5.714  10.242   3.179 -0.1192 -0.2416  0.0269
  778MOL0     O 4930   5.583  10.218   3.157  0.0445  0.5090 -0.1198
  778MOL0     C 4931   5.555  10.122   3.053 -0.2978  0.4956 -0.3861
  778MOL0     C 4932   5.415  10.150   3.017  0.1143  0.0072 -0.6505
  778MOL0     C 4933   5.373  10.102   2.879  0.3562  0.1047  0.1399
  778MOL0     C 4934   5.218  10.111   2.873 -0.0663  0.8583  0.5364
  778MOL0     C 4935   5.171  10.115   2.725  0.4613 -0.5667 -2.0015
  778MOL0     C 4936   5.201   9.991   2.632  0.1611 -0.1271 -0.2907
  778MOL0     C 4937   5.135  10.024   2.499 -0.0029  0.1617 -0.3763
  778MOL0     C 4938   5.137   9.903   2.407 -0.2965 -1.1236  0.5065
  778MOL0    Cl 4939   5.304   9.853   2.378 -0.0145  0.1666  0.3933
  778MOL0     C 4940   5.749  10.348   3.260  0.2669 -0.2065  0.0607
  778MOL0     C 4941   5.882  10.389   3.276  0.4019 -0.1384 -0.5391
  778MOL0     O 4942   6.131  10.343   3.452  0.5199  0.0748  0.6754
  778MOL0     C 4943   6.403  10.375   3.448 -0.5590  0.5854  0.4300
  778MOL0     C 4944   6.539  10.404   3.438  0.6355  0.0653 -0.2178
  778MOL0     N 4945   6.912  10.718   3.985 -0.0059  0.6369  0.4420
  778MOL0     N 4946   7.017  10.650   4.018 -0.0825 -0.6148  0.0942
  778MOL0     C 4947   7.914  11.007   3.325 -0.4913 -0.0086 -0.3151
  778MOL0     C 4948   8.013  11.043   3.234 -0.4973  0.0882  0.0350
  778MOL0     C 4949   8.191  11.082   2.774 -0.5191  0.0572  0.3849
  778MOL0     C 4950   8.334  11.085   2.808  0.2798 -0.8074  0.9857
  778MOL0     C 4951   8.429  11.134   2.716 -0.2404  0.3517 -0.5867
  778MOL0     C 4952   8.387  11.187   2.589  1.1329  0.0649  0.5484
  778MOL0     O 4953   8.478  11.250   2.502  0.6073  0.9313 -0.8905
  778MOL0     C 4954   8.445  11.277   2.366 -0.5094  0.1476 -0.6854
  778MOL0     C 4955   8.558  11.334   2.291  0.0830  0.7857 -0.8538
  778MOL0     C 4956   8.504  11.387   2.165  0.2841 -0.0954  0.5129
  778MOL0     C 4957   8.615  11.429   2.068 -0.1946  0.2781  0.6850
  778MOL0     C 4958   8.675  11.558   2.100 -0.4364 -0.7452  0.5658
  778MOL0     C 4959   8.725  11.673   2.129  0.7922 -0.4589  0.2427
  778MOL0     C 4960   8.252  11.157   2.555 -0.4489  0.6337  0.0609
  778MOL0     C 4961   8.152  11.121   2.644  0.0835 -0.3280  0.1285
  778MOL0     C 4962   8.002  11.143   2.616 -0.8275  0.3822  0.2724
  778MOL0     H 4963   7.814  11.048   2.950 -3.0456  0.0310  0.7593
  778MOL0     H 4964   7.660  10.987   3.101  0.0912  0.9042  0.4974
  778MOL0     H 4965   7.537  11.052   3.300 -2.3031 -2.1089 -1.8387
  778MOL0     H 4966   7.526  10.880   3.302 -1.8786 -1.2426  4.5562
  778MOL0     H 4967   7.379  10.994   3.482  0.1591  2.6825 -1.7039
  778MOL0     H 4968   7.524  11.058   3.548 -2.0189  1.6263 -0.5800
  778MOL0     H 4969   7.628  10.828   3.576 -1.1752 -0.8066 -5.6398
  778MOL0     H 4970   7.467  10.765   3.567  2.8611 -1.4863 -1.8806
  778MOL0     H 4971   7.583  10.941   3.785  1.8909 -2.0236 -0.9898
  778MOL0     H 4972   7.411  10.939   3.761  0.1631  0.6650 -2.7552
  778MOL0     H 4973   7.583  10.687   3.840  0.4596  1.0256  0.9850
  778MOL0     H 4974   7.476  10.778   3.944 -2.0454  0.3001 -0.5520
  778MOL0     H 4975   7.275  10.712   3.761 -1.5059  0.1996  1.0132
  778MOL0     H 4976   7.402  10.597   3.709 -2.1252 -1.1242 -0.0839
  778MOL0     H 4977   7.302  10.626   4.001 -1.2038  0.2066 -0.5483
  778MOL0     H 4978   7.395  10.491   3.930 -0.9442 -1.2519 -1.3683
  778MOL0     H 4979   7.179  10.462   3.788 -0.7951 -0.5118 -0.3658
  778MOL0     H 4980   7.180  10.420   3.965  3.6425  0.5963  0.5110
  778MOL0     H 4981   6.948  10.553   3.711 -2.2809 -1.8175 -0.1212
  778MOL0     H 4982   6.669  10.674   3.860  1.5641  2.3324  2.8933
  778MOL0     H 4983   6.714  10.838   3.840 -1.2516  0.2142 -2.2296
  778MOL0     H 4984   6.665  10.821   3.624 -1.3146 -1.0220  3.2245
  778MOL0     H 4985   6.844  10.786   3.614  0.2078 -2.0545 -4.8464
  778MOL0     H 4986   6.611  10.592   3.588  0.0584  2.1145  2.7379
  778MOL0     H 4987   6.773  10.544   3.619 -1.5059  0.3890  2.8003
  778MOL0     H 4988   6.853  10.652   3.430  0.0612 -1.6760 -2.3804
  778MOL0     H 4989   6.710  10.727   3.379 -2.4875 -0.4846 -0.7418
  778MOL0     H 4990   6.552  10.599   3.164  2.0212 -1.4547 -1.5039
  778MOL0     H 4991   6.305  10.512   3.151 -0.8136  1.9947  0.9854
  778MOL0     H 4992   6.048  10.166   3.084 -1.0805 -1.8153 -1.5947
  778MOL0     H 4993   5.798  10.081   3.055 -0.4137 -0.7628  1.5141
  778MOL0     H 4994   5.617  10.123   2.963 -0.1064 -2.3344 -0.3664
  778MOL0     H 4995   5.552  10.021   3.093 -0.9310  0.8276  0.4448
  778MOL0     H 4996   5.350  10.093   3.084  4.1619 -1.1640  2.6896
  778MOL0     H 4997   5.406  10.258   3.033 -1.3671 -0.3957  1.9651
  778MOL0     H 4998   5.410  10.177   2.808 -1.9574 -0.3232 -1.6807
  778MOL0     H 4999   5.409  10.003   2.852  5.2607  1.2441  1.6569
  778MOL0     H 5000   5.169  10.183   2.939 -0.5029  0.5528  0.5531
  778MOL0     H 5001   5.185  10.014   2.911 -0.6510  0.6706 -0.4109
  778MOL0     H 5002   5.208  10.204   2.674 -0.0956  1.7245  1.3347
  778MOL0     H 5003   5.062  10.105   2.736  0.8240 -2.3134  1.3490
  778MOL0     H 5004   5.309   9.985   2.619  0.3011  0.5263  0.4866
  778MOL0     H 5005   5.160   9.899   2.675  0.1015  0.6707  1.4671
  778MOL0     H 5006   5.196  10.102   2.454  0.4805  1.4031  2.2300
  778MOL0     H 5007   5.031  10.055   2.516  0.2373  1.4431 -1.1268
  778MOL0     H 5008   5.070   9.824   2.444 -3.6936  0.6960 -1.3451
  778MOL0     H 5009   5.092   9.934   2.313 -0.6559  1.8372  1.5422
  778MOL0     H 5010   5.670  10.399   3.313 -1.0709 -2.1511  0.0147
  778MOL0     H 5011   5.914  10.473   3.337 -0.6707 -1.0169  1.2726
  778MOL0     H 5012   6.366  10.333   3.541  0.0652  2.1036  1.4074
  778MOL0     H 5013   6.607  10.386   3.521 -1.1238  2.6992  1.9543
  778MOL0     H 5014   7.926  11.005   3.432 -2.4736  0.6984 -0.0459
  778MOL0     H 5015   8.112  11.067   3.270  1.0309 -4.3323 -0.6217
  778MOL0     H 5016   8.376  11.052   2.902  2.5810 -0.7016  0.0695
  778MOL0     H 5017   8.532  11.123   2.746  0.0354  0.0532 -1.6178
  778MOL0     H 5018   8.374  11.360   2.365  0.1943  0.7621 -0.4870
  778MOL0     H 5019   8.399  11.195   2.310  0.3478 -0.0464 -1.1228
  778MOL0     H 5020   8.624  11.248   2.277  0.7780  0.4129  3.2761
  778MOL0     H 5021   8.609  11.411   2.350 -0.6641 -0.6077  1.7930
  778MOL0     H 5022   8.432  11.465   2.189  0.7060  0.2651  0.6087
  778MOL0     H 5023   8.440  11.311   2.118 -0.1019 -0.2975  1.3333
  778MOL0     H 5024   8.696  11.357   2.057  1.9622  2.4838  1.3071
  778MOL0     H 5025   8.574  11.447   1.968 -2.4841  0.8228  1.6494
  778MOL0     H 5026   8.764  11.766   2.166 -0.9336  0.8570 -1.0601
  778MOL0     H 5027   8.225  11.181   2.452  2.1087  0.2568 -0.7726
  778MOL0     H 5028   7.958  11.177   2.709  2.8105  3.7596  1.0351
  778MOL0     H 5029   7.984  11.228   2.549 -1.7948  1.0810  1.3998
  778MOL0     H 5030   7.964  11.049   2.573 -0.3229  0.6622 -0.8255
  779MOL0     O 5031   4.031   5.505   5.802 -0.1961  0.2587 -0.1271
  779MOL0     C 5032   4.107   5.573   5.739 -0.1101  0.1005  0.7867
  779MOL0     O 5033   4.081   5.698   5.689  0.3618 -1.0504 -0.5707
  779MOL0     C 5034   3.994   5.784   5.744 -0.6891 -0.9820 -0.2255
  779MOL0     C 5035   3.983   5.911   5.688 -0.2410 -0.2248  0.4488
  779MOL0     C 5036   3.885   6.004   5.737 -0.3511 -0.6455 -0.0547
  779MOL0     C 5037   3.802   5.971   5.846 -0.2217  0.0160 -0.6093
  779MOL0     O 5038   3.701   6.056   5.872  0.4705  0.7309  0.3012
  779MOL0     C 5039   3.652   6.051   6.013 -0.3146  0.6568  0.4285
  779MOL0     C 5040   3.572   6.182   6.025 -0.0010 -0.4537  0.2015
  779MOL0     C 5041   3.555   6.211   6.174 -0.3584 -0.0260 -0.5038
  779MOL0     C 5042   3.466   6.333   6.191  0.7823 -0.0195 -0.6272
  779MOL0     C 5043   3.427   6.338   6.336 -0.3181  0.0460  0.2748
  779MOL0     C 5044   3.312   6.437   6.349  0.4234  0.2784 -0.5570
  779MOL0     C 5045   3.333   6.562   6.274  0.1353 -0.1541  0.8256
  779MOL0     C 5046   3.247   6.678   6.325  0.2732  0.1225 -0.4827
  779MOL0     N 5047   3.279   6.714   6.463 -0.3599 -1.3839  0.0922
  779MOL0     C 5048   3.401   6.754   6.531 -0.3272 -0.7713  0.6555
  779MOL0     C 5049   3.374   6.750   6.660  0.0849  0.9756 -0.5333
  779MOL0     C 5050   3.459   6.767   6.788  0.6107  0.3844 -0.7934
  779MOL0     C 5051   3.433   6.900   6.861  0.5790  0.8632  0.5618
  779MOL0     C 5052   3.439   7.036   6.789  0.2636 -0.1491 -0.2056
  779MOL0     C 5053   3.344   7.136   6.855 -1.2176 -0.7353  0.2594
  779MOL0     O 5054   3.381   7.174   6.988 -0.3876  0.4667  0.3342
  779MOL0     C 5055   3.481   7.260   7.015  0.5686 -0.5677  0.0425
  779MOL0     C 5056   3.559   7.335   6.918  0.0777  0.3655 -0.1611
  779MOL0     C 5057   3.659   7.417   6.959  0.2417 -0.4488 -0.0854
  779MOL0     C 5058   3.684   7.436   7.104 -0.0896  0.1987  0.1689
  779MOL0     C 5059   3.768   7.542   7.162  0.9162 -0.5017  0.3124
  779MOL0     O 5060   3.790   7.526   7.292 -0.0402  0.1651  1.0038
  779MOL0     C 5061   3.877   7.613   7.347 -0.1487  0.0077  0.0740
  779MOL0     C 5062   3.849   7.748   7.382  0.3537 -0.5104 -0.3144
  779MOL0     C 5063   3.943   7.820   7.456 -0.3516 -0.0128  0.0845
  779MOL0     C 5064   4.075   7.763   7.467 -0.5115 -0.5182 -0.6109
  779MOL0     O 5065   4.181   7.832   7.523  0.2460  0.2687  0.2988
  779MOL0     C 5066   4.181   7.977   7.491  0.1889  0.5697  0.3540
  779MOL0     C 5067   4.325   8.034   7.496 -0.0475 -0.9288  1.0548
  779MOL0     C 5068   4.395   8.018   7.634  1.1668 -0.8890  0.7429
  779MOL0     C 5069   4.535   8.082   7.633 -0.0299  0.1330 -0.4390
  779MOL0     C 5070   4.621   8.010   7.740 -0.4428 -0.2094 -0.7341
  779MOL0     C 5071   4.704   8.119   7.817 -0.2219 -0.2991 -0.5067
  779MOL0     C 5072   4.804   8.065   7.924  0.0628 -0.4999 -0.0250
  779MOL0     C 5073   4.857   8.174   8.024  0.0351  1.1092  0.5349
  779MOL0    Cl 5074   4.955   8.276   7.939 -0.1539  0.3855  0.3631
  779MOL0     C 5075   4.098   7.623   7.438  0.3276 -0.2163  0.1204
  779MOL0     C 5076   3.997   7.544   7.385  0.2470  0.1841  0.0751
  779MOL0     O 5077   3.837   7.613   7.080 -0.1096  0.9309 -0.3432
  779MOL0     C 5078   3.608   7.359   7.187 -0.4063 -0.0958  0.1292
  779MOL0     C 5079   3.503   7.279   7.150  0.6611  0.0168  0.5454
  779MOL0     N 5080   3.248   6.704   6.677 -0.1313 -0.2357  0.5753
  779MOL0     N 5081   3.190   6.698   6.565 -0.6727  0.6110  0.9998
  779MOL0     C 5082   3.812   5.843   5.899 -1.0563  1.0666 -0.3535
  779MOL0     C 5083   3.904   5.751   5.846 -1.1698 -0.5268 -1.0016
  779MOL0     C 5084   4.231   5.506   5.699 -0.8719 -0.8025  0.2348
  779MOL0     C 5085   4.328   5.589   5.649 -0.8418  0.1561 -0.3719
  779MOL0     C 5086   4.443   5.533   5.594  0.4532 -0.3978  0.3071
  779MOL0     C 5087   4.481   5.399   5.594  0.4110  0.9395 -0.3541
  779MOL0     O 5088   4.602   5.354   5.549 -0.2200  0.1560 -0.1008
  779MOL0     C 5089   4.622   5.218   5.500 -0.0184  0.0436  0.0396
  779MOL0     C 5090   4.572   5.200   5.349 -0.5447 -0.2211 -0.3993
  779MOL0     C 5091   4.590   5.336   5.277  0.2750  0.6147  1.1182
  779MOL0     C 5092   4.522   5.327   5.135 -0.3937 -0.3967  0.4481
  779MOL0     C 5093   4.408   5.240   5.125 -0.7587 -0.4889 -0.1673
  779MOL0     C 5094   4.318   5.164   5.098  0.4387  0.1028  0.1613
  779MOL0     C 5095   4.380   5.314   5.649 -0.1933  0.4932 -0.1694
  779MOL0     C 5096   4.259   5.366   5.699 -0.0948 -0.3554  0.3898
  779MOL0     C 5097   4.156   5.260   5.743 -0.6375  0.4048 -0.4213
  779MOL0     H 5098   4.051   5.929   5.606  2.8629  0.1543  2.9042
  779MOL0     H 5099   3.879   6.104   5.694 -2.9372 -1.0196 -0.7333
  779MOL0     H 5100   3.596   5.958   6.029  1.7191 -1.0533 -1.6554
  779MOL0     H 5101   3.734   6.054   6.085 -2.1127 -3.1795  2.9808
  779MOL0     H 5102   3.479   6.170   5.968  0.6868 -0.9090 -0.8462
  779MOL0     H 5103   3.617   6.272   5.982 -2.3455  1.4287  1.4323
  779MOL0     H 5104   3.652   6.237   6.218 -1.9878  1.4267  2.5328
  779MOL0     H 5105   3.517   6.120   6.222  0.8280  0.2362  1.0312
  779MOL0     H 5106   3.527   6.423   6.177  2.8159 -0.9143  1.7145
  779MOL0     H 5107   3.385   6.331   6.118  0.7996 -1.0169 -0.6316
  779MOL0     H 5108   3.399   6.238   6.369  2.3215  0.2660  3.7648
  779MOL0     H 5109   3.518   6.369   6.389 -0.2558  1.0874 -0.4012
  779MOL0     H 5110   3.216   6.391   6.326 -0.5261  1.0287  1.6217
  779MOL0     H 5111   3.312   6.449   6.458  0.0958  3.9007 -0.8133
  779MOL0     H 5112   3.295   6.539   6.174  2.6956  0.8612 -0.4593
  779MOL0     H 5113   3.438   6.587   6.258  0.3118 -1.5935 -0.5718
  779MOL0     H 5114   3.267   6.766   6.263  0.8190  1.5285  1.5936
  779MOL0     H 5115   3.140   6.655   6.319 -0.1817  2.0440 -0.4024
  779MOL0     H 5116   3.500   6.774   6.490  0.1219  2.3150  2.8921
  779MOL0     H 5117   3.441   6.688   6.862 -0.9659  1.6379  0.2095
  779MOL0     H 5118   3.565   6.758   6.760  0.9608 -1.8174  0.8578
  779MOL0     H 5119   3.332   6.896   6.903  0.0328 -1.2173 -0.8018
  779MOL0     H 5120   3.511   6.899   6.938  3.5562 -2.9924 -2.0809
  779MOL0     H 5121   3.414   7.024   6.684 -0.5175 -1.9180  0.1363
  779MOL0     H 5122   3.540   7.078   6.795 -0.2778  1.5337 -2.0338
  779MOL0     H 5123   3.245   7.090   6.862 -2.6322  2.0792  0.4208
  779MOL0     H 5124   3.325   7.221   6.789  0.5985 -0.9399 -0.5795
  779MOL0     H 5125   3.540   7.344   6.812 -0.9209  5.0085  0.2145
  779MOL0     H 5126   3.721   7.477   6.894  1.7225  0.6834  2.2412
  779MOL0     H 5127   3.751   7.784   7.353  0.3189 -1.5137 -1.5428
  779MOL0     H 5128   3.919   7.918   7.494  1.0177  2.0326 -3.7595
  779MOL0     H 5129   4.134   7.996   7.394  0.5963 -2.7526 -0.6051
  779MOL0     H 5130   4.123   8.029   7.568 -3.3290 -1.4588 -0.7308
  779MOL0     H 5131   4.383   8.010   7.407  0.2991  2.4716  0.2351
  779MOL0     H 5132   4.317   8.142   7.482 -2.0583 -1.1484  0.1322
  779MOL0     H 5133   4.346   8.071   7.716  1.4284  1.0273 -0.2822
  779MOL0     H 5134   4.397   7.911   7.659  1.1250 -0.9616  0.4431
  779MOL0     H 5135   4.522   8.186   7.662 -0.0628  0.0439 -0.1298
  779MOL0     H 5136   4.581   8.079   7.534  2.4732 -2.4036  0.6613
  779MOL0     H 5137   4.682   7.934   7.689 -1.8304 -0.9534 -1.3570
  779MOL0     H 5138   4.550   7.956   7.802  0.9315  1.3084  2.3744
  779MOL0     H 5139   4.773   8.173   7.752  1.3172  0.1403  1.4111
  779MOL0     H 5140   4.636   8.195   7.853  0.9688  1.3971 -1.6797
  779MOL0     H 5141   4.890   8.012   7.881  1.7897  0.1543  2.4345
  779MOL0     H 5142   4.770   7.979   7.984  1.4445  1.1115  3.3328
  779MOL0     H 5143   4.784   8.239   8.073 -1.7868 -2.0183  2.2288
  779MOL0     H 5144   4.915   8.126   8.103 -2.0164 -3.3533 -0.3571
  779MOL0     H 5145   4.200   7.594   7.458  1.2640  2.3811 -0.4886
  779MOL0     H 5146   4.027   7.447   7.347  1.4444  0.3993  0.4152
  779MOL0     H 5147   3.621   7.360   7.295  1.3222 -0.6620 -0.0417
  779MOL0     H 5148   3.447   7.228   7.228 -0.2335  0.9056  0.4906
  779MOL0     H 5149   3.754   5.818   5.987  1.2498 -0.9837  0.7054
  779MOL0     H 5150   3.909   5.659   5.903 -1.2208 -0.2808 -0.5972
  779MOL0     H 5151   4.335   5.697   5.653  0.4658  0.0540  2.1479
  779MOL0     H 5152   4.516   5.607   5.564  2.8057 -1.8624  2.0863
  779MOL0     H 5153   4.586   5.139   5.565  1.9226  0.8103  2.2038
  779MOL0     H 5154   4.731   5.219   5.492 -0.1265  0.4405 -2.3683
  779MOL0     H 5155   4.466   5.176   5.363 -1.4072  1.8308 -2.7546
  779MOL0     H 5156   4.631   5.122   5.299 -0.6855  0.3088 -1.3991
  779MOL0     H 5157   4.696   5.361   5.277  0.7554 -0.9852 -1.1566
  779MOL0     H 5158   4.536   5.418   5.324  0.8541  0.3612  2.2459
  779MOL0     H 5159   4.504   5.430   5.103  3.6758  0.7848  1.3866
  779MOL0     H 5160   4.595   5.269   5.077  1.3937 -1.8476  3.8799
  779MOL0     H 5161   4.229   5.105   5.085 -2.8520  4.5767  0.0613
  779MOL0     H 5162   4.387   5.206   5.650 -1.4651  0.3572  2.6998
  779MOL0     H 5163   4.190   5.158   5.723 -1.2612 -0.1853  1.3276
  779MOL0     H 5164   4.126   5.273   5.848 -3.5229 -1.7570 -0.8459
  779MOL0     H 5165   4.073   5.281   5.675 -0.5080  0.8939 -0.4277
  780MOL0     O 5166   9.980   3.982   1.463  0.3374 -0.2282  0.2281
  780MOL0     C 5167   9.879   4.026   1.515 -0.3726  0.0185 -0.1309
  780MOL0     O 5168   9.766   4.074   1.443 -0.2701 -0.8797 -0.1446
  780MOL0     C 5169   9.747   4.021   1.312  0.0179  0.9300 -0.0835
  780MOL0     C 5170   9.762   3.880   1.309  0.3342  0.2248 -0.2322
  780MOL0     C 5171   9.720   3.822   1.189  1.3323 -0.1275  0.4717
  780MOL0     C 5172   9.650   3.893   1.091 -0.3414 -0.4044 -0.5292
  780MOL0     O 5173   9.598   3.829   0.979  0.3872  0.1378 -0.1956
  780MOL0     C 5174   9.465   3.772   1.008 -1.0416 -0.7553 -0.1200
  780MOL0     C 5175   9.362   3.828   0.908  0.2398 -0.8727 -0.3735
  780MOL0     C 5176   9.232   3.738   0.913 -0.3748 -0.0064  0.5053
  780MOL0     C 5177   9.117   3.791   0.831  0.2541 -0.2480  0.0001
  780MOL0     C 5178   9.163   3.822   0.693 -0.0744 -0.0496  1.0483
  780MOL0     C 5179   9.045   3.827   0.594 -0.4543  0.1033 -0.2955
  780MOL0     C 5180   8.968   3.961   0.604  0.1557  0.1893 -0.1027
  780MOL0     C 5181   8.870   3.975   0.489 -0.7655 -0.3759  0.7195
  780MOL0     N 5182   8.747   3.897   0.504  0.2380  0.3428  0.3460
  780MOL0     C 5183   8.654   3.902   0.608 -0.1051 -0.1123 -0.1114
  780MOL0     C 5184   8.551   3.821   0.581 -0.2458  0.6650 -0.8519
  780MOL0     C 5185   8.433   3.805   0.665 -0.6944 -0.5142  0.8220
  780MOL0     C 5186   8.365   3.677   0.639 -0.1869  1.0804  0.7793
  780MOL0     C 5187   8.253   3.659   0.743 -0.1129 -0.2249 -0.1190
  780MOL0     C 5188   8.195   3.516   0.757 -0.1827  0.4030 -0.0716
  780MOL0     O 5189   8.300   3.429   0.788 -0.4705 -0.1509 -0.7734
  780MOL0     C 5190   8.277   3.306   0.843 -0.7112 -0.8593  0.4187
  780MOL0     C 5191   8.150   3.256   0.872 -0.1925  0.1686  0.1852
  780MOL0     C 5192   8.131   3.128   0.908 -0.2308 -0.2515  0.1493
  780MOL0     C 5193   8.242   3.040   0.923  0.1221  0.7706  0.0933
  780MOL0     C 5194   8.239   2.898   0.959  0.6654  0.1861 -0.5206
  780MOL0     O 5195   8.345   2.815   0.940  0.5218  0.5863 -1.3858
  780MOL0     C 5196   8.352   2.685   0.983  0.8604  0.3352 -0.7586
  780MOL0     C 5197   8.393   2.585   0.890 -0.1895 -0.9906 -0.0678
  780MOL0     C 5198   8.430   2.457   0.932  0.3301 -0.8925 -0.3080
  780MOL0     C 5199   8.412   2.427   1.072  0.1512  0.8636  0.2462
  780MOL0     O 5200   8.453   2.301   1.120  0.5913 -0.1509  0.4209
  780MOL0     C 5201   8.365   2.199   1.171  0.2244 -0.6779 -0.5568
  780MOL0     C 5202   8.285   2.137   1.063 -0.3594 -0.9967  0.9762
  780MOL0     C 5203   8.369   2.041   0.976  0.2600 -0.8198 -0.4962
  780MOL0     C 5204   8.289   1.939   0.908  1.2686  0.1598 -0.0543
  780MOL0     C 5205   8.379   1.839   0.832 -0.0043  0.1586  0.3406
  780MOL0     C 5206   8.501   1.804   0.911 -0.9065  0.4000  0.6447
  780MOL0     C 5207   8.585   1.690   0.840  0.2900  0.5091  0.1172
  780MOL0     C 5208   8.531   1.554   0.881  0.0666  0.1242 -0.3327
  780MOL0    Cl 5209   8.548   1.524   1.061 -0.0323  0.3230 -0.1959
  780MOL0     C 5210   8.363   2.520   1.170 -0.4394 -0.9287  0.3094
  780MOL0     C 5211   8.333   2.653   1.118 -0.0166 -0.5790 -0.2315
  780MOL0     O 5212   8.126   2.863   0.996  0.0394 -0.5108 -0.1711
  780MOL0     C 5213   8.374   3.100   0.917 -0.3482 -0.2360 -0.3399
  780MOL0     C 5214   8.393   3.227   0.867 -0.4682 -0.1795  0.1645
  780MOL0     N 5215   8.600   3.735   0.482  0.4547  0.1845 -0.3312
  780MOL0     N 5216   8.701   3.794   0.433  0.2778  0.0450 -0.2985
  780MOL0     C 5217   9.642   4.032   1.103  0.2632  0.0461  0.5988
  780MOL0     C 5218   9.688   4.103   1.213  0.6836  0.1233 -0.3638
  780MOL0     C 5219   9.862   4.033   1.669  0.2413 -0.2420 -0.0074
  780MOL0     C 5220   9.799   4.146   1.722  0.8551 -0.1632 -0.1345
  780MOL0     C 5221   9.775   4.154   1.863  0.8362 -0.1716  0.6439
  780MOL0     C 5222   9.820   4.056   1.952 -0.0803 -0.5486  0.6359
  780MOL0     O 5223   9.796   4.068   2.092  0.2164  0.6724  0.9053
  780MOL0     C 5224   9.856   3.984   2.190 -0.6376 -0.5601 -0.0378
  780MOL0     C 5225   9.781   3.855   2.232  0.5585  0.0117  0.6629
  780MOL0     C 5226   9.879   3.766   2.311 -0.4121  0.3883 -0.6110
  780MOL0     C 5227   9.933   3.644   2.232 -0.3525 -0.0263 -0.5632
  780MOL0     C 5228  10.031   3.669   2.117 -0.1498 -1.2615 -0.0815
  780MOL0     C 5229  10.107   3.694   2.021 -0.2681  0.1259 -0.2156
  780MOL0     C 5230   9.884   3.949   1.896  0.0859  0.7117  0.4008
  780MOL0     C 5231   9.913   3.939   1.752  0.5744 -0.1720 -0.1932
  780MOL0     C 5232   9.990   3.819   1.713  0.1032 -0.3291  0.5605
  780MOL0     H 5233   9.799   3.830   1.397 -1.7841  1.9261  1.7755
  780MOL0     H 5234   9.734   3.715   1.179 -1.0105 -0.2891 -2.1858
  780MOL0     H 5235   9.478   3.668   0.976 -0.4877 -0.1469 -1.9876
  780MOL0     H 5236   9.436   3.786   1.112  0.8983  1.8303  0.1591
  780MOL0     H 5237   9.404   3.814   0.807  0.6062 -0.3569 -0.2939
  780MOL0     H 5238   9.339   3.932   0.930 -1.1086 -1.7132  2.8185
  780MOL0     H 5239   9.200   3.724   1.017 -0.7466  2.7221  0.8199
  780MOL0     H 5240   9.263   3.640   0.876 -3.7132 -0.1813 -2.2524
  780MOL0     H 5241   9.032   3.722   0.838 -2.3445  2.8064  0.9861
  780MOL0     H 5242   9.093   3.885   0.882 -0.4929  0.7139 -2.0261
  780MOL0     H 5243   9.206   3.923   0.698 -2.7117  1.1249  1.9141
  780MOL0     H 5244   9.240   3.756   0.653  1.0191  1.1613  1.0739
  780MOL0     H 5245   9.080   3.807   0.493 -0.2283 -0.0767 -0.1810
  780MOL0     H 5246   8.976   3.745   0.613 -3.2086  2.2578 -0.3248
  780MOL0     H 5247   9.035   4.047   0.593 -0.4775  0.7199  0.1305
  780MOL0     H 5248   8.911   3.965   0.697  1.2231  0.4759  0.5611
  780MOL0     H 5249   8.843   4.081   0.481 -1.4347 -0.3923  2.4018
  780MOL0     H 5250   8.908   3.962   0.387 -4.3363 -1.5294 -0.6287
  780MOL0     H 5251   8.676   3.953   0.702 -1.0554 -0.6533  0.4223
  780MOL0     H 5252   8.456   3.820   0.771 -3.2604  0.6620  1.2629
  780MOL0     H 5253   8.361   3.882   0.638  2.3594  1.9507 -1.0975
  780MOL0     H 5254   8.317   3.665   0.541  4.3351  0.4682 -1.6743
  780MOL0     H 5255   8.436   3.593   0.648 -2.1411 -0.5795  1.4413
  780MOL0     H 5256   8.166   3.723   0.722 -0.6506 -0.4341  1.3375
  780MOL0     H 5257   8.287   3.699   0.839 -3.0053  3.8560 -0.5240
  780MOL0     H 5258   8.153   3.488   0.660 -1.1347  3.5448 -0.6767
  780MOL0     H 5259   8.118   3.531   0.832 -1.9460 -0.4461 -1.6209
  780MOL0     H 5260   8.062   3.319   0.860 -0.3489 -0.4911 -3.3029
  780MOL0     H 5261   8.031   3.087   0.913 -0.3349 -0.0717 -0.3437
  780MOL0     H 5262   8.387   2.609   0.784  1.1500 -1.6177 -0.3105
  780MOL0     H 5263   8.451   2.384   0.854 -2.0336  1.7055 -3.7036
  780MOL0     H 5264   8.426   2.128   1.229 -1.6695 -0.0084  2.5067
  780MOL0     H 5265   8.321   2.245   1.260  2.8300 -2.6645  1.9592
  780MOL0     H 5266   8.194   2.084   1.093 -1.8825 -0.8114 -2.7108
  780MOL0     H 5267   8.248   2.223   1.006 -3.7586 -1.4879  2.2313
  780MOL0     H 5268   8.430   2.093   0.902  0.4673 -2.4848 -1.5513
  780MOL0     H 5269   8.432   1.988   1.049 -1.6107 -2.6816 -0.1348
  780MOL0     H 5270   8.219   1.988   0.840  3.1065  0.3165 -1.9225
  780MOL0     H 5271   8.237   1.881   0.985  0.3248 -0.8081 -1.3826
  780MOL0     H 5272   8.415   1.887   0.740 -3.0467  1.0296 -0.5021
  780MOL0     H 5273   8.308   1.760   0.806 -3.9908  3.2591  0.9237
  780MOL0     H 5274   8.573   1.886   0.910  1.5228 -1.6087 -0.6177
  780MOL0     H 5275   8.486   1.785   1.018  0.0788  0.3909  0.7907
  780MOL0     H 5276   8.692   1.700   0.861  0.5537 -2.0944  0.3673
  780MOL0     H 5277   8.580   1.696   0.731  3.5110 -1.1307 -0.2411
  780MOL0     H 5278   8.423   1.558   0.863 -0.4236 -1.6357  1.7598
  780MOL0     H 5279   8.579   1.476   0.823  0.0079  0.2544 -0.5570
  780MOL0     H 5280   8.345   2.494   1.273 -0.3297  0.5260  0.7149
  780MOL0     H 5281   8.297   2.731   1.184 -2.8214 -1.5068 -0.5455
  780MOL0     H 5282   8.467   3.045   0.921  0.7816  1.4357 -1.8146
  780MOL0     H 5283   8.491   3.265   0.840  0.7193 -2.7701  0.4305
  780MOL0     H 5284   9.586   4.071   1.018  0.0620 -0.8463  0.3108
  780MOL0     H 5285   9.660   4.202   1.247  2.3784  1.5000 -2.7270
  780MOL0     H 5286   9.739   4.217   1.665 -0.9741 -0.4465  1.3348
  780MOL0     H 5287   9.721   4.241   1.900  2.2910  0.1830  2.0257
  780MOL0     H 5288   9.867   4.049   2.278  2.8805 -1.0445  0.0179
  780MOL0     H 5289   9.958   3.971   2.151 -1.8549 -1.6813 -3.1683
  780MOL0     H 5290   9.731   3.802   2.151  2.6409 -0.3911 -0.4304
  780MOL0     H 5291   9.699   3.879   2.301  1.2300 -2.7278  2.5957
  780MOL0     H 5292   9.831   3.731   2.402  1.6483  2.1350  1.2724
  780MOL0     H 5293   9.963   3.824   2.350 -0.1873  1.2644 -2.3000
  780MOL0     H 5294   9.977   3.579   2.308 -0.1256  1.7319  0.8996
  780MOL0     H 5295   9.850   3.585   2.192  1.0670 -4.1337  1.8819
  780MOL0     H 5296  10.173   3.706   1.937 -0.4170  1.4422 -0.1636
  780MOL0     H 5297   9.922   3.875   1.965 -3.5266 -1.4697  0.2918
  780MOL0     H 5298   9.954   3.772   1.621 -1.8772 -0.0030  1.1275
  780MOL0     H 5299  10.094   3.851   1.704 -0.5542  1.7559 -0.0790
  780MOL0     H 5300   9.982   3.736   1.785 -0.7218 -0.2836  0.5331
  781MOL0     O 5301   6.111   3.330   9.338  0.3326  0.5628  0.6271
  781MOL0     C 5302   6.180   3.425   9.303  0.7451 -0.9265 -0.3624
  781MOL0     O 5303   6.280   3.479   9.382 -0.0473  0.5272  0.2141
  781MOL0     C 5304   6.325   3.429   9.498 -0.9331  0.0124 -0.2040
  781MOL0     C 5305   6.417   3.329   9.514 -0.8290  0.4549 -0.5776
  781MOL0     C 5306   6.467   3.299   9.643  0.1441 -0.8836  0.8399
  781MOL0     C 5307   6.425   3.372   9.758 -0.4280  0.8683  0.3440
  781MOL0     O 5308   6.466   3.340   9.883  0.3950  0.4488 -0.0166
  781MOL0     C 5309   6.580   3.271   9.915  0.4003  0.5134 -0.8484
  781MOL0     C 5310   6.630   3.330  10.038  0.5095  0.3371 -0.5551
  781MOL0     C 5311   6.761   3.263  10.085 -0.0120 -0.1371  0.2992
  781MOL0     C 5312   6.781   3.315  10.229  0.2779 -0.2271 -0.2441
  781MOL0     C 5313   6.918   3.278  10.279  0.4585  0.0015 -0.5107
  781MOL0     C 5314   6.967   3.135  10.258 -0.4718  0.9797 -0.7426
  781MOL0     C 5315   7.090   3.106  10.357 -0.9605 -0.0129  0.0685
  781MOL0     C 5316   7.051   3.063  10.499 -0.3481  1.2595 -0.4777
  781MOL0     N 5317   7.163   3.017  10.580 -0.7658 -0.0016  0.9971
  781MOL0     C 5318   7.250   2.917  10.553 -0.5966 -0.1499 -0.6761
  781MOL0     C 5319   7.320   2.901  10.667  0.1444 -0.4127 -1.1077
  781MOL0     C 5320   7.421   2.793  10.693  0.4489  0.5453 -0.4819
  781MOL0     C 5321   7.562   2.844  10.743  0.0620 -0.9308  0.4030
  781MOL0     C 5322   7.638   2.915  10.629 -0.2930 -0.3252  0.5141
  781MOL0     C 5323   7.683   2.828  10.506 -1.0957  0.0924  0.1738
  781MOL0     O 5324   7.749   2.711  10.576  0.2580  0.4412  0.7558
  781MOL0     C 5325   7.798   2.614  10.500  0.8856 -1.1905  0.3996
  781MOL0     C 5326   7.837   2.497  10.564 -0.7783  0.5912  1.1446
  781MOL0     C 5327   7.897   2.403  10.483 -0.3980  0.3165 -0.5335
  781MOL0     C 5328   7.918   2.413  10.347 -0.5526  0.1306  0.2742
  781MOL0     C 5329   8.003   2.314  10.272 -0.6011  0.4736  0.2984
  781MOL0     O 5330   8.007   2.323  10.133  0.3155 -0.0448 -0.6117
  781MOL0     C 5331   8.069   2.241  10.041  0.0165 -0.0612  0.1357
  781MOL0     C 5332   8.162   2.130  10.060  0.4668 -0.7191  0.2079
  781MOL0     C 5333   8.190   2.050   9.948 -0.5514 -0.6443  0.1749
  781MOL0     C 5334   8.144   2.073   9.819 -0.2658 -0.4812 -0.3454
  781MOL0     O 5335   8.179   1.982   9.721 -0.1009 -0.3846  0.0775
  781MOL0     C 5336   8.224   2.045   9.593  0.3127  0.6997  0.3307
  781MOL0     C 5337   8.258   1.925   9.489 -0.2907 -0.5612  0.5622
  781MOL0     C 5338   8.360   1.979   9.396  0.6382  1.1058 -0.3577
  781MOL0     C 5339   8.307   2.103   9.325 -0.0907  0.3418  0.1945
  781MOL0     C 5340   8.396   2.153   9.221 -0.4128 -0.3932  0.2044
  781MOL0     C 5341   8.503   2.247   9.278 -0.1150  0.5740  0.6691
  781MOL0     C 5342   8.604   2.251   9.160 -0.5133  0.0310 -0.5111
  781MOL0     C 5343   8.729   2.324   9.211  0.3126 -1.3535  0.5097
  781MOL0    Cl 5344   8.709   2.512   9.199 -0.0196 -0.5547  0.1037
  781MOL0     C 5345   8.070   2.188   9.797 -0.0775 -1.1914  0.1721
  781MOL0     C 5346   8.023   2.263   9.905 -0.1521 -0.1928 -0.5897
  781MOL0     O 5347   8.066   2.232  10.337  0.8109  0.5224 -0.0480
  781MOL0     C 5348   7.878   2.524  10.280 -0.1126  0.2466 -0.1108
  781MOL0     C 5349   7.808   2.621  10.354 -0.3145  0.6210 -0.1146
  781MOL0     N 5350   7.279   2.995  10.757  0.2893 -0.5209 -0.5453
  781MOL0     N 5351   7.187   3.062  10.706  0.4488  0.5490 -0.3362
  781MOL0     C 5352   6.332   3.471   9.746 -0.4263  0.4209 -0.5805
  781MOL0     C 5353   6.290   3.503   9.616  1.1616  0.0153 -0.2450
  781MOL0     C 5354   6.163   3.477   9.167  0.5192 -0.1442  0.2465
  781MOL0     C 5355   6.036   3.465   9.103  0.6178 -0.0481 -0.2051
  781MOL0     C 5356   6.017   3.497   8.964  0.3057 -0.9635 -0.3950
  781MOL0     C 5357   6.116   3.565   8.900 -1.0249 -0.6562 -0.2846
  781MOL0     O 5358   6.092   3.642   8.782 -0.1237  0.7071 -0.4386
  781MOL0     C 5359   6.184   3.721   8.708  0.1405  0.4512 -0.6368
  781MOL0     C 5360   6.286   3.640   8.634 -0.9015 -0.1993  0.2942
  781MOL0     C 5361   6.281   3.663   8.483  0.2588 -0.2867 -0.2767
  781MOL0     C 5362   6.373   3.764   8.426  0.4227 -0.3900  0.1362
  781MOL0     C 5363   6.334   3.899   8.443  0.0122 -1.1650  0.6623
  781MOL0     C 5364   6.282   4.007   8.462 -0.8599 -0.1299 -0.0686
  781MOL0     C 5365   6.241   3.575   8.955 -0.2638  0.1674 -0.1198
  781MOL0     C 5366   6.269   3.530   9.084  0.1148  1.0075 -0.3327
  781MOL0     C 5367   6.406   3.511   9.122 -0.8556  0.8510  0.0646
  781MOL0     H 5368   6.437   3.253   9.439 -0.4466 -0.1279  0.1074
  781MOL0     H 5369   6.527   3.209   9.651 -1.8002 -2.3555 -0.1757
  781MOL0     H 5370   6.554   3.165   9.921 -0.3234  0.6661 -1.1937
  781MOL0     H 5371   6.659   3.288   9.841 -1.0119  0.2150 -2.4890
  781MOL0     H 5372   6.560   3.329  10.122  3.4442 -1.0721  2.0563
  781MOL0     H 5373   6.657   3.433  10.013 -2.0660  1.2259 -0.0106
  781MOL0     H 5374   6.845   3.283  10.018  1.0999 -1.4563  1.2368
  781MOL0     H 5375   6.745   3.155  10.082  2.2390 -0.5735  1.3397
  781MOL0     H 5376   6.754   3.421  10.240 -2.5046 -1.0406  2.0518
  781MOL0     H 5377   6.700   3.266  10.284 -0.6781 -0.8543 -2.1034
  781MOL0     H 5378   6.981   3.341  10.216  2.0283  0.1072  1.0972
  781MOL0     H 5379   6.933   3.307  10.383  0.3815  0.3565 -0.5965
  781MOL0     H 5380   6.888   3.069  10.296  0.7734  1.8001  3.9154
  781MOL0     H 5381   6.997   3.118  10.155  0.9589  1.6051 -0.4502
  781MOL0     H 5382   7.157   3.190  10.379 -0.6666  0.0345 -0.9771
  781MOL0     H 5383   7.158   3.031  10.317  0.4722  0.1495  2.0168
  781MOL0     H 5384   6.998   3.148  10.543 -0.9675  1.3892 -1.4245
  781MOL0     H 5385   6.986   2.975  10.494  1.1521  0.0766  0.2159
  781MOL0     H 5386   7.276   2.864  10.461  3.4231 -0.7831  0.5977
  781MOL0     H 5387   7.380   2.741  10.780  1.1493  1.7332  0.5940
  781MOL0     H 5388   7.425   2.717  10.614  2.4192  0.5340 -0.4043
  781MOL0     H 5389   7.543   2.904  10.833  0.1906 -0.0099 -0.1620
  781MOL0     H 5390   7.630   2.762  10.768  1.3465 -0.5656 -1.6545
  781MOL0     H 5391   7.732   2.954  10.669  0.0975  1.1712 -1.6685
  781MOL0     H 5392   7.585   3.004  10.593 -0.0169 -0.0311  0.8262
  781MOL0     H 5393   7.748   2.878  10.434  0.6903 -2.1129  0.1295
  781MOL0     H 5394   7.595   2.802  10.446  0.7204 -0.5456 -2.3935
  781MOL0     H 5395   7.822   2.475  10.669 -1.2457  1.4386  1.2644
  781MOL0     H 5396   7.929   2.313  10.532 -2.7572  1.5221  3.7001
  781MOL0     H 5397   8.217   2.110  10.152  1.1716 -3.1597 -0.6641
  781MOL0     H 5398   8.244   1.958   9.969  1.7393  0.5051 -0.2598
  781MOL0     H 5399   8.153   2.118   9.554 -0.9140  1.0401  3.0283
  781MOL0     H 5400   8.315   2.097   9.625  0.4047  1.8256 -1.6508
  781MOL0     H 5401   8.295   1.843   9.551  0.9060 -0.8944 -0.5535
  781MOL0     H 5402   8.173   1.895   9.428  1.9930 -3.2705 -1.5175
  781MOL0     H 5403   8.441   2.013   9.462  0.4747 -0.0653  0.4778
  781MOL0     H 5404   8.390   1.893   9.336  2.3106 -0.2723  2.2505
  781MOL0     H 5405   8.285   2.182   9.397  1.8658  0.2799  0.9308
  781MOL0     H 5406   8.214   2.073   9.275  1.0671 -2.9960 -0.2580
  781MOL0     H 5407   8.350   2.210   9.139  0.6418  1.3595  0.7716
  781MOL0     H 5408   8.435   2.064   9.171 -1.6521  0.4283 -2.4426
  781MOL0     H 5409   8.474   2.352   9.292 -0.4874  0.6541 -0.5302
  781MOL0     H 5410   8.560   2.212   9.364 -0.5303 -1.5426  0.1378
  781MOL0     H 5411   8.565   2.301   9.071  0.4303  0.8814 -0.4693
  781MOL0     H 5412   8.628   2.149   9.130 -0.0504  0.1895 -0.6833
  781MOL0     H 5413   8.749   2.304   9.316  1.1282 -1.7261  0.2873
  781MOL0     H 5414   8.812   2.284   9.152 -1.7353 -2.5734 -1.7150
  781MOL0     H 5415   8.034   2.202   9.695 -1.6241 -2.3722  0.5232
  781MOL0     H 5416   7.958   2.348   9.883  0.0861  0.3354  0.6986
  781MOL0     H 5417   7.904   2.548  10.177  3.0011 -0.0473  0.5142
  781MOL0     H 5418   7.781   2.707  10.294 -0.7285 -1.3916 -3.0087
  781MOL0     H 5419   6.291   3.522   9.832  0.3527 -0.2696  0.2234
  781MOL0     H 5420   6.219   3.585   9.607 -0.1381 -1.0222  0.1525
  781MOL0     H 5421   5.944   3.430   9.150 -1.9047  0.3415 -4.3293
  781MOL0     H 5422   5.919   3.494   8.918 -0.1190 -2.7924  0.5185
  781MOL0     H 5423   6.223   3.793   8.780 -0.5996  0.7449 -0.5177
  781MOL0     H 5424   6.136   3.785   8.633  1.4101 -1.4501 -3.2109
  781MOL0     H 5425   6.295   3.532   8.649  2.0511  0.1064  1.5465
  781MOL0     H 5426   6.382   3.678   8.669 -0.1602  0.2526 -2.0398
  781MOL0     H 5427   6.180   3.684   8.446  1.1398  0.9313 -2.1109
  781MOL0     H 5428   6.304   3.567   8.435  0.3560 -1.3902  1.8444
  781MOL0     H 5429   6.474   3.758   8.468  1.0719  1.9457 -0.9035
  781MOL0     H 5430   6.382   3.736   8.321  1.9732 -3.6592  1.0255
  781MOL0     H 5431   6.235   4.103   8.475 -1.9807 -0.5778 -0.6728
  781MOL0     H 5432   6.322   3.611   8.893  0.7081  1.8323  1.9735
  781MOL0     H 5433   6.434   3.410   9.152  2.6951  2.2005  1.8949
  781MOL0     H 5434   6.483   3.533   9.046  1.6778  0.0387  2.2318
  781MOL0     H 5435   6.426   3.582   9.202  2.2044  1.9782 -1.5040
  782MOL0     O 5436  10.751  10.415   4.072 -0.3409 -0.0633 -0.6519
  782MOL0     C 5437  10.716  10.373   3.969 -0.0782 -0.3163  0.8509
  782MOL0     O 5438  10.795  10.307   3.884 -0.3312  0.4820 -0.4163
  782MOL0     C 5439  10.923  10.271   3.904  0.4569 -0.3057 -0.3859
  782MOL0     C 5440  11.009  10.293   3.797  0.0229  0.3428  0.3694
  782MOL0     C 5441  11.145  10.255   3.791 -0.6806 -0.6761  0.1469
  782MOL0     C 5442  11.200  10.204   3.902 -0.4943 -0.6063 -0.7854
  782MOL0     O 5443  11.334  10.176   3.911  0.3418 -0.8634  0.7818
  782MOL0     C 5444  11.375  10.043   3.909  0.2373 -0.0684  0.0209
  782MOL0     C 5445  11.466  10.022   4.024  0.2900  0.1818 -0.3823
  782MOL0     C 5446  11.608  10.080   4.014 -0.1676 -0.5174 -0.5981
  782MOL0     C 5447  11.689  10.035   4.140  0.0245 -0.9308  1.2750
  782MOL0     C 5448  11.743   9.888   4.149 -0.3191 -0.7489  0.7241
  782MOL0     C 5449  11.839   9.894   4.261 -0.5870  0.7930  0.0376
  782MOL0     C 5450  11.972   9.820   4.236 -0.0779 -0.4358 -0.6423
  782MOL0     C 5451  11.944   9.676   4.220 -0.0946 -0.2165 -0.1812
  782MOL0     N 5452  12.061   9.592   4.205 -0.9130 -0.5102 -0.0666
  782MOL0     C 5453  12.186   9.629   4.256  0.0730 -0.8038 -0.7853
  782MOL0     C 5454  12.259   9.518   4.253 -0.1710  0.7799 -0.5130
  782MOL0     C 5455  12.407   9.500   4.272  0.2327  0.0811 -0.1052
  782MOL0     C 5456  12.453   9.539   4.408 -0.1570  0.2852 -0.4941
  782MOL0     C 5457  12.389   9.467   4.525  0.9754  0.2913  0.2311
  782MOL0     C 5458  12.379   9.319   4.520 -0.0536  0.6808  0.5637
  782MOL0     O 5459  12.519   9.288   4.534 -0.3717 -0.0351  0.2204
  782MOL0     C 5460  12.565   9.161   4.562 -0.6818  0.3531 -0.3601
  782MOL0     C 5461  12.497   9.044   4.524 -0.2047 -0.0458  1.4220
  782MOL0     C 5462  12.559   8.920   4.527  0.9932 -0.3018 -0.2788
  782MOL0     C 5463  12.699   8.907   4.564  0.3770 -0.1101  0.1963
  782MOL0     C 5464  12.775   8.783   4.541 -0.8343  0.5749 -0.1644
  782MOL0     O 5465  12.711   8.667   4.508  0.5759 -0.1515  0.3366
  782MOL0     C 5466  12.782   8.551   4.519 -0.0130  0.5577  0.6113
  782MOL0     C 5467  12.832   8.497   4.642  0.0653  0.2858  1.0654
  782MOL0     C 5468  12.914   8.378   4.634  0.1172  0.9152 -0.0239
  782MOL0     C 5469  12.936   8.311   4.513 -0.1382 -0.7726  0.1699
  782MOL0     O 5470  13.017   8.205   4.483 -0.5616  0.1157 -0.1318
  782MOL0     C 5471  13.083   8.152   4.600 -0.2663  0.3877  0.5758
  782MOL0     C 5472  13.201   8.078   4.535  0.6934 -0.3431 -0.0323
  782MOL0     C 5473  13.294   8.167   4.452 -0.7739  0.3755  0.1481
  782MOL0     C 5474  13.432   8.097   4.419 -0.0085 -0.1143  0.3575
  782MOL0     C 5475  13.544   8.199   4.395  0.7574  0.1424 -0.4978
  782MOL0     C 5476  13.687   8.162   4.428 -0.4516  0.2049  0.7798
  782MOL0     C 5477  13.723   8.028   4.359 -0.0348  1.1904 -0.3087
  782MOL0     C 5478  13.872   8.014   4.391 -0.1606 -0.4101  0.1434
  782MOL0    Cl 5479  13.923   7.853   4.338  0.1879 -0.0700  0.2430
  782MOL0     C 5480  12.870   8.363   4.399  0.5908 -0.1855  0.5325
  782MOL0     C 5481  12.783   8.472   4.402  1.0582 -0.8018 -0.7492
  782MOL0     O 5482  12.896   8.794   4.547 -0.2948 -0.7024  0.3098
  782MOL0     C 5483  12.757   9.030   4.612  0.3726  0.2629  0.3211
  782MOL0     C 5484  12.689   9.154   4.621 -0.4733  0.6662 -1.5740
  782MOL0     N 5485  12.178   9.423   4.206  0.9558 -0.3298  0.4170
  782MOL0     N 5486  12.058   9.463   4.172 -0.0634 -0.1126  0.3890
  782MOL0     C 5487  11.119  10.191   4.018  0.8178  0.1910 -0.2355
  782MOL0     C 5488  10.979  10.223   4.018 -0.3848  0.5637  0.4302
  782MOL0     C 5489  10.576  10.389   3.935  0.9260  0.0583 -0.0958
  782MOL0     C 5490  10.485  10.415   4.039  0.1556 -0.7506 -0.6482
  782MOL0     C 5491  10.338  10.435   4.015 -0.9160  0.1590  0.0151
  782MOL0     C 5492  10.287  10.421   3.882  0.1094 -0.4225 -0.4056
  782MOL0     O 5493  10.152  10.417   3.846 -0.1478  0.9461  0.6467
  782MOL0     C 5494  10.058  10.506   3.914  0.0955  0.1295 -0.1298
  782MOL0     C 5495  10.096  10.655   3.891  0.0967  0.0860 -0.1317
  782MOL0     C 5496  10.000  10.755   3.959  0.3969  0.2728  0.4193
  782MOL0     C 5497   9.857  10.730   3.925 -0.2763 -0.5042 -0.2260
  782MOL0     C 5498   9.767  10.849   3.936 -0.5788  0.1809  0.8943
  782MOL0     C 5499   9.699  10.936   3.959  0.5336 -0.4505  0.1094
  782MOL0     C 5500  10.383  10.390   3.780  0.1152 -0.3824  0.0523
  782MOL0     C 5501  10.524  10.374   3.801  0.0449 -0.1046  0.7075
  782MOL0     C 5502  10.610  10.353   3.684 -0.9372 -0.2073  0.5360
  782MOL0     H 5503  10.963  10.349   3.716  0.4599  0.1306 -0.0289
  782MOL0     H 5504  11.212  10.260   3.706 -1.5449 -0.2771 -0.5261
  782MOL0     H 5505  11.291   9.973   3.909 -1.1641  1.5317 -0.9128
  782MOL0     H 5506  11.441  10.025   3.824  2.8177  3.2779  1.1010
  782MOL0     H 5507  11.477   9.914   4.029 -0.8707  0.0774  0.5658
  782MOL0     H 5508  11.411  10.066   4.108 -1.6573 -0.6861 -1.1486
  782MOL0     H 5509  11.592  10.189   4.018  0.4818 -0.3940 -1.1121
  782MOL0     H 5510  11.663  10.057   3.922 -2.1069  0.1355 -1.9844
  782MOL0     H 5511  11.783  10.090   4.151  1.1143 -2.0196 -1.5128
  782MOL0     H 5512  11.632  10.062   4.229  1.7185 -0.8671  2.3891
  782MOL0     H 5513  11.678   9.803   4.169 -0.0019 -1.4812 -1.1627
  782MOL0     H 5514  11.799   9.871   4.056  1.0471 -1.2301  1.6000
  782MOL0     H 5515  11.874   9.993   4.292  0.1450  0.9729 -1.3128
  782MOL0     H 5516  11.786   9.847   4.345 -0.4344 -1.0890 -0.8791
  782MOL0     H 5517  12.037   9.840   4.321  0.9317 -0.9579 -1.2685
  782MOL0     H 5518  12.025   9.860   4.149  2.9439  0.7304  1.6141
  782MOL0     H 5519  11.889   9.633   4.304  0.9669  1.8504  1.6735
  782MOL0     H 5520  11.878   9.660   4.134 -1.7843 -1.7683  1.3173
  782MOL0     H 5521  12.224   9.727   4.285 -0.7384 -0.2275 -1.5926
  782MOL0     H 5522  12.436   9.401   4.235  2.2558  1.1068 -1.4403
  782MOL0     H 5523  12.460   9.556   4.195 -1.0323 -0.5856 -1.5197
  782MOL0     H 5524  12.560   9.525   4.424 -0.6539 -1.3950  1.7704
  782MOL0     H 5525  12.441   9.648   4.415  1.2979  0.4094  0.6761
  782MOL0     H 5526  12.294   9.516   4.547  1.5593  0.1402  3.6246
  782MOL0     H 5527  12.454   9.502   4.606  0.9671  1.6345 -0.3158
  782MOL0     H 5528  12.344   9.290   4.420 -0.1490  2.8111 -0.0617
  782MOL0     H 5529  12.317   9.276   4.599  3.4783  0.3361  3.3669
  782MOL0     H 5530  12.396   9.059   4.487 -0.1116  1.0218  1.5615
  782MOL0     H 5531  12.504   8.835   4.487 -1.7271  1.3346 -0.3004
  782MOL0     H 5532  12.844   8.564   4.726  1.5491  3.6019 -1.5830
  782MOL0     H 5533  12.966   8.343   4.723 -0.9148 -2.3489 -0.5863
  782MOL0     H 5534  13.114   8.228   4.672 -0.0757 -0.0475  0.9588
  782MOL0     H 5535  13.017   8.078   4.645 -2.7448  1.0678 -1.6730
  782MOL0     H 5536  13.257   8.019   4.608  0.7915  0.3079  0.4299
  782MOL0     H 5537  13.156   8.013   4.459 -2.2660  0.6855  0.7133
  782MOL0     H 5538  13.248   8.182   4.354  2.5403  5.7822 -1.0125
  782MOL0     H 5539  13.306   8.267   4.496 -2.4662  1.4774 -1.7241
  782MOL0     H 5540  13.426   8.020   4.341 -1.4461  0.3264  0.0054
  782MOL0     H 5541  13.467   8.034   4.501 -1.9547 -0.5734  0.8779
  782MOL0     H 5542  13.525   8.284   4.461 -2.9157 -1.6568  1.1430
  782MOL0     H 5543  13.535   8.238   4.294  1.9806  1.0372 -0.2711
  782MOL0     H 5544  13.748   8.248   4.399  0.8734 -1.4942 -1.8055
  782MOL0     H 5545  13.696   8.146   4.536 -1.3527  0.4094  0.8927
  782MOL0     H 5546  13.696   8.040   4.254 -3.3254  0.7198  0.3777
  782MOL0     H 5547  13.667   7.942   4.397  2.1695 -0.2297 -0.0967
  782MOL0     H 5548  13.922   8.105   4.356 -1.5368  1.5653  2.9529
  782MOL0     H 5549  13.890   8.020   4.499  0.8733 -0.1816 -0.0234
  782MOL0     H 5550  12.885   8.325   4.298 -1.2212  1.6978 -0.5226
  782MOL0     H 5551  12.731   8.484   4.308  1.5312 -3.0448 -1.3746
  782MOL0     H 5552  12.860   9.033   4.647  0.5307 -0.0961 -0.1119
  782MOL0     H 5553  12.736   9.243   4.659  2.1295 -1.0296 -0.5192
  782MOL0     H 5554  11.156  10.146   4.110 -0.2158 -1.7217 -0.7067
  782MOL0     H 5555  10.916  10.210   4.105 -0.4377  2.3145  0.6824
  782MOL0     H 5556  10.522  10.412   4.141 -0.2622 -1.8093 -0.5211
  782MOL0     H 5557  10.281  10.454   4.105 -0.4702  0.3917  0.2527
  782MOL0     H 5558  10.048  10.490   4.022  1.6384  2.3275  0.4025
  782MOL0     H 5559   9.963  10.483   3.865  1.2060 -2.2847 -1.3581
  782MOL0     H 5560  10.113  10.672   3.784  0.6591  1.1698  0.1192
  782MOL0     H 5561  10.188  10.676   3.946  0.0150  3.9850 -1.2117
  782MOL0     H 5562  10.026  10.854   3.922  1.4088  0.1275  0.7070
  782MOL0     H 5563  10.022  10.742   4.066 -2.2783 -3.2758  0.7023
  782MOL0     H 5564   9.847  10.689   3.824 -1.0706 -0.9170  0.0101
  782MOL0     H 5565   9.805  10.660   3.991 -1.0707  0.2211 -0.0585
  782MOL0     H 5566   9.623  11.009   3.977 -1.6094 -2.0032 -1.9995
  782MOL0     H 5567  10.340  10.385   3.681  0.0584 -0.6851  0.0905
  782MOL0     H 5568  10.636  10.247   3.689 -1.4491 -0.5388 -2.2280
  782MOL0     H 5569  10.553  10.348   3.591 -2.8757 -5.0816  1.6838
  782MOL0     H 5570  10.694  10.423   3.683 -0.7706 -0.3585  1.8752
  783MOL0     O 5571   0.510   8.471   0.179 -0.4292  0.5440  0.5272
  783MOL0     C 5572   0.486   8.591   0.165  0.8063  0.0327 -0.8442
  783MOL0     O 5573   0.576   8.685   0.180  0.4505 -0.2014 -0.2018
  783MOL0     C 5574   0.708   8.672   0.212  0.9761  0.3999 -0.5037
  783MOL0     C 5575   0.787   8.554   0.244  0.6896 -0.6806 -0.8126
  783MOL0     C 5576   0.924   8.566   0.273  0.4034 -0.2337 -0.5372
  783MOL0     C 5577   0.992   8.688   0.271 -0.6679  0.0187  0.6619
  783MOL0     O 5578   1.128   8.696   0.297  0.0780 -0.3693 -0.2843
  783MOL0     C 5579   1.195   8.821   0.299 -0.0730  0.4058  0.8549
  783MOL0     C 5580   1.322   8.810   0.392 -0.5207 -0.3868  0.5700
  783MOL0     C 5581   1.372   8.949   0.440 -0.7695  0.2494 -0.5718
  783MOL0     C 5582   1.485   8.925   0.563 -0.3270 -0.5925 -0.2351
  783MOL0     C 5583   1.544   9.068   0.590 -0.1731 -0.1403 -0.1119
  783MOL0     C 5584   1.668   9.088   0.498 -0.9235 -0.7431  0.1397
  783MOL0     C 5585   1.719   9.235   0.507 -0.5203 -0.3825  0.1010
  783MOL0     C 5586   1.862   9.235   0.575  0.5900  0.0940 -1.1159
  783MOL0     N 5587   1.934   9.357   0.563 -0.6631  0.3004 -0.0227
  783MOL0     C 5588   1.940   9.457   0.652  0.6540 -1.2260  0.2302
  783MOL0     C 5589   2.009   9.552   0.575  1.1491  0.4298  0.2766
  783MOL0     C 5590   2.058   9.682   0.625 -0.1305  0.0641  0.0982
  783MOL0     C 5591   2.182   9.661   0.715  0.9940 -0.1451 -0.6471
  783MOL0     C 5592   2.313   9.590   0.659  0.9480 -0.0965  0.6643
  783MOL0     C 5593   2.386   9.662   0.546 -0.0159 -1.1014  0.4602
  783MOL0     O 5594   2.499   9.588   0.501 -0.4752 -0.9652 -0.0008
  783MOL0     C 5595   2.495   9.475   0.423 -0.3282  0.2208 -1.2712
  783MOL0     C 5596   2.382   9.418   0.375  0.3963  0.1446  0.1846
  783MOL0     C 5597   2.387   9.302   0.300 -0.0593 -0.5264  0.3427
  783MOL0     C 5598   2.508   9.247   0.255 -0.9315 -0.1993  0.0024
  783MOL0     C 5599   2.510   9.142   0.147  0.8661  0.6211  0.1994
  783MOL0     O 5600   2.633   9.080   0.118  0.3232  0.4640  0.3253
  783MOL0     C 5601   2.649   8.958   0.054  0.3108 -0.5195 -1.5913
  783MOL0     C 5602   2.545   8.863   0.032  0.2076  0.4571 -0.0343
  783MOL0     C 5603   2.578   8.744  -0.036 -0.5576  1.6309  0.1892
  783MOL0     C 5604   2.711   8.723  -0.074  0.4082 -0.1242 -0.2369
  783MOL0     O 5605   2.764   8.612  -0.146  0.3558 -0.0399  0.1627
  783MOL0     C 5606   2.663   8.531  -0.203  0.4947 -0.3167  0.7124
  783MOL0     C 5607   2.584   8.601  -0.316 -0.2030  0.4560  0.1559
  783MOL0     C 5608   2.495   8.493  -0.385  0.2551  0.0971 -0.1681
  783MOL0     C 5609   2.416   8.569  -0.490  0.3098  0.1044 -0.8035
  783MOL0     C 5610   2.349   8.469  -0.570 -0.0348  0.0653 -0.3113
  783MOL0     C 5611   2.265   8.551  -0.674  0.4446 -0.7087  0.3975
  783MOL0     C 5612   2.184   8.452  -0.757 -0.3997 -0.5232 -0.4848
  783MOL0     C 5613   2.111   8.515  -0.877  0.1878  0.2934 -0.1982
  783MOL0    Cl 5614   1.956   8.588  -0.809  0.0025  0.0959  0.1445
  783MOL0     C 5615   2.810   8.826  -0.055 -0.1108  0.7022  0.5409
  783MOL0     C 5616   2.772   8.947  -0.003  0.0535 -0.3082 -0.4766
  783MOL0     O 5617   2.403   9.120   0.091 -0.2601  0.3934 -0.2998
  783MOL0     C 5618   2.623   9.299   0.321 -0.0354  0.0055  0.6388
  783MOL0     C 5619   2.615   9.412   0.404  0.6463 -0.5679 -0.7092
  783MOL0     N 5620   2.031   9.503   0.448  0.7627  0.1669 -0.3385
  783MOL0     N 5621   2.008   9.383   0.448 -0.1952 -0.3959 -0.2007
  783MOL0     C 5622   0.906   8.796   0.229 -0.1518  0.1043 -0.0060
  783MOL0     C 5623   0.770   8.792   0.215  0.4081 -0.1569  0.4560
  783MOL0     C 5624   0.345   8.622   0.115 -0.8325 -0.1051 -0.2077
  783MOL0     C 5625   0.332   8.747   0.061  1.7127 -0.7173 -0.1809
  783MOL0     C 5626   0.207   8.796   0.020 -0.6956 -0.3326 -0.0271
  783MOL0     C 5627   0.091   8.716   0.034 -0.1408  0.2850 -0.3312
  783MOL0     O 5628  -0.030   8.771  -0.011 -0.1029 -0.5220 -0.1065
  783MOL0     C 5629  -0.153   8.702   0.020  0.7947 -0.5941  0.1697
  783MOL0     C 5630  -0.225   8.753   0.140 -0.6196 -0.0371 -0.4970
  783MOL0     C 5631  -0.168   8.701   0.267 -0.6335 -0.3631 -0.1106
  783MOL0     C 5632  -0.220   8.761   0.398  0.3793 -0.0967 -0.4044
  783MOL0     C 5633  -0.365   8.756   0.405  0.3978  0.0694 -0.3095
  783MOL0     C 5634  -0.488   8.768   0.403 -0.0584 -0.6894  0.3265
  783MOL0     C 5635   0.107   8.579   0.076  0.6369 -0.1865  0.4015
  783MOL0     C 5636   0.233   8.528   0.114  0.0144  0.4076  0.9515
  783MOL0     C 5637   0.251   8.383   0.128  0.8078  0.6408 -0.3332
  783MOL0     H 5638   0.735   8.460   0.259 -0.3039  0.2021  1.9458
  783MOL0     H 5639   0.973   8.472   0.294 -1.3242 -1.5231 -2.0063
  783MOL0     H 5640   1.227   8.834   0.195 -0.5451 -1.4261  0.4322
  783MOL0     H 5641   1.125   8.895   0.337  0.0409  1.3051 -0.6340
  783MOL0     H 5642   1.399   8.761   0.331 -1.8870 -0.4016 -1.2312
  783MOL0     H 5643   1.297   8.750   0.480  0.6418 -1.3131  0.2904
  783MOL0     H 5644   1.282   8.994   0.485 -0.0664  1.9865 -0.8441
  783MOL0     H 5645   1.401   9.007   0.352 -0.0139  1.9624  0.7409
  783MOL0     H 5646   1.440   8.882   0.653 -2.1921 -0.0851 -0.8779
  783MOL0     H 5647   1.567   8.858   0.535  0.5352 -0.5795  2.0630
  783MOL0     H 5648   1.467   9.144   0.573 -2.2688 -2.1369  0.1511
  783MOL0     H 5649   1.579   9.074   0.693  1.0751 -3.7659 -0.1984
  783MOL0     H 5650   1.743   9.019   0.536  1.3923  1.2868 -0.4983
  783MOL0     H 5651   1.648   9.055   0.395  1.6276 -0.8371 -0.4006
  783MOL0     H 5652   1.657   9.303   0.566 -1.6965 -2.1044  0.9523
  783MOL0     H 5653   1.715   9.277   0.407 -0.0826  0.5701  0.4760
  783MOL0     H 5654   1.835   9.231   0.681  0.8130  3.6959 -0.8072
  783MOL0     H 5655   1.929   9.155   0.541 -0.2216 -1.4338  0.6562
  783MOL0     H 5656   1.912   9.459   0.757  3.5718  2.1819  1.1602
  783MOL0     H 5657   2.072   9.748   0.540 -0.0467 -0.9251 -0.6763
  783MOL0     H 5658   1.987   9.737   0.688  2.8039  0.9044  2.9606
  783MOL0     H 5659   2.212   9.760   0.752 -3.1394  0.2095  2.4860
  783MOL0     H 5660   2.141   9.609   0.802  0.5818 -0.8708 -1.2593
  783MOL0     H 5661   2.278   9.489   0.637  3.6571 -1.4444  2.1171
  783MOL0     H 5662   2.380   9.586   0.746  1.1525 -2.4562  0.4694
  783MOL0     H 5663   2.423   9.758   0.584 -2.0336  0.4470 -1.2216
  783MOL0     H 5664   2.323   9.692   0.461  1.9812  1.0379 -0.3914
  783MOL0     H 5665   2.284   9.459   0.395  1.0737  2.7856 -1.4201
  783MOL0     H 5666   2.297   9.256   0.259 -0.3693 -0.8705  1.3922
  783MOL0     H 5667   2.446   8.890   0.065 -1.0271  0.3624 -3.2537
  783MOL0     H 5668   2.501   8.669  -0.055  0.5317  0.8370 -1.3567
  783MOL0     H 5669   2.724   8.446  -0.234  1.0737 -0.7580  2.9325
  783MOL0     H 5670   2.589   8.489  -0.134  1.4086 -2.8343  0.2510
  783MOL0     H 5671   2.516   8.682  -0.290 -1.2886 -0.6326  0.7823
  783MOL0     H 5672   2.658   8.645  -0.384 -0.1558 -2.3565 -1.7516
  783MOL0     H 5673   2.561   8.421  -0.435  3.2405  1.7636  1.1158
  783MOL0     H 5674   2.425   8.446  -0.315  0.3020  0.6064  0.2208
  783MOL0     H 5675   2.482   8.634  -0.549 -0.0940  2.1569  0.8650
  783MOL0     H 5676   2.351   8.636  -0.432  3.1109  0.2571  2.4573
  783MOL0     H 5677   2.281   8.417  -0.502 -0.7626  0.1994 -0.9274
  783MOL0     H 5678   2.419   8.404  -0.624 -2.5503 -0.7288 -2.8501
  783MOL0     H 5679   2.195   8.622  -0.630 -0.4853 -1.8479  0.8237
  783MOL0     H 5680   2.336   8.601  -0.741 -3.6357 -0.3199 -4.1660
  783MOL0     H 5681   2.117   8.396  -0.691 -1.4365  3.1001  1.8197
  783MOL0     H 5682   2.254   8.376  -0.794 -0.5275 -1.3347  0.8933
  783MOL0     H 5683   2.160   8.596  -0.932 -2.3098  0.2300 -2.7851
  783MOL0     H 5684   2.080   8.445  -0.956  2.0288  0.0100 -0.7095
  783MOL0     H 5685   2.913   8.806  -0.082 -0.0101  2.6275 -0.6782
  783MOL0     H 5686   2.843   9.029  -0.001  2.6147 -2.3729 -0.5517
  783MOL0     H 5687   2.717   9.255   0.291 -0.0352  0.4943 -0.0897
  783MOL0     H 5688   2.710   9.443   0.446  0.6249 -3.1327  1.4843
  783MOL0     H 5689   0.943   8.899   0.225 -3.6799  1.4606 -1.0980
  783MOL0     H 5690   0.714   8.884   0.201 -1.5283 -1.5425 -1.8572
  783MOL0     H 5691   0.407   8.825   0.068  0.3265  0.6748 -0.0993
  783MOL0     H 5692   0.199   8.896  -0.021 -2.8849 -0.9446 -1.2762
  783MOL0     H 5693  -0.163   8.593   0.018  0.6694 -0.5843 -1.3776
  783MOL0     H 5694  -0.210   8.733  -0.068  0.4957  2.3400  1.3083
  783MOL0     H 5695  -0.324   8.708   0.145 -0.5853  0.0409  1.7716
  783MOL0     H 5696  -0.227   8.863   0.141 -3.2500  0.0715  2.9558
  783MOL0     H 5697  -0.059   8.707   0.267 -0.6857  2.2641 -1.2667
  783MOL0     H 5698  -0.193   8.595   0.264  0.0336 -0.5226 -3.1294
  783MOL0     H 5699  -0.187   8.700   0.483  0.1446 -1.6697 -1.3905
  783MOL0     H 5700  -0.192   8.864   0.422 -0.2021 -0.3327  1.4683
  783MOL0     H 5701  -0.593   8.789   0.396  0.2443  0.4039 -1.7172
  783MOL0     H 5702   0.029   8.503   0.081  1.4858 -1.0409  1.1876
  783MOL0     H 5703   0.155   8.330   0.130  0.4423  1.2593  2.3214
  783MOL0     H 5704   0.313   8.352   0.043  0.9377 -1.4018  0.4482
  783MOL0     H 5705   0.288   8.355   0.227 -2.8601  0.3213  1.1320
  784MOL0     O 5706   5.150   0.401   1.388  0.4965  0.7640  0.0985
  784MOL0     C 5707   5.218   0.326   1.459 -1.2064 -0.0890 -0.3504
  784MOL0     O 5708   5.275   0.361   1.582  0.4208  0.1031  0.1292
  784MOL0     C 5709   5.289   0.492   1.631  0.3682  0.1823  0.0588
  784MOL0     C 5710   5.292   0.610   1.557  0.4370 -0.3021  0.2173
  784MOL0     C 5711   5.307   0.739   1.619 -1.4040  0.3924  0.1720
  784MOL0     C 5712   5.311   0.742   1.756 -0.9278  0.5968 -0.3466
  784MOL0     O 5713   5.341   0.854   1.831  0.5845 -0.4205  0.2068
  784MOL0     C 5714   5.357   0.986   1.760  0.8341  0.6275 -0.5246
  784MOL0     C 5715   5.507   0.983   1.730  0.1296  0.2714  0.9996
  784MOL0     C 5716   5.549   1.076   1.609  0.5512 -0.5019 -0.1534
  784MOL0     C 5717   5.702   1.071   1.594 -0.6245 -0.5031 -0.1772
  784MOL0     C 5718   5.760   1.191   1.528 -0.7153  0.3277 -0.3433
  784MOL0     C 5719   5.918   1.172   1.519 -0.5206 -0.3895 -0.9001
  784MOL0     C 5720   5.959   1.278   1.418 -0.5751  0.1760 -0.2693
  784MOL0     C 5721   6.112   1.250   1.368  0.5675 -0.1357  0.1917
  784MOL0     N 5722   6.207   1.273   1.481 -1.0256  0.6632 -0.3868
  784MOL0     C 5723   6.276   1.172   1.543 -0.2133  0.6333 -0.5162
  784MOL0     C 5724   6.332   1.231   1.646 -0.2034 -0.1852 -0.6198
  784MOL0     C 5725   6.417   1.147   1.744 -0.2501 -0.8176  0.0327
  784MOL0     C 5726   6.523   1.222   1.819  0.3033  0.0013 -0.6899
  784MOL0     C 5727   6.625   1.141   1.892 -0.8566 -0.2139 -0.6959
  784MOL0     C 5728   6.738   1.230   1.964  0.0838 -0.4300  0.4942
  784MOL0     O 5729   6.814   1.309   1.868 -0.0844  0.1119 -0.7290
  784MOL0     C 5730   6.921   1.383   1.925  0.2176  0.3898 -0.4914
  784MOL0     C 5731   7.020   1.415   1.837  0.5861 -0.2680 -0.5659
  784MOL0     C 5732   7.142   1.485   1.875  0.1004 -0.3101  0.7277
  784MOL0     C 5733   7.158   1.532   2.001 -1.4061  0.4040 -1.0317
  784MOL0     C 5734   7.298   1.596   2.039 -0.4479  0.2486  0.6307
  784MOL0     O 5735   7.337   1.569   2.157  0.0392  0.2149 -0.3249
  784MOL0     C 5736   7.468   1.606   2.179  0.2087 -0.4016 -0.3904
  784MOL0     C 5737   7.576   1.536   2.117  0.0518  0.2161 -0.2315
  784MOL0     C 5738   7.705   1.532   2.181 -0.0919 -0.1501 -0.0567
  784MOL0     C 5739   7.724   1.610   2.297  0.2443  0.4981  0.5213
  784MOL0     O 5740   7.858   1.595   2.337  0.4411 -0.3463 -0.1005
  784MOL0     C 5741   7.907   1.686   2.440  0.2582  0.6381 -0.0243
  784MOL0     C 5742   8.054   1.660   2.475  0.7874 -0.1543 -0.1186
  784MOL0     C 5743   8.137   1.682   2.350  0.0284 -0.9918 -0.5532
  784MOL0     C 5744   8.286   1.655   2.382 -0.0738  0.3807  0.6824
  784MOL0     C 5745   8.372   1.608   2.266 -0.6659  0.0542 -0.7016
  784MOL0     C 5746   8.419   1.729   2.188  0.2730  0.1284 -0.1662
  784MOL0     C 5747   8.484   1.705   2.053 -0.1395  0.6378 -0.7860
  784MOL0     C 5748   8.563   1.834   2.001 -0.3543  1.0306 -0.6071
  784MOL0    Cl 5749   8.604   1.812   1.833 -0.3682 -0.0066  0.2307
  784MOL0     C 5750   7.619   1.702   2.344 -0.1749  0.1199 -1.0403
  784MOL0     C 5751   7.491   1.696   2.282  0.3456 -0.9030 -0.9909
  784MOL0     O 5752   7.360   1.668   1.958  0.0129 -0.1161 -0.4837
  784MOL0     C 5753   7.056   1.495   2.089 -0.1593 -0.0699  0.4677
  784MOL0     C 5754   6.943   1.427   2.055  0.0710 -0.3367  0.0393
  784MOL0     N 5755   6.302   1.367   1.648  0.6812 -0.1791  0.2595
  784MOL0     N 5756   6.225   1.388   1.555 -0.2292  0.2521  0.9108
  784MOL0     C 5757   5.306   0.618   1.833  0.0109 -1.1290 -0.5310
  784MOL0     C 5758   5.297   0.494   1.772 -0.4558  0.1268  0.1120
  784MOL0     C 5759   5.235   0.182   1.424  1.1059 -0.5695  1.1338
  784MOL0     C 5760   5.131   0.126   1.359  0.1598  0.7910  0.5257
  784MOL0     C 5761   5.137   0.009   1.284 -0.2827  0.5275 -0.4584
  784MOL0     C 5762   5.252  -0.066   1.277  0.4107 -0.5318 -1.1937
  784MOL0     O 5763   5.270  -0.188   1.218 -0.3732  0.7785  0.2045
  784MOL0     C 5764   5.167  -0.293   1.225  0.5515 -1.1993 -0.2813
  784MOL0     C 5765   5.213  -0.427   1.171 -0.2420  0.0627  0.1846
  784MOL0     C 5766   5.127  -0.544   1.220 -0.4471 -0.3246  0.3988
  784MOL0     C 5767   5.012  -0.585   1.131  0.4568 -0.2273  0.1659
  784MOL0     C 5768   4.923  -0.689   1.191 -1.3219 -0.7006  0.1510
  784MOL0     C 5769   4.844  -0.763   1.235 -0.4698  0.8200  0.2259
  784MOL0     C 5770   5.368  -0.004   1.336 -0.4390 -0.8356  0.1605
  784MOL0     C 5771   5.363   0.122   1.398 -0.8514  0.4381 -1.0537
  784MOL0     C 5772   5.490   0.181   1.438  0.0106 -0.2967 -0.7429
  784MOL0     H 5773   5.289   0.608   1.448 -0.2280 -1.9532  0.2315
  784MOL0     H 5774   5.314   0.823   1.551 -1.1626  0.8142  0.7090
  784MOL0     H 5775   5.291   1.006   1.674  1.6759 -0.3379 -1.4332
  784MOL0     H 5776   5.341   1.067   1.831 -1.3962 -1.9196  2.1404
  784MOL0     H 5777   5.547   0.885   1.703 -0.1033  0.7059 -1.1709
  784MOL0     H 5778   5.566   1.013   1.817  2.0140  2.9035 -1.0065
  784MOL0     H 5779   5.525   1.179   1.638  0.5752 -0.8954  1.3248
  784MOL0     H 5780   5.502   1.047   1.514  1.6108  0.7408 -1.1156
  784MOL0     H 5781   5.740   1.055   1.696 -1.1578 -2.0268 -0.1921
  784MOL0     H 5782   5.731   0.978   1.546 -2.4181 -0.7288 -0.9148
  784MOL0     H 5783   5.703   1.192   1.435 -2.0661 -0.4389  0.4369
  784MOL0     H 5784   5.730   1.280   1.583 -1.0112  0.2610 -0.3992
  784MOL0     H 5785   5.964   1.178   1.618 -2.0210  1.2676 -0.2475
  784MOL0     H 5786   5.948   1.077   1.475  2.0134  0.6140 -1.5217
  784MOL0     H 5787   5.955   1.377   1.465 -0.9232  0.6899 -1.3363
  784MOL0     H 5788   5.900   1.269   1.327  2.4624  0.8746 -2.4800
  784MOL0     H 5789   6.117   1.145   1.339 -3.2594 -0.5670  0.5515
  784MOL0     H 5790   6.150   1.311   1.285 -3.0712 -0.4318 -1.9103
  784MOL0     H 5791   6.297   1.072   1.505  0.7216  0.0226  1.4679
  784MOL0     H 5792   6.344   1.100   1.811 -0.3204 -0.5263  0.1623
  784MOL0     H 5793   6.463   1.072   1.679 -0.4113  0.4883 -1.6364
  784MOL0     H 5794   6.573   1.303   1.764 -1.8888  0.1255 -2.6599
  784MOL0     H 5795   6.459   1.272   1.892  0.2123 -0.0673 -0.7241
  784MOL0     H 5796   6.669   1.069   1.822  0.8334 -1.1655  1.2353
  784MOL0     H 5797   6.572   1.080   1.966 -0.2063  1.8207  1.5505
  784MOL0     H 5798   6.800   1.156   2.014 -0.9279 -0.8453  1.1851
  784MOL0     H 5799   6.689   1.305   2.027  1.1386  1.1649 -0.5076
  784MOL0     H 5800   7.001   1.386   1.734 -0.6169 -1.7143  0.0338
  784MOL0     H 5801   7.217   1.511   1.801 -1.1422  1.3782  0.0071
  784MOL0     H 5802   7.546   1.461   2.044 -3.0373 -0.6310  1.7149
  784MOL0     H 5803   7.778   1.469   2.132  0.5713 -0.1518  0.9280
  784MOL0     H 5804   7.895   1.793   2.422  1.8270  1.0881  1.3068
  784MOL0     H 5805   7.845   1.664   2.528  0.1751  1.1380  0.0404
  784MOL0     H 5806   8.086   1.722   2.559  2.9851 -1.9965  0.5383
  784MOL0     H 5807   8.072   1.554   2.500 -1.9517 -0.5635  0.4152
  784MOL0     H 5808   8.115   1.608   2.272  0.0147  0.1902 -1.7100
  784MOL0     H 5809   8.125   1.784   2.312  2.9379  0.4836  2.0868
  784MOL0     H 5810   8.275   1.566   2.445 -0.4033 -0.2728 -0.2603
  784MOL0     H 5811   8.327   1.736   2.442 -0.7280  2.3257 -1.3372
  784MOL0     H 5812   8.309   1.542   2.205  1.4315 -0.8237 -2.0587
  784MOL0     H 5813   8.455   1.550   2.306 -0.4616  0.7671 -0.0688
  784MOL0     H 5814   8.327   1.783   2.162  1.0192  1.3122 -0.4101
  784MOL0     H 5815   8.483   1.795   2.246  2.8450 -2.7620  0.5667
  784MOL0     H 5816   8.398   1.682   1.990 -0.9650  0.9055  0.2160
  784MOL0     H 5817   8.562   1.632   2.074 -0.3774  0.9605  1.4889
  784MOL0     H 5818   8.503   1.925   2.008  1.2825  2.1482 -0.6309
  784MOL0     H 5819   8.647   1.852   2.069 -2.7942  3.9844  1.9081
  784MOL0     H 5820   7.638   1.751   2.439 -2.3719 -0.6477 -0.1344
  784MOL0     H 5821   7.402   1.738   2.327  0.2964  0.4911 -2.2962
  784MOL0     H 5822   7.069   1.526   2.192 -1.2063  1.9949  0.0298
  784MOL0     H 5823   6.866   1.397   2.125 -1.4475  3.6500  0.3497
  784MOL0     H 5824   5.316   0.627   1.941 -0.0079  0.5609 -0.6376
  784MOL0     H 5825   5.287   0.397   1.819 -3.4580  0.2425 -0.0871
  784MOL0     H 5826   5.030   0.165   1.356  0.9542  2.9198 -1.2412
  784MOL0     H 5827   5.056  -0.014   1.215  0.4547  4.7584 -3.0520
  784MOL0     H 5828   5.079  -0.261   1.168  2.0759  1.1865 -1.4520
  784MOL0     H 5829   5.143  -0.302   1.332 -0.6358 -2.5709 -0.6207
  784MOL0     H 5830   5.315  -0.443   1.208  0.0256 -0.6270 -0.8294
  784MOL0     H 5831   5.224  -0.418   1.063 -0.1736 -0.3153  0.1578
  784MOL0     H 5832   5.082  -0.520   1.317  1.1379  1.1440  0.8215
  784MOL0     H 5833   5.196  -0.627   1.239 -2.5401 -1.7650  2.1972
  784MOL0     H 5834   4.942  -0.508   1.096 -1.0315 -0.0110  3.2828
  784MOL0     H 5835   5.054  -0.642   1.048 -3.5159 -2.4106 -0.5985
  784MOL0     H 5836   4.759  -0.823   1.261 -0.1720  0.6848  0.9160
  784MOL0     H 5837   5.464  -0.052   1.322 -0.0755  0.4876 -2.5930
  784MOL0     H 5838   5.544   0.226   1.355 -0.5861  0.7574 -0.5802
  784MOL0     H 5839   5.483   0.252   1.521  2.1797 -1.2599  0.3570
  784MOL0     H 5840   5.544   0.101   1.491 -2.6592 -0.9290  1.2356
  785MOL0     O 5841   5.317   9.001   0.866  0.5073 -0.5480 -0.3649
  785MOL0     C 5842   5.304   8.984   0.982  0.3232  0.2215 -0.2662
  785MOL0     O 5843   5.190   8.940   1.041 -0.0936  0.1831  0.1164
  785MOL0     C 5844   5.073   8.927   0.983  0.8757 -0.7781  0.1749
  785MOL0     C 5845   5.058   8.895   0.846  0.1524  0.6922 -0.3902
  785MOL0     C 5846   4.934   8.866   0.786 -0.0698  0.2414 -0.5646
  785MOL0     C 5847   4.823   8.866   0.864 -0.8404 -0.0799  0.6701
  785MOL0     O 5848   4.695   8.856   0.819  0.6372 -0.0106 -0.7475
  785MOL0     C 5849   4.628   8.739   0.873  0.5941 -0.1548 -0.3026
  785MOL0     C 5850   4.522   8.677   0.773 -0.6942  0.1061  0.5900
  785MOL0     C 5851   4.569   8.652   0.625  0.0331 -0.1911  0.2576
  785MOL0     C 5852   4.682   8.561   0.617  0.4934 -0.2414  0.1512
  785MOL0     C 5853   4.758   8.558   0.474 -0.1228 -0.5382 -0.7708
  785MOL0     C 5854   4.894   8.491   0.469  0.5814 -0.2617  0.2555
  785MOL0     C 5855   4.919   8.360   0.543 -0.3649  0.6266  0.4581
  785MOL0     C 5856   4.832   8.245   0.500 -0.2731 -0.0819 -0.4601
  785MOL0     N 5857   4.892   8.149   0.401  0.4131  0.0115  0.0991
  785MOL0     C 5858   4.976   8.054   0.439 -0.3364 -0.2215 -0.1607
  785MOL0     C 5859   5.041   8.021   0.328 -0.3807  0.1455  0.3076
  785MOL0     C 5860   5.177   7.938   0.317 -0.1883 -0.2060 -0.0070
  785MOL0     C 5861   5.229   7.919   0.458  0.3414 -0.8384 -0.1647
  785MOL0     C 5862   5.284   8.037   0.530 -0.3271 -0.6991  0.0716
  785MOL0     C 5863   5.365   8.005   0.660 -0.3433  0.3420  0.3246
  785MOL0     O 5864   5.287   7.938   0.748  0.7887  0.3517 -0.4455
  785MOL0     C 5865   5.333   7.840   0.823  1.4146  1.0964  0.2108
  785MOL0     C 5866   5.456   7.823   0.868  0.7590  0.8813  0.3821
  785MOL0     C 5867   5.490   7.724   0.953 -0.6816  0.5886  0.4200
  785MOL0     C 5868   5.399   7.639   1.007  0.4820 -0.0893  0.2609
  785MOL0     C 5869   5.424   7.526   1.099 -0.8183 -0.1614 -0.5887
  785MOL0     O 5870   5.358   7.408   1.074 -0.9794 -1.1743  0.4972
  785MOL0     C 5871   5.367   7.303   1.146 -0.5064  0.5287  1.4890
  785MOL0     C 5872   5.486   7.234   1.174  0.6174  0.3358 -0.4678
  785MOL0     C 5873   5.477   7.118   1.243 -0.2377 -0.2611 -0.0215
  785MOL0     C 5874   5.362   7.072   1.302  0.0292  0.1780 -0.4527
  785MOL0     O 5875   5.364   6.969   1.398 -0.0062  0.4076 -0.1234
  785MOL0     C 5876   5.275   6.977   1.510  1.1655  0.4136 -0.0643
  785MOL0     C 5877   5.302   6.865   1.602 -0.9364  0.0009 -0.4098
  785MOL0     C 5878   5.199   6.825   1.700  0.5866  0.5097  1.1461
  785MOL0     C 5879   5.115   6.703   1.649 -0.7014 -0.5612 -0.1556
  785MOL0     C 5880   5.026   6.672   1.769  0.3842  0.1560 -0.8905
  785MOL0     C 5881   5.096   6.570   1.859 -0.3563  0.0839  0.4683
  785MOL0     C 5882   5.030   6.565   1.995  0.4795  0.7399  0.0935
  785MOL0     C 5883   5.092   6.464   2.102 -0.7601  1.0631 -0.1625
  785MOL0    Cl 5884   4.995   6.439   2.241  0.2573  0.5429 -0.1022
  785MOL0     C 5885   5.239   7.140   1.267  0.4031 -0.5879 -0.2239
  785MOL0     C 5886   5.240   7.253   1.192 -0.4084 -1.0358  0.5030
  785MOL0     O 5887   5.507   7.548   1.188  0.3165 -0.6958  0.6706
  785MOL0     C 5888   5.263   7.652   0.963 -0.5678 -0.1251  0.0087
  785MOL0     C 5889   5.235   7.759   0.873 -0.1892  0.5415 -0.5338
  785MOL0     N 5890   4.995   8.099   0.221 -0.1009  0.4239  0.2880
  785MOL0     N 5891   4.911   8.182   0.267  0.4559 -0.2685  1.1396
  785MOL0     C 5892   4.835   8.894   1.003  0.0867  0.3661 -0.5248
  785MOL0     C 5893   4.960   8.918   1.059 -0.0794  1.2907 -0.6496
  785MOL0     C 5894   5.421   9.026   1.067 -0.1707  0.1200 -0.7978
  785MOL0     C 5895   5.525   9.103   1.009 -0.0946  0.1189  0.2634
  785MOL0     C 5896   5.648   9.132   1.072  0.4280 -0.1006  0.3835
  785MOL0     C 5897   5.657   9.110   1.205  0.6036 -0.7002  0.3344
  785MOL0     O 5898   5.770   9.154   1.277 -0.6497  0.3734  0.0845
  785MOL0     C 5899   5.784   9.302   1.292 -0.4057  0.6038  1.3378
  785MOL0     C 5900   5.927   9.328   1.336  0.8705  0.4776  0.4751
  785MOL0     C 5901   5.947   9.305   1.488  1.2154 -0.3384  0.6225
  785MOL0     C 5902   6.091   9.313   1.518  0.8163  0.3396 -0.6085
  785MOL0     C 5903   6.103   9.264   1.661  0.2598 -0.0740 -1.1299
  785MOL0     C 5904   6.089   9.230   1.774 -0.6547 -0.3634 -0.4015
  785MOL0     C 5905   5.554   9.052   1.279  0.1010 -0.0675  0.8270
  785MOL0     C 5906   5.437   9.009   1.213  0.2758  0.1523  0.7150
  785MOL0     C 5907   5.338   8.948   1.306  1.2052 -0.3831 -0.1420
  785MOL0     H 5908   5.133   8.916   0.770 -0.1462  1.1839 -0.5517
  785MOL0     H 5909   4.930   8.834   0.682  1.9040  0.2523 -0.6866
  785MOL0     H 5910   4.700   8.659   0.886 -1.1469 -2.3421 -2.9722
  785MOL0     H 5911   4.593   8.760   0.975  1.4760 -3.5290  0.8007
  785MOL0     H 5912   4.437   8.744   0.754 -0.2418  0.2804 -0.9430
  785MOL0     H 5913   4.493   8.577   0.807  0.6068 -1.1436 -1.8073
  785MOL0     H 5914   4.598   8.744   0.574  1.2690 -0.9315 -0.4154
  785MOL0     H 5915   4.487   8.606   0.570 -0.4303 -0.0862  0.8478
  785MOL0     H 5916   4.760   8.589   0.688  1.2229 -3.5361  0.8045
  785MOL0     H 5917   4.657   8.459   0.647 -2.6509  0.7409  1.2082
  785MOL0     H 5918   4.683   8.512   0.409 -0.9402 -1.8265  1.0001
  785MOL0     H 5919   4.757   8.661   0.439 -0.6250 -1.2567 -3.0074
  785MOL0     H 5920   4.919   8.478   0.363 -3.7137  0.1347 -0.9955
  785MOL0     H 5921   4.963   8.570   0.499 -0.2204  1.2835 -1.6938
  785MOL0     H 5922   4.901   8.379   0.649 -1.4842 -0.1897  0.4184
  785MOL0     H 5923   5.027   8.341   0.540 -0.3711  0.5615  0.6377
  785MOL0     H 5924   4.807   8.189   0.591 -1.1595  2.0002  0.6460
  785MOL0     H 5925   4.730   8.269   0.468 -0.1901 -0.7702 -1.2972
  785MOL0     H 5926   5.000   8.018   0.539  1.7002 -1.2405 -0.9437
  785MOL0     H 5927   5.161   7.841   0.269 -0.1405  1.5431 -3.9613
  785MOL0     H 5928   5.256   7.991   0.265 -0.2699 -0.1469 -0.0696
  785MOL0     H 5929   5.156   7.867   0.520 -1.0115  3.0784  1.9148
  785MOL0     H 5930   5.312   7.848   0.452  2.0386  1.0537 -0.1483
  785MOL0     H 5931   5.197   8.095   0.562  1.3990  0.7725  2.4417
  785MOL0     H 5932   5.351   8.092   0.463  2.3836 -3.2693  0.4076
  785MOL0     H 5933   5.403   8.098   0.703  0.9603  0.7233 -1.5529
  785MOL0     H 5934   5.457   7.947   0.647  0.4414  1.2135  1.7428
  785MOL0     H 5935   5.529   7.892   0.827  0.9123  0.1529 -0.6200
  785MOL0     H 5936   5.592   7.720   0.989 -0.8088  0.5795  0.7868
  785MOL0     H 5937   5.587   7.258   1.144  1.4959  0.1576  2.0804
  785MOL0     H 5938   5.559   7.048   1.256  1.1027  1.2215 -0.1867
  785MOL0     H 5939   5.261   7.081   1.542 -0.1730  0.8810 -1.9619
  785MOL0     H 5940   5.172   6.953   1.483  1.1153 -3.1465  2.5825
  785MOL0     H 5941   5.336   6.776   1.547 -0.5572  0.4709 -0.9490
  785MOL0     H 5942   5.393   6.898   1.654  0.0044 -2.0779 -0.6427
  785MOL0     H 5943   5.251   6.783   1.786 -1.8789 -3.5338  0.9074
  785MOL0     H 5944   5.135   6.909   1.730 -0.1259 -0.5075  2.5784
  785MOL0     H 5945   5.174   6.616   1.619 -0.3932 -0.9947  1.6101
  785MOL0     H 5946   5.067   6.753   1.564  2.5794  0.4117 -1.5848
  785MOL0     H 5947   4.929   6.634   1.736  0.3875 -1.6619  0.9682
  785MOL0     H 5948   5.007   6.759   1.832  1.3647 -1.4651  1.8445
  785MOL0     H 5949   5.112   6.470   1.817 -0.1217  0.5329 -0.5654
  785MOL0     H 5950   5.200   6.594   1.881 -0.1511  3.6942 -3.2256
  785MOL0     H 5951   4.927   6.540   1.968 -0.1853  4.7198 -1.6497
  785MOL0     H 5952   5.033   6.665   2.038  0.1116  0.0186  1.9050
  785MOL0     H 5953   5.104   6.365   2.057  1.3897  0.3115  1.8529
  785MOL0     H 5954   5.192   6.497   2.133  0.2141  0.5218 -2.4890
  785MOL0     H 5955   5.154   7.103   1.323  1.4023 -2.8989 -0.0991
  785MOL0     H 5956   5.156   7.317   1.165 -1.2392 -2.5499 -0.7036
  785MOL0     H 5957   5.187   7.591   1.012  0.9456  0.6813  3.6784
  785MOL0     H 5958   5.133   7.766   0.835 -0.0084 -0.3379 -1.2044
  785MOL0     H 5959   4.743   8.899   1.060 -0.4792  2.9345 -1.5751
  785MOL0     H 5960   4.964   8.921   1.167 -3.9465  0.9848 -0.3724
  785MOL0     H 5961   5.508   9.127   0.905  0.9229 -2.4561 -0.5716
  785MOL0     H 5962   5.731   9.171   1.014 -0.5414  2.4735  0.6120
  785MOL0     H 5963   5.708   9.338   1.361 -0.8880 -1.0780  1.7326
  785MOL0     H 5964   5.772   9.349   1.194  0.2134 -3.1381 -0.7428
  785MOL0     H 5965   5.963   9.426   1.303 -1.7109  1.2161 -0.4760
  785MOL0     H 5966   5.980   9.250   1.281 -0.6099 -0.2849  0.0556
  785MOL0     H 5967   5.900   9.213   1.525 -0.5074  1.1556  2.3964
  785MOL0     H 5968   5.887   9.378   1.542  0.5787 -2.4725  3.0302
  785MOL0     H 5969   6.144   9.243   1.453  0.2038 -2.7679  1.9861
  785MOL0     H 5970   6.143   9.410   1.519 -2.1428  2.1874  3.7967
  785MOL0     H 5971   6.096   9.205   1.879  1.6998 -0.8268 -0.6141
  785MOL0     H 5972   5.589   9.047   1.381 -0.2161 -2.2842  0.8586
  785MOL0     H 5973   5.242   9.001   1.309  0.3504 -1.8931  0.8543
  785MOL0     H 5974   5.319   8.840   1.304 -1.5990  0.0440 -0.3087
  785MOL0     H 5975   5.374   8.956   1.409  2.1799  1.0809 -0.5712
  786MOL0     O 5976   2.876   3.104   6.185 -1.2008 -0.1463  0.1256
  786MOL0     C 5977   2.916   3.043   6.088 -0.2096  0.3124  0.4661
  786MOL0     O 5978   2.878   2.912   6.064  0.3248  0.7555 -0.0699
  786MOL0     C 5979   2.780   2.862   6.144  0.1205 -0.0923  0.6328
  786MOL0     C 5980   2.649   2.903   6.145 -0.0378 -0.3617 -0.3427
  786MOL0     C 5981   2.552   2.831   6.212  0.4357 -0.5274 -0.3860
  786MOL0     C 5982   2.575   2.706   6.271 -0.7119 -0.5231  0.5911
  786MOL0     O 5983   2.462   2.651   6.324  0.1688 -0.0145 -0.4580
  786MOL0     C 5984   2.470   2.518   6.378 -0.2508 -0.0122  0.7442
  786MOL0     C 5985   2.329   2.459   6.369 -0.3696  0.4690 -0.2644
  786MOL0     C 5986   2.216   2.518   6.455 -1.3947 -0.3269  0.0716
  786MOL0     C 5987   2.081   2.461   6.409 -0.8988  0.5297  0.5561
  786MOL0     C 5988   2.041   2.512   6.269 -1.1586 -0.7094  0.2251
  786MOL0     C 5989   1.897   2.472   6.237  0.2119 -0.3032  0.2909
  786MOL0     C 5990   1.896   2.315   6.204 -0.1856 -0.0725 -0.4923
  786MOL0     C 5991   1.756   2.257   6.158 -0.1558  0.0206  0.2427
  786MOL0     N 5992   1.744   2.111   6.143  0.4746 -0.1081 -0.8029
  786MOL0     C 5993   1.720   2.041   6.024 -0.1376  0.1161 -0.3767
  786MOL0     C 5994   1.714   1.908   6.069  0.1467 -0.0870  0.7927
  786MOL0     C 5995   1.678   1.790   5.985  0.8157  0.6900 -0.6063
  786MOL0     C 5996   1.555   1.820   5.892  0.1723  0.6895  0.6212
  786MOL0     C 5997   1.519   1.698   5.801  0.5196 -0.1451 -0.0993
  786MOL0     C 5998   1.531   1.742   5.660  0.4224  0.4905  0.3799
  786MOL0     O 5999   1.429   1.847   5.633 -0.6078  0.2617 -1.1141
  786MOL0     C 6000   1.378   1.845   5.508 -0.3176 -0.0701  0.3991
  786MOL0     C 6001   1.248   1.790   5.488 -1.3002  0.6832 -0.1781
  786MOL0     C 6002   1.185   1.796   5.365 -0.4034  0.3918 -1.6903
  786MOL0     C 6003   1.259   1.841   5.259 -0.5928 -1.0227  0.3214
  786MOL0     C 6004   1.181   1.847   5.132  0.3503  0.4224  0.9314
  786MOL0     O 6005   1.051   1.797   5.131  0.4618 -0.6904  0.6467
  786MOL0     C 6006   0.978   1.794   5.007  0.6973  0.4164 -0.1805
  786MOL0     C 6007   0.973   1.901   4.920  0.2572  0.3498  0.4930
  786MOL0     C 6008   0.893   1.880   4.797 -0.0647 -0.2886  0.6527
  786MOL0     C 6009   0.819   1.766   4.777  0.6622 -0.4944  0.2204
  786MOL0     O 6010   0.740   1.761   4.666  0.3295 -0.0205  0.3196
  786MOL0     C 6011   0.602   1.759   4.702  0.3139 -0.3118  0.2814
  786MOL0     C 6012   0.524   1.740   4.568  0.2039 -0.1774  0.1431
  786MOL0     C 6013   0.574   1.614   4.493 -0.7298 -0.0335  0.5209
  786MOL0     C 6014   0.487   1.569   4.373  0.6119  0.0680 -0.4083
  786MOL0     C 6015   0.559   1.466   4.283 -0.3047  0.8202 -0.2082
  786MOL0     C 6016   0.473   1.422   4.166 -1.0098 -0.8859 -0.0100
  786MOL0     C 6017   0.361   1.323   4.222  0.0344 -0.9386 -0.5695
  786MOL0     C 6018   0.252   1.294   4.119  0.5284  0.7609  0.9518
  786MOL0    Cl 6019   0.112   1.240   4.211 -0.3071  0.0990 -0.4473
  786MOL0     C 6020   0.829   1.669   4.876 -0.5519  0.0390 -0.1979
  786MOL0     C 6021   0.898   1.682   4.991  0.2570  0.0730  1.1842
  786MOL0     O 6022   1.234   1.892   5.031  0.0565 -0.2942  0.3042
  786MOL0     C 6023   1.393   1.887   5.270  0.7744 -0.4449 -1.2846
  786MOL0     C 6024   1.451   1.888   5.398 -0.4385  0.2575  0.2688
  786MOL0     N 6025   1.711   1.911   6.208  0.6375 -0.6934 -0.0898
  786MOL0     N 6026   1.735   2.031   6.252  0.1839  0.5169  0.5936
  786MOL0     C 6027   2.706   2.664   6.273  0.4005 -0.3638 -0.1502
  786MOL0     C 6028   2.800   2.738   6.201  0.3335  0.8956  0.0068
  786MOL0     C 6029   2.994   3.124   6.000  0.9490  0.4035 -0.2936
  786MOL0     C 6030   2.992   3.115   5.866 -0.4573  0.7051  0.4778
  786MOL0     C 6031   3.032   3.212   5.775 -0.0282  0.5411 -0.3521
  786MOL0     C 6032   3.077   3.338   5.827  0.2308  1.0585 -0.2659
  786MOL0     O 6033   3.090   3.447   5.743  0.4235 -0.4581  0.1308
  786MOL0     C 6034   3.213   3.513   5.734  0.0749 -0.3967  0.2965
  786MOL0     C 6035   3.303   3.443   5.635 -0.1323 -0.0680  1.1426
  786MOL0     C 6036   3.360   3.543   5.530  0.2231  0.8097  0.1211
  786MOL0     C 6037   3.450   3.484   5.433  0.5698  0.7149  0.3455
  786MOL0     C 6038   3.485   3.588   5.336  0.3668 -0.1033 -0.0573
  786MOL0     C 6039   3.521   3.685   5.269  1.0115  0.2032  0.8146
  786MOL0     C 6040   3.097   3.348   5.964 -0.2480  0.5747  0.1051
  786MOL0     C 6041   3.062   3.240   6.049  1.0338 -0.5378  0.1393
  786MOL0     C 6042   3.102   3.257   6.191 -0.7720  0.3496  0.1115
  786MOL0     H 6043   2.620   2.997   6.099  0.3490  0.4551  1.0059
  786MOL0     H 6044   2.456   2.880   6.227  0.0859 -0.2444 -3.0526
  786MOL0     H 6045   2.545   2.466   6.318 -2.1488  0.0087 -1.8091
  786MOL0     H 6046   2.508   2.520   6.480  0.6106  3.2282  0.4763
  786MOL0     H 6047   2.336   2.353   6.396 -0.4309  0.6435  0.4432
  786MOL0     H 6048   2.299   2.477   6.265 -1.3920  1.8147  0.2415
  786MOL0     H 6049   2.199   2.624   6.433 -3.1720 -0.3783  0.9997
  786MOL0     H 6050   2.225   2.498   6.562 -1.6752 -2.5390 -0.2800
  786MOL0     H 6051   2.089   2.352   6.403  2.3393  0.7274 -0.6453
  786MOL0     H 6052   2.003   2.483   6.483  0.0317 -0.9424  2.0432
  786MOL0     H 6053   2.038   2.621   6.278  1.2647 -0.4745 -1.0663
  786MOL0     H 6054   2.116   2.495   6.191 -0.0964  0.0033  1.0761
  786MOL0     H 6055   1.825   2.490   6.317  0.7583 -2.9500  1.4585
  786MOL0     H 6056   1.865   2.537   6.154  0.1070  0.4247  0.8921
  786MOL0     H 6057   1.919   2.263   6.298  2.4367  1.3535 -0.2699
  786MOL0     H 6058   1.975   2.307   6.130  0.1616 -0.4946 -0.0846
  786MOL0     H 6059   1.679   2.281   6.231 -0.4356 -1.1417  0.3489
  786MOL0     H 6060   1.736   2.315   6.067  0.9582 -0.6706 -0.4791
  786MOL0     H 6061   1.704   2.083   5.926  1.7381  2.9981  0.4281
  786MOL0     H 6062   1.765   1.763   5.925 -0.5959 -0.7471 -2.1092
  786MOL0     H 6063   1.653   1.710   6.056 -1.8198  1.3879 -0.6297
  786MOL0     H 6064   1.460   1.847   5.938  0.4336  0.3782  1.3683
  786MOL0     H 6065   1.585   1.906   5.831  3.0006 -1.4568 -1.3032
  786MOL0     H 6066   1.413   1.679   5.816  0.5153  1.5256  2.5099
  786MOL0     H 6067   1.566   1.601   5.818  1.3380  0.6582  2.7231
  786MOL0     H 6068   1.518   1.650   5.602  3.7510 -0.7181  1.2924
  786MOL0     H 6069   1.629   1.774   5.624 -0.3544  0.9448 -1.4747
  786MOL0     H 6070   1.212   1.748   5.582  2.5501 -1.7540  0.4240
  786MOL0     H 6071   1.083   1.760   5.359 -1.5279  3.5378 -3.3392
  786MOL0     H 6072   1.041   1.985   4.930 -0.3505  0.7504  1.4082
  786MOL0     H 6073   0.892   1.955   4.719  0.8360 -0.7938  0.1420
  786MOL0     H 6074   0.578   1.666   4.753  0.1801 -1.5312 -1.8841
  786MOL0     H 6075   0.567   1.850   4.751 -1.5336 -0.7835 -0.1139
  786MOL0     H 6076   0.416   1.737   4.588 -0.4849  0.4681 -2.9620
  786MOL0     H 6077   0.532   1.825   4.500  2.3602  1.1335  1.9147
  786MOL0     H 6078   0.666   1.654   4.449 -2.2322  1.4627 -1.4601
  786MOL0     H 6079   0.600   1.533   4.561 -1.2121  0.4539  1.3043
  786MOL0     H 6080   0.474   1.652   4.302  0.6547 -1.5644 -2.4166
  786MOL0     H 6081   0.393   1.540   4.420  2.0457 -0.5115  2.2738
  786MOL0     H 6082   0.581   1.385   4.353 -2.4756 -2.2019 -2.7150
  786MOL0     H 6083   0.649   1.503   4.234  1.5324 -3.3268 -0.4126
  786MOL0     H 6084   0.427   1.510   4.119 -3.2303 -1.2865  1.2670
  786MOL0     H 6085   0.537   1.367   4.097 -1.8485 -0.4570 -1.1550
  786MOL0     H 6086   0.323   1.351   4.321 -1.7935 -1.7957 -0.9910
  786MOL0     H 6087   0.405   1.224   4.237 -1.3512 -1.2799  1.6413
  786MOL0     H 6088   0.214   1.381   4.064 -0.9601 -2.3909 -3.6355
  786MOL0     H 6089   0.283   1.218   4.046 -0.6749  1.5358 -0.4305
  786MOL0     H 6090   0.764   1.583   4.866  1.0288 -0.9387 -3.5121
  786MOL0     H 6091   0.881   1.608   5.069 -0.0003 -0.8026  0.3162
  786MOL0     H 6092   1.456   1.916   5.187 -0.1124  1.2167 -1.4165
  786MOL0     H 6093   1.553   1.917   5.424 -0.0932 -1.9237  1.6565
  786MOL0     H 6094   2.736   2.575   6.327 -1.1026 -1.0700 -0.4193
  786MOL0     H 6095   2.891   2.679   6.191 -0.6705 -0.5298 -1.2022
  786MOL0     H 6096   2.920   3.051   5.816 -2.5732  2.3526  1.2742
  786MOL0     H 6097   3.013   3.208   5.668 -1.8727 -0.1432 -0.0316
  786MOL0     H 6098   3.273   3.523   5.824  0.9003 -0.1314 -0.2704
  786MOL0     H 6099   3.187   3.613   5.700  2.3546  0.4370  0.8705
  786MOL0     H 6100   3.258   3.356   5.587 -0.0207 -0.6608  2.0923
  786MOL0     H 6101   3.376   3.389   5.695 -0.3582 -0.4919  1.0399
  786MOL0     H 6102   3.414   3.613   5.594 -1.6111  0.0909  2.6185
  786MOL0     H 6103   3.274   3.589   5.481  1.0279  0.3153 -1.8256
  786MOL0     H 6104   3.535   3.454   5.495  0.0864  0.4476  0.8843
  786MOL0     H 6105   3.404   3.399   5.382  0.7942  1.4978 -1.2175
  786MOL0     H 6106   3.551   3.760   5.198  2.8049 -0.3844  0.9028
  786MOL0     H 6107   3.162   3.429   5.996  2.3833  0.1804 -3.5520
  786MOL0     H 6108   3.157   3.174   6.236  1.0280  1.1605 -0.5081
  786MOL0     H 6109   3.179   3.334   6.193 -2.8303  2.5935  3.9511
  786MOL0     H 6110   3.026   3.290   6.263 -1.7623 -2.9503  0.7766
  787MOL0     O 6111   7.782   4.396   2.845 -0.4552 -0.2264 -0.0922
  787MOL0     C 6112   7.757   4.317   2.935  1.3654  0.6173 -0.4969
  787MOL0     O 6113   7.693   4.194   2.910  0.7400 -0.6524 -0.1070
  787MOL0     C 6114   7.647   4.174   2.774  0.0912 -0.6176 -0.1094
  787MOL0     C 6115   7.735   4.186   2.664  0.3625 -0.5426  1.0527
  787MOL0     C 6116   7.682   4.152   2.536 -1.3641  0.6670 -0.7027
  787MOL0     C 6117   7.553   4.114   2.517 -0.5448 -0.5617 -0.7909
  787MOL0     O 6118   7.521   4.104   2.387  0.3654 -0.1507 -0.0306
  787MOL0     C 6119   7.411   4.185   2.344 -0.0733  0.1156 -0.1339
  787MOL0     C 6120   7.451   4.337   2.334 -0.3403 -0.6645  0.0732
  787MOL0     C 6121   7.544   4.349   2.214  0.7606 -0.5643  0.1772
  787MOL0     C 6122   7.610   4.488   2.228  0.4423 -0.0927 -1.1993
  787MOL0     C 6123   7.503   4.610   2.202  0.2650 -0.2183  0.3470
  787MOL0     C 6124   7.572   4.743   2.196  0.4928  0.2053  0.4191
  787MOL0     C 6125   7.640   4.790   2.329 -0.0227  0.0742  0.1413
  787MOL0     C 6126   7.729   4.910   2.302  0.6330  0.1756 -0.5720
  787MOL0     N 6127   7.814   4.923   2.419 -0.5596  0.2199  0.2705
  787MOL0     C 6128   7.918   4.840   2.449 -0.4178  0.3894 -0.2418
  787MOL0     C 6129   7.971   4.886   2.560 -0.6214  0.3736  0.2255
  787MOL0     C 6130   8.096   4.809   2.608 -0.2415  0.0809  0.8362
  787MOL0     C 6131   8.090   4.754   2.756 -0.8446  0.2369 -0.3805
  787MOL0     C 6132   8.207   4.656   2.794  0.4590 -0.2484  0.5472
  787MOL0     C 6133   8.182   4.606   2.927  1.5430 -0.6695 -0.2436
  787MOL0     O 6134   8.266   4.503   2.968 -0.0661 -0.1844 -0.0333
  787MOL0     C 6135   8.269   4.462   3.101  0.8968  0.2071  0.1092
  787MOL0     C 6136   8.207   4.528   3.207  0.7632 -0.7244 -0.8155
  787MOL0     C 6137   8.221   4.487   3.341  0.4340  0.0916  0.0369
  787MOL0     C 6138   8.302   4.378   3.376 -0.2855  0.0082 -0.4221
  787MOL0     C 6139   8.320   4.323   3.510 -0.1468 -0.1067 -0.0655
  787MOL0     O 6140   8.341   4.192   3.524 -0.0353 -0.0065 -0.3505
  787MOL0     C 6141   8.327   4.132   3.642 -0.0325 -0.3765 -0.6776
  787MOL0     C 6142   8.239   4.168   3.744 -0.6447 -0.3223 -0.5658
  787MOL0     C 6143   8.227   4.098   3.860  0.2698 -0.7389  0.2834
  787MOL0     C 6144   8.307   3.994   3.892 -0.9332  0.2773 -0.6797
  787MOL0     O 6145   8.294   3.916   4.005  0.2299  0.0922 -0.6465
  787MOL0     C 6146   8.172   3.933   4.086 -0.1009 -0.0476 -0.8364
  787MOL0     C 6147   8.180   3.826   4.190 -0.4724  0.5869  0.4389
  787MOL0     C 6148   8.084   3.851   4.309 -1.1194 -0.8267 -0.7890
  787MOL0     C 6149   8.114   3.754   4.430 -0.4425  0.4944  0.2508
  787MOL0     C 6150   8.072   3.787   4.568 -0.2232 -1.2667 -0.5195
  787MOL0     C 6151   7.913   3.803   4.557  0.5427 -0.2392 -0.6022
  787MOL0     C 6152   7.842   3.664   4.539  0.6085 -0.3311 -0.2486
  787MOL0     C 6153   7.706   3.647   4.600 -0.7185  0.0389  0.5861
  787MOL0    Cl 6154   7.639   3.487   4.604 -0.1580 -0.3423 -0.3256
  787MOL0     C 6155   8.404   3.959   3.791  0.0114  0.0912  0.1155
  787MOL0     C 6156   8.411   4.023   3.671  1.1616 -0.5646  0.4891
  787MOL0     O 6157   8.312   4.406   3.601  0.5514  0.0097  0.5680
  787MOL0     C 6158   8.363   4.305   3.270 -0.4563 -0.8532  0.3110
  787MOL0     C 6159   8.348   4.352   3.133  0.2716 -0.3114 -0.1630
  787MOL0     N 6160   7.913   4.997   2.608  0.2674  0.0757 -0.5243
  787MOL0     N 6161   7.817   5.015   2.514  1.0562 -0.0212 -0.6901
  787MOL0     C 6162   7.474   4.086   2.629  0.2977  0.4163 -0.0228
  787MOL0     C 6163   7.522   4.117   2.757  0.3996  0.2913  0.4024
  787MOL0     C 6164   7.784   4.360   3.081 -0.1326 -0.8716  0.4791
  787MOL0     C 6165   7.861   4.477   3.094 -0.3720  0.9201 -0.2034
  787MOL0     C 6166   7.877   4.535   3.219 -0.4162  0.1058  0.5904
  787MOL0     C 6167   7.824   4.469   3.334 -0.6891 -0.1491 -0.4121
  787MOL0     O 6168   7.814   4.519   3.459  0.2150  0.2267  0.0737
  787MOL0     C 6169   7.879   4.640   3.477  0.4543  0.1844  0.1871
  787MOL0     C 6170   7.912   4.665   3.623 -0.6152  0.7277 -0.4773
  787MOL0     C 6171   7.804   4.668   3.737  0.8267  0.2574  0.0095
  787MOL0     C 6172   7.848   4.759   3.851  0.7501  0.3710 -1.1493
  787MOL0     C 6173   7.722   4.805   3.918 -0.8077  0.0506 -0.4825
  787MOL0     C 6174   7.619   4.846   3.968  0.0011  0.7039  0.7970
  787MOL0     C 6175   7.747   4.356   3.317  0.3847 -0.2736  0.2713
  787MOL0     C 6176   7.719   4.299   3.194 -0.2775 -0.4710 -0.7327
  787MOL0     C 6177   7.646   4.173   3.190 -0.9691 -0.4220 -0.3775
  787MOL0     H 6178   7.838   4.215   2.679  0.5567 -1.7614  2.2344
  787MOL0     H 6179   7.746   4.132   2.451  2.1025  0.3978  1.7246
  787MOL0     H 6180   7.396   4.156   2.239  2.4166 -0.4560 -0.3850
  787MOL0     H 6181   7.318   4.174   2.400  1.2009  1.1658  2.3325
  787MOL0     H 6182   7.493   4.367   2.431 -0.8119 -0.1976  0.1326
  787MOL0     H 6183   7.361   4.397   2.322  0.1770  0.4394  1.3965
  787MOL0     H 6184   7.479   4.344   2.126 -2.4121  1.6987  2.2092
  787MOL0     H 6185   7.636   4.290   2.222  0.8446 -0.7153 -1.5573
  787MOL0     H 6186   7.662   4.500   2.323 -1.6957  0.1145 -0.0012
  787MOL0     H 6187   7.681   4.469   2.147  0.5356 -3.1281 -0.5247
  787MOL0     H 6188   7.458   4.584   2.106 -0.0151 -0.5134  0.5561
  787MOL0     H 6189   7.430   4.620   2.283 -2.3272  5.5847 -2.1952
  787MOL0     H 6190   7.645   4.750   2.115 -2.4345 -0.6190 -2.5102
  787MOL0     H 6191   7.487   4.806   2.167 -1.4142 -2.3157  0.1601
  787MOL0     H 6192   7.692   4.704   2.374  1.3926  0.0712 -1.3989
  787MOL0     H 6193   7.559   4.825   2.394 -2.4124 -0.0480 -2.5747
  787MOL0     H 6194   7.788   4.890   2.213  0.4720 -1.1977 -0.3944
  787MOL0     H 6195   7.669   4.999   2.282 -1.3075 -0.2704  2.5833
  787MOL0     H 6196   7.950   4.756   2.389  1.6317  0.5146  0.6172
  787MOL0     H 6197   8.129   4.733   2.537  1.7655  1.6249  0.0324
  787MOL0     H 6198   8.179   4.878   2.595  0.2091 -0.7053 -0.7156
  787MOL0     H 6199   8.109   4.831   2.832  2.2677 -0.5332 -0.2414
  787MOL0     H 6200   7.997   4.698   2.768 -0.3672 -1.1886 -2.6977
  787MOL0     H 6201   8.304   4.706   2.790  1.5697 -2.3090 -0.0517
  787MOL0     H 6202   8.206   4.571   2.724 -2.1619  0.9916 -1.0703
  787MOL0     H 6203   8.081   4.563   2.933  1.8436 -1.7411 -1.9684
  787MOL0     H 6204   8.181   4.695   2.990 -0.8375 -1.2538  0.6826
  787MOL0     H 6205   8.160   4.623   3.186  2.3492  0.5493  1.1147
  787MOL0     H 6206   8.167   4.545   3.414  1.4146  2.0337 -0.6991
  787MOL0     H 6207   8.180   4.259   3.745 -0.6395 -0.3066  1.2135
  787MOL0     H 6208   8.167   4.147   3.936  0.2936  3.0124 -1.8732
  787MOL0     H 6209   8.200   4.030   4.128  0.0441 -0.1043 -0.8037
  787MOL0     H 6210   8.080   3.950   4.028  0.2011  3.0029 -0.5838
  787MOL0     H 6211   8.160   3.725   4.154 -1.2450  0.9131 -0.0760
  787MOL0     H 6212   8.282   3.839   4.229 -0.5152 -0.0091  0.7618
  787MOL0     H 6213   8.072   3.957   4.331 -4.9679 -1.4284  0.9075
  787MOL0     H 6214   7.979   3.838   4.280 -1.3168  1.7908 -1.4897
  787MOL0     H 6215   8.222   3.744   4.433 -0.4868 -0.0648  3.1775
  787MOL0     H 6216   8.067   3.658   4.404  0.4793 -0.2028  1.1177
  787MOL0     H 6217   8.114   3.883   4.600 -3.9145 -0.0547  1.2439
  787MOL0     H 6218   8.090   3.709   4.642 -0.7311 -0.9796 -0.0858
  787MOL0     H 6219   7.866   3.847   4.646 -1.0864 -0.9752 -1.0498
  787MOL0     H 6220   7.888   3.883   4.485  1.8692  2.8147  2.0687
  787MOL0     H 6221   7.906   3.591   4.590 -1.4336 -1.0374  1.4916
  787MOL0     H 6222   7.839   3.645   4.432  0.0333 -2.4461  0.0830
  787MOL0     H 6223   7.704   3.683   4.703 -1.0423 -0.0735  0.6210
  787MOL0     H 6224   7.639   3.705   4.534  0.4428 -0.9728 -1.5760
  787MOL0     H 6225   8.472   3.881   3.824  0.6066  1.1660  1.5148
  787MOL0     H 6226   8.480   3.997   3.591 -0.4517 -3.8348 -0.0157
  787MOL0     H 6227   8.411   4.210   3.288  0.8282 -0.2093  0.3595
  787MOL0     H 6228   8.387   4.291   3.052  0.2743 -3.3017  1.9238
  787MOL0     H 6229   7.369   4.060   2.621  0.0532  1.3980 -0.2014
  787MOL0     H 6230   7.462   4.086   2.842  0.4455  0.1588  0.3872
  787MOL0     H 6231   7.890   4.539   3.009 -0.6732 -1.0135 -1.7791
  787MOL0     H 6232   7.942   4.621   3.230  1.2608 -0.9406 -0.5746
  787MOL0     H 6233   7.827   4.730   3.443 -0.6858 -0.2821  0.6620
  787MOL0     H 6234   7.980   4.636   3.435  1.9981  0.2818  3.5652
  787MOL0     H 6235   7.958   4.764   3.632 -0.7895  0.6441  2.1269
  787MOL0     H 6236   7.979   4.582   3.648 -0.0005  0.7994 -1.7907
  787MOL0     H 6237   7.788   4.571   3.785  0.5597  0.0778 -0.4428
  787MOL0     H 6238   7.712   4.706   3.692  0.4121 -0.3771  0.2979
  787MOL0     H 6239   7.927   4.711   3.909  0.3307  1.4256  0.3665
  787MOL0     H 6240   7.874   4.856   3.809 -1.7392  2.0155  0.8210
  787MOL0     H 6241   7.516   4.861   3.992 -1.1449  2.8517 -4.0865
  787MOL0     H 6242   7.701   4.314   3.406 -0.5319  0.4705  0.1716
  787MOL0     H 6243   7.634   4.139   3.294  0.8953 -2.0110 -0.6340
  787MOL0     H 6244   7.546   4.181   3.147 -0.8352 -1.4032 -0.9019
  787MOL0     H 6245   7.706   4.099   3.137  1.0681  1.2480 -0.5253
  788MOL0     O 6246   3.251   3.854   4.992 -1.0930  0.2023 -0.5354
  788MOL0     C 6247   3.227   3.952   4.924 -0.3042  1.1024  0.5885
  788MOL0     O 6248   3.095   3.979   4.888 -0.6922 -0.2010 -0.0889
  788MOL0     C 6249   2.987   3.904   4.931 -1.1918  0.8751 -0.4382
  788MOL0     C 6250   2.962   3.786   4.860 -0.1866  0.0667 -0.4341
  788MOL0     C 6251   2.840   3.724   4.864  0.2191  0.6048 -0.3851
  788MOL0     C 6252   2.753   3.759   4.969  0.4720 -1.4766 -0.1607
  788MOL0     O 6253   2.634   3.696   4.974 -0.4907  0.0474 -0.5274
  788MOL0     C 6254   2.532   3.724   5.073 -0.2109 -0.9572  0.0093
  788MOL0     C 6255   2.423   3.627   5.043 -0.1215 -0.6723 -0.1892
  788MOL0     C 6256   2.280   3.691   5.078  0.2127  0.1147 -0.4586
  788MOL0     C 6257   2.265   3.695   5.233 -0.6422 -0.3347  0.6181
  788MOL0     C 6258   2.118   3.686   5.277 -0.4517  0.3887 -0.7529
  788MOL0     C 6259   2.063   3.817   5.257  0.5014 -0.1525 -1.1144
  788MOL0     C 6260   1.915   3.819   5.309  0.4578  0.3345 -0.1795
  788MOL0     C 6261   1.835   3.944   5.276  0.1113  0.2514  0.0922
  788MOL0     N 6262   1.763   3.966   5.406 -0.2469 -0.5670  0.3355
  788MOL0     C 6263   1.729   4.093   5.460 -0.1733 -0.0081  0.5121
  788MOL0     C 6264   1.644   4.075   5.561  0.5714 -0.6073  0.9452
  788MOL0     C 6265   1.576   4.187   5.639 -0.5561 -0.5322  0.5938
  788MOL0     C 6266   1.677   4.257   5.730  0.0992 -0.2663 -0.4926
  788MOL0     C 6267   1.704   4.182   5.850  0.9729  0.7415  0.1025
  788MOL0     C 6268   1.816   4.241   5.947 -1.1090 -0.2662  0.4763
  788MOL0     O 6269   1.769   4.359   6.004 -0.0249 -0.2710 -0.5023
  788MOL0     C 6270   1.833   4.411   6.124  0.3105 -0.4873  0.2797
  788MOL0     C 6271   1.774   4.523   6.183  0.0987 -0.0450  0.2002
  788MOL0     C 6272   1.826   4.576   6.301 -0.1465 -0.4704 -0.5583
  788MOL0     C 6273   1.949   4.532   6.349  0.4391  0.6020  0.6924
  788MOL0     C 6274   2.016   4.584   6.463  0.9695  0.5743 -0.0910
  788MOL0     O 6275   1.939   4.671   6.536  0.4712 -0.0757  0.4037
  788MOL0     C 6276   1.998   4.771   6.590 -0.0803 -0.1216 -0.6820
  788MOL0     C 6277   2.105   4.834   6.529  0.6595 -0.5693 -0.1962
  788MOL0     C 6278   2.144   4.960   6.573  0.2995  0.2606 -0.1693
  788MOL0     C 6279   2.075   5.032   6.678 -0.1955  0.9716 -0.2037
  788MOL0     O 6280   2.112   5.156   6.723  0.0564 -0.4211 -0.2009
  788MOL0     C 6281   2.255   5.194   6.729  0.7839 -0.4891 -1.0286
  788MOL0     C 6282   2.291   5.285   6.614 -0.8023  0.7585  0.6934
  788MOL0     C 6283   2.438   5.287   6.614  1.3775 -0.1906 -0.0175
  788MOL0     C 6284   2.490   5.403   6.522 -0.8505 -0.7112 -1.0022
  788MOL0     C 6285   2.640   5.399   6.506  0.2413 -0.7668 -0.6209
  788MOL0     C 6286   2.691   5.556   6.486 -0.1412  0.1934 -0.4784
  788MOL0     C 6287   2.834   5.581   6.464  0.0208  0.4641 -0.3601
  788MOL0     C 6288   2.886   5.725   6.447  0.3852 -1.1519 -0.5048
  788MOL0    Cl 6289   2.853   5.814   6.594 -0.0412  0.3443  0.2044
  788MOL0     C 6290   1.965   4.963   6.734 -1.2435 -0.3445 -0.2297
  788MOL0     C 6291   1.930   4.840   6.691 -0.0129  0.6331  1.0536
  788MOL0     O 6292   2.127   4.550   6.492 -0.5522  0.1351 -0.2029
  788MOL0     C 6293   2.012   4.420   6.287  0.1306 -0.7823 -0.1786
  788MOL0     C 6294   1.954   4.357   6.171  0.2905  0.1501  0.0374
  788MOL0     N 6295   1.614   3.940   5.557  0.5114 -0.3820  0.2928
  788MOL0     N 6296   1.684   3.883   5.471  0.6047  1.0817  1.0229
  788MOL0     C 6297   2.781   3.873   5.044  0.0611  0.4924 -0.2017
  788MOL0     C 6298   2.892   3.951   5.021 -0.6567  0.1715  0.1741
  788MOL0     C 6299   3.332   4.038   4.854 -0.8299  0.4602  0.1908
  788MOL0     C 6300   3.287   4.146   4.781  0.2930 -0.2591 -0.2263
  788MOL0     C 6301   3.370   4.225   4.701  1.0373 -1.0926 -0.0159
  788MOL0     C 6302   3.506   4.217   4.695  0.3582 -0.0327 -1.1077
  788MOL0     O 6303   3.598   4.291   4.620  0.1769  0.5783  0.9717
  788MOL0     C 6304   3.538   4.375   4.518  0.1697 -1.0216  0.9062
  788MOL0     C 6305   3.651   4.434   4.424  0.2050  0.0262 -0.1659
  788MOL0     C 6306   3.587   4.544   4.333 -0.5443 -1.5425  0.4951
  788MOL0     C 6307   3.687   4.608   4.234  0.8241 -0.6885 -1.0795
  788MOL0     C 6308   3.624   4.725   4.172  0.4170 -0.5688  0.1037
  788MOL0     C 6309   3.564   4.811   4.106  0.2979  0.8157 -1.2137
  788MOL0     C 6310   3.558   4.115   4.788 -0.0066 -0.4444  0.0259
  788MOL0     C 6311   3.479   4.025   4.862 -0.0147 -0.4366  0.1006
  788MOL0     C 6312   3.547   3.916   4.938  0.2764 -0.3579  0.5521
  788MOL0     H 6313   3.046   3.748   4.803 -0.0280  1.7770 -1.4328
  788MOL0     H 6314   2.824   3.640   4.796 -0.9893 -2.7285  3.5761
  788MOL0     H 6315   2.566   3.713   5.176  1.1632 -0.5700 -0.3756
  788MOL0     H 6316   2.498   3.825   5.051  1.0192 -0.6132 -0.4182
  788MOL0     H 6317   2.440   3.531   5.094  2.3914 -0.9205 -1.3184
  788MOL0     H 6318   2.428   3.602   4.936 -1.9058 -2.3213  0.0555
  788MOL0     H 6319   2.197   3.633   5.037  1.0926 -1.1798 -0.4835
  788MOL0     H 6320   2.282   3.798   5.056  2.7082  0.0987 -0.5933
  788MOL0     H 6321   2.313   3.605   5.273  1.1434  0.6440  0.7964
  788MOL0     H 6322   2.319   3.777   5.280 -0.8786 -0.5795  1.3364
  788MOL0     H 6323   2.063   3.606   5.224 -1.2103  1.2973 -1.3733
  788MOL0     H 6324   2.118   3.665   5.384  0.4650  0.7342 -0.6812
  788MOL0     H 6325   2.113   3.892   5.319 -0.0963  1.0210 -2.0263
  788MOL0     H 6326   2.056   3.848   5.153 -3.0628 -1.1242 -1.3103
  788MOL0     H 6327   1.920   3.788   5.414  1.2494 -1.9227 -0.8236
  788MOL0     H 6328   1.860   3.745   5.250  1.7456  0.6536 -1.8828
  788MOL0     H 6329   1.904   4.025   5.250  2.1344 -1.2737  0.4765
  788MOL0     H 6330   1.757   3.927   5.201 -0.1016  4.9323 -1.0588
  788MOL0     H 6331   1.768   4.189   5.428  0.8960 -0.2821  0.9447
  788MOL0     H 6332   1.529   4.256   5.568 -0.0595 -0.4882  0.3074
  788MOL0     H 6333   1.489   4.160   5.700 -1.1525  3.4007  1.7603
  788MOL0     H 6334   1.766   4.273   5.668 -0.8300 -0.7616 -2.0070
  788MOL0     H 6335   1.639   4.353   5.765  0.4125  0.2860 -1.6182
  788MOL0     H 6336   1.732   4.077   5.833 -1.3988  0.5311 -3.5166
  788MOL0     H 6337   1.621   4.169   5.920  1.9765 -0.4930  1.1295
  788MOL0     H 6338   1.903   4.275   5.890 -3.0519  2.3189 -1.1850
  788MOL0     H 6339   1.844   4.161   6.017  3.1981 -1.1375 -1.9064
  788MOL0     H 6340   1.687   4.561   6.130  0.2534 -0.6120 -0.4769
  788MOL0     H 6341   1.788   4.668   6.344  3.1473  1.4845 -1.4735
  788MOL0     H 6342   2.139   4.802   6.431  1.4896 -1.2904  0.3118
  788MOL0     H 6343   2.227   5.013   6.529  0.0118  1.0384  0.1928
  788MOL0     H 6344   2.271   5.255   6.818 -2.2501  0.4239 -0.9790
  788MOL0     H 6345   2.320   5.107   6.740 -0.0671 -1.1483 -1.1289
  788MOL0     H 6346   2.256   5.239   6.521  1.3687  2.9083 -1.3585
  788MOL0     H 6347   2.241   5.383   6.622  0.1514  1.1699  1.7614
  788MOL0     H 6348   2.478   5.293   6.715 -3.8728  0.9793  2.3598
  788MOL0     H 6349   2.466   5.196   6.561 -1.6068 -0.6872 -0.9436
  788MOL0     H 6350   2.463   5.496   6.573 -1.8821 -0.4764 -1.9299
  788MOL0     H 6351   2.444   5.406   6.423  0.3114  0.4294 -1.5403
  788MOL0     H 6352   2.670   5.344   6.416 -2.1661  1.7126 -3.1049
  788MOL0     H 6353   2.700   5.373   6.594  3.9601  0.9218 -2.4061
  788MOL0     H 6354   2.631   5.602   6.407  0.2578 -0.9109 -1.4476
  788MOL0     H 6355   2.664   5.614   6.575  1.3370 -3.1292  2.3734
  788MOL0     H 6356   2.870   5.523   6.379  1.0245  2.2283 -1.1902
  788MOL0     H 6357   2.884   5.538   6.552 -3.0772  2.6827  2.7909
  788MOL0     H 6358   2.993   5.721   6.427  0.3932 -0.7511 -0.5402
  788MOL0     H 6359   2.838   5.769   6.359 -0.9829 -2.2607 -0.3558
  788MOL0     H 6360   1.908   5.027   6.800 -0.0654 -2.1813  2.7521
  788MOL0     H 6361   1.831   4.802   6.714 -2.1225  4.5596 -0.5863
  788MOL0     H 6362   2.103   4.378   6.329 -0.6725 -0.8919  1.5099
  788MOL0     H 6363   2.022   4.295   6.114  0.2177 -1.4016  1.5613
  788MOL0     H 6364   2.714   3.915   5.118 -0.3064 -2.1978  1.1317
  788MOL0     H 6365   2.904   4.044   5.077  0.5393 -0.7030  1.4637
  788MOL0     H 6366   3.181   4.165   4.768  0.5114  0.0862 -1.7304
  788MOL0     H 6367   3.310   4.300   4.650  1.8716 -0.2393  0.2307
  788MOL0     H 6368   3.486   4.455   4.572  1.7050  1.4329 -1.0489
  788MOL0     H 6369   3.475   4.319   4.449  2.8746 -1.2369 -1.5700
  788MOL0     H 6370   3.691   4.353   4.362  3.1377  1.1421  0.1398
  788MOL0     H 6371   3.724   4.487   4.485 -1.6020  2.6454 -0.0960
  788MOL0     H 6372   3.541   4.625   4.392 -2.6956 -1.7998 -0.7065
  788MOL0     H 6373   3.510   4.504   4.267 -2.2354  3.5686 -1.1485
  788MOL0     H 6374   3.779   4.625   4.292 -0.8041 -4.3674  3.1272
  788MOL0     H 6375   3.713   4.533   4.159 -1.4482  0.1313 -2.7975
  788MOL0     H 6376   3.503   4.884   4.058 -3.9322 -2.6257 -1.6611
  788MOL0     H 6377   3.666   4.105   4.783 -0.0243 -0.8836  0.5070
  788MOL0     H 6378   3.477   3.862   5.003 -1.6621 -2.1208 -2.6927
  788MOL0     H 6379   3.589   3.846   4.866  2.3923  1.9057 -0.5482
  788MOL0     H 6380   3.624   3.960   5.002  0.7075 -1.3684  0.7538
  789MOL0     O 6381   8.824   3.117  10.072 -0.6883  1.6124 -0.1064
  789MOL0     C 6382   8.900   3.196  10.128 -0.8178 -0.8550 -0.4177
  789MOL0     O 6383   8.913   3.209  10.266 -0.0065  0.5566 -0.4981
  789MOL0     C 6384   8.809   3.154  10.350 -1.0297 -0.4053  1.3737
  789MOL0     C 6385   8.684   3.219  10.367 -0.9549  1.0894 -0.1013
  789MOL0     C 6386   8.585   3.148  10.431 -0.5271 -0.8039 -0.6452
  789MOL0     C 6387   8.614   3.020  10.492  0.0779  0.8317 -0.8038
  789MOL0     O 6388   8.521   2.941  10.552 -0.0076  0.5218  0.3123
  789MOL0     C 6389   8.384   2.980  10.554 -0.2500 -0.3631  0.2550
  789MOL0     C 6390   8.302   2.862  10.576  0.8773  0.1267 -0.3639
  789MOL0     C 6391   8.181   2.883  10.673  0.5974  0.0915 -0.6552
  789MOL0     C 6392   8.077   2.766  10.670  0.1977  0.6520  0.2694
  789MOL0     C 6393   7.984   2.771  10.787  0.6129  0.0868  0.7346
  789MOL0     C 6394   8.057   2.730  10.914 -0.2324  0.3857  0.0721
  789MOL0     C 6395   7.988   2.737  11.043 -0.3382 -1.2759 -0.2541
  789MOL0     C 6396   8.073   2.672  11.156 -1.0935  0.1938  0.5047
  789MOL0     N 6397   8.095   2.525  11.140 -0.2668  0.3381 -0.0462
  789MOL0     C 6398   8.191   2.444  11.197  0.2950 -0.4931 -0.4174
  789MOL0     C 6399   8.147   2.314  11.174  0.1789  0.6554 -0.9023
  789MOL0     C 6400   8.226   2.189  11.208 -0.8905  0.0330  0.1105
  789MOL0     C 6401   8.140   2.064  11.254  0.2541 -0.0955  0.7751
  789MOL0     C 6402   8.224   1.932  11.231 -0.3355  0.7242 -0.3449
  789MOL0     C 6403   8.168   1.796  11.268  0.3921 -0.1870 -0.3135
  789MOL0     O 6404   8.170   1.789  11.407 -0.4828  0.2721 -0.2790
  789MOL0     C 6405   8.113   1.676  11.452  0.2033  0.0790 -0.5609
  789MOL0     C 6406   8.054   1.685  11.578  0.6166  0.5749  1.1391
  789MOL0     C 6407   8.003   1.568  11.633  0.0424 -0.6469  0.0652
  789MOL0     C 6408   8.033   1.442  11.579  0.1743  0.0921  0.7169
  789MOL0     C 6409   8.014   1.324  11.653  0.5512  0.1509  0.0254
  789MOL0     O 6410   7.962   1.330  11.788 -0.4289 -0.0982  0.5571
  789MOL0     C 6411   7.907   1.224  11.853  1.0743 -0.9584  0.7958
  789MOL0     C 6412   7.845   1.120  11.784  0.3793  0.4975  0.0739
  789MOL0     C 6413   7.759   1.026  11.853  0.2327 -0.0196  0.1941
  789MOL0     C 6414   7.738   1.045  11.993 -0.7698 -0.3358  0.1234
  789MOL0     O 6415   7.678   0.945  12.056 -0.2719 -0.0788  0.0234
  789MOL0     C 6416   7.749   0.854  12.136 -0.1267  0.1553 -0.0700
  789MOL0     C 6417   7.699   0.842  12.279  0.0281  0.4780 -0.0781
  789MOL0     C 6418   7.548   0.803  12.286 -0.3282  0.3255  0.5867
  789MOL0     C 6419   7.499   0.818  12.427 -1.3189  0.0213 -0.0386
  789MOL0     C 6420   7.358   0.768  12.449  0.6676 -0.1608  0.0730
  789MOL0     C 6421   7.236   0.834  12.387  0.0385 -0.4462  1.5281
  789MOL0     C 6422   7.107   0.788  12.443  0.1486 -0.0816 -0.0227
  789MOL0     C 6423   7.085   0.830  12.591  0.5736 -0.7624 -0.3964
  789MOL0    Cl 6424   6.919   0.831  12.654  0.7398  0.0083 -0.4949
  789MOL0     C 6425   7.796   1.148  12.060 -0.5456  0.1728  0.1687
  789MOL0     C 6426   7.886   1.235  11.991  0.9415 -0.8437  0.2067
  789MOL0     O 6427   8.064   1.226  11.612 -0.0846  0.6743  0.1537
  789MOL0     C 6428   8.104   1.436  11.461 -0.1939  0.3187 -0.8543
  789MOL0     C 6429   8.130   1.551  11.393 -0.3562  0.4228  0.2994
  789MOL0     N 6430   8.040   2.316  11.086  0.3926  0.0566 -0.3683
  789MOL0     N 6431   8.014   2.445  11.060  0.7545 -0.0332 -0.6796
  789MOL0     C 6432   8.743   2.965  10.489 -0.6215 -0.0530  0.5563
  789MOL0     C 6433   8.840   3.035  10.411  0.1760  0.2665 -0.4289
  789MOL0     C 6434   8.994   3.274  10.039 -0.7623 -0.2820  0.5989
  789MOL0     C 6435   9.112   3.329  10.094  0.0051 -0.3794  0.0893
  789MOL0     C 6436   9.212   3.406  10.030 -0.2723 -0.4905 -0.3771
  789MOL0     C 6437   9.182   3.439   9.895  0.6919 -0.0596  0.1918
  789MOL0     O 6438   9.281   3.513   9.832 -0.1089  0.1629  0.2868
  789MOL0     C 6439   9.276   3.578   9.699 -0.1045 -0.7934 -0.0338
  789MOL0     C 6440   9.408   3.649   9.678  1.6831  0.0119  0.0876
  789MOL0     C 6441   9.397   3.708   9.532  0.2888  0.4490  0.3212
  789MOL0     C 6442   9.532   3.728   9.459  0.5010  0.4478  0.3354
  789MOL0     C 6443   9.603   3.838   9.533 -0.7335  0.5660  0.6115
  789MOL0     C 6444   9.659   3.928   9.585  0.3190 -0.8382 -0.1271
  789MOL0     C 6445   9.062   3.397   9.836  0.4685  0.7314  0.3639
  789MOL0     C 6446   8.968   3.312   9.902 -0.3235  0.4665  0.2804
  789MOL0     C 6447   8.833   3.277   9.845  0.1301 -0.5513 -0.3794
  789MOL0     H 6448   8.683   3.314  10.315 -0.4675  0.8881 -0.4888
  789MOL0     H 6449   8.486   3.191  10.446 -0.2919 -1.2238  2.8190
  789MOL0     H 6450   8.368   3.046  10.640  2.3834 -1.3935  1.6538
  789MOL0     H 6451   8.346   3.026  10.462  0.3824 -1.0223 -0.3434
  789MOL0     H 6452   8.359   2.777  10.615  1.1674  0.0061 -1.0361
  789MOL0     H 6453   8.267   2.829  10.477  0.7937  2.1115 -1.0320
  789MOL0     H 6454   8.112   2.964  10.647 -1.8507 -1.1858  1.4504
  789MOL0     H 6455   8.221   2.919  10.768 -3.0235  3.0544 -0.0485
  789MOL0     H 6456   8.022   2.766  10.576  1.4774 -0.1796 -0.5185
  789MOL0     H 6457   8.133   2.672  10.670 -1.7338 -0.5697  1.2619
  789MOL0     H 6458   7.947   2.874  10.781  2.4896  0.7220 -1.6227
  789MOL0     H 6459   7.910   2.692  10.770  2.3942 -2.4564  3.6676
  789MOL0     H 6460   8.092   2.629  10.889  2.2918  1.4933 -1.3094
  789MOL0     H 6461   8.145   2.793  10.928  0.6965 -1.4684  3.8058
  789MOL0     H 6462   7.889   2.691  11.034  0.0836 -2.4857  0.9737
  789MOL0     H 6463   7.974   2.844  11.061 -1.1459 -1.4779  0.3425
  789MOL0     H 6464   8.171   2.718  11.168 -0.1253 -2.0373  1.8474
  789MOL0     H 6465   8.016   2.689  11.249  0.1241 -2.6774  1.8955
  789MOL0     H 6466   8.282   2.473  11.248 -1.1842 -0.6306  2.5094
  789MOL0     H 6467   8.294   2.158  11.127 -0.2829  0.0226  0.6167
  789MOL0     H 6468   8.294   2.224  11.286  1.7986  4.0943 -3.5200
  789MOL0     H 6469   8.117   2.078  11.360 -0.5472  0.2325  0.5708
  789MOL0     H 6470   8.043   2.050  11.205  0.4793  1.0403 -0.0513
  789MOL0     H 6471   8.322   1.937  11.279  0.3575 -3.3271 -1.0037
  789MOL0     H 6472   8.233   1.910  11.124 -1.6911 -0.6059 -0.2147
  789MOL0     H 6473   8.223   1.718  11.215 -0.2155 -0.8779  0.0629
  789MOL0     H 6474   8.067   1.807  11.229  1.4445  0.8165 -3.0323
  789MOL0     H 6475   8.048   1.784  11.623  1.1581  0.4181  1.5825
  789MOL0     H 6476   7.948   1.578  11.726  2.3766  0.3907  1.4173
  789MOL0     H 6477   7.832   1.106  11.677  0.0546 -0.0907  0.1844
  789MOL0     H 6478   7.713   0.940  11.806  0.7517  1.1640 -2.6293
  789MOL0     H 6479   7.761   0.756  12.087  0.0481  0.9363 -1.6563
  789MOL0     H 6480   7.850   0.893  12.154 -0.0875 -0.0825  0.2320
  789MOL0     H 6481   7.756   0.763  12.328  0.5726  2.1731  2.1758
  789MOL0     H 6482   7.714   0.930  12.342 -0.7619  1.5558 -1.3199
  789MOL0     H 6483   7.489   0.848  12.206  2.8958 -2.0676 -3.5445
  789MOL0     H 6484   7.543   0.698  12.255  1.3476  0.2767  0.3945
  789MOL0     H 6485   7.510   0.920  12.465  1.8944 -0.7832  1.5911
  789MOL0     H 6486   7.566   0.757  12.490 -1.3041 -1.1369 -1.1426
  789MOL0     H 6487   7.350   0.768  12.558  0.1569 -1.0301  0.0452
  789MOL0     H 6488   7.350   0.662  12.421 -2.0521  0.0002  0.0028
  789MOL0     H 6489   7.241   0.943  12.397  0.7143 -0.6549  4.3377
  789MOL0     H 6490   7.230   0.804  12.282 -0.2383 -1.6635  1.8823
  789MOL0     H 6491   7.107   0.680  12.427  1.7901 -0.1179  0.0458
  789MOL0     H 6492   7.024   0.824  12.382 -1.7042 -2.4076  0.9908
  789MOL0     H 6493   7.142   0.759  12.651  0.3794 -1.0878 -0.5931
  789MOL0     H 6494   7.123   0.929  12.615 -2.1652  0.4603 -0.7388
  789MOL0     H 6495   7.791   1.160  12.168  0.8895 -2.4185  0.6087
  789MOL0     H 6496   7.917   1.316  12.056 -2.5360  1.5455 -0.8311
  789MOL0     H 6497   8.135   1.342  11.416  0.3882  0.5962 -1.0490
  789MOL0     H 6498   8.177   1.538  11.296 -0.9608  1.6796 -0.1808
  789MOL0     H 6499   8.755   2.873  10.545  0.4065 -0.0948  0.2747
  789MOL0     H 6500   8.945   3.008  10.404 -0.3578 -2.5459  1.2013
  789MOL0     H 6501   9.134   3.317  10.200 -3.5995 -0.4928  0.9637
  789MOL0     H 6502   9.291   3.453  10.087  0.5091  1.9409 -3.2154
  789MOL0     H 6503   9.183   3.636   9.695  0.5281  0.3983  1.4218
  789MOL0     H 6504   9.266   3.495   9.629 -2.8522 -0.3766 -0.2743
  789MOL0     H 6505   9.491   3.578   9.684  2.3189  0.6608 -0.6984
  789MOL0     H 6506   9.426   3.725   9.755  0.2755  0.2317  0.2249
  789MOL0     H 6507   9.348   3.805   9.533  2.2144  1.4986 -0.3511
  789MOL0     H 6508   9.345   3.639   9.465 -3.1569  0.0581  3.1286
  789MOL0     H 6509   9.590   3.635   9.451 -0.8235 -0.2791 -1.3443
  789MOL0     H 6510   9.509   3.766   9.359 -0.3800  0.2942  0.4794
  789MOL0     H 6511   9.697   4.012   9.640 -0.6372 -0.4540 -0.0377
  789MOL0     H 6512   9.034   3.444   9.743  0.2380 -0.1074  0.0074
  789MOL0     H 6513   8.815   3.172   9.819 -2.7661 -0.2145 -0.1169
  789MOL0     H 6514   8.755   3.299   9.919 -0.1096  2.1708 -1.3441
  789MOL0     H 6515   8.820   3.337   9.755 -0.8480 -0.9179 -0.4983
  790MOL0     O 6516   1.009   2.065  10.399 -0.9082 -0.1966 -0.4670
  790MOL0     C 6517   1.104   2.085  10.473 -0.2032 -0.3546 -0.0055
  790MOL0     O 6518   1.227   2.123  10.432  0.3766 -0.4470 -0.5179
  790MOL0     C 6519   1.241   2.169  10.296  0.0141 -0.0667 -0.7218
  790MOL0     C 6520   1.236   2.305  10.270 -0.1195  0.5134  0.6366
  790MOL0     C 6521   1.260   2.351  10.136 -0.5446  0.5840  0.4152
  790MOL0     C 6522   1.283   2.257  10.036  0.0597  0.8778  0.0273
  790MOL0     O 6523   1.287   2.293   9.904 -0.6092  0.4516 -0.6393
  790MOL0     C 6524   1.422   2.306   9.852  0.2280  0.1084 -0.5201
  790MOL0     C 6525   1.421   2.367   9.713  0.1999 -0.1311 -0.4774
  790MOL0     C 6526   1.395   2.524   9.718 -0.3644  0.1611 -0.0472
  790MOL0     C 6527   1.291   2.578   9.809  1.3439 -0.0784 -0.0464
  790MOL0     C 6528   1.277   2.726   9.810 -0.0968  0.9411  0.8343
  790MOL0     C 6529   1.173   2.767   9.906  0.5177  0.4861  1.1019
  790MOL0     C 6530   1.122   2.910   9.876 -0.8744 -0.5547 -0.4054
  790MOL0     C 6531   1.226   3.025   9.882 -0.3604  0.2425  0.4271
  790MOL0     N 6532   1.148   3.151   9.835  0.3428  0.7648 -0.7854
  790MOL0     C 6533   1.023   3.193   9.872  0.1079  0.0238 -0.3662
  790MOL0     C 6534   0.995   3.290   9.778  0.0434 -0.0908 -0.0976
  790MOL0     C 6535   0.880   3.380   9.779  0.3944 -0.4641 -0.3038
  790MOL0     C 6536   0.821   3.405   9.925  0.1670 -0.4182  0.2084
  790MOL0     C 6537   0.923   3.484  10.011 -0.2245  0.2084  0.0964
  790MOL0     C 6538   0.884   3.501  10.156  0.7047  0.3387 -0.2213
  790MOL0     O 6539   0.753   3.554  10.187 -0.7232 -0.4799 -0.1621
  790MOL0     C 6540   0.705   3.530  10.314 -0.4452 -0.1299  0.2059
  790MOL0     C 6541   0.787   3.511  10.433 -0.9876 -0.3346  0.4747
  790MOL0     C 6542   0.731   3.462  10.553  0.9908  1.0368 -0.2047
  790MOL0     C 6543   0.601   3.420  10.557 -0.3404 -0.7480 -0.4216
  790MOL0     C 6544   0.543   3.346  10.672 -0.3459  0.1114  0.6608
  790MOL0     O 6545   0.464   3.243  10.640  0.4672  0.4470 -0.1690
  790MOL0     C 6546   0.410   3.183  10.752 -0.0801  0.7492  0.2697
  790MOL0     C 6547   0.278   3.191  10.794 -0.3813  0.0581 -0.7206
  790MOL0     C 6548   0.222   3.093  10.879  0.7926 -0.5075 -0.5438
  790MOL0     C 6549   0.304   3.001  10.951 -0.2648  0.0842 -0.4412
  790MOL0     O 6550   0.244   2.928  11.051 -0.3983  0.0643  0.1866
  790MOL0     C 6551   0.328   2.852  11.137 -0.1767  0.4905 -0.1652
  790MOL0     C 6552   0.253   2.757  11.234 -1.5519 -0.4048 -0.0729
  790MOL0     C 6553   0.346   2.654  11.294 -1.0821 -0.4795 -0.0723
  790MOL0     C 6554   0.285   2.555  11.396  0.4173  0.3983  0.0949
  790MOL0     C 6555   0.397   2.469  11.455  0.2226  0.4147  0.9720
  790MOL0     C 6556   0.333   2.379  11.567 -0.6159 -0.6015  0.6388
  790MOL0     C 6557   0.420   2.257  11.613  0.8923  0.7768  0.0928
  790MOL0     C 6558   0.354   2.173  11.720  0.4109 -0.7234  0.1220
  790MOL0    Cl 6559   0.500   2.113  11.807 -0.0960  0.1297 -0.1112
  790MOL0     C 6560   0.440   3.002  10.918 -0.6984 -0.1923 -0.7304
  790MOL0     C 6561   0.494   3.090  10.818 -0.1923 -0.5443  0.2783
  790MOL0     O 6562   0.572   3.389  10.778  0.2836  0.4937 -0.3690
  790MOL0     C 6563   0.516   3.442  10.438 -0.9679  0.3341 -1.1208
  790MOL0     C 6564   0.574   3.502  10.326  0.6504 -1.1788 -0.2579
  790MOL0     N 6565   1.099   3.319   9.694  0.3184 -0.8508 -0.0821
  790MOL0     N 6566   1.186   3.233   9.735 -1.3734  0.5019  0.5738
  790MOL0     C 6567   1.287   2.122  10.066  0.0527 -0.6329 -0.7201
  790MOL0     C 6568   1.256   2.076  10.191  0.2617  0.0168  0.1948
  790MOL0     C 6569   1.080   2.031  10.613  0.9556 -0.8992  0.4920
  790MOL0     C 6570   0.967   1.947  10.636  0.5166 -0.1269  0.0043
  790MOL0     C 6571   0.941   1.889  10.763 -0.5809 -0.4689  0.4065
  790MOL0     C 6572   1.017   1.929  10.872  0.1636  0.3609  0.0054
  790MOL0     O 6573   0.989   1.885  11.007 -0.5129 -0.1973  1.0537
  790MOL0     C 6574   0.855   1.877  11.060  0.1829 -0.5364 -0.5815
  790MOL0     C 6575   0.881   1.884  11.216  0.0863  0.2960 -0.0635
  790MOL0     C 6576   0.936   1.748  11.277 -0.5551 -1.1187 -1.5482
  790MOL0     C 6577   0.978   1.754  11.424  0.1481 -1.0232 -0.0579
  790MOL0     C 6578   0.852   1.734  11.507 -0.1779  0.1660 -0.1961
  790MOL0     C 6579   0.752   1.704  11.569 -0.2516  0.2615  0.2408
  790MOL0     C 6580   1.130   2.010  10.849  0.2373  0.9007  0.7727
  790MOL0     C 6581   1.166   2.060  10.726 -0.6048 -0.0332  0.0170
  790MOL0     C 6582   1.293   2.147  10.719 -0.1760 -0.4515  0.7023
  790MOL0     H 6583   1.190   2.381  10.333  0.1225 -0.5659  2.1583
  790MOL0     H 6584   1.280   2.454  10.109  0.5052  0.7447  1.7086
  790MOL0     H 6585   1.479   2.366   9.923 -0.2199 -0.9900  0.8068
  790MOL0     H 6586   1.479   2.213   9.862  1.4954  0.5876 -2.6921
  790MOL0     H 6587   1.338   2.316   9.663 -0.3246 -1.7613  1.8921
  790MOL0     H 6588   1.516   2.342   9.666  2.2346  2.2242  2.0327
  790MOL0     H 6589   1.385   2.563   9.616  0.0427 -0.2391 -0.2426
  790MOL0     H 6590   1.496   2.549   9.753 -0.3343  1.0417 -0.7190
  790MOL0     H 6591   1.196   2.533   9.777  1.9627 -1.4860  0.0237
  790MOL0     H 6592   1.305   2.548   9.913  3.7784  2.6930  0.5202
  790MOL0     H 6593   1.375   2.771   9.827  0.3415  0.3086  0.0909
  790MOL0     H 6594   1.253   2.757   9.708 -2.1637 -0.7427  0.7373
  790MOL0     H 6595   1.087   2.701   9.897 -0.4242  1.6243  1.5888
  790MOL0     H 6596   1.211   2.754  10.008  1.3504  1.2542  0.9033
  790MOL0     H 6597   1.051   2.939   9.954 -0.7343 -2.9904  0.7381
  790MOL0     H 6598   1.088   2.924   9.773  3.8940 -1.0071 -2.2890
  790MOL0     H 6599   1.267   3.020   9.984 -0.5159 -2.3880  0.4474
  790MOL0     H 6600   1.308   2.999   9.815  0.3348 -0.3160  1.4548
  790MOL0     H 6601   0.951   3.162   9.947 -0.8957  3.0192  0.0318
  790MOL0     H 6602   0.911   3.476   9.736  1.0470 -0.0372  1.0767
  790MOL0     H 6603   0.803   3.330   9.719  0.9713 -2.1850  0.3530
  790MOL0     H 6604   0.723   3.446   9.900  0.0403 -1.5084 -1.1942
  790MOL0     H 6605   0.789   3.310   9.971 -1.0088 -0.2255 -0.1588
  790MOL0     H 6606   0.954   3.573   9.955 -0.0104 -0.9174 -1.6859
  790MOL0     H 6607   1.008   3.415  10.014  0.0648  0.5137 -0.6501
  790MOL0     H 6608   0.965   3.558  10.201  2.1448 -1.2762 -0.6389
  790MOL0     H 6609   0.881   3.405  10.209  1.3095  1.1361  1.2943
  790MOL0     H 6610   0.889   3.545  10.442 -0.9609 -0.4316  0.5328
  790MOL0     H 6611   0.798   3.449  10.636  0.4120 -1.6305 -0.0919
  790MOL0     H 6612   0.217   3.271  10.752 -1.5062 -0.5840 -0.3716
  790MOL0     H 6613   0.116   3.095  10.899  0.4730 -2.0162 -1.9423
  790MOL0     H 6614   0.404   2.795  11.082 -0.5840 -1.5148  1.2370
  790MOL0     H 6615   0.386   2.913  11.207 -2.1913  1.3838  0.8124
  790MOL0     H 6616   0.213   2.814  11.318 -0.7737 -0.9188  0.6676
  790MOL0     H 6617   0.171   2.712  11.178  0.0781  0.2504 -3.2183
  790MOL0     H 6618   0.405   2.610  11.213  0.1504  1.6292 -0.4122
  790MOL0     H 6619   0.428   2.706  11.345 -0.9455  0.7324 -1.4368
  790MOL0     H 6620   0.206   2.501  11.342  1.5261  2.6669 -4.2516
  790MOL0     H 6621   0.237   2.615  11.474  0.0094  0.2439 -0.0332
  790MOL0     H 6622   0.479   2.514  11.511 -1.3193  0.7743  3.0236
  790MOL0     H 6623   0.439   2.402  11.379 -0.7733  1.2013 -0.3174
  790MOL0     H 6624   0.312   2.441  11.655  0.1379  1.7435 -0.7262
  790MOL0     H 6625   0.239   2.333  11.535 -0.5373 -0.1907 -0.2366
  790MOL0     H 6626   0.513   2.297  11.657  1.8966 -2.4826  1.2147
  790MOL0     H 6627   0.439   2.187  11.531 -1.3958 -0.7836  0.8252
  790MOL0     H 6628   0.287   2.230  11.784  1.5041 -0.9728  1.5341
  790MOL0     H 6629   0.305   2.091  11.665 -1.9536  1.5719 -1.4198
  790MOL0     H 6630   0.512   2.934  10.961 -1.3037  0.9559  2.3376
  790MOL0     H 6631   0.602   3.096  10.809 -0.1059  1.2419  1.8424
  790MOL0     H 6632   0.408   3.431  10.429 -0.8893 -0.5399 -1.0711
  790MOL0     H 6633   0.509   3.516  10.240 -0.4308 -1.0756  0.5563
  790MOL0     H 6634   1.305   2.052   9.984  3.0093  0.6115 -1.2600
  790MOL0     H 6635   1.242   1.970  10.211 -2.5684  0.0725 -0.9461
  790MOL0     H 6636   0.899   1.921  10.556 -2.8779  2.4091  1.7554
  790MOL0     H 6637   0.852   1.833  10.791 -1.8890 -0.4077 -3.2061
  790MOL0     H 6638   0.784   1.803  11.021 -1.0708  1.3547 -2.1312
  790MOL0     H 6639   0.810   1.971  11.027 -0.8174 -1.0079 -0.6064
  790MOL0     H 6640   0.796   1.928  11.270  2.1397  4.9624 -0.1619
  790MOL0     H 6641   0.956   1.962  11.231  0.9385 -0.4016 -0.6581
  790MOL0     H 6642   1.028   1.735  11.220  1.0206  2.0210 -0.0024
  790MOL0     H 6643   0.877   1.660  11.254  0.3190 -1.4213 -2.6928
  790MOL0     H 6644   1.050   1.674  11.440  0.7519 -0.5484 -0.3684
  790MOL0     H 6645   1.003   1.860  11.438 -3.4599  0.3827 -2.4934
  790MOL0     H 6646   0.683   1.667  11.641  0.2777  3.6157  2.7043
  790MOL0     H 6647   1.186   2.044  10.935 -1.0496 -0.8176  2.3542
  790MOL0     H 6648   1.365   2.102  10.649 -1.8137  0.7459 -1.8993
  790MOL0     H 6649   1.280   2.252  10.691 -0.9908  0.3497  3.7878
  790MOL0     H 6650   1.333   2.135  10.820 -0.1894  0.3151  0.8066
  791MOL0     O 6651   0.088   8.525   8.929 -0.7297  0.5060  0.2568
  791MOL0     C 6652   0.058   8.407   8.905 -0.5536 -0.3862 -0.0834
  791MOL0     O 6653   0.035   8.354   8.784 -0.4447 -0.9428  0.2013
  791MOL0     C 6654   0.052   8.437   8.679  0.4172  0.3512 -0.1757
  791MOL0     C 6655   0.164   8.504   8.646 -0.4223 -0.0320  0.6521
  791MOL0     C 6656   0.171   8.592   8.536  0.3489 -0.7295  0.5995
  791MOL0     C 6657   0.063   8.613   8.452  0.2888 -0.0760 -0.0903
  791MOL0     O 6658   0.088   8.696   8.342  0.2121  0.4843 -0.5291
  791MOL0     C 6659  -0.011   8.794   8.320  0.1794 -1.1454 -0.1780
  791MOL0     C 6660   0.062   8.923   8.275 -0.3293 -0.3627 -0.6487
  791MOL0     C 6661   0.131   8.916   8.143 -0.6300  0.1364 -1.2169
  791MOL0     C 6662   0.231   9.021   8.117 -1.0030  0.2032 -0.1736
  791MOL0     C 6663   0.196   9.173   8.141  0.6614  0.5714  0.6794
  791MOL0     C 6664   0.075   9.221   8.056 -0.3469 -0.5292 -0.3914
  791MOL0     C 6665   0.047   9.372   8.062  0.2389 -1.0088 -0.0906
  791MOL0     C 6666  -0.035   9.407   8.187  0.3244 -0.0957 -0.2707
  791MOL0     N 6667  -0.166   9.338   8.196 -0.2633 -0.4618  0.1581
  791MOL0     C 6668  -0.266   9.353   8.100 -0.7077 -1.2382 -0.9486
  791MOL0     C 6669  -0.365   9.273   8.146  1.0143  0.2701 -1.3209
  791MOL0     C 6670  -0.497   9.262   8.071 -0.2451  0.0286  0.7614
  791MOL0     C 6671  -0.481   9.155   7.964 -0.6436  0.1376  0.5318
  791MOL0     C 6672  -0.596   9.109   7.883 -0.5015 -0.3204  1.3643
  791MOL0     C 6673  -0.703   9.214   7.832  0.5870  0.7974 -0.2111
  791MOL0     O 6674  -0.758   9.162   7.710 -0.2497  0.2973  0.1891
  791MOL0     C 6675  -0.847   9.246   7.651 -0.6459 -0.0493  0.6289
  791MOL0     C 6676  -0.873   9.380   7.678  0.0990  0.9011  0.8736
  791MOL0     C 6677  -0.973   9.445   7.598 -1.0096 -0.3208 -1.0040
  791MOL0     C 6678  -1.043   9.391   7.489 -0.5323 -0.4280 -0.8864
  791MOL0     C 6679  -1.137   9.462   7.399 -0.3696 -0.5787  0.2224
  791MOL0     O 6680  -1.162   9.589   7.415 -0.6936 -0.2592 -0.3722
  791MOL0     C 6681  -1.234   9.661   7.327  0.1752  0.0703  0.0823
  791MOL0     C 6682  -1.362   9.612   7.289 -0.6516 -0.7540 -0.1831
  791MOL0     C 6683  -1.447   9.690   7.215  0.0805  0.5043  0.1707
  791MOL0     C 6684  -1.407   9.824   7.178 -0.2701 -0.8655  0.3424
  791MOL0     O 6685  -1.485   9.913   7.113  0.2083  0.6274  0.4989
  791MOL0     C 6686  -1.625   9.882   7.092  0.6171 -0.6710 -0.4093
  791MOL0     C 6687  -1.681   9.998   7.009 -0.3355 -0.3215  0.7437
  791MOL0     C 6688  -1.684  10.124   7.086  0.3486  0.5204  0.1770
  791MOL0     C 6689  -1.773  10.223   7.025 -0.4707  0.6771  0.5030
  791MOL0     C 6690  -1.788  10.359   7.094 -0.1986  0.2898 -0.4489
  791MOL0     C 6691  -1.914  10.424   7.055  0.8614 -0.7661  0.0381
  791MOL0     C 6692  -1.923  10.469   6.909 -0.3217  0.0467  0.4176
  791MOL0     C 6693  -2.042  10.559   6.893  1.0278  0.6326  0.0410
  791MOL0    Cl 6694  -2.068  10.606   6.712  0.2067  0.0127 -0.3080
  791MOL0     C 6695  -1.282   9.868   7.214  0.3242 -0.4283 -0.1763
  791MOL0     C 6696  -1.191   9.795   7.292  0.3287 -0.5268 -0.2738
  791MOL0     O 6697  -1.194   9.392   7.313 -0.6597  0.3405  0.7273
  791MOL0     C 6698  -1.010   9.252   7.473  1.4651 -0.4442  0.9973
  791MOL0     C 6699  -0.915   9.185   7.546 -0.1759  0.0674 -0.0008
  791MOL0     N 6700  -0.325   9.206   8.265 -0.0014  0.0533 -0.4742
  791MOL0     N 6701  -0.211   9.262   8.296 -0.9215  0.5725 -0.3831
  791MOL0     C 6702  -0.060   8.553   8.479 -0.2666  0.3566 -0.2556
  791MOL0     C 6703  -0.061   8.461   8.590 -0.1032 -0.0374  0.2538
  791MOL0     C 6704   0.042   8.305   9.010  0.0308 -0.2981 -0.3948
  791MOL0     C 6705   0.090   8.175   8.989  0.0225 -0.7959  0.1699
  791MOL0     C 6706   0.092   8.087   9.094  0.6210  0.5824  0.8132
  791MOL0     C 6707   0.029   8.112   9.216  0.6350  0.8787 -0.2531
  791MOL0     O 6708   0.023   8.016   9.316 -0.1439  0.3228 -0.3658
  791MOL0     C 6709  -0.004   8.065   9.457 -0.7107  0.0079  0.7058
  791MOL0     C 6710   0.081   7.965   9.545  0.1462  0.1680 -0.5342
  791MOL0     C 6711   0.030   7.819   9.525  0.3627 -0.2619  0.4862
  791MOL0     C 6712   0.088   7.714   9.619  1.1156 -0.2089  0.6088
  791MOL0     C 6713   0.230   7.699   9.613 -0.4830 -0.1798 -0.5977
  791MOL0     C 6714   0.351   7.677   9.612 -0.3384 -0.3597  0.3872
  791MOL0     C 6715  -0.026   8.242   9.233 -0.0460 -0.4222  0.7571
  791MOL0     C 6716  -0.013   8.343   9.134  0.5735 -0.3579 -0.2354
  791MOL0     C 6717  -0.071   8.485   9.179  1.0564 -0.0111  0.0215
  791MOL0     H 6718   0.251   8.501   8.711  1.8820  0.9475 -2.1692
  791MOL0     H 6719   0.254   8.658   8.513  0.5661 -0.5605  1.7953
  791MOL0     H 6720  -0.069   8.756   8.235  2.4266 -0.5438 -2.0642
  791MOL0     H 6721  -0.079   8.815   8.404 -0.4304  1.0233 -1.1540
  791MOL0     H 6722   0.127   8.952   8.358  0.9441 -2.8787 -0.6851
  791MOL0     H 6723  -0.010   9.005   8.270  0.2792  0.3900  1.7596
  791MOL0     H 6724   0.053   8.926   8.067  1.0005  1.3020 -2.8451
  791MOL0     H 6725   0.178   8.817   8.138 -0.2825  0.2584 -0.4541
  791MOL0     H 6726   0.317   9.006   8.183 -1.0111  2.5742  0.4968
  791MOL0     H 6727   0.262   8.997   8.015  0.5158 -2.6351  0.8373
  791MOL0     H 6728   0.184   9.169   8.249  0.0616 -4.0931  0.6374
  791MOL0     H 6729   0.285   9.222   8.099 -1.4442  2.8039 -1.5380
  791MOL0     H 6730   0.083   9.198   7.950 -2.9721  1.0239 -1.0297
  791MOL0     H 6731  -0.011   9.166   8.094  1.9035 -1.1054  4.6491
  791MOL0     H 6732  -0.011   9.384   7.970  4.2995  1.0931 -2.6663
  791MOL0     H 6733   0.140   9.430   8.054  1.8898 -3.4196  0.6318
  791MOL0     H 6734   0.025   9.377   8.273  0.8565 -4.0831 -1.8186
  791MOL0     H 6735  -0.051   9.516   8.184 -0.4677 -0.2082 -0.3222
  791MOL0     H 6736  -0.258   9.408   8.007 -0.3262  0.1626 -0.1148
  791MOL0     H 6737  -0.573   9.219   8.138  0.6149  0.0376  1.7746
  791MOL0     H 6738  -0.546   9.353   8.034 -0.6557 -0.4823  0.0262
  791MOL0     H 6739  -0.410   9.194   7.891 -1.7019 -1.0047 -1.1732
  791MOL0     H 6740  -0.434   9.065   8.004  1.6109  1.2708  0.5742
  791MOL0     H 6741  -0.640   9.021   7.931  0.3879 -0.7423  1.4135
  791MOL0     H 6742  -0.546   9.069   7.795 -1.0979  2.6085 -0.4604
  791MOL0     H 6743  -0.645   9.304   7.806  2.3661 -0.2925 -0.1993
  791MOL0     H 6744  -0.786   9.233   7.900 -0.6981  1.0985 -1.7938
  791MOL0     H 6745  -0.809   9.427   7.752  6.2976 -0.4827 -2.9316
  791MOL0     H 6746  -0.981   9.549   7.630  0.1786 -0.3426 -0.5751
  791MOL0     H 6747  -1.397   9.518   7.330 -0.4762 -2.6012 -3.8452
  791MOL0     H 6748  -1.547   9.649   7.206  0.3364 -0.3051  0.9294
  791MOL0     H 6749  -1.628   9.785   7.041  2.4982 -0.2605 -1.3929
  791MOL0     H 6750  -1.682   9.880   7.185  3.5658 -3.0599  1.5255
  791MOL0     H 6751  -1.629  10.007   6.913  0.9662 -2.8700  1.1254
  791MOL0     H 6752  -1.782   9.962   6.984 -0.7152  0.2650  1.3923
  791MOL0     H 6753  -1.725  10.107   7.186 -1.4774  1.2521 -0.4085
  791MOL0     H 6754  -1.577  10.150   7.090  1.4311 -3.4196  1.7486
  791MOL0     H 6755  -1.873  10.179   7.036  0.3332 -1.2781  0.3439
  791MOL0     H 6756  -1.753  10.236   6.918  0.9673 -1.4268  0.4753
  791MOL0     H 6757  -1.697  10.420   7.082  0.4375 -0.6220 -0.4071
  791MOL0     H 6758  -1.796  10.338   7.201 -1.2047  0.3834 -0.4985
  791MOL0     H 6759  -1.991  10.348   7.070  4.0847 -4.3941 -0.2652
  791MOL0     H 6760  -1.933  10.509   7.121 -1.5081 -1.0790 -0.1529
  791MOL0     H 6761  -1.938  10.380   6.846 -0.8508  0.2673  0.2235
  791MOL0     H 6762  -1.837  10.526   6.872 -0.2382 -1.7710 -2.5817
  791MOL0     H 6763  -2.129  10.499   6.921  1.0386  1.0223  0.9247
  791MOL0     H 6764  -2.037  10.651   6.951  0.8285  0.1845  0.7799
  791MOL0     H 6765  -1.265   9.969   7.178  1.4093 -0.2827  0.7148
  791MOL0     H 6766  -1.090   9.815   7.326 -0.2195  0.1109  1.0576
  791MOL0     H 6767  -1.051   9.207   7.383  1.6032 -2.4239  1.8736
  791MOL0     H 6768  -0.901   9.078   7.528  0.9608  0.5026 -2.0466
  791MOL0     H 6769  -0.145   8.567   8.414 -0.6665  1.1932  0.4380
  791MOL0     H 6770  -0.152   8.404   8.604 -2.7756  4.1404  2.2381
  791MOL0     H 6771   0.136   8.142   8.896 -3.4873  0.0968 -2.0813
  791MOL0     H 6772   0.153   7.999   9.082  0.9267  0.9296 -0.2831
  791MOL0     H 6773  -0.112   8.061   9.476 -1.1521 -2.0590 -1.6011
  791MOL0     H 6774   0.027   8.169   9.473 -0.4715  0.3373 -1.5516
  791MOL0     H 6775   0.063   7.989   9.650 -3.8331 -0.5553 -0.9141
  791MOL0     H 6776   0.189   7.963   9.525  0.1984  1.0962 -0.3653
  791MOL0     H 6777   0.041   7.783   9.422  0.7414 -3.8654  1.6684
  791MOL0     H 6778  -0.078   7.819   9.544  0.4254 -3.6775  1.4579
  791MOL0     H 6779   0.066   7.727   9.726  1.0707 -0.2993  0.6109
  791MOL0     H 6780   0.035   7.624   9.588  2.6924 -0.4476 -1.5657
  791MOL0     H 6781   0.455   7.653   9.605 -0.7143 -1.6349 -2.6674
  791MOL0     H 6782  -0.079   8.280   9.319  1.4443 -0.5569  1.7598
  791MOL0     H 6783  -0.098   8.540   9.089  0.5055 -1.8246 -0.9571
  791MOL0     H 6784  -0.166   8.472   9.231  0.2634 -1.7083 -1.7231
  791MOL0     H 6785   0.015   8.537   9.224  2.1387 -0.0519 -1.9004
  792MOL0     O 6786   2.319   7.306   6.173 -0.0307 -0.2674 -0.6461
  792MOL0     C 6787   2.361   7.211   6.241  0.6013  0.7143  0.0416
  792MOL0     O 6788   2.492   7.177   6.259  0.0513  0.0179  0.3026
  792MOL0     C 6789   2.581   7.253   6.197 -0.4311  0.5240  0.7018
  792MOL0     C 6790   2.629   7.364   6.253  1.0080 -1.2077 -0.5251
  792MOL0     C 6791   2.701   7.458   6.179 -0.8524  0.6840 -0.1396
  792MOL0     C 6792   2.738   7.435   6.043  0.1133  0.2214 -0.4358
  792MOL0     O 6793   2.810   7.536   5.977  0.0922  0.1171 -0.6713
  792MOL0     C 6794   2.880   7.530   5.859 -0.3594  0.2842  0.2120
  792MOL0     C 6795   2.829   7.639   5.765 -0.2116  0.9572  0.5170
  792MOL0     C 6796   2.691   7.589   5.698 -0.1000  0.2909 -0.9876
  792MOL0     C 6797   2.687   7.665   5.559  0.1947  0.1116  0.7747
  792MOL0     C 6798   2.554   7.656   5.488  0.1873  0.2787 -0.2064
  792MOL0     C 6799   2.535   7.739   5.358 -0.2033  0.2137  0.3516
  792MOL0     C 6800   2.421   7.700   5.275  0.1900  0.1819  0.1631
  792MOL0     C 6801   2.385   7.805   5.173  0.8253  0.1700 -0.7807
  792MOL0     N 6802   2.265   7.758   5.097  0.4222 -0.0342  0.5394
  792MOL0     C 6803   2.150   7.819   5.125 -0.0038  0.7903  0.9417
  792MOL0     C 6804   2.062   7.741   5.053  0.3704 -0.0429  0.3875
  792MOL0     C 6805   1.909   7.758   5.042  0.0931 -0.3403 -0.5523
  792MOL0     C 6806   1.879   7.783   4.894 -1.3091 -0.7770  0.5332
  792MOL0     C 6807   1.729   7.797   4.873  0.4680  0.7406  0.7202
  792MOL0     C 6808   1.664   7.904   4.963 -0.3248  1.0470 -0.0366
  792MOL0     O 6809   1.539   7.943   4.919  0.3036 -0.5598 -0.0805
  792MOL0     C 6810   1.482   8.059   4.962 -1.0134  0.4720  1.2589
  792MOL0     C 6811   1.515   8.132   5.072 -0.4889 -0.4604 -0.8100
  792MOL0     C 6812   1.438   8.244   5.106 -0.0465 -0.7072 -0.7843
  792MOL0     C 6813   1.327   8.288   5.033 -0.6641 -0.3186  0.5507
  792MOL0     C 6814   1.257   8.413   5.069  0.0593 -0.1335 -0.8467
  792MOL0     O 6815   1.177   8.462   4.979  0.5924 -0.7927 -0.3899
  792MOL0     C 6816   1.107   8.575   4.994 -0.4993  0.2269 -1.1294
  792MOL0     C 6817   1.069   8.620   4.876 -0.0226  0.6068  0.9321
  792MOL0     C 6818   0.984   8.729   4.856  0.1361  0.4888 -0.3191
  792MOL0     C 6819   0.938   8.805   4.966 -0.0065 -0.0289 -0.2143
  792MOL0     O 6820   0.841   8.892   4.952  0.0586 -0.9313  0.0421
  792MOL0     C 6821   0.888   9.030   4.964 -0.4322 -0.8530 -0.0346
  792MOL0     C 6822   0.762   9.121   4.969 -0.1666 -0.5465 -0.1200
  792MOL0     C 6823   0.807   9.267   4.968  0.8895 -0.7946 -0.2409
  792MOL0     C 6824   0.675   9.347   4.971 -0.9556 -0.0687 -0.5895
  792MOL0     C 6825   0.698   9.499   4.989 -1.4322  0.3940 -0.3605
  792MOL0     C 6826   0.792   9.566   4.885 -0.4649 -0.2853  0.0854
  792MOL0     C 6827   0.784   9.720   4.907  0.5522  0.4498  0.0127
  792MOL0     C 6828   0.646   9.777   4.864  0.6776 -0.2587  0.2991
  792MOL0    Cl 6829   0.609   9.762   4.698 -0.5325  0.1550  0.0566
  792MOL0     C 6830   0.988   8.764   5.094  0.9375  0.0010  0.1720
  792MOL0     C 6831   1.072   8.646   5.111  0.5995 -0.2823 -0.6186
  792MOL0     O 6832   1.285   8.463   5.175 -1.2839 -0.1534 -0.7580
  792MOL0     C 6833   1.290   8.209   4.923 -0.0271 -0.5902 -0.4016
  792MOL0     C 6834   1.372   8.096   4.891  0.2061  0.2341  0.0501
  792MOL0     N 6835   2.126   7.632   5.004  0.1844 -0.0293 -0.2839
  792MOL0     N 6836   2.248   7.636   5.038 -0.7992  0.3128 -0.1001
  792MOL0     C 6837   2.696   7.311   5.983 -0.2706  0.0134 -0.1826
  792MOL0     C 6838   2.616   7.224   6.064 -0.3956  0.6365  0.0024
  792MOL0     C 6839   2.270   7.117   6.307 -0.1896  0.7765 -0.0525
  792MOL0     C 6840   2.301   7.083   6.442 -0.3777  0.8047  0.1153
  792MOL0     C 6841   2.218   6.997   6.520 -0.8124 -0.1226 -0.2506
  792MOL0     C 6842   2.101   6.945   6.471 -1.0529 -0.0599  0.5976
  792MOL0     O 6843   2.006   6.880   6.538 -0.5316 -0.3651  0.1909
  792MOL0     C 6844   2.030   6.820   6.669 -0.0638 -0.3575  0.0630
  792MOL0     C 6845   1.989   6.924   6.771  0.1482 -0.6485  0.2320
  792MOL0     C 6846   1.839   6.948   6.777  0.9965 -0.2087 -0.9998
  792MOL0     C 6847   1.782   7.030   6.663  0.3192  0.1369  0.0159
  792MOL0     C 6848   1.642   7.083   6.688 -0.0753 -0.1413 -0.0784
  792MOL0     C 6849   1.529   7.128   6.698  0.3495  0.1700  0.9913
  792MOL0     C 6850   2.073   6.986   6.336 -0.1206  1.5463  0.6480
  792MOL0     C 6851   2.152   7.060   6.253 -0.2977 -0.4441 -0.0916
  792MOL0     C 6852   2.113   7.106   6.116 -0.2017  0.5097  0.5041
  792MOL0     H 6853   2.621   7.382   6.360  0.0860 -1.8320 -0.4775
  792MOL0     H 6854   2.723   7.557   6.218  0.7232  1.3361 -2.4640
  792MOL0     H 6855   2.987   7.547   5.875 -0.4256  3.0499 -1.4845
  792MOL0     H 6856   2.871   7.435   5.807  2.7967  1.3828 -2.7363
  792MOL0     H 6857   2.907   7.647   5.688  1.1761 -0.2279  1.7425
  792MOL0     H 6858   2.825   7.737   5.813 -0.1057  1.2395 -0.0362
  792MOL0     H 6859   2.603   7.608   5.761  2.0667 -0.9956  2.8176
  792MOL0     H 6860   2.718   7.486   5.672 -0.2152  0.5174 -2.0249
  792MOL0     H 6861   2.718   7.770   5.569  4.0444 -0.8820  0.7871
  792MOL0     H 6862   2.763   7.621   5.494  0.1448  0.3937  0.5223
  792MOL0     H 6863   2.531   7.552   5.466 -2.5464  1.1288 -1.8315
  792MOL0     H 6864   2.470   7.692   5.548 -2.3414 -2.1233 -2.0662
  792MOL0     H 6865   2.522   7.842   5.392 -1.0182 -0.4141  2.0506
  792MOL0     H 6866   2.620   7.737   5.289 -0.8430 -1.3084 -0.4549
  792MOL0     H 6867   2.333   7.672   5.334 -1.9969 -1.6078 -3.5400
  792MOL0     H 6868   2.446   7.609   5.220 -1.2819 -0.7583  0.9900
  792MOL0     H 6869   2.362   7.902   5.218 -0.4964 -0.3663 -0.2242
  792MOL0     H 6870   2.470   7.819   5.106 -1.6659  0.1499 -4.1760
  792MOL0     H 6871   2.130   7.913   5.174  2.3515  0.2994  3.0186
  792MOL0     H 6872   1.845   7.677   5.079 -1.6287  1.6032  0.9353
  792MOL0     H 6873   1.893   7.851   5.097 -0.5178 -0.8796  0.1990
  792MOL0     H 6874   1.939   7.867   4.858 -3.8903 -0.3711 -3.3990
  792MOL0     H 6875   1.914   7.694   4.840  1.5414  2.6874 -4.0294
  792MOL0     H 6876   1.693   7.697   4.897  1.7541  0.1685  0.3530
  792MOL0     H 6877   1.710   7.815   4.767  1.9136  2.0639  0.6503
  792MOL0     H 6878   1.738   7.983   4.946  0.2131 -0.0249 -3.2338
  792MOL0     H 6879   1.674   7.865   5.065  0.0746 -0.2421 -0.5611
  792MOL0     H 6880   1.591   8.098   5.142 -3.7282 -2.8822  1.8595
  792MOL0     H 6881   1.464   8.312   5.186 -0.2591 -0.6451 -0.7659
  792MOL0     H 6882   1.086   8.561   4.786 -1.2097  2.2254 -0.4367
  792MOL0     H 6883   0.953   8.744   4.753 -1.5148 -1.8615 -0.2402
  792MOL0     H 6884   0.952   9.047   5.052 -1.5556  2.0835  0.3512
  792MOL0     H 6885   0.947   9.059   4.877 -0.1885 -2.3754 -0.3941
  792MOL0     H 6886   0.703   9.099   4.879  1.1373 -3.4779 -0.3817
  792MOL0     H 6887   0.700   9.090   5.053  1.1752  0.6059  1.3500
  792MOL0     H 6888   0.866   9.290   5.057 -1.5484 -0.4633  1.3859
  792MOL0     H 6889   0.864   9.296   4.879  1.7838  1.3315  0.9620
  792MOL0     H 6890   0.616   9.309   5.055 -1.0538 -2.4076 -1.6698
  792MOL0     H 6891   0.614   9.332   4.882  1.0740  1.1825 -2.2861
  792MOL0     H 6892   0.743   9.508   5.089  0.8440 -2.4947 -1.0010
  792MOL0     H 6893   0.594   9.529   4.974 -1.8726 -1.7360 -1.9569
  792MOL0     H 6894   0.897   9.544   4.903  1.2665  5.8470 -0.3487
  792MOL0     H 6895   0.763   9.537   4.783  2.3046 -1.6857 -0.4097
  792MOL0     H 6896   0.859   9.770   4.844  0.2606  1.9323  0.7933
  792MOL0     H 6897   0.799   9.744   5.013  1.6131  0.4456 -0.1239
  792MOL0     H 6898   0.568   9.727   4.922  0.9878 -0.7322  0.3185
  792MOL0     H 6899   0.638   9.884   4.885  1.8837 -0.5917  2.7121
  792MOL0     H 6900   0.953   8.816   5.183 -0.8649 -1.1229  0.1694
  792MOL0     H 6901   1.093   8.606   5.210  0.6231  2.5173  0.5859
  792MOL0     H 6902   1.220   8.246   4.850 -0.7257 -1.8271 -0.3901
  792MOL0     H 6903   1.353   8.037   4.802 -0.7394 -1.3589  1.2500
  792MOL0     H 6904   2.726   7.287   5.882 -1.3894  0.7056 -0.6945
  792MOL0     H 6905   2.580   7.132   6.018  0.3264  0.1286  0.4413
  792MOL0     H 6906   2.380   7.124   6.504  3.9653 -2.4233 -2.6270
  792MOL0     H 6907   2.249   6.987   6.624  2.8937  3.2606 -0.8035
  792MOL0     H 6908   2.134   6.788   6.680  0.2431  1.1403  2.1862
  792MOL0     H 6909   1.966   6.733   6.682  1.6000 -2.3135 -3.3673
  792MOL0     H 6910   2.033   7.024   6.760 -1.7266  0.3298  1.1776
  792MOL0     H 6911   2.033   6.888   6.865  2.2465 -1.4489 -0.9726
  792MOL0     H 6912   1.819   7.001   6.870 -0.7505 -0.3856 -1.2436
  792MOL0     H 6913   1.769   6.865   6.785 -0.2598  1.0246  2.5525
  792MOL0     H 6914   1.852   7.112   6.649  0.7291 -0.2120 -0.0178
  792MOL0     H 6915   1.772   6.971   6.572 -0.3140 -0.5607  0.5166
  792MOL0     H 6916   1.428   7.161   6.712 -0.0851 -1.0344  0.8045
  792MOL0     H 6917   1.976   6.951   6.303  0.2134  2.0992 -1.0218
  792MOL0     H 6918   2.105   7.215   6.106  1.9137  0.5709 -1.1096
  792MOL0     H 6919   2.188   7.077   6.041  0.0631  1.9679  0.1746
  792MOL0     H 6920   2.015   7.059   6.105  0.6413 -2.3891  3.6765
  793MOL0     O 6921   2.368   3.412   0.893  0.5681 -0.0755  0.1181
  793MOL0     C 6922   2.357   3.292   0.875 -0.8050  0.4157  0.6681
  793MOL0     O 6923   2.467   3.209   0.871  1.0217 -0.4332 -0.5376
  793MOL0     C 6924   2.598   3.242   0.909  0.3789  0.2333 -0.0033
  793MOL0     C 6925   2.628   3.330   1.012 -0.2783 -0.6318  0.1255
  793MOL0     C 6926   2.758   3.346   1.045 -1.0054 -0.3885 -0.1111
  793MOL0     C 6927   2.871   3.295   0.964 -0.6506 -0.1155 -0.8887
  793MOL0     O 6928   2.997   3.320   1.009  0.4259  0.4648 -0.8705
  793MOL0     C 6929   3.082   3.363   0.906 -0.1860 -0.6666  0.0964
  793MOL0     C 6930   3.207   3.284   0.892 -0.7214 -0.2964 -1.4797
  793MOL0     C 6931   3.290   3.337   0.761  0.2207  0.3221 -1.0083
  793MOL0     C 6932   3.437   3.286   0.766  0.3402  0.5525 -0.2177
  793MOL0     C 6933   3.501   3.266   0.635  0.2625 -0.3041 -0.1952
  793MOL0     C 6934   3.650   3.217   0.653 -0.5745  0.2634  0.5521
  793MOL0     C 6935   3.725   3.195   0.514  0.4042  0.2420 -0.1122
  793MOL0     C 6936   3.876   3.207   0.526 -0.3528 -0.4091  0.1055
  793MOL0     N 6937   3.922   3.337   0.570 -0.3961 -0.0812 -0.0919
  793MOL0     C 6938   3.944   3.380   0.699 -0.4235 -0.4476  0.5476
  793MOL0     C 6939   4.008   3.503   0.685  1.0544 -0.1413  0.7676
  793MOL0     C 6940   4.045   3.600   0.800 -0.2308  0.1320 -0.1404
  793MOL0     C 6941   3.925   3.655   0.865  0.0420  0.4912 -0.7034
  793MOL0     C 6942   3.870   3.786   0.803 -0.2307 -0.0347  0.4818
  793MOL0     C 6943   3.812   3.777   0.655  0.4337 -0.6251 -0.7195
  793MOL0     O 6944   3.753   3.906   0.622  0.0573 -0.2427  0.1501
  793MOL0     C 6945   3.735   3.935   0.485 -0.1164 -0.2581  0.6862
  793MOL0     C 6946   3.771   3.848   0.377  1.4024 -0.1621 -0.0679
  793MOL0     C 6947   3.748   3.886   0.242  0.2886  0.2970  0.6290
  793MOL0     C 6948   3.689   4.006   0.219  0.5460  0.4836 -0.1308
  793MOL0     C 6949   3.676   4.047   0.079 -0.1465 -0.0034 -0.2751
  793MOL0     O 6950   3.686   4.177   0.054 -0.1617 -0.0235 -0.9658
  793MOL0     C 6951   3.674   4.232  -0.061  0.9755  0.7214 -0.4520
  793MOL0     C 6952   3.571   4.206  -0.156 -1.2943  0.0338 -0.6783
  793MOL0     C 6953   3.561   4.282  -0.273  0.0831  0.4050  0.6943
  793MOL0     C 6954   3.662   4.369  -0.313 -0.4019 -0.0831 -0.1062
  793MOL0     O 6955   3.659   4.418  -0.443 -0.2157  0.3521  0.6879
  793MOL0     C 6956   3.793   4.400  -0.507  0.0407 -0.2432 -0.3396
  793MOL0     C 6957   3.806   4.393  -0.655  1.5254  1.0125  0.2728
  793MOL0     C 6958   3.699   4.292  -0.707 -0.3128 -1.0556 -0.1461
  793MOL0     C 6959   3.738   4.224  -0.841  0.4100 -0.8714 -0.1029
  793MOL0     C 6960   3.619   4.136  -0.887  0.1849 -0.3624 -0.5972
  793MOL0     C 6961   3.634   4.079  -1.023  0.1390 -0.4573  0.1413
  793MOL0     C 6962   3.522   3.971  -1.060  0.0710 -0.2476 -0.4939
  793MOL0     C 6963   3.396   4.035  -1.137 -0.2035  0.5831 -0.0112
  793MOL0    Cl 6964   3.297   4.141  -1.033  0.6088  0.5150  0.2082
  793MOL0     C 6965   3.770   4.390  -0.225 -0.6016 -0.3974 -0.3388
  793MOL0     C 6966   3.772   4.326  -0.097 -0.4871  0.7018  0.0742
  793MOL0     O 6967   3.645   3.960  -0.003  0.3270  0.0625  0.3323
  793MOL0     C 6968   3.663   4.093   0.323  0.2534 -0.3132  0.1611
  793MOL0     C 6969   3.693   4.064   0.460 -0.6113 -0.2225  0.2428
  793MOL0     N 6970   4.037   3.523   0.548 -0.4463 -0.0328  0.2804
  793MOL0     N 6971   3.993   3.418   0.489 -1.4840  0.6366 -0.5727
  793MOL0     C 6972   2.845   3.188   0.881  0.3412  0.2893  0.6391
  793MOL0     C 6973   2.706   3.169   0.860  0.9226  0.7559 -0.0492
  793MOL0     C 6974   2.232   3.212   0.877  0.4975 -0.2873 -0.2879
  793MOL0     C 6975   2.237   3.080   0.926  0.5206  0.5172 -0.1622
  793MOL0     C 6976   2.121   3.002   0.925 -0.0432 -0.4634 -0.7728
  793MOL0     C 6977   1.997   3.055   0.881  0.2696 -0.6060 -0.1501
  793MOL0     O 6978   1.887   2.972   0.865 -0.9424 -0.7666  0.2830
  793MOL0     C 6979   1.864   2.867   0.956 -1.3842  0.3987  0.6220
  793MOL0     C 6980   1.722   2.817   0.951  0.2742 -0.3165  0.1638
  793MOL0     C 6981   1.688   2.739   0.824  0.4881 -0.8742  0.5925
  793MOL0     C 6982   1.536   2.738   0.797 -0.4053  0.5522 -0.6374
  793MOL0     C 6983   1.444   2.686   0.913  0.8177 -0.4481 -0.2231
  793MOL0     C 6984   1.377   2.638   0.998 -1.0574  0.6821  0.4887
  793MOL0     C 6985   1.996   3.189   0.839  0.5556  0.3966 -0.3931
  793MOL0     C 6986   2.105   3.265   0.833  0.2911 -0.0977  0.9087
  793MOL0     C 6987   2.090   3.397   0.763  0.2109 -0.2517  0.6568
  793MOL0     H 6988   2.555   3.383   1.072  0.2154 -0.0139  0.1934
  793MOL0     H 6989   2.791   3.423   1.114  1.6138  2.2439 -3.8870
  793MOL0     H 6990   3.025   3.367   0.812 -2.8576 -3.1177  1.4416
  793MOL0     H 6991   3.111   3.462   0.940  3.4601 -2.0344  1.3802
  793MOL0     H 6992   3.181   3.178   0.885  1.1593 -0.9044 -0.2546
  793MOL0     H 6993   3.261   3.303   0.985 -1.0397 -2.6544 -0.7498
  793MOL0     H 6994   3.291   3.446   0.766  0.9368  0.3199 -1.0794
  793MOL0     H 6995   3.239   3.297   0.673  0.2033 -2.0181  0.0056
  793MOL0     H 6996   3.502   3.356   0.820  3.1150 -0.3195 -2.1555
  793MOL0     H 6997   3.442   3.192   0.821  1.9197 -0.0069 -1.2182
  793MOL0     H 6998   3.442   3.196   0.576  1.3163 -1.1315 -0.3112
  793MOL0     H 6999   3.506   3.360   0.580  2.5290  1.3340  2.5219
  793MOL0     H 7000   3.704   3.290   0.713 -1.0761  0.7699  0.3995
  793MOL0     H 7001   3.635   3.130   0.717 -1.1704  0.2928  0.4605
  793MOL0     H 7002   3.689   3.283   0.460 -2.2712 -0.7005 -0.0111
  793MOL0     H 7003   3.688   3.113   0.452  1.3175  1.3777 -2.2524
  793MOL0     H 7004   3.910   3.130   0.597  4.9250 -0.6082 -2.1882
  793MOL0     H 7005   3.922   3.187   0.429  2.3047 -0.2913  1.2418
  793MOL0     H 7006   3.905   3.325   0.784 -1.0044  2.4717  2.3077
  793MOL0     H 7007   4.098   3.551   0.882 -2.3989  0.3246  1.4605
  793MOL0     H 7008   4.104   3.685   0.763 -2.4162  1.1242 -1.5013
  793MOL0     H 7009   3.845   3.580   0.860  1.3519 -1.0799  0.4988
  793MOL0     H 7010   3.949   3.675   0.970 -0.1458  0.4217 -0.6467
  793MOL0     H 7011   3.938   3.871   0.793  0.7145 -0.9909 -2.1228
  793MOL0     H 7012   3.783   3.811   0.865 -2.3093  0.6252 -2.4542
  793MOL0     H 7013   3.739   3.697   0.643  1.0318 -1.5674  1.4294
  793MOL0     H 7014   3.902   3.763   0.594 -0.0183 -2.0339 -1.1049
  793MOL0     H 7015   3.817   3.752   0.398 -0.6125 -1.1113  0.1730
  793MOL0     H 7016   3.770   3.817   0.161 -2.1412  1.2114 -0.9422
  793MOL0     H 7017   3.499   4.131  -0.126  0.5012 -0.9790  1.4517
  793MOL0     H 7018   3.473   4.272  -0.335 -0.5606 -3.5661  1.9790
  793MOL0     H 7019   3.866   4.473  -0.471 -0.0207  0.1263 -0.9575
  793MOL0     H 7020   3.822   4.298  -0.478  1.6877  0.7372  1.7383
  793MOL0     H 7021   3.782   4.493  -0.694  0.2811  0.9818  0.9191
  793MOL0     H 7022   3.912   4.372  -0.674  2.1894  2.7674  1.6413
  793MOL0     H 7023   3.668   4.213  -0.637 -2.3647 -0.6765 -0.5520
  793MOL0     H 7024   3.616   4.361  -0.726  0.1010 -0.2465  0.8773
  793MOL0     H 7025   3.829   4.163  -0.833  1.9166  1.4876  2.9211
  793MOL0     H 7026   3.762   4.295  -0.920  1.0028 -1.4264 -0.4363
  793MOL0     H 7027   3.531   4.202  -0.885 -1.0650 -1.9737 -0.6943
  793MOL0     H 7028   3.599   4.060  -0.811  1.6424  1.4323  1.7321
  793MOL0     H 7029   3.632   4.155  -1.102 -0.2380 -0.1932  0.3996
  793MOL0     H 7030   3.733   4.032  -1.020  0.4662  0.1495  3.9108
  793MOL0     H 7031   3.486   3.923  -0.969  2.0115  2.8594  2.1409
  793MOL0     H 7032   3.570   3.895  -1.122 -0.1707 -1.7911  1.1306
  793MOL0     H 7033   3.421   4.094  -1.226  2.2620  0.3148  0.4316
  793MOL0     H 7034   3.333   3.949  -1.161  0.6186 -0.8595  2.6053
  793MOL0     H 7035   3.859   4.446  -0.250 -0.5643  0.0181  0.6854
  793MOL0     H 7036   3.850   4.339  -0.023  1.5647  2.1650 -2.2010
  793MOL0     H 7037   3.615   4.182   0.284 -1.6385 -0.1944  2.4904
  793MOL0     H 7038   3.677   4.136   0.539  2.0636 -0.4541  1.0864
  793MOL0     H 7039   2.921   3.126   0.836  2.0962  3.0390 -0.4397
  793MOL0     H 7040   2.685   3.087   0.791 -3.9837  1.0840  0.6880
  793MOL0     H 7041   2.332   3.037   0.959 -0.2200 -1.2278 -0.2002
  793MOL0     H 7042   2.113   2.903   0.969 -0.9551  0.5376  1.4784
  793MOL0     H 7043   1.894   2.898   1.056 -2.6845  1.4508  0.7122
  793MOL0     H 7044   1.919   2.778   0.925  1.1022  2.1702 -0.3604
  793MOL0     H 7045   1.654   2.900   0.974 -0.7907 -0.5845 -1.8146
  793MOL0     H 7046   1.699   2.736   1.021 -0.8672 -1.5957 -1.6227
  793MOL0     H 7047   1.723   2.635   0.828 -0.6721 -1.2436  2.3215
  793MOL0     H 7048   1.732   2.791   0.738 -1.1285 -1.8516 -0.8754
  793MOL0     H 7049   1.491   2.828   0.754 -0.9201  0.3677 -0.4999
  793MOL0     H 7050   1.534   2.664   0.717  0.9533  0.9312 -1.0319
  793MOL0     H 7051   1.326   2.581   1.073 -1.3609 -1.2097 -1.0765
  793MOL0     H 7052   1.905   3.227   0.794 -0.2539  2.1350  2.4895
  793MOL0     H 7053   2.111   3.479   0.832  2.2684 -1.5700  1.6702
  793MOL0     H 7054   2.162   3.414   0.682  1.6130 -1.4920  1.5978
  793MOL0     H 7055   1.996   3.411   0.708  1.6626  1.3596 -1.5983
  794MOL0     O 7056   8.193   7.994   9.366  0.7421 -0.2643 -0.0864
  794MOL0     C 7057   8.150   8.111   9.374 -0.9683  0.3267  0.4616
  794MOL0     O 7058   8.111   8.175   9.485  0.1556  0.0673  0.2075
  794MOL0     C 7059   8.135   8.119   9.605 -0.1473  0.9024  0.1186
  794MOL0     C 7060   8.256   8.075   9.659 -0.4342  0.1138  0.3543
  794MOL0     C 7061   8.264   8.013   9.784 -0.4521 -0.3565  0.3060
  794MOL0     C 7062   8.148   8.015   9.876 -0.3800 -1.5194  0.1544
  794MOL0     O 7063   8.182   7.982  10.005 -0.3063 -0.4538 -0.1957
  794MOL0     C 7064   8.083   8.020  10.101  0.3635  0.4402 -0.8651
  794MOL0     C 7065   8.122   7.985  10.245 -0.9797 -0.2140  0.6597
  794MOL0     C 7066   8.013   7.993  10.356  0.2135  0.4499  0.4649
  794MOL0     C 7067   8.033   7.902  10.482  0.5158  0.8931 -0.2670
  794MOL0     C 7068   7.977   7.941  10.619  0.0783  0.2630 -0.2948
  794MOL0     C 7069   8.048   7.871  10.737  0.1758 -0.2311  0.6326
  794MOL0     C 7070   7.988   7.895  10.873  0.8406  0.1972 -0.6093
  794MOL0     C 7071   8.059   8.006  10.939  1.0690  0.0030  0.1962
  794MOL0     N 7072   8.060   8.013  11.089 -0.4032  0.9593  0.5695
  794MOL0     C 7073   8.145   7.938  11.163 -0.3263  0.0106  0.5432
  794MOL0     C 7074   8.095   7.937  11.290 -0.0600 -0.0307  0.2818
  794MOL0     C 7075   8.140   7.843  11.402 -0.0209 -0.1250 -0.4793
  794MOL0     C 7076   8.095   7.910  11.531  0.0648 -0.0386  0.5233
  794MOL0     C 7077   8.152   7.827  11.648 -0.0818 -0.6167  0.2796
  794MOL0     C 7078   8.080   7.882  11.772  0.5261 -1.0924  0.4407
  794MOL0     O 7079   8.101   7.819  11.905  0.5282 -0.0222  0.5374
  794MOL0     C 7080   8.221   7.824  11.958 -0.2191 -0.2678 -1.4098
  794MOL0     C 7081   8.246   7.736  12.065  0.3543 -0.5500  0.7980
  794MOL0     C 7082   8.373   7.725  12.113  0.7981 -0.3614  0.7455
  794MOL0     C 7083   8.482   7.796  12.068 -0.3194 -0.0705  0.4437
  794MOL0     C 7084   8.622   7.794  12.117 -0.3417  0.0687  0.3381
  794MOL0     O 7085   8.724   7.847  12.043 -0.4057  0.8003  0.4401
  794MOL0     C 7086   8.858   7.823  12.070  0.6576 -0.6403 -0.1533
  794MOL0     C 7087   8.933   7.856  11.959 -0.2155  1.1200 -1.0867
  794MOL0     C 7088   9.067   7.844  11.964  0.1844 -1.1720  0.1813
  794MOL0     C 7089   9.135   7.792  12.070  0.9501  0.3644 -0.3977
  794MOL0     O 7090   9.265   7.795  12.081  0.7317  0.0945  0.0396
  794MOL0     C 7091   9.338   7.683  12.148  0.4547  0.2772  0.6005
  794MOL0     C 7092   9.465   7.668  12.070  0.8563  0.7109  0.3193
  794MOL0     C 7093   9.548   7.557  12.132  0.7991  0.4749  0.5007
  794MOL0     C 7094   9.686   7.551  12.074  1.1055 -0.8598 -0.6626
  794MOL0     C 7095   9.777   7.459  12.148  0.2801  0.4172  0.7039
  794MOL0     C 7096   9.826   7.506  12.286 -0.4036  0.3132 -1.0830
  794MOL0     C 7097   9.963   7.442  12.330  0.2085 -0.0801  0.5671
  794MOL0     C 7098   9.987   7.478  12.471 -0.2739  1.0443  0.1539
  794MOL0    Cl 7099  10.046   7.647  12.473  0.2263  0.0882 -0.1312
  794MOL0     C 7100   9.057   7.755  12.189 -0.3757 -0.5985  0.5088
  794MOL0     C 7101   8.919   7.779  12.191  0.1326  0.1884  0.7572
  794MOL0     O 7102   8.634   7.734  12.225 -0.2229  0.4256 -0.2529
  794MOL0     C 7103   8.459   7.883  11.961 -0.4447  0.4920  0.1743
  794MOL0     C 7104   8.325   7.902  11.914  0.9491 -0.4570 -0.1719
  794MOL0     N 7105   7.994   8.031  11.287  0.8690  0.3618 -0.0935
  794MOL0     N 7106   7.960   8.062  11.169 -0.5085 -0.5138 -0.5160
  794MOL0     C 7107   8.027   8.056   9.829  0.1679 -0.9018 -0.2921
  794MOL0     C 7108   8.023   8.119   9.702  0.9386 -0.1785  0.4991
  794MOL0     C 7109   8.160   8.181   9.244 -0.9431 -0.7377 -0.3144
  794MOL0     C 7110   8.161   8.103   9.123 -0.0675 -0.2269  0.0856
  794MOL0     C 7111   8.157   8.161   9.000 -0.0759  0.8457  0.2947
  794MOL0     C 7112   8.171   8.300   8.981  0.2326  0.4578  0.8357
  794MOL0     O 7113   8.175   8.342   8.852 -0.2998  0.4249  0.0890
  794MOL0     C 7114   8.130   8.482   8.826  0.3552  0.1335  0.6155
  794MOL0     C 7115   7.981   8.510   8.864  1.0907 -0.4719 -0.2277
  794MOL0     C 7116   7.946   8.605   8.985  0.7350  0.8858 -0.2030
  794MOL0     C 7117   7.862   8.526   9.090 -0.4576 -0.3410  0.0701
  794MOL0     C 7118   7.807   8.609   9.192 -0.4939 -0.5942 -0.4614
  794MOL0     C 7119   7.761   8.676   9.286 -1.0411 -0.6918 -0.3570
  794MOL0     C 7120   8.174   8.381   9.099 -0.6976 -0.5805 -0.7612
  794MOL0     C 7121   8.162   8.319   9.227  0.8497 -0.3148 -0.2772
  794MOL0     C 7122   8.149   8.421   9.337 -0.0076 -1.0419  0.4842
  794MOL0     H 7123   8.346   8.090   9.601 -1.6207 -1.1384 -1.9696
  794MOL0     H 7124   8.361   7.977   9.817  0.2741 -0.1782 -1.5572
  794MOL0     H 7125   8.055   8.125  10.092 -1.8482 -0.2336 -3.4539
  794MOL0     H 7126   7.994   7.960  10.084  0.9665 -1.9757  3.2524
  794MOL0     H 7127   8.198   8.055  10.282 -2.4505 -0.3543  4.3224
  794MOL0     H 7128   8.158   7.882  10.239 -1.7717 -0.5287  1.1857
  794MOL0     H 7129   7.920   7.958  10.310  0.1405  0.8740  0.2808
  794MOL0     H 7130   7.996   8.098  10.384 -0.0118  0.0493  1.8933
  794MOL0     H 7131   7.991   7.804  10.456 -0.1253  0.4087  2.3229
  794MOL0     H 7132   8.140   7.897  10.504 -0.0298 -2.5188  2.4504
  794MOL0     H 7133   7.989   8.049  10.637 -2.1595  0.6822 -0.9502
  794MOL0     H 7134   7.870   7.920  10.617  0.0986  0.1928 -1.9139
  794MOL0     H 7135   8.036   7.762  10.731  0.9729 -0.4639  2.6108
  794MOL0     H 7136   8.153   7.901  10.741  0.5596 -1.6010  1.2754
  794MOL0     H 7137   8.006   7.806  10.935  0.3115  0.2120 -0.4292
  794MOL0     H 7138   7.884   7.920  10.855  1.0729  0.2903 -1.8747
  794MOL0     H 7139   8.161   8.011  10.900  0.4361  2.1173 -1.3142
  794MOL0     H 7140   7.998   8.091  10.908  3.2136  0.8861 -1.8588
  794MOL0     H 7141   8.215   7.861  11.133  0.0910  0.6560 -0.1485
  794MOL0     H 7142   8.102   7.741  11.392 -0.5977 -0.2025  1.7973
  794MOL0     H 7143   8.249   7.837  11.407 -0.0669 -0.2092  0.9000
  794MOL0     H 7144   8.148   8.006  11.537 -0.7953  0.4322  0.7622
  794MOL0     H 7145   7.987   7.927  11.534  0.5531  4.1551  1.4261
  794MOL0     H 7146   8.260   7.846  11.645 -0.3018  0.7912  0.5146
  794MOL0     H 7147   8.125   7.723  11.631  1.0891 -1.3143  2.2418
  794MOL0     H 7148   7.971   7.878  11.763  0.6414 -0.1861 -2.2785
  794MOL0     H 7149   8.107   7.988  11.781 -0.2286 -0.6147 -2.1881
  794MOL0     H 7150   8.170   7.677  12.114  0.8419 -1.9795 -0.0953
  794MOL0     H 7151   8.386   7.649  12.188  0.0730  0.9389  2.2487
  794MOL0     H 7152   8.873   7.905  11.883 -0.8164 -0.5349 -1.7192
  794MOL0     H 7153   9.130   7.880  11.883  1.8252  1.1915  2.3371
  794MOL0     H 7154   9.368   7.711  12.250  0.1105  1.8206  0.3060
  794MOL0     H 7155   9.284   7.588  12.145  1.4556 -0.2907 -2.0611
  794MOL0     H 7156   9.438   7.635  11.969 -0.5678  2.7548 -0.0379
  794MOL0     H 7157   9.527   7.758  12.067  2.1747 -0.1078  1.7507
  794MOL0     H 7158   9.552   7.571  12.240 -3.6559 -1.1453  1.0793
  794MOL0     H 7159   9.506   7.458  12.116  2.0893 -0.7769  3.9504
  794MOL0     H 7160   9.719   7.654  12.094 -1.0862 -0.5915  2.4397
  794MOL0     H 7161   9.684   7.525  11.968  0.8548 -0.2978 -0.8026
  794MOL0     H 7162   9.849   7.442  12.067 -4.4524  0.1984 -4.0409
  794MOL0     H 7163   9.730   7.363  12.170 -0.8247  1.0169  1.0138
  794MOL0     H 7164   9.833   7.615  12.296  1.6729  0.0175  2.5065
  794MOL0     H 7165   9.760   7.475  12.367  0.1424 -0.8603 -1.0753
  794MOL0     H 7166  10.042   7.482  12.266 -1.8086 -0.7758 -2.5801
  794MOL0     H 7167   9.950   7.334  12.320  0.5745  0.0572 -1.7326
  794MOL0     H 7168   9.894   7.466  12.529 -0.3413  0.7599 -0.0114
  794MOL0     H 7169  10.058   7.403  12.505 -1.7713 -1.1228 -1.1968
  794MOL0     H 7170   9.097   7.698  12.272 -2.7908 -1.5446  1.1052
  794MOL0     H 7171   8.863   7.766  12.283 -3.5152  2.5743 -0.8834
  794MOL0     H 7172   8.534   7.952  11.923 -2.3696  1.3560 -2.2867
  794MOL0     H 7173   8.317   7.975  11.834  4.0861 -1.2149 -1.3349
  794MOL0     H 7174   7.942   8.066   9.896 -1.6392  1.0099 -2.6839
  794MOL0     H 7175   7.927   8.154   9.665 -0.3688 -1.4930  2.4410
  794MOL0     H 7176   8.169   7.994   9.118 -1.5792 -0.3049 -1.4569
  794MOL0     H 7177   8.164   8.097   8.912  1.5130  0.2576  0.8125
  794MOL0     H 7178   8.137   8.507   8.720 -0.9780  0.0114  0.4820
  794MOL0     H 7179   8.202   8.545   8.876  2.0857  0.5991 -2.2338
  794MOL0     H 7180   7.919   8.420   8.859 -1.5818  1.3166 -2.6117
  794MOL0     H 7181   7.945   8.571   8.780  1.2408 -0.1959 -0.0907
  794MOL0     H 7182   7.881   8.681   8.940 -3.8990 -2.2889  0.4053
  794MOL0     H 7183   8.028   8.655   9.037  0.1135 -1.0093  2.8667
  794MOL0     H 7184   7.769   8.488   9.047 -0.7117 -0.2841  0.5601
  794MOL0     H 7185   7.920   8.448   9.141 -1.4681 -0.2836  1.3615
  794MOL0     H 7186   7.724   8.748   9.356 -1.5896 -1.2244 -0.0950
  794MOL0     H 7187   8.192   8.488   9.092  1.9810 -0.7311  1.7984
  794MOL0     H 7188   8.170   8.523   9.303  1.8490 -1.4211  0.3813
  794MOL0     H 7189   8.048   8.426   9.380 -0.9498  0.1638 -1.6797
  794MOL0     H 7190   8.221   8.405   9.417 -1.0774 -0.7766  1.5222
  795MOL0     O 7191   6.858   6.480   8.883 -0.3858  0.0158  1.0275
  795MOL0     C 7192   6.801   6.546   8.796  0.4023  0.6109 -0.3554
  795MOL0     O 7193   6.675   6.593   8.806 -0.8202  0.6590  0.2081
  795MOL0     C 7194   6.598   6.571   8.917 -0.0166 -0.0398  0.5693
  795MOL0     C 7195   6.480   6.497   8.909  0.5334  0.2597 -0.3100
  795MOL0     C 7196   6.408   6.486   9.032 -0.1557 -0.7310  0.2844
  795MOL0     C 7197   6.440   6.557   9.147  0.6188 -0.1801 -0.9014
  795MOL0     O 7198   6.353   6.555   9.256 -0.0088  0.4282  0.8660
  795MOL0     C 7199   6.376   6.470   9.367 -0.6554  0.4111 -0.1813
  795MOL0     C 7200   6.457   6.539   9.481 -0.4734  0.6321  0.5316
  795MOL0     C 7201   6.363   6.646   9.545  0.3097  0.1313 -0.5725
  795MOL0     C 7202   6.446   6.763   9.583 -0.0335  0.4616  0.6072
  795MOL0     C 7203   6.377   6.876   9.658  0.8509  0.4624 -0.9884
  795MOL0     C 7204   6.444   7.010   9.637 -0.1260 -0.0752  0.2425
  795MOL0     C 7205   6.382   7.108   9.740 -0.2321  0.1414  0.2193
  795MOL0     C 7206   6.468   7.111   9.870 -0.2292 -0.4108  0.1558
  795MOL0     N 7207   6.592   7.187   9.849  0.4896 -0.2578  0.7118
  795MOL0     C 7208   6.681   7.197   9.948  0.1147 -0.3510 -0.0145
  795MOL0     C 7209   6.789   7.262   9.891 -0.1077  0.4029 -0.4010
  795MOL0     C 7210   6.912   7.299   9.971 -0.6504 -1.0682 -0.5447
  795MOL0     C 7211   6.925   7.456   9.995  0.0470  0.3294  0.5978
  795MOL0     C 7212   6.970   7.521   9.869 -0.3322 -0.5884 -0.0176
  795MOL0     C 7213   6.908   7.657   9.852  0.6132  0.3504  0.0072
  795MOL0     O 7214   6.971   7.733   9.748 -0.3398 -0.5311 -0.6538
  795MOL0     C 7215   6.912   7.858   9.720 -0.4143 -0.8292  0.1589
  795MOL0     C 7216   6.996   7.962   9.658 -0.0113  0.4057  0.6138
  795MOL0     C 7217   6.938   8.085   9.636 -0.1453 -0.2475  0.1615
  795MOL0     C 7218   6.807   8.125   9.681 -0.4510 -0.4756 -0.6606
  795MOL0     C 7219   6.757   8.263   9.669  0.0576  0.9448  0.5779
  795MOL0     O 7220   6.635   8.291   9.701  0.8505 -0.8303  0.5128
  795MOL0     C 7221   6.587   8.411   9.650 -0.4309 -0.4288 -0.0504
  795MOL0     C 7222   6.606   8.456   9.514 -0.0749  0.6277 -0.1435
  795MOL0     C 7223   6.533   8.567   9.460 -0.6704  0.6861 -0.2226
  795MOL0     C 7224   6.433   8.624   9.541  0.0095 -0.4094  0.3179
  795MOL0     O 7225   6.366   8.728   9.494 -0.1562  0.0134  0.6806
  795MOL0     C 7226   6.387   8.849   9.569 -0.2588 -0.7387  0.7321
  795MOL0     C 7227   6.439   8.956   9.470  0.5027 -0.0883  0.4644
  795MOL0     C 7228   6.567   9.026   9.510 -0.6045 -0.1110 -0.7248
  795MOL0     C 7229   6.679   8.921   9.526 -0.2358  0.6590 -0.0368
  795MOL0     C 7230   6.817   8.980   9.520 -0.0411 -0.1660 -0.7428
  795MOL0     C 7231   6.941   8.889   9.541 -0.4152  0.0306 -0.0263
  795MOL0     C 7232   6.947   8.777   9.450 -0.3145  0.2935 -0.5208
  795MOL0     C 7233   6.906   8.640   9.520  1.0313 -0.8539 -0.7414
  795MOL0    Cl 7234   7.011   8.606   9.659  0.5984  0.3014  0.2202
  795MOL0     C 7235   6.404   8.574   9.665 -0.3083  0.6129  0.4990
  795MOL0     C 7236   6.476   8.467   9.719 -1.3356  0.3458  0.2886
  795MOL0     O 7237   6.833   8.345   9.622 -1.0265  0.4658  0.2303
  795MOL0     C 7238   6.728   8.029   9.738 -0.6457 -0.1325 -0.3847
  795MOL0     C 7239   6.781   7.899   9.756 -0.1547  0.1146  0.6690
  795MOL0     N 7240   6.763   7.287   9.761 -0.2001 -0.8280  0.6758
  795MOL0     N 7241   6.640   7.247   9.733 -0.3248  0.4255 -1.0822
  795MOL0     C 7242   6.552   6.639   9.141  0.1023  0.5448 -1.2323
  795MOL0     C 7243   6.637   6.639   9.031 -0.5793  0.2873  0.4149
  795MOL0     C 7244   6.877   6.580   8.670 -0.0398 -0.4505 -0.5425
  795MOL0     C 7245   6.822   6.548   8.547  0.9277 -0.3062 -0.3857
  795MOL0     C 7246   6.894   6.570   8.434  0.2595  0.1849 -0.4019
  795MOL0     C 7247   7.012   6.642   8.440 -0.8723 -0.6714  0.3103
  795MOL0     O 7248   7.091   6.665   8.328 -0.6905  0.1014  0.3298
  795MOL0     C 7249   7.214   6.595   8.325  0.2937 -0.0136  0.5399
  795MOL0     C 7250   7.250   6.570   8.178 -0.3413  0.4148 -0.5713
  795MOL0     C 7251   7.259   6.697   8.092 -0.8258 -1.0935  0.0870
  795MOL0     C 7252   7.384   6.780   8.130  0.7535  0.3589 -0.6002
  795MOL0     C 7253   7.376   6.921   8.095 -0.8683  0.2027 -0.4521
  795MOL0     C 7254   7.379   7.034   8.057 -1.0750 -0.1575 -0.2935
  795MOL0     C 7255   7.064   6.677   8.566 -0.1712 -0.2016  0.4620
  795MOL0     C 7256   7.007   6.639   8.683 -0.0425  0.5152  0.7689
  795MOL0     C 7257   7.070   6.685   8.815  0.0778 -0.3992  0.2249
  795MOL0     H 7258   6.452   6.441   8.820  0.7067 -0.9266  0.3769
  795MOL0     H 7259   6.316   6.428   9.036 -0.4654 -0.1672  2.4395
  795MOL0     H 7260   6.280   6.442   9.412 -0.7640  2.0920  0.7021
  795MOL0     H 7261   6.426   6.383   9.323 -4.8016 -1.1538 -2.3870
  795MOL0     H 7262   6.550   6.578   9.438 -1.0758 -0.5362 -2.0653
  795MOL0     H 7263   6.477   6.461   9.555 -0.9175 -0.1989 -0.1886
  795MOL0     H 7264   6.315   6.612   9.638  0.7893  4.6741  1.5774
  795MOL0     H 7265   6.297   6.679   9.465 -0.2435  0.6578  0.0868
  795MOL0     H 7266   6.530   6.736   9.647 -0.3840  0.9069  1.2658
  795MOL0     H 7267   6.486   6.802   9.489  1.6634 -1.3601  0.5110
  795MOL0     H 7268   6.269   6.877   9.642  0.5102  1.5257  1.0091
  795MOL0     H 7269   6.378   6.840   9.762 -2.6455 -0.3606 -1.1213
  795MOL0     H 7270   6.545   6.979   9.664 -0.3672 -1.6618 -0.5287
  795MOL0     H 7271   6.430   7.035   9.531  0.8460 -2.1041 -0.4169
  795MOL0     H 7272   6.279   7.085   9.767  0.6983 -2.2201  2.1084
  795MOL0     H 7273   6.378   7.208   9.695  0.0610  0.3701  0.6916
  795MOL0     H 7274   6.404   7.143   9.953 -1.1799  1.5857 -1.2469
  795MOL0     H 7275   6.495   7.008   9.893 -1.1021 -0.6811  0.0218
  795MOL0     H 7276   6.673   7.179  10.055  3.6649  1.6809  0.7401
  795MOL0     H 7277   6.908   7.264  10.075  1.2987  0.7022  0.2168
  795MOL0     H 7278   6.995   7.248   9.921  1.0684 -0.3269  1.3863
  795MOL0     H 7279   6.822   7.489  10.011 -0.1693  0.2118 -0.4679
  795MOL0     H 7280   6.982   7.481  10.084 -1.4426  1.9837  1.1458
  795MOL0     H 7281   6.953   7.467   9.776 -0.9576 -0.3886 -0.0264
  795MOL0     H 7282   7.077   7.531   9.886 -0.3595  1.5800 -0.7460
  795MOL0     H 7283   6.921   7.699   9.952  1.3287 -0.9239  0.4714
  795MOL0     H 7284   6.805   7.643   9.816  1.0065  1.0087 -1.4516
  795MOL0     H 7285   7.102   7.948   9.643  0.1350 -0.1555  2.0226
  795MOL0     H 7286   7.008   8.157   9.595  0.0668 -1.0696 -0.9818
  795MOL0     H 7287   6.668   8.399   9.446 -1.7126 -2.7221  0.9349
  795MOL0     H 7288   6.552   8.605   9.360 -1.7412  0.2338 -0.6122
  795MOL0     H 7289   6.287   8.882   9.599 -0.4158  1.9194 -2.1830
  795MOL0     H 7290   6.454   8.847   9.655  1.9564  1.9616 -0.7510
  795MOL0     H 7291   6.452   8.917   9.369  5.1688 -0.5987  1.0382
  795MOL0     H 7292   6.354   9.024   9.455  1.7349  0.9934 -2.2146
  795MOL0     H 7293   6.583   9.088   9.421  1.4621 -1.7727 -1.6090
  795MOL0     H 7294   6.567   9.089   9.599  3.2343  0.4944 -0.9798
  795MOL0     H 7295   6.688   8.850   9.443  3.3909  0.8378  0.0625
  795MOL0     H 7296   6.661   8.863   9.617 -0.0338  2.8440  1.4709
  795MOL0     H 7297   6.824   9.065   9.588  0.8841  1.2515 -2.5133
  795MOL0     H 7298   6.827   9.014   9.416 -0.2906 -1.9963 -1.4018
  795MOL0     H 7299   7.034   8.943   9.523  0.6980 -1.3023  1.4702
  795MOL0     H 7300   6.945   8.855   9.645  1.0199 -3.6442 -1.1315
  795MOL0     H 7301   7.051   8.755   9.426  0.0202  0.4626  0.7069
  795MOL0     H 7302   6.917   8.793   9.346  1.0512  0.8165 -0.8555
  795MOL0     H 7303   6.807   8.648   9.565  1.3369 -1.4236  0.0484
  795MOL0     H 7304   6.902   8.562   9.443 -1.7402  0.3438 -1.9441
  795MOL0     H 7305   6.331   8.618   9.733 -0.5438  1.5948 -0.3636
  795MOL0     H 7306   6.446   8.428   9.816 -0.9140 -2.2633 -0.5516
  795MOL0     H 7307   6.626   8.033   9.776 -1.2348  1.4101 -1.9842
  795MOL0     H 7308   6.710   7.826   9.796 -0.0169 -1.4855 -1.8224
  795MOL0     H 7309   6.572   6.713   9.218  3.3134 -0.1481 -1.2936
  795MOL0     H 7310   6.718   6.711   9.031  0.9270 -1.3242  1.6165
  795MOL0     H 7311   6.726   6.498   8.544 -0.4840  1.5504  4.5364
  795MOL0     H 7312   6.845   6.542   8.341 -2.0553  1.3374  0.4025
  795MOL0     H 7313   7.206   6.491   8.358  2.3357 -0.9038 -1.4536
  795MOL0     H 7314   7.287   6.652   8.381 -1.7939  2.7313  0.6592
  795MOL0     H 7315   7.163   6.516   8.139 -1.3954  0.9707  0.9049
  795MOL0     H 7316   7.340   6.509   8.169  0.0652  0.9690 -0.3643
  795MOL0     H 7317   7.168   6.757   8.105 -0.6414 -1.2238  2.3082
  795MOL0     H 7318   7.264   6.669   7.986 -0.2515 -0.0055 -0.1841
  795MOL0     H 7319   7.394   6.781   8.239 -0.7989 -0.4782 -0.4218
  795MOL0     H 7320   7.471   6.737   8.080  1.3497  0.7356  0.0911
  795MOL0     H 7321   7.362   7.136   8.027  1.3867 -0.3907 -2.9524
  795MOL0     H 7322   7.159   6.727   8.579 -1.1171  1.9597 -0.4755
  795MOL0     H 7323   7.141   6.768   8.809 -0.8226  0.6642  2.7465
  795MOL0     H 7324   6.986   6.733   8.867  0.6895 -0.9688  1.7748
  795MOL0     H 7325   7.121   6.603   8.864  2.2017 -0.2704 -1.6108
  796MOL0     O 7326   5.751  11.363   1.481 -0.2790  0.1642  0.2875
  796MOL0     C 7327   5.758  11.242   1.468 -0.7157  0.9073 -0.1762
  796MOL0     O 7328   5.874  11.175   1.429 -0.5479  1.6505  0.9787
  796MOL0     C 7329   6.005  11.226   1.457  0.6196  0.3335 -0.5041
  796MOL0     C 7330   6.041  11.329   1.552 -0.5012  0.1052 -0.8407
  796MOL0     C 7331   6.178  11.340   1.581  0.7729 -0.1475 -0.8182
  796MOL0     C 7332   6.277  11.254   1.535  0.4080 -0.6372 -0.5407
  796MOL0     O 7333   6.407  11.250   1.582 -0.9960  0.0527 -0.0285
  796MOL0     C 7334   6.438  11.340   1.687 -1.2423  0.3444 -0.7577
  796MOL0     C 7335   6.581  11.320   1.733 -0.9558  0.3582 -0.1943
  796MOL0     C 7336   6.614  11.174   1.772 -0.5068  0.5775  0.9272
  796MOL0     C 7337   6.676  11.117   1.640 -0.0695  0.1866  0.5330
  796MOL0     C 7338   6.742  10.981   1.661 -0.5402 -0.3664  0.6717
  796MOL0     C 7339   6.790  10.926   1.529  0.4876 -0.4775  0.2234
  796MOL0     C 7340   6.813  10.776   1.539  0.4677 -0.1275  0.7581
  796MOL0     C 7341   6.841  10.713   1.407  0.4509  0.2821  0.2175
  796MOL0     N 7342   6.860  10.568   1.416  0.0342 -0.5851  0.2201
  796MOL0     C 7343   6.783  10.467   1.468 -0.8298 -0.4586 -0.3128
  796MOL0     C 7344   6.859  10.355   1.471  0.2862 -0.4386 -0.4963
  796MOL0     C 7345   6.828  10.234   1.551  0.0573  0.8589  0.3771
  796MOL0     C 7346   6.763  10.124   1.472 -0.1456  0.4162 -0.5908
  796MOL0     C 7347   6.608  10.125   1.466  1.0748 -0.6040 -0.2496
  796MOL0     C 7348   6.547  10.015   1.378 -0.7611  0.2883  0.2512
  796MOL0     O 7349   6.583  10.049   1.246  0.5755 -0.0154  0.9974
  796MOL0     C 7350   6.595   9.945   1.156 -0.6155  0.3081 -0.5605
  796MOL0     C 7351   6.726   9.905   1.129 -0.5799 -0.0131  0.4467
  796MOL0     C 7352   6.746   9.808   1.026  0.1861 -0.1844 -0.1004
  796MOL0     C 7353   6.635   9.744   0.963 -1.1440 -0.8700 -0.1475
  796MOL0     C 7354   6.660   9.634   0.856 -0.2739 -0.5449 -0.0537
  796MOL0     O 7355   6.788   9.608   0.801  0.2610  0.9977 -0.0529
  796MOL0     C 7356   6.793   9.572   0.670  0.9095  0.3523 -0.4580
  796MOL0     C 7357   6.920   9.550   0.620  0.2951 -0.4302 -0.6438
  796MOL0     C 7358   6.953   9.534   0.486 -0.3551 -0.1873  0.3136
  796MOL0     C 7359   6.853   9.541   0.392 -1.5518  0.2241  1.0004
  796MOL0     O 7360   6.884   9.536   0.259  0.0985  0.1027  0.5852
  796MOL0     C 7361   6.786   9.472   0.178  0.0367  0.1613 -0.2044
  796MOL0     C 7362   6.842   9.461   0.037  0.3746  0.6065 -0.5307
  796MOL0     C 7363   6.910   9.328   0.023 -0.3036 -0.1002  0.4665
  796MOL0     C 7364   6.950   9.275  -0.115 -0.7180  0.4349 -0.0863
  796MOL0     C 7365   7.096   9.211  -0.110 -0.1636  0.7604 -0.1609
  796MOL0     C 7366   7.082   9.057  -0.095 -0.2042  0.6380  0.3037
  796MOL0     C 7367   7.215   9.005  -0.144  0.0016  0.5734  0.2335
  796MOL0     C 7368   7.244   8.877  -0.083 -0.6994 -0.0035  0.0283
  796MOL0    Cl 7369   7.135   8.743  -0.133 -0.3964 -0.3834  0.1198
  796MOL0     C 7370   6.715   9.541   0.444  0.3867 -0.3048 -0.3329
  796MOL0     C 7371   6.683   9.564   0.581 -0.9576 -0.0913  0.4793
  796MOL0     O 7372   6.562   9.570   0.834  0.3639  0.5021  0.8963
  796MOL0     C 7373   6.504   9.777   1.013 -0.2021  0.7354 -0.0058
  796MOL0     C 7374   6.485   9.886   1.098  0.6165  0.2091 -1.3626
  796MOL0     N 7375   6.986  10.388   1.418  1.0703 -0.2559 -0.3734
  796MOL0     N 7376   6.981  10.510   1.376  0.9002  0.7461  0.2974
  796MOL0     C 7377   6.235  11.167   1.440  0.4686  0.5879  0.0364
  796MOL0     C 7378   6.106  11.146   1.405 -0.2159  0.4272 -0.1854
  796MOL0     C 7379   5.641  11.145   1.486  0.1162  0.0204 -0.8715
  796MOL0     C 7380   5.634  11.036   1.394  0.1443  0.3700 -0.7222
  796MOL0     C 7381   5.523  10.946   1.404 -0.3065 -0.5087  0.5750
  796MOL0     C 7382   5.409  10.970   1.500 -1.0526  0.1113  0.1309
  796MOL0     O 7383   5.296  10.887   1.483  0.8782 -0.2993 -0.0123
  796MOL0     C 7384   5.200  10.882   1.597 -0.3862  0.9776  0.3404
  796MOL0     C 7385   5.092  10.781   1.568 -0.1485  0.3778  0.1387
  796MOL0     C 7386   4.961  10.810   1.651 -0.6706  1.3399  1.0802
  796MOL0     C 7387   4.982  10.795   1.800  0.3786  0.2105  0.4839
  796MOL0     C 7388   5.016  10.660   1.838 -0.7055 -0.0258  0.2646
  796MOL0     C 7389   5.062  10.557   1.862  0.4107  0.5554 -0.1831
  796MOL0     C 7390   5.430  11.083   1.590  0.6916  0.1455  0.2917
  796MOL0     C 7391   5.537  11.166   1.588  0.2421 -1.1217 -0.2665
  796MOL0     C 7392   5.534  11.277   1.689 -0.0345 -0.4960  0.0028
  796MOL0     H 7393   5.974  11.405   1.591 -1.8222 -1.5116  0.2214
  796MOL0     H 7394   6.214  11.425   1.639  4.9765 -1.6711 -0.7907
  796MOL0     H 7395   6.431  11.446   1.664  3.1424  1.1686  0.7064
  796MOL0     H 7396   6.363  11.321   1.764 -0.1039 -2.7278 -0.2391
  796MOL0     H 7397   6.586  11.384   1.821  2.9852 -0.4626  0.3355
  796MOL0     H 7398   6.649  11.364   1.660  1.6299 -0.3576  1.6236
  796MOL0     H 7399   6.530  11.112   1.805  0.8718 -1.4376  0.7955
  796MOL0     H 7400   6.685  11.176   1.854  0.1667  0.6636  0.3492
  796MOL0     H 7401   6.606  11.103   1.558  2.0549  1.7035 -1.6854
  796MOL0     H 7402   6.743  11.191   1.595  2.1476 -1.3575  1.1051
  796MOL0     H 7403   6.826  10.980   1.731  1.3734 -4.4144 -1.3148
  796MOL0     H 7404   6.666  10.911   1.699  2.0224 -2.3523  2.5791
  796MOL0     H 7405   6.711  10.948   1.456 -1.8828 -1.8757  2.1890
  796MOL0     H 7406   6.879  10.985   1.507 -0.3690  1.0145  0.6174
  796MOL0     H 7407   6.724  10.724   1.576 -1.4975 -0.4969 -3.8671
  796MOL0     H 7408   6.889  10.758   1.616 -0.9917 -1.6894  1.9326
  796MOL0     H 7409   6.759  10.720   1.335  0.1651  1.0861  0.6195
  796MOL0     H 7410   6.931  10.762   1.368 -0.0335 -0.9600 -2.8166
  796MOL0     H 7411   6.686  10.466   1.517  0.2766  0.1694  2.0229
  796MOL0     H 7412   6.913  10.183   1.597 -0.6226 -1.6841 -0.9896
  796MOL0     H 7413   6.772  10.262   1.641  1.0873 -3.1953  2.5466
  796MOL0     H 7414   6.809  10.112   1.374 -0.5261  2.3150 -1.0334
  796MOL0     H 7415   6.791  10.036   1.532  0.5179  0.7493 -0.4023
  796MOL0     H 7416   6.561  10.219   1.437 -2.6827 -2.7905 -1.8841
  796MOL0     H 7417   6.566  10.102   1.564  1.9752  1.0970  0.5842
  796MOL0     H 7418   6.439  10.013   1.397 -1.5385  2.0152 -3.2000
  796MOL0     H 7419   6.607   9.928   1.405  0.7452  1.1927 -0.0805
  796MOL0     H 7420   6.816   9.953   1.164 -1.3320  1.6879  0.1190
  796MOL0     H 7421   6.847   9.796   0.990  0.2606  0.5399 -0.1491
  796MOL0     H 7422   6.999   9.554   0.694 -0.1529 -1.0918 -0.1204
  796MOL0     H 7423   7.058   9.512   0.470 -0.4123 -1.4269  1.4883
  796MOL0     H 7424   6.739   9.382   0.220  0.0714  0.7108  1.0558
  796MOL0     H 7425   6.708   9.546   0.164 -0.1441 -0.5307 -3.6571
  796MOL0     H 7426   6.758   9.451  -0.032 -1.2133 -1.1597  1.5274
  796MOL0     H 7427   6.911   9.540   0.005  1.3843  1.0676  2.4574
  796MOL0     H 7428   7.000   9.347   0.081  0.4336  2.0662 -1.2393
  796MOL0     H 7429   6.860   9.245   0.075  2.1124 -1.2484  1.1218
  796MOL0     H 7430   6.956   9.358  -0.185  1.7633  0.6388  0.2853
  796MOL0     H 7431   6.869   9.208  -0.146  1.3819 -3.0777  1.4325
  796MOL0     H 7432   7.157   9.266  -0.038 -1.2827  1.0909  0.5448
  796MOL0     H 7433   7.134   9.234  -0.211 -0.8510  2.1509 -0.1267
  796MOL0     H 7434   7.056   9.028   0.007 -0.9216 -2.0668 -0.5742
  796MOL0     H 7435   7.009   9.012  -0.163  0.7083  0.5623 -0.6363
  796MOL0     H 7436   7.293   9.079  -0.123 -1.0068  1.4828  0.9280
  796MOL0     H 7437   7.204   9.002  -0.253  0.0134  1.8706  0.1741
  796MOL0     H 7438   7.346   8.855  -0.114 -0.0622  2.4102  0.2151
  796MOL0     H 7439   7.254   8.898   0.024  1.8279  1.7929 -0.4603
  796MOL0     H 7440   6.630   9.556   0.378 -0.8497 -2.9487  0.5222
  796MOL0     H 7441   6.582   9.595   0.605 -0.7910  1.4989 -0.7367
  796MOL0     H 7442   6.419   9.726   0.969 -2.1428  2.2342  1.7797
  796MOL0     H 7443   6.385   9.925   1.115  0.2199 -0.3034 -2.3754
  796MOL0     H 7444   6.305  11.095   1.399  0.2967 -0.6351  1.7950
  796MOL0     H 7445   6.084  11.071   1.331  3.2839  0.1698 -1.1450
  796MOL0     H 7446   5.709  11.010   1.320 -0.1943 -0.1497 -0.8852
  796MOL0     H 7447   5.532  10.860   1.338  1.0934  0.8668 -1.1402
  796MOL0     H 7448   5.147  10.978   1.600 -1.1082  0.7470 -2.3498
  796MOL0     H 7449   5.254  10.867   1.691 -1.1337 -1.1329  0.4766
  796MOL0     H 7450   5.128  10.679   1.587 -0.1816  0.1252 -1.0663
  796MOL0     H 7451   5.073  10.786   1.461  2.5263  0.5360 -0.4049
  796MOL0     H 7452   4.887  10.732   1.630  2.4393 -1.8442  1.1910
  796MOL0     H 7453   4.923  10.910   1.629  0.5097  1.4329 -0.6431
  796MOL0     H 7454   5.060  10.862   1.837  0.5238  0.1674  0.2565
  796MOL0     H 7455   4.890  10.827   1.848  0.6845  0.0765  1.1717
  796MOL0     H 7456   5.105  10.464   1.892  1.8475  1.6874  1.5005
  796MOL0     H 7457   5.350  11.108   1.659 -1.7847  1.0314 -2.6737
  796MOL0     H 7458   5.454  11.257   1.762  0.4559 -2.6548  0.0239
  796MOL0     H 7459   5.619  11.285   1.757 -0.4298  0.8433  0.3677
  796MOL0     H 7460   5.528  11.374   1.640  0.3752  0.5515  1.9050
  797MOL0     O 7461   8.549   3.421   3.364  0.3091  0.2870  0.2217
  797MOL0     C 7462   8.585   3.304   3.365 -0.5461  0.4999  0.2785
  797MOL0     O 7463   8.527   3.191   3.296  0.0242 -0.5605  0.0441
  797MOL0     C 7464   8.451   3.210   3.187  0.9438  0.3452  0.5471
  797MOL0     C 7465   8.365   3.112   3.156 -0.3126 -0.2299  0.1353
  797MOL0     C 7466   8.282   3.128   3.046  0.0227  0.6090 -0.6597
  797MOL0     C 7467   8.290   3.224   2.950 -0.7040  0.3648 -0.2771
  797MOL0     O 7468   8.210   3.231   2.838 -0.6497 -0.8189 -0.5952
  797MOL0     C 7469   8.279   3.251   2.705  0.4756  0.2652  0.0278
  797MOL0     C 7470   8.393   3.160   2.678  0.5420  0.1846  0.4818
  797MOL0     C 7471   8.342   3.014   2.713 -0.6571 -0.5609  0.0392
  797MOL0     C 7472   8.412   2.916   2.620 -0.2541 -0.0390  0.4128
  797MOL0     C 7473   8.342   2.782   2.634  0.4724 -0.2732 -0.6422
  797MOL0     C 7474   8.418   2.673   2.566  0.4966 -0.7438  0.0205
  797MOL0     C 7475   8.540   2.627   2.629 -0.3350  0.0114 -1.0484
  797MOL0     C 7476   8.580   2.499   2.560  0.3525  0.0301  0.7874
  797MOL0     N 7477   8.717   2.452   2.601  0.6203 -0.0087  0.2601
  797MOL0     C 7478   8.764   2.459   2.731  1.0186  0.4182  0.3231
  797MOL0     C 7479   8.892   2.428   2.720 -0.4341  0.0970 -0.0347
  797MOL0     C 7480   8.995   2.426   2.833  0.6587 -1.2231 -0.3880
  797MOL0     C 7481   8.949   2.333   2.949  0.0128  0.1532 -0.0585
  797MOL0     C 7482   8.921   2.186   2.896 -0.2733 -0.1782  0.4715
  797MOL0     C 7483   8.888   2.085   3.007 -0.8340  0.4182  0.3349
  797MOL0     O 7484   8.883   1.945   2.949 -0.4487  0.0566  0.9187
  797MOL0     C 7485   9.008   1.881   2.910 -0.5979 -0.2687  0.4502
  797MOL0     C 7486   9.128   1.910   2.977  0.5963 -0.8336 -0.4955
  797MOL0     C 7487   9.238   1.840   2.948 -0.3593  0.7369  0.5887
  797MOL0     C 7488   9.237   1.730   2.854  0.0848 -0.0189 -0.2109
  797MOL0     C 7489   9.362   1.667   2.837  0.3021 -0.0931 -0.2647
  797MOL0     O 7490   9.451   1.634   2.935 -0.6090 -0.3258  0.4977
  797MOL0     C 7491   9.580   1.609   2.894 -0.3926  0.5250 -0.2152
  797MOL0     C 7492   9.658   1.676   2.789 -0.8722  0.7759  0.2698
  797MOL0     C 7493   9.780   1.631   2.766 -0.4168  0.3057  0.5368
  797MOL0     C 7494   9.852   1.541   2.843  0.5044  0.4676 -0.5737
  797MOL0     O 7495   9.982   1.527   2.811  0.0737  0.4234  0.5483
  797MOL0     C 7496  10.059   1.445   2.894 -0.2161 -0.0713 -0.2659
  797MOL0     C 7497  10.205   1.449   2.852  0.0731 -0.1913  0.9002
  797MOL0     C 7498  10.296   1.359   2.944 -0.4450  0.0426 -0.3070
  797MOL0     C 7499  10.435   1.337   2.898 -0.6064 -1.0580 -0.7861
  797MOL0     C 7500  10.515   1.473   2.886  0.6227  0.0495  0.0511
  797MOL0     C 7501  10.672   1.451   2.872 -0.1813  0.2639  0.7692
  797MOL0     C 7502  10.736   1.576   2.806 -0.5616  0.3951  0.2205
  797MOL0     C 7503  10.875   1.556   2.758  0.6813 -0.5488 -0.5250
  797MOL0    Cl 7504  10.999   1.584   2.889 -0.5973 -0.1537 -0.6354
  797MOL0     C 7505   9.780   1.487   2.950  0.4472 -0.1974  0.3211
  797MOL0     C 7506   9.647   1.516   2.973 -0.4752 -0.1918 -0.1286
  797MOL0     O 7507   9.386   1.652   2.721 -0.5359 -0.0450 -0.5639
  797MOL0     C 7508   9.119   1.698   2.784 -0.9074 -0.1532  0.6011
  797MOL0     C 7509   9.006   1.779   2.814 -0.6919  0.7707  0.0290
  797MOL0     N 7510   8.926   2.397   2.585  0.3726 -0.4892  0.9338
  797MOL0     N 7511   8.821   2.416   2.517 -0.3766  0.9620  0.9442
  797MOL0     C 7512   8.390   3.318   2.977  0.3302 -0.6627 -0.9428
  797MOL0     C 7513   8.464   3.317   3.100 -0.3661  0.0459  0.6137
  797MOL0     C 7514   8.682   3.272   3.477  0.0484  0.8070  1.0792
  797MOL0     C 7515   8.714   3.369   3.576 -0.4738  0.9156 -0.5249
  797MOL0     C 7516   8.782   3.331   3.697  0.0613 -0.1373 -0.3920
  797MOL0     C 7517   8.826   3.202   3.721 -0.3484 -0.0289 -0.3058
  797MOL0     O 7518   8.904   3.157   3.826  0.8249 -0.0299 -0.8755
  797MOL0     C 7519   8.909   3.226   3.943  0.1009 -0.3078 -0.5372
  797MOL0     C 7520   8.778   3.223   4.019  0.6970 -0.1190  0.1355
  797MOL0     C 7521   8.784   3.264   4.166 -0.5275 -0.4061 -0.5138
  797MOL0     C 7522   8.780   3.133   4.248 -0.8320  0.6891  0.4417
  797MOL0     C 7523   8.917   3.072   4.264  0.5963 -0.9517 -0.7489
  797MOL0     C 7524   9.024   3.025   4.267  0.0294 -0.3370  0.6833
  797MOL0     C 7525   8.796   3.110   3.622  0.2235  0.1156 -0.0169
  797MOL0     C 7526   8.732   3.138   3.499 -0.0596  0.1641 -0.1518
  797MOL0     C 7527   8.722   3.022   3.400 -0.8868  0.2619 -0.0263
  797MOL0     H 7528   8.366   3.019   3.211 -1.5683 -0.5952 -0.4205
  797MOL0     H 7529   8.199   3.058   3.041  0.7458 -0.3549  0.4824
  797MOL0     H 7530   8.208   3.247   2.622  0.2059 -1.7778  0.3034
  797MOL0     H 7531   8.320   3.352   2.715 -0.9402  0.6494  3.1477
  797MOL0     H 7532   8.482   3.184   2.737  0.4409  1.9652 -0.0239
  797MOL0     H 7533   8.408   3.167   2.570  1.3902  3.4774  0.7178
  797MOL0     H 7534   8.235   3.005   2.690 -0.0642  0.7042 -4.1001
  797MOL0     H 7535   8.363   2.990   2.817 -0.7104 -2.2553 -0.3108
  797MOL0     H 7536   8.414   2.952   2.517  0.4210 -0.6724  0.2021
  797MOL0     H 7537   8.512   2.899   2.660 -0.2009  1.4811  0.9906
  797MOL0     H 7538   8.332   2.751   2.738 -0.0909 -2.1577 -1.2163
  797MOL0     H 7539   8.243   2.784   2.588 -0.0707 -0.8138  0.4671
  797MOL0     H 7540   8.338   2.600   2.551 -0.8875  0.4613  1.1957
  797MOL0     H 7541   8.447   2.689   2.461  2.7907 -0.3049  0.6661
  797MOL0     H 7542   8.533   2.599   2.735  1.2473 -0.3786 -1.0255
  797MOL0     H 7543   8.616   2.706   2.624  1.7290 -1.7189  0.6612
  797MOL0     H 7544   8.491   2.437   2.580 -0.0060  0.2626 -0.0437
  797MOL0     H 7545   8.588   2.526   2.455  0.3744 -1.9569  0.2302
  797MOL0     H 7546   8.715   2.493   2.822 -1.5318 -0.7335 -0.5157
  797MOL0     H 7547   9.094   2.395   2.798  0.4602 -0.4746 -1.7118
  797MOL0     H 7548   9.001   2.529   2.869  2.3608 -1.4335 -0.0158
  797MOL0     H 7549   9.031   2.335   3.022 -0.0726  0.0478  0.0398
  797MOL0     H 7550   8.870   2.385   3.003  2.4186  2.2886  1.6883
  797MOL0     H 7551   9.014   2.178   2.840  0.2321  0.3016  1.2172
  797MOL0     H 7552   8.836   2.173   2.828 -3.2430 -0.9096  3.9995
  797MOL0     H 7553   8.793   2.115   3.051 -1.8907 -0.9000 -0.9362
  797MOL0     H 7554   8.964   2.087   3.086  1.1647  1.8716 -1.5322
  797MOL0     H 7555   9.130   1.979   3.061 -2.9105  1.0633 -1.7800
  797MOL0     H 7556   9.324   1.877   3.002  1.1754  0.1759 -1.3590
  797MOL0     H 7557   9.616   1.759   2.733 -0.9359  1.1652  0.8873
  797MOL0     H 7558   9.837   1.691   2.695  0.8137  0.1132  1.3349
  797MOL0     H 7559  10.053   1.468   3.000  1.3840  0.0793 -0.1818
  797MOL0     H 7560  10.023   1.342   2.899  0.7933 -0.3767  1.3789
  797MOL0     H 7561  10.212   1.412   2.750  0.1724  2.1237 -0.0042
  797MOL0     H 7562  10.241   1.553   2.843 -2.2282  0.6074  0.3622
  797MOL0     H 7563  10.301   1.394   3.047 -1.5966 -2.1983  0.5748
  797MOL0     H 7564  10.243   1.264   2.953 -1.1725  0.6310  5.0651
  797MOL0     H 7565  10.436   1.291   2.798 -0.8169 -1.0527 -0.7924
  797MOL0     H 7566  10.484   1.280   2.977 -1.8045  1.1378  1.6859
  797MOL0     H 7567  10.495   1.542   2.969 -0.1157  1.4577 -1.2467
  797MOL0     H 7568  10.490   1.527   2.794 -0.5786  0.4217  0.5648
  797MOL0     H 7569  10.727   1.441   2.966 -0.1141  0.5514  0.7611
  797MOL0     H 7570  10.691   1.363   2.810 -1.7788  2.0660 -2.5056
  797MOL0     H 7571  10.745   1.660   2.875  2.9824 -0.5615  1.0917
  797MOL0     H 7572  10.677   1.612   2.721 -1.1288 -0.1220  0.3827
  797MOL0     H 7573  10.881   1.453   2.723 -1.4913 -1.5346  1.6913
  797MOL0     H 7574  10.914   1.624   2.682  3.3488  1.1335  2.1286
  797MOL0     H 7575   9.844   1.430   3.017  0.9840 -0.8176 -0.6866
  797MOL0     H 7576   9.603   1.468   3.060  1.4567 -0.2107  0.8876
  797MOL0     H 7577   9.115   1.617   2.713  3.4441 -1.3661  1.4274
  797MOL0     H 7578   8.915   1.748   2.763 -0.0265 -0.8181 -0.2759
  797MOL0     H 7579   8.401   3.402   2.910 -1.6642  1.6856  1.4466
  797MOL0     H 7580   8.533   3.400   3.111  0.1558 -0.3874  0.6516
  797MOL0     H 7581   8.680   3.471   3.561  0.7292  1.5635  0.9363
  797MOL0     H 7582   8.805   3.412   3.766 -2.2219  1.0488 -0.9145
  797MOL0     H 7583   8.933   3.332   3.929 -1.5787 -0.3014 -4.4408
  797MOL0     H 7584   8.977   3.175   4.012 -0.8988 -0.6541  0.2156
  797MOL0     H 7585   8.732   3.124   4.009  1.6749 -0.4283 -1.8899
  797MOL0     H 7586   8.719   3.293   3.960  0.9067 -2.1257 -2.6512
  797MOL0     H 7587   8.697   3.328   4.186 -0.0499  0.0849  0.0420
  797MOL0     H 7588   8.870   3.326   4.193 -2.6370  1.7194  1.8962
  797MOL0     H 7589   8.760   3.165   4.351 -3.4632  1.0082 -0.0965
  797MOL0     H 7590   8.706   3.065   4.205  0.9048 -0.6294 -0.5780
  797MOL0     H 7591   9.125   2.994   4.281  1.0314  1.3276 -2.0248
  797MOL0     H 7592   8.842   3.013   3.636 -1.7846 -0.9286 -0.3385
  797MOL0     H 7593   8.628   2.968   3.419 -0.4756 -0.6876 -0.6409
  797MOL0     H 7594   8.729   3.060   3.298  5.1259  2.0541  0.6943
  797MOL0     H 7595   8.812   2.960   3.404  0.0147  1.5222 -0.0403
  798MOL0     O 7596   0.550   3.363   4.543  1.0896  0.1972 -0.7634
  798MOL0     C 7597   0.526   3.263   4.483  0.9034  1.0606  0.5652
  798MOL0     O 7598   0.408   3.196   4.466  0.1090  0.3350  0.2303
  798MOL0     C 7599   0.292   3.252   4.516 -0.0084  0.7374 -0.6141
  798MOL0     C 7600   0.175   3.272   4.442  0.0769 -0.7104  0.3112
  798MOL0     C 7601   0.061   3.326   4.506  0.2884 -0.2547 -0.1005
  798MOL0     C 7602   0.067   3.352   4.643  0.2243  0.0763  0.1306
  798MOL0     O 7603  -0.041   3.382   4.722  0.8745 -0.5974 -1.2813
  798MOL0     C 7604  -0.178   3.364   4.679 -0.9062  0.0868 -0.4943
  798MOL0     C 7605  -0.260   3.330   4.797 -0.4554 -0.2060 -0.3955
  798MOL0     C 7606  -0.396   3.268   4.744 -0.3499 -0.1553 -0.3080
  798MOL0     C 7607  -0.496   3.389   4.747  0.1074  0.1875  1.1810
  798MOL0     C 7608  -0.612   3.352   4.656 -0.7824  0.2841  0.4213
  798MOL0     C 7609  -0.700   3.241   4.732 -1.2660 -0.8248  0.2356
  798MOL0     C 7610  -0.819   3.204   4.644 -0.2971  0.0653 -0.3224
  798MOL0     C 7611  -0.878   3.066   4.661  0.9559  0.4311  0.0629
  798MOL0     N 7612  -0.952   3.049   4.786  0.3450 -0.4834 -0.0229
  798MOL0     C 7613  -0.902   3.083   4.905  0.0853  0.5502 -0.0889
  798MOL0     C 7614  -1.007   3.055   4.990  0.0358  0.4715 -0.2572
  798MOL0     C 7615  -0.997   3.055   5.135 -0.0165  0.3659 -1.3819
  798MOL0     C 7616  -0.903   3.160   5.195  0.8376  0.7046 -0.5103
  798MOL0     C 7617  -0.979   3.296   5.193 -0.6662 -0.0411 -0.2940
  798MOL0     C 7618  -0.903   3.403   5.270 -0.4470  0.0669 -0.4663
  798MOL0     O 7619  -0.775   3.418   5.202 -0.6778  0.0320  0.3247
  798MOL0     C 7620  -0.700   3.535   5.205 -0.0728  0.0864 -0.0727
  798MOL0     C 7621  -0.597   3.554   5.112  0.5007 -0.4804 -0.2301
  798MOL0     C 7622  -0.521   3.670   5.102 -0.4588  0.1530 -0.3493
  798MOL0     C 7623  -0.531   3.779   5.189 -0.7396 -0.5117  0.3756
  798MOL0     C 7624  -0.442   3.900   5.210  0.2581 -0.1601 -0.6641
  798MOL0     O 7625  -0.469   3.990   5.310  0.1311 -0.3985 -0.0401
  798MOL0     C 7626  -0.375   4.088   5.327 -0.1799  0.1411 -0.3953
  798MOL0     C 7627  -0.351   4.186   5.231 -0.1477  0.2311  0.7411
  798MOL0     C 7628  -0.272   4.293   5.263 -0.0604  0.1667  0.1380
  798MOL0     C 7629  -0.199   4.291   5.387  0.7244 -0.8873  0.2423
  798MOL0     O 7630  -0.130   4.415   5.404 -0.0290  0.3215  0.6028
  798MOL0     C 7631  -0.047   4.428   5.520  0.5213 -0.0282 -0.1462
  798MOL0     C 7632  -0.139   4.474   5.634  1.5951 -1.0382  0.2779
  798MOL0     C 7633  -0.067   4.468   5.767  0.2171  0.3376  0.0355
  798MOL0     C 7634   0.038   4.581   5.783  0.0009 -0.0021  0.3235
  798MOL0     C 7635   0.114   4.561   5.914 -0.3932 -0.8074 -0.3955
  798MOL0     C 7636   0.221   4.678   5.948  0.3134  0.0765  0.3439
  798MOL0     C 7637   0.331   4.692   5.838  0.0124  0.0459 -0.0804
  798MOL0     C 7638   0.405   4.561   5.823 -0.5710 -0.0539 -0.4609
  798MOL0    Cl 7639   0.341   4.441   5.706  0.3518  0.2767 -0.3186
  798MOL0     C 7640  -0.214   4.180   5.477 -0.4404  0.7374  0.0380
  798MOL0     C 7641  -0.300   4.085   5.443 -0.3439  0.5742  0.5718
  798MOL0     O 7642  -0.345   3.905   5.139 -0.4973  0.5785  0.9991
  798MOL0     C 7643  -0.641   3.770   5.286  0.1283 -0.9592  0.3381
  798MOL0     C 7644  -0.715   3.650   5.290 -0.0511 -0.3064 -0.2050
  798MOL0     N 7645  -1.106   2.990   4.922  0.1042 -0.5262  0.1289
  798MOL0     N 7646  -1.074   2.984   4.801  0.2464 -0.4533  0.1574
  798MOL0     C 7647   0.178   3.309   4.713 -0.4250 -0.1193  0.1496
  798MOL0     C 7648   0.288   3.262   4.651  0.3036 -0.4627  0.0919
  798MOL0     C 7649   0.633   3.185   4.414 -0.9192  1.0801  0.4520
  798MOL0     C 7650   0.599   3.117   4.293  0.3692 -0.0102  0.0603
  798MOL0     C 7651   0.699   3.047   4.223 -0.2461 -1.0407 -0.6657
  798MOL0     C 7652   0.835   3.032   4.262  0.4383 -0.7289 -0.2378
  798MOL0     O 7653   0.931   2.951   4.214 -0.1431  0.2564  0.1669
  798MOL0     C 7654   0.905   2.875   4.096  0.4705 -0.9488  0.1621
  798MOL0     C 7655   1.031   2.807   4.053 -0.6604 -0.4095 -0.7033
  798MOL0     C 7656   1.013   2.764   3.910  0.1267 -0.6308  0.2902
  798MOL0     C 7657   1.126   2.667   3.860  0.2169  0.5568  0.6596
  798MOL0     C 7658   1.070   2.586   3.751 -0.5723 -0.1290 -1.2335
  798MOL0     C 7659   1.039   2.517   3.657 -0.0337 -1.1675  0.0959
  798MOL0     C 7660   0.865   3.083   4.383 -0.5108  0.1905 -0.7111
  798MOL0     C 7661   0.772   3.163   4.455  1.2899 -0.3453 -0.2720
  798MOL0     C 7662   0.809   3.223   4.587  0.7446  0.0853  0.2788
  798MOL0     H 7663   0.174   3.259   4.334  0.1674  0.3149  0.1739
  798MOL0     H 7664  -0.028   3.357   4.451 -0.4582 -0.0100  1.1992
  798MOL0     H 7665  -0.209   3.457   4.629  0.9292  1.0774  0.0909
  798MOL0     H 7666  -0.186   3.284   4.605  3.7840 -3.3266  2.1486
  798MOL0     H 7667  -0.266   3.411   4.870 -0.1762  0.1872 -0.8012
  798MOL0     H 7668  -0.210   3.248   4.850 -1.8623  0.5982  2.3520
  798MOL0     H 7669  -0.424   3.188   4.812  0.4067 -1.2356 -1.2334
  798MOL0     H 7670  -0.385   3.225   4.644 -2.2816 -0.5153 -0.4014
  798MOL0     H 7671  -0.534   3.409   4.847 -3.1410  0.0018  0.0862
  798MOL0     H 7672  -0.442   3.473   4.702  0.6988 -1.2855 -1.0014
  798MOL0     H 7673  -0.680   3.435   4.634  1.1285  1.3564 -1.9956
  798MOL0     H 7674  -0.562   3.323   4.563 -1.2147  0.3850  0.1491
  798MOL0     H 7675  -0.626   3.163   4.754  2.8906  1.4471 -3.8173
  798MOL0     H 7676  -0.731   3.294   4.823  0.0897  0.8356 -0.2185
  798MOL0     H 7677  -0.795   3.222   4.539  1.1411  0.9096  0.1259
  798MOL0     H 7678  -0.893   3.282   4.666 -1.5495 -0.7057 -1.6066
  798MOL0     H 7679  -0.959   3.063   4.587  1.0219  4.6376 -0.4431
  798MOL0     H 7680  -0.811   2.983   4.637 -1.8741 -1.3195 -2.4941
  798MOL0     H 7681  -0.806   3.129   4.925  0.2390  0.0716  0.3157
  798MOL0     H 7682  -1.103   3.076   5.156  0.3457  2.1366 -1.1742
  798MOL0     H 7683  -0.957   2.960   5.171 -1.0773  1.4713  3.4398
  798MOL0     H 7684  -0.872   3.140   5.298 -3.0109  0.9857  0.8465
  798MOL0     H 7685  -0.807   3.154   5.142  0.9431  0.5956 -0.3051
  798MOL0     H 7686  -1.078   3.285   5.238 -0.2615 -2.4370  0.1329
  798MOL0     H 7687  -0.981   3.338   5.092  0.4691  1.3333  0.2191
  798MOL0     H 7688  -0.869   3.388   5.372 -1.7946 -3.9325 -0.4411
  798MOL0     H 7689  -0.955   3.499   5.268  0.8495  0.7880 -1.1291
  798MOL0     H 7690  -0.580   3.470   5.045 -0.7495  0.5217 -1.8700
  798MOL0     H 7691  -0.443   3.672   5.026  0.2802  1.7936  0.3937
  798MOL0     H 7692  -0.396   4.187   5.133 -1.2381  0.6821  1.2292
  798MOL0     H 7693  -0.251   4.376   5.196  1.7527  1.6248  2.3999
  798MOL0     H 7694  -0.009   4.330   5.549 -2.4655 -1.2776 -0.0821
  798MOL0     H 7695   0.029   4.505   5.503 -0.3723  0.7249 -0.8110
  798MOL0     H 7696  -0.188   4.571   5.619  0.4164 -1.2266  2.4892
  798MOL0     H 7697  -0.222   4.402   5.634 -1.9166  2.6733  0.5017
  798MOL0     H 7698  -0.144   4.475   5.845  0.9734  0.7546  0.7613
  798MOL0     H 7699  -0.010   4.376   5.784  0.7252  0.7149  0.4177
  798MOL0     H 7700  -0.012   4.678   5.785  3.1375  1.7578 -0.1960
  798MOL0     H 7701   0.111   4.578   5.701 -1.2760 -1.1368 -0.8229
  798MOL0     H 7702   0.169   4.467   5.924  3.3110  0.7672 -3.4420
  798MOL0     H 7703   0.042   4.547   5.996  1.2831  1.2199  1.5402
  798MOL0     H 7704   0.160   4.769   5.953 -4.4241 -2.7676  0.5179
  798MOL0     H 7705   0.255   4.655   6.050 -2.5153 -1.6581  1.0040
  798MOL0     H 7706   0.399   4.773   5.866 -0.0197  0.4125 -1.0518
  798MOL0     H 7707   0.293   4.716   5.738 -1.4710  0.1526  0.4739
  798MOL0     H 7708   0.502   4.588   5.782 -0.4147  0.2440  0.0959
  798MOL0     H 7709   0.427   4.502   5.913 -1.8423 -1.6473 -1.1415
  798MOL0     H 7710  -0.166   4.171   5.574  2.0266  0.2961 -1.1328
  798MOL0     H 7711  -0.306   4.001   5.511 -3.3935  2.2400  2.5905
  798MOL0     H 7712  -0.665   3.849   5.356  1.5457  0.2167 -0.4435
  798MOL0     H 7713  -0.805   3.642   5.350  0.2601 -0.7169  0.2059
  798MOL0     H 7714   0.166   3.314   4.821  3.5901 -0.2886  0.7391
  798MOL0     H 7715   0.374   3.230   4.709 -0.8202 -1.3973  1.2973
  798MOL0     H 7716   0.503   3.134   4.245 -1.0434 -0.3019  2.6561
  798MOL0     H 7717   0.681   3.003   4.125 -1.9078  4.2245 -3.0709
  798MOL0     H 7718   0.857   2.933   4.016 -1.0466 -2.2291  0.1000
  798MOL0     H 7719   0.826   2.810   4.134 -1.0009  2.2827  3.0825
  798MOL0     H 7720   1.050   2.732   4.130 -2.8238  0.0863  0.3745
  798MOL0     H 7721   1.110   2.882   4.058 -1.0283 -0.1076  1.9528
  798MOL0     H 7722   1.012   2.849   3.842  4.7688 -1.3412 -1.0166
  798MOL0     H 7723   0.916   2.717   3.893 -0.1099  0.2457 -0.9121
  798MOL0     H 7724   1.205   2.731   3.822  3.4210 -1.8533  2.7412
  798MOL0     H 7725   1.164   2.602   3.940  1.6284 -1.9467 -1.8628
  798MOL0     H 7726   1.017   2.468   3.564 -0.9257  1.2287 -1.0519
  798MOL0     H 7727   0.956   3.056   4.436 -0.9595 -1.6877 -0.8429
  798MOL0     H 7728   0.741   3.180   4.660  2.0860  0.8178  2.0327
  798MOL0     H 7729   0.911   3.189   4.609  0.5775  1.1796  3.2085
  798MOL0     H 7730   0.788   3.330   4.587  0.6443  0.3898 -5.4337
  799MOL0     O 7731  10.143   1.852  10.263 -0.5745  0.2059  0.1558
  799MOL0     C 7732  10.193   1.764  10.327  0.4276  0.0428  0.6732
  799MOL0     O 7733  10.307   1.697  10.282  1.2339 -0.1390 -0.7313
  799MOL0     C 7734  10.393   1.767  10.202  0.4739  0.3093  0.5762
  799MOL0     C 7735  10.489   1.856  10.259 -0.3748 -0.2758 -0.1604
  799MOL0     C 7736  10.595   1.901  10.176  0.3251  0.2963 -0.5564
  799MOL0     C 7737  10.593   1.876  10.035  0.5079  0.0969 -0.1545
  799MOL0     O 7738  10.686   1.920   9.941 -0.0585  0.8468 -0.5893
  799MOL0     C 7739  10.819   1.862   9.955  0.3273  0.0825 -0.4640
  799MOL0     C 7740  10.910   1.933   9.861 -0.2732 -0.1481  0.3079
  799MOL0     C 7741  11.054   1.904   9.855 -0.6729  0.9974  0.2321
  799MOL0     C 7742  11.130   1.977   9.740 -0.5169  0.5306  0.4316
  799MOL0     C 7743  11.157   2.126   9.774  0.6481 -0.2668  0.1052
  799MOL0     C 7744  11.236   2.205   9.672 -0.6648 -0.3806 -0.4362
  799MOL0     C 7745  11.380   2.156   9.645 -0.2708 -0.5414  0.1964
  799MOL0     C 7746  11.467   2.171   9.771 -0.1407  0.2090  0.7494
  799MOL0     N 7747  11.600   2.230   9.758  0.0246 -0.2270  0.4072
  799MOL0     C 7748  11.714   2.152   9.737 -0.1483 -0.7223 -0.2976
  799MOL0     C 7749  11.816   2.244   9.729 -0.6629 -0.0855 -0.2151
  799MOL0     C 7750  11.961   2.202   9.699 -0.3397 -0.0733  0.0716
  799MOL0     C 7751  11.981   2.156   9.555  0.6603 -0.3760  0.0056
  799MOL0     C 7752  12.115   2.167   9.488 -0.8129 -0.4166  0.1282
  799MOL0     C 7753  12.226   2.068   9.545  0.2998  0.3899  0.4411
  799MOL0     O 7754  12.312   2.032   9.436 -0.9966 -0.1514  0.3646
  799MOL0     C 7755  12.416   2.106   9.388 -0.4026 -0.5337 -0.0204
  799MOL0     C 7756  12.466   2.069   9.263  1.5012 -0.2297 -0.0662
  799MOL0     C 7757  12.576   2.138   9.216 -0.0027 -0.3052  0.6515
  799MOL0     C 7758  12.647   2.242   9.277  0.1056 -0.0564  0.1351
  799MOL0     C 7759  12.758   2.320   9.209 -0.2747  1.0644  0.5724
  799MOL0     O 7760  12.850   2.376   9.301 -0.6599  0.2894  0.3808
  799MOL0     C 7761  12.949   2.455   9.252 -0.1468 -0.1730  0.1620
  799MOL0     C 7762  13.056   2.401   9.181 -0.2607 -0.9860 -0.0257
  799MOL0     C 7763  13.159   2.490   9.134  0.0339 -0.0606  0.5008
  799MOL0     C 7764  13.160   2.626   9.175 -0.3729  0.2314  0.2196
  799MOL0     O 7765  13.268   2.698   9.125  0.3736  0.7964 -0.0590
  799MOL0     C 7766  13.281   2.844   9.129  0.0475 -0.1624 -0.2891
  799MOL0     C 7767  13.170   2.926   9.061 -0.1861  0.3409 -0.3942
  799MOL0     C 7768  13.200   3.074   9.085  0.7679  0.8329 -0.3031
  799MOL0     C 7769  13.093   3.168   9.033  0.2228  0.0537 -0.1825
  799MOL0     C 7770  13.059   3.165   8.883  0.4826  0.2011 -0.6563
  799MOL0     C 7771  12.965   3.276   8.847  0.4547 -0.0203  0.7247
  799MOL0     C 7772  12.815   3.238   8.889  0.5805 -0.6627  0.5892
  799MOL0     C 7773  12.713   3.328   8.822 -0.9494 -0.2262 -0.5746
  799MOL0    Cl 7774  12.694   3.461   8.937  0.3583 -0.4841  0.0096
  799MOL0     C 7775  13.057   2.674   9.264 -0.1349 -0.2709  0.7191
  799MOL0     C 7776  12.962   2.584   9.305  0.9941 -0.8856 -0.7885
  799MOL0     O 7777  12.769   2.323   9.084 -0.2641  0.8720  0.1985
  799MOL0     C 7778  12.603   2.267   9.408 -0.5684 -0.3741 -0.0786
  799MOL0     C 7779  12.486   2.201   9.460 -0.1496  0.6063 -0.4186
  799MOL0     N 7780  11.766   2.377   9.738  0.5306  0.4658  0.3899
  799MOL0     N 7781  11.636   2.365   9.768  0.4716 -0.2046  0.3836
  799MOL0     C 7782  10.496   1.796   9.985 -0.1387 -0.4614  0.3922
  799MOL0     C 7783  10.397   1.739  10.068 -0.7967  0.1621  1.0029
  799MOL0     C 7784  10.115   1.685  10.425 -0.5600 -0.7552  0.9931
  799MOL0     C 7785  10.128   1.546  10.439 -0.1777  0.5976  0.1658
  799MOL0     C 7786  10.053   1.475  10.534  0.1081 -0.2327  0.1941
  799MOL0     C 7787   9.960   1.538  10.605  0.6890 -0.1803 -0.2387
  799MOL0     O 7788   9.897   1.467  10.704 -0.6474 -0.4500 -0.0902
  799MOL0     C 7789   9.758   1.471  10.702 -0.4855 -0.1301  0.2093
  799MOL0     C 7790   9.705   1.409  10.830  0.2395 -0.1692  0.7760
  799MOL0     C 7791   9.691   1.255  10.802 -1.0038 -0.3043 -0.2913
  799MOL0     C 7792   9.657   1.180  10.925  0.6201  0.1411 -0.8152
  799MOL0     C 7793   9.532   1.215  10.990  0.5031 -1.8803 -1.2926
  799MOL0     C 7794   9.429   1.242  11.055  0.2736  0.3364  0.7215
  799MOL0     C 7795   9.945   1.678  10.600 -0.0212 -1.2173  0.8517
  799MOL0     C 7796  10.020   1.751  10.512  0.1601 -0.4698 -0.1835
  799MOL0     C 7797   9.999   1.898  10.511 -0.7742 -0.3646  0.6241
  799MOL0     H 7798  10.491   1.869  10.367  1.9789 -0.0905 -0.1699
  799MOL0     H 7799  10.669   1.972  10.214 -0.8370  1.2117  0.0528
  799MOL0     H 7800  10.861   1.891  10.052 -0.5227 -1.5191  0.4236
  799MOL0     H 7801  10.828   1.754   9.937 -3.0880 -0.4150  0.0918
  799MOL0     H 7802  10.908   2.043   9.866  1.1524  0.2596 -3.9863
  799MOL0     H 7803  10.876   1.910   9.760  1.9009 -1.8709 -0.1132
  799MOL0     H 7804  11.075   1.801   9.825  1.9296  1.3885  0.4617
  799MOL0     H 7805  11.102   1.941   9.946 -0.8504 -1.7521  1.5549
  799MOL0     H 7806  11.229   1.936   9.719 -1.0004 -0.3249 -0.2088
  799MOL0     H 7807  11.089   1.969   9.639  2.3600  1.7665 -0.9415
  799MOL0     H 7808  11.065   2.181   9.798  1.6059  0.1845  3.2700
  799MOL0     H 7809  11.210   2.124   9.870  0.3689 -0.8249  0.2472
  799MOL0     H 7810  11.175   2.226   9.584  2.4742  1.4744 -2.3330
  799MOL0     H 7811  11.247   2.301   9.722  0.0493 -0.5157 -0.3272
  799MOL0     H 7812  11.421   2.221   9.567 -2.7325 -1.0075 -1.5845
  799MOL0     H 7813  11.370   2.056   9.604 -0.5825 -0.0246 -1.0288
  799MOL0     H 7814  11.408   2.233   9.839 -0.4529  1.5187 -0.6738
  799MOL0     H 7815  11.486   2.073   9.816  0.9696  1.1179  2.3948
  799MOL0     H 7816  11.725   2.045   9.721  1.9824 -0.3472 -1.7036
  799MOL0     H 7817  12.022   2.293   9.702 -1.3999  0.6251  1.5084
  799MOL0     H 7818  12.004   2.129   9.768 -0.0416 -1.2930 -1.3436
  799MOL0     H 7819  11.948   2.053   9.543 -1.1066  0.1940 -0.3097
  799MOL0     H 7820  11.906   2.214   9.501 -1.0406  0.2526  2.8636
  799MOL0     H 7821  12.162   2.266   9.484 -2.5688  0.5573  1.9362
  799MOL0     H 7822  12.086   2.141   9.386 -0.9919  1.3677 -0.3186
  799MOL0     H 7823  12.172   1.978   9.575  0.7116 -0.6768 -1.8014
  799MOL0     H 7824  12.290   2.103   9.627 -0.3540  0.0746  1.0948
  799MOL0     H 7825  12.422   1.990   9.203 -0.5895  0.9291 -0.1479
  799MOL0     H 7826  12.615   2.110   9.119 -1.0102  0.1153  0.1140
  799MOL0     H 7827  13.058   2.305   9.131  2.0789 -0.9741 -0.0704
  799MOL0     H 7828  13.243   2.464   9.071  0.8352  2.3219  0.5257
  799MOL0     H 7829  13.279   2.875   9.234 -1.6452  2.4173 -1.0004
  799MOL0     H 7830  13.374   2.871   9.079 -0.6836  0.6001 -1.2792
  799MOL0     H 7831  13.176   2.898   8.956  1.3301  0.9790 -0.4966
  799MOL0     H 7832  13.071   2.914   9.106  0.2603 -1.6918  0.1407
  799MOL0     H 7833  13.215   3.086   9.193 -0.5923  1.7430 -0.1961
  799MOL0     H 7834  13.297   3.105   9.045  1.0306  1.4080  0.7390
  799MOL0     H 7835  13.121   3.273   9.048 -0.4677  0.4528 -1.5168
  799MOL0     H 7836  13.003   3.165   9.096 -1.7138 -0.1326 -2.7945
  799MOL0     H 7837  13.006   3.072   8.867  1.2216 -0.1740 -0.9621
  799MOL0     H 7838  13.143   3.159   8.813  2.0151  0.6207  1.0302
  799MOL0     H 7839  12.988   3.376   8.885 -0.7634  0.1159  1.1471
  799MOL0     H 7840  12.966   3.272   8.738 -2.0135 -0.6271  0.6596
  799MOL0     H 7841  12.814   3.249   8.997  1.9618  0.3443  0.5151
  799MOL0     H 7842  12.791   3.133   8.868  0.3903 -1.0350  2.4915
  799MOL0     H 7843  12.759   3.359   8.727  0.7593  1.1619  0.6327
  799MOL0     H 7844  12.623   3.268   8.807 -1.4599  0.2590  0.4901
  799MOL0     H 7845  13.059   2.779   9.291  2.0180 -0.8307  3.1191
  799MOL0     H 7846  12.882   2.619   9.369  0.2006 -1.1153 -1.6371
  799MOL0     H 7847  12.655   2.349   9.455  1.8092 -1.7402 -0.1844
  799MOL0     H 7848  12.451   2.213   9.562  1.0168  4.6495 -0.3500
  799MOL0     H 7849  10.478   1.768   9.882 -0.8501  1.4131 -0.0355
  799MOL0     H 7850  10.326   1.665  10.034 -0.7333  0.6264 -0.2002
  799MOL0     H 7851  10.193   1.494  10.368 -1.0852 -2.5353  1.4640
  799MOL0     H 7852  10.076   1.369  10.542  0.3433 -0.2446 -0.5643
  799MOL0     H 7853   9.728   1.420  10.611  1.8032  1.0883 -1.3275
  799MOL0     H 7854   9.714   1.571  10.695 -1.9572 -0.8348 -1.2841
  799MOL0     H 7855   9.605   1.447  10.855 -0.4147 -0.6597 -0.9448
  799MOL0     H 7856   9.766   1.432  10.918 -0.5264 -2.7068  2.0586
  799MOL0     H 7857   9.789   1.220  10.770  0.8658  2.4815  1.8427
  799MOL0     H 7858   9.620   1.249  10.718  0.5281 -0.6379 -1.6115
  799MOL0     H 7859   9.646   1.077  10.890  2.1368 -0.6987  1.0276
  799MOL0     H 7860   9.743   1.187  10.991  2.1497  0.2272 -2.7160
  799MOL0     H 7861   9.349   1.278  11.117  1.3929  0.0151  2.4231
  799MOL0     H 7862   9.868   1.736  10.651 -0.9016 -0.4621 -1.2052
  799MOL0     H 7863   9.951   1.940  10.422  1.5549  2.1208  0.4163
  799MOL0     H 7864   9.937   1.937  10.592  0.8744  3.0338  0.4336
  799MOL0     H 7865  10.088   1.959  10.525 -1.6645  1.5507 -1.4005
  800MOL0     O 7866   0.500   4.513   1.746  0.6349 -0.3185  0.2813
  800MOL0     C 7867   0.547   4.410   1.782 -0.8924 -0.1202  0.0604
  800MOL0     O 7868   0.516   4.291   1.738 -0.3224  0.1641  0.1934
  800MOL0     C 7869   0.421   4.282   1.644  0.1572  0.0478 -0.0594
  800MOL0     C 7870   0.467   4.242   1.519  0.4153 -0.0523  0.3035
  800MOL0     C 7871   0.372   4.241   1.406 -0.6658  0.8905 -0.7619
  800MOL0     C 7872   0.246   4.283   1.422 -0.0033  0.2733 -0.0497
  800MOL0     O 7873   0.149   4.288   1.321 -0.8158 -0.1476 -0.7759
  800MOL0     C 7874   0.190   4.263   1.187  0.2318  0.5322 -0.4285
  800MOL0     C 7875   0.068   4.259   1.094 -0.5037  0.7352  0.0584
  800MOL0     C 7876   0.013   4.406   1.073  0.6842 -0.2743 -0.2427
  800MOL0     C 7877  -0.086   4.417   0.953 -0.2908 -0.6541 -0.6533
  800MOL0     C 7878  -0.114   4.574   0.928 -0.2042  0.7286  0.2992
  800MOL0     C 7879  -0.231   4.627   1.009 -0.2971 -0.4131 -0.4577
  800MOL0     C 7880  -0.269   4.767   0.955  0.5025 -0.2414  0.0169
  800MOL0     C 7881  -0.374   4.835   1.047  0.4784 -1.1187 -0.0043
  800MOL0     N 7882  -0.410   4.969   0.996  0.7449  0.4383  0.0980
  800MOL0     C 7883  -0.521   5.000   0.922  0.1341 -0.0076 -0.4977
  800MOL0     C 7884  -0.500   5.126   0.888 -0.0091 -0.4700 -0.3748
  800MOL0     C 7885  -0.597   5.218   0.815 -0.3538 -0.3133 -0.3607
  800MOL0     C 7886  -0.545   5.270   0.674  0.0018  0.0501 -1.1139
  800MOL0     C 7887  -0.408   5.342   0.678 -0.7778  0.7614 -0.1070
  800MOL0     C 7888  -0.384   5.450   0.778  0.0236  0.3335  0.4607
  800MOL0     O 7889  -0.495   5.540   0.764 -0.1317  0.0503 -0.3636
  800MOL0     C 7890  -0.516   5.638   0.858 -0.3389  0.9999  0.8355
  800MOL0     C 7891  -0.421   5.674   0.950 -0.6666 -0.5475  0.5349
  800MOL0     C 7892  -0.452   5.771   1.050 -0.1368  0.7711  0.4562
  800MOL0     C 7893  -0.569   5.842   1.036 -0.8113 -0.7612  0.3073
  800MOL0     C 7894  -0.586   5.956   1.120  0.8401 -0.3827 -1.0928
  800MOL0     O 7895  -0.553   5.952   1.248 -0.1771  0.4276 -0.4386
  800MOL0     C 7896  -0.516   6.074   1.301 -0.5418 -0.1489  0.0091
  800MOL0     C 7897  -0.397   6.079   1.362 -0.0092 -0.0011  0.3163
  800MOL0     C 7898  -0.351   6.193   1.430 -0.8464  0.4549  0.4438
  800MOL0     C 7899  -0.432   6.310   1.437 -0.5527  0.6508 -0.4566
  800MOL0     O 7900  -0.402   6.441   1.498 -0.2640 -0.0665  0.1674
  800MOL0     C 7901  -0.258   6.464   1.508  0.5118  0.5387 -0.2984
  800MOL0     C 7902  -0.215   6.597   1.567  0.1248  0.6838 -0.1890
  800MOL0     C 7903  -0.275   6.708   1.479 -0.2170  0.7971  0.2560
  800MOL0     C 7904  -0.166   6.798   1.417 -0.6834 -0.7480  0.6279
  800MOL0     C 7905  -0.219   6.885   1.302  0.5806  0.4945 -0.1743
  800MOL0     C 7906  -0.113   6.981   1.242 -0.1942 -0.1436  0.8076
  800MOL0     C 7907  -0.186   7.092   1.156 -0.0269  0.5417  0.4239
  800MOL0     C 7908  -0.086   7.208   1.135 -0.3104 -0.2683 -0.1624
  800MOL0    Cl 7909  -0.144   7.325   1.009 -0.3528 -0.0713  0.6052
  800MOL0     C 7910  -0.560   6.301   1.386  0.9535 -0.8059 -0.2886
  800MOL0     C 7911  -0.600   6.184   1.317  0.2382  0.0262  0.0458
  800MOL0     O 7912  -0.624   6.056   1.055  0.4018 -0.5680 -0.2491
  800MOL0     C 7913  -0.656   5.821   0.933 -0.2447 -0.9943  0.1621
  800MOL0     C 7914  -0.636   5.709   0.851  0.2263 -0.0374 -0.5505
  800MOL0     N 7915  -0.380   5.172   0.942 -0.3924 -0.6575  0.6428
  800MOL0     N 7916  -0.333   5.080   1.012 -1.1754  0.4142  0.2951
  800MOL0     C 7917   0.206   4.331   1.547 -0.0462 -0.5501  1.0956
  800MOL0     C 7918   0.287   4.337   1.654  0.3209 -0.5730 -1.4284
  800MOL0     C 7919   0.657   4.405   1.888 -0.2075 -0.3161  0.5881
  800MOL0     C 7920   0.688   4.288   1.957 -0.7059  0.5569  0.1427
  800MOL0     C 7921   0.799   4.272   2.034 -0.0310  0.5715  0.2910
  800MOL0     C 7922   0.874   4.386   2.083  1.5220 -0.8166 -1.0194
  800MOL0     O 7923   0.966   4.345   2.169 -0.4770 -0.9259 -0.1263
  800MOL0     C 7924   1.000   4.439   2.277 -0.2936 -0.2046 -0.0057
  800MOL0     C 7925   1.131   4.499   2.240  0.3220  0.7118  0.5337
  800MOL0     C 7926   1.195   4.570   2.358 -0.4810  0.4624  0.2021
  800MOL0     C 7927   1.122   4.685   2.407  0.2494 -0.0764 -0.3843
  800MOL0     C 7928   1.015   4.655   2.503 -0.5086  0.4246 -0.4707
  800MOL0     C 7929   0.946   4.630   2.595 -0.1709 -0.4879 -0.6188
  800MOL0     C 7930   0.838   4.511   2.029 -0.6216 -0.6782  1.0050
  800MOL0     C 7931   0.730   4.523   1.929  0.2112  0.4592 -0.4138
  800MOL0     C 7932   0.703   4.664   1.877 -1.0931  0.1910 -0.0283
  800MOL0     H 7933   0.568   4.215   1.490  1.1397 -0.7027  3.1732
  800MOL0     H 7934   0.410   4.216   1.307  0.1276  3.0826 -1.0591
  800MOL0     H 7935   0.257   4.340   1.148  2.1115 -0.8472 -0.0408
  800MOL0     H 7936   0.238   4.165   1.176 -0.7216  0.3524 -4.8909
  800MOL0     H 7937   0.001   4.192   1.149  0.2776 -0.9498 -0.9491
  800MOL0     H 7938   0.100   4.214   1.000  0.4476 -0.1762  0.7879
  800MOL0     H 7939   0.093   4.478   1.055 -0.0721  0.7584  0.4539
  800MOL0     H 7940  -0.038   4.432   1.167 -0.3845 -1.1847 -0.5495
  800MOL0     H 7941  -0.043   4.376   0.861 -2.6817 -2.7579 -0.9290
  800MOL0     H 7942  -0.179   4.369   0.985 -1.3025  2.0166  0.7462
  800MOL0     H 7943  -0.020   4.628   0.945  2.4174 -2.5736 -2.1425
  800MOL0     H 7944  -0.134   4.597   0.823 -0.0131  1.6364  0.4602
  800MOL0     H 7945  -0.317   4.560   1.008 -0.0628 -1.0537  3.4677
  800MOL0     H 7946  -0.198   4.625   1.114  0.9854 -1.2410 -0.8436
  800MOL0     H 7947  -0.326   4.767   0.862 -2.4016  1.2687  1.6173
  800MOL0     H 7948  -0.177   4.824   0.948  1.3790 -1.4847  0.9196
  800MOL0     H 7949  -0.467   4.777   1.051  0.6096 -1.2764  1.4811
  800MOL0     H 7950  -0.339   4.843   1.151  3.9278 -2.5881 -0.9326
  800MOL0     H 7951  -0.598   4.932   0.888  1.2108  0.2873 -3.8996
  800MOL0     H 7952  -0.692   5.165   0.808  0.5767 -1.8501 -2.1599
  800MOL0     H 7953  -0.606   5.311   0.872 -0.6379  1.4196 -3.0643
  800MOL0     H 7954  -0.529   5.185   0.607 -0.9481 -0.5616 -0.5944
  800MOL0     H 7955  -0.629   5.332   0.644 -2.2049 -2.2785 -0.1358
  800MOL0     H 7956  -0.391   5.381   0.577  0.9595 -1.6401 -0.8450
  800MOL0     H 7957  -0.329   5.267   0.688 -1.0451  0.7237  2.1791
  800MOL0     H 7958  -0.289   5.502   0.764 -0.1182  0.1727 -1.5119
  800MOL0     H 7959  -0.393   5.412   0.880 -0.7576 -2.0308 -0.4076
  800MOL0     H 7960  -0.317   5.642   0.952 -0.1742  0.9734  1.6804
  800MOL0     H 7961  -0.373   5.802   1.117 -0.5731  2.3852  0.2726
  800MOL0     H 7962  -0.328   5.996   1.347 -0.8804 -0.6002 -0.4613
  800MOL0     H 7963  -0.255   6.179   1.477 -0.1880 -1.2324 -1.2578
  800MOL0     H 7964  -0.219   6.382   1.569 -2.0920 -1.7639 -1.5169
  800MOL0     H 7965  -0.218   6.462   1.406 -0.6545 -0.1946 -0.7540
  800MOL0     H 7966  -0.270   6.592   1.662 -1.9022 -2.1263 -1.3771
  800MOL0     H 7967  -0.108   6.609   1.585 -0.1207  2.4690  0.2868
  800MOL0     H 7968  -0.336   6.665   1.399  0.4427  0.7671 -0.2413
  800MOL0     H 7969  -0.351   6.774   1.521 -0.7308  1.1190 -1.1200
  800MOL0     H 7970  -0.081   6.739   1.382  1.9418  3.4185 -0.7867
  800MOL0     H 7971  -0.118   6.869   1.485  2.8573 -0.3887 -1.9700
  800MOL0     H 7972  -0.309   6.938   1.334 -0.4098 -1.3860  0.3055
  800MOL0     H 7973  -0.234   6.815   1.219 -3.1840 -0.6057  1.2248
  800MOL0     H 7974  -0.067   7.020   1.333 -3.3619  1.7627  1.7282
  800MOL0     H 7975  -0.027   6.932   1.195  2.4308  0.4796  4.5466
  800MOL0     H 7976  -0.274   7.123   1.214  0.6192  1.1569  1.0824
  800MOL0     H 7977  -0.207   7.059   1.053  3.2149  2.3425 -0.9489
  800MOL0     H 7978  -0.083   7.268   1.227 -1.4521  1.6911 -1.3408
  800MOL0     H 7979   0.012   7.174   1.103  0.2663  1.2008 -0.0548
  800MOL0     H 7980  -0.612   6.396   1.388  2.5882  0.1768 -1.9593
  800MOL0     H 7981  -0.693   6.170   1.262  1.4557  1.0837 -2.4099
  800MOL0     H 7982  -0.743   5.885   0.927  0.5795  0.0847 -0.7073
  800MOL0     H 7983  -0.715   5.698   0.778  1.4309  2.0139 -2.2800
  800MOL0     H 7984   0.118   4.394   1.553  0.1972  0.0430 -0.9650
  800MOL0     H 7985   0.264   4.395   1.744  5.0482  3.2298 -2.2427
  800MOL0     H 7986   0.635   4.198   1.928  2.4896 -0.7704 -2.1583
  800MOL0     H 7987   0.829   4.174   2.070 -3.4759 -0.1612  1.5527
  800MOL0     H 7988   1.015   4.392   2.374  1.2896  0.6285  0.1856
  800MOL0     H 7989   0.928   4.520   2.284 -0.9532 -0.9250  3.5627
  800MOL0     H 7990   1.109   4.572   2.161 -2.0347  0.3576  0.7851
  800MOL0     H 7991   1.201   4.423   2.203  0.1138 -0.1838  1.9028
  800MOL0     H 7992   1.292   4.600   2.318  0.5380 -0.4661  1.8465
  800MOL0     H 7993   1.212   4.497   2.438  0.8634 -2.5494 -2.6089
  800MOL0     H 7994   1.187   4.767   2.438  0.2150 -0.5946  1.0964
  800MOL0     H 7995   1.060   4.723   2.325  1.3332 -0.8955 -1.6178
  800MOL0     H 7996   0.867   4.629   2.667  1.5897  2.1026  1.5065
  800MOL0     H 7997   0.899   4.600   2.041 -2.7431  0.6744  2.5191
  800MOL0     H 7998   0.705   4.673   1.768 -1.5551  2.3824  0.1097
  800MOL0     H 7999   0.619   4.715   1.924 -2.0378 -0.0382 -1.4134
  800MOL0     H 8000   0.786   4.728   1.907 -2.9544  2.7829 -0.0621
  801MOL0     O 8001   5.725   5.868   1.885  0.3060 -0.1672  0.5207
  801MOL0     C 8002   5.695   5.832   1.772  0.8141  0.2099  0.1576
  801MOL0     O 8003   5.563   5.806   1.734 -0.9188 -0.5797  0.0275
  801MOL0     C 8004   5.469   5.821   1.823 -0.0248 -0.0958 -0.8797
  801MOL0     C 8005   5.424   5.941   1.872 -0.2781  1.0431  0.7620
  801MOL0     C 8006   5.325   5.949   1.968  0.1483  0.4362  0.4076
  801MOL0     C 8007   5.261   5.839   2.017  1.0786  0.8945 -0.3194
  801MOL0     O 8008   5.182   5.848   2.123  0.3630  0.9825  0.2431
  801MOL0     C 8009   5.088   5.738   2.154  0.5533 -0.0950 -0.3690
  801MOL0     C 8010   4.983   5.789   2.255  0.6668  0.2139  0.3496
  801MOL0     C 8011   4.855   5.836   2.186 -0.7447  0.1522 -0.2469
  801MOL0     C 8012   4.888   5.949   2.084 -0.2716  0.5676 -0.0419
  801MOL0     C 8013   4.777   6.050   2.064 -0.1741 -0.2247 -0.0734
  801MOL0     C 8014   4.824   6.158   1.963  0.3572  0.7090 -0.0812
  801MOL0     C 8015   4.743   6.280   1.993  0.6792 -0.5689  0.2850
  801MOL0     C 8016   4.589   6.268   1.980  0.4233 -1.1496  0.2976
  801MOL0     N 8017   4.531   6.412   1.981  0.0615 -0.1879 -0.4092
  801MOL0     C 8018   4.532   6.486   2.093  0.3233 -0.2301 -0.3384
  801MOL0     C 8019   4.501   6.615   2.056 -0.6562  1.2025  0.8117
  801MOL0     C 8020   4.469   6.717   2.147  1.1722  1.3964 -0.8416
  801MOL0     C 8021   4.512   6.854   2.098 -0.9132  0.5141  0.0913
  801MOL0     C 8022   4.667   6.856   2.104 -0.1801 -0.7289 -0.5252
  801MOL0     C 8023   4.713   6.985   2.035  1.0405 -0.1974 -0.7470
  801MOL0     O 8024   4.860   6.975   2.037  0.6764 -0.0295 -0.1141
  801MOL0     C 8025   4.938   7.078   1.989 -0.7857 -0.0506 -0.1271
  801MOL0     C 8026   5.065   7.047   1.943 -0.4284  0.1170  0.7449
  801MOL0     C 8027   5.159   7.143   1.904 -0.2448 -0.8166  0.0538
  801MOL0     C 8028   5.114   7.285   1.894  0.8948 -0.1662  0.4203
  801MOL0     C 8029   5.202   7.393   1.841  1.2004  0.0114  0.7280
  801MOL0     O 8030   5.330   7.357   1.798 -0.1452 -0.2597 -0.7295
  801MOL0     C 8031   5.407   7.455   1.746 -0.6363 -0.0501 -0.1279
  801MOL0     C 8032   5.470   7.550   1.826 -0.5068 -0.6925 -0.1756
  801MOL0     C 8033   5.565   7.642   1.776  0.4342  0.5674  0.6742
  801MOL0     C 8034   5.612   7.620   1.646 -0.5514 -0.0731 -0.3906
  801MOL0     O 8035   5.717   7.695   1.589  0.2400 -0.1034 -0.6043
  801MOL0     C 8036   5.804   7.777   1.674 -0.4045  0.0222 -0.9619
  801MOL0     C 8037   5.924   7.819   1.596  0.6630 -0.9490 -0.4025
  801MOL0     C 8038   6.039   7.723   1.585 -0.6075 -0.6226  0.7744
  801MOL0     C 8039   6.153   7.784   1.497  1.2365  0.1343 -0.2748
  801MOL0     C 8040   6.253   7.677   1.470 -1.1173  0.0622  0.3138
  801MOL0     C 8041   6.343   7.638   1.592  0.0402 -0.0389 -0.2649
  801MOL0     C 8042   6.415   7.758   1.651 -1.1913 -0.6305  0.3026
  801MOL0     C 8043   6.505   7.846   1.556 -0.2575 -0.1941 -0.3629
  801MOL0    Cl 8044   6.678   7.802   1.557  0.0263 -0.4343  0.5439
  801MOL0     C 8045   5.553   7.526   1.565  0.8701  0.0126 -0.8874
  801MOL0     C 8046   5.447   7.450   1.614  0.7517  0.5245 -0.1848
  801MOL0     O 8047   5.163   7.512   1.852 -0.2237 -0.6109  0.8553
  801MOL0     C 8048   4.989   7.314   1.946  0.2832 -1.2317 -0.2959
  801MOL0     C 8049   4.896   7.214   1.990 -0.3488 -0.3733 -0.4843
  801MOL0     N 8050   4.456   6.606   1.930  0.0812  0.0737  0.6895
  801MOL0     N 8051   4.476   6.482   1.877  0.3190 -0.5743  0.2525
  801MOL0     C 8052   5.288   5.721   1.948 -0.9401  0.0794 -0.7022
  801MOL0     C 8053   5.399   5.705   1.871 -0.5565  0.0147  0.3951
  801MOL0     C 8054   5.791   5.829   1.658  0.3170  0.9039 -0.0673
  801MOL0     C 8055   5.747   5.776   1.537 -0.8364  0.2877  0.5899
  801MOL0     C 8056   5.826   5.753   1.421  0.4132 -0.4071 -0.1072
  801MOL0     C 8057   5.962   5.771   1.429  0.8116  0.5093  0.4374
  801MOL0     O 8058   6.053   5.761   1.327  0.5931  0.2758  0.5803
  801MOL0     C 8059   6.045   5.658   1.224 -0.5367 -0.1477 -0.2725
  801MOL0     C 8060   6.169   5.560   1.233  0.7844  0.2959  0.3395
  801MOL0     C 8061   6.297   5.628   1.191  0.4997 -0.2149  0.0212
  801MOL0     C 8062   6.402   5.514   1.178  0.0829 -0.2448  0.1354
  801MOL0     C 8063   6.520   5.579   1.118 -1.1108 -0.6971 -0.7511
  801MOL0     C 8064   6.626   5.629   1.075  0.6116 -0.7624 -0.0014
  801MOL0     C 8065   6.008   5.823   1.549 -0.5906 -0.6241 -0.3306
  801MOL0     C 8066   5.934   5.848   1.664 -0.2164  0.7060 -0.2479
  801MOL0     C 8067   6.005   5.908   1.780  0.4995 -0.3081  0.4716
  801MOL0     H 8068   5.470   6.032   1.833  0.8927 -0.0813 -0.5606
  801MOL0     H 8069   5.308   6.044   2.017 -0.2880  1.5025 -1.6906
  801MOL0     H 8070   5.057   5.701   2.056  0.7369 -4.3745  0.9970
  801MOL0     H 8071   5.143   5.654   2.198 -0.7660 -1.1830 -0.7340
  801MOL0     H 8072   5.017   5.879   2.308 -0.3529  1.3881 -0.9248
  801MOL0     H 8073   4.965   5.712   2.331 -1.6298 -0.8172 -1.1520
  801MOL0     H 8074   4.786   5.871   2.263  1.3435  0.4760  1.5678
  801MOL0     H 8075   4.811   5.755   2.126  2.2937 -0.8030 -1.3877
  801MOL0     H 8076   4.978   5.997   2.123 -0.3680  1.6786 -1.1421
  801MOL0     H 8077   4.914   5.907   1.987 -1.9115 -2.6184  0.7584
  801MOL0     H 8078   4.679   6.010   2.037 -0.1268 -0.6421  0.3655
  801MOL0     H 8079   4.768   6.104   2.159  1.7628  2.4709 -1.3058
  801MOL0     H 8080   4.929   6.177   1.986  0.5266  0.5277 -0.6932
  801MOL0     H 8081   4.823   6.112   1.864  2.0706  0.3182  0.0546
  801MOL0     H 8082   4.778   6.360   1.927 -1.2075 -0.0146 -0.1003
  801MOL0     H 8083   4.766   6.322   2.092  4.5828  0.7847 -1.0044
  801MOL0     H 8084   4.559   6.224   1.884  2.6717 -4.1983  0.8446
  801MOL0     H 8085   4.551   6.202   2.058 -1.2875  1.0964  1.5053
  801MOL0     H 8086   4.565   6.465   2.195 -2.3041  0.9426  0.8530
  801MOL0     H 8087   4.360   6.717   2.159  1.0085  2.0723 -2.1587
  801MOL0     H 8088   4.516   6.698   2.244 -0.6408  1.4481  0.0795
  801MOL0     H 8089   4.478   6.860   1.994  0.0843  1.8183 -0.2048
  801MOL0     H 8090   4.450   6.924   2.155 -1.9104 -1.9914  2.2653
  801MOL0     H 8091   4.719   6.777   2.049 -0.1679  0.0717 -1.7060
  801MOL0     H 8092   4.701   6.872   2.207  0.1830  1.2070 -0.9016
  801MOL0     H 8093   4.681   7.080   2.078 -3.6225 -0.6298 -2.6469
  801MOL0     H 8094   4.674   7.003   1.934  1.0634  2.6517 -0.3247
  801MOL0     H 8095   5.111   6.949   1.940  0.5777  0.5952 -1.2802
  801MOL0     H 8096   5.259   7.120   1.868 -0.4747 -3.4894  0.8713
  801MOL0     H 8097   5.434   7.565   1.928 -0.7783 -3.2353  0.1619
  801MOL0     H 8098   5.612   7.722   1.833  1.3674  1.3944 -1.1677
  801MOL0     H 8099   5.754   7.865   1.717 -0.0146 -1.1339  2.0628
  801MOL0     H 8100   5.835   7.716   1.759  0.1721  1.0679 -0.4051
  801MOL0     H 8101   5.876   7.854   1.504  1.7309 -0.5235 -0.8175
  801MOL0     H 8102   5.964   7.910   1.642 -0.9468 -0.7274  0.5976
  801MOL0     H 8103   6.090   7.713   1.681  0.3796 -0.4223  0.2814
  801MOL0     H 8104   6.004   7.624   1.555  0.3838 -1.4403  2.1944
  801MOL0     H 8105   6.210   7.873   1.526  1.8583 -0.5500  0.6768
  801MOL0     H 8106   6.100   7.802   1.403  2.1933 -1.5518 -1.1764
  801MOL0     H 8107   6.316   7.708   1.386  1.3408 -0.5769  1.8096
  801MOL0     H 8108   6.205   7.581   1.450  0.0371 -0.9796  2.2754
  801MOL0     H 8109   6.276   7.590   1.665  0.7987  1.5084  1.5375
  801MOL0     H 8110   6.422   7.566   1.569  3.0405  1.5425  3.8521
  801MOL0     H 8111   6.484   7.717   1.726 -1.0889 -3.2995 -1.1041
  801MOL0     H 8112   6.349   7.824   1.708  0.0035 -0.3513  1.4304
  801MOL0     H 8113   6.469   7.837   1.452  1.8606  0.0925 -1.1668
  801MOL0     H 8114   6.501   7.952   1.581  0.7346  0.5051 -2.8276
  801MOL0     H 8115   5.584   7.511   1.462  0.9006 -0.2909 -0.8331
  801MOL0     H 8116   5.401   7.378   1.548  2.5946 -0.7887 -0.1303
  801MOL0     H 8117   4.946   7.414   1.949  0.9877 -0.8909 -1.0540
  801MOL0     H 8118   4.796   7.243   2.020 -0.1057 -2.5316  2.9491
  801MOL0     H 8119   5.230   5.632   1.970 -0.9222 -0.0904 -1.3229
  801MOL0     H 8120   5.429   5.609   1.831 -1.7121 -0.0240 -0.4312
  801MOL0     H 8121   5.642   5.748   1.531 -0.9738  0.9509 -0.1416
  801MOL0     H 8122   5.773   5.723   1.331 -0.0560  0.9519 -0.3032
  801MOL0     H 8123   6.045   5.711   1.128 -3.0806 -0.4380 -0.5065
  801MOL0     H 8124   5.955   5.596   1.228  2.4736 -5.3933 -2.7042
  801MOL0     H 8125   6.161   5.475   1.165  1.7000 -0.1831  0.8141
  801MOL0     H 8126   6.171   5.529   1.338  0.4636 -0.5575  0.1065
  801MOL0     H 8127   6.335   5.708   1.255  1.8455 -1.4135  0.7856
  801MOL0     H 8128   6.275   5.679   1.097 -2.0759  0.1460  0.7435
  801MOL0     H 8129   6.426   5.474   1.277 -2.0543 -1.3369  0.2555
  801MOL0     H 8130   6.360   5.436   1.115  0.0639  0.1364 -0.3246
  801MOL0     H 8131   6.714   5.682   1.044  0.0952 -1.1961 -2.4415
  801MOL0     H 8132   6.112   5.852   1.556 -1.0957  1.5637 -0.9218
  801MOL0     H 8133   6.013   6.017   1.775  0.9936 -0.3149  0.9187
  801MOL0     H 8134   5.964   5.882   1.879  0.0218  2.4012  1.0657
  801MOL0     H 8135   6.105   5.864   1.777  0.3329 -0.6609  0.0154
  802MOL0     O 8136   5.280   0.307  11.269  0.0255 -0.0164 -0.3562
  802MOL0     C 8137   5.390   0.282  11.311 -0.2903  0.0199  0.7579
  802MOL0     O 8138   5.418   0.189  11.409  0.1637 -0.2819 -0.7898
  802MOL0     C 8139   5.324   0.145  11.496  0.5609  0.3221 -0.0682
  802MOL0     C 8140   5.286   0.014  11.488  0.4518 -0.1620 -1.1776
  802MOL0     C 8141   5.174  -0.032  11.567 -0.6578  0.3518  0.1489
  802MOL0     C 8142   5.118   0.053  11.668 -0.7101  0.2513  0.4184
  802MOL0     O 8143   5.022   0.013  11.758  0.0827  0.3008 -0.1282
  802MOL0     C 8144   4.891   0.054  11.724 -0.8667  0.6470  0.4820
  802MOL0     C 8145   4.815  -0.069  11.662 -0.3461  0.7852  0.5696
  802MOL0     C 8146   4.851  -0.196  11.736 -0.5774 -0.4453  0.8731
  802MOL0     C 8147   4.833  -0.194  11.885 -0.4980  0.8238  0.0389
  802MOL0     C 8148   4.695  -0.191  11.926  0.1300  0.3634  0.1983
  802MOL0     C 8149   4.669  -0.261  12.061 -0.3857 -0.0807 -0.3573
  802MOL0     C 8150   4.751  -0.194  12.180  0.6155  0.1478  1.0735
  802MOL0     C 8151   4.705  -0.231  12.318 -0.2513 -0.1438  0.9404
  802MOL0     N 8152   4.732  -0.109  12.394  0.4132  1.0093 -0.4162
  802MOL0     C 8153   4.643  -0.073  12.485 -0.0698 -0.6846  0.1669
  802MOL0     C 8154   4.722   0.012  12.553 -0.5431 -0.7173  0.6387
  802MOL0     C 8155   4.677   0.097  12.664 -0.4997  0.2256  0.5732
  802MOL0     C 8156   4.623   0.001  12.770 -0.3889 -0.5171 -0.2396
  802MOL0     C 8157   4.624   0.071  12.905  0.6735  0.5780  0.6399
  802MOL0     C 8158   4.538   0.200  12.904  0.0978 -0.2146 -0.0839
  802MOL0     O 8159   4.523   0.265  13.034  0.2373 -0.9770 -0.4819
  802MOL0     C 8160   4.604   0.371  13.070 -0.4055 -0.2072  0.4897
  802MOL0     C 8161   4.735   0.388  13.020 -1.0643 -0.7286  1.0164
  802MOL0     C 8162   4.825   0.472  13.083  0.6006  0.3985 -0.9392
  802MOL0     C 8163   4.787   0.548  13.195 -0.7881 -0.4022 -0.3346
  802MOL0     C 8164   4.888   0.627  13.262 -0.6399  0.0490 -0.1136
  802MOL0     O 8165   4.846   0.720  13.361  1.1886 -0.0048 -0.6275
  802MOL0     C 8166   4.935   0.796  13.433  0.4827 -0.6906  0.7059
  802MOL0     C 8167   5.065   0.767  13.478 -0.0288 -0.2889 -0.0509
  802MOL0     C 8168   5.139   0.861  13.552  0.0379 -0.1430 -0.5970
  802MOL0     C 8169   5.080   0.988  13.592 -0.6224  0.6764  0.0726
  802MOL0     O 8170   5.146   1.085  13.666 -0.2016  1.2672 -0.9109
  802MOL0     C 8171   5.269   1.059  13.732  0.8564 -0.3986 -0.6781
  802MOL0     C 8172   5.332   1.198  13.762  0.4922 -0.3573 -0.5763
  802MOL0     C 8173   5.416   1.262  13.647 -0.0132 -0.3392 -0.6138
  802MOL0     C 8174   5.548   1.194  13.622 -0.1092 -0.4822 -0.1916
  802MOL0     C 8175   5.629   1.234  13.504 -0.2385  0.6507 -0.1331
  802MOL0     C 8176   5.679   1.373  13.517  0.1497  0.4969  0.6532
  802MOL0     C 8177   5.774   1.387  13.395 -1.2868  0.3882 -0.1236
  802MOL0     C 8178   5.748   1.529  13.333  0.1399 -1.1476 -0.6185
  802MOL0    Cl 8179   5.852   1.556  13.195 -0.6275 -0.4399 -0.0447
  802MOL0     C 8180   4.950   1.013  13.542  1.7125  0.0859 -0.0105
  802MOL0     C 8181   4.876   0.920  13.467  0.2372 -0.0058  0.4482
  802MOL0     O 8182   5.000   0.600  13.226 -0.9292 -1.2123 -0.3416
  802MOL0     C 8183   4.656   0.535  13.245  1.1539 -0.1815  0.0769
  802MOL0     C 8184   4.567   0.460  13.173  0.4264 -0.3898 -0.3475
  802MOL0     N 8185   4.841   0.032  12.496 -0.3029 -0.3782  0.7880
  802MOL0     N 8186   4.853  -0.046  12.393 -0.3798  0.6472 -1.2788
  802MOL0     C 8187   5.165   0.184  11.675  0.5486  0.4886  0.0120
  802MOL0     C 8188   5.266   0.236  11.585 -0.0337  0.1440 -0.7218
  802MOL0     C 8189   5.505   0.349  11.243  0.3210 -0.3590  1.0298
  802MOL0     C 8190   5.467   0.439  11.139  0.0530 -0.2535 -0.3045
  802MOL0     C 8191   5.569   0.514  11.077 -0.9299 -0.4494  0.3607
  802MOL0     C 8192   5.706   0.496  11.109  0.4722 -0.2783 -1.2643
  802MOL0     O 8193   5.795   0.574  11.052  0.1767 -0.7170 -0.0799
  802MOL0     C 8194   5.875   0.650  11.148  0.0094  0.0334  1.2585
  802MOL0     C 8195   6.010   0.709  11.093  0.1106  0.3653  0.6509
  802MOL0     C 8196   6.014   0.821  10.987  0.1901  0.2679 -0.4364
  802MOL0     C 8197   5.967   0.951  11.051  0.3750 -0.4101 -0.7610
  802MOL0     C 8198   5.980   1.074  10.970 -0.4439  0.2356 -0.5374
  802MOL0     C 8199   5.986   1.195  10.936  0.6873  0.0638  0.2034
  802MOL0     C 8200   5.737   0.411  11.213  0.4017  0.3706  0.0199
  802MOL0     C 8201   5.642   0.342  11.289  0.3089  0.4577  0.1198
  802MOL0     C 8202   5.691   0.290  11.427  0.6356 -0.3723 -0.0089
  802MOL0     H 8203   5.319  -0.063  11.419  1.9886 -0.1163 -0.5414
  802MOL0     H 8204   5.137  -0.134  11.563 -0.3338  0.0939  2.5648
  802MOL0     H 8205   4.845   0.078  11.820 -5.0443 -1.7954 -0.6629
  802MOL0     H 8206   4.884   0.148  11.669 -0.0294  1.1877  1.2697
  802MOL0     H 8207   4.846  -0.090  11.559 -1.8341 -1.8077  0.5632
  802MOL0     H 8208   4.709  -0.049  11.651  0.0023  1.8398 -1.2521
  802MOL0     H 8209   4.958  -0.209  11.714 -0.9539 -0.6522 -1.0189
  802MOL0     H 8210   4.791  -0.273  11.686 -1.5184  0.7484  0.1075
  802MOL0     H 8211   4.885  -0.288  11.905 -0.0499  0.5978 -1.9641
  802MOL0     H 8212   4.888  -0.108  11.924  0.5452  0.7319 -1.1800
  802MOL0     H 8213   4.662  -0.087  11.922  0.3508  0.4160 -0.2563
  802MOL0     H 8214   4.641  -0.247  11.850  1.2779  2.6617 -2.4772
  802MOL0     H 8215   4.560  -0.262  12.077 -0.2978  0.7488  0.3934
  802MOL0     H 8216   4.701  -0.365  12.061 -1.2167 -0.3505  0.4933
  802MOL0     H 8217   4.749  -0.088  12.154 -1.4642 -0.1602 -0.2701
  802MOL0     H 8218   4.854  -0.223  12.159  0.3379  0.0104 -0.1510
  802MOL0     H 8219   4.596  -0.241  12.311 -0.1993 -0.1308 -0.1657
  802MOL0     H 8220   4.760  -0.319  12.352  0.4027 -0.7796 -1.5403
  802MOL0     H 8221   4.543  -0.108  12.507 -0.1453 -1.1057 -0.8012
  802MOL0     H 8222   4.761   0.157  12.700 -0.8851  0.9415  0.2944
  802MOL0     H 8223   4.593   0.153  12.621  1.2768  0.1861 -3.3922
  802MOL0     H 8224   4.518  -0.023  12.752 -0.2870 -1.2195  0.0891
  802MOL0     H 8225   4.681  -0.092  12.771 -1.1659 -1.0881  3.0745
  802MOL0     H 8226   4.731   0.088  12.921  1.1980  0.2499 -2.0731
  802MOL0     H 8227   4.581   0.001  12.978 -0.4833 -1.3533 -1.7624
  802MOL0     H 8228   4.437   0.176  12.868  0.6232  0.6119 -2.2473
  802MOL0     H 8229   4.577   0.268  12.827 -0.5832 -0.2789 -0.4983
  802MOL0     H 8230   4.769   0.334  12.932  0.0884  2.9489 -1.0285
  802MOL0     H 8231   4.922   0.476  13.036  0.6599  2.2024 -0.7393
  802MOL0     H 8232   5.113   0.681  13.434  3.0025  2.0742 -1.7849
  802MOL0     H 8233   5.240   0.832  13.579 -0.1624 -0.7238 -0.4613
  802MOL0     H 8234   5.250   1.015  13.830 -0.7526  0.2622 -0.6703
  802MOL0     H 8235   5.352   1.007  13.683  1.0340 -2.0254  1.2549
  802MOL0     H 8236   5.248   1.266  13.779  1.0897  0.6509 -1.5341
  802MOL0     H 8237   5.395   1.190  13.851  1.1922 -0.8844 -1.1089
  802MOL0     H 8238   5.363   1.258  13.552  1.0719 -1.6821 -1.1890
  802MOL0     H 8239   5.431   1.369  13.664  1.2572 -0.6166  0.1392
  802MOL0     H 8240   5.529   1.087  13.619  0.2255 -0.5293 -1.0189
  802MOL0     H 8241   5.615   1.206  13.707  1.7444  3.0496 -1.9357
  802MOL0     H 8242   5.582   1.226  13.405  0.8380 -0.1306 -0.5972
  802MOL0     H 8243   5.717   1.169  13.507 -1.8503 -1.7750 -1.6342
  802MOL0     H 8244   5.602   1.450  13.506 -0.2160 -0.2092 -3.4163
  802MOL0     H 8245   5.742   1.380  13.606  1.0706 -0.8279  0.1439
  802MOL0     H 8246   5.753   1.310  13.320  3.1990 -1.8540  0.6019
  802MOL0     H 8247   5.882   1.373  13.406 -1.3468 -0.2450 -0.3060
  802MOL0     H 8248   5.642   1.542  13.310  0.0881 -0.6551 -0.1267
  802MOL0     H 8249   5.792   1.600  13.404 -0.2574  0.1412 -1.6084
  802MOL0     H 8250   4.910   1.111  13.565  1.0760 -0.0122 -0.6636
  802MOL0     H 8251   4.778   0.954  13.437  0.2982  0.7115  1.0411
  802MOL0     H 8252   4.625   0.595  13.329  2.1411 -0.6417  0.7935
  802MOL0     H 8253   4.468   0.462  13.219  0.9350  1.0773  0.7666
  802MOL0     H 8254   5.115   0.257  11.737 -1.9879  1.0800 -2.5498
  802MOL0     H 8255   5.285   0.343  11.594 -0.8419  0.1484  2.2188
  802MOL0     H 8256   5.363   0.452  11.111  0.2126 -1.5998 -1.6734
  802MOL0     H 8257   5.544   0.583  10.997  2.4429  1.5894  0.8756
  802MOL0     H 8258   5.922   0.593  11.229  0.1345 -0.5393  0.7878
  802MOL0     H 8259   5.817   0.725  11.203  0.2483 -0.5168  2.2953
  802MOL0     H 8260   6.074   0.627  11.060 -1.7164 -0.8477 -0.0410
  802MOL0     H 8261   6.064   0.737  11.184  1.6630 -2.2280  0.6259
  802MOL0     H 8262   5.940   0.797  10.909 -0.7609  2.7785 -0.4167
  802MOL0     H 8263   6.117   0.834  10.955  0.7525 -0.5929  0.9434
  802MOL0     H 8264   5.864   0.951  11.089 -0.0715 -0.9213 -1.9191
  802MOL0     H 8265   6.036   0.966  11.134 -0.8551  1.2951  0.0262
  802MOL0     H 8266   5.990   1.295  10.899 -0.4691  0.1080  0.1656
  802MOL0     H 8267   5.841   0.420  11.241 -0.0960  3.0933  1.2600
  802MOL0     H 8268   5.794   0.317  11.453 -0.7916  4.1468  2.1005
  802MOL0     H 8269   5.637   0.346  11.505  0.8306  0.5594 -0.5213
  802MOL0     H 8270   5.677   0.183  11.440  0.4132 -0.3869 -0.3690
  803MOL0     O 8271   9.119   7.422   1.125 -0.8830 -0.0732 -0.5815
  803MOL0     C 8272   9.071   7.315   1.153  0.1142 -0.5012 -0.3904
  803MOL0     O 8273   9.138   7.231   1.229  0.0920 -0.0969  0.6607
  803MOL0     C 8274   9.245   7.274   1.290 -0.2875 -0.0516  0.7391
  803MOL0     C 8275   9.245   7.358   1.404 -0.6031  0.3338  0.6528
  803MOL0     C 8276   9.367   7.396   1.455 -0.2835 -0.2280  0.0015
  803MOL0     C 8277   9.489   7.372   1.400 -0.4120  0.1401  0.7418
  803MOL0     O 8278   9.601   7.418   1.470  0.0276  0.1368 -0.3817
  803MOL0     C 8279   9.735   7.368   1.433  0.1824  0.1272 -0.1232
  803MOL0     C 8280   9.851   7.396   1.525 -0.0479 -0.8350 -0.7665
  803MOL0     C 8281   9.981   7.424   1.448  0.3435 -0.4630 -0.7381
  803MOL0     C 8282  10.069   7.301   1.412 -0.7921  0.4422 -0.6690
  803MOL0     C 8283  10.212   7.329   1.391  0.0787  0.0221 -0.3757
  803MOL0     C 8284  10.221   7.400   1.256  0.1578 -1.0328  0.0795
  803MOL0     C 8285  10.359   7.450   1.207  0.2333 -0.3848  0.4064
  803MOL0     C 8286  10.453   7.337   1.166  0.4871  0.9147 -0.1174
  803MOL0     N 8287  10.405   7.249   1.060 -0.5766  0.5892  0.7142
  803MOL0     C 8288  10.414   7.273   0.926 -0.0307  0.4680 -0.7136
  803MOL0     C 8289  10.349   7.174   0.867  0.1299  0.4014  0.9871
  803MOL0     C 8290  10.341   7.164   0.720 -0.9280 -0.8751  0.6629
  803MOL0     C 8291  10.204   7.204   0.676  0.2707  0.0660  0.7771
  803MOL0     C 8292  10.183   7.169   0.527  0.7961  0.0020 -0.3828
  803MOL0     C 8293  10.276   7.223   0.427 -0.2177  0.6390  0.0674
  803MOL0     O 8294  10.294   7.362   0.455 -0.1090 -0.2704  0.2006
  803MOL0     C 8295  10.209   7.441   0.397 -0.7254 -0.3344 -0.0199
  803MOL0     C 8296  10.112   7.512   0.471 -0.1352  0.2655  0.2838
  803MOL0     C 8297  10.010   7.589   0.404 -0.0121 -0.5517 -0.3956
  803MOL0     C 8298  10.003   7.601   0.258 -0.9742 -0.6800 -0.0528
  803MOL0     C 8299   9.905   7.690   0.199  0.3049 -0.9041 -0.2204
  803MOL0     O 8300   9.815   7.757   0.288  0.0228  0.6966 -0.1612
  803MOL0     C 8301   9.731   7.855   0.242  0.8415  0.4178 -0.0898
  803MOL0     C 8302   9.600   7.862   0.306 -0.8747 -0.7232 -1.1798
  803MOL0     C 8303   9.518   7.973   0.290  0.1265 -0.5809 -0.4753
  803MOL0     C 8304   9.554   8.074   0.198 -0.5396  0.2847 -0.7341
  803MOL0     O 8305   9.489   8.196   0.174 -0.3675 -0.4606 -0.5069
  803MOL0     C 8306   9.375   8.231   0.244 -0.0644  0.0763 -0.5000
  803MOL0     C 8307   9.310   8.367   0.205 -0.4647 -0.2530  0.0561
  803MOL0     C 8308   9.208   8.349   0.091 -0.2873  1.1860 -0.6745
  803MOL0     C 8309   9.174   8.496   0.061 -0.7235  0.0051  0.7433
  803MOL0     C 8310   9.072   8.510  -0.054 -0.1666 -0.4331 -0.3794
  803MOL0     C 8311   8.931   8.440  -0.042  0.5760  0.5050  0.7669
  803MOL0     C 8312   8.841   8.454  -0.166  0.2737 -0.7146 -0.4618
  803MOL0     C 8313   8.789   8.604  -0.208  0.0990 -0.3540 -0.3015
  803MOL0    Cl 8314   8.870   8.670  -0.351  0.2868  0.2482  0.0375
  803MOL0     C 8315   9.674   8.064   0.135  0.5289 -0.3708 -0.2194
  803MOL0     C 8316   9.766   7.963   0.155  0.3267  0.4627 -0.6002
  803MOL0     O 8317   9.903   7.708   0.075 -0.9481 -0.3895  0.2777
  803MOL0     C 8318  10.111   7.533   0.183  0.1238  0.3063 -0.6625
  803MOL0     C 8319  10.204   7.455   0.256  0.0953  0.0322 -0.7920
  803MOL0     N 8320  10.293   7.090   0.966 -0.4477  0.0208  0.3277
  803MOL0     N 8321  10.336   7.132   1.077 -0.9010  0.1259 -0.1910
  803MOL0     C 8322   9.480   7.285   1.292  0.4880  0.1752  0.2536
  803MOL0     C 8323   9.362   7.236   1.230 -0.2042 -0.7382 -0.1940
  803MOL0     C 8324   8.944   7.297   1.084  0.2201 -0.1882 -0.5442
  803MOL0     C 8325   8.880   7.402   1.015 -0.1801  0.1587 -0.0942
  803MOL0     C 8326   8.756   7.389   0.950 -0.4679 -0.0584 -0.4134
  803MOL0     C 8327   8.690   7.264   0.959  0.3068 -0.3829  1.5995
  803MOL0     O 8328   8.558   7.239   0.922  0.8363 -0.0058 -0.2791
  803MOL0     C 8329   8.502   7.337   0.816 -0.2326  0.6431 -0.1019
  803MOL0     C 8330   8.375   7.261   0.742 -0.6498 -0.2564  1.2605
  803MOL0     C 8331   8.274   7.359   0.668 -0.3620  0.0549  0.9450
  803MOL0     C 8332   8.185   7.284   0.557  0.0051  0.0428 -0.9710
  803MOL0     C 8333   8.089   7.383   0.507  0.2312 -0.0728  0.0373
  803MOL0     C 8334   8.029   7.474   0.452  0.0651  0.0805 -0.1920
  803MOL0     C 8335   8.763   7.160   1.006  0.1246  0.5808  0.1813
  803MOL0     C 8336   8.887   7.172   1.063  0.1361  0.1549 -0.3634
  803MOL0     C 8337   8.962   7.045   1.103  0.6777  1.1030  0.2844
  803MOL0     H 8338   9.154   7.378   1.459  0.1008  1.7229  1.3615
  803MOL0     H 8339   9.366   7.452   1.548  3.2227  0.7886 -0.4308
  803MOL0     H 8340   9.733   7.262   1.406 -2.1905  0.1641 -0.3080
  803MOL0     H 8341   9.747   7.418   1.336  0.5545 -0.0811 -0.1879
  803MOL0     H 8342   9.852   7.315   1.598 -3.2021  0.2894  0.7244
  803MOL0     H 8343   9.814   7.487   1.574 -0.1531  0.8085 -3.6049
  803MOL0     H 8344  10.032   7.489   1.520 -1.3338  1.3008 -1.0462
  803MOL0     H 8345   9.962   7.478   1.355 -1.8316 -0.4964 -0.3834
  803MOL0     H 8346  10.070   7.229   1.494  1.4680  0.4288 -0.6399
  803MOL0     H 8347  10.020   7.265   1.322 -0.0338  3.3458 -2.3887
  803MOL0     H 8348  10.262   7.381   1.473 -0.6685  0.3758 -0.1285
  803MOL0     H 8349  10.264   7.234   1.377  2.1351  0.7263  1.8788
  803MOL0     H 8350  10.182   7.341   1.172 -0.5681  2.8422 -2.5467
  803MOL0     H 8351  10.170   7.496   1.256  3.8869  1.2276 -2.7953
  803MOL0     H 8352  10.404   7.523   1.275  0.6037 -1.6566  1.5763
  803MOL0     H 8353  10.331   7.500   1.114 -0.9561  0.2491  1.0719
  803MOL0     H 8354  10.552   7.368   1.128  0.4159 -1.3400 -2.4058
  803MOL0     H 8355  10.470   7.277   1.255  1.1310 -0.7636 -1.3149
  803MOL0     H 8356  10.470   7.350   0.874 -0.8831 -0.2462 -2.8042
  803MOL0     H 8357  10.405   7.240   0.674 -1.8536 -1.1643 -1.2054
  803MOL0     H 8358  10.366   7.067   0.675 -2.6981 -0.4707 -1.4023
  803MOL0     H 8359  10.125   7.152   0.730  0.1369  1.4502  1.9972
  803MOL0     H 8360  10.185   7.310   0.698  0.1287  0.1276  0.3657
  803MOL0     H 8361  10.080   7.191   0.500  0.6553  2.6573  1.9177
  803MOL0     H 8362  10.193   7.060   0.524  2.4620 -0.0481  2.5087
  803MOL0     H 8363  10.255   7.200   0.322  0.3350  2.1388 -0.3962
  803MOL0     H 8364  10.372   7.172   0.440  1.1599  2.8087 -0.9679
  803MOL0     H 8365  10.096   7.496   0.577 -3.9351 -1.4140 -0.3871
  803MOL0     H 8366   9.934   7.638   0.464  0.3380 -2.0147  1.3223
  803MOL0     H 8367   9.579   7.788   0.382  0.3684  0.5298  0.4523
  803MOL0     H 8368   9.419   7.982   0.333 -1.9906 -4.3983 -3.7752
  803MOL0     H 8369   9.297   8.155   0.244  0.1377 -0.1349 -0.3907
  803MOL0     H 8370   9.408   8.240   0.348  2.4871  2.6442 -1.3732
  803MOL0     H 8371   9.241   8.398   0.284 -2.1145 -3.5281  0.0387
  803MOL0     H 8372   9.396   8.429   0.177 -0.6119 -1.2070 -2.9172
  803MOL0     H 8373   9.246   8.290   0.008  2.5764  1.4299  0.3566
  803MOL0     H 8374   9.121   8.292   0.127 -1.6593  3.0499 -0.9079
  803MOL0     H 8375   9.266   8.537   0.019 -0.1477 -3.3804 -1.7536
  803MOL0     H 8376   9.134   8.550   0.147 -2.4243  0.9807 -0.5929
  803MOL0     H 8377   9.123   8.480  -0.146 -0.1688 -0.6556 -0.3086
  803MOL0     H 8378   9.048   8.617  -0.059 -0.6825 -0.5555 -0.5760
  803MOL0     H 8379   8.963   8.337  -0.025  1.5883  0.4377 -1.2156
  803MOL0     H 8380   8.879   8.478   0.047  1.1772  1.7884  0.5996
  803MOL0     H 8381   8.752   8.400  -0.132 -0.4217  0.0850 -0.9482
  803MOL0     H 8382   8.870   8.396  -0.254  0.7512 -1.2143  0.0209
  803MOL0     H 8383   8.685   8.595  -0.240 -0.6287  3.7931  0.3476
  803MOL0     H 8384   8.797   8.676  -0.126 -1.8235  0.8372 -1.0859
  803MOL0     H 8385   9.705   8.153   0.079 -2.4906 -0.7480 -2.7815
  803MOL0     H 8386   9.860   7.973   0.101  1.2389  0.8244  0.9875
  803MOL0     H 8387  10.123   7.553   0.077 -0.0670  0.0698 -0.7310
  803MOL0     H 8388  10.285   7.407   0.203  0.5226 -0.2544  0.1143
  803MOL0     H 8389   9.575   7.275   1.239 -0.5378  1.1032 -1.8600
  803MOL0     H 8390   9.371   7.175   1.141  1.4558 -1.7458  0.6245
  803MOL0     H 8391   8.923   7.502   1.017 -0.4342  0.4186 -3.1449
  803MOL0     H 8392   8.711   7.471   0.895  0.6989  0.7910 -0.1569
  803MOL0     H 8393   8.577   7.359   0.740 -0.8265 -0.8462 -1.1869
  803MOL0     H 8394   8.483   7.437   0.855 -0.9382  0.4423  0.0942
  803MOL0     H 8395   8.318   7.205   0.816  0.2025 -2.3205  0.4241
  803MOL0     H 8396   8.419   7.202   0.660 -2.3254  4.1183 -3.3179
  803MOL0     H 8397   8.316   7.441   0.610 -1.4538  0.0732  0.1554
  803MOL0     H 8398   8.232   7.408   0.756  4.3905  1.7217  2.5666
  803MOL0     H 8399   8.244   7.243   0.475 -0.8472 -0.4764 -1.3343
  803MOL0     H 8400   8.128   7.197   0.590  1.0681 -0.0267  0.8112
  803MOL0     H 8401   7.992   7.567   0.414  2.8175  1.3177 -0.0496
  803MOL0     H 8402   8.714   7.063   1.018  0.9189  0.0761 -0.5476
  803MOL0     H 8403   8.901   6.957   1.081 -3.0651  2.7490  2.8809
  803MOL0     H 8404   9.065   7.045   1.068  0.6661  2.1633  0.2214
  803MOL0     H 8405   8.966   7.046   1.213  1.8442 -2.1834  0.3755
  804MOL0     O 8406  11.227   6.212   4.436  0.2697  0.1729  0.7338
  804MOL0     C 8407  11.229   6.302   4.351 -0.8644 -1.2719 -0.6738
  804MOL0     O 8408  11.155   6.420   4.355  0.4981 -1.1085  0.7483
  804MOL0     C 8409  11.046   6.434   4.441  0.1481  0.0317  0.2813
  804MOL0     C 8410  11.045   6.414   4.578  0.0052  0.4512  0.4589
  804MOL0     C 8411  10.947   6.451   4.665 -0.1253  0.4441 -0.3651
  804MOL0     C 8412  10.823   6.501   4.616  0.0048 -0.7174 -0.0597
  804MOL0     O 8413  10.722   6.513   4.700  0.3547 -0.2853 -0.1471
  804MOL0     C 8414  10.614   6.612   4.676 -0.6505  0.2591  1.0106
  804MOL0     C 8415  10.675   6.742   4.729 -0.5000 -0.3998  0.0870
  804MOL0     C 8416  10.757   6.739   4.867 -0.0109 -0.4890  0.0896
  804MOL0     C 8417  10.667   6.693   4.984 -0.6543 -0.9601 -0.2113
  804MOL0     C 8418  10.725   6.709   5.124 -1.2196 -0.2097 -0.6210
  804MOL0     C 8419  10.867   6.653   5.141 -0.1830  0.7699  0.2212
  804MOL0     C 8420  10.885   6.660   5.296  1.1237  0.6551  0.5280
  804MOL0     C 8421  11.036   6.638   5.332 -0.0454  0.0727 -0.8185
  804MOL0     N 8422  11.064   6.607   5.472 -0.5886 -0.5714 -0.3433
  804MOL0     C 8423  11.188   6.630   5.526 -0.2092 -0.1191  0.2146
  804MOL0     C 8424  11.196   6.567   5.647  0.8222  0.1169  0.1351
  804MOL0     C 8425  11.315   6.572   5.736 -0.1686  0.1071  0.2385
  804MOL0     C 8426  11.445   6.511   5.664  0.6368  0.0778  0.1080
  804MOL0     C 8427  11.422   6.364   5.627 -0.0963  0.4872  0.5889
  804MOL0     C 8428  11.543   6.301   5.560  0.3211  0.5071  0.4343
  804MOL0     O 8429  11.638   6.237   5.652  0.7037 -0.0933  0.3052
  804MOL0     C 8430  11.754   6.295   5.688  0.5729 -0.0597 -0.1350
  804MOL0     C 8431  11.809   6.249   5.812 -0.3089  0.3690  0.4059
  804MOL0     C 8432  11.938   6.285   5.849  0.3679 -0.2373  0.4935
  804MOL0     C 8433  12.024   6.350   5.756 -0.6594 -1.0333  0.0749
  804MOL0     C 8434  12.163   6.392   5.800 -0.2890 -0.3413  0.3792
  804MOL0     O 8435  12.198   6.366   5.924  0.1104  0.0635 -0.4832
  804MOL0     C 8436  12.321   6.395   5.975 -0.5763  0.1394  0.9317
  804MOL0     C 8437  12.446   6.383   5.896  0.4335  0.4165 -0.1465
  804MOL0     C 8438  12.574   6.415   5.948 -0.2930  0.3433 -0.8780
  804MOL0     C 8439  12.587   6.435   6.086  0.0535 -0.3820 -0.5637
  804MOL0     O 8440  12.698   6.431   6.164  0.3620 -0.1754 -0.5145
  804MOL0     C 8441  12.791   6.333   6.117  0.3838  0.1222 -0.5289
  804MOL0     C 8442  12.892   6.284   6.225 -0.2924 -0.0607  0.4577
  804MOL0     C 8443  12.980   6.169   6.177  0.9222  0.1930 -0.1025
  804MOL0     C 8444  13.087   6.092   6.268  0.2366  0.1760 -0.2771
  804MOL0     C 8445  13.206   6.192   6.290 -0.0790 -0.5933  0.2964
  804MOL0     C 8446  13.347   6.148   6.319  0.2634 -0.2580  0.4347
  804MOL0     C 8447  13.337   6.030   6.413 -0.0751 -0.0846 -0.2739
  804MOL0     C 8448  13.480   5.969   6.444  0.8104 -0.2666  0.1514
  804MOL0    Cl 8449  13.591   6.083   6.505 -0.0697  0.0220 -0.2202
  804MOL0     C 8450  12.471   6.443   6.160  0.6207 -0.1193  0.0658
  804MOL0     C 8451  12.337   6.418   6.106 -0.2402 -0.4085  0.6531
  804MOL0     O 8452  12.236   6.435   5.707  0.5141 -0.1319 -0.2988
  804MOL0     C 8453  11.973   6.393   5.634 -0.2065 -0.3889 -0.0828
  804MOL0     C 8454  11.835   6.371   5.604 -0.0778  0.7841 -0.6616
  804MOL0     N 8455  11.073   6.511   5.662  0.4687 -0.4591  0.6760
  804MOL0     N 8456  10.991   6.533   5.560  0.5739 -0.1413  0.1092
  804MOL0     C 8457  10.811   6.528   4.479  0.5943  0.7323 -1.0839
  804MOL0     C 8458  10.921   6.491   4.394 -0.7678 -0.3923 -0.3193
  804MOL0     C 8459  11.314   6.275   4.233  0.2994  0.4323 -0.5176
  804MOL0     C 8460  11.409   6.170   4.247 -0.4901 -0.5586 -0.0109
  804MOL0     C 8461  11.479   6.119   4.138 -0.2912  0.4323  0.3897
  804MOL0     C 8462  11.461   6.165   4.009 -0.3992 -0.3757  0.0692
  804MOL0     O 8463  11.528   6.093   3.924 -0.8598 -0.6146  0.5311
  804MOL0     C 8464  11.559   6.151   3.798 -0.8289  0.1515 -0.1897
  804MOL0     C 8465  11.639   6.048   3.713 -0.2905  0.1598 -0.8792
  804MOL0     C 8466  11.547   5.934   3.663  0.4569  0.0855 -0.9431
  804MOL0     C 8467  11.635   5.843   3.585  0.5531 -0.9898 -0.4922
  804MOL0     C 8468  11.581   5.767   3.471 -0.2915  0.7564  0.6718
  804MOL0     C 8469  11.525   5.708   3.378 -0.1670 -0.0747 -0.6459
  804MOL0     C 8470  11.374   6.273   3.988 -0.2021 -0.8707  0.4923
  804MOL0     C 8471  11.298   6.332   4.098  0.2325 -0.5731 -0.7592
  804MOL0     C 8472  11.210   6.447   4.066 -0.2570  0.2727 -0.1724
  804MOL0     H 8473  11.134   6.377   4.626  1.8493  1.7032 -1.8123
  804MOL0     H 8474  10.964   6.431   4.770 -2.4452  2.9250  0.6159
  804MOL0     H 8475  10.582   6.616   4.572  2.4324 -2.8500 -0.2709
  804MOL0     H 8476  10.523   6.583   4.729 -1.4171 -3.5046 -1.9095
  804MOL0     H 8477  10.591   6.809   4.747 -1.2618 -1.1972 -0.4381
  804MOL0     H 8478  10.742   6.800   4.664 -1.3742  0.9863  0.3941
  804MOL0     H 8479  10.783   6.841   4.896 -0.5569 -0.7994  1.8015
  804MOL0     H 8480  10.858   6.697   4.862 -0.2153 -1.2349  1.5684
  804MOL0     H 8481  10.575   6.752   4.981 -0.0396  0.0063 -0.5662
  804MOL0     H 8482  10.659   6.587   4.958  2.5701 -1.5609  0.7748
  804MOL0     H 8483  10.725   6.810   5.166  0.8332 -0.4307  0.0119
  804MOL0     H 8484  10.659   6.644   5.182 -0.7730  0.9861  1.3156
  804MOL0     H 8485  10.894   6.557   5.098  3.2772  1.5373  0.3534
  804MOL0     H 8486  10.939   6.726   5.102  2.9648 -1.0249  2.2531
  804MOL0     H 8487  10.813   6.597   5.350  0.5344  1.2169  0.4041
  804MOL0     H 8488  10.870   6.765   5.324  0.3502  0.7477 -0.2196
  804MOL0     H 8489  11.061   6.562   5.258 -0.0093  1.4267 -2.2565
  804MOL0     H 8490  11.093   6.723   5.293 -2.6438  1.9021 -0.9530
  804MOL0     H 8491  11.269   6.690   5.487 -1.1718  1.5205  0.6737
  804MOL0     H 8492  11.329   6.675   5.768 -2.4132 -0.6443  4.4233
  804MOL0     H 8493  11.289   6.522   5.830 -0.8424  1.7005  0.9211
  804MOL0     H 8494  11.474   6.568   5.575 -0.3172 -0.5664 -0.6280
  804MOL0     H 8495  11.536   6.513   5.725 -0.2933  1.0763  1.5070
  804MOL0     H 8496  11.336   6.353   5.560  0.0669 -1.3500  0.6386
  804MOL0     H 8497  11.392   6.309   5.716 -1.2822  1.9881  1.1429
  804MOL0     H 8498  11.587   6.382   5.500 -0.5077 -2.4442 -4.7853
  804MOL0     H 8499  11.533   6.231   5.477  1.8913  1.5570 -0.7051
  804MOL0     H 8500  11.752   6.180   5.873 -0.4512 -0.9385 -1.1246
  804MOL0     H 8501  11.973   6.265   5.949  1.4161  0.3305  0.2561
  804MOL0     H 8502  12.455   6.343   5.796  0.5509  0.4870 -0.1635
  804MOL0     H 8503  12.666   6.422   5.890 -0.3949  2.6695 -0.8282
  804MOL0     H 8504  12.738   6.242   6.085  0.8951 -0.7638  1.0090
  804MOL0     H 8505  12.847   6.392   6.045 -1.2381  2.0719 -0.2822
  804MOL0     H 8506  12.944   6.371   6.266  0.5839  0.2054 -1.1454
  804MOL0     H 8507  12.822   6.248   6.301 -0.9987  0.6496  0.1661
  804MOL0     H 8508  12.905   6.098   6.141  2.4947 -0.5346 -2.1698
  804MOL0     H 8509  13.032   6.216   6.093  2.7884 -1.0495  0.2838
  804MOL0     H 8510  13.134   6.012   6.210  1.7920  1.5388 -0.9786
  804MOL0     H 8511  13.049   6.051   6.362  2.8116 -0.0319  0.7684
  804MOL0     H 8512  13.167   6.248   6.375  0.5840  0.0444  0.1875
  804MOL0     H 8513  13.219   6.258   6.204 -1.5660  1.0445  1.2579
  804MOL0     H 8514  13.402   6.116   6.230  0.3561  3.1460 -0.8935
  804MOL0     H 8515  13.388   6.239   6.364 -0.2245 -0.6975  1.8223
  804MOL0     H 8516  13.295   5.940   6.367  0.6802 -1.2556  1.2467
  804MOL0     H 8517  13.286   6.051   6.507 -1.9278  0.0534 -1.2556
  804MOL0     H 8518  13.475   5.885   6.514  2.1359  0.1363  0.7466
  804MOL0     H 8519  13.509   5.942   6.342 -0.6895  0.5983 -0.5390
  804MOL0     H 8520  12.486   6.452   6.267  2.3305 -2.0918  0.0492
  804MOL0     H 8521  12.252   6.422   6.172 -2.4426  3.0093 -2.0232
  804MOL0     H 8522  12.039   6.440   5.563  0.6434  0.2253  1.0793
  804MOL0     H 8523  11.795   6.404   5.509  0.7745 -1.3362 -1.8144
  804MOL0     H 8524  10.725   6.566   4.425 -0.1110 -0.5044 -0.8694
  804MOL0     H 8525  10.916   6.511   4.288  0.1183  2.1648  0.0600
  804MOL0     H 8526  11.437   6.126   4.342  2.1705  1.6432  0.3314
  804MOL0     H 8527  11.537   6.030   4.159  1.8980  1.0610 -2.4451
  804MOL0     H 8528  11.615   6.244   3.800  0.8727 -0.8243  1.8751
  804MOL0     H 8529  11.463   6.176   3.752 -0.8055  1.9795  0.6967
  804MOL0     H 8530  11.734   6.016   3.758  0.5381  1.4096 -1.6584
  804MOL0     H 8531  11.681   6.100   3.626  0.7439  1.3874  0.3230
  804MOL0     H 8532  11.478   5.981   3.592 -1.7098  0.2901  1.1548
  804MOL0     H 8533  11.489   5.882   3.740 -1.1637  2.4734 -0.4338
  804MOL0     H 8534  11.713   5.906   3.541  2.0849 -1.3085  1.6134
  804MOL0     H 8535  11.687   5.772   3.650  3.1203  2.0300  1.0313
  804MOL0     H 8536  11.491   5.654   3.292  2.2864  0.0518 -1.7990
  804MOL0     H 8537  11.363   6.302   3.884  0.8123  0.7133  0.8031
  804MOL0     H 8538  11.234   6.544   4.112  1.5522  0.1027 -0.6683
  804MOL0     H 8539  11.216   6.462   3.958 -3.5318  0.2640 -0.4503
  804MOL0     H 8540  11.102   6.437   4.076 -0.3768 -0.7467 -1.9927
  805MOL0     O 8541   7.678   2.976   5.267  0.0855  0.0325  0.3945
  805MOL0     C 8542   7.696   3.079   5.199 -0.3068  0.4919  0.0511
  805MOL0     O 8543   7.596   3.154   5.128  0.1442  0.9886  0.9210
  805MOL0     C 8544   7.463   3.118   5.126 -0.4950 -0.4447 -0.3749
  805MOL0     C 8545   7.396   3.141   5.006  0.2792 -1.3186 -1.3927
  805MOL0     C 8546   7.260   3.102   4.986 -0.1377  0.8291 -0.3167
  805MOL0     C 8547   7.183   3.048   5.092 -0.0709  0.6241 -0.1426
  805MOL0     O 8548   7.047   3.022   5.066  0.4680 -0.0274 -0.2342
  805MOL0     C 8549   6.957   2.977   5.164  0.1353  0.6500 -0.1598
  805MOL0     C 8550   6.821   2.939   5.107  0.2505  1.1776  0.0313
  805MOL0     C 8551   6.718   2.879   5.215  0.4219 -0.2026  0.1208
  805MOL0     C 8552   6.642   2.985   5.300 -0.1383  0.1886 -0.7787
  805MOL0     C 8553   6.547   2.919   5.396  0.2479 -0.1611  0.4829
  805MOL0     C 8554   6.436   3.005   5.450  0.2075 -0.7052 -0.0270
  805MOL0     C 8555   6.336   3.030   5.338 -0.4332  0.3942  0.2295
  805MOL0     C 8556   6.191   3.030   5.375  0.7176  0.3913  0.2270
  805MOL0     N 8557   6.130   2.901   5.405 -0.3552  0.2694  1.0131
  805MOL0     C 8558   6.115   2.799   5.306 -0.7393 -0.0713 -0.3800
  805MOL0     C 8559   6.049   2.703   5.379  0.2014  0.4732  0.5727
  805MOL0     C 8560   6.012   2.558   5.316 -0.3449 -0.3261  0.2992
  805MOL0     C 8561   6.148   2.476   5.289  0.4641 -0.0649 -0.6674
  805MOL0     C 8562   6.222   2.433   5.419 -0.3997  0.0125  0.0001
  805MOL0     C 8563   6.151   2.320   5.501 -0.2655 -0.1102 -0.2763
  805MOL0     O 8564   6.228   2.290   5.614  0.0775 -0.1509  0.5602
  805MOL0     C 8565   6.201   2.180   5.686  0.1886  0.5243  0.0563
  805MOL0     C 8566   6.290   2.144   5.780 -0.2332  0.0731  0.1729
  805MOL0     C 8567   6.289   2.025   5.857  0.8945 -0.4226  0.4077
  805MOL0     C 8568   6.191   1.932   5.839 -0.7809 -0.3325 -0.3083
  805MOL0     C 8569   6.193   1.800   5.906  0.4605 -0.0479 -0.4271
  805MOL0     O 8570   6.294   1.789   5.992  0.0720  1.0802 -1.0074
  805MOL0     C 8571   6.309   1.681   6.070 -0.3015  0.0155  0.3406
  805MOL0     C 8572   6.207   1.594   6.118 -0.3692  0.0015  0.3093
  805MOL0     C 8573   6.237   1.488   6.206  0.8380  0.1005 -0.0586
  805MOL0     C 8574   6.367   1.465   6.256 -0.3179 -0.4437  0.1387
  805MOL0     O 8575   6.397   1.371   6.346  0.2403 -0.2933 -0.2758
  805MOL0     C 8576   6.531   1.346   6.380  0.2249 -0.4221 -1.1374
  805MOL0     C 8577   6.530   1.226   6.473  0.9672  0.4011  1.0474
  805MOL0     C 8578   6.670   1.216   6.529  0.2100 -0.0730  0.2926
  805MOL0     C 8579   6.675   1.106   6.640  0.5035  0.2374  1.0596
  805MOL0     C 8580   6.804   1.103   6.708  0.2588  0.0260 -0.2692
  805MOL0     C 8581   6.828   1.210   6.814  0.2208  0.3947  0.3698
  805MOL0     C 8582   6.962   1.197   6.887 -0.6402 -0.4652  0.0085
  805MOL0     C 8583   6.989   1.325   6.978  0.0059 -0.0397 -0.3115
  805MOL0    Cl 8584   6.876   1.319   7.120 -0.5743 -0.6508  0.4036
  805MOL0     C 8585   6.470   1.552   6.199 -0.1771 -0.3116  0.4970
  805MOL0     C 8586   6.438   1.654   6.107 -0.0658  0.0615 -0.9515
  805MOL0     O 8587   6.094   1.728   5.896 -0.4631  0.0096 -0.0206
  805MOL0     C 8588   6.084   1.968   5.748  0.2765 -1.1540 -0.6603
  805MOL0     C 8589   6.093   2.088   5.672  0.6313 -0.1885  0.2100
  805MOL0     N 8590   6.031   2.747   5.510 -0.8056  0.6237  0.3571
  805MOL0     N 8591   6.089   2.861   5.525  0.5038 -0.0219  0.2745
  805MOL0     C 8592   7.254   3.030   5.213 -0.6893  0.3095  0.2357
  805MOL0     C 8593   7.391   3.064   5.228  0.5750  0.6963  0.8042
  805MOL0     C 8594   7.835   3.126   5.216  1.1632  0.2352 -0.8473
  805MOL0     C 8595   7.939   3.032   5.221  0.6875  0.6353  0.2401
  805MOL0     C 8596   8.070   3.072   5.214  0.0598  0.1124  0.4880
  805MOL0     C 8597   8.102   3.207   5.218  0.0503 -0.1213  0.2673
  805MOL0     O 8598   8.235   3.252   5.214  0.1677  0.2541  0.0568
  805MOL0     C 8599   8.305   3.199   5.328  0.3581  0.6108 -0.1962
  805MOL0     C 8600   8.251   3.248   5.468 -0.0676  0.5341 -0.1563
  805MOL0     C 8601   8.230   3.397   5.483 -0.3568 -0.2137 -0.4658
  805MOL0     C 8602   8.179   3.448   5.621  0.3487  0.5829 -0.9863
  805MOL0     C 8603   8.169   3.590   5.610  0.7418  0.6888 -0.6566
  805MOL0     C 8604   8.164   3.707   5.598  0.3274  0.0897 -0.3305
  805MOL0     C 8605   8.000   3.305   5.221 -0.8741 -0.6340 -0.0965
  805MOL0     C 8606   7.871   3.258   5.237  0.1273 -0.1528 -0.3636
  805MOL0     C 8607   7.766   3.355   5.282 -0.2639  0.2185  0.1673
  805MOL0     H 8608   7.455   3.193   4.931  3.1390 -0.8141  1.0070
  805MOL0     H 8609   7.229   3.113   4.882 -0.7446  2.8937  0.0361
  805MOL0     H 8610   7.004   2.891   5.212  0.9154  0.0776 -1.8908
  805MOL0     H 8611   6.948   3.057   5.239  2.6428  0.5541  0.3459
  805MOL0     H 8612   6.840   2.868   5.027  2.7209  0.0040  1.5173
  805MOL0     H 8613   6.774   3.028   5.065  2.1900  1.1300 -2.4710
  805MOL0     H 8614   6.764   2.814   5.290 -0.0352 -0.3250  0.2996
  805MOL0     H 8615   6.636   2.826   5.165  0.0345  0.7488 -0.2823
  805MOL0     H 8616   6.715   3.044   5.356  1.1579 -2.0408 -0.0222
  805MOL0     H 8617   6.590   3.050   5.228  0.6304 -0.0272 -1.5591
  805MOL0     H 8618   6.511   2.828   5.348  0.9559 -0.6926  0.9354
  805MOL0     H 8619   6.610   2.874   5.473 -0.2811  0.3162  1.1948
  805MOL0     H 8620   6.389   2.956   5.536 -0.3730 -1.0442 -0.5268
  805MOL0     H 8621   6.475   3.100   5.487  1.2274 -0.2706 -2.0504
  805MOL0     H 8622   6.347   2.943   5.271  1.0032  1.5083 -1.0484
  805MOL0     H 8623   6.361   3.122   5.285 -0.3523  0.6136  0.6509
  805MOL0     H 8624   6.181   3.087   5.468  0.0743  1.1609 -0.2992
  805MOL0     H 8625   6.129   3.075   5.297 -1.4323 -2.9938 -0.2350
  805MOL0     H 8626   6.142   2.794   5.201  1.4763 -1.1871  0.1874
  805MOL0     H 8627   5.949   2.500   5.383 -0.9852 -1.5681 -1.2948
  805MOL0     H 8628   5.958   2.588   5.225 -0.2843  0.6227  0.5629
  805MOL0     H 8629   6.145   2.392   5.219  3.0643 -0.9086  0.1307
  805MOL0     H 8630   6.209   2.552   5.240 -1.5070  0.2279 -2.8653
  805MOL0     H 8631   6.219   2.518   5.488 -2.5624  2.9951 -3.4067
  805MOL0     H 8632   6.327   2.407   5.404 -0.0931 -0.6304  2.7412
  805MOL0     H 8633   6.142   2.227   5.444 -0.7662 -0.1073 -0.2104
  805MOL0     H 8634   6.056   2.361   5.537 -0.0088 -0.9776  1.5141
  805MOL0     H 8635   6.365   2.219   5.802  1.0797 -0.6816 -1.4610
  805MOL0     H 8636   6.349   2.016   5.947  0.0415  4.7166  1.7728
  805MOL0     H 8637   6.102   1.610   6.095  0.1197  0.2770 -2.0358
  805MOL0     H 8638   6.159   1.423   6.243 -0.3199  1.2700 -0.3581
  805MOL0     H 8639   6.602   1.315   6.303 -0.4938 -2.7656 -0.9524
  805MOL0     H 8640   6.564   1.429   6.443 -4.3295 -0.0615  1.2624
  805MOL0     H 8641   6.452   1.229   6.550  1.2533  0.6705  1.3291
  805MOL0     H 8642   6.500   1.136   6.418  0.4687  0.9983  0.3260
  805MOL0     H 8643   6.738   1.197   6.445 -1.4766  0.7641 -1.3583
  805MOL0     H 8644   6.697   1.312   6.572  0.1826 -0.5507  1.4030
  805MOL0     H 8645   6.656   1.012   6.587 -0.8067  0.8306  0.4169
  805MOL0     H 8646   6.589   1.124   6.705 -0.3248  1.0294 -0.2093
  805MOL0     H 8647   6.888   1.125   6.641 -0.3648  2.4456 -0.3561
  805MOL0     H 8648   6.813   1.005   6.755  1.5202  0.9608  1.5302
  805MOL0     H 8649   6.819   1.305   6.761  1.0486  0.1392 -0.2413
  805MOL0     H 8650   6.745   1.206   6.886  1.2601 -1.3068  1.5756
  805MOL0     H 8651   7.047   1.185   6.819  2.4739  0.4865  3.3894
  805MOL0     H 8652   6.965   1.111   6.955  2.3596  0.3047  0.9986
  805MOL0     H 8653   7.094   1.325   7.006  0.2104 -1.6015 -0.9599
  805MOL0     H 8654   6.964   1.413   6.918  1.3870 -0.4961 -1.5991
  805MOL0     H 8655   6.574   1.541   6.225 -0.4314  0.9278  2.2229
  805MOL0     H 8656   6.512   1.724   6.071 -0.7029  1.1113 -0.2750
  805MOL0     H 8657   6.006   1.894   5.735  1.8887 -3.3892  1.2743
  805MOL0     H 8658   6.021   2.109   5.593  2.2567  0.1386 -1.2632
  805MOL0     H 8659   7.212   2.970   5.293  3.8743 -0.5080  2.3657
  805MOL0     H 8660   7.440   3.050   5.324  0.2878  0.1729  0.8830
  805MOL0     H 8661   7.900   2.932   5.237  2.4705  0.0610  1.2669
  805MOL0     H 8662   8.147   2.996   5.204 -0.6885 -0.4823 -1.1669
  805MOL0     H 8663   8.407   3.240   5.322  2.3187 -3.7650 -0.3830
  805MOL0     H 8664   8.312   3.090   5.336 -1.5866  0.4259 -0.5275
  805MOL0     H 8665   8.322   3.211   5.543  0.6745 -2.0575 -2.0113
  805MOL0     H 8666   8.158   3.193   5.485  1.1425 -2.6263 -2.5874
  805MOL0     H 8667   8.163   3.434   5.404 -0.7311 -0.1447 -0.1198
  805MOL0     H 8668   8.330   3.437   5.464 -0.8342  1.0659 -0.3864
  805MOL0     H 8669   8.086   3.394   5.643  0.2735  0.8460 -0.6580
  805MOL0     H 8670   8.247   3.413   5.700 -1.9608 -0.0634  0.8222
  805MOL0     H 8671   8.151   3.813   5.597  3.4414  0.5511 -0.2009
  805MOL0     H 8672   8.013   3.412   5.237 -0.0312 -1.0177  2.2247
  805MOL0     H 8673   7.807   3.408   5.368  0.1419  2.5635 -1.3596
  805MOL0     H 8674   7.728   3.420   5.203 -1.9273  0.7057  1.3195
  805MOL0     H 8675   7.683   3.291   5.314  1.3928 -1.7811  0.7108
  806MOL0     O 8676   4.148   5.948  10.318 -0.3598 -0.1602 -0.0344
  806MOL0     C 8677   4.098   5.925  10.216 -0.8686  0.0371  0.2931
  806MOL0     O 8678   4.148   5.839  10.118 -0.1795  0.5292  0.3388
  806MOL0     C 8679   4.151   5.701  10.150  0.1772  0.1920 -0.2241
  806MOL0     C 8680   4.213   5.617  10.055  0.3690  0.5330  0.0584
  806MOL0     C 8681   4.201   5.474  10.064  0.1784  0.1531 -0.8375
  806MOL0     C 8682   4.136   5.411  10.170  0.2544 -0.7377 -0.1419
  806MOL0     O 8683   4.133   5.273  10.170 -0.0972  0.1652 -0.9801
  806MOL0     C 8684   4.079   5.196  10.281  0.2021 -0.1320 -0.0893
  806MOL0     C 8685   3.927   5.186  10.267  0.0626 -0.0838  0.1559
  806MOL0     C 8686   3.874   5.144  10.121  0.9948 -0.0079  0.3007
  806MOL0     C 8687   3.939   5.013  10.061  0.0059  0.0565  0.0508
  806MOL0     C 8688   3.846   4.941   9.958  0.3101  0.6969 -0.0575
  806MOL0     C 8689   3.873   4.794   9.924 -0.1445  0.1474 -1.0230
  806MOL0     C 8690   4.019   4.753   9.914 -0.6858  0.0619 -0.1098
  806MOL0     C 8691   4.077   4.833   9.790  0.1087  0.1373  1.0675
  806MOL0     N 8692   4.222   4.829   9.791  0.3678  0.5086  0.2354
  806MOL0     C 8693   4.314   4.892   9.878  0.7922  0.3059 -0.4851
  806MOL0     C 8694   4.436   4.881   9.827 -0.6735 -0.0996  0.6293
  806MOL0     C 8695   4.579   4.926   9.883  0.5936  0.1517  0.5267
  806MOL0     C 8696   4.670   4.996   9.772  0.2345 -0.2799  0.0371
  806MOL0     C 8697   4.806   5.056   9.819  0.6739 -0.3971  0.3609
  806MOL0     C 8698   4.890   5.087   9.692 -0.6613 -0.5444 -0.0179
  806MOL0     O 8699   4.939   4.969   9.621 -0.3460  0.1519 -0.7213
  806MOL0     C 8700   4.998   4.985   9.497  0.0396  0.0028 -0.0323
  806MOL0     C 8701   5.098   4.900   9.462 -0.3665 -0.0753 -0.0245
  806MOL0     C 8702   5.169   4.913   9.341  0.1986 -0.3154 -0.6122
  806MOL0     C 8703   5.142   5.018   9.251 -0.1133 -0.0775  1.1000
  806MOL0     C 8704   5.207   5.016   9.116 -0.3306 -1.0054  0.4278
  806MOL0     O 8705   5.303   4.934   9.103  0.7813  0.0373  0.0732
  806MOL0     C 8706   5.375   4.930   8.988  0.0454 -0.3766  1.0198
  806MOL0     C 8707   5.360   4.824   8.901  0.0455 -0.5375  0.3231
  806MOL0     C 8708   5.436   4.796   8.796 -0.6604  0.9905 -1.0027
  806MOL0     C 8709   5.550   4.877   8.779  0.0802 -0.3261 -0.1391
  806MOL0     O 8710   5.620   4.850   8.662  0.1129 -0.0354 -0.2040
  806MOL0     C 8711   5.745   4.912   8.640 -0.8143  0.5221 -0.3289
  806MOL0     C 8712   5.795   4.852   8.507  0.4425  0.5118  1.1434
  806MOL0     C 8713   5.931   4.924   8.488  0.9460  0.5511  0.4352
  806MOL0     C 8714   6.002   4.877   8.356 -0.4085 -0.0545 -0.5044
  806MOL0     C 8715   6.063   4.735   8.368 -0.5933  0.6833  0.0706
  806MOL0     C 8716   6.167   4.686   8.262  0.1056 -0.7268  0.7633
  806MOL0     C 8717   6.095   4.669   8.129  0.0720  0.8763  0.8299
  806MOL0     C 8718   6.196   4.672   8.011  0.3545  0.3110 -0.0954
  806MOL0    Cl 8719   6.265   4.510   8.018  0.4307 -0.1684  0.3518
  806MOL0     C 8720   5.574   4.987   8.869  0.0968 -0.8374 -0.3404
  806MOL0     C 8721   5.488   5.011   8.971  0.3964 -0.4375  0.2592
  806MOL0     O 8722   5.173   5.102   9.035 -0.0531 -0.0455 -0.7802
  806MOL0     C 8723   5.042   5.103   9.290 -0.9989 -0.2533  0.0057
  806MOL0     C 8724   4.979   5.099   9.410  0.2425 -0.1063 -0.4957
  806MOL0     N 8725   4.418   4.800   9.717 -0.2244  0.7219  1.0151
  806MOL0     N 8726   4.298   4.775   9.695 -0.3086 -0.4807  0.2312
  806MOL0     C 8727   4.076   5.495  10.267  0.3174  0.3731 -0.3783
  806MOL0     C 8728   4.084   5.634  10.254 -0.2558 -0.3261 -0.4484
  806MOL0     C 8729   3.986   5.998  10.170  0.2007 -1.0070  0.8026
  806MOL0     C 8730   3.980   6.043  10.043 -0.3802  0.1707 -0.3632
  806MOL0     C 8731   3.871   6.108   9.990 -0.3083  0.0868 -0.4732
  806MOL0     C 8732   3.773   6.159  10.076 -0.1572  0.2571 -0.3521
  806MOL0     O 8733   3.669   6.242  10.038  0.7486 -0.3137 -0.2913
  806MOL0     C 8734   3.641   6.275   9.900 -0.4530 -0.4427  0.6386
  806MOL0     C 8735   3.490   6.240   9.882  0.8114  0.2834  0.5938
  806MOL0     C 8736   3.450   6.239   9.740 -0.9314 -0.1826 -0.6698
  806MOL0     C 8737   3.297   6.265   9.732  0.6636  0.6370 -0.1135
  806MOL0     C 8738   3.247   6.305   9.598  0.1801  0.1603  0.6151
  806MOL0     C 8739   3.202   6.350   9.493  0.1353  0.5328 -0.8374
  806MOL0     C 8740   3.770   6.112  10.208  0.6099 -0.4461  0.9039
  806MOL0     C 8741   3.878   6.034  10.253 -0.9525 -0.0387 -0.8201
  806MOL0     C 8742   3.865   5.995  10.399 -0.5262 -0.1113  0.0469
  806MOL0     H 8743   4.259   5.663   9.968 -2.7937  1.7720 -1.0940
  806MOL0     H 8744   4.246   5.401   9.997  0.7821 -0.3649  0.1199
  806MOL0     H 8745   4.137   5.104  10.276  4.6865  2.3996 -0.5047
  806MOL0     H 8746   4.107   5.231  10.381  1.6937 -0.7595 -0.2559
  806MOL0     H 8747   3.886   5.285  10.286  3.4578  1.3590  0.7098
  806MOL0     H 8748   3.897   5.106  10.335  1.3170 -0.1645  0.6508
  806MOL0     H 8749   3.909   5.217  10.048 -1.8924 -0.0466 -1.2481
  806MOL0     H 8750   3.766   5.136  10.112  0.9343  0.9374  0.1876
  806MOL0     H 8751   4.035   5.041  10.016 -0.4023 -0.5733 -1.2561
  806MOL0     H 8752   3.956   4.944  10.143 -2.6210 -0.6049  0.1328
  806MOL0     H 8753   3.744   4.955   9.995 -0.1417 -0.2591 -0.8743
  806MOL0     H 8754   3.856   4.994   9.863  2.3664 -1.8258 -1.3810
  806MOL0     H 8755   3.844   4.735  10.012  0.0591  0.2422 -0.8901
  806MOL0     H 8756   3.825   4.760   9.832 -2.4991 -0.3030  0.2651
  806MOL0     H 8757   4.035   4.646   9.896  1.3138  0.6884 -2.8031
  806MOL0     H 8758   4.078   4.779  10.002 -0.0090 -2.9702  0.4558
  806MOL0     H 8759   4.046   4.787   9.696  1.9120  1.1563 -0.0771
  806MOL0     H 8760   4.054   4.940   9.786  0.4675  0.1770 -0.2315
  806MOL0     H 8761   4.300   4.939   9.975  0.4112 -1.6541  0.4618
  806MOL0     H 8762   4.561   5.008   9.954 -2.0024 -0.3376  0.5370
  806MOL0     H 8763   4.634   4.843   9.929  2.1770  0.3231 -0.9584
  806MOL0     H 8764   4.692   4.940   9.680  1.9590 -3.1837  2.0400
  806MOL0     H 8765   4.626   5.091   9.740  2.9883  1.4542  1.1308
  806MOL0     H 8766   4.854   4.978   9.878 -3.2088 -2.8569  0.6573
  806MOL0     H 8767   4.791   5.150   9.873  2.1982  0.3868 -0.5107
  806MOL0     H 8768   4.972   5.149   9.730  0.2288 -1.8653  0.2810
  806MOL0     H 8769   4.833   5.160   9.633  0.6481  2.3999  2.0891
  806MOL0     H 8770   5.120   4.816   9.528 -0.7619  1.2816  1.9277
  806MOL0     H 8771   5.243   4.838   9.318 -0.7626 -1.3917 -0.2510
  806MOL0     H 8772   5.283   4.752   8.929 -2.1703  1.5604  0.0142
  806MOL0     H 8773   5.422   4.706   8.737 -0.2555 -0.1696  0.5824
  806MOL0     H 8774   5.733   5.021   8.641  0.3068  0.7302  3.2710
  806MOL0     H 8775   5.820   4.894   8.718  1.3489 -0.8314 -2.5835
  806MOL0     H 8776   5.797   4.743   8.520  1.9391  0.2489 -0.8124
  806MOL0     H 8777   5.728   4.881   8.427  1.7920  0.7096  0.0441
  806MOL0     H 8778   5.904   5.030   8.486 -0.8515  0.1284  0.4009
  806MOL0     H 8779   5.997   4.912   8.575 -0.1971  2.1389  1.5684
  806MOL0     H 8780   6.079   4.952   8.336 -1.3804  0.7725 -1.3328
  806MOL0     H 8781   5.921   4.876   8.282 -1.4409  3.0950  0.4232
  806MOL0     H 8782   5.985   4.659   8.375 -1.4559  1.6919  2.3195
  806MOL0     H 8783   6.111   4.727   8.467  0.7255  0.3235 -0.5688
  806MOL0     H 8784   6.237   4.769   8.255  0.1757 -0.8126  0.4558
  806MOL0     H 8785   6.213   4.591   8.290 -0.2168 -0.8194  0.9929
  806MOL0     H 8786   6.026   4.752   8.111 -1.6163 -0.8877 -1.5163
  806MOL0     H 8787   6.049   4.570   8.131 -0.0216  0.9157  0.5930
  806MOL0     H 8788   6.153   4.689   7.912  0.5475  0.7158 -0.1118
  806MOL0     H 8789   6.275   4.743   8.036  2.7285 -0.6780 -3.8640
  806MOL0     H 8790   5.669   5.039   8.873 -0.4022  0.1419 -0.9343
  806MOL0     H 8791   5.498   5.091   9.043 -0.7068  1.6478 -1.7576
  806MOL0     H 8792   5.023   5.173   9.209 -2.4090 -2.4159 -1.6433
  806MOL0     H 8793   4.910   5.182   9.423  0.9302  0.5539 -1.0060
  806MOL0     H 8794   4.033   5.459  10.360  1.3062  0.1764  0.0079
  806MOL0     H 8795   4.024   5.691  10.324  3.2000  2.6162  0.3709
  806MOL0     H 8796   4.064   6.011   9.983  2.4667  1.3812  2.6610
  806MOL0     H 8797   3.864   6.133   9.885  0.6682 -0.3119 -0.6479
  806MOL0     H 8798   3.682   6.199   9.833 -2.4230 -0.2026 -0.9555
  806MOL0     H 8799   3.664   6.372   9.855 -2.0759 -0.8112 -1.1821
  806MOL0     H 8800   3.426   6.306   9.941  0.4216 -1.3551  2.0630
  806MOL0     H 8801   3.462   6.146   9.928  0.9125 -0.9740 -1.7499
  806MOL0     H 8802   3.478   6.146   9.690 -0.8420  1.1897 -3.3928
  806MOL0     H 8803   3.485   6.326   9.684 -2.6562 -0.6644 -2.6390
  806MOL0     H 8804   3.236   6.182   9.770  0.3483  0.6072 -0.6694
  806MOL0     H 8805   3.280   6.356   9.790 -0.0450 -0.1203  0.9043
  806MOL0     H 8806   3.173   6.388   9.397 -3.4264 -1.3045 -0.6367
  806MOL0     H 8807   3.689   6.141  10.274  1.2358 -2.1473  2.4874
  806MOL0     H 8808   3.908   5.896  10.419 -0.7426 -0.8598 -2.8022
  806MOL0     H 8809   3.933   6.063  10.451  1.8485 -0.7823 -1.9739
  806MOL0     H 8810   3.760   5.983  10.429 -0.2950 -1.0111  0.5344
  807MOL0     O 8811   2.160   2.999   4.871 -0.2591  0.1023  0.6344
  807MOL0     C 8812   2.123   2.881   4.878 -0.2448  0.5450  0.1634
  807MOL0     O 8813   2.202   2.775   4.861 -0.6456  0.0195  0.1914
  807MOL0     C 8814   2.329   2.791   4.805 -0.4436 -0.7112  0.6718
  807MOL0     C 8815   2.375   2.896   4.719  0.1737 -0.1646 -0.7272
  807MOL0     C 8816   2.504   2.894   4.670  0.3986  0.0675  0.9136
  807MOL0     C 8817   2.594   2.794   4.701  0.1201 -0.5145  0.7053
  807MOL0     O 8818   2.724   2.790   4.664 -0.0053  0.1394  0.4829
  807MOL0     C 8819   2.767   2.883   4.570  1.1787 -0.4184 -0.4405
  807MOL0     C 8820   2.919   2.850   4.545 -0.3168 -0.3656  0.2808
  807MOL0     C 8821   2.948   2.726   4.465  0.0017  0.8961  0.4829
  807MOL0     C 8822   2.966   2.605   4.547 -0.4986  0.2260  0.6103
  807MOL0     C 8823   2.997   2.478   4.475 -0.1341  0.2503  0.7273
  807MOL0     C 8824   3.141   2.475   4.411 -0.2899 -0.0849  0.8134
  807MOL0     C 8825   3.172   2.340   4.348 -0.3368  0.6237 -0.3759
  807MOL0     C 8826   3.319   2.338   4.290 -0.4340  0.2537 -1.0948
  807MOL0     N 8827   3.423   2.343   4.394 -0.0301  0.3923  0.6859
  807MOL0     C 8828   3.406   2.294   4.523 -0.2623 -0.3238 -0.7924
  807MOL0     C 8829   3.530   2.275   4.576 -0.1320 -0.4186 -0.3344
  807MOL0     C 8830   3.569   2.241   4.720  0.8193 -1.6120 -0.3581
  807MOL0     C 8831   3.579   2.385   4.790 -0.6910 -0.1281  0.1299
  807MOL0     C 8832   3.644   2.366   4.933  0.2250 -0.4003  0.5461
  807MOL0     C 8833   3.740   2.246   4.954 -0.4678  0.2753  0.5473
  807MOL0     O 8834   3.774   2.242   5.086 -0.5012  0.3883 -0.6763
  807MOL0     C 8835   3.900   2.201   5.120  0.0142 -0.6647 -0.3888
  807MOL0     C 8836   3.919   2.079   5.175 -0.2330 -0.2918  0.0846
  807MOL0     C 8837   4.050   2.022   5.192  0.0779 -0.2226  0.2438
  807MOL0     C 8838   4.167   2.096   5.145  0.3837  0.9958  0.0494
  807MOL0     C 8839   4.303   2.029   5.157  0.9514  0.7006 -0.0270
  807MOL0     O 8840   4.407   2.096   5.100  0.1349 -0.0350  0.6696
  807MOL0     C 8841   4.537   2.049   5.121  1.0189  0.2454  0.5815
  807MOL0     C 8842   4.588   1.955   5.219 -0.1403 -0.2615 -0.1057
  807MOL0     C 8843   4.725   1.914   5.213 -0.4305 -0.5812 -0.4908
  807MOL0     C 8844   4.812   1.979   5.124  0.8194  0.1137 -0.4005
  807MOL0     O 8845   4.949   1.962   5.134 -0.0518  0.7352  0.4864
  807MOL0     C 8846   5.009   1.955   5.260 -0.2563  0.2518  0.0324
  807MOL0     C 8847   5.164   1.942   5.256 -0.9959  0.2562 -0.2859
  807MOL0     C 8848   5.237   2.077   5.228  0.8808 -0.2430  0.0785
  807MOL0     C 8849   5.381   2.070   5.228  0.0528  0.4597  0.3018
  807MOL0     C 8850   5.445   2.208   5.189  0.6287  0.0551 -0.3187
  807MOL0     C 8851   5.572   2.233   5.271  0.1333  0.5226  1.5949
  807MOL0     C 8852   5.554   2.275   5.415 -0.6622  0.4784 -1.0909
  807MOL0     C 8853   5.643   2.194   5.495 -0.4481 -0.3468 -0.1371
  807MOL0    Cl 8854   5.812   2.200   5.447 -0.1080  0.4018 -0.5353
  807MOL0     C 8855   4.761   2.068   5.028 -0.5822 -0.6970 -0.7982
  807MOL0     C 8856   4.632   2.100   5.034 -1.0876 -0.3999  0.2612
  807MOL0     O 8857   4.304   1.913   5.196 -0.6943  0.1829 -0.0284
  807MOL0     C 8858   4.145   2.228   5.099 -0.2170 -0.0960  0.0797
  807MOL0     C 8859   4.013   2.278   5.098 -0.1974 -0.1359  1.0682
  807MOL0     N 8860   3.617   2.323   4.478 -0.2060  0.2162  0.4079
  807MOL0     N 8861   3.553   2.356   4.368  0.6196  0.0027 -0.2418
  807MOL0     C 8862   2.550   2.693   4.787 -0.3839 -0.4192  0.4757
  807MOL0     C 8863   2.424   2.695   4.840  0.2806  0.4666  0.1840
  807MOL0     C 8864   1.991   2.835   4.889  0.8813  0.3734  0.6002
  807MOL0     C 8865   1.931   2.783   4.775 -0.4797 -0.5257  0.7775
  807MOL0     C 8866   1.810   2.723   4.786  0.7941 -0.3795 -0.3611
  807MOL0     C 8867   1.732   2.727   4.897 -0.1425  0.2219 -0.5175
  807MOL0     O 8868   1.604   2.699   4.900 -0.9001 -0.2033  0.5593
  807MOL0     C 8869   1.556   2.572   4.940  0.5498 -0.2515  1.6139
  807MOL0     C 8870   1.610   2.501   5.070  0.4739 -0.8752  0.0998
  807MOL0     C 8871   1.533   2.364   5.077 -0.0206  0.4741 -0.6765
  807MOL0     C 8872   1.512   2.309   5.220  0.2128  0.1385  1.1693
  807MOL0     C 8873   1.405   2.373   5.306  0.5242  0.6904 -0.1262
  807MOL0     C 8874   1.322   2.427   5.376  0.3583  0.3250 -0.6182
  807MOL0     C 8875   1.784   2.787   5.018 -0.8145 -0.1077  0.6337
  807MOL0     C 8876   1.918   2.843   5.011 -0.5447  1.4178 -0.0928
  807MOL0     C 8877   1.968   2.899   5.136 -0.4541  0.5789  0.5349
  807MOL0     H 8878   2.309   2.970   4.674  2.6311  1.9240 -1.0758
  807MOL0     H 8879   2.512   2.975   4.598 -0.2895 -0.3444  0.3624
  807MOL0     H 8880   2.704   2.883   4.481  0.6248 -1.0791 -0.0549
  807MOL0     H 8881   2.767   2.985   4.610  0.7777  0.6313 -2.8983
  807MOL0     H 8882   2.969   2.844   4.642  0.1191  2.5773  0.3381
  807MOL0     H 8883   2.972   2.933   4.497 -1.9706  0.4098 -0.3046
  807MOL0     H 8884   3.035   2.750   4.403 -0.9820 -0.8322 -1.6766
  807MOL0     H 8885   2.864   2.708   4.399 -0.8414 -0.5334  1.8667
  807MOL0     H 8886   3.044   2.621   4.622  0.6205 -4.0601  0.6354
  807MOL0     H 8887   2.880   2.589   4.614 -1.1861  1.0061 -0.0669
  807MOL0     H 8888   2.995   2.402   4.554 -1.7547  0.6648  1.1420
  807MOL0     H 8889   2.931   2.458   4.390  2.2448  0.2119 -1.2167
  807MOL0     H 8890   3.144   2.545   4.327 -2.2530 -0.1202  0.6673
  807MOL0     H 8891   3.219   2.512   4.479  0.1242  2.2959 -0.8223
  807MOL0     H 8892   3.096   2.313   4.274  0.8403 -2.3771 -0.6230
  807MOL0     H 8893   3.171   2.260   4.422  0.3284 -1.9937 -3.0074
  807MOL0     H 8894   3.323   2.247   4.229  3.8750  0.8197 -1.9668
  807MOL0     H 8895   3.345   2.415   4.217 -0.1982 -0.8787 -2.2366
  807MOL0     H 8896   3.310   2.275   4.570 -0.5466  2.6954  0.0385
  807MOL0     H 8897   3.499   2.169   4.763  2.6679 -3.4398 -0.2661
  807MOL0     H 8898   3.661   2.183   4.717  1.3315 -0.7998 -0.7111
  807MOL0     H 8899   3.647   2.439   4.725  1.1669  0.4847  2.4605
  807MOL0     H 8900   3.481   2.433   4.789 -1.4792 -1.6148 -2.2255
  807MOL0     H 8901   3.560   2.351   5.002 -0.0345  1.3027  0.6448
  807MOL0     H 8902   3.699   2.460   4.943  2.6660 -1.6812 -0.0009
  807MOL0     H 8903   3.826   2.255   4.888 -1.5679 -0.8034 -1.0973
  807MOL0     H 8904   3.692   2.153   4.922  0.2177 -0.6320  2.0157
  807MOL0     H 8905   3.834   2.011   5.174 -0.4819  0.0073 -1.3258
  807MOL0     H 8906   4.064   1.921   5.228  1.4158  1.0309  3.6442
  807MOL0     H 8907   4.531   1.894   5.288 -0.1550 -1.2243 -0.9391
  807MOL0     H 8908   4.757   1.840   5.285 -0.0904 -2.0507 -2.1021
  807MOL0     H 8909   4.984   2.044   5.319  0.4111 -0.1405  0.9247
  807MOL0     H 8910   4.959   1.876   5.317 -1.4846  0.1906 -1.0798
  807MOL0     H 8911   5.192   1.902   5.354 -4.6012 -1.1652  0.3159
  807MOL0     H 8912   5.197   1.865   5.186  0.8658 -1.9998  2.8194
  807MOL0     H 8913   5.213   2.101   5.124 -0.9210 -0.8103  0.3314
  807MOL0     H 8914   5.202   2.142   5.308  0.7367  1.1956 -1.1125
  807MOL0     H 8915   5.419   1.994   5.158 -0.6484  0.2187  0.1685
  807MOL0     H 8916   5.410   2.035   5.327  0.6015 -2.9183 -0.8952
  807MOL0     H 8917   5.370   2.285   5.203  0.2420 -0.0135 -1.8868
  807MOL0     H 8918   5.467   2.204   5.082 -2.2903  3.3906 -1.1950
  807MOL0     H 8919   5.626   2.141   5.245 -1.8039  0.5380 -3.5321
  807MOL0     H 8920   5.624   2.310   5.214 -0.0844 -2.1070 -2.5825
  807MOL0     H 8921   5.450   2.265   5.448 -0.1954  0.2637  0.3761
  807MOL0     H 8922   5.575   2.381   5.427  0.9189 -0.1365  3.2599
  807MOL0     H 8923   5.630   2.245   5.591  1.7256  3.7510 -1.7609
  807MOL0     H 8924   5.620   2.091   5.523 -1.8775 -0.6727 -2.2883
  807MOL0     H 8925   4.820   2.126   4.959 -0.9649  1.5254  0.6459
  807MOL0     H 8926   4.615   2.183   4.967 -0.2298 -0.5811 -0.1863
  807MOL0     H 8927   4.234   2.282   5.069 -0.5419  1.1252  1.2518
  807MOL0     H 8928   4.011   2.371   5.043  4.2319 -0.3377  0.1520
  807MOL0     H 8929   2.610   2.616   4.833 -1.3733 -0.4887  1.7095
  807MOL0     H 8930   2.390   2.626   4.916 -0.1649 -0.0300 -0.4633
  807MOL0     H 8931   1.989   2.784   4.684 -0.9814 -2.4767  0.3994
  807MOL0     H 8932   1.762   2.679   4.699 -2.7597  0.3575  1.0820
  807MOL0     H 8933   1.579   2.503   4.858  0.4674 -1.1064  2.2933
  807MOL0     H 8934   1.448   2.583   4.937  0.4889 -1.0128  0.0276
  807MOL0     H 8935   1.583   2.574   5.147  0.9000  0.2345 -0.7580
  807MOL0     H 8936   1.718   2.484   5.073  0.3003 -2.0201  0.0198
  807MOL0     H 8937   1.571   2.292   5.004 -3.5173 -2.2066 -0.1232
  807MOL0     H 8938   1.429   2.387   5.054  0.2272  1.9853 -0.4014
  807MOL0     H 8939   1.496   2.201   5.217 -0.6133  0.2621 -2.1682
  807MOL0     H 8940   1.609   2.317   5.270  0.7316 -4.1123  1.2062
  807MOL0     H 8941   1.241   2.455   5.441 -0.9398 -3.1544 -0.4966
  807MOL0     H 8942   1.738   2.791   5.116 -0.1506 -1.9248  1.0667
  807MOL0     H 8943   1.953   2.835   5.223  5.0983 -3.5851 -0.9882
  807MOL0     H 8944   2.075   2.922   5.129  0.1289 -2.1586 -1.1988
  807MOL0     H 8945   1.922   2.996   5.156  3.2828  2.8940 -1.0077
  808MOL0     O 8946  10.558   3.513   8.496 -0.0974 -0.6280 -0.5592
  808MOL0     C 8947  10.446   3.475   8.466 -0.6157 -0.0021  0.3020
  808MOL0     O 8948  10.401   3.345   8.472 -0.3681  0.0291 -0.0279
  808MOL0     C 8949  10.477   3.231   8.474  0.0212 -0.2262  0.1572
  808MOL0     C 8950  10.418   3.124   8.414  0.7323 -0.1417  0.2836
  808MOL0     C 8951  10.483   2.998   8.404  0.6196  0.3778 -0.3851
  808MOL0     C 8952  10.610   2.988   8.467  0.9482  1.1014  0.0115
  808MOL0     O 8953  10.668   2.861   8.468 -0.9980  0.1672  0.3627
  808MOL0     C 8954  10.595   2.776   8.560 -0.1586  0.1361  0.6522
  808MOL0     C 8955  10.667   2.725   8.685 -0.0754 -0.9307 -0.3071
  808MOL0     C 8956  10.811   2.681   8.660 -0.3925 -0.9822 -0.2153
  808MOL0     C 8957  10.874   2.639   8.784  0.1747  0.4492  0.1661
  808MOL0     C 8958  11.014   2.604   8.768 -0.8696  0.3793 -0.1290
  808MOL0     C 8959  11.104   2.726   8.721 -0.6261  0.0870 -0.5718
  808MOL0     C 8960  11.251   2.721   8.748 -0.2687  0.5440  0.2463
  808MOL0     C 8961  11.332   2.639   8.643 -0.6374  0.6912  0.1459
  808MOL0     N 8962  11.343   2.702   8.511 -0.5537 -0.2223 -0.0693
  808MOL0     C 8963  11.398   2.641   8.407  0.7471  0.4280 -0.5223
  808MOL0     C 8964  11.379   2.739   8.320  0.6028  0.4267  0.5637
  808MOL0     C 8965  11.429   2.739   8.176  0.3343 -0.5673  0.3303
  808MOL0     C 8966  11.343   2.651   8.082 -0.5386  1.1989  0.3341
  808MOL0     C 8967  11.422   2.601   7.960  0.1521  0.5266  1.3669
  808MOL0     C 8968  11.339   2.496   7.878  0.6488 -0.4399 -1.1699
  808MOL0     O 8969  11.413   2.459   7.762 -0.5776 -0.9188 -0.5565
  808MOL0     C 8970  11.362   2.375   7.671  0.3012  0.2364  0.0551
  808MOL0     C 8971  11.421   2.362   7.548 -0.3466  0.4455 -0.2410
  808MOL0     C 8972  11.387   2.261   7.455 -0.1601  0.3082 -0.4863
  808MOL0     C 8973  11.272   2.187   7.485  0.7893 -0.5762 -0.3895
  808MOL0     C 8974  11.230   2.086   7.387  0.5415 -1.2598  0.6339
  808MOL0     O 8975  11.135   1.997   7.420  0.1151  0.5427 -0.0574
  808MOL0     C 8976  11.072   1.904   7.331  0.0518 -0.1225  0.1328
  808MOL0     C 8977  11.086   1.912   7.191 -0.9323 -0.0244 -0.4688
  808MOL0     C 8978  11.049   1.800   7.120  0.5565  0.3822  0.2413
  808MOL0     C 8979  10.987   1.679   7.173 -0.1545  0.3261  0.8733
  808MOL0     O 8980  10.938   1.568   7.103 -0.2188 -0.0148  0.0951
  808MOL0     C 8981  10.903   1.603   6.965  0.7263  0.4200  0.2412
  808MOL0     C 8982  10.868   1.466   6.906  0.2766  0.1928 -0.3689
  808MOL0     C 8983  10.736   1.406   6.935  1.2242 -0.3131  0.0351
  808MOL0     C 8984  10.742   1.323   7.063 -0.1750  0.2605 -0.2133
  808MOL0     C 8985  10.618   1.245   7.092 -0.4135 -0.1484  0.5613
  808MOL0     C 8986  10.633   1.151   7.215 -0.3262 -0.4286  0.6548
  808MOL0     C 8987  10.722   1.028   7.183  0.6884  0.5670 -0.0504
  808MOL0     C 8988  10.703   0.926   7.303 -0.3291  0.8174  1.0453
  808MOL0    Cl 8989  10.780   0.774   7.248  0.2422 -0.3809  0.4162
  808MOL0     C 8990  10.951   1.686   7.303 -0.5510 -0.5419 -0.6558
  808MOL0     C 8991  11.003   1.790   7.385 -1.4474  0.1972 -0.8890
  808MOL0     O 8992  11.293   2.085   7.289  0.2148 -0.3271  0.4549
  808MOL0     C 8993  11.204   2.195   7.609 -0.3474  0.0159 -0.2623
  808MOL0     C 8994  11.258   2.285   7.701 -0.5759 -0.5767  0.1552
  808MOL0     N 8995  11.331   2.855   8.377  0.0265 -0.0208  0.1782
  808MOL0     N 8996  11.321   2.836   8.500  0.9176  0.4718  0.4647
  808MOL0     C 8997  10.669   3.095   8.530 -0.0758 -0.2439  0.4015
  808MOL0     C 8998  10.604   3.215   8.526  0.3340 -0.6121 -0.8012
  808MOL0     C 8999  10.351   3.580   8.435  0.3665  0.2303  0.2162
  808MOL0     C 9000  10.227   3.542   8.374  0.7469 -0.0609  0.2114
  808MOL0     C 9001  10.133   3.631   8.332 -1.4027 -0.8856 -0.3872
  808MOL0     C 9002  10.148   3.770   8.353 -1.2424  0.0146  0.1793
  808MOL0     O 9003  10.048   3.848   8.307 -0.2290 -0.2147  0.4572
  808MOL0     C 9004  10.092   3.981   8.269  0.5281 -0.1808 -0.0926
  808MOL0     C 9005   9.960   4.058   8.230 -0.0544  0.9303 -0.7387
  808MOL0     C 9006   9.882   4.098   8.361  0.1356 -0.0161 -0.3464
  808MOL0     C 9007   9.913   4.236   8.409  0.1956  2.0483 -0.1027
  808MOL0     C 9008   9.809   4.326   8.367 -1.2394  0.4462  0.8893
  808MOL0     C 9009   9.724   4.392   8.314  0.4103  0.7116  0.9329
  808MOL0     C 9010  10.259   3.818   8.416 -0.4506 -0.3048 -0.7992
  808MOL0     C 9011  10.360   3.722   8.453  1.0009 -0.2639 -1.7226
  808MOL0     C 9012  10.480   3.783   8.521 -0.1503 -0.2472  0.3522
  808MOL0     H 9013  10.322   3.135   8.363  1.6066 -2.1951 -2.0077
  808MOL0     H 9014  10.428   2.926   8.343 -1.5581  2.9852 -1.7036
  808MOL0     H 9015  10.505   2.819   8.605 -1.4198  0.3269 -1.8714
  808MOL0     H 9016  10.557   2.687   8.509 -0.4180  0.4332  0.3234
  808MOL0     H 9017  10.608   2.638   8.714 -1.7677  0.0238 -0.7234
  808MOL0     H 9018  10.653   2.792   8.771 -0.4315 -2.3799  0.7950
  808MOL0     H 9019  10.854   2.766   8.607 -2.0422  0.7543  1.0902
  808MOL0     H 9020  10.810   2.599   8.588 -2.7623 -0.7019 -0.6036
  808MOL0     H 9021  10.853   2.709   8.865 -2.8681 -2.5063  2.2189
  808MOL0     H 9022  10.817   2.556   8.827 -1.0324  2.7879  3.3997
  808MOL0     H 9023  11.048   2.569   8.866 -1.3200 -2.4068 -0.8556
  808MOL0     H 9024  11.035   2.520   8.700 -0.8365  1.9882 -2.2131
  808MOL0     H 9025  11.090   2.734   8.613  0.1929 -0.9370 -0.7650
  808MOL0     H 9026  11.074   2.824   8.758 -0.9776  0.8915 -2.8004
  808MOL0     H 9027  11.275   2.674   8.844  0.3917 -1.0978 -0.6810
  808MOL0     H 9028  11.300   2.819   8.743  2.5347 -0.7846 -0.3599
  808MOL0     H 9029  11.435   2.627   8.676 -0.8304  0.9119  0.8449
  808MOL0     H 9030  11.285   2.541   8.631 -4.5326  2.4179 -0.2651
  808MOL0     H 9031  11.442   2.542   8.400 -1.3699 -0.4411 -4.1932
  808MOL0     H 9032  11.437   2.840   8.135  1.3705 -0.5161  0.6173
  808MOL0     H 9033  11.534   2.707   8.183  0.7264  0.1146 -1.7276
  808MOL0     H 9034  11.319   2.557   8.133  0.9245 -0.1675 -1.3882
  808MOL0     H 9035  11.253   2.705   8.053 -0.1894 -0.2917 -4.3156
  808MOL0     H 9036  11.516   2.555   7.993 -0.2966  1.4114  4.1269
  808MOL0     H 9037  11.450   2.684   7.894 -1.5486 -1.5986 -2.4015
  808MOL0     H 9038  11.251   2.552   7.845  1.3562  3.6958  2.9335
  808MOL0     H 9039  11.331   2.405   7.939  1.6390  1.8184  2.6957
  808MOL0     H 9040  11.501   2.429   7.520  2.6632 -1.1817  3.4731
  808MOL0     H 9041  11.432   2.256   7.357 -1.3023 -0.1794 -1.0037
  808MOL0     H 9042  11.112   2.007   7.144 -0.5879  0.1442  0.0558
  808MOL0     H 9043  11.064   1.809   7.013 -1.2272  0.9194 -0.0008
  808MOL0     H 9044  10.817   1.670   6.954  1.7432  1.4805 -1.6162
  808MOL0     H 9045  10.987   1.646   6.910 -1.8704  2.4547 -2.4646
  808MOL0     H 9046  10.872   1.474   6.797 -1.9961 -2.1696 -0.6976
  808MOL0     H 9047  10.939   1.389   6.939 -1.6419 -1.6932 -0.4740
  808MOL0     H 9048  10.665   1.488   6.950 -0.3106 -1.7906  1.2835
  808MOL0     H 9049  10.709   1.343   6.849  2.3232  0.5742 -0.9827
  808MOL0     H 9050  10.773   1.382   7.150  2.7200 -0.8428 -0.4092
  808MOL0     H 9051  10.832   1.262   7.060 -0.7211 -0.5558 -0.1649
  808MOL0     H 9052  10.585   1.196   7.000 -0.5788  0.6345  0.1988
  808MOL0     H 9053  10.538   1.318   7.109 -1.1477 -0.1760 -2.2466
  808MOL0     H 9054  10.698   1.204   7.286  2.4630 -0.8610 -1.3876
  808MOL0     H 9055  10.538   1.128   7.263  1.2598 -3.1930  2.7640
  808MOL0     H 9056  10.827   1.059   7.191  1.2176 -0.6336 -1.6705
  808MOL0     H 9057  10.701   0.977   7.088  0.6809 -2.9237  1.6889
  808MOL0     H 9058  10.740   0.969   7.396  0.8969  0.2868  0.8164
  808MOL0     H 9059  10.599   0.898   7.322  0.0997  0.2227  2.6377
  808MOL0     H 9060  10.902   1.601   7.349  3.6900 -2.0501  1.7383
  808MOL0     H 9061  10.973   1.777   7.488 -1.5813  0.8097 -0.8445
  808MOL0     H 9062  11.114   2.138   7.626 -0.1675  0.4451  2.4687
  808MOL0     H 9063  11.214   2.270   7.800 -2.1897  0.0414 -0.4252
  808MOL0     H 9064  10.760   3.073   8.585 -0.0813 -4.0950 -0.8536
  808MOL0     H 9065  10.643   3.305   8.573  0.3988 -0.5806 -0.9123
  808MOL0     H 9066  10.210   3.437   8.355  0.0263  0.0402  0.2557
  808MOL0     H 9067  10.039   3.603   8.285 -3.4910  2.7541  1.2158
  808MOL0     H 9068  10.161   3.993   8.186 -0.0644 -0.1931 -0.5980
  808MOL0     H 9069  10.120   4.044   8.354 -1.0793  0.5182 -0.0371
  808MOL0     H 9070   9.900   3.990   8.169  0.8390 -0.8330  0.2456
  808MOL0     H 9071   9.991   4.148   8.176 -0.2155  0.7105 -1.2025
  808MOL0     H 9072   9.895   4.030   8.446 -0.3093  0.2876 -0.0332
  808MOL0     H 9073   9.776   4.097   8.335 -0.1242  1.1804  0.6102
  808MOL0     H 9074   9.921   4.243   8.518 -3.8036  1.1902  0.4016
  808MOL0     H 9075  10.006   4.271   8.363 -1.2357  4.0379 -1.6399
  808MOL0     H 9076   9.652   4.441   8.252 -0.1085 -1.2643 -0.0815
  808MOL0     H 9077  10.267   3.925   8.438 -0.0910 -0.5174  0.1733
  808MOL0     H 9078  10.570   3.768   8.461 -0.4059  2.1063 -0.7586
  808MOL0     H 9079  10.465   3.892   8.526  0.8337 -0.1664  2.6085
  808MOL0     H 9080  10.488   3.747   8.624 -1.2533 -2.1796 -0.2075
  809MOL0     O 9081   3.583   4.613   4.868  0.1087 -0.9987  0.6723
  809MOL0     C 9082   3.471   4.634   4.816 -0.4231 -0.4107 -0.8448
  809MOL0     O 9083   3.442   4.735   4.725  0.6668 -0.0040  0.0775
  809MOL0     C 9084   3.542   4.794   4.647  0.1265 -0.6886 -0.9898
  809MOL0     C 9085   3.504   4.869   4.536  0.5529 -0.1174  0.0979
  809MOL0     C 9086   3.600   4.943   4.457  0.9669  0.3732 -0.5086
  809MOL0     C 9087   3.734   4.945   4.480  1.0790  0.7252  0.6489
  809MOL0     O 9088   3.823   5.010   4.394  0.0777 -0.3540 -0.3630
  809MOL0     C 9089   3.964   4.994   4.423 -0.4671 -0.0025  0.1338
  809MOL0     C 9090   4.021   5.067   4.303 -0.6832 -0.0540  0.7206
  809MOL0     C 9091   4.171   5.113   4.314 -0.2797  1.0222 -0.6508
  809MOL0     C 9092   4.263   4.989   4.337  0.2317  0.7309 -0.2258
  809MOL0     C 9093   4.402   5.034   4.324 -0.8064 -0.1441  0.2752
  809MOL0     C 9094   4.502   4.915   4.351 -1.2660 -0.8230  0.2009
  809MOL0     C 9095   4.648   4.965   4.366  0.1720  0.7097 -0.5224
  809MOL0     C 9096   4.722   4.866   4.460  0.5198 -0.9553  0.0288
  809MOL0     N 9097   4.742   4.749   4.369  0.3535 -0.1443  0.3727
  809MOL0     C 9098   4.821   4.735   4.260 -0.1494 -0.2579  0.2658
  809MOL0     C 9099   4.773   4.630   4.185  0.1573 -0.7621 -0.5254
  809MOL0     C 9100   4.810   4.578   4.056 -0.6524 -0.6271  0.0990
  809MOL0     C 9101   4.727   4.659   3.940 -0.4382 -0.0333  0.1920
  809MOL0     C 9102   4.590   4.596   3.904 -0.9754 -0.3895 -0.1114
  809MOL0     C 9103   4.518   4.673   3.798  0.1020 -0.4470  0.2745
  809MOL0     O 9104   4.388   4.623   3.776 -0.6009 -0.0345 -0.6607
  809MOL0     C 9105   4.320   4.641   3.659  0.4577  0.3444 -0.7376
  809MOL0     C 9106   4.198   4.712   3.644 -1.2076 -0.3979  0.8224
  809MOL0     C 9107   4.124   4.697   3.531 -0.0537 -0.1764 -0.5331
  809MOL0     C 9108   4.168   4.621   3.423 -0.6317  0.3060  0.4583
  809MOL0     C 9109   4.090   4.611   3.293  0.0860  0.3854  0.2702
  809MOL0     O 9110   3.962   4.672   3.282  0.3182  0.2040 -1.2010
  809MOL0     C 9111   3.916   4.669   3.150  1.0189  0.3253  0.5083
  809MOL0     C 9112   3.775   4.671   3.150 -0.1729 -0.1554 -0.4606
  809MOL0     C 9113   3.697   4.675   3.037 -0.3863 -0.1107  0.5738
  809MOL0     C 9114   3.767   4.690   2.911 -0.2655 -0.2722 -0.0282
  809MOL0     O 9115   3.711   4.685   2.788  0.1655 -0.8325  0.2665
  809MOL0     C 9116   3.583   4.612   2.766  0.1999  0.2798  0.3053
  809MOL0     C 9117   3.509   4.665   2.644  1.0565  0.1454  0.1243
  809MOL0     C 9118   3.462   4.808   2.678  0.2082 -0.5766  0.0167
  809MOL0     C 9119   3.415   4.878   2.550 -0.8953 -0.3790 -1.0245
  809MOL0     C 9120   3.403   5.030   2.571 -0.1022  0.7396 -0.8434
  809MOL0     C 9121   3.377   5.098   2.441  0.0893  1.2812  0.0259
  809MOL0     C 9122   3.315   5.233   2.451  0.2101 -0.2909  0.2090
  809MOL0     C 9123   3.260   5.287   2.320 -0.5197  0.3150  0.7533
  809MOL0    Cl 9124   3.096   5.205   2.273 -0.0697 -0.0964 -0.0884
  809MOL0     C 9125   3.911   4.706   2.913  0.3549  0.5521 -0.0376
  809MOL0     C 9126   3.983   4.686   3.031 -0.0826 -0.6234  0.2073
  809MOL0     O 9127   4.148   4.544   3.206 -0.1993  0.7773  0.6742
  809MOL0     C 9128   4.292   4.549   3.435 -0.0280  0.3245  0.3877
  809MOL0     C 9129   4.360   4.561   3.555  1.0466 -0.2642 -0.0021
  809MOL0     N 9130   4.665   4.576   4.258  0.5771 -0.1693  0.7211
  809MOL0     N 9131   4.648   4.649   4.359 -0.8220 -0.1327 -0.6809
  809MOL0     C 9132   3.768   4.863   4.592 -0.7204  0.0267 -0.7009
  809MOL0     C 9133   3.679   4.781   4.670 -0.5806 -0.5027 -0.0400
  809MOL0     C 9134   3.349   4.549   4.856 -1.1723  0.6425 -0.2477
  809MOL0     C 9135   3.347   4.503   4.991 -0.0444 -0.2415 -0.2690
  809MOL0     C 9136   3.245   4.432   5.048  0.2025 -0.2237 -0.2039
  809MOL0     C 9137   3.129   4.415   4.968 -0.2355  0.2618 -0.5526
  809MOL0     O 9138   3.024   4.344   5.028  0.1149  0.5832  1.0442
  809MOL0     C 9139   2.903   4.309   4.951 -0.0164 -0.7263  0.1455
  809MOL0     C 9140   2.783   4.359   5.040  0.1126 -0.0298 -0.2337
  809MOL0     C 9141   2.776   4.513   5.043 -0.1794 -0.1190  0.3621
  809MOL0     C 9142   2.691   4.558   5.166 -0.5424 -0.0202  0.0299
  809MOL0     C 9143   2.561   4.489   5.183  0.9100  0.1499  0.4323
  809MOL0     C 9144   2.450   4.444   5.197 -0.0727 -0.2068 -0.3224
  809MOL0     C 9145   3.135   4.463   4.839  0.1940  1.1222  0.4179
  809MOL0     C 9146   3.246   4.525   4.777  0.0082  0.9413  0.6451
  809MOL0     C 9147   3.230   4.578   4.635 -0.2248 -0.3317  0.0829
  809MOL0     H 9148   3.400   4.873   4.507 -0.1464 -0.9660  2.2472
  809MOL0     H 9149   3.556   5.006   4.380  0.5106  0.8554  0.1316
  809MOL0     H 9150   3.987   5.051   4.514 -1.1881 -0.5922  0.7057
  809MOL0     H 9151   4.001   4.891   4.436  0.6611  0.6292  2.6439
  809MOL0     H 9152   3.973   5.165   4.292 -2.7053 -1.2291 -2.5711
  809MOL0     H 9153   4.005   5.013   4.209 -3.5150 -1.9284  2.1621
  809MOL0     H 9154   4.176   5.180   4.400 -1.1993  0.7107 -0.3320
  809MOL0     H 9155   4.203   5.168   4.225 -1.5826  1.8795 -0.6163
  809MOL0     H 9156   4.253   4.945   4.436  4.8316  0.6992  0.4399
  809MOL0     H 9157   4.240   4.903   4.273  4.8692 -0.8656 -0.1292
  809MOL0     H 9158   4.434   5.061   4.222  2.5894 -1.7364  0.7708
  809MOL0     H 9159   4.426   5.115   4.393 -0.0732 -0.8887  0.9222
  809MOL0     H 9160   4.476   4.864   4.444  1.7443  0.1110  1.6786
  809MOL0     H 9161   4.494   4.854   4.261 -1.0353 -1.5403  0.6562
  809MOL0     H 9162   4.648   5.060   4.419  2.4436 -0.0435  0.9511
  809MOL0     H 9163   4.692   4.973   4.266 -1.7481  2.4426 -1.3041
  809MOL0     H 9164   4.808   4.917   4.504 -0.9181 -0.6459  2.6558
  809MOL0     H 9165   4.665   4.840   4.549  1.3124  1.8118  1.4535
  809MOL0     H 9166   4.905   4.801   4.242  1.1340 -1.2144  2.3226
  809MOL0     H 9167   4.916   4.598   4.042 -0.7446  4.1581  3.8805
  809MOL0     H 9168   4.789   4.470   4.055  3.0464 -1.6635  3.8539
  809MOL0     H 9169   4.696   4.754   3.983 -1.7913 -0.8566  1.1191
  809MOL0     H 9170   4.787   4.676   3.849 -2.8433 -0.2049 -1.5135
  809MOL0     H 9171   4.528   4.602   3.994 -0.8788  1.1040 -0.1283
  809MOL0     H 9172   4.607   4.493   3.872 -2.2615 -0.9174  0.8012
  809MOL0     H 9173   4.575   4.668   3.705 -0.5747 -0.4306 -0.1461
  809MOL0     H 9174   4.507   4.780   3.818  2.6287  0.3735 -2.1919
  809MOL0     H 9175   4.174   4.782   3.723  1.7815 -0.3479  1.8218
  809MOL0     H 9176   4.044   4.770   3.537 -0.9899 -1.2596  0.9477
  809MOL0     H 9177   3.719   4.658   3.242 -1.9114  0.6055 -1.3734
  809MOL0     H 9178   3.592   4.655   3.053 -0.8842  2.7643  1.4420
  809MOL0     H 9179   3.615   4.510   2.743 -0.0810  0.1863  0.3272
  809MOL0     H 9180   3.514   4.615   2.851  0.2460 -2.2398  0.4942
  809MOL0     H 9181   3.583   4.668   2.563 -0.1726  1.3143 -1.0022
  809MOL0     H 9182   3.424   4.608   2.608  1.6731 -2.1035  1.9843
  809MOL0     H 9183   3.382   4.789   2.750  0.0955 -2.1064 -0.4810
  809MOL0     H 9184   3.533   4.868   2.737  0.4916 -0.4806 -0.4222
  809MOL0     H 9185   3.324   4.844   2.500 -1.6368  2.1376 -1.5625
  809MOL0     H 9186   3.497   4.865   2.479 -1.9711 -0.5400 -2.2631
  809MOL0     H 9187   3.487   5.081   2.619  0.5993 -1.1148  0.0014
  809MOL0     H 9188   3.318   5.043   2.638  0.9832 -0.1172  0.7435
  809MOL0     H 9189   3.468   5.098   2.380 -0.5490 -0.2437 -1.0094
  809MOL0     H 9190   3.303   5.037   2.388 -1.5258  4.8979 -2.2707
  809MOL0     H 9191   3.390   5.295   2.500  0.1197  0.9669 -1.1924
  809MOL0     H 9192   3.224   5.237   2.512  0.2954  1.3158  0.2750
  809MOL0     H 9193   3.238   5.394   2.326 -3.8079 -0.0293 -1.8129
  809MOL0     H 9194   3.328   5.288   2.234 -3.0042 -0.0087 -1.3707
  809MOL0     H 9195   3.965   4.712   2.819  1.6548  1.8309  0.7448
  809MOL0     H 9196   4.089   4.712   3.037 -0.6864  1.5997  3.1006
  809MOL0     H 9197   4.329   4.474   3.364 -0.5286  1.2880 -0.9349
  809MOL0     H 9198   4.450   4.502   3.564  0.3739 -1.2192  0.7093
  809MOL0     H 9199   3.871   4.873   4.624 -1.0835 -0.0977  0.5804
  809MOL0     H 9200   3.728   4.734   4.754  1.4069  2.2001  0.4550
  809MOL0     H 9201   3.434   4.525   5.051  0.1219 -1.6700  0.0349
  809MOL0     H 9202   3.245   4.391   5.148 -0.0784 -1.7868 -0.8303
  809MOL0     H 9203   2.891   4.200   4.941  0.3593 -0.7115 -0.4972
  809MOL0     H 9204   2.902   4.358   4.854  1.0574  0.5092  0.7381
  809MOL0     H 9205   2.774   4.307   5.136 -2.0563  0.1249 -0.3180
  809MOL0     H 9206   2.695   4.322   4.987 -2.0320  2.2719  1.4870
  809MOL0     H 9207   2.731   4.554   4.952 -2.9083 -1.5513  0.9430
  809MOL0     H 9208   2.868   4.567   5.067  1.0093 -2.6727  1.8941
  809MOL0     H 9209   2.756   4.554   5.254 -0.2548  0.5910 -0.1472
  809MOL0     H 9210   2.677   4.666   5.162 -1.4429 -0.1197  0.3604
  809MOL0     H 9211   2.360   4.388   5.213  1.2083 -1.5873  2.6099
  809MOL0     H 9212   3.052   4.451   4.769  1.6413 -0.8393 -1.0694
  809MOL0     H 9213   3.222   4.687   4.635  0.5862 -0.2546 -0.6956
  809MOL0     H 9214   3.307   4.550   4.562  0.8772  2.6069 -0.0000
  809MOL0     H 9215   3.130   4.545   4.604 -0.1896 -0.9024  0.5483
  810MOL0     O 9216   9.623   8.787   5.384  0.4853  0.6612 -0.8911
  810MOL0     C 9217   9.687   8.889   5.368 -0.7943 -0.8686 -0.7294
  810MOL0     O 9218   9.688   8.948   5.247  0.4988 -0.3193 -0.5733
  810MOL0     C 9219   9.627   8.908   5.141  0.8200  0.3013  0.7804
  810MOL0     C 9220   9.622   8.770   5.089 -0.7794 -0.3388 -0.2488
  810MOL0     C 9221   9.543   8.743   4.983 -0.8065  0.1498  0.2013
  810MOL0     C 9222   9.467   8.833   4.919  0.0420  0.9107  0.2768
  810MOL0     O 9223   9.383   8.799   4.825  0.3204  0.4706  0.6759
  810MOL0     C 9224   9.249   8.820   4.866 -1.1302 -0.2265  0.1200
  810MOL0     C 9225   9.183   8.683   4.895  0.3207  0.4099  0.2681
  810MOL0     C 9226   9.202   8.617   5.035 -0.6559  0.7487  0.0313
  810MOL0     C 9227   9.269   8.480   5.031  1.2059 -0.0214 -0.0125
  810MOL0     C 9228   9.291   8.430   5.172 -0.7769 -0.3616 -0.0923
  810MOL0     C 9229   9.395   8.497   5.259 -0.5794 -0.1000  1.3159
  810MOL0     C 9230   9.430   8.420   5.396 -1.5966 -0.3684  0.2027
  810MOL0     C 9231   9.526   8.503   5.483 -0.1104  0.3033  0.0169
  810MOL0     N 9232   9.559   8.437   5.610  0.6507  0.8773  0.1582
  810MOL0     C 9233   9.478   8.356   5.691  0.3435 -0.5464  0.6857
  810MOL0     C 9234   9.556   8.322   5.788  0.1193 -0.1864  0.0714
  810MOL0     C 9235   9.514   8.237   5.897  0.2779  0.7137  0.8092
  810MOL0     C 9236   9.508   8.321   6.023  0.9581  0.0632 -0.4464
  810MOL0     C 9237   9.503   8.247   6.167 -0.3892  0.0704 -0.0050
  810MOL0     C 9238   9.364   8.223   6.225 -0.6911 -0.4135 -0.1712
  810MOL0     O 9239   9.294   8.122   6.149  0.3083  0.8245 -0.3751
  810MOL0     C 9240   9.317   7.991   6.181 -0.4826  0.0877  0.2579
  810MOL0     C 9241   9.337   7.895   6.079  0.4775 -0.4868  0.0400
  810MOL0     C 9242   9.359   7.759   6.110 -0.7334  0.9536  0.3183
  810MOL0     C 9243   9.349   7.713   6.246  0.3119  0.0686  0.3916
  810MOL0     C 9244   9.350   7.573   6.290  0.2236  0.3487  0.0754
  810MOL0     O 9245   9.354   7.548   6.420  0.4611 -0.4910  0.4451
  810MOL0     C 9246   9.371   7.418   6.469 -0.2298 -0.1056  0.0809
  810MOL0     C 9247   9.469   7.412   6.567  1.0477 -0.5545 -0.2901
  810MOL0     C 9248   9.490   7.293   6.633  1.3530  0.3403 -0.6801
  810MOL0     C 9249   9.437   7.170   6.586 -0.3978  0.2748 -0.7417
  810MOL0     O 9250   9.472   7.052   6.643 -0.3028  0.4152  0.2750
  810MOL0     C 9251   9.573   7.043   6.745 -0.0175  0.3257  0.7392
  810MOL0     C 9252   9.596   6.891   6.759  1.0496 -0.5889  0.2607
  810MOL0     C 9253   9.677   6.833   6.644 -0.7499 -0.1975 -0.6689
  810MOL0     C 9254   9.809   6.762   6.696  0.0077 -0.3862  0.7268
  810MOL0     C 9255   9.810   6.620   6.746 -0.3631 -0.2970  0.1892
  810MOL0     C 9256   9.801   6.533   6.619  0.1179  0.5459 -0.8722
  810MOL0     C 9257   9.848   6.388   6.634 -0.2842  0.4623  0.5944
  810MOL0     C 9258   9.762   6.310   6.546 -0.4013  0.3970  0.1122
  810MOL0    Cl 9259   9.780   6.377   6.374 -0.3709  0.5124  0.4439
  810MOL0     C 9260   9.351   7.169   6.473  0.4109 -0.0424 -0.6118
  810MOL0     C 9261   9.313   7.298   6.423 -0.5076  0.1257 -0.2572
  810MOL0     O 9262   9.366   7.486   6.205  0.0409 -0.1844 -0.4102
  810MOL0     C 9263   9.315   7.811   6.344 -0.1959  0.7451  0.1114
  810MOL0     C 9264   9.303   7.945   6.310  0.9012  0.0782 -0.1469
  810MOL0     N 9265   9.690   8.374   5.764  0.0387  0.2406  0.2468
  810MOL0     N 9266   9.692   8.435   5.654  0.1611  0.3383  0.0259
  810MOL0     C 9267   9.466   8.970   4.952 -0.0446 -0.0398 -0.5848
  810MOL0     C 9268   9.547   9.010   5.065 -0.9832  0.2144 -0.2920
  810MOL0     C 9269   9.789   8.945   5.461 -0.0731  0.5682 -0.0684
  810MOL0     C 9270   9.826   9.079   5.447 -0.0578 -0.5397 -1.6970
  810MOL0     C 9271   9.922   9.134   5.538  0.6507 -0.3158 -0.3491
  810MOL0     C 9272   9.988   9.061   5.636 -0.1024  0.5463 -0.0500
  810MOL0     O 9273  10.061   9.136   5.719  0.1852  0.3908 -0.4514
  810MOL0     C 9274  10.169   9.063   5.773 -0.4603 -0.3298 -0.2580
  810MOL0     C 9275  10.236   9.160   5.874  0.2326 -0.3265  0.5620
  810MOL0     C 9276  10.147   9.195   5.990 -0.1398 -0.6252 -0.1126
  810MOL0     C 9277  10.215   9.286   6.094 -0.1766  1.4161  0.6359
  810MOL0     C 9278  10.248   9.420   6.033 -1.3588 -0.3894  0.2238
  810MOL0     C 9279  10.305   9.520   6.000  0.9985 -0.0137 -0.2794
  810MOL0     C 9280   9.952   8.926   5.649  0.4601 -0.1433 -0.9052
  810MOL0     C 9281   9.848   8.868   5.566  0.0669  0.1297  0.9175
  810MOL0     C 9282   9.815   8.726   5.605 -0.5560 -0.3534 -0.9832
  810MOL0     H 9283   9.671   8.693   5.148  1.2473  0.1357 -1.2165
  810MOL0     H 9284   9.538   8.641   4.948  2.8616 -0.5851  1.4017
  810MOL0     H 9285   9.241   8.886   4.953 -3.9199  1.0448 -0.9929
  810MOL0     H 9286   9.192   8.866   4.785 -1.3549  1.0944  0.9987
  810MOL0     H 9287   9.210   8.616   4.813  2.7625  1.1218  0.4180
  810MOL0     H 9288   9.076   8.708   4.892  0.6604  1.8639 -1.1502
  810MOL0     H 9289   9.100   8.608   5.074 -1.1674 -0.2158 -1.4335
  810MOL0     H 9290   9.254   8.688   5.099 -0.7784 -0.9136  2.0822
  810MOL0     H 9291   9.199   8.413   4.981 -1.7268  2.1037  0.9422
  810MOL0     H 9292   9.354   8.476   4.962  1.9258 -2.3009  0.9197
  810MOL0     H 9293   9.194   8.430   5.221 -2.6767  1.6049 -3.4949
  810MOL0     H 9294   9.319   8.326   5.152  0.3378 -0.0234 -0.3702
  810MOL0     H 9295   9.493   8.493   5.210  0.6567 -0.4662  3.6862
  810MOL0     H 9296   9.359   8.598   5.277 -1.9456 -0.2397 -0.3996
  810MOL0     H 9297   9.477   8.323   5.375  3.5003  1.9290 -0.5185
  810MOL0     H 9298   9.334   8.414   5.448  0.1992  0.8752  4.0348
  810MOL0     H 9299   9.620   8.523   5.430  1.1392  0.0249  2.0069
  810MOL0     H 9300   9.481   8.602   5.497  1.5654  1.7494 -3.5632
  810MOL0     H 9301   9.369   8.354   5.685  0.0577  2.1273  2.6938
  810MOL0     H 9302   9.426   8.176   5.872  1.6629 -0.8565 -0.5012
  810MOL0     H 9303   9.590   8.158   5.904  2.1958  2.5370  1.8602
  810MOL0     H 9304   9.594   8.388   6.024  2.2740 -1.5828 -0.4457
  810MOL0     H 9305   9.417   8.381   6.012  0.4047 -0.8094 -0.7297
  810MOL0     H 9306   9.535   8.318   6.243 -3.6034 -0.3603  1.9295
  810MOL0     H 9307   9.554   8.150   6.163 -0.0166  0.2449  0.5364
  810MOL0     H 9308   9.308   8.317   6.217 -1.7990 -1.1615 -1.5679
  810MOL0     H 9309   9.383   8.202   6.331 -2.9122  0.6105  0.4938
  810MOL0     H 9310   9.353   7.930   5.978  3.8030 -1.1238  0.2407
  810MOL0     H 9311   9.394   7.692   6.033 -0.1041  1.3561  0.2506
  810MOL0     H 9312   9.504   7.508   6.605 -4.2314  0.8625  1.9462
  810MOL0     H 9313   9.556   7.296   6.719  1.7368 -0.7052 -0.9246
  810MOL0     H 9314   9.667   7.093   6.717  1.5380 -1.6812  2.0767
  810MOL0     H 9315   9.539   7.080   6.842  1.5769 -2.5112  2.5098
  810MOL0     H 9316   9.649   6.880   6.855  3.8749 -0.6452 -1.1999
  810MOL0     H 9317   9.494   6.854   6.771 -1.5634  5.5686  1.1385
  810MOL0     H 9318   9.623   6.749   6.597  1.9719 -2.8303  0.5260
  810MOL0     H 9319   9.703   6.903   6.564 -1.3471  0.1515 -0.5548
  810MOL0     H 9320   9.846   6.831   6.773  0.1118  1.2624 -0.7231
  810MOL0     H 9321   9.894   6.785   6.630  1.5585 -0.1775  2.7221
  810MOL0     H 9322   9.720   6.603   6.805 -0.0534  1.7467  1.3526
  810MOL0     H 9323   9.895   6.606   6.814  1.4648  2.6729 -1.2475
  810MOL0     H 9324   9.698   6.532   6.582  0.5769 -4.4206 -2.8232
  810MOL0     H 9325   9.868   6.565   6.538 -0.3793 -1.5395 -2.2049
  810MOL0     H 9326   9.853   6.355   6.739  3.4145  2.4091  1.2078
  810MOL0     H 9327   9.954   6.381   6.607  0.0262 -2.2185  2.1199
  810MOL0     H 9328   9.801   6.208   6.550  0.8658  0.8618 -0.1996
  810MOL0     H 9329   9.655   6.315   6.572 -0.9699  0.3835 -2.0554
  810MOL0     H 9330   9.311   7.074   6.439 -0.9143  0.1147  0.4245
  810MOL0     H 9331   9.240   7.315   6.344 -0.7283 -1.1454 -0.3348
  810MOL0     H 9332   9.307   7.800   6.452 -1.0876 -1.4445 -0.1200
  810MOL0     H 9333   9.271   8.016   6.386  0.8342  1.0860 -1.0787
  810MOL0     H 9334   9.404   9.040   4.897  0.5926 -0.5563 -2.0085
  810MOL0     H 9335   9.559   9.114   5.093  3.1012 -0.2224  0.2142
  810MOL0     H 9336   9.779   9.149   5.379 -1.7811 -1.9752 -2.0518
  810MOL0     H 9337   9.931   9.242   5.548 -3.0373  0.0267  0.6632
  810MOL0     H 9338  10.239   9.033   5.694  1.4194  0.7849  0.8994
  810MOL0     H 9339  10.131   8.976   5.827 -1.4130  1.9320  3.0299
  810MOL0     H 9340  10.266   9.259   5.837 -0.9742  0.7274  2.2571
  810MOL0     H 9341  10.327   9.110   5.907  0.9119 -0.0451 -0.8087
  810MOL0     H 9342  10.129   9.105   6.050  0.5879 -0.8111 -0.1650
  810MOL0     H 9343  10.050   9.239   5.963  0.9099  2.2564  0.4408
  810MOL0     H 9344  10.142   9.295   6.175 -0.9635 -0.4597  0.1972
  810MOL0     H 9345  10.301   9.237   6.140 -0.4985  0.8230  0.6207
  810MOL0     H 9346  10.363   9.608   5.978  2.5296 -0.6692  0.9714
  810MOL0     H 9347   9.986   8.856   5.725 -1.5254 -1.3408 -1.0448
  810MOL0     H 9348   9.765   8.659   5.535 -0.8445 -0.9858 -0.1843
  810MOL0     H 9349   9.909   8.677   5.630  0.2655  2.3177  1.8074
  810MOL0     H 9350   9.748   8.724   5.692  0.9648 -1.6734  0.2083
  811MOL0     O 9351  10.462   1.562   2.493 -0.3550  0.0860 -0.5384
  811MOL0     C 9352  10.464   1.495   2.385  0.7555  0.4072  1.6254
  811MOL0     O 9353  10.370   1.486   2.293 -0.4493 -0.1248  0.0644
  811MOL0     C 9354  10.244   1.536   2.305 -0.8220  0.2221  0.5760
  811MOL0     C 9355  10.184   1.559   2.186  0.7438  0.1928  0.5041
  811MOL0     C 9356  10.056   1.610   2.184  0.2724  0.5426  0.3842
  811MOL0     C 9357   9.984   1.639   2.298 -0.0532  0.0242 -0.2468
  811MOL0     O 9358   9.852   1.664   2.306  0.3760  0.4285  0.1887
  811MOL0     C 9359   9.792   1.742   2.201  0.9452 -1.4678 -0.7597
  811MOL0     C 9360   9.647   1.702   2.183  0.1637  0.1670  0.3764
  811MOL0     C 9361   9.576   1.801   2.100 -0.1503  0.0468  0.6639
  811MOL0     C 9362   9.603   1.806   1.948  0.8063 -0.4199  0.0197
  811MOL0     C 9363   9.608   1.940   1.905  0.5439 -1.5209  0.2077
  811MOL0     C 9364   9.609   1.969   1.754 -0.6724 -0.9863 -0.1835
  811MOL0     C 9365   9.713   1.886   1.678 -0.1310 -0.0742 -0.4803
  811MOL0     C 9366   9.852   1.941   1.702  0.6257 -1.0073 -0.5752
  811MOL0     N 9367   9.959   1.879   1.626 -0.5264 -1.1136  1.0598
  811MOL0     C 9368   9.981   1.744   1.604 -0.9422  0.9881 -0.4492
  811MOL0     C 9369  10.097   1.736   1.537  0.3663 -0.3798  0.7173
  811MOL0     C 9370  10.157   1.612   1.476 -0.0200 -0.0015 -1.5393
  811MOL0     C 9371  10.242   1.544   1.576 -0.5053  0.6971 -0.6609
  811MOL0     C 9372  10.244   1.392   1.555 -0.3312  0.3181 -0.1074
  811MOL0     C 9373  10.288   1.331   1.415  0.0497  0.1032  0.4703
  811MOL0     O 9374  10.422   1.284   1.419 -0.1048 -0.7143  0.2707
  811MOL0     C 9375  10.455   1.186   1.334  1.1589  1.0416  0.3157
  811MOL0     C 9376  10.421   1.184   1.198  0.9008  0.2418  0.1949
  811MOL0     C 9377  10.440   1.075   1.115 -0.0705  0.6567  0.0311
  811MOL0     C 9378  10.496   0.954   1.164  0.4535 -0.7497  0.3332
  811MOL0     C 9379  10.520   0.851   1.070  0.6442  0.6114 -0.1291
  811MOL0     O 9380  10.522   0.883   0.938  0.2166 -0.1800  0.2392
  811MOL0     C 9381  10.550   0.793   0.844 -0.1048  0.0409  0.4560
  811MOL0     C 9382  10.514   0.657   0.826  0.0216  0.2073 -0.1099
  811MOL0     C 9383  10.585   0.569   0.734  0.7102 -0.2407  0.1933
  811MOL0     C 9384  10.682   0.628   0.650  0.1105  0.8887  0.0167
  811MOL0     O 9385  10.751   0.563   0.545  0.1876  0.2450 -0.2355
  811MOL0     C 9386  10.713   0.430   0.520  0.9652 -0.0935 -0.4864
  811MOL0     C 9387  10.805   0.371   0.418 -0.8249 -0.3523 -0.2516
  811MOL0     C 9388  10.941   0.445   0.404 -0.4244  0.2536  0.2871
  811MOL0     C 9389  11.037   0.399   0.288  1.0561  0.4851 -0.3824
  811MOL0     C 9390  11.182   0.452   0.305 -0.9678 -0.4110  0.2658
  811MOL0     C 9391  11.287   0.384   0.223  0.2806 -0.2063 -0.5147
  811MOL0     C 9392  11.266   0.372   0.071 -0.1520 -0.7064 -0.1284
  811MOL0     C 9393  11.399   0.342   0.001  0.4315  1.1753 -0.1540
  811MOL0    Cl 9394  11.470   0.180   0.072 -0.1111 -0.1930 -0.1849
  811MOL0     C 9395  10.710   0.759   0.663 -0.3669  0.8518 -0.2958
  811MOL0     C 9396  10.654   0.843   0.760  0.4058  0.6294 -0.6294
  811MOL0     O 9397  10.540   0.733   1.112  0.3897 -0.5084 -0.2130
  811MOL0     C 9398  10.525   0.950   1.304  0.4738 -0.0514  1.1660
  811MOL0     C 9399  10.511   1.068   1.376 -0.2215 -0.2669  0.2095
  811MOL0     N 9400  10.149   1.863   1.521  0.1826 -0.1717 -0.6747
  811MOL0     N 9401  10.069   1.954   1.585 -0.0744  1.4963  0.5249
  811MOL0     C 9402  10.044   1.614   2.415  0.1249  0.2864  1.0820
  811MOL0     C 9403  10.177   1.572   2.419  0.7450 -0.4029  0.2851
  811MOL0     C 9404  10.599   1.448   2.347 -0.3348  0.0275 -1.3104
  811MOL0     C 9405  10.678   1.395   2.457  0.0473 -0.5833  0.6167
  811MOL0     C 9406  10.808   1.356   2.441 -0.6455  0.5783  0.3479
  811MOL0     C 9407  10.868   1.350   2.317 -0.6908 -0.7108  1.1759
  811MOL0     O 9408  11.002   1.313   2.303 -0.0162  0.3989 -0.6363
  811MOL0     C 9409  11.077   1.264   2.418 -0.4352 -0.2638 -0.7378
  811MOL0     C 9410  11.212   1.203   2.378  0.3244 -0.1707 -0.2302
  811MOL0     C 9411  11.317   1.297   2.309  0.5187 -0.9184  0.1243
  811MOL0     C 9412  11.423   1.348   2.412 -0.5644 -0.9338  0.6138
  811MOL0     C 9413  11.499   1.236   2.453  0.0527 -0.1779  0.4941
  811MOL0     C 9414  11.576   1.141   2.459 -0.5659 -0.2466 -0.1263
  811MOL0     C 9415  10.790   1.402   2.209 -0.3290  0.2109  0.0692
  811MOL0     C 9416  10.656   1.445   2.221 -0.2882 -0.3096 -0.9106
  811MOL0     C 9417  10.586   1.513   2.102  0.0192 -0.3682 -0.7021
  811MOL0     H 9418  10.232   1.536   2.091 -1.2347 -1.2750 -0.2045
  811MOL0     H 9419  10.006   1.616   2.088 -0.7756  1.2708  0.9494
  811MOL0     H 9420   9.810   1.848   2.219 -0.8450 -1.6611  3.6017
  811MOL0     H 9421   9.845   1.720   2.108  1.2081  0.1596 -1.0202
  811MOL0     H 9422   9.597   1.694   2.280 -0.1308  3.0042  0.5471
  811MOL0     H 9423   9.649   1.603   2.137 -0.9526 -0.0486  0.7613
  811MOL0     H 9424   9.590   1.905   2.130 -0.8618  1.0823 -2.3027
  811MOL0     H 9425   9.473   1.770   2.120  0.5297 -2.4173  0.6865
  811MOL0     H 9426   9.696   1.757   1.919  1.6956  0.7255  0.8239
  811MOL0     H 9427   9.525   1.754   1.892 -0.2560  2.0225 -0.9176
  811MOL0     H 9428   9.530   2.008   1.940 -0.0503 -1.9870 -0.1852
  811MOL0     H 9429   9.701   1.977   1.948 -0.2911 -1.0742  1.6949
  811MOL0     H 9430   9.516   1.935   1.708  0.2929 -1.0211 -2.2528
  811MOL0     H 9431   9.624   2.074   1.729 -1.1560 -0.7004  0.6734
  811MOL0     H 9432   9.688   1.888   1.572 -0.1379 -2.0196 -0.5617
  811MOL0     H 9433   9.709   1.778   1.699  0.2125 -0.1122 -0.5985
  811MOL0     H 9434   9.848   2.041   1.660 -0.2952 -0.7791  0.0275
  811MOL0     H 9435   9.876   1.954   1.808 -1.2616  1.4331 -0.3707
  811MOL0     H 9436   9.911   1.664   1.627  0.4558 -0.4372 -0.9880
  811MOL0     H 9437  10.072   1.548   1.450 -1.4639  0.3057  1.9066
  811MOL0     H 9438  10.218   1.655   1.396  2.7590  2.7687  1.7772
  811MOL0     H 9439  10.343   1.581   1.558  0.1077 -0.3171  0.4787
  811MOL0     H 9440  10.215   1.563   1.681  0.7449 -0.4929 -0.0750
  811MOL0     H 9441  10.137   1.369   1.557 -0.1197 -1.3952 -3.2068
  811MOL0     H 9442  10.297   1.349   1.641  1.3415  2.3092 -0.0656
  811MOL0     H 9443  10.298   1.410   1.340  1.0084  1.7844  2.2544
  811MOL0     H 9444  10.214   1.256   1.387  0.6698 -0.5023  0.4155
  811MOL0     H 9445  10.384   1.276   1.154  0.3689 -0.5035 -0.9495
  811MOL0     H 9446  10.416   1.083   1.009 -0.3476  0.3103  0.0662
  811MOL0     H 9447  10.435   0.621   0.891  0.7035 -1.8418 -0.3491
  811MOL0     H 9448  10.560   0.463   0.726  0.6888 -0.1571 -1.0206
  811MOL0     H 9449  10.718   0.367   0.610  0.2033 -3.1443 -2.4294
  811MOL0     H 9450  10.607   0.417   0.494 -0.0296 -2.2219  3.5895
  811MOL0     H 9451  10.838   0.271   0.448 -1.3977 -0.0664  1.4193
  811MOL0     H 9452  10.747   0.366   0.325  0.6807 -2.1118 -1.1719
  811MOL0     H 9453  10.912   0.550   0.394 -2.3837 -0.2913 -0.2307
  811MOL0     H 9454  11.004   0.442   0.493  1.4730  3.2914 -0.7907
  811MOL0     H 9455  11.002   0.422   0.188 -0.2727  0.3259  0.0196
  811MOL0     H 9456  11.037   0.291   0.307 -1.0979  0.1089 -2.0811
  811MOL0     H 9457  11.216   0.463   0.409  1.7009 -0.7272 -0.5053
  811MOL0     H 9458  11.178   0.556   0.271 -2.6952  0.1301  1.9473
  811MOL0     H 9459  11.386   0.424   0.242  0.9873 -2.7712  2.0448
  811MOL0     H 9460  11.276   0.279   0.254  0.6348 -0.2104 -0.4072
  811MOL0     H 9461  11.221   0.466   0.039  0.3672 -0.5305 -0.3420
  811MOL0     H 9462  11.199   0.290   0.043  0.4680 -0.5380 -2.2653
  811MOL0     H 9463  11.380   0.330  -0.107 -1.9425  0.8556  0.2334
  811MOL0     H 9464  11.460   0.432   0.015  1.7670  0.2198  0.3569
  811MOL0     H 9465  10.781   0.803   0.595 -3.5378  2.9156 -2.5699
  811MOL0     H 9466  10.680   0.947   0.779 -0.4473  0.7147  0.1060
  811MOL0     H 9467  10.568   0.862   1.351  1.7496  0.4090  0.9180
  811MOL0     H 9468  10.530   1.057   1.482 -0.3334 -2.6098  0.0481
  811MOL0     H 9469  10.008   1.623   2.517  0.9401 -2.4100  1.7133
  811MOL0     H 9470  10.224   1.560   2.516 -2.3474  1.5958  2.2130
  811MOL0     H 9471  10.640   1.395   2.559 -1.3016  1.8623  0.1877
  811MOL0     H 9472  10.845   1.320   2.536 -0.7471  1.6776  0.8164
  811MOL0     H 9473  11.027   1.181   2.468 -0.1863  0.4021  0.6632
  811MOL0     H 9474  11.081   1.348   2.489  2.1197 -1.8644  1.1713
  811MOL0     H 9475  11.202   1.123   2.304 -0.5322  1.2899 -1.7644
  811MOL0     H 9476  11.251   1.159   2.471 -2.6730  0.0661  1.2500
  811MOL0     H 9477  11.272   1.388   2.268  1.0114  1.3819  4.1494
  811MOL0     H 9478  11.364   1.245   2.225  1.3924  2.4317 -1.6750
  811MOL0     H 9479  11.479   1.431   2.368 -0.1114 -1.1115  0.8480
  811MOL0     H 9480  11.377   1.407   2.492  1.9135  0.3074  1.2226
  811MOL0     H 9481  11.639   1.058   2.484  1.0408  0.3722 -1.8618
  811MOL0     H 9482  10.831   1.409   2.109  1.9376  1.7295  1.0277
  811MOL0     H 9483  10.609   1.462   2.008 -0.3037  0.1965 -1.1002
  811MOL0     H 9484  10.480   1.539   2.110 -0.4164 -2.5516  2.3172
  811MOL0     H 9485  10.631   1.613   2.094  0.3173 -0.4503 -0.0951
  812MOL0     O 9486   7.139   1.974   9.357  0.1380  0.7977 -0.3313
  812MOL0     C 9487   7.251   2.004   9.323 -0.4698 -0.1300 -0.0423
  812MOL0     O 9488   7.328   1.926   9.239  0.1852 -0.3779 -0.4346
  812MOL0     C 9489   7.299   1.794   9.216  1.4792  0.2214  0.2208
  812MOL0     C 9490   7.330   1.747   9.085 -0.4076 -0.5305  0.5363
  812MOL0     C 9491   7.304   1.609   9.044 -0.3993 -0.3757  0.7961
  812MOL0     C 9492   7.263   1.514   9.138  1.0508  0.1085 -0.4208
  812MOL0     O 9493   7.254   1.385   9.095  0.5589  0.9939  0.0062
  812MOL0     C 9494   7.189   1.291   9.185 -0.1160 -0.8029 -1.1245
  812MOL0     C 9495   7.176   1.144   9.117 -0.1189  0.4146 -0.9393
  812MOL0     C 9496   7.303   1.091   9.079  0.6014  0.1871 -0.3006
  812MOL0     C 9497   7.305   0.992   8.955 -0.0710 -0.5217 -0.9461
  812MOL0     C 9498   7.235   0.860   8.988 -0.0276  0.5766  0.4824
  812MOL0     C 9499   7.231   0.778   8.863  0.0868  0.6096 -0.5157
  812MOL0     C 9500   7.138   0.659   8.879  0.5658  0.3958  0.3748
  812MOL0     C 9501   7.178   0.544   8.969 -0.7671  0.1413 -1.1432
  812MOL0     N 9502   7.105   0.421   8.941 -0.5975  0.3815  0.0808
  812MOL0     C 9503   6.987   0.407   8.860 -0.4234 -0.4589 -0.0783
  812MOL0     C 9504   6.943   0.284   8.893  0.4430  0.4881 -0.0794
  812MOL0     C 9505   6.838   0.206   8.822  1.3300  0.3358  1.1012
  812MOL0     C 9506   6.796   0.251   8.686  0.4380  0.4916  0.7079
  812MOL0     C 9507   6.691   0.156   8.630 -0.5669 -0.2210 -0.2742
  812MOL0     C 9508   6.644   0.208   8.499 -0.3050  0.1971 -0.1232
  812MOL0     O 9509   6.578   0.092   8.441  0.2240 -0.4526  0.0661
  812MOL0     C 9510   6.453   0.110   8.385 -0.9422  0.2060 -0.6578
  812MOL0     C 9511   6.390   0.230   8.349 -0.0420  0.0416  0.6878
  812MOL0     C 9512   6.275   0.230   8.275 -0.0078 -0.1768  0.0183
  812MOL0     C 9513   6.217   0.113   8.234 -0.7458  0.7899 -0.0366
  812MOL0     C 9514   6.098   0.093   8.151  0.7911 -0.5071  0.3713
  812MOL0     O 9515   6.029   0.210   8.118 -1.1946 -0.0548 -0.4011
  812MOL0     C 9516   5.914   0.198   8.045  0.6445 -0.4136  0.2013
  812MOL0     C 9517   5.913   0.267   7.919 -0.2332  0.3151 -0.3833
  812MOL0     C 9518   5.799   0.257   7.846  0.4808  0.2972  0.7579
  812MOL0     C 9519   5.679   0.194   7.887  0.0276 -0.6295 -1.1391
  812MOL0     O 9520   5.580   0.166   7.796  0.3362  0.1834  0.2678
  812MOL0     C 9521   5.464   0.091   7.840  0.6404 -0.8566 -0.0521
  812MOL0     C 9522   5.382   0.028   7.724  0.0900  0.5761  0.6803
  812MOL0     C 9523   5.317   0.147   7.644 -0.4407 -0.5909 -0.8632
  812MOL0     C 9524   5.276   0.100   7.510  0.3696  0.1997 -1.6780
  812MOL0     C 9525   5.189   0.214   7.450  0.4236 -0.2283 -0.5154
  812MOL0     C 9526   5.044   0.209   7.502  0.7248 -0.2572  0.4376
  812MOL0     C 9527   4.986   0.071   7.501 -0.5978  0.1254 -0.8203
  812MOL0     C 9528   4.835   0.081   7.518 -0.4987  0.4091 -0.3582
  812MOL0    Cl 9529   4.768   0.119   7.361  0.1801 -0.7055 -0.2341
  812MOL0     C 9530   5.682   0.139   8.022 -0.2589 -0.3890  0.8044
  812MOL0     C 9531   5.797   0.135   8.094  0.8373 -0.5060 -0.1466
  812MOL0     O 9532   6.056  -0.025   8.114  0.2741 -0.1029 -0.1359
  812MOL0     C 9533   6.280  -0.009   8.267 -0.3784  0.1062  0.2468
  812MOL0     C 9534   6.392  -0.007   8.344 -0.4544 -0.9349 -0.3223
  812MOL0     N 9535   7.027   0.223   8.984  0.8950 -0.2473 -0.2796
  812MOL0     N 9536   7.133   0.302   8.995  0.3905 -0.5568 -0.5674
  812MOL0     C 9537   7.235   1.560   9.269 -1.1452 -0.5451 -0.2049
  812MOL0     C 9538   7.237   1.702   9.306 -1.1240 -0.3031  0.1621
  812MOL0     C 9539   7.304   2.134   9.380  0.4938  0.9798  0.0769
  812MOL0     C 9540   7.230   2.191   9.488  0.4589 -0.4471 -1.3259
  812MOL0     C 9541   7.283   2.306   9.543  0.3004  0.0779 -0.1129
  812MOL0     C 9542   7.380   2.382   9.487 -0.3702  0.4998  0.2342
  812MOL0     O 9543   7.428   2.495   9.546 -0.1257 -0.5214  0.1233
  812MOL0     C 9544   7.338   2.596   9.580  0.3108 -1.1367  0.0530
  812MOL0     C 9545   7.374   2.733   9.515  0.1326 -0.2273 -0.2185
  812MOL0     C 9546   7.503   2.790   9.573 -0.0073  0.0396  0.1602
  812MOL0     C 9547   7.544   2.922   9.512 -0.4298 -0.0343 -0.3117
  812MOL0     C 9548   7.497   3.039   9.582 -0.0449 -0.4420 -0.0278
  812MOL0     C 9549   7.453   3.141   9.621 -0.5005 -0.9869 -1.0724
  812MOL0     C 9550   7.457   2.327   9.390 -0.0035  0.8570  0.0298
  812MOL0     C 9551   7.428   2.193   9.342  0.5194 -0.6071  0.1161
  812MOL0     C 9552   7.522   2.135   9.234  0.2331 -0.0254  0.5315
  812MOL0     H 9553   7.388   1.807   9.017 -0.6365 -1.7504 -0.7959
  812MOL0     H 9554   7.323   1.563   8.948  4.2143  0.6153  1.0264
  812MOL0     H 9555   7.244   1.286   9.279 -0.9185 -0.9061 -0.6486
  812MOL0     H 9556   7.090   1.330   9.211 -0.2033 -3.0620  2.7820
  812MOL0     H 9557   7.119   1.150   9.024 -0.8889 -1.3363 -0.6264
  812MOL0     H 9558   7.121   1.074   9.180 -0.3389  0.2819 -1.2753
  812MOL0     H 9559   7.343   1.039   9.166 -4.7687 -1.1131  1.7723
  812MOL0     H 9560   7.374   1.171   9.057  0.9734 -0.5612 -1.9754
  812MOL0     H 9561   7.256   1.055   8.880  0.9234  3.1096  1.1969
  812MOL0     H 9562   7.403   0.968   8.912  0.5231  0.1420  0.0002
  812MOL0     H 9563   7.288   0.795   9.058  0.1036  0.3749  0.1979
  812MOL0     H 9564   7.136   0.885   9.026  0.1873 -1.1992  2.3757
  812MOL0     H 9565   7.190   0.837   8.781  0.6028  1.7570  0.0291
  812MOL0     H 9566   7.331   0.739   8.843  2.6800  5.2527  1.7520
  812MOL0     H 9567   7.121   0.628   8.776  0.8822 -0.7570  0.6566
  812MOL0     H 9568   7.038   0.693   8.909 -0.1216  0.4444 -1.8262
  812MOL0     H 9569   7.279   0.525   8.930 -1.3489 -1.3394 -2.0206
  812MOL0     H 9570   7.182   0.564   9.077 -2.8832 -1.7877 -0.6411
  812MOL0     H 9571   6.938   0.470   8.787  0.0672 -0.9962 -0.8809
  812MOL0     H 9572   6.868   0.101   8.822  2.4403  0.6009 -1.2017
  812MOL0     H 9573   6.756   0.228   8.891  2.0726 -1.6245  2.7106
  812MOL0     H 9574   6.765   0.356   8.680 -0.5703  0.1881  0.4199
  812MOL0     H 9575   6.886   0.245   8.624  0.8747 -1.2537  1.4672
  812MOL0     H 9576   6.604   0.143   8.695  1.0365  0.1049  2.0757
  812MOL0     H 9577   6.730   0.055   8.620 -2.0769 -0.7610 -1.0064
  812MOL0     H 9578   6.727   0.244   8.438  0.1909 -2.2310 -0.9969
  812MOL0     H 9579   6.563   0.281   8.510 -2.4448 -1.6840 -2.2383
  812MOL0     H 9580   6.427   0.324   8.389  1.9884 -1.9159  3.8891
  812MOL0     H 9581   6.235   0.328   8.250 -0.5640 -0.8011 -1.6601
  812MOL0     H 9582   5.993   0.321   7.869  1.0858  0.6949  1.9633
  812MOL0     H 9583   5.794   0.275   7.740  0.8249  1.0980  0.8706
  812MOL0     H 9584   5.493   0.006   7.902  2.3358  1.0235  1.8400
  812MOL0     H 9585   5.404   0.160   7.900 -0.4044 -3.3809  1.9895
  812MOL0     H 9586   5.438  -0.033   7.652 -0.3080  0.5392  0.3952
  812MOL0     H 9587   5.312  -0.046   7.763 -0.5224  0.9957  0.3998
  812MOL0     H 9588   5.232   0.185   7.702  1.3239 -0.5548  1.8288
  812MOL0     H 9589   5.395   0.222   7.629 -0.4064 -1.0594 -3.6924
  812MOL0     H 9590   5.227   0.002   7.509  0.2652  0.2507 -2.0082
  812MOL0     H 9591   5.366   0.086   7.449  0.7507  2.2166 -1.6518
  812MOL0     H 9592   5.189   0.194   7.342  1.5590  1.4640 -0.8582
  812MOL0     H 9593   5.218   0.317   7.470 -0.6327 -0.3246  1.7750
  812MOL0     H 9594   5.038   0.248   7.604 -2.0658  2.6057 -0.6764
  812MOL0     H 9595   4.985   0.281   7.446 -1.1695 -0.5826  1.9159
  812MOL0     H 9596   5.025   0.020   7.590 -0.0754  0.9389 -0.5764
  812MOL0     H 9597   5.003   0.009   7.413 -0.8825  2.1164 -2.3366
  812MOL0     H 9598   4.800  -0.021   7.536  0.4855 -0.6699 -3.6603
  812MOL0     H 9599   4.806   0.144   7.602  1.1239 -2.0847  2.2334
  812MOL0     H 9600   5.589   0.101   8.064 -1.7597 -2.1046 -3.5094
  812MOL0     H 9601   5.808   0.093   8.194 -2.2035  1.7849  1.3177
  812MOL0     H 9602   6.255  -0.110   8.239  2.9809 -1.3364  1.8096
  812MOL0     H 9603   6.436  -0.105   8.361 -3.1141 -2.9064 -3.5364
  812MOL0     H 9604   7.225   1.488   9.350  0.5022  1.7988  2.2927
  812MOL0     H 9605   7.227   1.740   9.407  2.2103 -1.7230  1.1857
  812MOL0     H 9606   7.132   2.157   9.519  0.5426  0.4600  0.0142
  812MOL0     H 9607   7.234   2.355   9.627  2.3173  1.6041  0.2508
  812MOL0     H 9608   7.322   2.591   9.689 -0.7900 -2.3118 -0.1414
  812MOL0     H 9609   7.244   2.574   9.530  0.2934 -1.7501  0.3383
  812MOL0     H 9610   7.289   2.800   9.532  0.1728 -0.4003  0.7144
  812MOL0     H 9611   7.390   2.725   9.407  2.2965 -1.4511  0.1218
  812MOL0     H 9612   7.587   2.722   9.557  1.4559  2.2577 -2.4650
  812MOL0     H 9613   7.492   2.792   9.682 -1.7548 -4.5708  0.3298
  812MOL0     H 9614   7.653   2.931   9.511 -0.5546  2.1676  0.8540
  812MOL0     H 9615   7.510   2.939   9.409 -0.9474 -0.5007 -0.2262
  812MOL0     H 9616   7.407   3.230   9.660 -2.3837 -2.6074  0.6321
  812MOL0     H 9617   7.546   2.384   9.362  1.6702 -1.6590 -0.1120
  812MOL0     H 9618   7.487   2.155   9.132  2.7241 -1.4180 -0.7187
  812MOL0     H 9619   7.629   2.157   9.241  0.9897 -2.4441 -1.5628
  812MOL0     H 9620   7.539   2.027   9.241 -2.3748 -0.6577 -1.1460
  813MOL0     O 9621  10.698   9.134   2.054 -0.1156  0.2277  0.9792
  813MOL0     C 9622  10.696   9.240   1.992  0.5784 -0.3400  0.7334
  813MOL0     O 9623  10.600   9.280   1.901 -0.8067 -0.6390 -1.7972
  813MOL0     C 9624  10.510   9.202   1.833 -0.4006 -0.2134  0.3658
  813MOL0     C 9625  10.444   9.113   1.903 -0.3824  1.3725  0.6304
  813MOL0     C 9626  10.352   9.026   1.848  0.5320  0.0370 -0.1856
  813MOL0     C 9627  10.337   9.029   1.711  0.2792  0.1426 -0.0298
  813MOL0     O 9628  10.274   8.929   1.658  0.2963 -0.7587 -0.0669
  813MOL0     C 9629  10.150   8.983   1.608 -0.7827  0.4885 -0.0322
  813MOL0     C 9630  10.066   8.882   1.519 -0.4517  0.0540 -1.1079
  813MOL0     C 9631  10.124   8.863   1.380 -0.1504  0.4577  0.7740
  813MOL0     C 9632  10.002   8.819   1.283  0.5230 -0.7947 -0.0529
  813MOL0     C 9633  10.000   8.896   1.150 -0.3736 -0.3600  0.3796
  813MOL0     C 9634   9.885   8.860   1.061  0.3997  0.0698  0.1218
  813MOL0     C 9635   9.900   8.705   1.014 -0.4908  0.0090  0.6503
  813MOL0     C 9636   9.803   8.673   0.891 -0.4712  0.5086 -0.5467
  813MOL0     N 9637   9.808   8.538   0.824  0.2649 -0.0583 -0.4545
  813MOL0     C 9638   9.705   8.451   0.820 -0.1889  0.1710  0.7327
  813MOL0     C 9639   9.743   8.349   0.745 -0.4605  0.9597  1.5249
  813MOL0     C 9640   9.674   8.210   0.742 -0.0024  0.2290 -0.7363
  813MOL0     C 9641   9.520   8.217   0.731  0.9408 -0.4316 -0.4044
  813MOL0     C 9642   9.458   8.082   0.741  0.2370  1.4314  1.4257
  813MOL0     C 9643   9.310   8.088   0.733 -0.8140  0.2169  0.2601
  813MOL0     O 9644   9.261   8.165   0.626 -0.0958 -0.2167 -0.4898
  813MOL0     C 9645   9.123   8.168   0.614  0.1464 -0.1124  0.0428
  813MOL0     C 9646   9.071   8.242   0.508 -0.3404  0.0139 -1.3801
  813MOL0     C 9647   8.940   8.255   0.483 -0.4024 -0.2905 -0.2074
  813MOL0     C 9648   8.844   8.204   0.571 -0.2861  1.1842 -0.3708
  813MOL0     C 9649   8.698   8.216   0.527 -0.6809 -0.2219 -0.2253
  813MOL0     O 9650   8.666   8.273   0.408 -0.1488 -0.1992 -0.4445
  813MOL0     C 9651   8.540   8.256   0.359 -0.1638  0.2942  0.0318
  813MOL0     C 9652   8.531   8.174   0.249  0.9751 -0.7563  0.6810
  813MOL0     C 9653   8.409   8.174   0.159  0.6361 -0.3721 -0.9056
  813MOL0     C 9654   8.299   8.250   0.216 -0.3231  0.1316 -0.1626
  813MOL0     O 9655   8.183   8.248   0.142 -0.3053  0.2020  0.0710
  813MOL0     C 9656   8.079   8.339   0.176 -0.8008 -0.0598 -0.6220
  813MOL0     C 9657   7.971   8.333   0.078  0.7016 -0.5005  0.4786
  813MOL0     C 9658   8.003   8.401  -0.062 -0.5673  0.5147  0.1564
  813MOL0     C 9659   7.871   8.395  -0.147 -0.5831 -0.4256  0.0362
  813MOL0     C 9660   7.899   8.464  -0.288 -0.4248 -0.1715 -0.2226
  813MOL0     C 9661   7.940   8.367  -0.400  0.2665 -1.0590 -0.6821
  813MOL0     C 9662   7.961   8.420  -0.542 -0.3011  0.0011  0.3405
  813MOL0     C 9663   7.835   8.479  -0.618  0.0321 -0.3671  0.2134
  813MOL0    Cl 9664   7.877   8.540  -0.786  0.1709  0.1554  0.2306
  813MOL0     C 9665   8.311   8.320   0.341  0.6798 -0.5712 -0.7895
  813MOL0     C 9666   8.431   8.324   0.411  0.1955  0.2174  0.7705
  813MOL0     O 9667   8.615   8.157   0.593 -0.5776 -0.4131 -0.2839
  813MOL0     C 9668   8.890   8.130   0.689 -0.8469 -0.4739 -0.2612
  813MOL0     C 9669   9.028   8.115   0.706 -0.1458 -0.3304  0.0467
  813MOL0     N 9670   9.876   8.374   0.700  0.4737 -0.4987 -0.6661
  813MOL0     N 9671   9.909   8.492   0.748 -0.7707 -0.1905 -0.0064
  813MOL0     C 9672  10.395   9.131   1.633  0.5512  1.2663 -0.5245
  813MOL0     C 9673  10.494   9.213   1.693  0.7839  0.6125  0.1655
  813MOL0     C 9674  10.797   9.345   2.016 -0.2348  0.6618 -0.2184
  813MOL0     C 9675  10.848   9.356   2.149  0.3508  0.7461  0.5890
  813MOL0     C 9676  10.947   9.447   2.179 -0.0411 -1.4502  0.6198
  813MOL0     C 9677  11.017   9.509   2.070  0.3421  0.6363 -0.5659
  813MOL0     O 9678  11.131   9.586   2.078 -0.1811 -0.6376  0.2727
  813MOL0     C 9679  11.176   9.641   2.201 -0.3558  0.4329  1.0612
  813MOL0     C 9680  11.271   9.535   2.273  0.2983  0.8263 -0.1841
  813MOL0     C 9681  11.307   9.581   2.414  0.7346  0.0094  0.6813
  813MOL0     C 9682  11.382   9.465   2.479  0.8640 -0.3373  0.2805
  813MOL0     C 9683  11.528   9.496   2.496  0.2523 -0.0163  0.0979
  813MOL0     C 9684  11.644   9.520   2.511 -0.1222  0.1605 -0.4348
  813MOL0     C 9685  10.975   9.484   1.941  0.2255  1.3109 -0.4654
  813MOL0     C 9686  10.857   9.419   1.911  0.6166  0.6032  1.2480
  813MOL0     C 9687  10.828   9.388   1.759 -0.2254 -0.8388 -0.2913
  813MOL0     H 9688  10.456   9.105   2.010  0.1345 -2.3962  0.4054
  813MOL0     H 9689  10.303   8.945   1.903 -0.0011  1.4824  1.5646
  813MOL0     H 9690  10.089   9.014   1.693 -1.7147 -3.1201  0.7927
  813MOL0     H 9691  10.147   9.081   1.560 -0.4008  1.5152  1.9605
  813MOL0     H 9692   9.965   8.925   1.525 -0.8186 -0.9618  1.0984
  813MOL0     H 9693  10.073   8.788   1.576  0.4334  0.9527  0.3330
  813MOL0     H 9694  10.204   8.789   1.387  1.2445  2.0892  3.8827
  813MOL0     H 9695  10.183   8.947   1.340  2.1203 -1.3626  0.1067
  813MOL0     H 9696  10.006   8.712   1.261  2.0135 -1.0315  1.1891
  813MOL0     H 9697   9.902   8.837   1.322  0.2966  2.9388 -1.9333
  813MOL0     H 9698   9.994   9.002   1.175 -3.4760 -0.5750  0.8490
  813MOL0     H 9699  10.091   8.886   1.090  0.2886  2.3021  0.7944
  813MOL0     H 9700   9.791   8.875   1.114 -0.6472  0.5812 -1.7856
  813MOL0     H 9701   9.878   8.925   0.973  0.3921 -0.3436 -0.1818
  813MOL0     H 9702   9.858   8.641   1.093  0.3293  1.1796  2.0831
  813MOL0     H 9703  10.005   8.676   1.007 -0.5070 -0.6593  2.5187
  813MOL0     H 9704   9.700   8.689   0.923  0.4360  2.8301  1.6227
  813MOL0     H 9705   9.834   8.747   0.816  1.7567  0.3119  0.0861
  813MOL0     H 9706   9.609   8.460   0.871  0.3462  1.0783  1.6321
  813MOL0     H 9707   9.712   8.146   0.662 -0.0160  1.2352 -1.5813
  813MOL0     H 9708   9.703   8.167   0.838  0.4326 -0.7234 -1.2878
  813MOL0     H 9709   9.490   8.282   0.814 -1.6698 -2.3622  0.3051
  813MOL0     H 9710   9.511   8.267   0.635  0.4394  3.5722  1.5122
  813MOL0     H 9711   9.486   8.026   0.831  2.1864 -0.2833 -0.1687
  813MOL0     H 9712   9.486   8.019   0.657 -3.6711  1.8800 -0.4170
  813MOL0     H 9713   9.282   8.128   0.831 -2.7895 -2.1408  0.7319
  813MOL0     H 9714   9.268   7.988   0.728 -4.1225  1.5379 -0.8571
  813MOL0     H 9715   9.151   8.286   0.449 -0.0804  0.2371 -0.8656
  813MOL0     H 9716   8.914   8.318   0.398  2.3397 -1.8164 -2.3393
  813MOL0     H 9717   8.617   8.122   0.209  0.5811  0.3615 -1.7526
  813MOL0     H 9718   8.419   8.125   0.063 -0.1262 -2.7595  0.1556
  813MOL0     H 9719   8.035   8.304   0.270 -3.5117 -1.7055 -2.3734
  813MOL0     H 9720   8.112   8.443   0.188 -2.7063  0.6309 -1.0064
  813MOL0     H 9721   7.941   8.231   0.052  0.2567 -0.3408  0.3547
  813MOL0     H 9722   7.891   8.393   0.122  3.1161  2.8182  0.7083
  813MOL0     H 9723   8.028   8.506  -0.045  0.2439  0.2518  0.6634
  813MOL0     H 9724   8.086   8.347  -0.108  0.9751  1.1645  2.0242
  813MOL0     H 9725   7.798   8.452  -0.089  0.4914  0.6539  0.3706
  813MOL0     H 9726   7.839   8.292  -0.168 -0.1986 -0.1700 -2.0479
  813MOL0     H 9727   7.982   8.534  -0.275  1.0579 -1.4197 -2.3053
  813MOL0     H 9728   7.808   8.510  -0.326  0.9347  1.5524 -1.5430
  813MOL0     H 9729   8.041   8.326  -0.388  1.8288  2.3219 -0.9971
  813MOL0     H 9730   7.865   8.288  -0.407  1.5544 -2.4911  0.8054
  813MOL0     H 9731   7.998   8.337  -0.602  1.2940  0.0333  1.2348
  813MOL0     H 9732   8.050   8.484  -0.546 -1.3446  1.4889 -0.3060
  813MOL0     H 9733   7.760   8.402  -0.639 -0.8497  0.6053 -0.2806
  813MOL0     H 9734   7.786   8.563  -0.567  0.4248 -2.1714  3.8952
  813MOL0     H 9735   8.230   8.378   0.384  0.9356  2.6950 -4.2096
  813MOL0     H 9736   8.453   8.385   0.498 -2.8179 -0.9569  2.4852
  813MOL0     H 9737   8.829   8.088   0.768  0.3567 -1.0554  0.3788
  813MOL0     H 9738   9.067   8.051   0.785  1.5848 -0.2803 -0.7373
  813MOL0     H 9739  10.360   9.142   1.531  1.0794 -0.1449 -0.8881
  813MOL0     H 9740  10.551   9.283   1.632  1.2516 -0.5361 -0.7664
  813MOL0     H 9741  10.803   9.297   2.229 -1.0315  0.6034 -0.2677
  813MOL0     H 9742  10.981   9.449   2.282  1.0280  1.7395  0.3209
  813MOL0     H 9743  11.091   9.667   2.266 -1.7189 -0.7475 -0.1689
  813MOL0     H 9744  11.225   9.737   2.181 -0.8771  0.9334  2.0940
  813MOL0     H 9745  11.367   9.535   2.221  0.3628 -5.7167 -0.8448
  813MOL0     H 9746  11.223   9.437   2.268 -0.3214  1.0388  1.1123
  813MOL0     H 9747  11.216   9.598   2.473  1.0231  0.1954  1.0802
  813MOL0     H 9748  11.356   9.679   2.414  1.0038 -0.0805  2.7132
  813MOL0     H 9749  11.341   9.447   2.579  2.3441  0.3068  1.0354
  813MOL0     H 9750  11.369   9.369   2.428 -0.4248 -0.4188  0.7212
  813MOL0     H 9751  11.747   9.529   2.540 -1.3102  2.3878  4.0259
  813MOL0     H 9752  11.037   9.533   1.867 -0.5242  3.1845  0.0725
  813MOL0     H 9753  10.817   9.282   1.735  1.9705 -0.4823 -3.5267
  813MOL0     H 9754  10.731   9.428   1.730 -0.4440 -0.8409  0.4081
  813MOL0     H 9755  10.906   9.432   1.696  0.5586 -0.0031  1.1897
  814MOL0     O 9756   7.955   5.582   6.599  1.0932 -0.3411 -0.0247
  814MOL0     C 9757   7.907   5.676   6.534  0.2274 -0.2817 -0.1323
  814MOL0     O 9758   7.807   5.665   6.442  0.3982  0.3920  0.6509
  814MOL0     C 9759   7.753   5.538   6.411 -0.2527 -0.0205  0.5499
  814MOL0     C 9760   7.824   5.441   6.340 -0.3354 -0.6180  0.7084
  814MOL0     C 9761   7.764   5.317   6.306  0.8215 -0.1065 -0.0584
  814MOL0     C 9762   7.630   5.294   6.341  0.2726 -0.6625  0.6995
  814MOL0     O 9763   7.583   5.170   6.324 -0.5144 -0.6336  0.2919
  814MOL0     C 9764   7.477   5.147   6.227 -0.6561 -0.1790  0.4142
  814MOL0     C 9765   7.554   5.165   6.095 -0.1213 -0.1537 -0.0525
  814MOL0     C 9766   7.634   5.039   6.068  0.2800 -0.6948 -0.3365
  814MOL0     C 9767   7.747   5.063   5.966 -0.8633  0.4624 -0.1514
  814MOL0     C 9768   7.781   4.924   5.897 -0.1569 -1.5495 -0.4857
  814MOL0     C 9769   7.907   4.936   5.817 -0.1405  0.6684  0.3905
  814MOL0     C 9770   7.950   4.809   5.756  0.0920  0.5880  1.3045
  814MOL0     C 9771   8.086   4.818   5.689  1.0053  0.5427 -0.3395
  814MOL0     N 9772   8.132   4.688   5.650 -0.6078 -0.2718  1.1014
  814MOL0     C 9773   8.088   4.624   5.536  0.0250 -0.3096 -0.3747
  814MOL0     C 9774   8.180   4.516   5.522 -0.3753 -0.8211 -0.6162
  814MOL0     C 9775   8.190   4.405   5.408 -0.6377 -0.4949 -0.6444
  814MOL0     C 9776   8.328   4.399   5.331  1.4005  0.2901  0.0102
  814MOL0     C 9777   8.300   4.362   5.188  0.7286  1.0691  0.3284
  814MOL0     C 9778   8.411   4.275   5.128  0.3141 -1.0674  0.0454
  814MOL0     O 9779   8.377   4.192   5.009 -0.1709 -0.2549 -0.1360
  814MOL0     C 9780   8.310   4.075   5.025  0.5067 -0.0118  0.5075
  814MOL0     C 9781   8.254   4.034   4.897  0.5215  0.1236 -0.3743
  814MOL0     C 9782   8.188   3.912   4.893  0.2504 -0.0003 -0.7712
  814MOL0     C 9783   8.176   3.826   5.008  0.0528  0.2443  0.6101
  814MOL0     C 9784   8.118   3.695   4.999  0.8938 -0.0683  0.8576
  814MOL0     O 9785   8.040   3.651   4.886  0.0797  0.2220 -0.3334
  814MOL0     C 9786   7.958   3.548   4.889 -0.3867  0.9748 -0.5439
  814MOL0     C 9787   7.838   3.530   4.969 -0.6094  0.1766  0.4185
  814MOL0     C 9788   7.752   3.421   4.932 -0.2191 -0.6734  0.0216
  814MOL0     C 9789   7.779   3.326   4.830 -0.9205 -0.5146  0.5955
  814MOL0     O 9790   7.696   3.226   4.787  0.0211 -0.1229 -0.2531
  814MOL0     C 9791   7.726   3.156   4.658 -0.2804  0.5668 -0.0630
  814MOL0     C 9792   7.606   3.065   4.624 -0.2656  0.5869  0.5701
  814MOL0     C 9793   7.473   3.135   4.609 -0.3363 -0.0522  0.3780
  814MOL0     C 9794   7.354   3.043   4.617  0.6038  0.2689 -0.0115
  814MOL0     C 9795   7.350   2.938   4.510 -1.1416 -0.2737  0.1341
  814MOL0     C 9796   7.243   2.827   4.529 -0.0223  0.3411 -0.1385
  814MOL0     C 9797   7.238   2.727   4.409 -1.2552  0.1178  0.2651
  814MOL0     C 9798   7.191   2.590   4.457 -0.7434  0.3139  0.2879
  814MOL0    Cl 9799   7.207   2.485   4.315 -0.6877 -0.2316  0.0129
  814MOL0     C 9800   7.896   3.362   4.753  0.2645 -0.3404  0.7271
  814MOL0     C 9801   7.983   3.460   4.787 -0.1786  0.0275  0.4679
  814MOL0     O 9802   8.139   3.623   5.094 -0.1644 -0.3514  0.0579
  814MOL0     C 9803   8.233   3.871   5.127 -0.0955  0.2276  0.7676
  814MOL0     C 9804   8.288   3.998   5.137 -0.2139 -0.7143 -0.0439
  814MOL0     N 9805   8.271   4.528   5.620  0.0956 -0.7312 -1.1825
  814MOL0     N 9806   8.245   4.626   5.696  0.7407  0.2922 -0.0823
  814MOL0     C 9807   7.562   5.401   6.413  0.6298 -0.1224  0.5533
  814MOL0     C 9808   7.623   5.518   6.449  0.6917 -0.3452 -0.0229
  814MOL0     C 9809   7.934   5.813   6.579 -0.3280  0.3207 -0.6121
  814MOL0     C 9810   7.831   5.912   6.580  0.0236 -0.0143  0.5038
  814MOL0     C 9811   7.866   6.043   6.619 -1.1960  0.2445 -1.0141
  814MOL0     C 9812   7.990   6.075   6.668 -0.8952 -0.1470 -0.5051
  814MOL0     O 9813   8.036   6.192   6.714 -0.2061  0.2507  0.0984
  814MOL0     C 9814   7.971   6.316   6.666  0.7169 -0.1854  0.2700
  814MOL0     C 9815   8.018   6.338   6.520  0.5807  0.4248  0.4871
  814MOL0     C 9816   8.167   6.380   6.513  0.3187 -0.8733  0.6000
  814MOL0     C 9817   8.188   6.515   6.579  0.3783 -0.7001 -0.1218
  814MOL0     C 9818   8.091   6.617   6.535  0.3126  0.3628 -0.2136
  814MOL0     C 9819   7.999   6.694   6.512 -0.2339 -0.3841  0.3703
  814MOL0     C 9820   8.084   5.978   6.676 -0.5121  0.0506  0.2160
  814MOL0     C 9821   8.062   5.840   6.643  0.9085 -0.8172 -0.3360
  814MOL0     C 9822   8.181   5.743   6.634  0.7591  0.5922  0.6478
  814MOL0     H 9823   7.925   5.459   6.304 -1.7940  0.5752 -3.3921
  814MOL0     H 9824   7.827   5.246   6.254 -0.6412  0.1913 -2.4179
  814MOL0     H 9825   7.431   5.048   6.231 -0.3610 -0.2735  2.1186
  814MOL0     H 9826   7.396   5.221   6.233 -0.1184  0.5208 -0.6893
  814MOL0     H 9827   7.618   5.254   6.100 -0.1148 -0.1481 -0.2550
  814MOL0     H 9828   7.482   5.176   6.014  0.0277 -1.8106 -0.4324
  814MOL0     H 9829   7.564   4.964   6.029 -2.1040 -0.5215  3.1891
  814MOL0     H 9830   7.675   4.995   6.159  1.1555 -1.6215 -1.1491
  814MOL0     H 9831   7.726   5.124   5.878  2.7521  1.6456 -0.3574
  814MOL0     H 9832   7.833   5.115   6.010  0.5266 -0.6180 -1.4924
  814MOL0     H 9833   7.786   4.840   5.967 -1.5381 -2.6340 -1.6392
  814MOL0     H 9834   7.701   4.907   5.824 -0.9169 -0.0330 -0.0611
  814MOL0     H 9835   7.897   5.009   5.736  0.1451 -0.0034 -0.2643
  814MOL0     H 9836   7.985   4.974   5.883  2.0544  0.8169 -2.0985
  814MOL0     H 9837   7.881   4.775   5.679  0.3817 -1.9669  2.0705
  814MOL0     H 9838   7.958   4.727   5.828  2.3417 -4.1477 -3.6038
  814MOL0     H 9839   8.070   4.885   5.605 -1.3009  0.3237 -0.1369
  814MOL0     H 9840   8.159   4.860   5.759 -0.4709  1.4548  0.7261
  814MOL0     H 9841   8.006   4.647   5.468  0.1185 -1.2341 -0.8207
  814MOL0     H 9842   8.172   4.312   5.462 -2.2160  0.4121  0.5012
  814MOL0     H 9843   8.101   4.414   5.344 -2.1777 -0.8596  1.3407
  814MOL0     H 9844   8.387   4.490   5.343  2.5483 -0.3416 -0.6691
  814MOL0     H 9845   8.393   4.331   5.387  2.8235 -0.0755 -1.9774
  814MOL0     H 9846   8.259   4.437   5.120  2.8963  1.6270 -0.4469
  814MOL0     H 9847   8.208   4.303   5.193 -0.3556  2.6940  0.1228
  814MOL0     H 9848   8.452   4.208   5.204 -0.6882 -1.9842 -0.1937
  814MOL0     H 9849   8.493   4.339   5.095  1.4964 -3.5475 -2.1602
  814MOL0     H 9850   8.240   4.103   4.815 -0.8883  2.1704  1.4595
  814MOL0     H 9851   8.138   3.869   4.807 -4.5351  0.2792  1.5632
  814MOL0     H 9852   7.825   3.598   5.052  1.7284  1.3859 -0.1280
  814MOL0     H 9853   7.670   3.399   4.999  0.2303 -1.0663  0.4473
  814MOL0     H 9854   7.746   3.235   4.585  1.3016  0.0264 -0.2474
  814MOL0     H 9855   7.822   3.108   4.675  0.5885  2.6598  1.4306
  814MOL0     H 9856   7.644   3.014   4.535 -2.0558  0.5375 -0.2078
  814MOL0     H 9857   7.609   2.988   4.702 -1.6287  0.7984  0.8480
  814MOL0     H 9858   7.466   3.216   4.682  0.3051 -1.0285  1.5321
  814MOL0     H 9859   7.470   3.175   4.506  1.5629 -0.9571 -0.0671
  814MOL0     H 9860   7.262   3.101   4.602  1.0400  1.4630  1.6839
  814MOL0     H 9861   7.354   3.008   4.721 -1.7310  1.3005  0.3891
  814MOL0     H 9862   7.446   2.887   4.494 -2.2327 -2.3048 -0.3211
  814MOL0     H 9863   7.327   2.992   4.417 -0.2893 -0.1761 -0.0278
  814MOL0     H 9864   7.267   2.777   4.623 -1.6821  2.3921  1.4864
  814MOL0     H 9865   7.143   2.870   4.540  0.8288  2.2648  0.4336
  814MOL0     H 9866   7.344   2.724   4.385 -0.9066 -0.5731  1.7725
  814MOL0     H 9867   7.177   2.774   4.331 -1.1706 -2.4591 -1.4555
  814MOL0     H 9868   7.242   2.553   4.546 -2.8263 -0.4434  1.2075
  814MOL0     H 9869   7.084   2.593   4.476 -1.3717  0.2226 -2.7320
  814MOL0     H 9870   7.929   3.307   4.665 -1.3374  1.8338 -1.3345
  814MOL0     H 9871   8.071   3.485   4.728  0.1191 -1.6593  0.1553
  814MOL0     H 9872   8.236   3.795   5.204 -0.5380 -3.3826 -2.4794
  814MOL0     H 9873   8.320   4.034   5.234  0.5805  2.4629 -1.3395
  814MOL0     H 9874   7.459   5.395   6.446  0.2297  2.4872 -0.0161
  814MOL0     H 9875   7.578   5.605   6.494 -1.4194 -1.9090  1.0941
  814MOL0     H 9876   7.731   5.898   6.540  0.4028 -1.2532 -0.0597
  814MOL0     H 9877   7.790   6.120   6.615 -3.3594 -1.6964  0.0727
  814MOL0     H 9878   7.995   6.399   6.734  0.5220  0.8094 -0.8457
  814MOL0     H 9879   7.861   6.317   6.660  0.7955 -0.0186 -3.4705
  814MOL0     H 9880   7.963   6.420   6.474  4.4124  1.4214 -2.9413
  814MOL0     H 9881   8.016   6.250   6.455  3.9402  1.7062 -1.6264
  814MOL0     H 9882   8.201   6.386   6.409  1.6721  1.3310  1.0991
  814MOL0     H 9883   8.223   6.296   6.556  2.5115  1.7738  3.3277
  814MOL0     H 9884   8.192   6.510   6.688 -4.2135  0.3390  0.2598
  814MOL0     H 9885   8.289   6.550   6.555  0.0461  0.4873  0.1642
  814MOL0     H 9886   7.917   6.761   6.498 -1.1809 -2.0673 -3.3716
  814MOL0     H 9887   8.183   6.009   6.707 -1.5472 -1.0747  5.5870
  814MOL0     H 9888   8.176   5.683   6.543  3.5375  1.4278 -0.1529
  814MOL0     H 9889   8.275   5.800   6.640 -0.0471  1.9618  0.7217
  814MOL0     H 9890   8.187   5.672   6.717  1.0883 -0.5409 -0.3140
  815MOL0     O 9891   0.939   9.706   2.810  0.3575 -0.8145 -0.1273
  815MOL0     C 9892   1.042   9.683   2.871 -0.0054  0.8925 -0.0436
  815MOL0     O 9893   1.071   9.566   2.945  0.5871  0.3627  0.4706
  815MOL0     C 9894   0.978   9.470   2.935  0.2356  0.5051  0.0610
  815MOL0     C 9895   1.007   9.364   2.841 -0.2091  0.1437  0.9073
  815MOL0     C 9896   0.932   9.248   2.843  0.1783  0.8180 -0.1902
  815MOL0     C 9897   0.827   9.228   2.925  1.2582  0.6945 -0.5503
  815MOL0     O 9898   0.762   9.105   2.942 -0.5384  0.3429  0.5762
  815MOL0     C 9899   0.846   8.995   2.974  0.2460  0.2889 -0.5666
  815MOL0     C 9900   0.787   8.919   3.095  0.1592  0.7071  1.0430
  815MOL0     C 9901   0.797   9.008   3.227  0.7532 -0.0224  0.2351
  815MOL0     C 9902   0.936   9.052   3.252  0.3494  0.0789 -0.5593
  815MOL0     C 9903   0.947   9.138   3.380  0.3669 -0.2256 -0.8151
  815MOL0     C 9904   0.881   9.271   3.365  0.7976  0.0652  0.4588
  815MOL0     C 9905   0.886   9.358   3.489 -0.1153 -0.8895  0.2598
  815MOL0     C 9906   0.829   9.499   3.445  0.6121 -1.3351 -0.5385
  815MOL0     N 9907   0.688   9.505   3.410 -0.4477  0.2064  0.9832
  815MOL0     C 9908   0.574   9.494   3.490 -0.3694  0.2184 -0.0233
  815MOL0     C 9909   0.469   9.489   3.405 -0.9558 -0.1525  0.3223
  815MOL0     C 9910   0.321   9.468   3.431  0.8072  0.7187 -0.4203
  815MOL0     C 9911   0.291   9.316   3.410 -0.3453  0.1531 -0.6686
  815MOL0     C 9912   0.169   9.258   3.485 -0.5066 -0.6412 -0.2249
  815MOL0     C 9913   0.049   9.355   3.468  0.1704  0.4087  0.0853
  815MOL0     O 9914  -0.075   9.299   3.518 -0.1652 -0.0976  0.5111
  815MOL0     C 9915  -0.191   9.314   3.435 -0.2913 -0.8586 -0.1521
  815MOL0     C 9916  -0.272   9.206   3.404  0.2436  0.1417  1.0734
  815MOL0     C 9917  -0.383   9.239   3.311  0.5461 -0.7068 -0.8374
  815MOL0     C 9918  -0.411   9.367   3.270  0.7654 -0.1199 -0.4549
  815MOL0     C 9919  -0.517   9.390   3.162 -0.7498 -0.1479 -0.0262
  815MOL0     O 9920  -0.569   9.274   3.112 -0.5502 -0.3340  0.5538
  815MOL0     C 9921  -0.643   9.285   2.993 -0.3499 -0.2827 -0.4836
  815MOL0     C 9922  -0.779   9.320   2.992 -0.6911 -0.1666  0.6715
  815MOL0     C 9923  -0.843   9.335   2.872  0.5241 -1.0589 -0.0361
  815MOL0     C 9924  -0.778   9.318   2.748 -0.4347 -0.1641 -1.3682
  815MOL0     O 9925  -0.837   9.326   2.623 -0.2537 -0.5521 -0.2065
  815MOL0     C 9926  -0.965   9.266   2.611  0.1830  0.5793 -0.1616
  815MOL0     C 9927  -1.000   9.254   2.462 -0.1727  1.1537  0.1836
  815MOL0     C 9928  -1.028   9.398   2.397 -0.2517  0.4514  0.5152
  815MOL0     C 9929  -1.044   9.389   2.247 -0.3753 -0.4983 -0.1356
  815MOL0     C 9930  -1.027   9.529   2.188 -0.7457  0.4395  0.3477
  815MOL0     C 9931  -1.156   9.606   2.194 -0.1113 -0.8185 -0.1426
  815MOL0     C 9932  -1.264   9.562   2.100 -0.4339  0.0994  0.3006
  815MOL0     C 9933  -1.357   9.682   2.065 -0.2730 -0.5844  0.1895
  815MOL0    Cl 9934  -1.492   9.626   1.963  0.3608 -0.5616 -0.5513
  815MOL0     C 9935  -0.642   9.305   2.750 -0.7814 -0.5539  0.6069
  815MOL0     C 9936  -0.579   9.284   2.873  0.3571  0.0307  0.1336
  815MOL0     O 9937  -0.529   9.501   3.106  0.4794  0.8288 -0.4266
  815MOL0     C 9938  -0.334   9.473   3.318 -0.4779  0.2015  0.6755
  815MOL0     C 9939  -0.226   9.443   3.400  0.6910  0.3888 -0.1934
  815MOL0     N 9940   0.518   9.501   3.272 -0.2799  0.1291 -0.2189
  815MOL0     N 9941   0.641   9.518   3.282 -0.9642  0.5460  0.1305
  815MOL0     C 9942   0.791   9.332   3.014 -0.1705 -0.5669  0.3754
  815MOL0     C 9943   0.860   9.457   3.020 -0.2048  0.0004  0.8621
  815MOL0     C 9944   1.146   9.789   2.875 -0.3310 -0.0063  0.9503
  815MOL0     C 9945   1.253   9.778   2.972 -1.3087 -0.7437 -0.7689
  815MOL0     C 9946   1.360   9.880   2.976  0.5413 -0.6597  0.1649
  815MOL0     C 9947   1.362   9.997   2.897  0.8078 -0.8222  0.6876
  815MOL0     O 9948   1.424  10.111   2.928  0.4235 -0.6867  0.1515
  815MOL0     C 9949   1.539  10.108   3.013  0.7392 -1.1569 -0.4715
  815MOL0     C 9950   1.666  10.108   2.936  0.3786 -0.4847  0.2626
  815MOL0     C 9951   1.676  10.223   2.837  0.1145  0.5348 -0.2821
  815MOL0     C 9952   1.796  10.209   2.741 -0.8720  0.8292 -1.0487
  815MOL0     C 9953   1.783  10.301   2.634  0.0741 -0.3670  0.2098
  815MOL0     C 9954   1.779  10.376   2.542  0.4045  0.3196 -0.3221
  815MOL0     C 9955   1.265   9.998   2.800  0.6967 -0.5418 -0.2291
  815MOL0     C 9956   1.157   9.903   2.783 -0.2751 -0.3146 -0.3612
  815MOL0     C 9957   1.062   9.919   2.668  0.2637  0.8243  0.3565
  815MOL0     H 9958   1.088   9.366   2.769 -1.0339 -2.4996 -0.1901
  815MOL0     H 9959   0.966   9.168   2.778 -2.5284 -1.4896  1.0768
  815MOL0     H 9960   0.854   8.921   2.894  1.8092 -2.9374  2.2785
  815MOL0     H 9961   0.947   9.023   3.006  0.2772 -0.1441 -0.2737
  815MOL0     H 9962   0.850   8.830   3.104  0.1174  0.6722  0.9898
  815MOL0     H 9963   0.683   8.886   3.087  0.8152 -0.9655 -2.5896
  815MOL0     H 9964   0.752   8.953   3.310 -0.3150  1.9896  1.0377
  815MOL0     H 9965   0.733   9.095   3.208  2.2046  0.5502 -2.6550
  815MOL0     H 9966   0.996   8.962   3.270  1.1538  0.6970 -0.0854
  815MOL0     H 9967   0.984   9.108   3.171  1.1211  0.5629  0.2175
  815MOL0     H 9968   0.902   9.086   3.465  0.8284 -3.8735 -2.5838
  815MOL0     H 9969   1.053   9.149   3.406 -0.0232 -0.2545  0.9257
  815MOL0     H 9970   0.923   9.324   3.280 -2.6782 -0.3883 -1.7242
  815MOL0     H 9971   0.777   9.242   3.353  1.0439 -1.3041  1.3512
  815MOL0     H 9972   0.990   9.359   3.523  0.6898 -5.0182 -1.4166
  815MOL0     H 9973   0.830   9.309   3.569  0.3708 -0.4542  0.8706
  815MOL0     H 9974   0.847   9.569   3.527 -1.1237  0.1551 -1.3317
  815MOL0     H 9975   0.890   9.539   3.364 -3.3213  3.1715 -1.7704
  815MOL0     H 9976   0.568   9.473   3.596 -0.5800 -1.2620 -0.3050
  815MOL0     H 9977   0.304   9.495   3.536  1.7383  0.0434 -0.0824
  815MOL0     H 9978   0.257   9.530   3.367  3.1901  2.3585 -1.3338
  815MOL0     H 9979   0.284   9.286   3.306 -3.0506 -2.2890  0.0997
  815MOL0     H 9980   0.384   9.269   3.445 -0.1972  0.5350 -0.5321
  815MOL0     H 9981   0.196   9.242   3.590  0.4551 -0.8523 -0.4984
  815MOL0     H 9982   0.129   9.172   3.431 -1.6956 -1.1115  1.3250
  815MOL0     H 9983   0.041   9.366   3.359  0.0966 -0.7437 -0.0360
  815MOL0     H 9984   0.063   9.455   3.510 -1.5721  0.8486 -0.3041
  815MOL0     H 9985  -0.258   9.102   3.434 -1.9764 -0.4183  0.4112
  815MOL0     H 9986  -0.445   9.159   3.274  2.5948 -2.7034 -0.1733
  815MOL0     H 9987  -0.834   9.328   3.085 -0.3413  3.6770  0.7095
  815MOL0     H 9988  -0.949   9.352   2.886  0.9072  2.6748 -0.6168
  815MOL0     H 9989  -0.963   9.169   2.661 -0.7518  0.1513 -0.9336
  815MOL0     H 9990  -1.041   9.327   2.661  0.5364  0.1470  0.9259
  815MOL0     H 9991  -0.910   9.216   2.413 -0.7073  1.1314 -0.8081
  815MOL0     H 9992  -1.089   9.192   2.450  0.6929  0.1078 -1.2180
  815MOL0     H 9993  -1.113   9.439   2.452 -0.8040  1.5827 -1.1246
  815MOL0     H 9994  -0.946   9.466   2.421  1.1064 -1.2843  0.9757
  815MOL0     H 9995  -1.134   9.332   2.227 -0.6471 -1.5291  3.2997
  815MOL0     H 9996  -0.962   9.329   2.206  2.1351  2.8331 -0.4241
  815MOL0     H 9997  -0.989   9.510   2.088  2.2685 -3.5541  1.9634
  815MOL0     H 9998  -0.945   9.582   2.238 -0.7589 -0.1495  1.0175
  815MOL0     H 9999  -1.181   9.648   2.291  3.9925  3.3937 -0.5049
  815MOL0     H10000  -1.121   9.705   2.160  1.4092 -1.0572  0.6462
  815MOL0     H10001  -1.314   9.484   2.158  1.3492  0.1532  2.0094
  815MOL0     H10002  -1.220   9.525   2.006 -3.1895  1.3524 -1.6081
  815MOL0     H10003  -1.396   9.725   2.158  1.7869  3.4733 -0.5936
  815MOL0     H10004  -1.305   9.758   2.006  1.2545 -0.6931  1.3314
  815MOL0     H10005  -0.581   9.316   2.661 -2.6298  0.0851 -0.6428
  815MOL0     H10006  -0.471   9.287   2.857  0.0310 -0.0171 -2.6099
  815MOL0     H10007  -0.352   9.576   3.287 -0.5634 -0.1280 -0.4093
  815MOL0     H10008  -0.159   9.527   3.417 -0.1500  2.3029 -4.8942
  815MOL0     H10009   0.714   9.325   3.089  1.5333 -2.4191  2.0788
  815MOL0     H10010   0.836   9.532   3.094  0.8627  1.6358 -0.3792
  815MOL0     H10011   1.247   9.708   3.054  0.6940 -1.2276 -0.9873
  815MOL0     H10012   1.422   9.873   3.066  3.2605 -0.8121 -1.6041
  815MOL0     H10013   1.538  10.026   3.085  0.9104 -1.2930 -0.6197
  815MOL0     H10014   1.558  10.196   3.074  1.7472 -3.0630  2.1926
  815MOL0     H10015   1.683  10.014   2.883  2.2445 -0.7161  1.1843
  815MOL0     H10016   1.751  10.115   3.004 -0.3514  0.1412  1.1332
  815MOL0     H10017   1.679  10.315   2.896 -1.5886 -0.5261  1.5793
  815MOL0     H10018   1.595  10.230   2.764  1.6520 -0.2643 -2.1563
  815MOL0     H10019   1.884  10.229   2.804 -2.6175 -1.5622  2.4952
  815MOL0     H10020   1.799  10.105   2.708 -2.1566  0.0550  1.1046
  815MOL0     H10021   1.767  10.455   2.471 -1.2747  1.1181  0.7779
  815MOL0     H10022   1.279  10.078   2.728  1.9681  0.0598  0.6446
  815MOL0     H10023   1.056   9.816   2.631  0.4930  1.1054 -0.4765
  815MOL0     H10024   0.964   9.955   2.699 -1.0676 -0.1727 -2.3995
  815MOL0     H10025   1.093   9.993   2.594  1.3102  1.2074  1.1366
  816MOL0     O10026   3.160  11.456   2.226  0.5600  0.9768  0.6323
  816MOL0     C10027   3.059  11.489   2.290 -0.9040 -0.2780 -0.4063
  816MOL0     O10028   2.943  11.422   2.309 -0.0995  0.1231 -0.5856
  816MOL0     C10029   2.948  11.290   2.277  0.1756  0.0835  0.0924
  816MOL0     C10030   3.011  11.196   2.359  0.7483  0.0279 -0.2509
  816MOL0     C10031   3.016  11.058   2.324 -0.1722 -0.3065  0.2646
  816MOL0     C10032   2.950  11.016   2.213 -0.6652  0.1636  0.0130
  816MOL0     O10033   2.951  10.887   2.170 -0.0989 -0.2350  0.8360
  816MOL0     C10034   3.042  10.793   2.241  0.2708 -0.5135  0.2509
  816MOL0     C10035   3.055  10.657   2.162 -0.1381  0.1720 -0.4608
  816MOL0     C10036   2.922  10.612   2.101 -0.6214 -0.3434  0.0609
  816MOL0     C10037   2.952  10.479   2.028 -0.6927  0.2652 -0.4471
  816MOL0     C10038   2.843  10.424   1.933 -0.3666  0.6074 -0.3680
  816MOL0     C10039   2.878  10.288   1.859  0.0842 -0.3739  0.1384
  816MOL0     C10040   2.747  10.241   1.789 -0.3567 -0.0924 -0.1127
  816MOL0     C10041   2.786  10.130   1.697 -0.3045 -0.4064  0.3660
  816MOL0     N10042   2.836  10.182   1.566 -0.0862 -0.7363 -0.6910
  816MOL0     C10043   2.766  10.286   1.504 -0.5808 -0.7646 -0.0178
  816MOL0     C10044   2.846  10.332   1.407 -0.0239 -0.4098  0.1991
  816MOL0     C10045   2.816  10.410   1.293  0.4411 -0.3211  0.8138
  816MOL0     C10046   2.937  10.478   1.223 -0.6266  0.0342  0.4523
  816MOL0     C10047   2.882  10.544   1.089  0.0644 -0.1389 -0.6417
  816MOL0     C10048   3.005  10.629   1.042 -0.1244  0.4782 -0.3056
  816MOL0     O10049   3.116  10.549   0.994  0.1799 -0.2509 -0.3150
  816MOL0     C10050   3.104  10.481   0.881  0.1511  1.4566 -0.1639
  816MOL0     C10051   3.082  10.342   0.884 -0.2091  0.4934  0.3346
  816MOL0     C10052   3.065  10.274   0.755  0.2887  0.3199  0.5814
  816MOL0     C10053   3.063  10.348   0.640 -0.0793  0.9991  0.6269
  816MOL0     C10054   3.059  10.279   0.505  0.5369  0.7173 -1.2116
  816MOL0     O10055   3.039  10.143   0.509  0.3220  0.9635  1.0166
  816MOL0     C10056   3.024  10.065   0.396  0.3242  0.3340 -0.4836
  816MOL0     C10057   2.930  10.082   0.293  0.2032  0.4743  0.2809
  816MOL0     C10058   2.915   9.993   0.181 -0.4072 -0.3201  0.5511
  816MOL0     C10059   2.992   9.886   0.172  0.5284 -0.3664  0.3738
  816MOL0     O10060   2.965   9.795   0.075 -0.0118  0.3974 -0.1621
  816MOL0     C10061   3.074   9.721   0.023  0.8394 -0.2385  0.3162
  816MOL0     C10062   3.039   9.680  -0.115 -0.8655 -0.8763  0.5037
  816MOL0     C10063   3.131   9.576  -0.183 -0.0891  0.5077 -0.0652
  816MOL0     C10064   3.145   9.438  -0.117  0.8667  0.7905  0.4251
  816MOL0     C10065   3.261   9.358  -0.175 -0.0981 -0.1136  0.4788
  816MOL0     C10066   3.243   9.210  -0.183 -0.2221  0.5978 -1.3227
  816MOL0     C10067   3.376   9.146  -0.195 -0.1193  0.0290 -0.3938
  816MOL0     C10068   3.370   9.001  -0.248 -0.3500 -0.4764  0.0070
  816MOL0    Cl10069   3.246   8.922  -0.148  0.0885  0.1439  0.0623
  816MOL0     C10070   3.092   9.865   0.267 -0.4005 -0.1768  0.0235
  816MOL0     C10071   3.115   9.954   0.374  0.2810 -0.1414  0.2234
  816MOL0     O10072   3.049  10.344   0.404  0.0718 -0.1146 -0.3353
  816MOL0     C10073   3.085  10.478   0.637 -1.1189 -0.3932 -0.5750
  816MOL0     C10074   3.114  10.544   0.757 -0.0504  0.4028 -0.3908
  816MOL0     N10075   2.953  10.248   1.412 -0.6901  0.0861  0.8838
  816MOL0     N10076   2.957  10.168   1.519  0.1821  0.6729 -0.0951
  816MOL0     C10077   2.896  11.115   2.129  0.1843  0.9636 -0.8354
  816MOL0     C10078   2.893  11.246   2.163  0.6042  0.5429 -0.8430
  816MOL0     C10079   3.083  11.624   2.358 -0.7337 -0.2027  0.4640
  816MOL0     C10080   3.200  11.654   2.436 -0.2495  0.8308  0.5732
  816MOL0     C10081   3.219  11.786   2.486 -0.1249  0.5068 -0.0101
  816MOL0     C10082   3.118  11.885   2.469 -0.4706 -0.1422  0.3775
  816MOL0     O10083   3.124  12.016   2.518  0.0194 -1.1115 -0.6388
  816MOL0     C10084   3.226  12.062   2.604  0.7815 -0.4208  0.7653
  816MOL0     C10085   3.199  12.207   2.646 -0.3937 -0.8285  0.1568
  816MOL0     C10086   3.167  12.308   2.541  0.6874 -0.3007  0.0966
  816MOL0     C10087   3.277  12.320   2.437 -0.5728  0.2437 -0.1564
  816MOL0     C10088   3.261  12.442   2.361 -0.5982 -0.2455  0.0652
  816MOL0     C10089   3.248  12.549   2.311  0.4107 -0.7828 -0.0952
  816MOL0     C10090   3.012  11.856   2.390 -0.1184  0.3292  0.3495
  816MOL0     C10091   2.981  11.729   2.342 -0.1378 -0.3025  0.8423
  816MOL0     C10092   2.849  11.718   2.260  0.1836 -0.0832 -0.8418
  816MOL0     H10093   3.055  11.224   2.454 -0.9725  0.5871  0.4166
  816MOL0     H10094   3.062  10.992   2.397 -0.6943  0.7604  1.5993
  816MOL0     H10095   3.138  10.844   2.254 -0.1910 -0.1611  3.0955
  816MOL0     H10096   3.003  10.769   2.341  0.4180 -0.9103  0.2120
  816MOL0     H10097   3.079  10.578   2.234 -1.9067 -0.3443 -0.3936
  816MOL0     H10098   3.135  10.656   2.087 -0.3190 -0.6042 -0.6525
  816MOL0     H10099   2.891  10.687   2.028 -1.4460 -0.0479  0.6867
  816MOL0     H10100   2.836  10.601   2.169  0.6431  0.6214  1.8931
  816MOL0     H10101   3.055  10.480   1.991 -1.0888 -3.0459 -2.0869
  816MOL0     H10102   2.963  10.402   2.105 -1.9846 -0.0140 -0.5084
  816MOL0     H10103   2.756  10.403   1.996 -0.2527  1.1385 -0.0275
  816MOL0     H10104   2.826  10.504   1.860 -1.1260  1.1013  0.3437
  816MOL0     H10105   2.956  10.308   1.784  1.2840 -0.0830  1.4134
  816MOL0     H10106   2.916  10.216   1.932  0.2265  0.6285  1.0949
  816MOL0     H10107   2.715  10.329   1.732  1.3716 -0.6266 -2.0485
  816MOL0     H10108   2.673  10.216   1.866  1.4107  2.6190  2.7271
  816MOL0     H10109   2.861  10.067   1.746 -2.6044 -2.1572  1.8864
  816MOL0     H10110   2.696  10.077   1.664 -1.0068  0.2290  1.2257
  816MOL0     H10111   2.665  10.322   1.525 -0.5526 -0.9003  0.3569
  816MOL0     H10112   2.755  10.353   1.223 -1.7668  2.0208  0.6672
  816MOL0     H10113   2.743  10.484   1.326 -0.9060 -2.6648  3.5036
  816MOL0     H10114   2.979  10.559   1.284  0.8464  1.1604 -1.9202
  816MOL0     H10115   3.018  10.406   1.208  0.7821  1.7004 -0.2937
  816MOL0     H10116   2.797  10.609   1.115  0.7509  0.5410 -0.0605
  816MOL0     H10117   2.857  10.460   1.024 -0.0413 -0.1746 -0.5572
  816MOL0     H10118   3.026  10.709   1.114 -2.9744  0.7543  0.3546
  816MOL0     H10119   2.963  10.677   0.952 -2.1361 -0.3638  0.1273
  816MOL0     H10120   3.092  10.282   0.973  2.8985  1.6779  0.9004
  816MOL0     H10121   3.036  10.170   0.748 -3.3144  1.3071 -2.3214
  816MOL0     H10122   2.854  10.158   0.305  1.0395  1.4740 -0.5765
  816MOL0     H10123   2.847  10.019   0.100 -2.1815  0.4914  2.2108
  816MOL0     H10124   3.166   9.779   0.015 -0.1369  1.2348 -0.6813
  816MOL0     H10125   3.089   9.642   0.098  0.3362  1.1595  1.9675
  816MOL0     H10126   2.942   9.630  -0.107 -2.1241  1.1872 -0.9420
  816MOL0     H10127   3.028   9.772  -0.174 -2.3148 -2.3420 -1.7031
  816MOL0     H10128   3.098   9.563  -0.287 -0.5609 -1.6121  0.3178
  816MOL0     H10129   3.226   9.628  -0.195 -0.0919  0.5400  0.0570
  816MOL0     H10130   3.056   9.375  -0.130  3.6483 -3.3648 -0.6859
  816MOL0     H10131   3.162   9.448  -0.010  0.5115  1.0927  0.4566
  816MOL0     H10132   3.343   9.380  -0.106  1.2474 -0.6552 -0.9208
  816MOL0     H10133   3.278   9.398  -0.275  0.9036  4.3270  2.1843
  816MOL0     H10134   3.203   9.172  -0.088  3.5237 -3.5130 -1.0652
  816MOL0     H10135   3.169   9.182  -0.259 -0.4453  2.6438 -1.9169
  816MOL0     H10136   3.435   9.152  -0.103  1.1466  1.1171 -1.2479
  816MOL0     H10137   3.434   9.196  -0.273 -0.0169 -1.9120 -1.6459
  816MOL0     H10138   3.341   9.002  -0.353 -1.4017  0.3091  0.2834
  816MOL0     H10139   3.467   8.950  -0.243  0.7310  1.3534 -1.2001
  816MOL0     H10140   3.148   9.772   0.261 -1.6226 -0.9278 -0.0499
  816MOL0     H10141   3.186   9.949   0.456 -1.6652  5.8269  2.8059
  816MOL0     H10142   3.083  10.540   0.548  0.8745  0.5328 -0.0260
  816MOL0     H10143   3.139  10.649   0.755 -1.3283  0.7727 -3.8444
  816MOL0     H10144   2.868  11.102   2.024  1.0212 -2.8799 -0.7149
  816MOL0     H10145   2.859  11.321   2.093  3.0381  1.6749 -0.9143
  816MOL0     H10146   3.278  11.579   2.443 -1.1358 -0.1590  0.1465
  816MOL0     H10147   3.316  11.808   2.529 -1.5638  3.0431  2.2499
  816MOL0     H10148   3.323  12.049   2.555 -0.7882  0.0652 -2.8533
  816MOL0     H10149   3.223  12.006   2.698 -0.9422  0.9992  1.6116
  816MOL0     H10150   3.295  12.224   2.697  1.7610 -4.3285 -2.2952
  816MOL0     H10151   3.115  12.212   2.715 -0.9244  2.0169 -0.5800
  816MOL0     H10152   3.147  12.405   2.586  2.4377  0.8373 -1.4189
  816MOL0     H10153   3.081  12.270   2.485  0.1309  0.0963  0.6827
  816MOL0     H10154   3.378  12.311   2.478 -0.2623 -2.9154 -1.2963
  816MOL0     H10155   3.265  12.239   2.364 -0.7813 -1.5087  1.7372
  816MOL0     H10156   3.245  12.645   2.263  0.6451  1.1526  3.4221
  816MOL0     H10157   2.932  11.928   2.377 -0.6345 -0.1916  0.5626
  816MOL0     H10158   2.779  11.664   2.324  0.4701  1.0612  0.4680
  816MOL0     H10159   2.810  11.816   2.232 -1.1990 -0.7019 -1.1407
  816MOL0     H10160   2.873  11.678   2.161  1.3291 -2.2575  0.2271
  817MOL0     O10161   7.732   7.424   2.386  0.3739 -0.5347  0.3519
  817MOL0     C10162   7.658   7.483   2.309  0.0881 -0.9700  0.1609
  817MOL0     O10163   7.528   7.524   2.337 -0.5202  0.1265 -0.0520
  817MOL0     C10164   7.457   7.456   2.435 -1.1816  0.6513  0.5338
  817MOL0     C10165   7.487   7.317   2.469  0.0414 -0.4801 -0.9183
  817MOL0     C10166   7.414   7.248   2.576  0.8382  0.1177  0.6559
  817MOL0     C10167   7.324   7.324   2.649 -0.2024  0.0335 -0.1006
  817MOL0     O10168   7.241   7.276   2.751  0.3166 -0.0120  0.6096
  817MOL0     C10169   7.192   7.143   2.738 -0.0237  0.4506  0.3487
  817MOL0     C10170   7.089   7.106   2.840  0.4066  0.7169 -0.3413
  817MOL0     C10171   7.029   6.965   2.787  0.5169 -0.4495 -0.2818
  817MOL0     C10172   6.912   7.006   2.689 -0.8114  0.3793 -0.0890
  817MOL0     C10173   6.864   6.866   2.631 -0.9925 -1.1702 -0.1191
  817MOL0     C10174   6.757   6.882   2.524 -0.4420  0.0420 -0.5686
  817MOL0     C10175   6.760   6.745   2.444 -0.2425 -0.3071 -0.1865
  817MOL0     C10176   6.647   6.745   2.343  1.5761  0.0281  1.3264
  817MOL0     N10177   6.544   6.640   2.371  0.4971  0.1350 -0.5876
  817MOL0     C10178   6.469   6.647   2.482  0.9321  0.3458 -0.2705
  817MOL0     C10179   6.383   6.537   2.479  0.1285  0.3146  0.0818
  817MOL0     C10180   6.296   6.496   2.592 -0.2148  0.9575  0.0947
  817MOL0     C10181   6.348   6.364   2.656  0.6516 -0.2118 -0.9128
  817MOL0     C10182   6.246   6.273   2.732 -1.5744  0.3048 -0.0270
  817MOL0     C10183   6.309   6.170   2.826 -0.2037 -0.2497  0.2683
  817MOL0     O10184   6.367   6.243   2.944  0.1703  0.1673  0.3770
  817MOL0     C10185   6.295   6.282   3.049 -0.0390 -1.2299 -0.5829
  817MOL0     C10186   6.165   6.246   3.082  1.0280  0.9117 -0.1373
  817MOL0     C10187   6.107   6.284   3.201 -1.7676  0.0597  0.7904
  817MOL0     C10188   6.178   6.364   3.292  0.3918  0.4431  0.1761
  817MOL0     C10189   6.111   6.426   3.411  0.9596  0.6771 -0.3497
  817MOL0     O10190   5.973   6.388   3.434 -0.4085 -0.3176 -0.1637
  817MOL0     C10191   5.918   6.430   3.546 -0.6051 -0.9116 -0.7383
  817MOL0     C10192   5.847   6.557   3.550 -0.7129 -0.0088  0.4681
  817MOL0     C10193   5.804   6.606   3.673 -0.3340 -0.5910  0.6770
  817MOL0     C10194   5.828   6.536   3.798  0.7685 -0.0260  0.9789
  817MOL0     O10195   5.780   6.593   3.912 -0.6450  0.4528 -0.1280
  817MOL0     C10196   5.835   6.545   4.037 -0.5172  0.8617 -0.5704
  817MOL0     C10197   5.779   6.632   4.151  0.7267  0.1990 -0.2787
  817MOL0     C10198   5.789   6.557   4.272  0.7999 -0.6489 -0.8378
  817MOL0     C10199   5.938   6.549   4.335  0.4616  0.8088 -0.3655
  817MOL0     C10200   5.940   6.505   4.476 -0.3859 -0.2384 -0.2262
  817MOL0     C10201   6.061   6.556   4.562  0.4793 -0.0179  0.0714
  817MOL0     C10202   6.036   6.538   4.713  0.3938  0.5858 -0.0161
  817MOL0     C10203   6.153   6.581   4.797  0.9517 -0.1347  0.0003
  817MOL0    Cl10204   6.255   6.435   4.805 -0.4967 -0.2364  0.1937
  817MOL0     C10205   5.900   6.415   3.794  0.0632 -0.4417  0.2738
  817MOL0     C10206   5.940   6.366   3.668  0.0071  0.3441  0.1425
  817MOL0     O10207   6.177   6.500   3.486 -0.1641  0.2400  0.0622
  817MOL0     C10208   6.308   6.410   3.261  0.0392  0.6037 -0.6703
  817MOL0     C10209   6.366   6.370   3.141  0.4178  0.0042  0.5555
  817MOL0     N10210   6.422   6.462   2.364 -0.0888  0.2794  0.6271
  817MOL0     N10211   6.522   6.521   2.309 -0.1773 -0.0003 -0.1190
  817MOL0     C10212   7.286   7.459   2.612 -0.0654 -0.2141 -0.2323
  817MOL0     C10213   7.358   7.525   2.511  0.2122 -0.1948  0.0585
  817MOL0     C10214   7.719   7.537   2.180 -0.1943  0.7671 -0.7061
  817MOL0     C10215   7.744   7.670   2.172 -0.2675  0.6293 -0.4340
  817MOL0     C10216   7.787   7.724   2.055 -0.1326 -0.1751  0.4401
  817MOL0     C10217   7.827   7.644   1.947  0.0894  0.1547 -0.6205
  817MOL0     O10218   7.891   7.702   1.847 -0.1257 -0.2074  0.5191
  817MOL0     C10219   7.810   7.793   1.766  0.2799 -0.1177 -0.4020
  817MOL0     C10220   7.821   7.743   1.621 -0.4956 -0.0226  0.4652
  817MOL0     C10221   7.762   7.837   1.522  0.2500 -0.1507  0.2719
  817MOL0     C10222   7.848   7.962   1.475  0.4180  0.3215 -0.6276
  817MOL0     C10223   7.761   8.081   1.487  0.2027 -0.4525  0.0473
  817MOL0     C10224   7.689   8.183   1.471  0.3941  0.1477 -0.0648
  817MOL0     C10225   7.812   7.506   1.956  0.3771 -0.4208  0.3910
  817MOL0     C10226   7.757   7.441   2.077 -0.5971 -0.2733  0.4620
  817MOL0     C10227   7.732   7.292   2.079  0.2448 -0.4262 -0.4612
  817MOL0     H10228   7.559   7.251   2.421  0.3795 -0.8230  0.0296
  817MOL0     H10229   7.419   7.141   2.594 -1.3410 -0.2061 -0.3429
  817MOL0     H10230   7.134   7.144   2.646 -0.3571 -1.1209  0.5149
  817MOL0     H10231   7.274   7.070   2.734  1.4331  2.0392 -0.4204
  817MOL0     H10232   7.003   7.173   2.838  1.7561  2.5324  0.3231
  817MOL0     H10233   7.132   7.101   2.940 -2.0733  3.3548  0.9834
  817MOL0     H10234   6.996   6.894   2.863  1.3202 -3.2216 -2.3992
  817MOL0     H10235   7.103   6.911   2.728  0.9810 -0.6693  0.4866
  817MOL0     H10236   6.840   7.071   2.740  0.3931  0.1425  2.0240
  817MOL0     H10237   6.958   7.064   2.609 -0.2085 -0.9852 -0.7607
  817MOL0     H10238   6.951   6.808   2.599  0.6252  0.5938  0.8996
  817MOL0     H10239   6.822   6.807   2.712 -0.4514 -0.0138  1.0413
  817MOL0     H10240   6.660   6.898   2.572  0.2303 -0.3356  0.9683
  817MOL0     H10241   6.781   6.964   2.455  2.2972 -2.0693 -2.3470
  817MOL0     H10242   6.746   6.661   2.514 -0.9128  0.2597  0.3711
  817MOL0     H10243   6.857   6.735   2.393  1.5168 -1.3651  3.0433
  817MOL0     H10244   6.584   6.834   2.344 -0.9026 -1.6228  1.6041
  817MOL0     H10245   6.697   6.743   2.246  0.4120 -0.1472  0.7108
  817MOL0     H10246   6.496   6.726   2.551  3.0479 -0.1191 -0.5184
  817MOL0     H10247   6.279   6.582   2.658  2.2964  0.8822  0.9444
  817MOL0     H10248   6.196   6.478   2.551  0.5552 -0.3440 -1.3289
  817MOL0     H10249   6.392   6.306   2.574 -0.9601  1.1251 -2.8130
  817MOL0     H10250   6.430   6.397   2.720 -0.1855  0.9126 -0.3824
  817MOL0     H10251   6.190   6.228   2.649 -1.1261  1.3882 -0.9420
  817MOL0     H10252   6.182   6.341   2.788 -1.9553  0.5288 -0.7192
  817MOL0     H10253   6.396   6.122   2.779  0.8419  1.0867  0.7715
  817MOL0     H10254   6.246   6.089   2.862  0.2995 -0.2823  1.1044
  817MOL0     H10255   6.117   6.192   3.001  2.7477  2.1278 -2.0771
  817MOL0     H10256   6.011   6.240   3.225 -0.6450 -3.1551  0.0024
  817MOL0     H10257   5.835   6.617   3.460 -1.7881  0.4906  0.9314
  817MOL0     H10258   5.755   6.703   3.673  1.2798  0.2534  0.2857
  817MOL0     H10259   5.830   6.437   4.051  0.9738  1.0923  2.5216
  817MOL0     H10260   5.941   6.570   4.026  0.4300 -2.4869 -0.1682
  817MOL0     H10261   5.846   6.717   4.167  2.2460 -1.2077  1.2615
  817MOL0     H10262   5.676   6.657   4.126 -0.6203 -4.7527 -0.7224
  817MOL0     H10263   5.731   6.611   4.347  3.0352  0.6704  0.0455
  817MOL0     H10264   5.746   6.457   4.264 -2.0161  0.4607 -0.7755
  817MOL0     H10265   5.989   6.645   4.324 -0.5612  1.3697 -0.2787
  817MOL0     H10266   5.993   6.483   4.267 -2.1026  1.4672 -3.3008
  817MOL0     H10267   5.938   6.395   4.481  1.3363 -0.2552  0.7722
  817MOL0     H10268   5.860   6.555   4.531  1.1575  1.7995  0.2843
  817MOL0     H10269   6.151   6.503   4.527 -0.6805 -3.3894  1.7428
  817MOL0     H10270   6.066   6.663   4.541 -0.9382 -0.0152 -0.3059
  817MOL0     H10271   6.025   6.429   4.711 -0.4151  0.6616 -1.9175
  817MOL0     H10272   5.934   6.577   4.726 -0.0788  1.7623 -5.1233
  817MOL0     H10273   6.211   6.664   4.756 -0.4547  1.6264  1.4077
  817MOL0     H10274   6.137   6.625   4.896  1.4862 -0.9061  0.4364
  817MOL0     H10275   5.924   6.363   3.886 -0.1907 -0.7366  0.1725
  817MOL0     H10276   6.000   6.276   3.657 -1.0890 -0.7091  2.0924
  817MOL0     H10277   6.365   6.467   3.333 -1.1644  1.1893 -0.1641
  817MOL0     H10278   6.465   6.395   3.105  0.2748 -0.6906 -0.3680
  817MOL0     H10279   7.214   7.524   2.660  1.4491  1.4519 -0.0790
  817MOL0     H10280   7.324   7.628   2.513  2.3427  0.5724  2.9436
  817MOL0     H10281   7.708   7.736   2.250 -0.6180 -0.1387  0.0575
  817MOL0     H10282   7.793   7.831   2.039  1.0082 -0.4720 -1.4536
  817MOL0     H10283   7.856   7.892   1.777 -1.0977  0.4488  0.4624
  817MOL0     H10284   7.706   7.816   1.790  0.7596  1.2769  0.4585
  817MOL0     H10285   7.757   7.654   1.621 -2.6920  1.4663 -0.6534
  817MOL0     H10286   7.918   7.708   1.585  0.2041  1.8067  0.4696
  817MOL0     H10287   7.667   7.867   1.567  1.0832  2.0208  0.7421
  817MOL0     H10288   7.734   7.795   1.425 -0.7795 -0.5621  0.7356
  817MOL0     H10289   7.923   7.982   1.552 -0.4348  0.2928  0.2209
  817MOL0     H10290   7.891   7.944   1.376  1.0280  2.8549 -0.9018
  817MOL0     H10291   7.625   8.268   1.464  1.4888  1.1446  1.2896
  817MOL0     H10292   7.847   7.445   1.873  1.0476  0.3935  0.0656
  817MOL0     H10293   7.774   7.239   1.993 -5.5191 -2.5032 -2.4518
  817MOL0     H10294   7.768   7.249   2.173 -0.6614 -3.2021 -1.2930
  817MOL0     H10295   7.626   7.280   2.055 -0.3697 -2.6694  2.7668
  818MOL0     O10296   5.763   2.180   7.873  0.4628  0.0584  0.5402
  818MOL0     C10297   5.777   2.301   7.913 -0.1827  1.0944  0.0360
  818MOL0     O10298   5.891   2.359   7.938  0.1603 -0.3648  0.3567
  818MOL0     C10299   5.994   2.275   7.978  0.9890 -0.3334 -0.4887
  818MOL0     C10300   5.975   2.194   8.092  0.1138 -0.6084  0.4137
  818MOL0     C10301   6.074   2.104   8.136  0.1994 -0.0684 -0.6100
  818MOL0     C10302   6.189   2.083   8.066  0.0231 -0.1078  0.8487
  818MOL0     O10303   6.288   1.993   8.121  0.7921  0.7643 -0.0214
  818MOL0     C10304   6.377   1.937   8.025  0.0296 -0.4518 -0.6679
  818MOL0     C10305   6.440   1.820   8.086 -0.7433  1.0612 -0.5041
  818MOL0     C10306   6.548   1.862   8.193 -0.5684 -0.2600 -0.0944
  818MOL0     C10307   6.681   1.890   8.126 -0.7393 -0.0253  1.0354
  818MOL0     C10308   6.796   1.864   8.223 -0.9055  0.6574  0.5436
  818MOL0     C10309   6.816   1.977   8.327 -0.3761 -0.9528  0.0751
  818MOL0     C10310   6.936   1.945   8.418  0.1386 -0.0315  1.7083
  818MOL0     C10311   7.078   1.937   8.360 -0.3462 -1.2425 -0.1101
  818MOL0     N10312   7.176   1.904   8.462  0.2578  0.8216 -0.1506
  818MOL0     C10313   7.171   1.943   8.598  0.3864 -0.5655 -0.4921
  818MOL0     C10314   7.283   1.894   8.653  0.1374  0.5045 -0.3006
  818MOL0     C10315   7.327   1.906   8.790  0.9207  0.1509 -0.7729
  818MOL0     C10316   7.374   2.043   8.829  0.8104 -0.9044 -0.4823
  818MOL0     C10317   7.262   2.156   8.816 -0.5875 -0.0693  0.5719
  818MOL0     C10318   7.273   2.276   8.909  0.4314  0.0478  0.0475
  818MOL0     O10319   7.215   2.257   9.041 -0.0245 -0.4053  0.5918
  818MOL0     C10320   7.197   2.364   9.124 -0.0109  0.1111 -0.2511
  818MOL0     C10321   7.090   2.354   9.212  1.3946 -0.3637 -0.5033
  818MOL0     C10322   7.053   2.458   9.293  0.7542  0.0152 -0.8316
  818MOL0     C10323   7.114   2.587   9.292 -0.0580  0.0720  0.2028
  818MOL0     C10324   7.070   2.700   9.368  0.2308  0.0714 -0.2815
  818MOL0     O10325   7.091   2.817   9.300  0.3943 -0.0916  0.2554
  818MOL0     C10326   7.058   2.934   9.360 -0.1064  0.1204 -0.5490
  818MOL0     C10327   6.918   2.977   9.367  0.2295 -0.1786  0.1452
  818MOL0     C10328   6.883   3.094   9.429 -0.2553 -0.0069 -1.2438
  818MOL0     C10329   6.981   3.165   9.493 -0.1900  0.4781 -0.6253
  818MOL0     O10330   6.962   3.287   9.550 -0.0711  0.8398  0.1103
  818MOL0     C10331   6.828   3.345   9.559  0.8662 -0.8713 -0.2481
  818MOL0     C10332   6.820   3.467   9.653  0.2848 -0.0771 -0.2442
  818MOL0     C10333   6.771   3.599   9.589 -0.2517  0.6984  0.3174
  818MOL0     C10334   6.889   3.680   9.526  0.8488  0.7860 -0.2049
  818MOL0     C10335   6.923   3.825   9.573 -0.1314 -0.5271  0.3635
  818MOL0     C10336   6.802   3.920   9.553  0.4742 -0.5266 -0.6558
  818MOL0     C10337   6.828   4.075   9.539 -0.7310  0.0489  0.2843
  818MOL0     C10338   6.927   4.134   9.638 -0.4948  0.7633 -0.3664
  818MOL0    Cl10339   6.930   4.307   9.605  0.4042  0.5789 -0.0658
  818MOL0     C10340   7.108   3.122   9.496 -0.2757  0.0090  0.3558
  818MOL0     C10341   7.156   3.017   9.417 -0.7061 -0.0979 -0.1239
  818MOL0     O10342   7.005   2.677   9.475 -0.4073 -0.3676 -0.3676
  818MOL0     C10343   7.227   2.594   9.201  1.3282  0.1929  0.3396
  818MOL0     C10344   7.262   2.484   9.120  0.5647  0.8786 -0.2282
  818MOL0     N10345   7.347   1.814   8.565 -0.4416 -0.0477 -0.6791
  818MOL0     N10346   7.288   1.827   8.448  0.1086 -0.0974  0.5774
  818MOL0     C10347   6.204   2.156   7.942 -0.3848 -0.1984 -0.0475
  818MOL0     C10348   6.103   2.250   7.895  0.2153 -0.1580  0.7486
  818MOL0     C10349   5.646   2.374   7.906 -0.3200  0.3536  0.1996
  818MOL0     C10350   5.532   2.309   7.959  0.1126 -0.2540  0.6458
  818MOL0     C10351   5.416   2.384   7.971 -1.1037  0.2256 -0.9072
  818MOL0     C10352   5.392   2.504   7.901  0.4287 -0.3700  0.4898
  818MOL0     O10353   5.274   2.569   7.919  0.1391  0.1697 -0.3536
  818MOL0     C10354   5.207   2.610   7.798  0.3960  0.3492  0.1763
  818MOL0     C10355   5.116   2.490   7.765  0.7067 -0.9086  0.4533
  818MOL0     C10356   5.027   2.438   7.876 -0.5522 -0.6868 -0.9283
  818MOL0     C10357   4.947   2.323   7.839 -0.0825 -0.2060  0.5979
  818MOL0     C10358   4.848   2.301   7.943  0.7727 -0.4416  0.3918
  818MOL0     C10359   4.771   2.262   8.028 -0.1703 -0.2455 -0.1160
  818MOL0     C10360   5.502   2.565   7.836 -0.1453  0.3869  1.1603
  818MOL0     C10361   5.625   2.493   7.840  0.0067 -0.0608 -0.0079
  818MOL0     C10362   5.739   2.563   7.770 -0.6046 -0.2640 -0.1528
  818MOL0     H10363   5.882   2.195   8.147  0.2300 -3.4419  0.8135
  818MOL0     H10364   6.048   2.035   8.215 -1.6867  2.1042  0.8275
  818MOL0     H10365   6.317   1.910   7.938  2.0696 -1.0519 -1.9589
  818MOL0     H10366   6.461   2.005   8.009  0.9288  0.0062  4.3418
  818MOL0     H10367   6.480   1.747   8.016 -1.3690 -0.8549  1.0380
  818MOL0     H10368   6.368   1.758   8.140  1.9868 -2.4075 -0.4754
  818MOL0     H10369   6.566   1.785   8.268  0.5529  1.6284  1.6949
  818MOL0     H10370   6.522   1.949   8.255  0.6169 -0.2680  0.4453
  818MOL0     H10371   6.681   1.821   8.041 -1.8968 -0.6580  1.5142
  818MOL0     H10372   6.680   1.988   8.077 -0.9727  0.9428  2.8859
  818MOL0     H10373   6.789   1.763   8.265  0.2267 -0.3517 -1.4993
  818MOL0     H10374   6.888   1.872   8.164 -0.6252  2.0731  1.1391
  818MOL0     H10375   6.830   2.077   8.285  0.7650 -0.4981  1.4671
  818MOL0     H10376   6.726   1.990   8.388 -0.3615 -0.0777 -0.0746
  818MOL0     H10377   6.914   1.840   8.440 -2.0053 -0.3125 -1.2239
  818MOL0     H10378   6.923   2.011   8.505  1.2643 -0.8599  2.5343
  818MOL0     H10379   7.085   1.881   8.267  1.2708 -1.4403  0.0870
  818MOL0     H10380   7.112   2.037   8.332  0.8375 -1.7096 -0.4003
  818MOL0     H10381   7.097   2.007   8.646  1.8498  0.9542 -0.1887
  818MOL0     H10382   7.238   1.873   8.845 -1.8093  4.6455 -1.9572
  818MOL0     H10383   7.413   1.842   8.808  0.6626  0.0170  0.0484
  818MOL0     H10384   7.411   2.031   8.931 -0.7509  0.4139  0.2670
  818MOL0     H10385   7.463   2.075   8.773  0.0851  3.1062  0.3833
  818MOL0     H10386   7.158   2.122   8.814 -0.9105  0.9376 -0.0547
  818MOL0     H10387   7.282   2.195   8.716  0.4601 -0.9474  0.4138
  818MOL0     H10388   7.216   2.359   8.866 -0.5938  0.0327  1.2985
  818MOL0     H10389   7.379   2.304   8.913  0.3961  0.0373  1.3169
  818MOL0     H10390   7.023   2.269   9.216  1.3633 -0.4490 -2.1754
  818MOL0     H10391   6.961   2.445   9.350  0.7313 -1.0582 -1.0788
  818MOL0     H10392   6.838   2.911   9.334  0.1022  0.8888 -1.8678
  818MOL0     H10393   6.778   3.124   9.430 -0.2649 -0.0076 -0.0819
  818MOL0     H10394   6.781   3.363   9.461 -1.8875 -1.3832  0.8753
  818MOL0     H10395   6.763   3.280   9.617 -0.9802  0.8244 -0.2902
  818MOL0     H10396   6.753   3.448   9.737 -0.0086 -0.1164 -0.4857
  818MOL0     H10397   6.917   3.479   9.701 -0.5023  2.4500  0.8505
  818MOL0     H10398   6.683   3.582   9.527 -1.2624  1.6967  1.4245
  818MOL0     H10399   6.735   3.662   9.670 -0.6512 -0.6415  1.2253
  818MOL0     H10400   6.864   3.689   9.420 -1.1067 -3.0493 -0.2092
  818MOL0     H10401   6.980   3.620   9.529  0.7216  0.3338 -3.1001
  818MOL0     H10402   7.000   3.856   9.501 -0.8579 -0.1082 -0.2456
  818MOL0     H10403   6.970   3.831   9.671  2.1299 -0.3210 -0.6606
  818MOL0     H10404   6.739   3.893   9.468 -1.0386  4.4135 -1.4228
  818MOL0     H10405   6.743   3.916   9.645 -0.8364  0.6427 -1.4070
  818MOL0     H10406   6.728   4.118   9.531 -1.4161 -1.5786 -0.4227
  818MOL0     H10407   6.857   4.079   9.434 -4.3518  0.6894 -0.8583
  818MOL0     H10408   6.894   4.116   9.741 -0.5654  3.4157  0.1495
  818MOL0     H10409   7.018   4.081   9.609  0.0183  2.3824 -1.8853
  818MOL0     H10410   7.176   3.186   9.552  2.0164 -0.8651 -1.2721
  818MOL0     H10411   7.257   2.978   9.409 -0.4668  0.8585 -2.9134
  818MOL0     H10412   7.289   2.683   9.191  0.4206  1.0103  1.6460
  818MOL0     H10413   7.354   2.494   9.063  2.2779 -1.2057  1.9718
  818MOL0     H10414   6.292   2.124   7.887 -0.3067 -0.3716  0.1718
  818MOL0     H10415   6.109   2.306   7.802 -3.2312  2.0812  1.6603
  818MOL0     H10416   5.531   2.213   8.008  1.9889  0.1945  1.6676
  818MOL0     H10417   5.329   2.352   8.027  1.0746 -2.3294  1.3229
  818MOL0     H10418   5.274   2.647   7.719 -0.3330 -0.6802 -0.9564
  818MOL0     H10419   5.139   2.690   7.830  0.4605 -0.3559  2.2398
  818MOL0     H10420   5.180   2.405   7.739  0.6718 -1.3376  1.6913
  818MOL0     H10421   5.047   2.514   7.684  0.7358 -2.0036  0.0830
  818MOL0     H10422   4.961   2.516   7.915  3.2546  1.8422  1.1106
  818MOL0     H10423   5.088   2.402   7.958 -0.0604 -1.7454 -1.7313
  818MOL0     H10424   4.904   2.347   7.742  4.2675 -2.1405 -2.0874
  818MOL0     H10425   5.009   2.235   7.819 -1.6015 -1.4536  1.1342
  818MOL0     H10426   4.706   2.209   8.095  0.8024 -1.9612 -0.4601
  818MOL0     H10427   5.476   2.653   7.777 -0.4680  0.4762  1.4338
  818MOL0     H10428   5.778   2.513   7.681  0.1432  1.4731 -0.8552
  818MOL0     H10429   5.720   2.665   7.733 -0.0129 -0.4023 -0.8840
  818MOL0     H10430   5.830   2.575   7.830  1.2827  0.2929 -2.8973
  819MOL0     O10431  11.341  11.413  10.163  0.5984  0.2505 -1.1364
  819MOL0     C10432  11.346  11.444  10.045 -0.5412 -0.1836  0.8838
  819MOL0     O10433  11.349  11.362   9.943 -0.6854 -0.8746  0.3002
  819MOL0     C10434  11.354  11.230   9.984 -0.6775  0.4365 -0.0412
  819MOL0     C10435  11.480  11.170   9.987  0.7645  0.0394  1.0488
  819MOL0     C10436  11.493  11.036  10.021 -0.7527  0.5215 -0.4091
  819MOL0     C10437  11.373  10.961  10.054  0.2424 -0.3473  0.0342
  819MOL0     O10438  11.366  10.826  10.096  0.4799 -0.3193  0.1563
  819MOL0     C10439  11.498  10.769  10.142  0.1215 -0.2227 -0.1995
  819MOL0     C10440  11.538  10.842  10.271 -0.0991  0.5624  0.9031
  819MOL0     C10441  11.429  10.825  10.379 -0.4333  0.1877 -0.9777
  819MOL0     C10442  11.448  10.918  10.502 -0.4929 -0.5950  0.6436
  819MOL0     C10443  11.385  11.051  10.461 -0.1872  0.3277 -1.0724
  819MOL0     C10444  11.411  11.169  10.549 -0.2681  0.7153  1.1297
  819MOL0     C10445  11.315  11.287  10.517  0.2034  0.5657  0.3357
  819MOL0     C10446  11.324  11.394  10.625 -0.4536  0.1875 -0.3067
  819MOL0     N10447  11.257  11.517  10.588 -0.0536 -0.5052  0.3782
  819MOL0     C10448  11.316  11.644  10.589 -0.4714 -0.0367  0.2317
  819MOL0     C10449  11.212  11.725  10.573 -0.0912  1.0238 -0.7703
  819MOL0     C10450  11.206  11.872  10.607 -0.1076 -0.3404  0.1203
  819MOL0     C10451  11.287  11.968  10.516  0.0282 -0.4281  0.0206
  819MOL0     C10452  11.283  12.118  10.551 -0.0542 -0.5460 -0.5828
  819MOL0     C10453  11.358  12.220  10.467  0.2208 -0.5522 -0.2321
  819MOL0     O10454  11.499  12.196  10.466  0.0199  0.0973 -0.3074
  819MOL0     C10455  11.552  12.278  10.374  0.8443  0.7268  0.2819
  819MOL0     C10456  11.554  12.231  10.239 -0.4725 -0.4628 -0.8713
  819MOL0     C10457  11.588  12.315  10.129 -0.5148  0.1659  0.4265
  819MOL0     C10458  11.615  12.455  10.153 -0.8757  0.4723  0.0189
  819MOL0     C10459  11.639  12.559  10.051  0.1654  0.9464  0.6832
  819MOL0     O10460  11.619  12.510   9.921 -0.3793  0.0070 -0.2571
  819MOL0     C10461  11.651  12.589   9.816  0.2310 -0.2722  0.5535
  819MOL0     C10462  11.605  12.541   9.690 -0.5361 -0.4117  0.0111
  819MOL0     C10463  11.651  12.605   9.572  0.0849  0.5069  0.1489
  819MOL0     C10464  11.731  12.713   9.571 -0.1973  0.0616  0.5792
  819MOL0     O10465  11.753  12.772   9.446 -0.2470 -0.1788 -0.1021
  819MOL0     C10466  11.876  12.851   9.443  1.0270  0.6623  0.2523
  819MOL0     C10467  11.913  12.876   9.300 -0.1437 -0.9744 -0.1825
  819MOL0     C10468  11.919  12.750   9.225 -0.3027  0.0700  0.2617
  819MOL0     C10469  11.974  12.765   9.088  0.0801 -0.0482  0.2691
  819MOL0     C10470  12.024  12.628   9.034  0.3337 -0.6963 -0.3127
  819MOL0     C10471  12.089  12.647   8.899  0.5812  0.0112  0.4943
  819MOL0     C10472  12.144  12.525   8.836  0.0121 -0.4388  0.0107
  819MOL0     C10473  12.035  12.431   8.781 -0.9441  0.0557  0.2423
  819MOL0    Cl10474  12.117  12.278   8.723  0.2272  0.1749 -0.4079
  819MOL0     C10475  11.788  12.766   9.694  0.5787 -0.1587  0.2521
  819MOL0     C10476  11.747  12.691   9.811 -0.2079  0.2870 -0.0737
  819MOL0     O10477  11.658  12.675  10.074  0.4541 -0.6760  0.4494
  819MOL0     C10478  11.631  12.499  10.281  0.2360 -0.9167  0.3609
  819MOL0     C10479  11.601  12.418  10.397 -0.0836  0.5933 -0.6595
  819MOL0     N10480  11.100  11.646  10.558  0.5772 -0.0647 -1.0710
  819MOL0     N10481  11.125  11.520  10.554 -0.1404 -0.1967  0.0835
  819MOL0     C10482  11.248  11.024  10.028  0.6340 -0.2596  0.2680
  819MOL0     C10483  11.241  11.160   9.997  0.4483 -0.2226 -0.4770
  819MOL0     C10484  11.324  11.594  10.028  0.0817  0.2233 -0.1336
  819MOL0     C10485  11.389  11.677  10.125 -0.7629 -0.4055  0.2724
  819MOL0     C10486  11.389  11.821  10.100  0.3424 -0.2043  0.2855
  819MOL0     C10487  11.327  11.871   9.991 -0.6198 -0.2849  0.9506
  819MOL0     O10488  11.319  12.013   9.975  0.6539  0.0010  1.0430
  819MOL0     C10489  11.189  12.075   9.981  0.5083 -0.7406  0.4001
  819MOL0     C10490  11.127  12.115   9.845  0.5676 -0.1684  0.4560
  819MOL0     C10491  11.130  12.264   9.812 -0.4831  0.0684  0.0647
  819MOL0     C10492  11.287  12.320   9.814 -0.0472  0.0142  0.0375
  819MOL0     C10493  11.267  12.464   9.783 -0.1732 -0.1453  0.1234
  819MOL0     C10494  11.241  12.584   9.753 -1.4637  0.0124  0.2020
  819MOL0     C10495  11.270  11.793   9.896 -0.1291 -0.0140  0.9468
  819MOL0     C10496  11.264  11.655   9.915 -0.3695  0.4734  0.2559
  819MOL0     C10497  11.208  11.586   9.791  0.5268  0.0270 -0.3010
  819MOL0     H10498  11.566  11.232   9.966 -0.1172  1.5244  1.6816
  819MOL0     H10499  11.589  10.985  10.020 -0.8901  0.2667 -0.7528
  819MOL0     H10500  11.495  10.666  10.177  2.1649 -0.2007  0.1643
  819MOL0     H10501  11.570  10.770  10.060  2.5546 -0.9513  1.8206
  819MOL0     H10502  11.563  10.944  10.239 -0.4429 -0.8073 -5.0047
  819MOL0     H10503  11.632  10.797  10.304 -1.0000 -0.9208  1.5471
  819MOL0     H10504  11.440  10.721  10.412  1.7023  1.3433  2.4228
  819MOL0     H10505  11.326  10.836  10.344 -1.1337  2.0184  1.4261
  819MOL0     H10506  11.404  10.882  10.596 -2.1631 -1.0828 -0.2806
  819MOL0     H10507  11.556  10.925  10.518  0.1679 -1.8330 -2.5085
  819MOL0     H10508  11.412  11.071  10.357 -1.0984  1.4068 -1.1230
  819MOL0     H10509  11.279  11.027  10.450  0.0579 -1.6507  0.3226
  819MOL0     H10510  11.395  11.140  10.653 -0.6911  1.1491  1.1853
  819MOL0     H10511  11.516  11.200  10.543  0.7573 -2.5939 -0.8592
  819MOL0     H10512  11.211  11.255  10.513  0.8031 -1.4101 -2.3480
  819MOL0     H10513  11.345  11.333  10.422  1.4483 -1.1212 -0.1462
  819MOL0     H10514  11.268  11.348  10.707  0.1851 -0.1701 -0.0654
  819MOL0     H10515  11.431  11.415  10.631 -0.2583 -1.0399  0.6505
  819MOL0     H10516  11.420  11.668  10.606 -0.1360  1.8262 -3.4210
  819MOL0     H10517  11.102  11.904  10.613 -0.9216 -2.5215 -1.4508
  819MOL0     H10518  11.228  11.891  10.713 -1.3013  0.8055  0.1788
  819MOL0     H10519  11.392  11.936  10.520 -0.5758 -2.5185  0.3924
  819MOL0     H10520  11.241  11.959  10.417  1.7461  3.3028 -1.3260
  819MOL0     H10521  11.307  12.118  10.657 -0.2583  1.0944 -0.5072
  819MOL0     H10522  11.176  12.140  10.551 -0.5106 -2.4424  1.3910
  819MOL0     H10523  11.344  12.321  10.507  1.3283  1.0180 -3.4593
  819MOL0     H10524  11.321  12.209  10.365 -1.2720 -1.8925  0.4194
  819MOL0     H10525  11.519  12.135  10.201 -1.3629  0.4698 -2.5235
  819MOL0     H10526  11.584  12.271  10.030  1.1602 -0.1783  0.4802
  819MOL0     H10527  11.541  12.453   9.689 -2.3177  0.8152  1.1227
  819MOL0     H10528  11.604  12.565   9.483 -0.3777 -0.8436  0.9598
  819MOL0     H10529  11.862  12.950   9.487 -2.7048 -1.3892  4.4526
  819MOL0     H10530  11.953  12.794   9.495  0.8423  1.9360  2.0030
  819MOL0     H10531  11.842  12.942   9.251  1.3191  0.8657  0.0811
  819MOL0     H10532  12.006  12.933   9.302 -0.3413 -0.6142 -1.0268
  819MOL0     H10533  11.988  12.684   9.277  1.4259  2.1997  0.8130
  819MOL0     H10534  11.820  12.704   9.218 -0.4674  0.6771 -4.1712
  819MOL0     H10535  12.062  12.829   9.088  0.6928 -0.8716 -0.6038
  819MOL0     H10536  11.896  12.787   9.015 -0.9604 -1.1176  1.0069
  819MOL0     H10537  11.934  12.566   9.033 -0.2880  0.0069  2.5856
  819MOL0     H10538  12.102  12.597   9.104  1.7500  0.3878 -1.3626
  819MOL0     H10539  12.017  12.688   8.828 -0.7363 -0.6728  1.4006
  819MOL0     H10540  12.177  12.712   8.892  2.8112 -2.9104 -1.8224
  819MOL0     H10541  12.224  12.490   8.902  2.4084  0.7740 -2.0102
  819MOL0     H10542  12.210  12.553   8.753  3.3866 -0.9850  2.3043
  819MOL0     H10543  11.970  12.405   8.864 -1.2297 -2.2866 -0.6169
  819MOL0     H10544  11.983  12.494   8.708 -0.3316  1.0187  0.6313
  819MOL0     H10545  11.863  12.845   9.698 -0.5092  1.1342 -2.3884
  819MOL0     H10546  11.783  12.729   9.905 -0.1596  1.0015 -0.3770
  819MOL0     H10547  11.657  12.602  10.303 -0.8506 -0.9015  1.6664
  819MOL0     H10548  11.609  12.456  10.498  0.9176  0.4872 -0.6848
  819MOL0     H10549  11.158  10.963  10.034 -0.3645  1.1773  0.5452
  819MOL0     H10550  11.145  11.199   9.965  1.2732  3.8336  1.3178
  819MOL0     H10551  11.438  11.663  10.220 -1.3831  1.9384  0.9988
  819MOL0     H10552  11.422  11.887  10.180 -0.2005 -2.9700  2.9327
  819MOL0     H10553  11.202  12.169  10.035 -0.0389 -0.2795 -0.2446
  819MOL0     H10554  11.112  12.017  10.031  1.9338 -2.6866  0.4415
  819MOL0     H10555  11.021  12.091   9.848  0.7649 -1.0531  0.4123
  819MOL0     H10556  11.173  12.054   9.767  0.0739 -0.6411  0.5276
  819MOL0     H10557  11.072  12.322   9.884 -3.0319 -2.8554  0.5972
  819MOL0     H10558  11.088  12.288   9.714 -0.3249  0.9133  0.1944
  819MOL0     H10559  11.334  12.301   9.911  0.1101 -1.3308 -0.2825
  819MOL0     H10560  11.353  12.283   9.734 -1.7802 -0.3712 -1.2648
  819MOL0     H10561  11.221  12.684   9.721  0.6878  0.2614 -0.5563
  819MOL0     H10562  11.241  11.845   9.805  0.1617  1.3100  1.5932
  819MOL0     H10563  11.108  11.617   9.760  0.6414  1.2909  0.5386
  819MOL0     H10564  11.281  11.604   9.711  1.4230 -1.0486  0.2372
  819MOL0     H10565  11.193  11.479   9.807  0.2328  0.0890 -0.1629
  820MOL0     O10566   3.309   9.215  10.978 -0.5005  0.0127  0.4383
  820MOL0     C10567   3.273   9.253  10.863 -0.4046 -0.1836 -0.2586
  820MOL0     O10568   3.147   9.292  10.829 -0.3501 -0.0971 -0.5253
  820MOL0     C10569   3.056   9.314  10.929 -0.4879 -0.9080 -0.0452
  820MOL0     C10570   2.993   9.438  10.938  0.2201 -0.2732 -0.4790
  820MOL0     C10571   2.906   9.475  11.034  0.1028 -0.0318 -0.9659
  820MOL0     C10572   2.863   9.381  11.139  0.0959 -0.8988 -0.0825
  820MOL0     O10573   2.780   9.437  11.234 -0.5554  0.1171 -0.0018
  820MOL0     C10574   2.714   9.354  11.322  0.0468  0.0587  0.3060
  820MOL0     C10575   2.614   9.441  11.409  0.4285  1.0300  0.2631
  820MOL0     C10576   2.700   9.523  11.512  0.4504  1.0024 -0.1206
  820MOL0     C10577   2.607   9.613  11.575 -0.3386  0.3056  0.2212
  820MOL0     C10578   2.665   9.704  11.675 -0.6137 -0.8233  0.4282
  820MOL0     C10579   2.561   9.803  11.725  0.2961  0.5905  0.6583
  820MOL0     C10580   2.601   9.906  11.830  0.6226 -0.4729 -0.9280
  820MOL0     C10581   2.475   9.986  11.873 -0.4880 -0.3046 -0.8881
  820MOL0     N10582   2.521  10.068  11.986 -0.2274  0.7189  0.0804
  820MOL0     C10583   2.589  10.188  11.989  0.0711  0.6491  0.8056
  820MOL0     C10584   2.578  10.235  12.114  0.3843  0.9113 -0.6590
  820MOL0     C10585   2.646  10.359  12.159  1.1916  0.1055 -0.4290
  820MOL0     C10586   2.541  10.447  12.227  0.1776  0.1787 -0.8927
  820MOL0     C10587   2.583  10.544  12.330 -0.5386 -0.4837 -0.3359
  820MOL0     C10588   2.485  10.650  12.385 -0.5151 -0.0457  0.5961
  820MOL0     O10589   2.565  10.731  12.477 -0.2712 -1.4279  0.2713
  820MOL0     C10590   2.500  10.815  12.570  0.2007 -0.0727 -0.2143
  820MOL0     C10591   2.365  10.799  12.598  0.1625  0.6917  0.2631
  820MOL0     C10592   2.306  10.866  12.701 -0.3139  0.0943 -0.1702
  820MOL0     C10593   2.388  10.946  12.795  0.0723 -0.5819 -0.2734
  820MOL0     C10594   2.329  11.029  12.895 -0.3447  0.6370 -0.2662
  820MOL0     O10595   2.410  11.133  12.950 -0.0926 -0.4606 -0.1082
  820MOL0     C10596   2.349  11.208  13.045 -0.7282  0.4334 -0.5941
  820MOL0     C10597   2.359  11.344  13.027 -0.5064  0.4096  0.4129
  820MOL0     C10598   2.310  11.429  13.117  0.8748  0.2189  0.5710
  820MOL0     C10599   2.259  11.383  13.239 -0.6410  0.1751 -0.7340
  820MOL0     O10600   2.213  11.474  13.330 -1.2149  0.7071 -0.0333
  820MOL0     C10601   2.207  11.608  13.316 -0.5666  0.5586  0.8142
  820MOL0     C10602   2.139  11.666  13.437 -1.1355  0.9762  0.1143
  820MOL0     C10603   2.235  11.734  13.540 -0.9058 -0.1719  0.4406
  820MOL0     C10604   2.167  11.838  13.630 -1.0551 -0.6457 -0.3094
  820MOL0     C10605   2.280  11.899  13.702 -0.1237 -0.1161  0.3428
  820MOL0     C10606   2.248  11.941  13.842 -0.5354 -0.2392 -0.4410
  820MOL0     C10607   2.368  11.980  13.936 -0.4803  0.1696  0.4269
  820MOL0     C10608   2.506  11.927  13.901 -0.6543 -0.1701 -0.6757
  820MOL0    Cl10609   2.659  11.991  13.981  0.2396  0.2903 -0.3520
  820MOL0     C10610   2.257  11.244  13.262 -0.6717  0.0824 -0.7065
  820MOL0     C10611   2.304  11.154  13.164  0.2353 -0.8004 -0.6900
  820MOL0     O10612   2.207  11.013  12.910  0.7541 -0.7604  0.3151
  820MOL0     C10613   2.531  10.966  12.763  0.0585 -0.8301  0.3209
  820MOL0     C10614   2.575  10.900  12.648 -0.9996 -0.7048  0.4952
  820MOL0     N10615   2.510  10.148  12.193  0.1887  0.7358  0.5554
  820MOL0     N10616   2.479  10.045  12.116 -0.2641  0.2775 -0.2552
  820MOL0     C10617   2.920   9.244  11.122 -0.0665 -0.0778  0.5830
  820MOL0     C10618   3.010   9.211  11.012  0.1069 -0.5921 -0.2849
  820MOL0     C10619   3.361   9.222  10.745  1.3275 -0.1961 -0.0902
  820MOL0     C10620   3.307   9.134  10.647  0.1036  0.7840  0.9983
  820MOL0     C10621   3.389   9.119  10.528  0.9297  0.5093 -0.7864
  820MOL0     C10622   3.522   9.171  10.519 -0.4608  1.0948 -0.9789
  820MOL0     O10623   3.599   9.149  10.412 -0.0067  0.5641  0.0360
  820MOL0     C10624   3.749   9.162  10.399  0.8031  0.8992  0.4969
  820MOL0     C10625   3.816   9.042  10.463  0.9740  0.1876 -0.5174
  820MOL0     C10626   3.860   9.068  10.611  0.4074 -0.4065 -0.9942
  820MOL0     C10627   3.954   8.965  10.670 -0.1325 -1.0692  0.5989
  820MOL0     C10628   4.098   8.996  10.648  0.4454  1.6085  0.1598
  820MOL0     C10629   4.219   9.012  10.624  0.1095  0.6484  0.8596
  820MOL0     C10630   3.573   9.244  10.621  0.0683  0.5223 -0.4540
  820MOL0     C10631   3.494   9.273  10.740 -0.1219 -0.5916  0.4015
  820MOL0     C10632   3.560   9.345  10.848  0.3306  0.1566 -0.6797
  820MOL0     H10633   3.026   9.507  10.861  2.0625  2.4704  2.4937
  820MOL0     H10634   2.870   9.577  11.042  0.4848 -0.0330  2.1685
  820MOL0     H10635   2.665   9.270  11.272  0.6924 -0.0069 -0.2321
  820MOL0     H10636   2.797   9.326  11.387 -0.3544 -1.7166  0.1018
  820MOL0     H10637   2.551   9.372  11.467  3.5065 -0.2090  2.3695
  820MOL0     H10638   2.547   9.502  11.347 -2.3508 -2.0769 -0.1024
  820MOL0     H10639   2.782   9.574  11.460  0.2774  1.1510 -0.2480
  820MOL0     H10640   2.742   9.447  11.579  2.0148 -1.5206 -3.6781
  820MOL0     H10641   2.560   9.675  11.499  0.0072 -0.2430 -0.4514
  820MOL0     H10642   2.535   9.548  11.627  1.9800 -0.7763  2.2890
  820MOL0     H10643   2.712   9.649  11.757  0.5802  3.2892  2.7908
  820MOL0     H10644   2.743   9.766  11.631 -2.9371  3.2606  1.5394
  820MOL0     H10645   2.527   9.861  11.639 -1.1571  0.1700  0.9228
  820MOL0     H10646   2.477   9.747  11.768  2.4927 -0.4079  4.0984
  820MOL0     H10647   2.678   9.970  11.785 -0.1246 -0.9005 -2.9056
  820MOL0     H10648   2.646   9.850  11.913 -0.5143 -2.2072 -1.4402
  820MOL0     H10649   2.428  10.037  11.788 -0.0396 -1.7386 -2.0485
  820MOL0     H10650   2.400   9.915  11.910  1.7613 -0.9967  2.9462
  820MOL0     H10651   2.651  10.229  11.910 -1.0649  3.2035  1.1278
  820MOL0     H10652   2.719  10.333  12.236  1.6831 -1.6608 -1.4438
  820MOL0     H10653   2.695  10.406  12.073  0.3080  3.1992  0.6141
  820MOL0     H10654   2.496  10.502  12.144  1.6329  0.9815 -1.1842
  820MOL0     H10655   2.480  10.385  12.292  0.2939 -1.4875 -2.3084
  820MOL0     H10656   2.662  10.594  12.273 -0.4212  1.2570  1.2698
  820MOL0     H10657   2.631  10.494  12.415  2.0534  0.7473 -0.9671
  820MOL0     H10658   2.413  10.594  12.445 -0.6018 -0.7071 -0.1077
  820MOL0     H10659   2.438  10.710  12.307  2.0545  2.2921  0.6878
  820MOL0     H10660   2.299  10.731  12.545  0.5812  0.5602 -0.1001
  820MOL0     H10661   2.200  10.849  12.720  0.3629 -2.0501  2.4416
  820MOL0     H10662   2.383  11.372  12.924 -3.2072 -2.1785 -1.0914
  820MOL0     H10663   2.294  11.532  13.089  0.1025 -0.1587 -0.4223
  820MOL0     H10664   2.307  11.647  13.296  0.9767 -2.8875  1.0620
  820MOL0     H10665   2.145  11.640  13.232 -1.0669 -2.7988 -0.2343
  820MOL0     H10666   2.066  11.739  13.400  0.2884  0.8811 -3.2430
  820MOL0     H10667   2.074  11.592  13.485  1.8842 -0.8406  1.7455
  820MOL0     H10668   2.274  11.648  13.595 -0.2343 -0.7423 -0.8817
  820MOL0     H10669   2.318  11.780  13.486 -1.3161 -0.1805 -0.2063
  820MOL0     H10670   2.082  11.809  13.692 -1.1857  1.5478  0.5941
  820MOL0     H10671   2.133  11.914  13.559 -0.7439 -1.1003 -0.9561
  820MOL0     H10672   2.325  11.981  13.645  0.9397  0.1378  1.5124
  820MOL0     H10673   2.353  11.819  13.709  0.0798  0.0007 -0.3521
  820MOL0     H10674   2.177  12.024  13.844 -0.3792 -0.0611 -1.8350
  820MOL0     H10675   2.198  11.850  13.876  1.1539 -1.1147 -0.1712
  820MOL0     H10676   2.341  11.980  14.042 -0.1393  1.5829  0.5325
  820MOL0     H10677   2.374  12.087  13.916 -0.8459  0.0132 -0.5539
  820MOL0     H10678   2.506  11.818  13.904  1.2623 -0.1829  1.0039
  820MOL0     H10679   2.529  11.956  13.798  2.0485 -0.7711 -0.3314
  820MOL0     H10680   2.225  11.204  13.358 -2.7523 -2.8061 -2.4609
  820MOL0     H10681   2.298  11.053  13.202 -1.9392  0.3661  2.5021
  820MOL0     H10682   2.604  11.029  12.812 -1.9581  3.6635 -1.8726
  820MOL0     H10683   2.680  10.915  12.624 -0.5202  3.1403  3.7717
  820MOL0     H10684   2.895   9.160  11.188 -1.1540 -1.0244 -0.9603
  820MOL0     H10685   3.051   9.113  10.993 -1.0892 -1.1780  0.0843
  820MOL0     H10686   3.206   9.095  10.651  0.4791 -0.2159  1.1431
  820MOL0     H10687   3.345   9.066  10.444  0.2270  1.5680 -1.0973
  820MOL0     H10688   3.784   9.261  10.429 -1.8542  1.9128  0.5324
  820MOL0     H10689   3.768   9.153  10.291 -0.8733  0.0710  0.2400
  820MOL0     H10690   3.908   9.013  10.411  0.5589  0.9351 -1.7190
  820MOL0     H10691   3.739   8.964  10.465  1.1780 -0.0146 -0.4573
  820MOL0     H10692   3.768   9.064  10.670  0.0825 -0.5399 -1.5027
  820MOL0     H10693   3.900   9.170  10.613  3.0510 -1.2797 -2.9758
  820MOL0     H10694   3.938   8.948  10.777  0.6813 -1.5671  0.6522
  820MOL0     H10695   3.936   8.868  10.622  1.8330 -1.2872  0.2287
  820MOL0     H10696   4.325   9.028  10.614 -0.2839  1.8258 -2.7830
  820MOL0     H10697   3.677   9.275  10.623  0.4017 -0.5647  1.2198
  820MOL0     H10698   3.505   9.391  10.931  2.9986  1.0916  0.7061
  820MOL0     H10699   3.631   9.283  10.904  1.5475 -0.1190 -2.4375
  820MOL0     H10700   3.620   9.428  10.807 -1.5176  0.8977 -2.0077
  821MOL0     O10701   3.073   6.841   8.672  0.4456 -0.2297 -0.7870
  821MOL0     C10702   3.142   6.941   8.676 -0.4463 -0.6479 -0.2502
  821MOL0     O10703   3.255   6.955   8.600  0.2766 -0.1379  0.6037
  821MOL0     C10704   3.285   6.864   8.509 -0.1603 -0.1445  0.7481
  821MOL0     C10705   3.376   6.766   8.524 -0.5012  0.2985 -0.0559
  821MOL0     C10706   3.418   6.686   8.420 -0.3564  0.7955  0.5005
  821MOL0     C10707   3.355   6.692   8.293  0.9553  0.1178 -0.1179
  821MOL0     O10708   3.379   6.612   8.183  0.5771  0.7761 -0.0585
  821MOL0     C10709   3.491   6.527   8.189  0.1096 -0.2214  0.2220
  821MOL0     C10710   3.484   6.441   8.062 -0.1461 -0.1774  0.4217
  821MOL0     C10711   3.478   6.524   7.931  0.0541  0.6856 -0.5087
  821MOL0     C10712   3.556   6.653   7.944 -0.4145 -0.1324 -0.7645
  821MOL0     C10713   3.571   6.722   7.800 -0.5640  0.2259 -0.2353
  821MOL0     C10714   3.629   6.869   7.796 -0.3348  0.1811 -0.8056
  821MOL0     C10715   3.754   6.868   7.894 -1.0478 -0.4745  0.5451
  821MOL0     C10716   3.814   7.000   7.881 -0.6386 -0.6132 -0.6384
  821MOL0     N10717   3.910   7.022   7.991  0.7832 -0.3792 -0.3451
  821MOL0     C10718   4.044   7.019   7.978 -0.3237  0.5501  0.2837
  821MOL0     C10719   4.104   7.089   8.076 -0.5116 -0.3246 -0.6118
  821MOL0     C10720   4.251   7.118   8.090  0.9785 -0.5538  0.4164
  821MOL0     C10721   4.318   7.163   7.955 -0.3489  0.1200 -0.1118
  821MOL0     C10722   4.258   7.279   7.880 -0.5558 -0.0495  0.5394
  821MOL0     C10723   4.267   7.408   7.962  0.4065  0.6858  0.4022
  821MOL0     O10724   4.146   7.440   8.033  0.1526 -0.5033 -0.2658
  821MOL0     C10725   4.034   7.494   7.974  0.0527 -1.2693  0.5964
  821MOL0     C10726   3.919   7.517   8.050 -0.7718 -0.3851  0.4155
  821MOL0     C10727   3.823   7.605   8.002  0.9005  0.7769  0.2119
  821MOL0     C10728   3.834   7.671   7.878 -0.7128  0.2798 -0.2205
  821MOL0     C10729   3.731   7.762   7.832 -0.5136 -0.6305  0.5445
  821MOL0     O10730   3.630   7.805   7.920  0.1562  0.3864  0.4741
  821MOL0     C10731   3.536   7.896   7.881  0.0200 -0.9443  0.2924
  821MOL0     C10732   3.530   8.022   7.948 -0.1485  0.1805  0.0563
  821MOL0     C10733   3.436   8.110   7.905 -0.4659 -1.0406 -0.2151
  821MOL0     C10734   3.341   8.072   7.816 -0.2961 -0.3626  0.6873
  821MOL0     O10735   3.258   8.170   7.781  0.6577 -0.0264  0.4357
  821MOL0     C10736   3.308   8.271   7.684 -0.1903  0.2886  0.4300
  821MOL0     C10737   3.191   8.351   7.614 -1.0026  0.0725  0.5696
  821MOL0     C10738   3.082   8.270   7.547 -0.1088  0.1232  0.1609
  821MOL0     C10739   3.138   8.189   7.436  0.9316 -0.7476 -0.1025
  821MOL0     C10740   3.034   8.083   7.405  0.9668 -0.7113  1.0485
  821MOL0     C10741   3.070   8.028   7.266  0.0175 -0.1594 -0.2752
  821MOL0     C10742   3.008   7.889   7.258  0.5295  0.2105  0.0132
  821MOL0     C10743   2.853   7.900   7.247 -0.2422  0.8150 -0.0496
  821MOL0    Cl10744   2.790   8.032   7.137  0.3384 -0.1726  0.1930
  821MOL0     C10745   3.334   7.949   7.758 -0.1746  1.4227 -0.0308
  821MOL0     C10746   3.432   7.853   7.791  0.7976 -0.2617  0.0989
  821MOL0     O10747   3.747   7.816   7.726  0.3930 -0.2808  0.6611
  821MOL0     C10748   3.948   7.655   7.804 -0.3429  0.3106 -0.1512
  821MOL0     C10749   4.045   7.562   7.850  0.7220  0.6226 -0.0629
  821MOL0     N10750   4.002   7.135   8.159 -0.4008 -0.5539 -0.0700
  821MOL0     N10751   3.889   7.090   8.107  0.2010 -0.4328 -0.3740
  821MOL0     C10752   3.248   6.783   8.281 -0.3135  0.6936  1.0237
  821MOL0     C10753   3.225   6.873   8.387  0.3473  1.0693  0.6660
  821MOL0     C10754   3.098   7.057   8.757  0.4145  0.1496 -1.2933
  821MOL0     C10755   2.969   7.050   8.816  0.0229 -0.8993  0.2469
  821MOL0     C10756   2.933   7.126   8.931 -0.3088 -0.8675 -1.3578
  821MOL0     C10757   3.009   7.233   8.973  0.2929 -0.2969  0.0406
  821MOL0     O10758   2.994   7.326   9.076  0.4161  0.4170 -0.1477
  821MOL0     C10759   2.866   7.347   9.142 -0.0588  0.4749  0.0051
  821MOL0     C10760   2.787   7.462   9.081 -0.2174  0.2388  0.5100
  821MOL0     C10761   2.662   7.502   9.171 -0.1290 -0.1655  1.0104
  821MOL0     C10762   2.573   7.600   9.092  0.7843 -0.2904 -1.2171
  821MOL0     C10763   2.503   7.543   8.977 -0.1116 -0.5643 -0.3361
  821MOL0     C10764   2.465   7.474   8.886  0.2634 -1.0363  0.8040
  821MOL0     C10765   3.131   7.252   8.903  0.2282  0.5954 -0.2578
  821MOL0     C10766   3.177   7.166   8.805 -0.4307 -0.4458 -0.1283
  821MOL0     C10767   3.314   7.195   8.740  0.5704  0.9891  0.1196
  821MOL0     H10768   3.412   6.774   8.627 -0.3040 -2.9243  0.2596
  821MOL0     H10769   3.495   6.611   8.433  2.4706  3.0179 -1.9229
  821MOL0     H10770   3.586   6.581   8.199 -0.2748  0.7476 -1.0803
  821MOL0     H10771   3.492   6.455   8.272  1.0410  0.0263  0.4446
  821MOL0     H10772   3.400   6.373   8.080 -0.4557 -0.9868 -3.4034
  821MOL0     H10773   3.578   6.385   8.065  0.7864  1.1804 -1.5729
  821MOL0     H10774   3.374   6.539   7.897 -0.3730 -0.4627  0.2501
  821MOL0     H10775   3.537   6.472   7.855  1.2986  0.3668  0.6534
  821MOL0     H10776   3.512   6.731   8.008 -2.0514  0.2206 -2.2106
  821MOL0     H10777   3.649   6.612   7.984 -2.2640 -3.7070  0.2669
  821MOL0     H10778   3.644   6.665   7.742 -1.3582  0.1053 -1.1323
  821MOL0     H10779   3.470   6.716   7.761 -0.2652  0.0880 -0.9996
  821MOL0     H10780   3.651   6.887   7.690  1.0845  3.2963 -0.0695
  821MOL0     H10781   3.559   6.949   7.821  0.5485  0.7009  0.0552
  821MOL0     H10782   3.829   6.799   7.853 -2.9949 -2.2650 -0.1906
  821MOL0     H10783   3.745   6.842   8.000  0.6759  0.7608  1.0381
  821MOL0     H10784   3.876   6.992   7.792  1.0958  0.4305  0.4166
  821MOL0     H10785   3.734   7.074   7.871 -0.5712 -0.3572  0.5043
  821MOL0     H10786   4.083   6.964   7.893 -0.5688 -2.8932  2.2230
  821MOL0     H10787   4.259   7.184   8.177  0.0971 -0.2496  0.2806
  821MOL0     H10788   4.310   7.033   8.126  0.2844 -1.1882  0.0736
  821MOL0     H10789   4.424   7.186   7.970  0.4118 -3.9989  2.1904
  821MOL0     H10790   4.326   7.077   7.889  1.5972  2.4508 -3.1911
  821MOL0     H10791   4.161   7.242   7.848  0.6789 -2.3248 -0.8746
  821MOL0     H10792   4.322   7.295   7.793 -0.2273  0.8389  0.9294
  821MOL0     H10793   4.296   7.491   7.896  2.5938  1.4545  2.1796
  821MOL0     H10794   4.346   7.396   8.036 -1.7566  0.4559  2.7871
  821MOL0     H10795   3.916   7.473   8.149 -0.7630 -3.0813 -0.6936
  821MOL0     H10796   3.735   7.621   8.062  0.5680 -1.3628  0.4015
  821MOL0     H10797   3.596   8.056   8.027  0.5327 -0.5639 -0.1695
  821MOL0     H10798   3.428   8.202   7.963 -1.0991 -2.1377  1.5404
  821MOL0     H10799   3.351   8.354   7.741 -1.4471  1.5193 -0.3273
  821MOL0     H10800   3.379   8.230   7.611  0.0979  0.3338  0.6826
  821MOL0     H10801   3.135   8.404   7.691 -2.0032 -0.6008  0.3179
  821MOL0     H10802   3.220   8.442   7.558  4.0510  0.1032  2.6853
  821MOL0     H10803   3.042   8.205   7.626 -1.2842  1.0317  0.3438
  821MOL0     H10804   3.003   8.332   7.505 -1.2764 -0.2588  1.6930
  821MOL0     H10805   3.229   8.132   7.456  0.6758 -1.9155 -2.0048
  821MOL0     H10806   3.159   8.253   7.350  0.9718 -1.3404 -0.5386
  821MOL0     H10807   2.937   8.132   7.397 -1.2315 -4.1854  3.7161
  821MOL0     H10808   3.035   8.001   7.477  1.0726 -0.8257  0.9180
  821MOL0     H10809   3.030   8.109   7.204 -2.5793  0.6208  2.1759
  821MOL0     H10810   3.175   8.017   7.239 -0.1666  4.4796 -4.2312
  821MOL0     H10811   3.027   7.826   7.345 -2.8995 -0.2529  0.5783
  821MOL0     H10812   3.047   7.849   7.163  0.5577  1.4509 -0.5199
  821MOL0     H10813   2.805   7.809   7.211 -1.9902  1.3026  0.9206
  821MOL0     H10814   2.818   7.916   7.349  1.7935 -0.8051  0.9730
  821MOL0     H10815   3.261   7.914   7.686 -0.2006  1.0706  0.1646
  821MOL0     H10816   3.438   7.759   7.737 -0.9607 -0.7300  0.6609
  821MOL0     H10817   3.976   7.716   7.719 -1.6372  1.9229  0.5077
  821MOL0     H10818   4.133   7.541   7.789 -0.0816 -0.8550 -0.7908
  821MOL0     H10819   3.198   6.807   8.187  0.0257  1.6935  1.0911
  821MOL0     H10820   3.160   6.959   8.379 -0.1649  0.6494  0.2053
  821MOL0     H10821   2.899   6.974   8.781 -0.6199 -1.9104  3.3626
  821MOL0     H10822   2.830   7.112   8.964  0.1684 -0.2983  0.4762
  821MOL0     H10823   2.876   7.356   9.251 -0.8929  1.0114  0.0552
  821MOL0     H10824   2.813   7.252   9.132  3.3222 -1.8107  1.7920
  821MOL0     H10825   2.743   7.430   8.986 -4.5921 -1.4527  2.8041
  821MOL0     H10826   2.852   7.550   9.071 -2.0638  1.8623  1.9183
  821MOL0     H10827   2.697   7.535   9.270 -0.5281  2.5773  0.3170
  821MOL0     H10828   2.606   7.410   9.188 -0.1445 -0.2494  0.5134
  821MOL0     H10829   2.501   7.642   9.163  0.2690  0.0570 -1.9333
  821MOL0     H10830   2.638   7.684   9.069 -1.1831  2.1846  1.5476
  821MOL0     H10831   2.432   7.409   8.808 -1.0633  2.4267 -1.7964
  821MOL0     H10832   3.202   7.329   8.929  0.4230  0.2206  0.3436
  821MOL0     H10833   3.364   7.280   8.789 -1.2524  3.1112 -1.4641
  821MOL0     H10834   3.386   7.115   8.761 -2.7161 -1.8521  1.4327
  821MOL0     H10835   3.317   7.226   8.635  1.6892  1.5529  0.2897
  822MOL0     O10836   3.560   7.164   1.835  0.1839  0.0309  0.4900
  822MOL0     C10837   3.659   7.107   1.787  0.4979 -0.1389 -0.1225
  822MOL0     O10838   3.783   7.163   1.779  0.0547 -0.1666 -0.5234
  822MOL0     C10839   3.802   7.296   1.811 -0.4608 -1.3418  0.4819
  822MOL0     C10840   3.745   7.353   1.927 -0.1864 -0.1003  0.8408
  822MOL0     C10841   3.752   7.493   1.949  0.3179  0.1964  0.2113
  822MOL0     C10842   3.815   7.583   1.867 -0.8985  0.5842 -0.3236
  822MOL0     O10843   3.833   7.714   1.910 -0.4434  0.2339  0.0053
  822MOL0     C10844   3.954   7.783   1.870  1.0459  0.6281 -0.4342
  822MOL0     C10845   3.944   7.932   1.900 -0.4519 -0.1539  1.1438
  822MOL0     C10846   4.079   8.002   1.854  0.5630 -0.1867 -0.9397
  822MOL0     C10847   4.060   8.158   1.853  0.3412  0.1378 -0.2607
  822MOL0     C10848   4.128   8.248   1.960 -0.2547  0.1032  0.1583
  822MOL0     C10849   4.056   8.286   2.096  0.7922  0.4719  0.3029
  822MOL0     C10850   4.077   8.174   2.198  0.4621 -0.0651  0.3867
  822MOL0     C10851   4.174   8.220   2.306  0.2594 -0.3551 -0.3744
  822MOL0     N10852   4.209   8.108   2.392 -0.3429  0.6446  0.5225
  822MOL0     C10853   4.323   8.032   2.385 -0.5726 -0.0436 -0.1943
  822MOL0     C10854   4.348   7.995   2.510 -0.3683 -1.0247 -0.0653
  822MOL0     C10855   4.476   7.930   2.561  1.0693  0.0830  0.0869
  822MOL0     C10856   4.456   7.779   2.577 -1.5756 -0.3272 -0.5841
  822MOL0     C10857   4.428   7.707   2.438  0.3865 -0.0582  0.5603
  822MOL0     C10858   4.354   7.576   2.472 -0.2003  0.5134 -0.2394
  822MOL0     O10859   4.437   7.496   2.564  0.8270  1.0573 -0.2066
  822MOL0     C10860   4.381   7.391   2.642  0.2474  0.4947  0.1969
  822MOL0     C10861   4.260   7.331   2.606  1.0258  0.7580 -0.4592
  822MOL0     C10862   4.206   7.223   2.673 -0.7664  0.0575  0.1068
  822MOL0     C10863   4.279   7.160   2.783 -0.3794 -0.2642 -1.0472
  822MOL0     C10864   4.219   7.054   2.862 -0.4912  0.0135  0.4349
  822MOL0     O10865   4.101   7.005   2.825 -0.5086 -0.3518 -0.0246
  822MOL0     C10866   4.062   6.883   2.881  0.0404 -0.1383  0.5067
  822MOL0     C10867   3.929   6.875   2.915  0.5623  0.3056 -0.3600
  822MOL0     C10868   3.873   6.760   2.971 -0.0117  0.3508 -0.0619
  822MOL0     C10869   3.954   6.645   2.991  0.9065  0.3238 -0.1521
  822MOL0     O10870   3.882   6.549   3.063 -0.3217 -0.0221  0.2887
  822MOL0     C10871   3.942   6.420   3.102 -0.1994 -0.4094 -0.1242
  822MOL0     C10872   3.837   6.351   3.178  0.5102 -0.0761 -1.2714
  822MOL0     C10873   3.904   6.224   3.236  0.3535 -0.4213 -1.0602
  822MOL0     C10874   3.791   6.150   3.316 -0.0362 -0.0535 -0.2604
  822MOL0     C10875   3.845   6.007   3.367 -0.0143  0.4759  0.1894
  822MOL0     C10876   3.729   5.919   3.427  1.0452 -0.1850  0.7292
  822MOL0     C10877   3.777   5.772   3.437  0.2629 -0.2397  0.0241
  822MOL0     C10878   3.653   5.680   3.446  0.2916 -0.2687 -0.9394
  822MOL0    Cl10879   3.543   5.720   3.578 -0.0399  0.4407 -0.1155
  822MOL0     C10880   4.089   6.648   2.956  0.2191 -0.6649 -0.2383
  822MOL0     C10881   4.144   6.764   2.898 -0.2525  0.6859  0.1481
  822MOL0     O10882   4.294   7.001   2.942  0.2646  0.5543  0.3774
  822MOL0     C10883   4.408   7.209   2.808  0.4529 -0.2530  0.5543
  822MOL0     C10884   4.451   7.325   2.744  0.3870 -0.0639 -0.2255
  822MOL0     N10885   4.235   8.023   2.579  0.7348  0.3156 -0.5539
  822MOL0     N10886   4.151   8.091   2.508 -0.7904 -0.2227  0.0323
  822MOL0     C10887   3.890   7.527   1.760 -0.4071  0.2697  0.4339
  822MOL0     C10888   3.875   7.391   1.726 -0.1179 -0.1345  0.3009
  822MOL0     C10889   3.644   6.963   1.761 -0.2759  0.2220  0.3442
  822MOL0     C10890   3.563   6.892   1.848 -0.7087  0.9247 -1.2500
  822MOL0     C10891   3.539   6.756   1.832  0.7065  0.6996  0.6370
  822MOL0     C10892   3.603   6.679   1.728  0.0530  0.1658 -0.2304
  822MOL0     O10893   3.578   6.545   1.710  0.0072 -0.1994  0.0402
  822MOL0     C10894   3.689   6.466   1.662  0.4269  0.5845 -0.4312
  822MOL0     C10895   3.674   6.324   1.709 -0.9177  0.4676 -0.7345
  822MOL0     C10896   3.722   6.289   1.851  0.9070  0.4616  0.4891
  822MOL0     C10897   3.667   6.373   1.962  0.3956 -0.4136  0.5612
  822MOL0     C10898   3.707   6.324   2.087  0.3443 -0.5527 -0.9625
  822MOL0     C10899   3.732   6.286   2.198  0.5277  1.0430 -0.3479
  822MOL0     C10900   3.688   6.755   1.646 -0.6561 -0.4069  0.9584
  822MOL0     C10901   3.720   6.894   1.663  0.1472  1.6425 -0.3045
  822MOL0     C10902   3.812   6.954   1.557 -0.9043 -0.3551  0.4412
  822MOL0     H10903   3.698   7.296   2.006 -0.5766 -2.2478 -0.8360
  822MOL0     H10904   3.713   7.521   2.047 -3.1161 -2.5266 -0.1707
  822MOL0     H10905   4.044   7.738   1.913  1.2783  1.5716  0.0960
  822MOL0     H10906   3.960   7.782   1.761  2.2456 -0.4176 -0.3803
  822MOL0     H10907   3.928   7.948   2.007 -0.9401 -2.2782  1.4318
  822MOL0     H10908   3.859   7.976   1.846  0.9344  2.0799  0.6436
  822MOL0     H10909   4.115   7.959   1.761  2.0383  0.5498 -0.7432
  822MOL0     H10910   4.163   7.981   1.922  0.2596  1.9085  0.1613
  822MOL0     H10911   4.099   8.193   1.756 -0.7219  1.2769 -0.2924
  822MOL0     H10912   3.955   8.185   1.866  0.8268  1.7071  0.6871
  822MOL0     H10913   4.229   8.206   1.971 -1.0618 -2.8985 -2.4610
  822MOL0     H10914   4.124   8.347   1.914 -1.8078 -0.1524 -0.3043
  822MOL0     H10915   4.086   8.387   2.126 -0.5702  1.2933 -0.9566
  822MOL0     H10916   3.948   8.291   2.082  0.0923 -0.5853  4.1161
  822MOL0     H10917   4.111   8.083   2.147 -3.6993 -2.6455  1.7075
  822MOL0     H10918   3.983   8.135   2.236  1.0189 -1.9017 -0.0114
  822MOL0     H10919   4.269   8.255   2.265 -1.0933  3.3636 -0.7486
  822MOL0     H10920   4.127   8.303   2.361 -0.7111 -1.8251  1.0920
  822MOL0     H10921   4.382   8.027   2.294 -1.7286  2.2678 -1.1595
  822MOL0     H10922   4.558   7.946   2.490  1.1483 -1.8075 -0.3094
  822MOL0     H10923   4.502   7.979   2.655  1.4535  2.1414 -1.0356
  822MOL0     H10924   4.544   7.742   2.631  0.3448  0.0883 -3.2231
  822MOL0     H10925   4.374   7.767   2.648 -1.0994  1.0120  0.2121
  822MOL0     H10926   4.523   7.682   2.389  0.9378  2.9072 -0.1183
  822MOL0     H10927   4.369   7.772   2.372  2.5943  1.1229 -0.3771
  822MOL0     H10928   4.330   7.518   2.382 -1.8585 -1.2804  1.2658
  822MOL0     H10929   4.268   7.595   2.537 -0.8824 -2.3357 -0.1889
  822MOL0     H10930   4.206   7.388   2.531 -0.5703  2.8155  2.0579
  822MOL0     H10931   4.112   7.178   2.640  0.2162 -0.9875 -1.4163
  822MOL0     H10932   3.854   6.954   2.907 -1.6560 -1.6454  0.0021
  822MOL0     H10933   3.766   6.753   2.985  0.0965 -0.6259  0.3329
  822MOL0     H10934   3.979   6.367   3.013  1.2124  1.1419 -0.5244
  822MOL0     H10935   4.029   6.438   3.165 -1.5241 -0.6106  1.8410
  822MOL0     H10936   3.808   6.410   3.266  1.2106 -2.9081  1.0537
  822MOL0     H10937   3.749   6.322   3.121  1.2697 -1.9168 -1.5731
  822MOL0     H10938   3.933   6.155   3.156 -1.5783 -1.4940 -0.8800
  822MOL0     H10939   3.990   6.248   3.300 -0.0473  1.6664 -1.2432
  822MOL0     H10940   3.705   6.132   3.251  1.5499 -1.2602 -2.1509
  822MOL0     H10941   3.751   6.212   3.396  0.4385  0.9363 -0.7750
  822MOL0     H10942   3.915   6.016   3.450  1.7592 -0.2137 -1.1566
  822MOL0     H10943   3.897   5.942   3.295 -1.7914 -3.3968  2.0950
  822MOL0     H10944   3.694   5.964   3.521 -1.6906  0.0656 -0.3168
  822MOL0     H10945   3.643   5.931   3.360  1.3457  0.5517  0.4667
  822MOL0     H10946   3.842   5.754   3.523  0.5120 -0.6907 -0.2579
  822MOL0     H10947   3.839   5.742   3.352  0.3014  3.9124 -1.6721
  822MOL0     H10948   3.591   5.681   3.356  0.5801 -0.9210 -1.1552
  822MOL0     H10949   3.697   5.580   3.447  1.2880  0.0530 -3.4920
  822MOL0     H10950   4.138   6.551   2.960 -0.4801 -1.1489 -2.1118
  822MOL0     H10951   4.248   6.760   2.869  0.1660  0.8879  1.5707
  822MOL0     H10952   4.478   7.160   2.876  1.3752  1.5789  0.9995
  822MOL0     H10953   4.539   7.372   2.787  0.5818 -1.6104  1.2016
  822MOL0     H10954   3.957   7.580   1.693 -0.7951 -0.8277 -0.8623
  822MOL0     H10955   3.911   7.359   1.629 -1.4706 -2.9694  0.6492
  822MOL0     H10956   3.531   6.944   1.937  0.4077 -0.3110 -0.0795
  822MOL0     H10957   3.462   6.706   1.889 -1.1614  3.1235  0.3714
  822MOL0     H10958   3.791   6.499   1.685  1.4482 -2.4827 -0.0089
  822MOL0     H10959   3.682   6.469   1.553  1.1285 -1.0796 -0.5569
  822MOL0     H10960   3.726   6.253   1.642 -1.1591 -1.1408  0.7104
  822MOL0     H10961   3.566   6.305   1.705 -0.8843 -0.2581  1.1828
  822MOL0     H10962   3.831   6.296   1.854  1.1117 -1.4091 -0.5532
  822MOL0     H10963   3.697   6.183   1.863  1.7228 -0.0217 -1.7256
  822MOL0     H10964   3.695   6.477   1.945 -2.4407  0.5629  1.3274
  822MOL0     H10965   3.558   6.367   1.955  0.5059 -1.9900 -0.2924
  822MOL0     H10966   3.740   6.251   2.298 -0.7584  1.4992 -0.0645
  822MOL0     H10967   3.737   6.709   1.560 -1.2638  1.7345 -0.6261
  822MOL0     H10968   3.778   6.951   1.453  1.9931  1.7571 -0.6778
  822MOL0     H10969   3.850   7.055   1.577 -2.7338  0.5675 -0.5169
  822MOL0     H10970   3.905   6.897   1.550 -0.6466  0.0764  0.3568
  823MOL0     O10971   6.779   5.937   7.260 -0.5291 -0.4020  0.0317
  823MOL0     C10972   6.876   6.004   7.278  0.9873  0.1656 -0.0020
  823MOL0     O10973   6.920   6.056   7.398  1.1229 -0.5434  0.0437
  823MOL0     C10974   6.860   6.022   7.520 -0.0657  0.0056  0.6051
  823MOL0     C10975   6.842   6.126   7.610 -0.6841  0.0278 -0.5442
  823MOL0     C10976   6.783   6.107   7.736 -0.2748  0.9343  0.5452
  823MOL0     C10977   6.737   5.975   7.778 -0.8662 -0.0845  0.2596
  823MOL0     O10978   6.668   5.973   7.897 -0.0953  1.0115 -0.0474
  823MOL0     C10979   6.528   5.933   7.889 -0.2323 -0.4079  0.5206
  823MOL0     C10980   6.483   5.883   8.029  0.0827  0.3646 -0.1873
  823MOL0     C10981   6.558   5.754   8.052  0.5049 -0.3923  0.0253
  823MOL0     C10982   6.518   5.635   7.959  0.4188 -0.4621  0.0571
  823MOL0     C10983   6.525   5.495   8.017 -1.3161 -0.4599  0.2920
  823MOL0     C10984   6.666   5.469   8.057 -0.7556  0.1240 -0.1644
  823MOL0     C10985   6.705   5.315   8.060  0.0789 -0.8744 -0.3472
  823MOL0     C10986   6.691   5.243   7.927  0.2554  0.2288 -0.1739
  823MOL0     N10987   6.809   5.290   7.846  0.1069  0.6182 -0.0420
  823MOL0     C10988   6.933   5.226   7.846  0.6744 -0.1099 -0.4600
  823MOL0     C10989   7.021   5.315   7.779  0.3234  0.7978  0.2434
  823MOL0     C10990   7.164   5.279   7.788  0.5627 -0.2492 -0.5411
  823MOL0     C10991   7.198   5.183   7.677  0.4118 -0.1128 -0.8422
  823MOL0     C10992   7.323   5.224   7.604  0.2511 -0.3868 -0.2580
  823MOL0     C10993   7.404   5.098   7.555  0.2564  0.1453 -0.1885
  823MOL0     O10994   7.422   5.010   7.660  0.1111  0.2877  0.4664
  823MOL0     C10995   7.507   4.903   7.646  0.0617  0.0929 -0.2696
  823MOL0     C10996   7.573   4.867   7.526  0.5467 -0.1362 -0.2177
  823MOL0     C10997   7.649   4.750   7.498 -0.1245 -0.6893  0.2302
  823MOL0     C10998   7.656   4.668   7.608  0.9449  0.0523  0.8870
  823MOL0     C10999   7.733   4.540   7.601 -0.8100 -0.0414  0.9219
  823MOL0     O11000   7.700   4.438   7.686  0.1311 -0.3053  0.8183
  823MOL0     C11001   7.772   4.318   7.700  0.0123 -0.3269 -0.7216
  823MOL0     C11002   7.787   4.263   7.831 -0.6710 -0.2285 -0.4005
  823MOL0     C11003   7.864   4.141   7.848 -0.1820 -0.3567 -0.2805
  823MOL0     C11004   7.930   4.078   7.732 -0.2029 -1.0801  0.1359
  823MOL0     O11005   8.014   3.964   7.740 -0.0798 -0.6483 -0.0491
  823MOL0     C11006   8.075   3.935   7.864 -0.6596 -0.9676 -0.0632
  823MOL0     C11007   8.135   3.791   7.876  0.3996  0.3089 -0.1197
  823MOL0     C11008   8.258   3.784   7.975  0.6855 -1.2491  0.6303
  823MOL0     C11009   8.233   3.846   8.116 -0.1775  0.5128 -0.8205
  823MOL0     C11010   8.359   3.845   8.206  0.3152 -0.3661 -0.4724
  823MOL0     C11011   8.481   3.918   8.150  0.0177  0.0936 -0.0951
  823MOL0     C11012   8.590   3.914   8.255 -0.0447 -0.6107 -0.4215
  823MOL0     C11013   8.716   3.986   8.217  0.5803 -0.6434 -0.2655
  823MOL0    Cl11014   8.790   3.917   8.072  0.4519  0.0855 -0.2794
  823MOL0     C11015   7.910   4.137   7.608 -0.7220 -0.7196 -0.1745
  823MOL0     C11016   7.828   4.250   7.589  1.6084 -0.2903  0.6529
  823MOL0     O11017   7.822   4.529   7.514  0.1580  0.1721  0.1349
  823MOL0     C11018   7.601   4.701   7.732  0.5547 -0.4454 -0.3158
  823MOL0     C11019   7.525   4.820   7.752  0.8001  0.4503  0.4378
  823MOL0     N11020   6.938   5.409   7.719 -0.2749  0.2411 -0.5853
  823MOL0     N11021   6.816   5.396   7.764 -0.3273 -0.3556 -0.2532
  823MOL0     C11022   6.765   5.871   7.687 -0.6388 -0.1697  0.2608
  823MOL0     C11023   6.818   5.888   7.556 -0.4692 -0.1538 -0.2452
  823MOL0     C11024   6.956   6.037   7.160  0.9853 -0.5353 -0.2394
  823MOL0     C11025   6.990   6.173   7.144 -0.2269 -0.4734  0.1284
  823MOL0     C11026   7.047   6.222   7.026 -0.1649 -1.0171  0.5868
  823MOL0     C11027   7.064   6.130   6.920 -0.2018  0.2423 -0.3009
  823MOL0     O11028   7.094   6.156   6.789 -0.3560 -0.0819  0.0047
  823MOL0     C11029   7.116   6.295   6.759  0.3054  0.1042 -0.4187
  823MOL0     C11030   6.991   6.378   6.732  0.3567 -0.0806 -0.1286
  823MOL0     C11031   7.042   6.516   6.680 -1.0774  0.6068  0.2760
  823MOL0     C11032   6.955   6.631   6.748  0.3822  0.6846 -0.1612
  823MOL0     C11033   6.978   6.649   6.894 -1.4709 -0.7255  0.2362
  823MOL0     C11034   6.984   6.656   7.020  0.8602  0.3469  0.1977
  823MOL0     C11035   7.039   5.996   6.943  0.6928  0.0006  0.1093
  823MOL0     C11036   6.992   5.947   7.064 -0.8522 -0.0323 -0.9023
  823MOL0     C11037   6.969   5.795   7.084 -0.5281 -0.5769 -0.1624
  823MOL0     H11038   6.878   6.229   7.603  1.3682 -0.4391  1.8031
  823MOL0     H11039   6.770   6.191   7.804  2.7134  5.5884 -3.9892
  823MOL0     H11040   6.466   6.019   7.860 -0.8595 -1.2664 -0.7699
  823MOL0     H11041   6.524   5.851   7.817  1.3650  0.2187 -0.3250
  823MOL0     H11042   6.374   5.870   8.028 -0.1070  1.6609  1.0590
  823MOL0     H11043   6.513   5.953   8.108  2.3670  0.3178 -0.9544
  823MOL0     H11044   6.526   5.724   8.152  1.9970 -0.0456  0.6213
  823MOL0     H11045   6.666   5.761   8.036  0.3222  2.8078 -0.5166
  823MOL0     H11046   6.412   5.647   7.933  0.3375 -3.5294 -1.4714
  823MOL0     H11047   6.582   5.636   7.870 -2.1355  2.5524 -1.9900
  823MOL0     H11048   6.459   5.497   8.104  0.3491 -0.0951  1.6128
  823MOL0     H11049   6.488   5.425   7.942 -0.8643 -0.8739  0.4513
  823MOL0     H11050   6.741   5.527   8.003 -0.1207  1.8983  2.3981
  823MOL0     H11051   6.675   5.506   8.160 -2.1930  0.9219 -0.3064
  823MOL0     H11052   6.631   5.274   8.128  1.0649  1.6664  2.4628
  823MOL0     H11053   6.807   5.297   8.094  0.5834  1.4878 -0.4370
  823MOL0     H11054   6.708   5.136   7.940 -0.5877  0.1608  0.3743
  823MOL0     H11055   6.602   5.272   7.871 -1.8168 -0.2767  2.6485
  823MOL0     H11056   6.975   5.142   7.901 -1.0344 -0.1092  0.9393
  823MOL0     H11057   7.213   5.377   7.779  0.8268 -0.4403 -1.2351
  823MOL0     H11058   7.182   5.239   7.888 -2.7831  2.6419  1.4737
  823MOL0     H11059   7.207   5.089   7.731  0.5572  0.0914 -0.5144
  823MOL0     H11060   7.110   5.158   7.615 -2.1453  0.8456  2.1613
  823MOL0     H11061   7.386   5.280   7.674 -2.9752  0.9931  1.7904
  823MOL0     H11062   7.298   5.294   7.523  2.9580 -0.0196 -0.8954
  823MOL0     H11063   7.501   5.129   7.516 -0.6971  1.0434 -1.9788
  823MOL0     H11064   7.345   5.059   7.472  0.7823  2.7040 -1.8954
  823MOL0     H11065   7.548   4.929   7.441  0.2574  0.6516  0.4315
  823MOL0     H11066   7.694   4.720   7.403 -0.6004  1.4854 -0.7454
  823MOL0     H11067   7.734   4.298   7.919 -0.7005 -0.9469 -0.1211
  823MOL0     H11068   7.865   4.096   7.947 -1.0542  0.7587  0.2578
  823MOL0     H11069   8.155   4.009   7.873 -1.4559  0.1522 -1.6986
  823MOL0     H11070   8.000   3.943   7.943  0.3136 -0.7389  0.8566
  823MOL0     H11071   8.063   3.719   7.915 -2.2180  3.1449  0.7274
  823MOL0     H11072   8.165   3.755   7.778  0.2567 -1.1390  0.3494
  823MOL0     H11073   8.288   3.679   7.977 -0.4381 -1.5673  2.1401
  823MOL0     H11074   8.337   3.845   7.929 -1.3698  0.4486 -0.8672
  823MOL0     H11075   8.145   3.803   8.164  0.2158  1.9279  1.2648
  823MOL0     H11076   8.208   3.951   8.099 -2.7105  0.5006  1.9714
  823MOL0     H11077   8.386   3.741   8.228 -1.0077 -0.6647 -0.2193
  823MOL0     H11078   8.338   3.877   8.309 -2.7406 -5.1686  0.7138
  823MOL0     H11079   8.520   3.863   8.064  0.9115 -0.0422  0.3930
  823MOL0     H11080   8.456   4.021   8.124 -1.5402  0.0206  0.9282
  823MOL0     H11081   8.622   3.813   8.281 -2.0295 -0.5501  2.6875
  823MOL0     H11082   8.546   3.957   8.345  2.3854  0.6518  0.2508
  823MOL0     H11083   8.701   4.093   8.200  0.2054 -0.6309  0.1195
  823MOL0     H11084   8.783   3.974   8.302  1.1052  2.3447 -0.1683
  823MOL0     H11085   7.955   4.098   7.517 -0.0820  1.0234 -0.6500
  823MOL0     H11086   7.807   4.293   7.491 -3.9774 -1.6552  0.8730
  823MOL0     H11087   7.614   4.641   7.822 -0.4940 -0.2779 -0.0413
  823MOL0     H11088   7.491   4.840   7.853 -1.0805 -0.4139  0.0101
  823MOL0     H11089   6.729   5.777   7.728 -0.2617  0.3130  1.7572
  823MOL0     H11090   6.828   5.809   7.482 -3.3382  0.8619 -1.8574
  823MOL0     H11091   6.959   6.239   7.224 -1.7286 -0.6108 -0.3093
  823MOL0     H11092   7.069   6.325   7.002 -1.3746 -1.2955 -1.9737
  823MOL0     H11093   7.170   6.290   6.664 -1.4151 -0.1410 -1.4253
  823MOL0     H11094   7.179   6.344   6.834  2.6212 -1.2431 -1.3826
  823MOL0     H11095   6.940   6.382   6.829  0.2721  4.2654 -0.1552
  823MOL0     H11096   6.921   6.327   6.666 -1.4046 -0.1950  1.7327
  823MOL0     H11097   7.024   6.529   6.573 -0.4430  3.5694  0.4348
  823MOL0     H11098   7.148   6.530   6.704 -0.9840 -1.2411  1.0450
  823MOL0     H11099   6.977   6.722   6.692 -1.9881  0.5466 -1.4522
  823MOL0     H11100   6.846   6.619   6.739  0.0640  1.7668  1.7177
  823MOL0     H11101   7.006   6.661   7.125  0.1520 -0.0268  0.3712
  823MOL0     H11102   7.078   5.926   6.870  0.8697 -1.1558  1.2708
  823MOL0     H11103   7.029   5.755   7.166 -1.4897 -3.7861 -0.8616
  823MOL0     H11104   6.861   5.776   7.076 -0.8238 -0.1996  2.3556
  823MOL0     H11105   7.017   5.741   7.001  2.8363  0.6965  0.8049
  824MOL0     O11106   2.360   5.652   9.573  0.5447 -0.0107 -0.0101
  824MOL0     C11107   2.262   5.700   9.635 -0.0751 -0.4472 -0.5662
  824MOL0     O11108   2.151   5.637   9.665  0.6089  0.8155 -0.6059
  824MOL0     C11109   2.143   5.514   9.605 -0.2072 -0.2086 -0.1525
  824MOL0     C11110   2.164   5.400   9.690  0.0223 -0.7727 -0.2589
  824MOL0     C11111   2.160   5.267   9.637 -0.0108  0.2137 -0.6812
  824MOL0     C11112   2.144   5.251   9.500 -0.9410  0.7125  0.6636
  824MOL0     O11113   2.182   5.136   9.436  0.4028  0.4749  0.6105
  824MOL0     C11114   2.085   5.088   9.335  0.0593 -1.2596  0.4160
  824MOL0     C11115   2.057   4.944   9.328 -0.5220  0.6645  0.2918
  824MOL0     C11116   2.192   4.868   9.301  0.8938  0.5823 -0.4505
  824MOL0     C11117   2.179   4.721   9.346  0.0957  0.0685 -0.1423
  824MOL0     C11118   2.297   4.643   9.315  0.4852  0.2697 -0.3794
  824MOL0     C11119   2.273   4.491   9.346 -0.3375  0.2770  0.3230
  824MOL0     C11120   2.398   4.400   9.313  0.0202  0.6095  0.1478
  824MOL0     C11121   2.440   4.397   9.168 -1.7531  0.0501 -0.8824
  824MOL0     N11122   2.399   4.276   9.093  0.5136 -0.4068 -0.5630
  824MOL0     C11123   2.269   4.229   9.097 -0.6342 -0.2046  0.6960
  824MOL0     C11124   2.281   4.110   9.038  0.6777  0.0800 -0.5297
  824MOL0     C11125   2.175   4.007   9.020  0.5783 -0.4444 -0.0730
  824MOL0     C11126   2.069   4.006   9.135 -0.2378  0.1207  0.0393
  824MOL0     C11127   1.995   3.865   9.143  0.7400 -0.4012 -0.2747
  824MOL0     C11128   2.078   3.758   9.214  0.8824  0.2872 -0.2859
  824MOL0     O11129   1.994   3.638   9.223  0.3563 -0.9527 -0.2750
  824MOL0     C11130   2.042   3.519   9.266 -0.1466 -0.6567 -0.1322
  824MOL0     C11131   2.165   3.490   9.342  1.6043 -0.5591  1.0954
  824MOL0     C11132   2.203   3.358   9.363 -0.0320 -0.3512 -0.8927
  824MOL0     C11133   2.126   3.250   9.320 -0.0045 -0.1290 -0.4642
  824MOL0     C11134   2.157   3.106   9.340 -0.4102 -0.4937  0.0344
  824MOL0     O11135   2.053   3.019   9.347  0.3853  0.3615  0.0534
  824MOL0     C11136   2.054   2.889   9.391 -0.9036 -0.4191  0.3327
  824MOL0     C11137   2.117   2.789   9.316 -0.1392 -0.2987 -0.4662
  824MOL0     C11138   2.110   2.649   9.358 -0.2783  0.8223 -0.6181
  824MOL0     C11139   2.047   2.619   9.484 -0.6193  1.1578 -0.7465
  824MOL0     O11140   2.044   2.493   9.541  0.1818 -0.3265 -0.1651
  824MOL0     C11141   1.927   2.425   9.505 -0.5178  0.1562 -0.5886
  824MOL0     C11142   1.898   2.323   9.610 -0.6190  0.3775  0.0339
  824MOL0     C11143   1.880   2.386   9.748 -0.6472 -0.4600  0.4181
  824MOL0     C11144   1.844   2.288   9.855  0.5339 -0.0882 -0.0253
  824MOL0     C11145   1.801   2.363   9.986  0.3175  0.1683 -0.0509
  824MOL0     C11146   1.816   2.266  10.105  0.2185  0.1907 -0.3142
  824MOL0     C11147   1.704   2.160  10.096 -0.5588  0.6226 -0.3647
  824MOL0     C11148   1.705   2.070  10.222  0.5750  0.5198  0.2265
  824MOL0    Cl11149   1.660   2.163  10.374  0.1828  0.0860 -0.3557
  824MOL0     C11150   1.988   2.723   9.555  0.1446  0.4882 -0.5308
  824MOL0     C11151   1.999   2.854   9.511  0.0807 -0.3491  0.1835
  824MOL0     O11152   2.275   3.080   9.375  0.3266 -0.6430 -0.3069
  824MOL0     C11153   2.004   3.278   9.259  0.0658  0.3848 -0.6136
  824MOL0     C11154   1.973   3.409   9.228  0.7998  0.7097  0.4969
  824MOL0     N11155   2.415   4.085   9.004  0.1727 -0.5108  1.0343
  824MOL0     N11156   2.488   4.190   9.029 -0.0872 -0.0439 -0.7424
  824MOL0     C11157   2.130   5.367   9.419  1.2557 -0.5733  0.6484
  824MOL0     C11158   2.129   5.493   9.468 -0.5237  0.3771  0.2860
  824MOL0     C11159   2.264   5.849   9.670 -0.7389 -0.0538 -0.5249
  824MOL0     C11160   2.179   5.950   9.616 -0.4277  0.6368  0.7495
  824MOL0     C11161   2.208   6.092   9.641  0.2779  0.1009 -0.6694
  824MOL0     C11162   2.313   6.128   9.721 -0.3965 -1.4616 -1.2661
  824MOL0     O11163   2.360   6.256   9.753  0.3956 -0.0804 -0.0185
  824MOL0     C11164   2.310   6.366   9.675  0.2813 -0.6669 -0.6870
  824MOL0     C11165   2.180   6.431   9.738 -0.6373 -0.2941  0.5908
  824MOL0     C11166   2.199   6.492   9.884 -0.5778  0.7325 -0.9819
  824MOL0     C11167   2.071   6.515   9.955  0.2629 -0.8452  0.1199
  824MOL0     C11168   2.025   6.647   9.910  0.5233 -0.0112  0.1705
  824MOL0     C11169   1.975   6.748   9.880  1.0021 -0.9643  0.1694
  824MOL0     C11170   2.392   6.029   9.777  0.2758  0.1410  0.2899
  824MOL0     C11171   2.368   5.889   9.751 -0.1993  0.6188 -0.9211
  824MOL0     C11172   2.452   5.784   9.827  0.1389  0.5703  0.2101
  824MOL0     H11173   2.182   5.406   9.797  1.2595 -3.5986 -0.2341
  824MOL0     H11174   2.191   5.189   9.707  0.3270  1.5195  0.6751
  824MOL0     H11175   1.987   5.132   9.357  0.9695 -0.8555  4.4445
  824MOL0     H11176   2.117   5.122   9.237 -1.3254  0.0422  0.3784
  824MOL0     H11177   1.979   4.921   9.255  0.9153  0.0194 -1.0942
  824MOL0     H11178   2.019   4.907   9.424 -0.4166  1.9979  0.8685
  824MOL0     H11179   2.273   4.913   9.359  0.0095  2.4291 -0.5820
  824MOL0     H11180   2.220   4.858   9.196  2.5521 -2.6746  0.1630
  824MOL0     H11181   2.147   4.704   9.449  0.7427 -4.3095 -0.4915
  824MOL0     H11182   2.105   4.667   9.285 -0.9111 -2.5606  3.1326
  824MOL0     H11183   2.312   4.654   9.207  2.2072 -1.6278 -0.3915
  824MOL0     H11184   2.383   4.689   9.363  1.8714 -2.3237 -0.1673
  824MOL0     H11185   2.238   4.488   9.449 -0.2919  1.2607  0.3774
  824MOL0     H11186   2.184   4.476   9.284 -1.5268  5.8713  0.1395
  824MOL0     H11187   2.359   4.305   9.351 -1.1904 -0.2006 -2.7924
  824MOL0     H11188   2.490   4.437   9.361  1.1134 -0.4335 -1.0576
  824MOL0     H11189   2.414   4.491   9.118 -3.6995 -0.4496 -0.8795
  824MOL0     H11190   2.549   4.408   9.158 -1.9531  0.6264 -2.9675
  824MOL0     H11191   2.184   4.285   9.136 -0.8867  0.9247 -1.3281
  824MOL0     H11192   2.127   4.032   8.925  2.0010  1.6952 -0.2916
  824MOL0     H11193   2.219   3.908   9.007  0.6289 -0.4626  0.2223
  824MOL0     H11194   2.115   4.024   9.233  0.4738 -2.0395  0.1589
  824MOL0     H11195   2.008   4.097   9.132  3.1114  2.4857 -1.0275
  824MOL0     H11196   1.971   3.837   9.040  2.0606  0.2582 -0.7926
  824MOL0     H11197   1.903   3.883   9.198  0.1078 -3.1911 -0.2714
  824MOL0     H11198   2.110   3.795   9.312 -3.2702  1.6348  0.7739
  824MOL0     H11199   2.175   3.739   9.168  1.4877  2.3250  0.0419
  824MOL0     H11200   2.214   3.575   9.390  0.3110 -0.0860  1.6124
  824MOL0     H11201   2.283   3.353   9.435 -0.4902  2.3147 -0.0693
  824MOL0     H11202   2.185   2.825   9.239  1.6532 -2.1320  0.1634
  824MOL0     H11203   2.171   2.573   9.312  0.2113  0.8969 -0.1039
  824MOL0     H11204   1.837   2.487   9.511 -2.4947 -2.6279  1.6515
  824MOL0     H11205   1.940   2.377   9.407  1.8223 -1.2572  0.3197
  824MOL0     H11206   1.805   2.279   9.576  0.3246 -0.2568 -1.8789
  824MOL0     H11207   1.975   2.248   9.630 -2.8181 -2.7644 -2.3822
  824MOL0     H11208   1.975   2.431   9.777 -1.2182  0.7863  0.4233
  824MOL0     H11209   1.810   2.470   9.743 -1.6650 -1.2058  1.4441
  824MOL0     H11210   1.935   2.232   9.878  1.4029  1.7669  1.3610
  824MOL0     H11211   1.769   2.223   9.811  1.2164  0.9372 -2.9644
  824MOL0     H11212   1.704   2.412   9.974  1.6894  2.5067 -2.8085
  824MOL0     H11213   1.874   2.444   9.993 -0.9645  1.8611 -3.5830
  824MOL0     H11214   1.913   2.216  10.110  0.0973  0.0671  1.4174
  824MOL0     H11215   1.799   2.321  10.198  0.8968  2.2450 -1.3622
  824MOL0     H11216   1.720   2.095  10.010 -1.4366 -2.2798  1.5038
  824MOL0     H11217   1.609   2.213  10.086 -1.3082 -0.7074 -0.4688
  824MOL0     H11218   1.649   1.980  10.196  1.4809 -0.0331  0.1483
  824MOL0     H11219   1.799   2.016  10.232  0.4732  0.0715 -1.1077
  824MOL0     H11220   1.944   2.699   9.651  0.3855 -0.6879 -0.7089
  824MOL0     H11221   1.980   2.940   9.575  3.6381 -0.7276  1.9938
  824MOL0     H11222   1.942   3.204   9.211 -0.6641  1.4685 -1.3697
  824MOL0     H11223   1.885   3.426   9.167 -1.6799  0.3607  3.7088
  824MOL0     H11224   2.112   5.360   9.312  2.1383 -2.9060  0.6073
  824MOL0     H11225   2.120   5.570   9.392 -1.8161 -0.9079 -0.9134
  824MOL0     H11226   2.097   5.926   9.550  0.5954  0.6920 -0.5911
  824MOL0     H11227   2.144   6.168   9.596  1.5983  0.4600 -1.9913
  824MOL0     H11228   2.279   6.346   9.573 -1.8962 -0.3927 -0.1253
  824MOL0     H11229   2.389   6.442   9.672 -0.5866  0.2903 -0.0507
  824MOL0     H11230   2.095   6.363   9.727  0.1672 -1.6653  2.4122
  824MOL0     H11231   2.148   6.513   9.673 -0.4118  1.1587  2.2319
  824MOL0     H11232   2.266   6.578   9.887  3.0417 -1.8587  2.4811
  824MOL0     H11233   2.251   6.422   9.950 -1.4224  0.1445 -0.9224
  824MOL0     H11234   2.001   6.436   9.931 -1.6737  1.2543 -1.5672
  824MOL0     H11235   2.085   6.512  10.064 -2.3538 -1.9692  0.4944
  824MOL0     H11236   1.931   6.839   9.846 -0.3797  0.6338  5.4111
  824MOL0     H11237   2.475   6.039   9.847  0.2700  0.8597  0.2002
  824MOL0     H11238   2.508   5.721   9.757 -3.1412 -0.8771 -1.3206
  824MOL0     H11239   2.535   5.826   9.885  0.7647 -2.2626  1.5377
  824MOL0     H11240   2.391   5.719   9.890  0.5041  0.2192  0.2096
  825MOL0     O11241   7.832   5.231   0.798 -0.2844  0.3919  0.4255
  825MOL0     C11242   7.884   5.233   0.689 -0.0537  0.4063 -0.7467
  825MOL0     O11243   8.010   5.179   0.665  0.5694  0.7327 -0.5243
  825MOL0     C11244   8.071   5.112   0.768  0.4407 -0.4648 -0.0172
  825MOL0     C11245   8.191   5.156   0.825  0.3125  0.4906  0.0538
  825MOL0     C11246   8.256   5.093   0.925  0.2582 -0.5795  0.8529
  825MOL0     C11247   8.196   4.977   0.979  0.1980 -0.5334  0.0331
  825MOL0     O11248   8.231   4.908   1.077  0.0887  0.8472  0.3071
  825MOL0     C11249   8.365   4.901   1.118 -0.2620  0.4295  0.1151
  825MOL0     C11250   8.393   4.971   1.237 -0.1776 -0.3685  0.3942
  825MOL0     C11251   8.539   4.939   1.289  0.0589 -0.3995  0.0516
  825MOL0     C11252   8.642   5.005   1.199  0.3167 -0.0622 -0.1808
  825MOL0     C11253   8.759   5.047   1.278  0.1475  0.3487 -0.2141
  825MOL0     C11254   8.885   5.092   1.208 -0.1364 -0.1568 -0.7255
  825MOL0     C11255   8.937   4.983   1.116 -0.8348  0.4613 -0.6871
  825MOL0     C11256   9.074   5.023   1.042 -0.4584  0.6701 -0.2915
  825MOL0     N11257   9.028   5.126   0.955  0.8336  0.3008 -0.0824
  825MOL0     C11258   8.990   5.113   0.824  0.0889 -0.1977 -0.6784
  825MOL0     C11259   8.926   5.226   0.784  1.0174 -0.9428  0.4952
  825MOL0     C11260   8.826   5.240   0.664  0.1236 -0.3236  0.0921
  825MOL0     C11261   8.722   5.342   0.684 -0.6932  1.1118 -0.1302
  825MOL0     C11262   8.624   5.302   0.790 -0.5514  0.5674 -0.4985
  825MOL0     C11263   8.527   5.407   0.816  0.0725 -0.0902 -0.3083
  825MOL0     O11264   8.438   5.427   0.705 -0.2886  0.2135  0.5848
  825MOL0     C11265   8.328   5.504   0.711  0.8502  0.1253  1.0873
  825MOL0     C11266   8.256   5.511   0.590  0.2879 -0.2221  0.2142
  825MOL0     C11267   8.141   5.594   0.586 -0.2057 -0.4397  0.8060
  825MOL0     C11268   8.097   5.675   0.692 -0.1288 -1.0755  0.8246
  825MOL0     C11269   7.991   5.776   0.667  0.2611  0.0329  0.7451
  825MOL0     O11270   7.961   5.793   0.538  0.1997 -0.6995  0.0724
  825MOL0     C11271   7.862   5.883   0.508 -0.3785 -1.0955  0.1785
  825MOL0     C11272   7.735   5.839   0.545 -0.0172 -0.3929 -0.5149
  825MOL0     C11273   7.624   5.922   0.527 -0.9996  0.3608  0.2701
  825MOL0     C11274   7.641   6.062   0.484 -0.0166  0.4244  0.3791
  825MOL0     O11275   7.540   6.153   0.501 -0.8854 -0.3384  0.3440
  825MOL0     C11276   7.552   6.285   0.450  0.2419 -0.5406 -0.5391
  825MOL0     C11277   7.528   6.286   0.300  0.3548  0.9557 -0.1368
  825MOL0     C11278   7.568   6.410   0.219 -0.9626  0.4375 -0.0839
  825MOL0     C11279   7.458   6.525   0.233  0.1328 -0.8846 -0.3289
  825MOL0     C11280   7.528   6.652   0.179  0.3962 -0.0352 -0.0369
  825MOL0     C11281   7.537   6.664   0.024  1.3237 -0.1381  0.5429
  825MOL0     C11282   7.639   6.761  -0.031 -0.0511 -0.6591 -0.9434
  825MOL0     C11283   7.623   6.912   0.015  0.9901  0.5313 -0.6151
  825MOL0    Cl11284   7.463   6.988  -0.001 -0.2075  0.2188 -0.0604
  825MOL0     C11285   7.767   6.104   0.438 -0.2556  0.0148 -0.8663
  825MOL0     C11286   7.882   6.013   0.465  0.5475  0.0284 -0.2888
  825MOL0     O11287   7.955   5.851   0.760 -0.4805  0.9842 -0.0387
  825MOL0     C11288   8.159   5.648   0.816 -0.5249 -0.2837 -0.2836
  825MOL0     C11289   8.283   5.570   0.824  0.8044  0.1215 -0.3918
  825MOL0     N11290   8.954   5.319   0.878 -0.8916 -0.4504 -0.1634
  825MOL0     N11291   9.008   5.262   0.982  0.3310  0.4568  0.3350
  825MOL0     C11292   8.071   4.937   0.932  0.9590 -0.1755 -0.1091
  825MOL0     C11293   8.007   5.000   0.826  0.0290 -0.5525 -0.3698
  825MOL0     C11294   7.814   5.283   0.563 -0.3430 -0.4556 -0.9565
  825MOL0     C11295   7.897   5.339   0.467 -0.5939  0.0263  0.3782
  825MOL0     C11296   7.836   5.401   0.354  0.0673  0.9797 -1.4729
  825MOL0     C11297   7.704   5.395   0.322 -0.1566 -0.7955 -0.8913
  825MOL0     O11298   7.645   5.443   0.205 -0.2593 -0.3157 -0.2085
  825MOL0     C11299   7.716   5.537   0.113 -0.5146  0.6594 -0.3941
  825MOL0     C11300   7.692   5.674   0.159 -0.5937  0.0490 -0.0887
  825MOL0     C11301   7.801   5.766   0.085 -0.0137  0.6119 -0.3587
  825MOL0     C11302   7.739   5.851  -0.021 -0.2163 -0.9351  0.3347
  825MOL0     C11303   7.635   5.940   0.033 -0.6769  0.2629  0.2797
  825MOL0     C11304   7.552   5.993   0.101 -0.7597  0.3637  0.1373
  825MOL0     C11305   7.623   5.347   0.425  0.3071 -0.7949 -0.8138
  825MOL0     C11306   7.673   5.292   0.547  0.2290 -1.1937 -0.0890
  825MOL0     C11307   7.572   5.236   0.645 -0.1337 -0.3834 -0.3169
  825MOL0     H11308   8.242   5.245   0.788  1.9863 -0.7291 -0.7166
  825MOL0     H11309   8.354   5.128   0.957  0.7513 -1.9120  0.8437
  825MOL0     H11310   8.370   4.796   1.147 -2.4837  0.3245  0.3233
  825MOL0     H11311   8.444   4.927   1.047 -0.6874  2.9105  0.4550
  825MOL0     H11312   8.308   4.942   1.300 -1.6148  1.4961 -0.6114
  825MOL0     H11313   8.381   5.076   1.210 -0.8309 -0.5344  0.0207
  825MOL0     H11314   8.547   4.830   1.290 -1.8114 -0.5674 -0.5529
  825MOL0     H11315   8.534   4.976   1.392  0.1331 -1.5971  0.5025
  825MOL0     H11316   8.655   4.947   1.107  0.0503  1.0994 -0.9629
  825MOL0     H11317   8.594   5.099   1.170  0.0452 -0.3246 -0.5793
  825MOL0     H11318   8.728   5.122   1.351 -0.3896 -0.5404  0.5083
  825MOL0     H11319   8.785   4.960   1.340 -2.1304 -0.5087 -0.3654
  825MOL0     H11320   8.852   5.177   1.148 -0.0640 -0.4256 -1.1483
  825MOL0     H11321   8.958   5.111   1.287 -1.7041  0.6928  0.5868
  825MOL0     H11322   8.871   4.934   1.043  0.1272 -0.6753 -0.8249
  825MOL0     H11323   8.951   4.894   1.178 -0.1056 -0.2336 -1.8107
  825MOL0     H11324   9.144   5.065   1.114  0.2037 -1.3099  0.2844
  825MOL0     H11325   9.131   4.942   0.994  1.0961 -0.2911  2.9196
  825MOL0     H11326   8.970   5.013   0.788  1.9149 -1.6083  1.9564
  825MOL0     H11327   8.872   5.277   0.572  0.8035 -4.0311 -1.2376
  825MOL0     H11328   8.790   5.141   0.635 -2.5393 -0.1328  2.3329
  825MOL0     H11329   8.751   5.446   0.700 -2.0409  1.3990  0.6136
  825MOL0     H11330   8.672   5.332   0.587  2.3113 -0.2798 -1.6430
  825MOL0     H11331   8.667   5.262   0.883  0.6402 -0.6805 -1.5279
  825MOL0     H11332   8.574   5.215   0.747 -0.8864  0.5404 -0.0527
  825MOL0     H11333   8.582   5.493   0.857 -0.6977  0.0128  0.5392
  825MOL0     H11334   8.468   5.379   0.904  1.0671  1.6656  0.9843
  825MOL0     H11335   8.284   5.465   0.496 -0.6942  0.7279 -0.5720
  825MOL0     H11336   8.081   5.612   0.497 -1.4712  2.3427  2.1204
  825MOL0     H11337   7.712   5.735   0.567 -1.7552 -0.0397 -0.5612
  825MOL0     H11338   7.522   5.903   0.561 -0.0125 -3.0221  1.7906
  825MOL0     H11339   7.474   6.346   0.495  1.7264 -0.9155  2.8113
  825MOL0     H11340   7.643   6.327   0.495 -0.4673 -0.9810  1.3889
  825MOL0     H11341   7.597   6.208   0.265  0.7451  0.9963  0.5265
  825MOL0     H11342   7.426   6.251   0.279  0.0032  0.9169  1.5510
  825MOL0     H11343   7.661   6.441   0.268 -0.4490 -1.2152  0.0552
  825MOL0     H11344   7.585   6.385   0.114 -1.9474 -0.2029 -0.1069
  825MOL0     H11345   7.442   6.537   0.340 -1.1058  0.4755 -0.6304
  825MOL0     H11346   7.362   6.506   0.184  0.4080  1.5404 -1.9494
  825MOL0     H11347   7.633   6.660   0.206  1.0196 -1.7432 -1.7090
  825MOL0     H11348   7.472   6.740   0.212 -2.4834 -0.9310 -2.0803
  825MOL0     H11349   7.569   6.567  -0.017  2.9545 -0.3954  2.2815
  825MOL0     H11350   7.444   6.704  -0.015  1.0321 -2.5254 -1.4509
  825MOL0     H11351   7.635   6.766  -0.140  0.6020  2.8358 -0.9116
  825MOL0     H11352   7.733   6.714   0.000 -1.0501 -0.9948  1.8450
  825MOL0     H11353   7.656   6.922   0.118  2.0374 -0.1704 -0.8594
  825MOL0     H11354   7.694   6.962  -0.052  0.4239 -2.1682 -3.4774
  825MOL0     H11355   7.782   6.206   0.406 -2.2227  0.0163 -1.8977
  825MOL0     H11356   7.985   6.047   0.458  0.7023 -0.2727  0.3891
  825MOL0     H11357   8.115   5.687   0.908  0.4160 -1.5764  0.7563
  825MOL0     H11358   8.318   5.559   0.926 -1.8261  0.8552  0.6684
  825MOL0     H11359   8.029   4.841   0.963  0.4604 -0.1656 -0.7319
  825MOL0     H11360   7.921   4.948   0.784 -1.0329  0.4639  0.4945
  825MOL0     H11361   8.005   5.348   0.476 -0.8318  2.2959  1.8692
  825MOL0     H11362   7.911   5.453   0.297  2.0854 -2.6289 -2.4210
  825MOL0     H11363   7.678   5.519   0.012  1.9503  0.9756 -1.4455
  825MOL0     H11364   7.824   5.519   0.107 -0.1565  1.6163  2.0834
  825MOL0     H11365   7.690   5.693   0.267 -1.5395  0.2791 -0.1380
  825MOL0     H11366   7.590   5.683   0.123 -1.1690 -0.1760  1.4073
  825MOL0     H11367   7.886   5.714   0.041  1.3908  3.9972 -2.0398
  825MOL0     H11368   7.844   5.828   0.165 -0.2915 -0.1257  0.3689
  825MOL0     H11369   7.818   5.922  -0.047 -0.7082  0.2785  2.0060
  825MOL0     H11370   7.707   5.796  -0.110 -0.7178  4.5665 -3.3520
  825MOL0     H11371   7.476   6.051   0.150 -1.1138 -0.1354  0.1924
  825MOL0     H11372   7.516   5.361   0.415 -0.4014 -0.5429  4.3806
  825MOL0     H11373   7.531   5.318   0.705 -1.3692 -0.1094 -1.4876
  825MOL0     H11374   7.484   5.197   0.593 -2.1845 -1.8209  3.8089
  825MOL0     H11375   7.613   5.158   0.709 -1.8070 -0.6980  0.4255
  826MOL0     O11376   1.067   0.955   3.024  0.4175 -0.1101  0.0229
  826MOL0     C11377   0.950   0.930   3.046 -0.4239 -0.6108 -0.2680
  826MOL0     O11378   0.894   0.977   3.164  0.6841  0.9383 -0.4627
  826MOL0     C11379   0.955   1.053   3.256 -0.3689 -0.4264 -0.6013
  826MOL0     C11380   1.080   1.022   3.308 -1.1144  0.1423 -0.0600
  826MOL0     C11381   1.143   1.101   3.404  0.6962 -0.3047 -0.4209
  826MOL0     C11382   1.077   1.208   3.460 -0.5429  0.1758 -0.3982
  826MOL0     O11383   1.148   1.254   3.569 -0.1025 -0.7531  0.1421
  826MOL0     C11384   1.123   1.387   3.622  0.3427  0.1952  0.1912
  826MOL0     C11385   1.218   1.430   3.733  1.0927 -0.4997 -0.0625
  826MOL0     C11386   1.179   1.569   3.789  0.4275 -0.4803 -0.9691
  826MOL0     C11387   1.283   1.637   3.876  0.4104 -0.7881  0.2708
  826MOL0     C11388   1.416   1.666   3.813 -0.6586 -0.0934  0.3367
  826MOL0     C11389   1.504   1.756   3.901 -0.4618  1.0257  0.3057
  826MOL0     C11390   1.640   1.802   3.831 -0.0747 -0.5396  0.5270
  826MOL0     C11391   1.693   1.944   3.857 -0.4409 -0.7138  0.0479
  826MOL0     N11392   1.824   1.958   3.787 -0.1872  0.7339  0.4573
  826MOL0     C11393   1.840   2.068   3.702  0.2791  0.0097 -0.4783
  826MOL0     C11394   1.954   2.040   3.632 -1.2189 -0.5733 -0.2326
  826MOL0     C11395   2.031   2.127   3.539  0.6024 -1.0509  0.8189
  826MOL0     C11396   2.022   2.089   3.386  0.2566  0.1987  0.2107
  826MOL0     C11397   2.101   2.178   3.291 -0.1903  0.0614  0.3383
  826MOL0     C11398   2.059   2.325   3.302 -0.3584  0.2052  0.3801
  826MOL0     O11399   1.918   2.347   3.324  0.0523 -0.5422 -0.5054
  826MOL0     C11400   1.879   2.480   3.353 -0.1102 -1.0725 -0.6837
  826MOL0     C11401   1.752   2.490   3.407  0.0967  0.2258 -0.0332
  826MOL0     C11402   1.696   2.607   3.437 -0.3128 -0.4699  0.3196
  826MOL0     C11403   1.749   2.728   3.397 -0.0874  0.0370  0.0207
  826MOL0     C11404   1.673   2.862   3.404  0.3609 -0.5582 -0.7387
  826MOL0     O11405   1.745   2.974   3.415  0.1992 -0.4217  0.5820
  826MOL0     C11406   1.694   3.106   3.420 -0.7322  0.2720  0.6635
  826MOL0     C11407   1.785   3.211   3.414  0.3174 -0.5713  0.1632
  826MOL0     C11408   1.760   3.342   3.400  0.3932 -0.2748 -0.4476
  826MOL0     C11409   1.623   3.381   3.386  0.7896  0.4158 -0.3724
  826MOL0     O11410   1.590   3.509   3.366 -0.2498 -0.3384  0.0302
  826MOL0     C11411   1.554   3.543   3.236  0.9659 -0.2198  0.0909
  826MOL0     C11412   1.622   3.677   3.187  1.1743 -0.5206 -0.3044
  826MOL0     C11413   1.776   3.663   3.161  0.0198 -0.0902 -0.9413
  826MOL0     C11414   1.813   3.555   3.064 -0.9404 -0.1860  0.8402
  826MOL0     C11415   1.946   3.568   3.007 -0.1641  0.0505  1.0713
  826MOL0     C11416   2.071   3.596   3.096 -0.3895 -0.5250  0.6216
  826MOL0     C11417   2.200   3.578   3.007 -0.2411 -0.2847 -0.4092
  826MOL0     C11418   2.331   3.606   3.098 -0.1375  0.5650 -0.1372
  826MOL0    Cl11419   2.345   3.770   3.152  0.2547  0.0942 -0.2112
  826MOL0     C11420   1.526   3.284   3.391  0.4127  0.0373 -0.2909
  826MOL0     C11421   1.561   3.149   3.411  0.3507 -0.0971  0.0936
  826MOL0     O11422   1.552   2.859   3.413 -0.3980  0.3833  0.1475
  826MOL0     C11423   1.888   2.723   3.353  0.0398 -0.9546  0.6151
  826MOL0     C11424   1.956   2.602   3.323 -0.8561  0.5374  1.3958
  826MOL0     N11425   2.002   1.916   3.686  0.1101 -0.4025  0.0349
  826MOL0     N11426   1.921   1.861   3.775 -0.5759 -0.5689 -0.2061
  826MOL0     C11427   0.946   1.237   3.422 -0.1034 -0.0940 -0.2986
  826MOL0     C11428   0.893   1.173   3.310  0.7402 -0.0684  0.3307
  826MOL0     C11429   0.886   0.826   2.964 -0.3019  1.2768 -0.2926
  826MOL0     C11430   0.758   0.778   3.006  0.5725 -0.9311  0.4487
  826MOL0     C11431   0.697   0.673   2.935 -0.6883 -0.6943 -0.0502
  826MOL0     C11432   0.765   0.620   2.828  0.7536 -0.6010 -0.2656
  826MOL0     O11433   0.686   0.530   2.761 -0.8768 -0.4368  0.6343
  826MOL0     C11434   0.719   0.492   2.624 -0.1085  0.1319  0.4306
  826MOL0     C11435   0.601   0.424   2.544  0.2173  0.3153  0.4737
  826MOL0     C11436   0.543   0.293   2.611  0.0734  0.9400 -0.6057
  826MOL0     C11437   0.425   0.236   2.531 -0.3745  0.4123 -0.1487
  826MOL0     C11438   0.469   0.205   2.395  0.4473 -0.0615  1.2861
  826MOL0     C11439   0.509   0.166   2.282  0.2173  0.4212  0.1734
  826MOL0     C11440   0.887   0.672   2.776 -0.8581  0.8633  0.3929
  826MOL0     C11441   0.957   0.776   2.846  0.1823  0.5605  0.1441
  826MOL0     C11442   1.089   0.820   2.788  0.2588 -0.1958 -0.1981
  826MOL0     H11443   1.146   0.949   3.263 -1.1340  0.3275 -0.3950
  826MOL0     H11444   1.250   1.088   3.415  1.4779  2.9577 -2.5866
  826MOL0     H11445   1.119   1.466   3.546 -0.9980 -2.5918 -2.8794
  826MOL0     H11446   1.023   1.386   3.665  0.8442 -1.5637  1.4387
  826MOL0     H11447   1.320   1.441   3.695  0.8176  5.0025  0.0496
  826MOL0     H11448   1.215   1.363   3.819  1.3785 -0.8643 -0.3343
  826MOL0     H11449   1.094   1.545   3.854 -0.8043 -1.8650 -3.0033
  826MOL0     H11450   1.144   1.628   3.704  2.2905 -0.0991 -1.5237
  826MOL0     H11451   1.237   1.734   3.900 -0.2468 -0.5227 -1.8668
  826MOL0     H11452   1.297   1.582   3.969  3.1975 -0.9536 -0.1423
  826MOL0     H11453   1.463   1.569   3.793 -3.1742 -1.3218 -0.0386
  826MOL0     H11454   1.400   1.719   3.719 -2.0066 -0.1777  0.5031
  826MOL0     H11455   1.451   1.847   3.933 -0.2391  0.3816  2.7657
  826MOL0     H11456   1.534   1.700   3.990  0.8412 -0.5664 -1.0777
  826MOL0     H11457   1.615   1.809   3.725  1.4895 -2.1362  0.0044
  826MOL0     H11458   1.720   1.727   3.837  0.9565  0.5489  0.5502
  826MOL0     H11459   1.631   2.024   3.817 -0.2243 -0.6736 -0.2118
  826MOL0     H11460   1.695   1.962   3.965  1.7759  2.5540 -0.3766
  826MOL0     H11461   1.777   2.155   3.690  0.3998  0.3413  1.0553
  826MOL0     H11462   2.003   2.232   3.550  3.1953 -0.3047  0.8791
  826MOL0     H11463   2.135   2.119   3.571  1.3969 -3.0823 -1.8175
  826MOL0     H11464   2.058   1.985   3.386  0.7720  0.3747  0.0729
  826MOL0     H11465   1.916   2.090   3.360 -0.1591 -0.0904  1.7522
  826MOL0     H11466   2.084   2.148   3.187  1.7420 -1.6537  0.4585
  826MOL0     H11467   2.208   2.171   3.312 -0.0910  1.0863  0.1913
  826MOL0     H11468   2.085   2.375   3.208  2.0843 -1.1100  0.2776
  826MOL0     H11469   2.117   2.364   3.386  4.6808 -2.8649 -1.2209
  826MOL0     H11470   1.698   2.396   3.412  2.2224 -1.0429  0.1758
  826MOL0     H11471   1.592   2.623   3.464 -0.3424 -1.6585  0.9868
  826MOL0     H11472   1.889   3.179   3.420  0.2398 -0.5847  2.1064
  826MOL0     H11473   1.841   3.414   3.402  0.4399 -0.3085  2.6408
  826MOL0     H11474   1.581   3.465   3.165  2.2656  1.3977 -1.3024
  826MOL0     H11475   1.448   3.569   3.235  1.0561  0.1894 -1.0143
  826MOL0     H11476   1.568   3.708   3.097 -3.2824 -0.2940  2.1534
  826MOL0     H11477   1.592   3.759   3.253  1.3782  2.5984 -3.7609
  826MOL0     H11478   1.808   3.761   3.125 -0.5177  1.2185  1.8654
  826MOL0     H11479   1.816   3.642   3.260  0.5108  0.8526 -0.9254
  826MOL0     H11480   1.749   3.545   2.976  0.0039 -1.3143  0.2586
  826MOL0     H11481   1.805   3.459   3.117  1.2878 -1.5339 -1.0753
  826MOL0     H11482   1.932   3.636   2.923 -3.6802 -1.9071 -0.1313
  826MOL0     H11483   1.955   3.468   2.962 -2.3348  1.7210 -3.6080
  826MOL0     H11484   2.058   3.698   3.132  3.6254  0.7295 -0.8578
  826MOL0     H11485   2.090   3.540   3.188 -1.7310 -1.8122  0.1471
  826MOL0     H11486   2.211   3.648   2.924 -0.0761  1.5753  1.0964
  826MOL0     H11487   2.204   3.477   2.966  0.8819 -0.4043 -0.0546
  826MOL0     H11488   2.340   3.544   3.187  1.1979  0.5512 -0.2572
  826MOL0     H11489   2.420   3.573   3.044 -0.7686 -2.0161  0.2691
  826MOL0     H11490   1.421   3.314   3.386 -0.1311 -0.8778  2.9481
  826MOL0     H11491   1.473   3.085   3.411  0.6667 -0.5415  0.7131
  826MOL0     H11492   1.944   2.815   3.340  0.8877 -1.8571 -3.6029
  826MOL0     H11493   2.056   2.594   3.282 -1.7975 -1.2541 -0.7465
  826MOL0     H11494   0.891   1.314   3.475  1.7677  0.5572  0.8068
  826MOL0     H11495   0.812   1.208   3.248  1.3652 -1.7675 -1.5797
  826MOL0     H11496   0.707   0.830   3.086 -0.8418  0.5285 -1.3085
  826MOL0     H11497   0.595   0.640   2.951 -1.2668  1.3416  0.8019
  826MOL0     H11498   0.807   0.427   2.623 -0.8511 -0.8811  0.4869
  826MOL0     H11499   0.742   0.586   2.573 -1.3026  0.9812  1.4058
  826MOL0     H11500   0.627   0.397   2.441 -3.6042 -4.0128  0.3417
  826MOL0     H11501   0.510   0.483   2.526 -0.8574 -1.0407  1.2448
  826MOL0     H11502   0.509   0.317   2.713  0.2436 -1.9091  0.1897
  826MOL0     H11503   0.615   0.212   2.624 -3.7918 -2.6542  0.7074
  826MOL0     H11504   0.388   0.157   2.596 -1.5062  0.9584 -0.1110
  826MOL0     H11505   0.352   0.318   2.526 -0.9865 -0.1920 -2.4317
  826MOL0     H11506   0.520   0.132   2.181  0.5291 -1.3497  0.7664
  826MOL0     H11507   0.923   0.632   2.681  1.4569  2.6642  0.4047
  826MOL0     H11508   1.120   0.758   2.704  1.5048  1.4558 -1.0189
  826MOL0     H11509   1.073   0.914   2.734 -1.5340  0.9444  2.1413
  826MOL0     H11510   1.170   0.816   2.861 -1.5489  0.6356  2.0056
  827MOL0     O11511   8.471   3.949  10.018  1.0067 -0.6628 -0.2721
  827MOL0     C11512   8.544   3.899  10.101  0.0572  0.1604 -0.1068
  827MOL0     O11513   8.652   3.820  10.078  0.2805  0.5393  0.3236
  827MOL0     C11514   8.670   3.753   9.956  0.4356 -0.6194 -0.2680
  827MOL0     C11515   8.800   3.711   9.917  0.2624 -0.7408 -0.5551
  827MOL0     C11516   8.822   3.637   9.798 -0.2375 -0.0267  0.2257
  827MOL0     C11517   8.708   3.600   9.722 -0.7034 -0.2577 -1.3546
  827MOL0     O11518   8.729   3.533   9.598 -0.3462 -0.1724 -0.3409
  827MOL0     C11519   8.616   3.517   9.500  0.1460 -0.9053 -0.4138
  827MOL0     C11520   8.667   3.454   9.366  0.2058 -0.7131  0.5374
  827MOL0     C11521   8.746   3.326   9.401  0.9324  0.2037  0.4921
  827MOL0     C11522   8.812   3.259   9.285 -0.1627  0.4253  0.1484
  827MOL0     C11523   8.727   3.225   9.166 -0.4646 -0.1567  0.4876
  827MOL0     C11524   8.804   3.137   9.064 -0.6779 -0.2642  0.0501
  827MOL0     C11525   8.727   3.127   8.932  0.2569 -0.1879  0.7388
  827MOL0     C11526   8.721   3.263   8.855  0.4885 -0.0829  0.3750
  827MOL0     N11527   8.651   3.249   8.729  0.2351  0.2334  0.2356
  827MOL0     C11528   8.514   3.248   8.698 -0.5451  0.1172  0.1613
  827MOL0     C11529   8.504   3.213   8.565 -0.2183  0.3442 -0.3575
  827MOL0     C11530   8.385   3.215   8.472  0.0763 -0.3170 -0.7842
  827MOL0     C11531   8.426   3.166   8.327  0.3301  0.3673  0.6290
  827MOL0     C11532   8.319   3.202   8.225 -0.5710 -0.1797  0.3410
  827MOL0     C11533   8.354   3.132   8.091 -0.0471  0.6491 -0.4606
  827MOL0     O11534   8.259   3.161   7.990  0.3285  0.4187 -0.2621
  827MOL0     C11535   8.285   3.274   7.906  0.0176 -0.1773 -0.6349
  827MOL0     C11536   8.413   3.333   7.878 -0.7478  0.3489 -0.1124
  827MOL0     C11537   8.416   3.426   7.777  0.5278 -0.1967 -0.2028
  827MOL0     C11538   8.296   3.469   7.707  0.4262  0.4460 -0.3024
  827MOL0     C11539   8.309   3.572   7.606  0.9933  0.2589  0.6594
  827MOL0     O11540   8.197   3.630   7.551 -0.3742  0.1772 -0.2265
  827MOL0     C11541   8.215   3.700   7.436 -0.2475 -0.2831  0.8884
  827MOL0     C11542   8.268   3.652   7.313  0.3394 -0.0066 -0.5640
  827MOL0     C11543   8.297   3.736   7.210  0.7618  0.5988  0.0946
  827MOL0     C11544   8.256   3.868   7.225  0.4808 -0.0799  0.6317
  827MOL0     O11545   8.305   3.945   7.121 -0.7839  0.2730 -0.0148
  827MOL0     C11546   8.278   4.080   7.109  0.4248 -1.1588  0.1756
  827MOL0     C11547   8.336   4.146   6.986  0.0034 -0.1379  0.0377
  827MOL0     C11548   8.277   4.288   6.952  0.1270  0.9582 -0.0041
  827MOL0     C11549   8.327   4.381   7.055 -0.2305  0.7595  0.2707
  827MOL0     C11550   8.265   4.522   7.028 -0.6607 -0.5510  0.1876
  827MOL0     C11551   8.336   4.622   6.935 -0.1654  0.3393  0.1462
  827MOL0     C11552   8.255   4.751   6.906  0.7480  0.0767  0.4127
  827MOL0     C11553   8.277   4.811   6.770  0.6751  1.5149  0.1316
  827MOL0    Cl11554   8.260   4.707   6.625  0.3202 -0.0216  0.5510
  827MOL0     C11555   8.201   3.928   7.336  0.0780  0.4614 -0.4845
  827MOL0     C11556   8.174   3.835   7.441  0.0235  0.1665  0.2752
  827MOL0     O11557   8.426   3.600   7.579  0.1656 -0.5787  0.2323
  827MOL0     C11558   8.168   3.416   7.741 -0.0874 -0.7139 -0.1395
  827MOL0     C11559   8.166   3.323   7.846 -0.6430 -0.3509 -1.2252
  827MOL0     N11560   8.631   3.176   8.525 -0.1009 -0.1563 -0.0841
  827MOL0     N11561   8.710   3.199   8.621  0.4824 -0.6088 -0.3152
  827MOL0     C11562   8.583   3.637   9.762 -1.0112  0.1923  0.0869
  827MOL0     C11563   8.566   3.705   9.876  0.1312 -0.2360 -0.1946
  827MOL0     C11564   8.494   3.916  10.239 -0.9921  1.0074 -0.0878
  827MOL0     C11565   8.415   4.034  10.277 -0.4156  0.2576  0.6677
  827MOL0     C11566   8.389   4.060  10.411 -0.2823  0.1336  0.4401
  827MOL0     C11567   8.394   3.960  10.504 -0.6143 -0.0483  0.5753
  827MOL0     O11568   8.358   3.984  10.628 -0.4045  0.5425  0.3807
  827MOL0     C11569   8.224   3.956  10.652 -0.6485 -0.8835  0.9824
  827MOL0     C11570   8.211   3.989  10.803 -0.0563  0.5166  0.5716
  827MOL0     C11571   8.270   3.897  10.909  0.1860  0.3440  0.5665
  827MOL0     C11572   8.302   3.974  11.040  0.9151 -0.7000  0.7147
  827MOL0     C11573   8.375   3.898  11.143  0.1230  0.2263 -0.7344
  827MOL0     C11574   8.421   3.840  11.236 -0.5368  0.4055 -0.4055
  827MOL0     C11575   8.467   3.842  10.466 -0.1405  0.2690 -0.1741
  827MOL0     C11576   8.519   3.817  10.338  0.0105 -0.1564 -0.4661
  827MOL0     C11577   8.589   3.682  10.317  0.1402 -0.9031 -0.0689
  827MOL0     H11578   8.883   3.758   9.968 -1.4941  1.5662  0.3768
  827MOL0     H11579   8.922   3.618   9.760 -0.8779 -1.7320 -0.6801
  827MOL0     H11580   8.542   3.452   9.548 -0.3174 -1.3723 -1.7195
  827MOL0     H11581   8.564   3.611   9.481  1.1708 -0.5851 -1.7966
  827MOL0     H11582   8.729   3.524   9.309 -0.1985 -2.9968 -2.9744
  827MOL0     H11583   8.575   3.442   9.308  0.7446  1.6601 -0.9628
  827MOL0     H11584   8.681   3.270   9.469 -0.6324  2.6994  1.2131
  827MOL0     H11585   8.827   3.356   9.468  1.5066 -2.0677  0.8828
  827MOL0     H11586   8.903   3.306   9.247 -0.3705  2.5579  2.0905
  827MOL0     H11587   8.849   3.165   9.328 -0.7476 -0.5057 -1.2936
  827MOL0     H11588   8.631   3.177   9.188 -0.4968 -2.0456 -3.0439
  827MOL0     H11589   8.696   3.322   9.127 -0.2903 -0.6923 -1.0821
  827MOL0     H11590   8.905   3.179   9.057  0.6552 -3.4052 -1.1295
  827MOL0     H11591   8.810   3.030   9.085 -0.8621 -1.2881 -4.2433
  827MOL0     H11592   8.628   3.087   8.955 -0.5699  1.5834  0.3962
  827MOL0     H11593   8.782   3.050   8.878  2.2507  2.9685 -2.1128
  827MOL0     H11594   8.667   3.344   8.905  0.9371 -1.2357  2.8606
  827MOL0     H11595   8.821   3.302   8.833  0.9508 -0.3643  1.9015
  827MOL0     H11596   8.432   3.289   8.757 -0.5290  2.4000 -1.2937
  827MOL0     H11597   8.290   3.166   8.498 -0.3951 -0.3830 -2.4945
  827MOL0     H11598   8.359   3.321   8.464 -0.9169  0.0107  3.8754
  827MOL0     H11599   8.522   3.213   8.303  0.1478  0.7060  0.5688
  827MOL0     H11600   8.427   3.057   8.343  1.9150  0.3584  0.6266
  827MOL0     H11601   8.319   3.309   8.204 -0.8460  0.7544  4.3959
  827MOL0     H11602   8.224   3.165   8.265  0.3652 -2.3540  0.6899
  827MOL0     H11603   8.338   3.024   8.098 -3.7918  1.1155  0.2048
  827MOL0     H11604   8.458   3.147   8.062  0.5172 -3.5613 -1.3623
  827MOL0     H11605   8.502   3.299   7.930 -2.8432 -3.2696  1.4492
  827MOL0     H11606   8.513   3.471   7.757  1.5721 -2.3382 -0.2209
  827MOL0     H11607   8.298   3.548   7.304  3.7627  0.7826  0.3437
  827MOL0     H11608   8.343   3.690   7.123  4.5034  0.2247  2.0582
  827MOL0     H11609   8.169   4.084   7.105  0.4911 -0.1991 -1.5540
  827MOL0     H11610   8.327   4.122   7.197  0.3181 -0.2443 -0.1924
  827MOL0     H11611   8.444   4.158   7.002 -0.3678  2.0417  1.2847
  827MOL0     H11612   8.328   4.084   6.896  1.6519  0.1150 -0.3157
  827MOL0     H11613   8.313   4.318   6.854 -1.7568 -2.6673 -1.9996
  827MOL0     H11614   8.168   4.286   6.946  0.0113  3.0168  0.5948
  827MOL0     H11615   8.435   4.375   7.071 -0.4860 -1.9157  1.5347
  827MOL0     H11616   8.295   4.354   7.156 -1.2659  0.6539 -0.0722
  827MOL0     H11617   8.248   4.567   7.126 -1.5625  0.7882 -0.5544
  827MOL0     H11618   8.172   4.505   6.973 -0.2402  0.8284 -1.0215
  827MOL0     H11619   8.428   4.648   6.988 -0.3554 -0.1968  0.7489
  827MOL0     H11620   8.366   4.567   6.845  0.6185 -0.7656  1.0501
  827MOL0     H11621   8.266   4.824   6.987  1.9206  1.1576 -0.6777
  827MOL0     H11622   8.150   4.720   6.912  0.9328 -0.8280 -0.7051
  827MOL0     H11623   8.199   4.888   6.761  0.9627  2.1620  2.5272
  827MOL0     H11624   8.381   4.843   6.765  1.3181 -0.4557  0.2000
  827MOL0     H11625   8.187   4.035   7.346  3.9114  0.8901  2.6283
  827MOL0     H11626   8.142   3.883   7.533  1.0731  2.5151 -0.5158
  827MOL0     H11627   8.074   3.453   7.702  0.2285 -0.7667 -0.9835
  827MOL0     H11628   8.073   3.280   7.883 -0.9481  0.3661 -1.1394
  827MOL0     H11629   8.495   3.614   9.703 -1.0857  1.8181 -0.4702
  827MOL0     H11630   8.465   3.733   9.904  0.0724  0.3403 -0.9216
  827MOL0     H11631   8.383   4.098  10.196  0.5484  0.1741  0.2072
  827MOL0     H11632   8.356   4.160  10.438 -2.5465  0.1592 -1.9754
  827MOL0     H11633   8.197   3.852  10.632 -1.5770 -0.1999 -1.7005
  827MOL0     H11634   8.170   4.017  10.579  1.8612 -0.2118 -0.4177
  827MOL0     H11635   8.106   3.999  10.831 -0.4037  2.8479 -1.1911
  827MOL0     H11636   8.261   4.086  10.819  2.3749 -0.7284  0.9921
  827MOL0     H11637   8.362   3.854  10.868 -0.9856 -3.6411  1.7033
  827MOL0     H11638   8.204   3.811  10.927  0.2959 -0.5816 -2.8302
  827MOL0     H11639   8.362   4.061  11.008  0.3765 -1.4500 -2.7728
  827MOL0     H11640   8.211   4.016  11.083 -0.3125 -1.9967 -0.5102
  827MOL0     H11641   8.460   3.814  11.332 -0.7056  2.1481  0.1711
  827MOL0     H11642   8.472   3.764  10.541  2.4293  1.0766  0.6037
  827MOL0     H11643   8.584   3.623  10.409  0.4496  1.2645  1.4076
  827MOL0     H11644   8.543   3.624  10.236  0.9543 -1.9689  0.2070
  827MOL0     H11645   8.695   3.701  10.298 -0.0661 -0.3452 -0.7007
  828MOL0     O11646   7.016  11.097   0.195 -0.5008 -0.0471  0.9562
  828MOL0     C11647   7.115  11.066   0.125  0.9061 -0.1045  0.6961
  828MOL0     O11648   7.193  11.164   0.050  0.4173  0.0928  0.5497
  828MOL0     C11649   7.131  11.286   0.031 -0.2586  0.1884 -0.8607
  828MOL0     C11650   7.084  11.320  -0.093 -0.6462 -0.7602  1.4072
  828MOL0     C11651   7.049  11.451  -0.132 -0.1575 -0.3701  0.1136
  828MOL0     C11652   7.038  11.540  -0.023 -0.0774  0.4031 -0.0225
  828MOL0     O11653   7.004  11.671  -0.034  0.4746 -0.3143 -0.5978
  828MOL0     C11654   7.042  11.738  -0.154 -0.5462  0.5545  0.8641
  828MOL0     C11655   6.972  11.870  -0.146  0.5852 -1.2344 -0.9071
  828MOL0     C11656   6.823  11.860  -0.168 -0.2217 -0.1968 -0.1209
  828MOL0     C11657   6.742  11.981  -0.113  0.1504  0.7818 -0.0277
  828MOL0     C11658   6.587  11.957  -0.099 -1.1357 -0.2556 -0.0509
  828MOL0     C11659   6.524  11.950  -0.238 -0.5359 -0.6217 -0.9204
  828MOL0     C11660   6.375  11.939  -0.219 -0.2642  1.0098 -0.0045
  828MOL0     C11661   6.299  12.054  -0.159  0.0509  0.4120 -0.1280
  828MOL0     N11662   6.341  12.190  -0.211 -0.7286 -0.1982 -0.0952
  828MOL0     C11663   6.367  12.226  -0.347  0.2455 -0.0786 -0.0385
  828MOL0     C11664   6.379  12.367  -0.336 -0.6131  0.2655 -0.2310
  828MOL0     C11665   6.433  12.456  -0.449  0.4751 -0.4004  0.6632
  828MOL0     C11666   6.349  12.581  -0.462  0.1639  0.2561  0.4389
  828MOL0     C11667   6.356  12.657  -0.592  0.6114 -0.2325 -0.4316
  828MOL0     C11668   6.302  12.801  -0.573 -0.4915 -0.1013  0.3012
  828MOL0     O11669   6.309  12.846  -0.717 -0.6391 -0.2786 -0.2502
  828MOL0     C11670   6.258  12.975  -0.743 -0.4279  0.0388 -0.2725
  828MOL0     C11671   6.338  13.056  -0.819 -0.0798 -0.0446 -0.3043
  828MOL0     C11672   6.283  13.176  -0.851 -1.0616  0.4792  0.1386
  828MOL0     C11673   6.170  13.234  -0.795 -0.3131 -0.0443  0.6312
  828MOL0     C11674   6.117  13.367  -0.826 -0.5696 -0.6553 -0.7302
  828MOL0     O11675   6.006  13.405  -0.756  0.3393 -0.7622  0.6886
  828MOL0     C11676   5.941  13.534  -0.765  0.8516 -0.4283  0.1090
  828MOL0     C11677   5.869  13.570  -0.648  0.2317 -0.5841 -0.1017
  828MOL0     C11678   5.800  13.690  -0.635  0.5900 -1.0834  0.3651
  828MOL0     C11679   5.784  13.770  -0.752  1.1589  0.5841  0.6218
  828MOL0     O11680   5.716  13.886  -0.724 -0.0102  0.7724  0.0454
  828MOL0     C11681   5.740  14.000  -0.801 -0.4566 -0.4613 -0.3055
  828MOL0     C11682   5.757  14.102  -0.689 -0.9538  0.4207  0.1110
  828MOL0     C11683   5.777  14.238  -0.743 -0.1597 -0.4241 -0.4207
  828MOL0     C11684   5.746  14.336  -0.627 -0.3129  0.2794 -1.0281
  828MOL0     C11685   5.715  14.479  -0.678 -0.5612 -0.6128  0.3876
  828MOL0     C11686   5.851  14.537  -0.717 -0.6982  0.1786  0.7385
  828MOL0     C11687   5.833  14.691  -0.750 -0.0563  0.9790  0.7722
  828MOL0     C11688   5.955  14.764  -0.791 -0.0899  0.4738  0.2727
  828MOL0    Cl11689   6.094  14.749  -0.683 -0.2470  0.0606 -0.0449
  828MOL0     C11690   5.843  13.733  -0.872  0.0716 -0.1159  0.6750
  828MOL0     C11691   5.924  13.617  -0.883  0.4149  0.4999 -0.2539
  828MOL0     O11692   6.165  13.427  -0.922  0.2270 -0.4916 -0.0771
  828MOL0     C11693   6.096  13.145  -0.703  0.7232 -0.6116  0.7568
  828MOL0     C11694   6.143  13.018  -0.686  0.0103 -0.2608  0.0935
  828MOL0     N11695   6.352  12.403  -0.207 -0.1501 -0.7811  0.9585
  828MOL0     N11696   6.343  12.306  -0.133 -0.9601  0.5982  0.1462
  828MOL0     C11697   7.084  11.501   0.107 -0.3229 -0.0011 -0.4897
  828MOL0     C11698   7.134  11.376   0.133  0.5608 -0.2711 -1.0183
  828MOL0     C11699   7.157  10.930   0.101  0.3326  0.3739 -0.2005
  828MOL0     C11700   7.222  10.893  -0.021 -0.5635  0.0804 -0.0377
  828MOL0     C11701   7.248  10.764  -0.052 -0.3505  0.4294 -0.1259
  828MOL0     C11702   7.228  10.668   0.046 -0.0277  0.6270  0.8043
  828MOL0     O11703   7.270  10.538  -0.002  0.3374 -0.1851  0.4261
  828MOL0     C11704   7.225  10.429   0.078 -0.2957 -1.0308  0.0573
  828MOL0     C11705   7.285  10.295   0.037 -0.3367 -0.5439 -0.1858
  828MOL0     C11706   7.271  10.267  -0.106  0.2715 -0.0715  0.2039
  828MOL0     C11707   7.118  10.278  -0.158  0.0146  1.1046 -0.7375
  828MOL0     C11708   7.108  10.207  -0.287 -0.4628  0.4860  0.2828
  828MOL0     C11709   7.095  10.153  -0.394  0.3771  0.3209  0.1030
  828MOL0     C11710   7.156  10.689   0.157  0.5338 -0.3435  1.6476
  828MOL0     C11711   7.115  10.823   0.187  0.4484  0.1355 -0.3805
  828MOL0     C11712   7.049  10.838   0.322  0.1960  0.7809 -0.2634
  828MOL0     H11713   7.070  11.247  -0.172  3.3773 -0.5455  0.2294
  828MOL0     H11714   7.013  11.476  -0.231 -6.7171 -0.5070  2.0295
  828MOL0     H11715   7.152  11.739  -0.148 -0.4543 -2.1602  0.7216
  828MOL0     H11716   7.024  11.683  -0.246 -0.0812  1.8559 -0.0318
  828MOL0     H11717   7.016  11.936  -0.221  2.2295 -0.0468  1.0074
  828MOL0     H11718   6.987  11.913  -0.046 -0.9569 -0.0169 -1.1634
  828MOL0     H11719   6.780  11.767  -0.130  1.1900 -1.4209 -1.3914
  828MOL0     H11720   6.810  11.857  -0.277  3.2756 -0.2991 -0.6427
  828MOL0     H11721   6.784  12.012  -0.017  0.3621  0.5869 -0.0573
  828MOL0     H11722   6.764  12.064  -0.181  3.8574 -1.0345 -1.3122
  828MOL0     H11723   6.576  11.860  -0.049  0.6022 -1.0896 -1.1881
  828MOL0     H11724   6.536  12.036  -0.044  0.2428  0.2798  0.5091
  828MOL0     H11725   6.546  12.043  -0.291  0.9424  0.0945  0.8812
  828MOL0     H11726   6.569  11.870  -0.299  0.3372 -0.8785  0.0402
  828MOL0     H11727   6.352  11.843  -0.173  1.6070  0.9107  0.8276
  828MOL0     H11728   6.332  11.923  -0.317 -0.1911 -0.7920  0.2336
  828MOL0     H11729   6.195  12.037  -0.188  0.4818  0.1915 -1.5988
  828MOL0     H11730   6.296  12.056  -0.050 -1.5560 -0.3532 -0.1348
  828MOL0     H11731   6.412  12.170  -0.429  0.2756 -1.4088  0.8585
  828MOL0     H11732   6.532  12.499  -0.434  0.4313  0.7524 -1.8462
  828MOL0     H11733   6.435  12.397  -0.541 -2.0733  1.1569 -0.4969
  828MOL0     H11734   6.241  12.568  -0.446  0.2412 -0.9974  0.0058
  828MOL0     H11735   6.387  12.652  -0.388 -1.9108  0.2045  1.6255
  828MOL0     H11736   6.302  12.604  -0.672  0.3492 -0.7875  0.1084
  828MOL0     H11737   6.461  12.659  -0.623  0.4769  0.2337 -0.8780
  828MOL0     H11738   6.362  12.871  -0.514 -0.3088  1.4746 -1.6409
  828MOL0     H11739   6.198  12.807  -0.539 -1.6518 -1.6342 -2.5893
  828MOL0     H11740   6.430  13.013  -0.857 -0.3195 -1.0867  0.2505
  828MOL0     H11741   6.330  13.244  -0.921 -2.4457 -1.1793 -2.5579
  828MOL0     H11742   5.868  13.506  -0.561  0.3868  1.0238  1.1272
  828MOL0     H11743   5.772  13.709  -0.531 -1.8089 -1.6603 -0.1215
  828MOL0     H11744   5.825  13.985  -0.867  1.1249 -6.1782  2.4437
  828MOL0     H11745   5.653  14.029  -0.860  0.4176  2.0279 -0.4780
  828MOL0     H11746   5.674  14.098  -0.618 -0.3100 -1.0887  0.8128
  828MOL0     H11747   5.847  14.081  -0.631 -1.1638  0.8869  0.6154
  828MOL0     H11748   5.879  14.240  -0.782 -0.2080  0.7539 -0.5357
  828MOL0     H11749   5.711  14.256  -0.829 -0.7793 -1.2104 -0.1189
  828MOL0     H11750   5.824  14.342  -0.550 -3.3167  1.5262  2.2237
  828MOL0     H11751   5.664  14.301  -0.564  1.3245  0.1728  1.1810
  828MOL0     H11752   5.664  14.542  -0.604 -0.0519 -1.4094  1.4435
  828MOL0     H11753   5.658  14.466  -0.770  0.3172 -1.4474 -0.0599
  828MOL0     H11754   5.925  14.515  -0.640  0.0614 -1.2984 -0.3616
  828MOL0     H11755   5.893  14.491  -0.808  3.1035 -0.8719  2.8147
  828MOL0     H11756   5.790  14.744  -0.664  1.8049 -0.6856  2.8500
  828MOL0     H11757   5.761  14.700  -0.832 -0.2591 -0.6546  0.7400
  828MOL0     H11758   5.987  14.733  -0.892  3.0273 -0.0023  1.2874
  828MOL0     H11759   5.928  14.870  -0.795  0.8704  0.7015 -2.0189
  828MOL0     H11760   5.818  13.786  -0.963  0.9257 -0.4967  0.2107
  828MOL0     H11761   5.965  13.589  -0.980  1.6666 -1.9325  0.8723
  828MOL0     H11762   6.007  13.181  -0.653  0.4411 -0.3335  0.0668
  828MOL0     H11763   6.084  12.952  -0.624 -1.6138  0.7228 -0.3409
  828MOL0     H11764   7.099  11.578   0.182 -0.8403 -0.6842  0.3368
  828MOL0     H11765   7.192  11.354   0.221  1.6866  1.0720 -1.3801
  828MOL0     H11766   7.222  10.974  -0.094 -2.2125 -0.0414 -0.2327
  828MOL0     H11767   7.281  10.731  -0.150 -0.0149 -0.6711  0.3442
  828MOL0     H11768   7.116  10.426   0.085 -0.5354 -3.0143 -2.6377
  828MOL0     H11769   7.265  10.447   0.178  0.3067  0.3972 -0.4287
  828MOL0     H11770   7.251  10.214   0.102  0.5560 -0.5958  0.2288
  828MOL0     H11771   7.391  10.313   0.053 -0.5158  0.9738 -0.6088
  828MOL0     H11772   7.293  10.162  -0.126 -2.7523 -0.6511 -0.7038
  828MOL0     H11773   7.330  10.340  -0.163 -1.8771  2.1810  0.6673
  828MOL0     H11774   7.043  10.234  -0.092 -4.0788  1.5124 -4.6071
  828MOL0     H11775   7.089  10.384  -0.167 -3.1319  0.4212 -0.0145
  828MOL0     H11776   7.083  10.099  -0.486  2.5352 -1.0054  0.5007
  828MOL0     H11777   7.121  10.610   0.223 -0.3655 -3.0171 -1.7596
  828MOL0     H11778   7.095  10.768   0.394 -0.4217  0.2911 -0.3413
  828MOL0     H11779   7.069  10.936   0.367  2.7344 -0.6879  2.1439
  828MOL0     H11780   6.942  10.822   0.313  0.4210 -2.6837  1.4383
  829MOL0     O11781  10.286  11.234   2.942  0.1053 -0.1955 -0.4049
  829MOL0     C11782  10.208  11.246   2.844 -0.1190  1.0702 -0.5066
  829MOL0     O11783  10.229  11.212   2.717  0.4668 -0.2111  0.6577
  829MOL0     C11784  10.352  11.188   2.680 -0.2778  0.7796  0.4843
  829MOL0     C11785  10.417  11.264   2.584 -0.0452  0.1966 -0.3509
  829MOL0     C11786  10.552  11.220   2.544  0.4355 -0.8155  0.7675
  829MOL0     C11787  10.616  11.116   2.602 -0.1232 -0.6370  0.5600
  829MOL0     O11788  10.738  11.081   2.547  0.3769  0.1152  0.3158
  829MOL0     C11789  10.790  10.956   2.572 -0.4303  0.7537 -0.9778
  829MOL0     C11790  10.891  10.935   2.467  0.6792  0.8632 -0.6764
  829MOL0     C11791  10.943  10.788   2.459 -0.6598 -0.4733  0.0817
  829MOL0     C11792  11.004  10.742   2.587 -0.3063  0.0021 -1.0506
  829MOL0     C11793  11.094  10.620   2.557 -0.3693  0.3132 -0.3385
  829MOL0     C11794  11.006  10.503   2.503  0.3455  0.3086  0.5401
  829MOL0     C11795  11.065  10.360   2.498 -0.3605  0.0844 -0.0399
  829MOL0     C11796  11.098  10.300   2.641  0.8021 -0.3190 -0.0384
  829MOL0     N11797  10.986  10.298   2.736  0.3185  0.3858  0.4683
  829MOL0     C11798  10.913  10.189   2.771 -0.6624 -0.5801  0.5276
  829MOL0     C11799  10.837  10.231   2.875 -0.3650  0.1051  0.2382
  829MOL0     C11800  10.749  10.143   2.950  0.4774  0.3392 -0.6562
  829MOL0     C11801  10.829  10.051   3.039  0.0152 -0.8913 -0.2942
  829MOL0     C11802  10.752   9.929   3.088  0.5561  0.3723  0.8073
  829MOL0     C11803  10.654   9.957   3.203 -0.0806 -0.3056 -0.7029
  829MOL0     O11804  10.718  10.046   3.300 -0.5481  0.0666 -0.1980
  829MOL0     C11805  10.837  10.003   3.360 -0.3538 -0.1724 -0.0414
  829MOL0     C11806  10.872   9.859   3.377  0.0949 -0.1127  0.5018
  829MOL0     C11807  10.998   9.832   3.445  1.6367 -0.5604  0.2114
  829MOL0     C11808  11.081   9.928   3.489 -0.9210 -0.0983  1.1888
  829MOL0     C11809  11.206   9.896   3.559  0.2162  0.2413 -0.1314
  829MOL0     O11810  11.250   9.766   3.562 -0.5729  0.5491  0.2267
  829MOL0     C11811  11.355   9.722   3.637 -0.2890  0.7971  0.1008
  829MOL0     C11812  11.480   9.778   3.635 -0.1107 -0.5101 -0.2305
  829MOL0     C11813  11.581   9.727   3.727  0.2892 -0.1380  0.9584
  829MOL0     C11814  11.564   9.601   3.791 -0.0335 -0.9037 -0.4369
  829MOL0     O11815  11.658   9.542   3.868 -0.1810  0.3537  0.8631
  829MOL0     C11816  11.675   9.395   3.867  0.0817 -0.9271 -0.8723
  829MOL0     C11817  11.813   9.365   3.929  0.4796 -0.4414 -0.0243
  829MOL0     C11818  11.843   9.211   3.945  0.1070 -0.9502  0.2769
  829MOL0     C11819  11.923   9.169   3.824 -0.0591  0.2721  0.3429
  829MOL0     C11820  11.974   9.023   3.819  0.1816 -0.7504  0.7657
  829MOL0     C11821  12.100   8.991   3.892 -0.6410  0.2171 -0.4535
  829MOL0     C11822  12.134   8.843   3.875 -0.2736  0.8760 -0.6011
  829MOL0     C11823  12.258   8.803   3.786 -0.0536  1.0473  0.5216
  829MOL0    Cl11824  12.219   8.865   3.622 -0.0065  0.7606 -0.2420
  829MOL0     C11825  11.434   9.544   3.780  0.1072  1.1023 -0.4527
  829MOL0     C11826  11.330   9.604   3.716  0.1802 -0.7697  0.5685
  829MOL0     O11827  11.267   9.988   3.605 -0.5419 -0.3941 -0.8472
  829MOL0     C11828  11.045  10.062   3.470  0.3199 -0.1199  0.1867
  829MOL0     C11829  10.928  10.103   3.407 -0.7229 -0.1137 -0.0915
  829MOL0     N11830  10.857  10.368   2.892 -0.3877 -0.1414 -0.5483
  829MOL0     N11831  10.947  10.406   2.811  0.4602  0.0699  0.4069
  829MOL0     C11832  10.556  11.047   2.712 -0.4662  0.4405  0.7112
  829MOL0     C11833  10.424  11.083   2.740  0.2148 -0.3205 -1.0102
  829MOL0     C11834  10.076  11.295   2.869 -0.2939 -0.8147  0.8677
  829MOL0     C11835  10.024  11.398   2.785  0.8081  0.7835 -0.0820
  829MOL0     C11836   9.902  11.460   2.827  0.0444  0.2448  0.4077
  829MOL0     C11837   9.825  11.407   2.921  0.1987  0.3253 -0.3088
  829MOL0     O11838   9.707  11.470   2.954  0.1308  0.5294  0.7507
  829MOL0     C11839   9.593  11.387   2.966  0.2292 -0.0414 -0.8730
  829MOL0     C11840   9.571  11.300   2.839 -0.9398  0.2585  0.3573
  829MOL0     C11841   9.433  11.249   2.848 -0.0799 -0.5821  0.2495
  829MOL0     C11842   9.384  11.198   2.713 -0.2287  1.2032 -0.4336
  829MOL0     C11843   9.251  11.129   2.719  0.3385  0.9083 -0.7126
  829MOL0     C11844   9.151  11.056   2.723  0.5729 -0.5086  0.7626
  829MOL0     C11845   9.879  11.300   3.001 -0.7056  0.2517  0.4423
  829MOL0     C11846  10.001  11.239   2.973  0.9891  0.0019  0.8004
  829MOL0     C11847  10.031  11.106   3.040 -0.6824 -0.4253  0.4020
  829MOL0     H11848  10.366  11.341   2.527  1.4111  1.6481  0.2469
  829MOL0     H11849  10.612  11.275   2.472  0.6372  0.3988  1.8255
  829MOL0     H11850  10.829  10.946   2.674 -4.3525 -0.7118  0.5853
  829MOL0     H11851  10.715  10.878   2.557 -0.2181 -0.1528  2.0026
  829MOL0     H11852  10.981  10.991   2.493  3.0479 -3.7037  2.2334
  829MOL0     H11853  10.849  10.959   2.369 -2.1562 -1.1092 -0.0590
  829MOL0     H11854  11.011  10.788   2.373 -1.0550  0.2727 -0.2483
  829MOL0     H11855  10.868  10.714   2.428 -1.3126  1.6652 -4.2212
  829MOL0     H11856  11.047  10.815   2.656 -2.9499  1.8938 -1.2431
  829MOL0     H11857  10.927  10.707   2.657  0.5622  3.7722  2.1132
  829MOL0     H11858  11.176  10.639   2.487  1.1020 -0.6486  1.0453
  829MOL0     H11859  11.134  10.593   2.656 -2.2966  0.6121  0.5813
  829MOL0     H11860  10.912  10.493   2.558 -0.0282 -2.0895 -0.4088
  829MOL0     H11861  10.980  10.519   2.397 -0.7630  0.3566  0.7995
  829MOL0     H11862  11.158  10.366   2.441  0.4643  0.6720  1.3067
  829MOL0     H11863  10.989  10.296   2.453  0.5023  0.2093 -1.7475
  829MOL0     H11864  11.124  10.194   2.630  1.9305 -0.3775  2.4468
  829MOL0     H11865  11.184  10.353   2.683  1.2128 -0.8907 -0.1333
  829MOL0     H11866  10.905  10.094   2.719  2.6405 -0.6315 -0.1133
  829MOL0     H11867  10.666  10.191   3.003 -1.6099 -1.6460 -1.9188
  829MOL0     H11868  10.704  10.073   2.878 -1.7184  0.8801  0.0923
  829MOL0     H11869  10.907  10.021   2.968  1.5787  3.2720 -0.6308
  829MOL0     H11870  10.880  10.106   3.118  0.3455  0.5021 -1.4154
  829MOL0     H11871  10.823   9.852   3.118  0.6167  0.1724  0.1722
  829MOL0     H11872  10.704   9.872   3.008  0.6514  1.3884 -0.0033
  829MOL0     H11873  10.604   9.872   3.250 -2.0603  1.2849  0.1958
  829MOL0     H11874  10.582  10.023   3.153 -0.2593  1.9343  2.2402
  829MOL0     H11875  10.793   9.791   3.346 -2.2956  2.3734  0.7368
  829MOL0     H11876  11.013   9.728   3.471 -0.6882 -1.4255 -1.5080
  829MOL0     H11877  11.487   9.865   3.571  1.1227 -0.8779 -0.6323
  829MOL0     H11878  11.671   9.786   3.739 -0.3729  0.6203  2.5519
  829MOL0     H11879  11.601   9.353   3.935 -0.2594 -0.0122 -0.6566
  829MOL0     H11880  11.654   9.358   3.766 -2.3726  2.8512 -1.9641
  829MOL0     H11881  11.894   9.406   3.868  1.1051 -1.4182  0.1109
  829MOL0     H11882  11.821   9.411   4.028  1.3922  1.1338 -0.7923
  829MOL0     H11883  11.899   9.207   4.039 -0.1758  2.0908  0.6736
  829MOL0     H11884  11.753   9.153   3.968  0.4632 -0.9074  1.9931
  829MOL0     H11885  12.007   9.237   3.808  1.5621 -1.5008  0.9151
  829MOL0     H11886  11.862   9.171   3.734  1.5396 -1.2895 -0.8621
  829MOL0     H11887  12.006   9.000   3.717 -0.7512 -0.8693  0.4916
  829MOL0     H11888  11.895   8.953   3.850 -0.5280 -0.1834  0.2498
  829MOL0     H11889  12.180   9.052   3.847 -2.3312  1.4505 -1.9216
  829MOL0     H11890  12.072   9.015   3.995 -2.1447 -0.9828 -0.5604
  829MOL0     H11891  12.045   8.798   3.830  1.2243 -0.7204 -2.1621
  829MOL0     H11892  12.153   8.797   3.972 -0.2741  2.6542  0.2711
  829MOL0     H11893  12.334   8.868   3.830 -1.5529  3.8836 -0.8071
  829MOL0     H11894  12.282   8.696   3.789 -1.0560  0.7922  3.5878
  829MOL0     H11895  11.421   9.448   3.830  0.9181 -0.6132 -3.2909
  829MOL0     H11896  11.230   9.563   3.724 -0.5444  0.9289  0.6827
  829MOL0     H11897  11.109  10.140   3.508 -1.1212 -0.7105  4.4035
  829MOL0     H11898  10.903  10.208   3.401  0.4851  0.1823 -0.1779
  829MOL0     H11899  10.613  10.975   2.769  0.9996  1.2584  0.3286
  829MOL0     H11900  10.379  11.026   2.821  0.6781  0.0286 -0.4981
  829MOL0     H11901  10.077  11.437   2.699 -0.9995  2.5125 -0.4760
  829MOL0     H11902   9.870  11.549   2.774  1.4243  0.7737  0.4127
  829MOL0     H11903   9.510  11.449   3.000  1.5963  0.4459  1.8039
  829MOL0     H11904   9.596  11.328   3.058 -0.8525 -0.0720 -0.8428
  829MOL0     H11905   9.639  11.215   2.832  1.1458  1.9145 -5.2046
  829MOL0     H11906   9.593  11.347   2.742 -4.2559 -1.4737 -1.3936
  829MOL0     H11907   9.366  11.327   2.884 -1.3154 -0.9464 -1.1968
  829MOL0     H11908   9.433  11.164   2.917 -1.1420 -0.8778 -0.0947
  829MOL0     H11909   9.366  11.280   2.643 -0.1274 -0.9241 -3.1271
  829MOL0     H11910   9.461  11.127   2.679  0.4814  1.5329  0.4311
  829MOL0     H11911   9.059  11.003   2.714 -1.1980  2.6552 -3.5842
  829MOL0     H11912   9.823  11.267   3.088 -0.3608  1.3882  1.1157
  829MOL0     H11913  10.118  11.055   2.997  0.3734 -1.4948  3.5163
  829MOL0     H11914  10.066  11.120   3.143  1.6636  2.7482 -0.6721
  829MOL0     H11915   9.950  11.033   3.035 -1.2742  0.2267  0.2875
  830MOL0     O11916   9.596   9.305   6.449 -0.4650  0.0097  0.1256
  830MOL0     C11917   9.579   9.199   6.398 -0.7430  0.3755 -0.2490
  830MOL0     O11918   9.518   9.178   6.278 -0.3471 -0.6039 -0.3791
  830MOL0     C11919   9.431   9.272   6.230 -0.3185 -0.0730 -0.0079
  830MOL0     C11920   9.452   9.413   6.224  0.1009 -0.7519 -0.4238
  830MOL0     C11921   9.349   9.490   6.162 -1.0633 -0.0975 -0.4219
  830MOL0     C11922   9.236   9.431   6.100  0.0804 -0.4199 -0.4966
  830MOL0     O11923   9.152   9.524   6.043 -0.3267  0.6302 -0.2606
  830MOL0     C11924   9.140   9.488   5.905  0.5020 -0.3895  0.0750
  830MOL0     C11925   9.083   9.614   5.830  0.5425 -0.6622 -0.3529
  830MOL0     C11926   9.208   9.708   5.807  0.7850 -0.9140  0.3630
  830MOL0     C11927   9.302   9.679   5.691  0.1882 -0.0572  0.0787
  830MOL0     C11928   9.436   9.755   5.691 -0.2398 -0.9955 -0.0353
  830MOL0     C11929   9.423   9.904   5.662  0.8626 -0.0010  0.2683
  830MOL0     C11930   9.537   9.975   5.596 -0.4577  0.6948  0.0124
  830MOL0     C11931   9.682   9.944   5.648 -0.0166  0.1690  0.8333
  830MOL0     N11932   9.727  10.002   5.775 -0.3548  0.2764  0.6984
  830MOL0     C11933   9.720  10.135   5.809 -0.3769 -0.3963  0.2575
  830MOL0     C11934   9.755  10.134   5.940  1.3372 -0.4343  0.3436
  830MOL0     C11935   9.767  10.260   6.022 -0.1276 -0.1640  0.0582
  830MOL0     C11936   9.624  10.327   6.061 -0.2849  0.2210  0.2999
  830MOL0     C11937   9.537  10.229   6.136 -0.4350  0.7981 -0.5614
  830MOL0     C11938   9.513  10.279   6.279 -0.0170 -0.3295 -0.3706
  830MOL0     O11939   9.427  10.393   6.287 -0.6220 -0.4173 -0.1434
  830MOL0     C11940   9.287  10.373   6.319  0.0830  0.2527 -0.2138
  830MOL0     C11941   9.220  10.485   6.382  0.4081  0.1602  0.2655
  830MOL0     C11942   9.083  10.482   6.416 -0.2179  0.3834 -0.0575
  830MOL0     C11943   9.014  10.361   6.406 -0.1975 -0.5851  0.3990
  830MOL0     C11944   8.869  10.353   6.449  0.0660 -0.1985  0.6011
  830MOL0     O11945   8.814  10.232   6.432 -0.1415  0.5602 -0.7865
  830MOL0     C11946   8.677  10.206   6.459 -0.6585 -0.3332  0.0890
  830MOL0     C11947   8.649  10.075   6.503  0.0330  0.1681  0.7500
  830MOL0     C11948   8.510  10.038   6.498  0.2394 -0.6342 -1.0078
  830MOL0     C11949   8.415  10.137   6.471 -0.1950 -0.9136 -0.2775
  830MOL0     O11950   8.291  10.087   6.466 -0.3924  0.0832  0.8180
  830MOL0     C11951   8.184  10.174   6.494 -0.1483 -0.1363  0.2633
  830MOL0     C11952   8.047  10.103   6.472  0.8096  0.2312  0.1984
  830MOL0     C11953   7.915  10.188   6.476 -0.2887 -0.6016  0.3274
  830MOL0     C11954   7.903  10.283   6.596  0.5471  0.0220  0.3285
  830MOL0     C11955   7.771  10.356   6.597 -0.4294 -0.2435  0.4783
  830MOL0     C11956   7.741  10.428   6.732  1.5009 -1.1882 -0.3863
  830MOL0     C11957   7.606  10.516   6.731  0.2042  0.7388  0.7819
  830MOL0     C11958   7.581  10.602   6.853  0.2551  0.2870 -0.3258
  830MOL0    Cl11959   7.596  10.495   7.008 -0.4863  0.2214  0.3181
  830MOL0     C11960   8.443  10.274   6.441 -0.9765 -0.2982 -0.0213
  830MOL0     C11961   8.575  10.298   6.423  0.0294 -0.4022 -0.6914
  830MOL0     O11962   8.820  10.458   6.489 -0.0339  0.6396  0.2621
  830MOL0     C11963   9.087  10.251   6.342 -0.3129 -0.3537  0.0310
  830MOL0     C11964   9.214  10.260   6.293  1.0224 -0.2897 -0.4546
  830MOL0     N11965   9.786  10.007   5.978  0.0963 -0.5092  0.4770
  830MOL0     N11966   9.761   9.925   5.882  0.1698 -0.5398  0.3534
  830MOL0     C11967   9.229   9.296   6.097  0.2079  0.0305 -0.1770
  830MOL0     C11968   9.327   9.218   6.162  0.4007 -0.2003  0.0714
  830MOL0     C11969   9.640   9.078   6.470  0.4775 -0.3287 -0.1419
  830MOL0     C11970   9.577   8.956   6.450 -0.5030  0.2611 -0.3959
  830MOL0     C11971   9.622   8.838   6.515 -0.2065  0.2604  0.5770
  830MOL0     C11972   9.732   8.838   6.602 -0.2268  0.1944 -0.1891
  830MOL0     O11973   9.788   8.725   6.661  0.0694  0.2926 -0.2478
  830MOL0     C11974   9.913   8.690   6.609 -0.6117 -0.2339 -0.0708
  830MOL0     C11975   9.932   8.625   6.469  1.0697  0.4782  0.5361
  830MOL0     C11976   9.825   8.507   6.436 -0.8778  1.5377  0.6721
  830MOL0     C11977   9.900   8.407   6.349 -0.2070  0.5542  0.2933
  830MOL0     C11978   9.829   8.280   6.322  0.4862  0.4525 -0.4106
  830MOL0     C11979   9.785   8.166   6.318  0.1955 -1.0407 -1.2075
  830MOL0     C11980   9.798   8.965   6.619  0.2522 -0.4597  0.3394
  830MOL0     C11981   9.745   9.080   6.566  0.8444  0.7976  0.3651
  830MOL0     C11982   9.812   9.209   6.604  0.8447 -0.1569  0.1418
  830MOL0     H11983   9.539   9.466   6.262  0.2918 -1.2685 -0.1346
  830MOL0     H11984   9.347   9.598   6.171  0.3286  0.4259 -4.4406
  830MOL0     H11985   9.234   9.451   5.864  0.6833 -1.1779  1.1435
  830MOL0     H11986   9.061   9.413   5.896  1.3545 -1.3018  0.0046
  830MOL0     H11987   9.005   9.660   5.892  0.4835  1.8532 -2.1700
  830MOL0     H11988   9.041   9.589   5.732  0.4741  1.1325 -0.8258
  830MOL0     H11989   9.272   9.718   5.895 -0.6282  2.4105  1.1671
  830MOL0     H11990   9.176   9.813   5.804  1.5218 -0.6553  1.1422
  830MOL0     H11991   9.317   9.570   5.689 -1.1591 -0.2764  0.9039
  830MOL0     H11992   9.247   9.690   5.597 -1.6518 -2.6420  0.7353
  830MOL0     H11993   9.498   9.743   5.780  1.0908  0.9550 -0.6403
  830MOL0     H11994   9.486   9.696   5.613 -3.0139 -2.0864 -1.1328
  830MOL0     H11995   9.330   9.927   5.609 -0.1650 -2.0772  1.0672
  830MOL0     H11996   9.397   9.943   5.760 -1.3224  0.6130 -0.4948
  830MOL0     H11997   9.530  10.082   5.619  2.2855  0.8545  0.4796
  830MOL0     H11998   9.531   9.966   5.488 -2.0814 -0.2400  0.1556
  830MOL0     H11999   9.692   9.835   5.645 -0.2764  0.1210  1.5211
  830MOL0     H12000   9.749   9.981   5.570 -1.9717  1.4722 -0.3251
  830MOL0     H12001   9.704  10.226   5.751  3.8157  0.7628  0.5952
  830MOL0     H12002   9.816  10.234   6.116  4.2383 -0.9193 -2.1520
  830MOL0     H12003   9.832  10.332   5.970 -1.0695 -0.8757 -2.2327
  830MOL0     H12004   9.649  10.421   6.111  1.9248  1.3470 -2.6450
  830MOL0     H12005   9.568  10.353   5.971 -1.2276 -0.5700  0.6397
  830MOL0     H12006   9.586  10.131   6.142  1.5940  1.7864 -0.0366
  830MOL0     H12007   9.446  10.212   6.078  0.8506 -3.8250 -1.6725
  830MOL0     H12008   9.606  10.296   6.333 -2.0032  3.0320  2.4414
  830MOL0     H12009   9.459  10.201   6.333  1.2357 -0.6342  0.4748
  830MOL0     H12010   9.283  10.573   6.397 -0.4032  0.4312  2.3623
  830MOL0     H12011   9.043  10.573   6.459  0.5073  0.5863  0.2009
  830MOL0     H12012   8.714   9.998   6.544 -1.9380 -1.7206  0.5370
  830MOL0     H12013   8.469   9.942   6.528 -2.1961  0.3687 -0.9194
  830MOL0     H12014   8.180  10.207   6.598 -0.0027 -0.7858  0.4812
  830MOL0     H12015   8.182  10.262   6.428  0.5885 -0.5882 -0.3894
  830MOL0     H12016   8.056  10.076   6.367  3.0512  1.9633 -0.1453
  830MOL0     H12017   8.032  10.019   6.541  0.0809 -1.7336 -2.2361
  830MOL0     H12018   7.913  10.248   6.385 -0.0491  1.4570  1.6209
  830MOL0     H12019   7.825  10.125   6.479 -1.3140  0.8325  2.1720
  830MOL0     H12020   7.987  10.353   6.607  0.5090  0.1636 -0.2289
  830MOL0     H12021   7.906  10.224   6.688 -4.3011  3.5747  3.2424
  830MOL0     H12022   7.694  10.281   6.578  1.3036 -1.7689 -0.8264
  830MOL0     H12023   7.760  10.428   6.515  0.0984  0.7255  1.2265
  830MOL0     H12024   7.733  10.348   6.806 -2.4538 -2.0313 -1.5054
  830MOL0     H12025   7.814  10.508   6.749  2.1766 -1.5794 -1.3434
  830MOL0     H12026   7.527  10.441   6.729 -1.6309  2.3379  4.3267
  830MOL0     H12027   7.597  10.564   6.632 -0.0616 -0.7076  0.0817
  830MOL0     H12028   7.642  10.693   6.855  1.2793 -0.3779 -0.4442
  830MOL0     H12029   7.478  10.639   6.852 -0.3143 -0.9961  1.8767
  830MOL0     H12030   8.377  10.355   6.412 -2.9142 -1.7731  0.0546
  830MOL0     H12031   8.586  10.401   6.391 -2.7329  0.3363  0.4322
  830MOL0     H12032   9.031  10.162   6.317  1.7287 -1.4069 -1.0146
  830MOL0     H12033   9.264  10.180   6.239 -0.2581  0.2132 -2.4508
  830MOL0     H12034   9.140   9.253   6.051 -1.4298 -0.3787  3.0937
  830MOL0     H12035   9.318   9.111   6.149 -0.5397 -0.1354  0.1214
  830MOL0     H12036   9.495   8.951   6.380  1.1218 -1.0347 -2.3377
  830MOL0     H12037   9.576   8.741   6.498  0.2911  0.2680 -0.8909
  830MOL0     H12038   9.957   8.628   6.688 -1.1063 -1.1173 -0.4636
  830MOL0     H12039   9.982   8.774   6.616  0.0374 -0.8798  3.4573
  830MOL0     H12040  10.035   8.589   6.458  1.1766  1.0722 -0.4959
  830MOL0     H12041   9.922   8.692   6.384  2.2249  0.2350  0.1891
  830MOL0     H12042   9.730   8.541   6.392 -1.4334 -1.0765 -0.3270
  830MOL0     H12043   9.797   8.456   6.529  0.1282 -1.6486 -0.6479
  830MOL0     H12044   9.945   8.459   6.264  0.4617  2.1440  1.5746
  830MOL0     H12045   9.981   8.375   6.415  0.0194 -3.8692 -1.7361
  830MOL0     H12046   9.761   8.063   6.334  1.7301 -1.0345  2.0095
  830MOL0     H12047   9.874   8.969   6.695 -0.6099 -1.0604  1.2511
  830MOL0     H12048   9.829   9.267   6.512 -1.4001  1.8601  0.8922
  830MOL0     H12049   9.748   9.267   6.671 -0.5485  0.0622 -1.2960
  830MOL0     H12050   9.907   9.190   6.654 -1.1307  0.5909  4.5942
  831MOL0     O12051   7.135  11.029   1.707  0.2587 -0.1791  0.3299
  831MOL0     C12052   7.161  10.917   1.754 -0.1778 -0.7033 -0.9637
  831MOL0     O12053   7.201  10.802   1.679  0.6033 -0.3762  0.4562
  831MOL0     C12054   7.281  10.827   1.563  0.3718  0.3698  0.1417
  831MOL0     C12055   7.248  10.759   1.444  0.0177  0.8096 -0.0548
  831MOL0     C12056   7.332  10.762   1.333  0.2021 -1.0099  0.9817
  831MOL0     C12057   7.440  10.851   1.322  1.1425 -0.4050 -0.2853
  831MOL0     O12058   7.505  10.860   1.202 -0.4330  0.4174  0.2245
  831MOL0     C12059   7.447  10.824   1.072  0.1061 -0.4004 -0.5208
  831MOL0     C12060   7.512  10.868   0.947 -0.9473 -0.0955 -0.6097
  831MOL0     C12061   7.548  11.016   0.956  0.4767  0.3547 -0.0989
  831MOL0     C12062   7.615  11.088   0.846  0.6893  0.6108  0.5573
  831MOL0     C12063   7.610  11.241   0.863  0.1553  0.1139 -0.2399
  831MOL0     C12064   7.642  11.315   0.735 -0.0335  0.8307 -0.0790
  831MOL0     C12065   7.515  11.328   0.655  0.3512  0.2266 -0.3043
  831MOL0     C12066   7.412  11.424   0.710 -0.7396  0.0180  0.2771
  831MOL0     N12067   7.303  11.413   0.607 -0.5675  0.3075 -0.0384
  831MOL0     C12068   7.199  11.332   0.617  0.3531  1.4819 -1.1825
  831MOL0     C12069   7.120  11.336   0.511  0.1262 -0.0845  0.5517
  831MOL0     C12070   6.992  11.255   0.484  0.6145  0.2340 -0.0523
  831MOL0     C12071   6.881  11.290   0.573 -0.3650 -0.2707 -0.0297
  831MOL0     C12072   6.745  11.268   0.500  0.3358 -1.1800  0.0048
  831MOL0     C12073   6.615  11.269   0.581  0.8547 -0.4643 -1.0625
  831MOL0     O12074   6.612  11.171   0.683  0.4051 -0.5761 -1.2373
  831MOL0     C12075   6.654  11.045   0.658 -1.0191  0.1778  0.4427
  831MOL0     C12076   6.616  10.970   0.543  0.7524  0.1969 -0.3807
  831MOL0     C12077   6.667  10.838   0.516 -0.1507  0.0931 -0.4501
  831MOL0     C12078   6.767  10.778   0.600  0.0560  0.7282 -0.1156
  831MOL0     C12079   6.822  10.647   0.583 -0.4340 -0.2657  0.3018
  831MOL0     O12080   6.795  10.589   0.459  0.2201 -0.3065 -0.3635
  831MOL0     C12081   6.843  10.464   0.435 -0.3193 -0.6640  0.2990
  831MOL0     C12082   6.978  10.439   0.410 -0.0243  0.2436  0.4767
  831MOL0     C12083   7.022  10.314   0.357 -0.1342  0.4110 -0.8522
  831MOL0     C12084   6.925  10.207   0.341 -0.2397 -0.2461 -0.0593
  831MOL0     O12085   6.945  10.093   0.284  0.4643  0.7082 -0.1050
  831MOL0     C12086   7.058  10.023   0.320  0.2297  1.0573 -0.1423
  831MOL0     C12087   7.041   9.901   0.226  0.4165  1.1060 -0.7428
  831MOL0     C12088   7.136   9.917   0.107 -0.9354 -0.2936 -0.2092
  831MOL0     C12089   7.112   9.810   0.002 -0.4222  1.0983 -0.2410
  831MOL0     C12090   7.171   9.845  -0.133  1.2294 -0.7211 -0.0603
  831MOL0     C12091   7.148   9.729  -0.239  0.6989 -0.5846  0.0298
  831MOL0     C12092   7.170   9.782  -0.382 -0.1372 -0.1852  0.7110
  831MOL0     C12093   7.054   9.742  -0.481 -0.0076 -0.4791  0.2355
  831MOL0    Cl12094   7.044   9.560  -0.510 -0.1416  0.6316 -0.0785
  831MOL0     C12095   6.794  10.233   0.381 -0.2559  0.7474 -0.0965
  831MOL0     C12096   6.751  10.356   0.426  0.1211  0.0713  0.9365
  831MOL0     O12097   6.876  10.588   0.673  0.3798  0.2911 -0.7798
  831MOL0     C12098   6.810  10.858   0.713 -0.3706 -0.0253  0.1833
  831MOL0     C12099   6.753  10.986   0.737 -0.6703  0.1499 -0.5279
  831MOL0     N12100   7.160  11.456   0.445 -0.1791  0.0823 -0.3024
  831MOL0     N12101   7.271  11.497   0.502 -0.3922 -0.0286  0.4037
  831MOL0     C12102   7.473  10.927   1.435 -0.5357  0.1934 -0.4520
  831MOL0     C12103   7.395  10.912   1.559 -0.8145  0.0824  0.2895
  831MOL0     C12104   7.119  10.895   1.894 -0.4386  0.1976  0.0121
  831MOL0     C12105   7.013  10.974   1.947 -0.0900 -0.6425  0.0218
  831MOL0     C12106   6.955  10.944   2.078  0.2774  0.3367 -0.3530
  831MOL0     C12107   6.992  10.828   2.133 -0.5677 -0.2721 -0.5791
  831MOL0     O12108   6.925  10.789   2.249  0.1400  0.2120  0.4750
  831MOL0     C12109   6.796  10.724   2.232 -1.3879 -0.5453 -0.0365
  831MOL0     C12110   6.807  10.587   2.297 -0.8719 -0.0057  0.1175
  831MOL0     C12111   6.914  10.491   2.237 -0.1545 -0.4834  0.2485
  831MOL0     C12112   6.897  10.343   2.287 -0.1163 -0.8843 -0.2366
  831MOL0     C12113   6.910  10.342   2.432 -0.5196 -0.1127 -0.2714
  831MOL0     C12114   6.906  10.349   2.553 -0.6009  0.1468 -0.0499
  831MOL0     C12115   7.094  10.751   2.088  0.1511  0.5200  0.1585
  831MOL0     C12116   7.163  10.784   1.969  0.2485 -0.0962  0.1451
  831MOL0     C12117   7.281  10.692   1.935  0.5422 -0.2977  0.2999
  831MOL0     H12118   7.155  10.705   1.460 -1.0073  3.1859  2.8284
  831MOL0     H12119   7.294  10.697   1.255 -2.6015 -0.4401  1.7681
  831MOL0     H12120   7.447  10.715   1.065  4.0333 -0.7232  1.3998
  831MOL0     H12121   7.349  10.870   1.084 -0.9106 -2.5717  0.0679
  831MOL0     H12122   7.440  10.840   0.870 -2.4181  1.0218  0.2808
  831MOL0     H12123   7.604  10.813   0.929 -0.2932  0.0532  1.8435
  831MOL0     H12124   7.618  11.038   1.037  2.0231 -0.9984 -0.9983
  831MOL0     H12125   7.452  11.066   0.972 -0.8170 -1.3488 -2.0666
  831MOL0     H12126   7.720  11.055   0.846  0.2721 -0.9316  2.6866
  831MOL0     H12127   7.564  11.065   0.752  1.6990  2.1486 -0.4203
  831MOL0     H12128   7.511  11.268   0.901  0.5715 -0.1034  1.0316
  831MOL0     H12129   7.684  11.275   0.936  0.1120  0.4924 -0.3671
  831MOL0     H12130   7.692  11.409   0.760 -1.6185  0.3526  6.5844
  831MOL0     H12131   7.715  11.252   0.683  2.5749 -0.1956  4.3194
  831MOL0     H12132   7.476  11.226   0.647  0.8932  0.0180 -0.3135
  831MOL0     H12133   7.549  11.356   0.555 -0.7813 -1.2758 -1.1726
  831MOL0     H12134   7.377  11.399   0.810  1.2190 -0.4849  0.8810
  831MOL0     H12135   7.460  11.522   0.715  0.7112 -0.6037 -0.7810
  831MOL0     H12136   7.172  11.261   0.695 -1.5269  3.0064 -0.3498
  831MOL0     H12137   6.971  11.285   0.381 -0.1124  1.2799  0.3755
  831MOL0     H12138   7.025  11.151   0.488  0.4073  0.2086  1.8935
  831MOL0     H12139   6.883  11.229   0.664  1.6805  1.2216  0.9959
  831MOL0     H12140   6.882  11.395   0.603  0.7241 -0.9060  2.4061
  831MOL0     H12141   6.762  11.174   0.446 -1.8661 -0.1771 -2.6876
  831MOL0     H12142   6.731  11.353   0.432  0.3252 -0.5157  0.8250
  831MOL0     H12143   6.530  11.257   0.514  0.5868  1.4205 -1.0913
  831MOL0     H12144   6.603  11.372   0.616 -1.1833 -1.3048  1.0102
  831MOL0     H12145   6.564  11.002   0.453 -1.2472 -1.0602  0.2598
  831MOL0     H12146   6.619  10.803   0.425 -0.8341  1.7288 -0.7653
  831MOL0     H12147   7.043  10.525   0.415  0.7551 -0.3577  0.9383
  831MOL0     H12148   7.125  10.301   0.327 -1.1488 -3.7740 -3.3090
  831MOL0     H12149   7.155  10.069   0.297  1.7191 -0.8208  1.9013
  831MOL0     H12150   7.051   9.999   0.427  0.4017  1.3107 -0.0710
  831MOL0     H12151   7.071   9.813   0.284 -0.3954  0.1146 -1.8066
  831MOL0     H12152   6.936   9.889   0.198  0.9680 -0.5876 -2.2757
  831MOL0     H12153   7.100  10.009   0.059 -0.4917  0.2592  0.5141
  831MOL0     H12154   7.242   9.932   0.129 -0.3586 -1.2626 -2.0698
  831MOL0     H12155   7.006   9.790  -0.012 -1.1249  2.0505  2.7746
  831MOL0     H12156   7.161   9.723   0.047 -1.1604  2.1448  2.8742
  831MOL0     H12157   7.278   9.862  -0.123  1.3777 -0.8837 -1.2482
  831MOL0     H12158   7.109   9.932  -0.158 -0.8201 -1.3914  2.2839
  831MOL0     H12159   7.197   9.632  -0.231  0.0100 -0.9342  0.0779
  831MOL0     H12160   7.042   9.705  -0.224  0.8533 -0.6930  1.0293
  831MOL0     H12161   7.263   9.747  -0.427 -0.0194 -0.6131  1.2833
  831MOL0     H12162   7.191   9.889  -0.380  0.6451 -0.2952 -0.4899
  831MOL0     H12163   6.970   9.796  -0.437 -1.1776 -3.1534  1.5493
  831MOL0     H12164   7.067   9.793  -0.576 -1.8354  0.6947  0.5768
  831MOL0     H12165   6.719  10.155   0.371 -0.0372  0.7475 -2.4345
  831MOL0     H12166   6.649  10.374   0.458  0.0741 -0.8743  1.3325
  831MOL0     H12167   6.884  10.816   0.781 -2.1985 -2.0342  1.0214
  831MOL0     H12168   6.784  11.043   0.824 -0.2029 -2.1796  0.9247
  831MOL0     H12169   7.553  11.000   1.430 -0.3264 -0.0080 -0.1545
  831MOL0     H12170   7.428  10.971   1.644  1.3420 -1.4275  0.5665
  831MOL0     H12171   6.979  11.061   1.893  0.8249  0.5076  1.2428
  831MOL0     H12172   6.879  11.017   2.105  1.9742  2.0034  0.1262
  831MOL0     H12173   6.773  10.711   2.126  0.9736  3.8786 -1.3062
  831MOL0     H12174   6.717  10.793   2.264  0.7973  0.7298  3.1092
  831MOL0     H12175   6.712  10.534   2.288 -0.9288  0.0968  0.1098
  831MOL0     H12176   6.820  10.604   2.405 -1.8011  3.0683 -0.1588
  831MOL0     H12177   7.017  10.524   2.252  0.5766 -1.4579 -2.2482
  831MOL0     H12178   6.902  10.496   2.129  0.9083  1.8810  0.1646
  831MOL0     H12179   6.805  10.299   2.250  0.8144 -3.0552 -0.1390
  831MOL0     H12180   6.980  10.285   2.246  1.8997  1.0487  0.8789
  831MOL0     H12181   6.902  10.351   2.660  2.9085  0.6957  0.1730
  831MOL0     H12182   7.131  10.664   2.141  0.5340 -1.5880 -3.2425
  831MOL0     H12183   7.367  10.751   1.901  1.0890 -1.7541 -0.9689
  831MOL0     H12184   7.312  10.649   2.031 -0.9484  2.0042  1.9207
  831MOL0     H12185   7.263  10.614   1.861  2.3323  0.8393 -1.4496
  832MOL0     O12186  10.901   9.710   1.303  0.8200 -0.4566  0.0232
  832MOL0     C12187  10.873   9.624   1.387  0.0678 -0.2360 -0.1292
  832MOL0     O12188  10.896   9.641   1.523  0.2609 -0.9656  0.2812
  832MOL0     C12189  10.982   9.743   1.559 -0.4031 -0.6913 -0.5762
  832MOL0     C12190  11.120   9.733   1.568  0.4434 -0.3506 -0.2243
  832MOL0     C12191  11.200   9.845   1.588  0.5352  1.0684  0.3512
  832MOL0     C12192  11.141   9.977   1.594 -0.2279  0.1422  1.3240
  832MOL0     O12193  11.226  10.083   1.610 -1.0544  0.0763  0.2728
  832MOL0     C12194  11.185  10.214   1.584  0.2909 -0.3245  0.3279
  832MOL0     C12195  11.308  10.295   1.544 -0.3841  0.2926 -1.4875
  832MOL0     C12196  11.424  10.276   1.649  0.3941 -0.0851 -0.2351
  832MOL0     C12197  11.540  10.374   1.608 -0.1369 -1.5570 -0.0037
  832MOL0     C12198  11.662  10.355   1.695  0.9162 -0.1815  0.0079
  832MOL0     C12199  11.747  10.483   1.697  0.1679  0.2226 -0.1932
  832MOL0     C12200  11.870  10.456   1.786 -0.3299  0.5963  0.8291
  832MOL0     C12201  11.833  10.471   1.933  0.2838 -0.4629 -0.4440
  832MOL0     N12202  11.791  10.608   1.967 -0.2460  0.1077  0.1889
  832MOL0     C12203  11.732  10.638   2.088  1.0586 -0.8133 -0.7202
  832MOL0     C12204  11.719  10.767   2.092 -0.0669 -0.0236 -0.8318
  832MOL0     C12205  11.656  10.842   2.206  0.8664 -1.0751  0.4359
  832MOL0     C12206  11.733  10.953   2.267 -0.5578 -0.5788 -0.5446
  832MOL0     C12207  11.876  10.924   2.310 -0.1196 -0.1746  0.6388
  832MOL0     C12208  11.978  11.000   2.225 -0.7735  0.5403 -0.4929
  832MOL0     O12209  12.110  11.000   2.288 -0.3723 -0.8498  0.5061
  832MOL0     C12210  12.146  11.106   2.370  0.2682  0.1192 -0.3437
  832MOL0     C12211  12.048  11.180   2.439  0.4296  0.5918 -0.0679
  832MOL0     C12212  12.084  11.283   2.520 -0.2812 -0.2565 -0.0843
  832MOL0     C12213  12.218  11.321   2.544 -0.2975  0.5870 -0.7996
  832MOL0     C12214  12.253  11.417   2.654 -0.2939 -0.0898 -0.5295
  832MOL0     O12215  12.390  11.438   2.679 -0.1464  0.1771  0.5364
  832MOL0     C12216  12.424  11.546   2.756 -0.2262  0.0917  0.3587
  832MOL0     C12217  12.468  11.499   2.879 -0.6124 -0.2854  0.9382
  832MOL0     C12218  12.497  11.593   2.976 -1.0898  0.0385 -1.6533
  832MOL0     C12219  12.475  11.724   2.959  0.8722 -0.0670 -0.1350
  832MOL0     O12220  12.498  11.806   3.068  0.2237 -0.0268  0.3393
  832MOL0     C12221  12.488  11.942   3.046  0.5356 -1.4865  0.5410
  832MOL0     C12222  12.556  12.024   3.164  0.4184 -0.3107 -0.2869
  832MOL0     C12223  12.703  11.987   3.187  0.0977  0.5215 -0.4079
  832MOL0     C12224  12.765  12.075   3.291  0.7147  0.0073  0.0824
  832MOL0     C12225  12.916  12.055   3.310  0.2115  0.3060 -0.0081
  832MOL0     C12226  12.967  12.170   3.403  0.3818 -0.3235  0.1127
  832MOL0     C12227  13.124  12.162   3.426 -0.5541  0.5588 -0.0070
  832MOL0     C12228  13.184  12.297   3.484  0.9046 -0.0703 -0.2550
  832MOL0    Cl12229  13.087  12.351   3.622 -0.6466  0.3378 -0.0185
  832MOL0     C12230  12.417  11.773   2.833  0.2321  0.8667  1.0747
  832MOL0     C12231  12.393  11.677   2.732 -0.1746  0.0354  0.2998
  832MOL0     O12232  12.162  11.467   2.723 -0.5708  0.4198  0.1741
  832MOL0     C12233  12.319  11.251   2.481  1.1758  0.2426  0.8797
  832MOL0     C12234  12.285  11.142   2.396  0.1200  0.8071 -0.0999
  832MOL0     N12235  11.778  10.822   1.976  0.7306 -0.4647  0.8831
  832MOL0     N12236  11.800  10.725   1.898  0.0218  0.3285  0.7293
  832MOL0     C12237  11.006   9.990   1.574  0.0220  1.2224 -0.4256
  832MOL0     C12238  10.932   9.873   1.556 -0.5965  0.2102  0.3075
  832MOL0     C12239  10.824   9.495   1.348  0.4290  0.3688 -0.3054
  832MOL0     C12240  10.898   9.377   1.376  0.0061 -0.0718 -1.0642
  832MOL0     C12241  10.839   9.253   1.353 -0.3972 -0.6827 -0.1921
  832MOL0     C12242  10.731   9.244   1.271  0.2536 -0.2243 -1.0164
  832MOL0     O12243  10.660   9.124   1.245 -0.4105 -0.8112 -0.1918
  832MOL0     C12244  10.677   9.019   1.333 -0.2536  1.5441 -0.4197
  832MOL0     C12245  10.580   8.912   1.300 -0.6160  0.5362 -0.4305
  832MOL0     C12246  10.591   8.819   1.423 -0.8955  0.6701 -1.0381
  832MOL0     C12247  10.519   8.682   1.407  0.8054  0.0664  0.0607
  832MOL0     C12248  10.538   8.581   1.521 -0.6013 -1.1058  0.8419
  832MOL0     C12249  10.571   8.497   1.599 -0.1477 -0.7266  0.0192
  832MOL0     C12250  10.660   9.362   1.221 -0.0552 -0.1445 -0.0433
  832MOL0     C12251  10.709   9.488   1.269  0.8057  0.3687 -0.0035
  832MOL0     C12252  10.629   9.620   1.242 -0.3817  0.8150 -0.3521
  832MOL0     H12253  11.170   9.638   1.553 -1.4815 -1.7744  1.6370
  832MOL0     H12254  11.307   9.825   1.579  0.1529 -0.8936 -0.1387
  832MOL0     H12255  11.116  10.216   1.500 -2.0351 -2.1284  2.0430
  832MOL0     H12256  11.147  10.261   1.675  2.9460  0.3658  1.1724
  832MOL0     H12257  11.277  10.400   1.539 -1.0631  0.2792  1.1019
  832MOL0     H12258  11.347  10.259   1.448 -1.4633  0.3891 -1.9701
  832MOL0     H12259  11.457  10.173   1.667  1.7207  0.7709  2.8909
  832MOL0     H12260  11.384  10.306   1.746  0.0289  1.2254 -0.7694
  832MOL0     H12261  11.565  10.354   1.504 -2.7375 -1.2497 -0.7566
  832MOL0     H12262  11.511  10.479   1.600  1.1148 -1.3338 -2.3981
  832MOL0     H12263  11.625  10.347   1.798  0.8679  1.7018  0.1642
  832MOL0     H12264  11.718  10.262   1.684  1.6171  0.4056 -1.6830
  832MOL0     H12265  11.780  10.496   1.593  0.3346 -2.1223 -0.4837
  832MOL0     H12266  11.694  10.575   1.722 -0.8880 -0.3047 -0.4222
  832MOL0     H12267  11.947  10.531   1.765 -1.9562  1.8027 -1.1515
  832MOL0     H12268  11.916  10.358   1.773  2.8324  2.1255 -0.9255
  832MOL0     H12269  11.747  10.406   1.955 -1.7784  1.7624 -1.4282
  832MOL0     H12270  11.920  10.441   1.991 -1.9662 -0.9415  2.9810
  832MOL0     H12271  11.712  10.576   2.175  1.3926 -0.6048 -0.4951
  832MOL0     H12272  11.560  10.882   2.172  0.9332 -0.5709  0.8207
  832MOL0     H12273  11.636  10.772   2.288  0.2041 -2.0532 -0.5336
  832MOL0     H12274  11.729  11.045   2.208  2.2771 -1.3647 -2.1552
  832MOL0     H12275  11.677  10.990   2.354 -0.2385  1.4120 -1.1443
  832MOL0     H12276  11.885  10.815   2.308 -1.8964 -0.3461  0.0553
  832MOL0     H12277  11.900  10.960   2.410  0.1711  2.5724 -0.3388
  832MOL0     H12278  11.928  11.097   2.214  0.6155  1.6798  2.2627
  832MOL0     H12279  11.979  10.953   2.126 -3.6144  2.5900 -1.6386
  832MOL0     H12280  11.942  11.166   2.424 -0.0417  2.2480  1.3200
  832MOL0     H12281  12.004  11.336   2.571 -1.4723 -1.3198 -0.7643
  832MOL0     H12282  12.510  11.399   2.874  0.9553  0.2478  2.4205
  832MOL0     H12283  12.544  11.560   3.068 -0.4568 -0.1707 -2.0479
  832MOL0     H12284  12.542  11.974   2.956  0.3697 -1.7882  0.3314
  832MOL0     H12285  12.382  11.970   3.037  0.9643  0.5346  1.3973
  832MOL0     H12286  12.546  12.133   3.155 -0.4851 -0.1326  2.1459
  832MOL0     H12287  12.494  12.008   3.252 -2.7551  0.9461 -2.1225
  832MOL0     H12288  12.715  11.887   3.230 -1.8215  0.4572  0.0717
  832MOL0     H12289  12.760  11.992   3.094  0.1460  3.2637 -0.2999
  832MOL0     H12290  12.718  12.081   3.389  1.7072 -0.9039  0.6442
  832MOL0     H12291  12.749  12.175   3.249  0.4160 -0.4061 -0.8265
  832MOL0     H12292  12.975  12.055   3.218  0.1787 -2.0225 -0.0847
  832MOL0     H12293  12.918  11.955   3.355 -2.7458  0.8131  1.5071
  832MOL0     H12294  12.940  12.268   3.362 -1.7856 -0.8786  0.0949
  832MOL0     H12295  12.918  12.174   3.501  1.7960 -0.9003  0.8638
  832MOL0     H12296  13.186  12.142   3.337  0.0420 -0.8854  0.7044
  832MOL0     H12297  13.136  12.080   3.497  1.5654 -1.0109 -1.9848
  832MOL0     H12298  13.285  12.282   3.525 -0.6524  1.3210  4.8318
  832MOL0     H12299  13.180  12.368   3.401 -0.8729 -0.0140 -0.1510
  832MOL0     H12300  12.408  11.876   2.800  0.6322  0.2419 -1.1122
  832MOL0     H12301  12.361  11.702   2.631  1.4097 -1.8073 -0.7257
  832MOL0     H12302  12.423  11.277   2.499  1.5732 -0.1460 -0.7640
  832MOL0     H12303  12.362  11.097   2.335 -0.0639  1.4295 -0.8140
  832MOL0     H12304  10.953  10.084   1.574 -2.5855 -0.1451 -1.0851
  832MOL0     H12305  10.827   9.895   1.537  0.1771  4.3901  0.1108
  832MOL0     H12306  10.996   9.389   1.419 -0.1213  3.1683 -1.3644
  832MOL0     H12307  10.885   9.163   1.394  2.8779  0.9864  0.2005
  832MOL0     H12308  10.665   9.056   1.436 -1.9722 -0.0392  0.0074
  832MOL0     H12309  10.777   8.975   1.345  0.6081  3.8199  2.0843
  832MOL0     H12310  10.621   8.858   1.214  0.4499  1.2519 -0.3892
  832MOL0     H12311  10.477   8.940   1.276 -1.0463  0.6107  1.3305
  832MOL0     H12312  10.540   8.856   1.513 -0.5878 -1.5953  0.1472
  832MOL0     H12313  10.695   8.787   1.436 -1.1116  0.3557 -0.0042
  832MOL0     H12314  10.411   8.696   1.394  0.9764  1.3465 -0.1071
  832MOL0     H12315  10.550   8.634   1.315 -1.4824 -1.8261  0.1941
  832MOL0     H12316  10.606   8.419   1.663  0.6114  0.4081  1.0237
  832MOL0     H12317  10.567   9.356   1.164 -0.2822  0.1297  0.2981
  832MOL0     H12318  10.687   9.685   1.175 -0.0272  0.6367 -0.2237
  832MOL0     H12319  10.543   9.581   1.189  0.4019 -0.9458 -0.3833
  832MOL0     H12320  10.600   9.662   1.339  0.1498  0.3832 -0.0009
  833MOL0     O12321   6.919   1.677   1.211 -0.2537  0.1859 -0.0349
  833MOL0     C12322   6.868   1.748   1.303 -0.3702 -0.1384 -0.3778
  833MOL0     O12323   6.778   1.710   1.388 -0.5845  0.0818 -0.3543
  833MOL0     C12324   6.731   1.579   1.387 -0.1567  0.2694 -0.0080
  833MOL0     C12325   6.770   1.482   1.478  0.6961 -0.7782 -0.9276
  833MOL0     C12326   6.723   1.357   1.463  0.6940  0.4678 -0.1851
  833MOL0     C12327   6.624   1.317   1.368  0.0993  0.6265  0.4670
  833MOL0     O12328   6.591   1.192   1.331  1.0318 -0.2984  0.3540
  833MOL0     C12329   6.640   1.083   1.407 -0.5376  0.0973  0.3074
  833MOL0     C12330   6.564   0.949   1.371  0.7183 -0.2127 -0.1210
  833MOL0     C12331   6.572   0.917   1.216 -0.4657 -0.3252 -0.1628
  833MOL0     C12332   6.544   0.762   1.198  0.0277 -0.7947  0.3753
  833MOL0     C12333   6.559   0.718   1.053  0.4973  0.3913  1.3515
  833MOL0     C12334   6.563   0.561   1.021 -0.9126 -0.1737  0.0776
  833MOL0     C12335   6.453   0.481   1.102 -0.3272  0.1767  0.1564
  833MOL0     C12336   6.306   0.493   1.052  0.4901 -0.7328 -0.8940
  833MOL0     N12337   6.208   0.434   1.142 -0.1746 -0.4403  0.6312
  833MOL0     C12338   6.202   0.294   1.161  0.4018 -0.4297 -0.2263
  833MOL0     C12339   6.102   0.275   1.251  0.0720  0.7187  0.1620
  833MOL0     C12340   6.032   0.158   1.321  1.1968 -0.4807  1.2848
  833MOL0     C12341   5.935   0.102   1.211  0.0466 -0.9920  0.8390
  833MOL0     C12342   5.807   0.180   1.200 -0.7644  0.2644  0.2141
  833MOL0     C12343   5.735   0.135   1.074  0.2986  0.7197  0.1114
  833MOL0     O12344   5.672   0.009   1.100  0.7091  0.4161  0.5991
  833MOL0     C12345   5.586  -0.034   0.997  0.4634 -0.1042  0.7997
  833MOL0     C12346   5.515  -0.150   1.027 -1.2013  0.2916 -0.0022
  833MOL0     C12347   5.413  -0.207   0.949  0.0967  0.4488 -0.9024
  833MOL0     C12348   5.387  -0.150   0.826 -0.6474  0.0660 -0.3891
  833MOL0     C12349   5.282  -0.210   0.721 -0.5261 -0.1223 -0.4205
  833MOL0     O12350   5.239  -0.333   0.753 -0.1624 -0.9013  0.6704
  833MOL0     C12351   5.149  -0.409   0.684  0.6386  0.4290  0.6901
  833MOL0     C12352   5.137  -0.409   0.546 -0.2085 -0.0014 -0.5372
  833MOL0     C12353   5.055  -0.496   0.475 -0.0344  0.3783 -0.1987
  833MOL0     C12354   4.955  -0.568   0.542 -0.0757 -0.8648  0.1797
  833MOL0     O12355   4.873  -0.648   0.474  0.4445  0.2866  0.9314
  833MOL0     C12356   4.821  -0.598   0.348 -0.7911 -0.0469 -0.3022
  833MOL0     C12357   4.703  -0.681   0.315  0.8785  0.2504 -0.2372
  833MOL0     C12358   4.589  -0.685   0.426  0.7969  0.6342 -0.3241
  833MOL0     C12359   4.504  -0.802   0.388  0.4241  0.5626  0.8064
  833MOL0     C12360   4.384  -0.814   0.484 -0.2290 -0.2937 -1.3139
  833MOL0     C12361   4.367  -0.958   0.525  0.1311 -0.4294 -0.7226
  833MOL0     C12362   4.250  -0.976   0.627  0.1336 -0.5753 -0.9784
  833MOL0     C12363   4.125  -1.044   0.578 -0.1192 -1.0889 -0.0091
  833MOL0    Cl12364   4.084  -0.962   0.419 -0.1996 -0.2288  0.1105
  833MOL0     C12365   4.953  -0.557   0.682  0.4043  0.1325 -0.2939
  833MOL0     C12366   5.048  -0.484   0.747  0.4901 -0.3367 -0.0114
  833MOL0     O12367   5.238  -0.140   0.631 -0.4751  0.2656  0.4092
  833MOL0     C12368   5.464  -0.042   0.773  0.6878  0.0741 -0.2096
  833MOL0     C12369   5.560   0.015   0.863 -0.9855  0.6048  1.3246
  833MOL0     N12370   6.037   0.393   1.281 -0.4928  0.6077  0.8800
  833MOL0     N12371   6.108   0.486   1.215 -0.0342 -0.1690  0.5815
  833MOL0     C12372   6.592   1.409   1.275 -0.2880 -1.2899 -0.4076
  833MOL0     C12373   6.641   1.542   1.283  0.4390 -0.1311  0.1221
  833MOL0     C12374   6.933   1.878   1.312 -0.1312  0.3503  0.3777
  833MOL0     C12375   7.056   1.913   1.253 -0.6014 -0.5229 -0.1022
  833MOL0     C12376   7.127   2.034   1.271 -0.0240  0.2027 -0.0961
  833MOL0     C12377   7.070   2.138   1.348 -0.6802  0.3972 -1.0932
  833MOL0     O12378   7.131   2.254   1.381 -1.1241  0.1067 -0.0139
  833MOL0     C12379   7.224   2.312   1.280  0.2505  0.3907 -0.7851
  833MOL0     C12380   7.219   2.463   1.282  0.0624  0.3315 -0.2641
  833MOL0     C12381   7.282   2.535   1.153  0.0970  1.0208 -0.7646
  833MOL0     C12382   7.241   2.681   1.151 -0.2442  0.2586  0.2695
  833MOL0     C12383   7.256   2.741   1.283 -0.9016 -0.4768  0.1949
  833MOL0     C12384   7.269   2.795   1.392  0.3999 -0.0773  0.9173
  833MOL0     C12385   6.955   2.104   1.416  0.0225 -0.3766 -0.3965
  833MOL0     C12386   6.887   1.979   1.408  0.2700  0.2985  0.5322
  833MOL0     C12387   6.754   1.981   1.472 -1.0860 -0.2258 -0.0931
  833MOL0     H12388   6.850   1.508   1.547  2.1416 -3.7887 -1.3062
  833MOL0     H12389   6.760   1.287   1.538  0.4726  0.0066 -0.5056
  833MOL0     H12390   6.748   1.075   1.389 -0.5795  1.4560 -0.6233
  833MOL0     H12391   6.626   1.112   1.511  4.4417  1.4063  0.8431
  833MOL0     H12392   6.458   0.958   1.397  0.3926 -0.6477 -1.2468
  833MOL0     H12393   6.616   0.876   1.434 -0.8624 -2.1277 -0.9285
  833MOL0     H12394   6.676   0.942   1.192  0.0417  0.6112  2.7113
  833MOL0     H12395   6.499   0.976   1.160 -0.7513 -1.9967 -1.6671
  833MOL0     H12396   6.624   0.705   1.247 -0.1489 -1.8505 -0.5153
  833MOL0     H12397   6.446   0.738   1.240 -0.3585  0.5349  0.2875
  833MOL0     H12398   6.475   0.761   0.997 -0.8960 -1.4756  1.8860
  833MOL0     H12399   6.647   0.763   1.006 -0.6413  0.7093 -0.6035
  833MOL0     H12400   6.546   0.539   0.915  1.5003  2.1730 -0.8831
  833MOL0     H12401   6.667   0.529   1.033  0.3727  3.1189 -1.1604
  833MOL0     H12402   6.461   0.501   1.209  0.3550  1.7121 -0.1476
  833MOL0     H12403   6.488   0.378   1.091  1.9676  0.6856  1.7778
  833MOL0     H12404   6.286   0.600   1.043  0.9132 -0.5230  0.4510
  833MOL0     H12405   6.302   0.451   0.951 -0.9853  0.6694 -1.4597
  833MOL0     H12406   6.273   0.221   1.125  1.4558 -0.0363  0.9565
  833MOL0     H12407   6.101   0.080   1.353  2.2390 -1.8385 -3.4972
  833MOL0     H12408   5.982   0.193   1.412  3.1549  1.8793  1.5529
  833MOL0     H12409   5.990   0.101   1.116  0.1505  0.3373  0.8780
  833MOL0     H12410   5.909  -0.001   1.237 -0.2339 -0.8580  1.0933
  833MOL0     H12411   5.840   0.284   1.191  2.2424 -0.8158 -4.1219
  833MOL0     H12412   5.734   0.165   1.280 -0.5577 -1.0139  0.1700
  833MOL0     H12413   5.795   0.138   0.982 -1.1256  2.5095 -0.8414
  833MOL0     H12414   5.653   0.203   1.049  0.0758  1.4388  2.5414
  833MOL0     H12415   5.544  -0.193   1.123  2.1573  1.2917 -0.4267
  833MOL0     H12416   5.370  -0.298   0.989  0.1982 -0.5186 -2.8910
  833MOL0     H12417   5.211  -0.345   0.498  2.3899 -1.8499  0.7164
  833MOL0     H12418   5.061  -0.479   0.368  2.2475  1.2472  0.0040
  833MOL0     H12419   4.784  -0.496   0.359  1.7600  0.8255  0.9312
  833MOL0     H12420   4.898  -0.594   0.271 -1.2690 -0.4140 -0.8050
  833MOL0     H12421   4.656  -0.648   0.221 -0.0252 -0.4950 -0.0690
  833MOL0     H12422   4.747  -0.780   0.308 -0.6086 -0.3453 -2.0859
  833MOL0     H12423   4.626  -0.708   0.527  0.8176  1.1222 -0.2186
  833MOL0     H12424   4.538  -0.589   0.428  1.3046  0.9039 -0.0675
  833MOL0     H12425   4.567  -0.890   0.398  0.4582  0.7788  2.8819
  833MOL0     H12426   4.472  -0.803   0.283  3.0017 -0.0986 -0.0355
  833MOL0     H12427   4.298  -0.776   0.429 -0.2794  1.8668  0.1679
  833MOL0     H12428   4.401  -0.765   0.580  0.9803 -2.1578 -0.5247
  833MOL0     H12429   4.338  -1.019   0.439 -2.2197  2.3737 -2.0732
  833MOL0     H12430   4.459  -0.998   0.570  2.2414  3.5065 -1.1009
  833MOL0     H12431   4.216  -0.880   0.665 -0.3548 -0.7450 -0.9721
  833MOL0     H12432   4.297  -1.019   0.716  1.5736  0.7679 -1.0447
  833MOL0     H12433   4.153  -1.148   0.563  3.4321 -0.1762 -0.7019
  833MOL0     H12434   4.041  -1.040   0.648  0.0454 -1.6887  0.2223
  833MOL0     H12435   4.872  -0.607   0.734 -1.1661  1.6240 -1.1750
  833MOL0     H12436   5.036  -0.490   0.855  0.9877 -1.4732 -0.0076
  833MOL0     H12437   5.458   0.006   0.676 -0.6499  1.1497  0.3679
  833MOL0     H12438   5.608   0.110   0.842 -3.0174  1.4145  0.1460
  833MOL0     H12439   6.519   1.375   1.203  1.8349 -2.1849 -2.2826
  833MOL0     H12440   6.608   1.611   1.205  1.2642 -2.3050 -2.3196
  833MOL0     H12441   7.106   1.838   1.192 -0.5160 -0.3655 -0.2241
  833MOL0     H12442   7.228   2.043   1.235 -0.3548 -1.8107 -1.7274
  833MOL0     H12443   7.189   2.273   1.184 -0.1990  2.9548 -1.7411
  833MOL0     H12444   7.325   2.276   1.299  0.1767  0.9637  0.8607
  833MOL0     H12445   7.260   2.498   1.377 -1.7249  2.2037 -0.0932
  833MOL0     H12446   7.114   2.494   1.279 -0.4922 -1.4156 -0.0214
  833MOL0     H12447   7.255   2.481   1.063 -0.6060 -2.4716  1.3544
  833MOL0     H12448   7.389   2.528   1.173 -0.3230 -0.4942  1.2215
  833MOL0     H12449   7.297   2.738   1.075 -1.9939 -0.8302 -1.9508
  833MOL0     H12450   7.137   2.696   1.121 -1.4022  0.0748  3.7397
  833MOL0     H12451   7.272   2.855   1.481  0.3385  0.7742  0.3572
  833MOL0     H12452   6.920   2.180   1.485 -0.4157 -1.4070  0.5504
  833MOL0     H12453   6.762   1.904   1.549  3.0889 -0.0557 -0.1526
  833MOL0     H12454   6.716   2.079   1.503  0.0768 -0.0987  1.0017
  833MOL0     H12455   6.685   1.943   1.395 -3.1853  2.3284  0.3528
  834MOL0     O12456   3.547   1.789   8.392  0.5600  0.5454 -0.1141
  834MOL0     C12457   3.627   1.706   8.352  0.4110 -0.9854 -0.9014
  834MOL0     O12458   3.611   1.566   8.352  0.2970 -0.8730 -0.1837
  834MOL0     C12459   3.503   1.510   8.418  0.2467  0.2386 -0.9546
  834MOL0     C12460   3.449   1.387   8.375  0.6327  1.0066 -0.7289
  834MOL0     C12461   3.345   1.320   8.442 -0.0845  0.3840  0.2679
  834MOL0     C12462   3.302   1.371   8.568  0.0401 -0.6384  0.7312
  834MOL0     O12463   3.205   1.306   8.642  0.1764 -0.0123 -0.2364
  834MOL0     C12464   3.221   1.159   8.647  0.5428 -0.2962 -0.7510
  834MOL0     C12465   3.194   1.097   8.783 -0.3755  0.7741  0.3612
  834MOL0     C12466   3.286   1.141   8.906  0.1179  0.2488  0.3103
  834MOL0     C12467   3.263   1.065   9.028 -0.1168 -0.0957 -0.3371
  834MOL0     C12468   3.137   1.118   9.106  0.3589 -0.6301 -0.7831
  834MOL0     C12469   3.140   1.054   9.245 -0.2423 -0.1534  0.6137
  834MOL0     C12470   3.007   1.087   9.319 -0.8460 -0.0241  0.5889
  834MOL0     C12471   3.024   1.067   9.469  0.0266  0.0588  0.5320
  834MOL0     N12472   3.076   0.932   9.498 -0.5279  0.1255 -0.3388
  834MOL0     C12473   3.194   0.895   9.555 -0.0865  1.0987  0.7937
  834MOL0     C12474   3.197   0.758   9.529 -0.1854 -0.4596 -0.0282
  834MOL0     C12475   3.316   0.666   9.552 -0.1958 -0.3906  0.4903
  834MOL0     C12476   3.324   0.551   9.449  0.4824  0.4764 -0.1051
  834MOL0     C12477   3.388   0.420   9.489  0.1726 -0.2374 -0.0777
  834MOL0     C12478   3.535   0.445   9.516 -0.8429 -1.2652  0.6870
  834MOL0     O12479   3.598   0.321   9.552  0.3459 -0.5690  0.0674
  834MOL0     C12480   3.571   0.280   9.684  0.5171 -0.1843 -0.4683
  834MOL0     C12481   3.489   0.169   9.716  0.0004 -0.8366  0.2575
  834MOL0     C12482   3.477   0.123   9.850  1.6001  0.5986  0.0059
  834MOL0     C12483   3.549   0.180   9.953 -0.2574 -0.0503  0.3748
  834MOL0     C12484   3.526   0.131  10.096 -0.6233  0.5537  0.1618
  834MOL0     O12485   3.438   0.024  10.125 -0.0341 -0.1717  0.0806
  834MOL0     C12486   3.421  -0.045  10.242 -0.0258 -0.1891  0.1442
  834MOL0     C12487   3.482  -0.023  10.368  0.1091 -0.6598  0.1542
  834MOL0     C12488   3.457  -0.103  10.477  0.0409  0.5731  0.1639
  834MOL0     C12489   3.361  -0.207  10.476  0.6365  0.6164 -0.8992
  834MOL0     O12490   3.312  -0.278  10.587  0.8372 -0.3357  0.2078
  834MOL0     C12491   3.382  -0.262  10.711  0.0172 -0.1251 -0.6017
  834MOL0     C12492   3.298  -0.354  10.802  0.4251  0.0055 -0.4978
  834MOL0     C12493   3.288  -0.295  10.948  0.0206  1.0609  0.2701
  834MOL0     C12494   3.234  -0.400  11.045 -0.3469 -0.3892 -0.1374
  834MOL0     C12495   3.255  -0.350  11.193  0.6836 -0.0765 -0.9500
  834MOL0     C12496   3.160  -0.240  11.238 -0.0130  0.6616 -0.6019
  834MOL0     C12497   3.177  -0.189  11.391  0.0727  0.3773 -0.0398
  834MOL0     C12498   3.069  -0.105  11.434  0.6318 -0.3933 -0.2389
  834MOL0    Cl12499   2.923  -0.207  11.434  0.3814 -0.3235 -0.3864
  834MOL0     C12500   3.312  -0.238  10.353  0.4011 -0.4179  0.1650
  834MOL0     C12501   3.339  -0.151  10.236  0.5146 -0.0991 -0.6219
  834MOL0     O12502   3.589   0.197  10.183 -0.3425 -0.4669 -0.1156
  834MOL0     C12503   3.637   0.281   9.925 -0.9751 -1.2396 -0.0949
  834MOL0     C12504   3.651   0.331   9.792 -0.3966  0.7984 -0.1014
  834MOL0     N12505   3.071   0.717   9.479 -0.4354  0.6096 -1.0372
  834MOL0     N12506   3.001   0.821   9.473 -0.8560 -0.1241  0.0008
  834MOL0     C12507   3.359   1.485   8.618 -0.0103 -0.4463 -0.0131
  834MOL0     C12508   3.458   1.556   8.541  0.1874  0.1602  0.5440
  834MOL0     C12509   3.742   1.746   8.259  0.3547 -0.5822 -0.4239
  834MOL0     C12510   3.805   1.645   8.180 -0.3853 -0.9295 -0.8543
  834MOL0     C12511   3.908   1.665   8.104  0.3745 -0.1776 -0.3623
  834MOL0     C12512   3.958   1.794   8.090  0.1634 -0.7744 -0.2520
  834MOL0     O12513   4.061   1.818   7.995  0.1053  0.2760  0.4733
  834MOL0     C12514   4.148   1.715   7.960  0.4093 -0.1036  0.6902
  834MOL0     C12515   4.231   1.770   7.840  0.5532 -0.8506  0.0198
  834MOL0     C12516   4.310   1.652   7.778 -0.8393  0.2853  0.3287
  834MOL0     C12517   4.430   1.703   7.701 -0.7241 -0.6585 -0.2100
  834MOL0     C12518   4.399   1.757   7.569  0.2172  0.2272  0.2396
  834MOL0     C12519   4.381   1.795   7.454 -0.4878 -0.3555  0.1576
  834MOL0     C12520   3.896   1.897   8.161 -0.2290  0.2740 -0.2222
  834MOL0     C12521   3.795   1.880   8.251  0.7576 -1.0472 -0.5064
  834MOL0     C12522   3.757   1.995   8.342  1.1625 -1.0318 -0.2114
  834MOL0     H12523   3.480   1.341   8.281 -3.8365 -1.1810 -1.4150
  834MOL0     H12524   3.311   1.227   8.398  2.8936  0.3675 -2.3733
  834MOL0     H12525   3.154   1.112   8.575  1.3282  3.7659 -4.6009
  834MOL0     H12526   3.326   1.135   8.626  0.4352  0.2103 -1.9557
  834MOL0     H12527   3.203   0.989   8.775  2.4995  0.9563 -0.2385
  834MOL0     H12528   3.096   1.120   8.825  0.4824  0.0559  2.9451
  834MOL0     H12529   3.277   1.248   8.926 -3.9380 -0.1992  1.7551
  834MOL0     H12530   3.391   1.126   8.877  0.2453 -0.3231  1.0207
  834MOL0     H12531   3.251   0.958   9.011  2.1180 -1.1218  3.4315
  834MOL0     H12532   3.351   1.068   9.093 -0.9999 -3.3601  1.2254
  834MOL0     H12533   3.143   1.226   9.122  1.4265 -0.6983 -0.6366
  834MOL0     H12534   3.042   1.089   9.061 -0.9066  2.1911 -0.0954
  834MOL0     H12535   3.155   0.947   9.232 -1.5025 -0.1998 -0.6274
  834MOL0     H12536   3.227   1.094   9.299  0.1959  0.9325 -0.8333
  834MOL0     H12537   2.923   1.031   9.276 -0.3499 -1.1888  1.0803
  834MOL0     H12538   2.994   1.195   9.307 -1.0582 -0.0838  0.2737
  834MOL0     H12539   3.087   1.142   9.517  0.3461 -1.3274  2.4141
  834MOL0     H12540   2.921   1.070   9.507 -0.2851  1.3377 -0.3418
  834MOL0     H12541   3.281   0.950   9.589  0.3519 -0.4417  2.2889
  834MOL0     H12542   3.402   0.732   9.540  0.5641 -1.1241  1.6493
  834MOL0     H12543   3.320   0.629   9.655 -2.0917 -1.8535  0.1079
  834MOL0     H12544   3.217   0.531   9.434  0.1132  0.5895  1.9977
  834MOL0     H12545   3.364   0.573   9.350  1.2216 -5.3408 -1.4645
  834MOL0     H12546   3.380   0.349   9.406  1.7935 -1.7010  0.9509
  834MOL0     H12547   3.334   0.382   9.576 -0.6710 -1.7601 -1.2127
  834MOL0     H12548   3.544   0.524   9.591  1.1113  0.4397 -1.2130
  834MOL0     H12549   3.578   0.466   9.418 -4.6914 -1.5621 -1.2593
  834MOL0     H12550   3.448   0.120   9.629 -2.3882 -0.3877  1.0667
  834MOL0     H12551   3.397   0.056   9.880 -0.8373  3.7751  1.2097
  834MOL0     H12552   3.556   0.056  10.379 -0.8014  0.0085  1.9903
  834MOL0     H12553   3.508  -0.078  10.569 -0.7799  0.9819  0.5137
  834MOL0     H12554   3.488  -0.290  10.708 -0.3134 -1.4218 -0.7428
  834MOL0     H12555   3.386  -0.156  10.739 -1.0812  0.1843 -1.5275
  834MOL0     H12556   3.198  -0.378  10.763  0.3268  0.4305 -0.5155
  834MOL0     H12557   3.345  -0.453  10.803 -1.6324 -1.0593  2.1190
  834MOL0     H12558   3.387  -0.264  10.982 -0.1210 -0.4957  2.2582
  834MOL0     H12559   3.216  -0.213  10.960 -1.4372  0.0591 -1.2230
  834MOL0     H12560   3.295  -0.489  11.024  2.1403  1.6989 -2.5167
  834MOL0     H12561   3.131  -0.428  11.025 -1.0249  2.5307 -1.2636
  834MOL0     H12562   3.355  -0.307  11.207  0.3435  1.8232 -3.4916
  834MOL0     H12563   3.247  -0.443  11.250  1.9390 -0.0889 -0.7763
  834MOL0     H12564   3.166  -0.159  11.166 -0.0058  0.5446 -0.7342
  834MOL0     H12565   3.064  -0.292  11.224  1.1303 -1.4387 -1.0916
  834MOL0     H12566   3.273  -0.138  11.398  0.7190 -0.5931 -1.4132
  834MOL0     H12567   3.184  -0.276  11.457  0.7348 -0.6581 -1.4230
  834MOL0     H12568   3.084  -0.049  11.526 -2.4422  1.6536 -0.8122
  834MOL0     H12569   3.049  -0.026  11.361  1.1859 -1.3382 -1.4510
  834MOL0     H12570   3.235  -0.311  10.328  1.0570 -1.1888  0.3712
  834MOL0     H12571   3.297  -0.176  10.139 -0.3031 -0.3842 -0.2116
  834MOL0     H12572   3.687   0.334  10.005  0.0589 -0.8087 -0.9915
  834MOL0     H12573   3.721   0.408   9.760 -0.9582  1.4408  0.1799
  834MOL0     H12574   3.329   1.540   8.707 -1.1104 -0.0974 -0.5734
  834MOL0     H12575   3.499   1.652   8.571 -0.9269  0.8188  0.0280
  834MOL0     H12576   3.778   1.541   8.197 -0.4048 -1.0346 -1.4842
  834MOL0     H12577   3.941   1.583   8.040  0.0390 -0.9016  0.3735
  834MOL0     H12578   4.090   1.632   7.920  0.8964 -0.6812  1.1767
  834MOL0     H12579   4.212   1.686   8.044  1.3755  0.2916  0.1159
  834MOL0     H12580   4.289   1.857   7.873 -1.6745  0.9855 -0.6500
  834MOL0     H12581   4.161   1.804   7.763 -0.3239 -1.7054  0.4208
  834MOL0     H12582   4.241   1.592   7.718  1.0182 -1.1324 -0.4980
  834MOL0     H12583   4.359   1.599   7.860  0.5154  2.5011  1.0458
  834MOL0     H12584   4.484   1.773   7.766 -0.2005 -0.0291 -1.3041
  834MOL0     H12585   4.486   1.612   7.679 -0.5317 -0.5003 -0.3671
  834MOL0     H12586   4.366   1.824   7.351 -0.2616 -1.6944 -0.2650
  834MOL0     H12587   3.941   1.993   8.138 -1.4578  0.3414 -2.5834
  834MOL0     H12588   3.683   2.059   8.294 -0.3476 -2.7016 -0.2382
  834MOL0     H12589   3.713   1.956   8.435 -0.7621 -0.2284 -0.7319
  834MOL0     H12590   3.846   2.051   8.371 -1.5211  3.6423 -0.0751
  835MOL0     O12591   3.971   1.409  10.815  0.9403  0.2090 -0.1336
  835MOL0     C12592   4.020   1.521  10.835 -0.5678  0.2651  0.1932
  835MOL0     O12593   4.155   1.553  10.807  0.0951 -0.7857 -0.7883
  835MOL0     C12594   4.237   1.457  10.742  0.2860  0.1979 -0.1216
  835MOL0     C12595   4.266   1.338  10.811 -0.7761  0.4866 -0.1757
  835MOL0     C12596   4.342   1.243  10.748 -0.9223 -0.1838 -0.3545
  835MOL0     C12597   4.369   1.255  10.616 -0.2888  0.0267  0.1005
  835MOL0     O12598   4.406   1.133  10.563 -0.0918 -0.4000 -0.4113
  835MOL0     C12599   4.538   1.134  10.502  0.1992 -0.2061 -1.3180
  835MOL0     C12600   4.650   1.132  10.606 -0.2828  0.1493 -0.0456
  835MOL0     C12601   4.638   1.028  10.713  0.3252 -0.3765 -0.3217
  835MOL0     C12602   4.774   1.017  10.788 -0.8316 -0.3640 -0.3587
  835MOL0     C12603   4.804   0.872  10.831 -0.2072  0.0848 -0.0976
  835MOL0     C12604   4.741   0.823  10.961  0.3546 -0.1659  0.0996
  835MOL0     C12605   4.779   0.675  10.990 -0.7880 -0.9063  0.0806
  835MOL0     C12606   4.692   0.619  11.099  0.0473  0.3440 -0.5647
  835MOL0     N12607   4.730   0.473  11.119 -0.7679 -0.1523 -0.6278
  835MOL0     C12608   4.766   0.430  11.242 -0.3503 -0.3964  0.4513
  835MOL0     C12609   4.781   0.295  11.227  0.0893 -0.3988 -0.7966
  835MOL0     C12610   4.813   0.213  11.347  0.0690  0.4192 -0.1722
  835MOL0     C12611   4.912   0.094  11.308  0.3573 -0.4881 -0.0356
  835MOL0     C12612   4.841  -0.033  11.262 -0.4956 -0.5349  0.7087
  835MOL0     C12613   4.929  -0.151  11.224 -0.1299 -0.0666  0.1424
  835MOL0     O12614   4.842  -0.253  11.187 -0.1125  0.5460  0.3448
  835MOL0     C12615   4.902  -0.367  11.157  0.2809 -0.3233 -0.1731
  835MOL0     C12616   4.815  -0.474  11.129 -0.0726  0.4514 -0.4136
  835MOL0     C12617   4.866  -0.602  11.093 -0.4080  0.3033 -0.0882
  835MOL0     C12618   5.006  -0.626  11.091  0.0213  0.5795 -0.0872
  835MOL0     C12619   5.062  -0.759  11.049  0.5871 -0.1326  0.8425
  835MOL0     O12620   5.180  -0.807  11.100 -0.1476 -0.2352 -0.4669
  835MOL0     C12621   5.235  -0.931  11.055  0.9065 -0.7346  0.0757
  835MOL0     C12622   5.303  -0.924  10.942 -0.1840 -0.0253  0.0269
  835MOL0     C12623   5.354  -1.036  10.886  0.7175  0.4088  0.1778
  835MOL0     C12624   5.349  -1.152  10.949 -0.5360 -0.5424  0.1442
  835MOL0     O12625   5.428  -1.252  10.908  0.3392  0.2035  0.7333
  835MOL0     C12626   5.364  -1.334  10.809  0.3618  0.1189  0.6294
  835MOL0     C12627   5.470  -1.392  10.727  0.1497  0.3031  0.4963
  835MOL0     C12628   5.517  -1.290  10.631  0.3092 -0.1980  1.0767
  835MOL0     C12629   5.430  -1.214  10.526  0.0935 -0.2162 -0.3502
  835MOL0     C12630   5.367  -1.309  10.424 -0.3796 -0.1482 -0.3708
  835MOL0     C12631   5.250  -1.400  10.476  0.1692 -1.1357 -0.0702
  835MOL0     C12632   5.158  -1.440  10.360 -0.8641  1.2592  0.3810
  835MOL0     C12633   5.044  -1.517  10.410 -0.8288 -0.7666 -0.3065
  835MOL0    Cl12634   4.945  -1.555  10.280 -0.4666  0.1005  0.6528
  835MOL0     C12635   5.266  -1.167  11.060 -0.6770  0.3057 -0.1178
  835MOL0     C12636   5.214  -1.047  11.116  0.7929 -0.5703 -0.7239
  835MOL0     O12637   4.990  -0.814  10.960  0.4005 -0.1751  0.4224
  835MOL0     C12638   5.086  -0.519  11.118  1.0440  0.2835  0.1469
  835MOL0     C12639   5.038  -0.396  11.154 -0.1568 -0.3567  0.6154
  835MOL0     N12640   4.758   0.259  11.103 -0.1453  0.2531 -0.3846
  835MOL0     N12641   4.711   0.371  11.039  0.8138  0.9158 -0.7997
  835MOL0     C12642   4.339   1.366  10.539  0.3106  0.2041  0.8168
  835MOL0     C12643   4.279   1.476  10.611 -0.9443  0.2101  0.5971
  835MOL0     C12644   3.945   1.630  10.891  0.4516  0.7410  0.1848
  835MOL0     C12645   3.962   1.748  10.831 -0.1269 -0.8336 -0.6063
  835MOL0     C12646   3.884   1.858  10.864 -0.4049 -0.0278 -0.8976
  835MOL0     C12647   3.793   1.852  10.975 -0.9111  0.9558  0.4429
  835MOL0     O12648   3.719   1.958  11.016  0.6890 -0.2329  0.4578
  835MOL0     C12649   3.655   1.953  11.145  0.4852  0.3043 -0.2106
  835MOL0     C12650   3.595   2.087  11.194 -1.8496  0.2913 -0.4045
  835MOL0     C12651   3.532   2.086  11.332  0.2638  0.2269 -0.6189
  835MOL0     C12652   3.391   2.011  11.339 -0.6458  0.6381  0.1013
  835MOL0     C12653   3.311   2.025  11.453  0.7558  0.0855 -0.7184
  835MOL0     C12654   3.240   2.014  11.557 -0.4822 -0.9146 -0.0477
  835MOL0     C12655   3.790   1.731  11.042 -0.0613  0.8410  0.6672
  835MOL0     C12656   3.865   1.618  11.008 -0.3631  0.3415 -0.3544
  835MOL0     C12657   3.865   1.499  11.105 -0.5732 -0.8872  0.2315
  835MOL0     H12658   4.235   1.324  10.914  0.3506 -0.9280  0.0054
  835MOL0     H12659   4.384   1.160  10.804  2.0320  1.5352  0.1687
  835MOL0     H12660   4.537   1.047  10.436 -1.1084 -0.0727 -1.5136
  835MOL0     H12661   4.556   1.225  10.444  1.0206 -0.6100 -1.7178
  835MOL0     H12662   4.663   1.232  10.648  1.1951 -0.4409  1.0096
  835MOL0     H12663   4.738   1.100  10.549  0.7638  1.1021  0.9782
  835MOL0     H12664   4.611   0.944  10.648 -0.5180 -0.1500 -0.2715
  835MOL0     H12665   4.555   1.038  10.783 -0.6161 -1.1832 -1.2864
  835MOL0     H12666   4.851   1.047  10.716 -1.8796 -0.1039 -1.3944
  835MOL0     H12667   4.788   1.093  10.865 -2.2305 -0.9439  0.4868
  835MOL0     H12668   4.767   0.805  10.752 -2.1960 -0.5626  1.2791
  835MOL0     H12669   4.911   0.860  10.851  0.2110  4.1459  0.8554
  835MOL0     H12670   4.787   0.875  11.047  0.4731  0.6668 -0.4549
  835MOL0     H12671   4.633   0.833  10.970  0.1957 -0.5505 -1.3059
  835MOL0     H12672   4.881   0.681  11.030 -0.5698 -1.4315 -0.3759
  835MOL0     H12673   4.784   0.615  10.899 -0.4460  0.0530 -0.5501
  835MOL0     H12674   4.704   0.677  11.191  0.1969 -0.7334  0.1276
  835MOL0     H12675   4.588   0.625  11.066  0.2311 -5.3474 -3.3578
  835MOL0     H12676   4.776   0.489  11.333 -1.1188  0.2723  0.1106
  835MOL0     H12677   4.858   0.272  11.427  0.3652  1.7557 -1.2686
  835MOL0     H12678   4.725   0.164  11.388  2.9443 -2.4042  3.4033
  835MOL0     H12679   4.992   0.122  11.239  1.2082 -1.1223  0.6722
  835MOL0     H12680   4.967   0.073  11.400 -1.0076 -0.0922  0.9079
  835MOL0     H12681   4.786  -0.006  11.171  0.3219  0.2086  0.4140
  835MOL0     H12682   4.777  -0.072  11.341 -2.1074 -0.6977 -0.6165
  835MOL0     H12683   5.000  -0.181  11.302  1.5257  0.4682 -1.1013
  835MOL0     H12684   4.993  -0.118  11.142  0.9502  1.6210  1.5802
  835MOL0     H12685   4.711  -0.444  11.143 -0.3939 -1.0766  0.7649
  835MOL0     H12686   4.788  -0.675  11.079  0.8495 -1.0994 -0.0025
  835MOL0     H12687   5.326  -0.827  10.900  1.2861  0.5450  2.0162
  835MOL0     H12688   5.418  -1.026  10.799  2.1237  1.0843  1.2559
  835MOL0     H12689   5.305  -1.413  10.856 -2.9469  0.8879 -1.8586
  835MOL0     H12690   5.304  -1.272  10.741  2.7155  1.1802 -0.5871
  835MOL0     H12691   5.555  -1.413  10.793  1.0119  1.0809 -0.3344
  835MOL0     H12692   5.432  -1.487  10.688  2.0895  0.5990 -2.4365
  835MOL0     H12693   5.563  -1.211  10.692  2.1399 -0.1310 -0.2999
  835MOL0     H12694   5.609  -1.327  10.586  0.8478  1.4529  0.7633
  835MOL0     H12695   5.504  -1.158  10.468  0.3397 -2.0709 -1.9706
  835MOL0     H12696   5.372  -1.140  10.580  0.4563 -0.8187  0.8987
  835MOL0     H12697   5.444  -1.371  10.375  0.4507  0.7322 -0.2227
  835MOL0     H12698   5.335  -1.231  10.354  0.7198  2.3393  1.7284
  835MOL0     H12699   5.283  -1.494  10.521 -1.2541 -1.9924 -0.7393
  835MOL0     H12700   5.187  -1.342  10.544  0.1775 -0.1954 -0.8468
  835MOL0     H12701   5.213  -1.488  10.279 -1.1522  2.3793 -0.5095
  835MOL0     H12702   5.119  -1.349  10.313  1.5874  2.0838 -0.1813
  835MOL0     H12703   5.081  -1.613  10.447 -1.1037 -1.7136 -2.3603
  835MOL0     H12704   4.982  -1.473  10.489 -2.8820 -2.2720 -0.9551
  835MOL0     H12705   5.239  -1.263  11.102 -0.1639  1.2666  2.5832
  835MOL0     H12706   5.154  -1.048  11.206  0.7080 -1.1570 -0.7826
  835MOL0     H12707   5.194  -0.533  11.114  1.0645 -0.8620  2.5241
  835MOL0     H12708   5.126  -0.334  11.164 -0.3905 -0.1124  1.1980
  835MOL0     H12709   4.360   1.381  10.434  1.9395 -1.6981  0.8188
  835MOL0     H12710   4.253   1.567  10.558 -0.2763  0.2571  0.3385
  835MOL0     H12711   4.029   1.754  10.745  0.1153 -2.7745 -0.5926
  835MOL0     H12712   3.903   1.949  10.808  1.4965 -1.2933 -2.4327
  835MOL0     H12713   3.719   1.934  11.233 -0.8116  1.0043  0.9279
  835MOL0     H12714   3.578   1.877  11.154  0.3249  0.6175  1.3681
  835MOL0     H12715   3.521   2.127  11.124 -1.0245  2.0017 -0.3489
  835MOL0     H12716   3.678   2.159  11.192 -1.5464  0.0469  1.3560
  835MOL0     H12717   3.510   2.188  11.364 -3.6128 -0.7139  0.2176
  835MOL0     H12718   3.590   2.050  11.417 -3.6873 -1.0896  1.7510
  835MOL0     H12719   3.346   2.048  11.246 -1.8468 -0.2744  0.2998
  835MOL0     H12720   3.407   1.903  11.328 -1.0067  0.2747  2.6996
  835MOL0     H12721   3.189   2.009  11.651 -1.3475  2.6897 -0.2166
  835MOL0     H12722   3.730   1.719  11.131  1.4088  0.5018  1.6537
  835MOL0     H12723   3.871   1.540  11.207 -1.3439  0.5883 -0.2817
  835MOL0     H12724   3.771   1.443  11.094 -0.0897 -1.3592 -1.7299
  835MOL0     H12725   3.952   1.436  11.087  0.9919  0.8149  1.4728
  836MOL0     O12726   1.677   4.049   4.161  0.4305 -0.5809  0.0217
  836MOL0     C12727   1.633   3.955   4.096 -0.4994  0.8095 -0.5966
  836MOL0     O12728   1.503   3.918   4.093  0.5268  0.1332 -0.1270
  836MOL0     C12729   1.416   3.993   4.163 -0.0583 -0.6224 -0.5116
  836MOL0     C12730   1.307   4.069   4.098  0.1173  0.0603  0.3698
  836MOL0     C12731   1.201   4.132   4.167 -0.6616 -0.0051 -0.8321
  836MOL0     C12732   1.198   4.130   4.303 -0.1891 -1.3390  0.4317
  836MOL0     O12733   1.095   4.203   4.359  0.0829 -0.4442 -0.5212
  836MOL0     C12734   1.094   4.252   4.492  0.6132  0.9448  1.1126
  836MOL0     C12735   0.961   4.328   4.519 -0.2787 -1.2879  0.0713
  836MOL0     C12736   0.954   4.394   4.663 -0.8350 -0.8382  0.6629
  836MOL0     C12737   0.922   4.283   4.772 -0.3484  0.1805  0.5438
  836MOL0     C12738   0.834   4.334   4.889 -0.3518  0.0160  0.7014
  836MOL0     C12739   0.687   4.342   4.838 -0.5781 -0.4504 -0.7786
  836MOL0     C12740   0.616   4.416   4.950  0.2277 -0.0431  0.3098
  836MOL0     C12741   0.467   4.423   4.907  0.5831  0.1713 -0.0122
  836MOL0     N12742   0.433   4.530   4.826  0.5446  0.1199  0.7364
  836MOL0     C12743   0.422   4.526   4.689  0.4578 -0.0268 -0.1676
  836MOL0     C12744   0.417   4.657   4.659 -0.6608  0.5144 -0.5595
  836MOL0     C12745   0.402   4.696   4.516  0.0052 -0.0657  0.1377
  836MOL0     C12746   0.309   4.815   4.486  0.3453 -0.5914  0.3966
  836MOL0     C12747   0.291   4.860   4.347  0.5504  0.3056  0.9786
  836MOL0     C12748   0.235   4.743   4.263 -0.3938 -1.0896 -0.6356
  836MOL0     O12749   0.202   4.802   4.139 -0.3124 -0.7410 -0.0752
  836MOL0     C12750   0.194   4.717   4.037  0.2041 -0.8575 -0.2509
  836MOL0     C12751   0.135   4.586   4.065  0.2026  0.1166  0.4701
  836MOL0     C12752   0.148   4.489   3.963  0.0753  0.5237 -0.3714
  836MOL0     C12753   0.207   4.520   3.842  0.1630 -0.7584  0.8722
  836MOL0     C12754   0.232   4.418   3.744 -0.5210  1.0841 -0.0178
  836MOL0     O12755   0.240   4.457   3.612  0.4733 -0.4863  0.0364
  836MOL0     C12756   0.251   4.355   3.514  0.5953 -1.2713 -0.7962
  836MOL0     C12757   0.335   4.390   3.398  0.1251 -0.0747  0.1561
  836MOL0     C12758   0.329   4.306   3.291  0.1469 -0.1165  0.3627
  836MOL0     C12759   0.257   4.183   3.292  0.4935 -0.0572  0.8964
  836MOL0     O12760   0.265   4.098   3.185 -0.3270 -0.1865  0.2195
  836MOL0     C12761   0.153   4.112   3.095 -0.2748 -0.0957 -0.1801
  836MOL0     C12762   0.019   4.043   3.126  0.2171 -0.3396 -0.1806
  836MOL0     C12763   0.034   3.891   3.128 -0.1803  0.8276  0.3602
  836MOL0     C12764  -0.108   3.829   3.155 -0.0310 -0.1553  0.3684
  836MOL0     C12765  -0.106   3.681   3.172  0.1562  1.1946 -0.3941
  836MOL0     C12766  -0.244   3.634   3.208 -0.0070 -0.2509 -0.6768
  836MOL0     C12767  -0.254   3.480   3.228  0.1546  0.4184 -0.0250
  836MOL0     C12768  -0.342   3.405   3.134 -0.3588 -0.4519 -0.4404
  836MOL0    Cl12769  -0.352   3.235   3.174 -0.1681  0.0069 -0.3846
  836MOL0     C12770   0.183   4.151   3.413  0.2922  0.5631  0.0823
  836MOL0     C12771   0.177   4.242   3.522  0.0535  0.3902 -0.1251
  836MOL0     O12772   0.267   4.308   3.780  0.0837  0.4364  0.4302
  836MOL0     C12773   0.248   4.654   3.813  1.0449 -0.0795  0.1029
  836MOL0     C12774   0.252   4.751   3.912  0.3048  0.7391 -0.5646
  836MOL0     N12775   0.430   4.735   4.771 -0.1764  0.5996 -0.3168
  836MOL0     N12776   0.439   4.655   4.876 -0.8084  0.9501  0.8740
  836MOL0     C12777   1.300   4.062   4.368  0.3760 -0.7808 -0.4459
  836MOL0     C12778   1.412   3.998   4.304  0.1815 -1.1644  0.3234
  836MOL0     C12779   1.732   3.895   4.000  0.2388  0.1416  0.1415
  836MOL0     C12780   1.686   3.864   3.872 -0.6304 -0.2588  0.1135
  836MOL0     C12781   1.764   3.801   3.776  0.6722 -0.6218  0.1227
  836MOL0     C12782   1.904   3.783   3.798  1.0887  0.3545 -0.3841
  836MOL0     O12783   1.997   3.733   3.711 -0.3075  0.6080 -0.2570
  836MOL0     C12784   1.957   3.728   3.575  0.4666 -0.7714  0.7926
  836MOL0     C12785   1.943   3.877   3.529  0.5704  0.3244  0.0262
  836MOL0     C12786   2.075   3.950   3.490 -0.6582  1.8749 -0.6136
  836MOL0     C12787   2.131   3.912   3.355 -0.1477 -0.3429  0.5052
  836MOL0     C12788   2.049   3.969   3.251  0.9938  0.7035  0.3473
  836MOL0     C12789   1.977   4.021   3.166 -0.7395  0.5160 -0.0867
  836MOL0     C12790   1.953   3.829   3.920  0.1673  0.4254  0.7923
  836MOL0     C12791   1.869   3.879   4.025  0.6930  0.4132  0.8316
  836MOL0     C12792   1.933   3.928   4.157 -0.0326 -0.0423  0.2244
  836MOL0     H12793   1.315   4.075   3.990 -0.4067 -0.8103  0.2782
  836MOL0     H12794   1.129   4.185   4.105 -2.0267  0.8935  1.4116
  836MOL0     H12795   1.101   4.169   4.563  2.5212 -1.7442 -1.9527
  836MOL0     H12796   1.177   4.318   4.517 -0.3191  2.3735  0.5401
  836MOL0     H12797   0.877   4.259   4.515 -0.7021 -0.8745  1.2563
  836MOL0     H12798   0.940   4.409   4.449 -5.3851 -2.4066 -0.0357
  836MOL0     H12799   0.882   4.476   4.654  2.2103  1.8340 -1.9900
  836MOL0     H12800   1.048   4.447   4.680 -2.0670  1.5707  0.4179
  836MOL0     H12801   0.874   4.201   4.719 -3.2859 -0.6960  4.1713
  836MOL0     H12802   1.015   4.241   4.812 -0.9207  0.3714  2.1725
  836MOL0     H12803   0.842   4.271   4.979 -2.0766 -0.0123  0.8807
  836MOL0     H12804   0.870   4.433   4.919  3.1191 -1.5646  2.2997
  836MOL0     H12805   0.687   4.402   4.746 -2.0852  0.1484 -0.4114
  836MOL0     H12806   0.641   4.244   4.825  2.5291 -2.1925  0.1980
  836MOL0     H12807   0.651   4.518   4.967  0.8068 -0.2243  0.2267
  836MOL0     H12808   0.632   4.359   5.042 -2.4646 -0.1473  0.8089
  836MOL0     H12809   0.431   4.323   4.881  0.1532  0.7184 -1.6245
  836MOL0     H12810   0.413   4.446   5.000  2.3619  0.1365  1.0684
  836MOL0     H12811   0.398   4.443   4.623 -0.7216  0.4363 -0.3456
  836MOL0     H12812   0.501   4.726   4.481 -0.2758  2.0082  0.9941
  836MOL0     H12813   0.355   4.610   4.467  1.6838 -0.5961 -0.6137
  836MOL0     H12814   0.218   4.785   4.539  0.5720 -2.7231 -0.3067
  836MOL0     H12815   0.350   4.897   4.546  4.5689  0.4505 -3.3218
  836MOL0     H12816   0.381   4.897   4.297  1.1035 -2.2002 -0.0539
  836MOL0     H12817   0.216   4.940   4.342  1.3696  1.0269 -3.1994
  836MOL0     H12818   0.150   4.704   4.321  1.0523 -0.6342  1.9244
  836MOL0     H12819   0.303   4.658   4.252  0.2795 -0.5330 -0.8421
  836MOL0     H12820   0.084   4.574   4.160  1.8213  2.0806  1.6623
  836MOL0     H12821   0.114   4.386   3.971 -0.6969  0.9369  3.6022
  836MOL0     H12822   0.392   4.481   3.407 -0.8425  0.6954 -1.1369
  836MOL0     H12823   0.384   4.323   3.199 -1.5917 -0.7324 -0.8496
  836MOL0     H12824   0.127   4.217   3.077  0.8898 -0.2131 -3.1021
  836MOL0     H12825   0.183   4.087   2.992 -3.3279  1.9026 -1.7080
  836MOL0     H12826  -0.023   4.074   3.222  2.1081  0.4174  0.4522
  836MOL0     H12827  -0.049   4.078   3.049 -1.0257  1.3016  1.5959
  836MOL0     H12828   0.079   3.867   3.031 -0.5475  1.5257  0.0125
  836MOL0     H12829   0.104   3.846   3.199  0.3501  1.8122  0.4802
  836MOL0     H12830  -0.182   3.855   3.079  0.2164 -1.7056 -0.4320
  836MOL0     H12831  -0.146   3.867   3.250  0.9432 -0.7492  1.0159
  836MOL0     H12832  -0.051   3.642   3.258 -2.9121 -2.3503  0.2122
  836MOL0     H12833  -0.071   3.625   3.085  1.3187  0.3318  0.5975
  836MOL0     H12834  -0.271   3.686   3.301  0.9855  0.0665 -0.5539
  836MOL0     H12835  -0.327   3.671   3.148 -0.5500 -0.0686  0.1700
  836MOL0     H12836  -0.295   3.445   3.323 -1.3786 -0.5667 -1.0006
  836MOL0     H12837  -0.157   3.430   3.223 -0.0248 -0.3165  2.4158
  836MOL0     H12838  -0.446   3.438   3.122 -0.1807  0.1619 -0.2944
  836MOL0     H12839  -0.299   3.417   3.035 -0.5419  0.7666 -0.3797
  836MOL0     H12840   0.138   4.053   3.401  0.0161  0.8562 -1.5138
  836MOL0     H12841   0.104   4.219   3.599  2.3537  2.7503  2.9972
  836MOL0     H12842   0.301   4.675   3.721  0.3146 -0.9907 -0.5403
  836MOL0     H12843   0.299   4.848   3.897 -1.0496  1.3513 -1.0970
  836MOL0     H12844   1.302   4.058   4.477 -2.3025 -0.3996 -0.3332
  836MOL0     H12845   1.491   3.948   4.358  2.7866  1.6815 -0.5747
  836MOL0     H12846   1.583   3.878   3.842 -0.8499 -1.4741  0.2367
  836MOL0     H12847   1.717   3.776   3.682 -0.9078 -0.5198  0.8549
  836MOL0     H12848   1.858   3.686   3.559 -0.1033  1.0484 -0.8288
  836MOL0     H12849   2.035   3.672   3.523  2.9826  1.3102  2.0572
  836MOL0     H12850   1.903   3.939   3.609  3.1412  1.8353  0.2176
  836MOL0     H12851   1.867   3.884   3.450  0.1732  4.1532  0.6004
  836MOL0     H12852   2.144   3.926   3.572 -2.2443  1.2702  0.5935
  836MOL0     H12853   2.079   4.059   3.500  1.2827  1.8459 -0.6754
  836MOL0     H12854   2.229   3.960   3.345 -0.4982 -0.0762 -2.2446
  836MOL0     H12855   2.143   3.805   3.336 -1.4424 -0.4313  0.0974
  836MOL0     H12856   1.910   4.068   3.096 -2.6293 -1.2456  0.4232
  836MOL0     H12857   2.062   3.832   3.923  0.3536  1.2790 -2.5368
  836MOL0     H12858   1.874   3.906   4.246 -0.6279 -1.2277 -0.4461
  836MOL0     H12859   2.024   3.869   4.167 -0.5476 -0.8688  0.0754
  836MOL0     H12860   1.956   4.035   4.145 -3.7891  0.7502 -1.7768
  837MOL0     O12861   8.742   6.657  10.856  0.0462  0.7132 -0.4272
  837MOL0     C12862   8.860   6.687  10.852 -0.2218  0.0112  0.1442
  837MOL0     O12863   8.959   6.635  10.925 -0.3029  0.3200 -0.3462
  837MOL0     C12864   8.934   6.566  11.037 -0.8126  0.4632 -0.3221
  837MOL0     C12865   9.037   6.482  11.086 -0.5743 -0.3221  0.3601
  837MOL0     C12866   9.034   6.422  11.206  0.2381 -0.5129 -0.8802
  837MOL0     C12867   8.914   6.422  11.280  0.2390  0.2043  0.4380
  837MOL0     O12868   8.893   6.373  11.408  0.0021  0.4002  0.0740
  837MOL0     C12869   9.001   6.316  11.484  0.1260  0.0736 -0.5445
  837MOL0     C12870   8.940   6.260  11.617 -0.1852  0.3961 -0.0303
  837MOL0     C12871   8.797   6.190  11.611  0.0652  0.1753  0.8028
  837MOL0     C12872   8.722   6.182  11.741 -0.3886 -0.0630  0.5985
  837MOL0     C12873   8.613   6.081  11.726 -0.4095  0.0586  0.7671
  837MOL0     C12874   8.530   6.100  11.853  0.4450  0.5562  0.8714
  837MOL0     C12875   8.409   6.007  11.855 -0.0373 -0.8212 -0.7945
  837MOL0     C12876   8.298   6.025  11.748  0.2301  0.5355 -1.0548
  837MOL0     N12877   8.243   5.898  11.702  0.8331  0.0030  0.0558
  837MOL0     C12878   8.300   5.825  11.612  0.1025 -0.4958 -0.5257
  837MOL0     C12879   8.224   5.715  11.597  0.0795  0.3701  0.1831
  837MOL0     C12880   8.252   5.598  11.514 -0.5593  0.3644 -1.0130
  837MOL0     C12881   8.374   5.528  11.588  0.9551  0.0217  0.6812
  837MOL0     C12882   8.313   5.422  11.682 -0.5875 -0.4971  0.1897
  837MOL0     C12883   8.409   5.321  11.729  0.4827  0.5180  0.1935
  837MOL0     O12884   8.337   5.262  11.832  0.4775  0.2838 -0.2493
  837MOL0     C12885   8.410   5.160  11.905 -0.0514 -0.5329  0.4602
  837MOL0     C12886   8.549   5.135  11.881 -0.0735  0.1690  0.6942
  837MOL0     C12887   8.611   5.026  11.947  0.7011  0.1124 -0.5259
  837MOL0     C12888   8.546   4.954  12.049  0.1134 -0.3084 -0.5500
  837MOL0     C12889   8.629   4.858  12.132 -0.1697 -0.3781 -0.2504
  837MOL0     O12890   8.771   4.858  12.118  0.1900  0.9374 -0.3862
  837MOL0     C12891   8.862   4.774  12.190 -0.0505 -0.6808  0.0472
  837MOL0     C12892   8.837   4.719  12.320  0.3715  0.4844 -0.1356
  837MOL0     C12893   8.920   4.628  12.381 -0.0993  1.0280 -1.5682
  837MOL0     C12894   9.041   4.594  12.323 -0.7061 -0.1238  0.7337
  837MOL0     O12895   9.139   4.503  12.372  0.4346  0.4032  0.6872
  837MOL0     C12896   9.113   4.439  12.492  0.4407  0.2604 -0.2196
  837MOL0     C12897   9.224   4.339  12.526 -0.6095 -0.1456 -0.6583
  837MOL0     C12898   9.224   4.307  12.679 -0.3129 -0.2923  0.2655
  837MOL0     C12899   9.111   4.200  12.703 -0.4368 -0.5615  0.0171
  837MOL0     C12900   9.113   4.065  12.634 -0.9249 -0.2284  0.7112
  837MOL0     C12901   9.233   3.981  12.671  0.3190  0.1390  0.3799
  837MOL0     C12902   9.252   3.942  12.816  0.1115 -0.1268  0.2166
  837MOL0     C12903   9.122   3.874  12.879  0.9076 -0.5345 -0.0298
  837MOL0    Cl12904   9.136   3.810  13.044  0.2341 -0.1544  0.3701
  837MOL0     C12905   9.074   4.654  12.199 -0.2583 -0.9698  0.5303
  837MOL0     C12906   8.995   4.747  12.134  0.6786  0.2875  1.3594
  837MOL0     O12907   8.575   4.803  12.226 -0.1359  0.6469  0.2761
  837MOL0     C12908   8.414   4.994  12.086 -0.2713 -0.8135  0.1431
  837MOL0     C12909   8.344   5.099  12.008  0.3045 -0.2794  0.2628
  837MOL0     N12910   8.125   5.720  11.688  1.0147  0.1264  0.1942
  837MOL0     N12911   8.137   5.836  11.748 -0.1528  0.7121 -0.2675
  837MOL0     C12912   8.796   6.489  11.229  0.2190 -0.2619 -0.1864
  837MOL0     C12913   8.810   6.572  11.112 -0.3998  0.4846 -0.2605
  837MOL0     C12914   8.896   6.809  10.785  0.0910 -0.6062  1.1756
  837MOL0     C12915   8.988   6.891  10.837 -0.6931  0.0841 -0.1868
  837MOL0     C12916   9.025   7.015  10.778 -0.4085 -0.0841 -0.2434
  837MOL0     C12917   8.973   7.063  10.656 -0.4299  0.5569 -0.1839
  837MOL0     O12918   8.990   7.191  10.598 -0.0773  0.0603 -0.1448
  837MOL0     C12919   9.060   7.293  10.670 -0.1923 -0.1467 -0.2276
  837MOL0     C12920   8.978   7.424  10.673  0.3891  0.3428  0.4583
  837MOL0     C12921   8.918   7.472  10.535  0.0327  0.3652 -0.1940
  837MOL0     C12922   9.025   7.494  10.427 -0.1800 -0.0059 -0.6033
  837MOL0     C12923   8.963   7.553  10.319  0.2619  0.3332  0.0738
  837MOL0     C12924   8.907   7.602  10.219 -0.5854 -0.1915  0.4536
  837MOL0     C12925   8.883   6.967  10.599 -0.3648  0.5279 -0.2498
  837MOL0     C12926   8.840   6.847  10.660 -0.7379 -0.1958  0.8203
  837MOL0     C12927   8.734   6.776  10.582  0.7446  0.2263 -0.2533
  837MOL0     H12928   9.130   6.476  11.031 -0.5698 -0.4074  0.3765
  837MOL0     H12929   9.118   6.357  11.229  0.4674 -0.1529 -0.6891
  837MOL0     H12930   9.053   6.248  11.417 -1.8680 -0.7404 -1.3466
  837MOL0     H12931   9.075   6.393  11.506 -1.4793  0.8901  2.6794
  837MOL0     H12932   8.940   6.342  11.690 -2.9478 -2.5307  3.6408
  837MOL0     H12933   9.007   6.181  11.651  1.5110  1.3518 -1.0061
  837MOL0     H12934   8.805   6.088  11.573 -2.1570 -0.1409  1.0669
  837MOL0     H12935   8.741   6.250  11.539  2.2367 -0.0407 -1.1895
  837MOL0     H12936   8.784   6.152  11.826  1.2728  1.1060 -0.1475
  837MOL0     H12937   8.684   6.282  11.764  1.0895  0.6361  0.1158
  837MOL0     H12938   8.554   6.121  11.642  0.1985  0.4227  0.5125
  837MOL0     H12939   8.638   5.975  11.719 -4.0143 -0.8178 -2.8778
  837MOL0     H12940   8.592   6.079  11.941 -1.1816 -1.3206  1.6561
  837MOL0     H12941   8.495   6.203  11.863  0.8044  0.7433  0.2230
  837MOL0     H12942   8.364   6.014  11.955  0.1778  0.6270 -0.7815
  837MOL0     H12943   8.434   5.901  11.849 -1.8095 -1.3299  0.0795
  837MOL0     H12944   8.224   6.096  11.788 -0.3982  0.2203 -1.6487
  837MOL0     H12945   8.337   6.059  11.652 -0.6759 -1.4066 -2.1715
  837MOL0     H12946   8.389   5.853  11.557  1.4970 -1.3744  1.1642
  837MOL0     H12947   8.164   5.536  11.497  0.6199 -1.6101 -0.2916
  837MOL0     H12948   8.273   5.633  11.413 -1.2199 -1.4794 -1.8289
  837MOL0     H12949   8.430   5.484  11.505  1.0495 -0.6185  1.0747
  837MOL0     H12950   8.434   5.605  11.637  2.7478 -1.4444  0.8914
  837MOL0     H12951   8.234   5.369  11.629 -1.3654  0.5124  0.3078
  837MOL0     H12952   8.261   5.460  11.771 -1.4156  1.3221 -1.0005
  837MOL0     H12953   8.500   5.371  11.763  0.8433 -0.0167  0.0188
  837MOL0     H12954   8.409   5.252  11.645 -0.4394  3.2086 -2.1781
  837MOL0     H12955   8.605   5.185  11.803 -0.9007 -1.4855 -1.0393
  837MOL0     H12956   8.716   5.006  11.928  0.9744 -0.2465  1.1964
  837MOL0     H12957   8.742   4.741  12.368 -0.0591  0.0327 -0.7619
  837MOL0     H12958   8.901   4.598  12.484  0.8673  1.8579 -1.1298
  837MOL0     H12959   9.113   4.505  12.579 -0.4728  1.0724 -0.8098
  837MOL0     H12960   9.014   4.392  12.490  0.2181  0.7452 -1.8754
  837MOL0     H12961   9.231   4.246  12.468  2.2742  1.4086 -3.0944
  837MOL0     H12962   9.325   4.380  12.515  0.1709 -0.6945  3.0613
  837MOL0     H12963   9.322   4.270  12.712  0.8021  0.8907 -1.4924
  837MOL0     H12964   9.189   4.396  12.731 -1.4604  2.0091 -3.9516
  837MOL0     H12965   9.013   4.243  12.681 -0.3085 -0.5534 -0.5641
  837MOL0     H12966   9.108   4.172  12.808 -1.3668  0.4067  0.2652
  837MOL0     H12967   9.129   4.072  12.526  0.4918 -1.0025  0.8496
  837MOL0     H12968   9.021   4.013  12.661 -0.0675 -1.6434  1.0401
  837MOL0     H12969   9.238   3.888  12.613 -1.2130  0.9299 -1.1113
  837MOL0     H12970   9.319   4.041  12.640 -0.1672  2.0395  2.4182
  837MOL0     H12971   9.305   4.022  12.868 -1.6152  1.9885 -1.0925
  837MOL0     H12972   9.322   3.858  12.823  1.8167  1.0540 -1.7272
  837MOL0     H12973   9.046   3.952  12.883  0.8416 -0.6190  0.4118
  837MOL0     H12974   9.091   3.794  12.811 -1.7880 -0.2781  0.8042
  837MOL0     H12975   9.163   4.606  12.159  0.6686  0.6922  0.4897
  837MOL0     H12976   9.027   4.778  12.035 -1.4939  0.1356  0.5578
  837MOL0     H12977   8.363   4.952  12.173  1.6856  0.9553  2.2585
  837MOL0     H12978   8.249   5.144  12.035  1.1236  3.2618 -2.1051
  837MOL0     H12979   8.703   6.503  11.283  0.6247  4.5880 -0.3472
  837MOL0     H12980   8.721   6.625  11.078 -2.7239 -2.2077  1.1871
  837MOL0     H12981   9.034   6.866  10.933 -2.0768  1.3267  0.8403
  837MOL0     H12982   9.105   7.067  10.831  1.4423 -1.2506 -1.7227
  837MOL0     H12983   9.157   7.310  10.622 -0.2864 -0.9380 -0.7145
  837MOL0     H12984   9.074   7.269  10.775 -1.4977  0.3857  0.0857
  837MOL0     H12985   9.035   7.508  10.714 -0.9233  1.4773  0.0424
  837MOL0     H12986   8.893   7.408  10.740 -0.9134 -2.8070 -1.6508
  837MOL0     H12987   8.869   7.567  10.558  2.2690  0.9966  2.7150
  837MOL0     H12988   8.844   7.398  10.505  0.6266 -0.1804 -0.3478
  837MOL0     H12989   9.098   7.570  10.457 -0.7884  1.6345 -2.9657
  837MOL0     H12990   9.074   7.402  10.393 -2.2219 -1.7959  1.0078
  837MOL0     H12991   8.873   7.673  10.146  0.8701  0.3173  0.2537
  837MOL0     H12992   8.847   7.005  10.504  3.4179  1.7960 -1.3775
  837MOL0     H12993   8.725   6.826  10.485  1.5974 -3.1832 -2.2383
  837MOL0     H12994   8.756   6.674  10.552 -4.0781 -1.2744  0.5586
  837MOL0     H12995   8.638   6.781  10.635 -1.1879 -5.0341 -2.6730
  838MOL0     O12996   6.410   9.550   1.597  0.4860  0.7565  0.9987
  838MOL0     C12997   6.473   9.489   1.511  0.5577  0.1047  0.0452
  838MOL0     O12998   6.608   9.466   1.505  0.0050  0.0992 -0.2335
  838MOL0     C12999   6.685   9.515   1.600 -0.2683 -0.1542  0.3078
  838MOL0     C13000   6.775   9.613   1.566 -0.0935 -0.6978  0.4793
  838MOL0     C13001   6.846   9.675   1.666 -0.5663  0.5047  0.5595
  838MOL0     C13002   6.841   9.629   1.798  0.6230 -0.4198 -0.1168
  838MOL0     O13003   6.933   9.670   1.892  0.2668  0.6062  0.2927
  838MOL0     C13004   6.990   9.801   1.866  0.2696 -0.8047 -0.2128
  838MOL0     C13005   7.077   9.837   1.986 -0.2836  0.5024 -0.1185
  838MOL0     C13006   7.003   9.838   2.124  0.1791 -0.0238  0.6272
  838MOL0     C13007   6.999   9.702   2.189  0.3292  0.5858  0.3996
  838MOL0     C13008   7.076   9.690   2.318  0.2988 -0.4954 -0.0536
  838MOL0     C13009   7.227   9.640   2.298  0.3247 -0.4914  0.3937
  838MOL0     C13010   7.319   9.763   2.286 -0.2383  0.8979 -0.6277
  838MOL0     C13011   7.466   9.730   2.293 -0.3539 -0.3175  0.1265
  838MOL0     N13012   7.541   9.851   2.337 -0.5500  0.2872  0.5110
  838MOL0     C13013   7.545   9.894   2.466  0.2795 -0.3535 -0.6396
  838MOL0     C13014   7.600  10.015   2.457  0.5520 -0.1510  0.8632
  838MOL0     C13015   7.615  10.121   2.559  0.1223  0.2437 -0.4586
  838MOL0     C13016   7.757  10.167   2.576  0.5631 -0.5110 -0.0731
  838MOL0     C13017   7.768  10.260   2.699 -0.1186  0.4709 -0.2453
  838MOL0     C13018   7.904  10.328   2.703  0.3908  0.2987 -0.3071
  838MOL0     O13019   8.001  10.234   2.765  0.4577 -0.9128  0.1862
  838MOL0     C13020   8.134  10.254   2.741 -0.7083 -0.4505  0.8382
  838MOL0     C13021   8.191  10.368   2.697  0.3450 -1.1809 -0.4125
  838MOL0     C13022   8.329  10.391   2.687 -0.2282  0.2339 -0.1760
  838MOL0     C13023   8.415  10.293   2.719  0.2736 -0.0447  0.0315
  838MOL0     C13024   8.563  10.305   2.703  0.0075 -1.0094  0.2676
  838MOL0     O13025   8.642  10.189   2.725  0.5026  0.3403 -1.0292
  838MOL0     C13026   8.774  10.188   2.714  0.1001  0.2791  0.4578
  838MOL0     C13027   8.854  10.164   2.828 -0.9493 -0.0884  0.6110
  838MOL0     C13028   8.992  10.175   2.822 -0.2643 -0.4187  0.6068
  838MOL0     C13029   9.055  10.203   2.697 -0.1531  0.4647 -0.6585
  838MOL0     O13030   9.194  10.203   2.700  0.2844  0.5567 -0.4795
  838MOL0     C13031   9.258  10.141   2.588 -0.0836  0.5038  0.3051
  838MOL0     C13032   9.410  10.109   2.607  0.8852  1.0693  0.4700
  838MOL0     C13033   9.484  10.223   2.674 -0.1213 -1.0041  1.2231
  838MOL0     C13034   9.627  10.192   2.683 -0.8734 -0.3738 -0.8281
  838MOL0     C13035   9.709  10.312   2.740 -0.5055  0.1826 -0.7116
  838MOL0     C13036   9.723  10.307   2.887  0.7815 -0.3495  0.7984
  838MOL0     C13037   9.799  10.175   2.925  0.6036  0.1518 -0.4337
  838MOL0     C13038   9.889  10.193   3.047 -0.0006 -0.0686 -0.6637
  838MOL0    Cl13039   9.784  10.214   3.187 -0.2243 -0.0749 -0.0176
  838MOL0     C13040   8.980  10.207   2.579  0.1098 -0.8667  0.9428
  838MOL0     C13041   8.843  10.214   2.593 -0.3244 -0.2598  0.7215
  838MOL0     O13042   8.612  10.412   2.664 -0.2304  0.3351 -0.7241
  838MOL0     C13043   8.369  10.170   2.761  0.7074 -0.0574 -1.0437
  838MOL0     C13044   8.228  10.150   2.772 -1.2507 -0.4186  0.3401
  838MOL0     N13045   7.643  10.036   2.322  0.0816 -0.3188 -0.5980
  838MOL0     N13046   7.617   9.928   2.260  0.3518  0.3232 -0.1101
  838MOL0     C13047   6.763   9.515   1.829 -0.6124 -0.3252  1.1286
  838MOL0     C13048   6.678   9.461   1.728 -0.1669 -0.0172 -0.3106
  838MOL0     C13049   6.390   9.458   1.391 -0.4554  0.4068 -1.0304
  838MOL0     C13050   6.359   9.565   1.306  0.4745  0.0253  1.6065
  838MOL0     C13051   6.291   9.540   1.186 -0.0116  0.1590  0.2062
  838MOL0     C13052   6.270   9.409   1.141  0.0373 -0.1066  0.1621
  838MOL0     O13053   6.203   9.391   1.024  0.2709  0.2284  1.1848
  838MOL0     C13054   6.279   9.402   0.899  0.7101  0.8850  0.8394
  838MOL0     C13055   6.167   9.440   0.799  0.7933  0.0647  0.5616
  838MOL0     C13056   6.203   9.464   0.659  0.1324  0.7534  0.5164
  838MOL0     C13057   6.203   9.330   0.576  0.1302 -0.1642 -0.7898
  838MOL0     C13058   6.248   9.344   0.440 -0.1114 -0.5350  0.6339
  838MOL0     C13059   6.289   9.369   0.330  0.1449 -0.6677  0.5129
  838MOL0     C13060   6.325   9.309   1.218  0.2616 -0.2557  0.1497
  838MOL0     C13061   6.395   9.331   1.339  0.6585  0.1310  1.0474
  838MOL0     C13062   6.453   9.208   1.399 -0.4818  0.0256  0.2535
  838MOL0     H13063   6.775   9.647   1.463  0.2739  0.4747  0.8542
  838MOL0     H13064   6.910   9.750   1.621  1.4386 -0.0570  2.3136
  838MOL0     H13065   7.045   9.814   1.773  3.6795 -2.9503  1.3096
  838MOL0     H13066   6.908   9.871   1.847  1.4190  0.8439  0.5716
  838MOL0     H13067   7.128   9.933   1.977  0.3347  0.0314 -2.1693
  838MOL0     H13068   7.159   9.765   1.983 -0.7890 -0.1229 -4.1841
  838MOL0     H13069   6.902   9.879   2.117 -0.4566 -0.9281  3.1671
  838MOL0     H13070   7.058   9.902   2.194  2.7264 -0.9471 -0.4041
  838MOL0     H13071   6.899   9.669   2.216  0.7652 -1.4066 -0.2407
  838MOL0     H13072   7.027   9.619   2.123 -1.9091  0.7521 -0.8685
  838MOL0     H13073   7.074   9.786   2.370  1.9826  0.7335 -2.0533
  838MOL0     H13074   7.031   9.608   2.374  0.6626 -1.8949 -1.7195
  838MOL0     H13075   7.255   9.589   2.391  2.2807 -0.1139  0.0591
  838MOL0     H13076   7.226   9.564   2.219 -3.8519 -1.4792  1.2076
  838MOL0     H13077   7.299   9.830   2.370  0.0195 -1.1174  1.1383
  838MOL0     H13078   7.291   9.825   2.201 -0.1507  1.3371 -0.3379
  838MOL0     H13079   7.509   9.660   2.365 -2.4521  0.9935  2.7996
  838MOL0     H13080   7.493   9.704   2.190 -0.6175  0.8941 -0.2742
  838MOL0     H13081   7.509   9.847   2.557  0.9126 -0.5666 -0.4933
  838MOL0     H13082   7.544  10.202   2.538 -1.0719 -1.0486 -1.5630
  838MOL0     H13083   7.587  10.072   2.653  1.4552  0.9539  0.3513
  838MOL0     H13084   7.808  10.071   2.592 -1.6473 -1.3055  2.9922
  838MOL0     H13085   7.798  10.201   2.480  2.1565 -1.7823  0.1111
  838MOL0     H13086   7.743  10.205   2.790 -0.2257 -3.0852 -2.2595
  838MOL0     H13087   7.695  10.341   2.690 -0.1818  0.1596 -3.3569
  838MOL0     H13088   7.908  10.424   2.756  0.8034  0.6673 -0.9856
  838MOL0     H13089   7.939  10.350   2.601 -0.9371 -0.7929 -1.0356
  838MOL0     H13090   8.129  10.454   2.673  1.0296 -0.6144 -0.2030
  838MOL0     H13091   8.370  10.487   2.657  1.3810  0.3478  2.1082
  838MOL0     H13092   8.800  10.131   2.916 -0.4017 -2.3643  0.1432
  838MOL0     H13093   9.055  10.156   2.908  3.9728 -0.3693 -2.1682
  838MOL0     H13094   9.209  10.048   2.556 -0.6858  1.3509 -1.3977
  838MOL0     H13095   9.244  10.212   2.506 -0.4079  1.7850  1.4444
  838MOL0     H13096   9.410  10.018   2.668 -2.6790 -2.2183 -3.7306
  838MOL0     H13097   9.452  10.078   2.511  0.6357  1.7083  0.1475
  838MOL0     H13098   9.464  10.315   2.619 -5.0201 -2.2255  0.4911
  838MOL0     H13099   9.434  10.251   2.767  2.4453 -0.0652  2.4448
  838MOL0     H13100   9.666  10.167   2.584  0.4038 -2.2315  0.0905
  838MOL0     H13101   9.641  10.097   2.735 -1.1687 -0.5493 -1.0642
  838MOL0     H13102   9.669  10.411   2.716 -0.3669  0.6138  0.7264
  838MOL0     H13103   9.799  10.322   2.680 -0.9470  2.9032 -1.0422
  838MOL0     H13104   9.782  10.393   2.918  0.9698 -0.1087 -0.2093
  838MOL0     H13105   9.621  10.313   2.926 -0.4825 -0.4110 -2.1794
  838MOL0     H13106   9.865  10.135   2.847 -0.6709  1.1959 -2.1033
  838MOL0     H13107   9.723  10.098   2.941 -0.8584  1.5033 -0.6724
  838MOL0     H13108   9.948  10.102   3.066 -0.7884 -0.5410 -0.4246
  838MOL0     H13109   9.952  10.282   3.036 -1.3403  0.9408 -0.3481
  838MOL0     H13110   9.023  10.208   2.480 -1.4938  0.3213  0.2280
  838MOL0     H13111   8.793  10.245   2.502  2.1815 -1.1715 -1.0678
  838MOL0     H13112   8.437  10.088   2.782  0.4976 -0.9375 -3.4029
  838MOL0     H13113   8.189  10.053   2.801  0.7811 -1.5528 -0.5277
  838MOL0     H13114   6.774   9.463   1.923 -2.1387 -0.8363  1.0655
  838MOL0     H13115   6.619   9.371   1.743  1.5199 -1.3425 -1.3270
  838MOL0     H13116   6.382   9.668   1.331  0.4697  1.1781 -2.4146
  838MOL0     H13117   6.260   9.620   1.121 -3.4517 -2.8583 -2.3097
  838MOL0     H13118   6.316   9.305   0.863 -0.7529  0.7227 -0.3861
  838MOL0     H13119   6.356   9.478   0.914 -0.3082  1.8373  1.3709
  838MOL0     H13120   6.155   9.547   0.818  1.4368  0.5618 -1.5583
  838MOL0     H13121   6.074   9.386   0.818  0.7002  0.0909  0.1903
  838MOL0     H13122   6.302   9.509   0.670  1.1654 -1.6651  2.3712
  838MOL0     H13123   6.128   9.536   0.626  1.2902  1.2510 -1.1284
  838MOL0     H13124   6.257   9.253   0.632  0.1736 -2.0535 -3.2843
  838MOL0     H13125   6.101   9.293   0.573  0.4951 -1.1225 -2.2157
  838MOL0     H13126   6.326   9.403   0.236  1.2009  0.7656  1.3875
  838MOL0     H13127   6.295   9.213   1.179  1.0557 -0.4161 -0.0663
  838MOL0     H13128   6.469   9.134   1.320  3.7945 -0.0527  1.0009
  838MOL0     H13129   6.543   9.230   1.457 -0.2452  1.2394 -0.5206
  838MOL0     H13130   6.381   9.168   1.471  2.6682 -1.9014  2.5663
  839MOL0     O13131  10.340   6.786   3.201 -0.3581 -0.5006  0.0888
  839MOL0     C13132  10.298   6.758   3.087 -0.1782  0.2089  0.0626
  839MOL0     O13133  10.280   6.634   3.029  0.2381 -0.1513 -0.2247
  839MOL0     C13134  10.229   6.540   3.117  0.9512  0.0761 -1.1989
  839MOL0     C13135  10.125   6.569   3.211 -0.3741 -0.0859  0.5785
  839MOL0     C13136  10.085   6.476   3.304 -0.1478  0.1866  0.9027
  839MOL0     C13137  10.142   6.354   3.303 -0.2656  0.8706 -0.3255
  839MOL0     O13138  10.104   6.244   3.377 -0.5096  0.2203  0.0900
  839MOL0     C13139  10.034   6.263   3.502 -0.3350  0.8357  0.1916
  839MOL0     C13140  10.117   6.356   3.596  0.0491  1.0758 -0.8313
  839MOL0     C13141  10.066   6.336   3.745 -0.5175 -0.8679  0.4693
  839MOL0     C13142  10.169   6.396   3.848 -0.0060  0.0438  0.5641
  839MOL0     C13143  10.131   6.348   3.991  0.5849  0.4802  0.0464
  839MOL0     C13144  10.262   6.356   4.086 -0.2444  0.3849 -0.1992
  839MOL0     C13145  10.285   6.498   4.133 -0.0133 -0.0746  0.1453
  839MOL0     C13146  10.210   6.534   4.262 -0.6480  0.1847 -0.7008
  839MOL0     N13147  10.269   6.653   4.340 -0.4662  0.5601  1.1704
  839MOL0     C13148  10.192   6.766   4.356  0.6283  0.4118 -0.2695
  839MOL0     C13149  10.262   6.846   4.443 -1.3877 -0.0277  0.4966
  839MOL0     C13150  10.214   6.979   4.505  0.2179 -1.1865  0.2443
  839MOL0     C13151  10.185   6.965   4.652  0.1112  0.5518 -0.2022
  839MOL0     C13152  10.297   6.935   4.754  0.4428  0.5905  0.0046
  839MOL0     C13153  10.270   6.984   4.900 -1.3424 -0.0087 -0.4517
  839MOL0     O13154  10.207   6.872   4.968 -1.0652 -0.3198 -0.4495
  839MOL0     C13155  10.074   6.894   5.004  0.5368  0.1120  0.2198
  839MOL0     C13156   9.967   6.842   4.931 -0.1879  1.0433  0.2402
  839MOL0     C13157   9.833   6.862   4.977  0.1079 -0.5403 -0.0105
  839MOL0     C13158   9.814   6.949   5.080  0.3826  0.1989 -1.4833
  839MOL0     C13159   9.667   6.972   5.121 -0.2743 -0.0244  0.2646
  839MOL0     O13160   9.659   7.031   5.245 -0.4068 -0.4052 -0.7752
  839MOL0     C13161   9.538   7.039   5.303 -0.2877 -0.0945 -0.9697
  839MOL0     C13162   9.444   6.931   5.333 -0.3506 -0.9207 -0.5457
  839MOL0     C13163   9.319   6.966   5.378  0.3345 -0.2111  0.9807
  839MOL0     C13164   9.284   7.095   5.408 -0.3303 -0.2116 -0.4931
  839MOL0     O13165   9.163   7.119   5.476  0.1717 -0.1333  0.5018
  839MOL0     C13166   9.190   7.150   5.613  0.8420  0.3075  0.4495
  839MOL0     C13167   9.057   7.149   5.687  0.2382 -0.3627 -0.0551
  839MOL0     C13168   9.001   7.000   5.681 -0.3894 -0.2176  0.6426
  839MOL0     C13169   8.858   7.001   5.754 -0.2206  1.0073 -0.0462
  839MOL0     C13170   8.797   6.869   5.736 -0.3851 -0.7933  0.0587
  839MOL0     C13171   8.667   6.847   5.802  0.7955 -0.2116 -0.3604
  839MOL0     C13172   8.550   6.920   5.724 -0.2004 -0.3607  0.5764
  839MOL0     C13173   8.427   6.971   5.807  0.5299 -0.4469  0.5962
  839MOL0    Cl13174   8.332   6.827   5.866 -0.1033 -0.1527  0.3034
  839MOL0     C13175   9.378   7.199   5.391 -0.8533 -0.1256  1.2239
  839MOL0     C13176   9.501   7.166   5.347 -0.4751  0.7674  0.0362
  839MOL0     O13177   9.570   6.929   5.062 -0.4039  0.4571 -0.7846
  839MOL0     C13178   9.922   6.989   5.162 -0.2218  0.7703  0.5925
  839MOL0     C13179  10.046   6.964   5.120 -0.7298 -0.6972 -0.7005
  839MOL0     N13180  10.385   6.775   4.461 -0.2117  0.0192  0.3312
  839MOL0     N13181  10.386   6.664   4.391  0.7741 -0.1410  0.4778
  839MOL0     C13182  10.247   6.320   3.210 -0.5786 -0.6416 -0.1704
  839MOL0     C13183  10.290   6.410   3.110  0.6153  0.1414  0.3018
  839MOL0     C13184  10.271   6.873   3.007  0.3875 -0.0563 -0.9919
  839MOL0     C13185  10.267   7.002   3.069 -0.2251  0.3463  0.4401
  839MOL0     C13186  10.250   7.121   2.994 -0.9203  0.5612 -0.6292
  839MOL0     C13187  10.236   7.115   2.856  0.3398  0.5364 -0.2229
  839MOL0     O13188  10.221   7.219   2.773 -0.5745  0.1755  0.1780
  839MOL0     C13189  10.259   7.343   2.819 -1.2537 -0.4579  0.0417
  839MOL0     C13190  10.285   7.429   2.691  0.3471 -0.3014 -0.7873
  839MOL0     C13191  10.359   7.549   2.738  0.0341  0.1666 -0.0122
  839MOL0     C13192  10.280   7.636   2.848  0.8126  0.1874  0.3868
  839MOL0     C13193  10.155   7.698   2.799 -0.8548 -0.1526 -0.4956
  839MOL0     C13194  10.060   7.759   2.757 -0.5834 -0.5340  0.0953
  839MOL0     C13195  10.220   6.988   2.798  0.9004  0.1483  0.0356
  839MOL0     C13196  10.246   6.867   2.864 -0.2244 -0.4652  0.0723
  839MOL0     C13197  10.248   6.737   2.776  0.4911 -0.2795  0.4116
  839MOL0     H13198  10.077   6.666   3.210  0.3122  0.2500  0.3241
  839MOL0     H13199  10.006   6.523   3.361 -2.1413  1.7947 -2.8669
  839MOL0     H13200   9.935   6.308   3.492 -0.3772  0.5298 -0.8569
  839MOL0     H13201  10.020   6.165   3.550 -1.0651  2.1014  2.7322
  839MOL0     H13202  10.094   6.458   3.564  1.9577  1.6189 -0.5918
  839MOL0     H13203  10.226   6.357   3.594  0.0421  1.5620 -1.8233
  839MOL0     H13204  10.059   6.230   3.773  1.6181 -1.2510 -0.2692
  839MOL0     H13205   9.969   6.386   3.752  0.1734  0.7345 -0.9249
  839MOL0     H13206  10.272   6.370   3.823  0.1278 -0.7045  1.8393
  839MOL0     H13207  10.160   6.505   3.835 -0.8017 -0.0286  0.4597
  839MOL0     H13208  10.051   6.417   4.020 -1.7291 -0.0464 -4.2488
  839MOL0     H13209  10.097   6.244   3.987 -3.0945  1.4538  1.6194
  839MOL0     H13210  10.244   6.286   4.168  0.4981  3.3233  2.6654
  839MOL0     H13211  10.350   6.330   4.026 -1.1529 -0.6924 -1.1024
  839MOL0     H13212  10.267   6.565   4.049  3.7067  0.3965 -0.4503
  839MOL0     H13213  10.393   6.510   4.148 -0.3088  4.0767  0.3000
  839MOL0     H13214  10.102   6.540   4.247 -1.1814 -0.8696  2.0916
  839MOL0     H13215  10.224   6.449   4.329  1.9930  0.2153 -1.0901
  839MOL0     H13216  10.093   6.787   4.317  1.0170  0.1131 -1.4488
  839MOL0     H13217  10.298   7.049   4.505  0.3070 -1.2696 -0.8339
  839MOL0     H13218  10.131   7.022   4.447  0.0914  2.6243  2.8974
  839MOL0     H13219  10.134   7.057   4.684  0.0178  0.5315 -0.2906
  839MOL0     H13220  10.110   6.887   4.665 -0.1862  1.2559  3.4989
  839MOL0     H13221  10.395   6.969   4.716  1.2178  1.9137  2.8675
  839MOL0     H13222  10.312   6.827   4.756  0.4004  0.5593  2.3679
  839MOL0     H13223  10.210   7.076   4.910  2.9051  3.1860 -1.5177
  839MOL0     H13224  10.363   7.002   4.954 -2.6423 -2.0825  2.7760
  839MOL0     H13225   9.970   6.773   4.847 -4.0152 -1.3998  1.8152
  839MOL0     H13226   9.760   6.816   4.912 -2.5011  2.5745  0.4749
  839MOL0     H13227   9.466   6.827   5.312 -1.9776 -1.1150 -1.4471
  839MOL0     H13228   9.239   6.892   5.376  1.0891 -1.0294 -0.1567
  839MOL0     H13229   9.245   7.077   5.673 -1.3839 -0.7296  1.3662
  839MOL0     H13230   9.228   7.252   5.623 -0.9634  1.2340 -1.3781
  839MOL0     H13231   9.074   7.181   5.790 -1.3568  1.3701 -0.2880
  839MOL0     H13232   8.990   7.221   5.639 -1.4281 -1.4476  0.5120
  839MOL0     H13233   8.989   6.954   5.583  0.9273 -1.9431  1.2491
  839MOL0     H13234   9.081   6.942   5.727 -1.1572  1.3702  4.3712
  839MOL0     H13235   8.799   7.083   5.713 -0.1163  0.2906 -1.7127
  839MOL0     H13236   8.872   7.013   5.862 -1.0384 -2.0629  0.5146
  839MOL0     H13237   8.865   6.797   5.782 -0.6114  0.9214  3.3866
  839MOL0     H13238   8.782   6.850   5.630 -2.3880 -0.2025  0.2035
  839MOL0     H13239   8.638   6.742   5.795 -1.3097  0.2740  0.0955
  839MOL0     H13240   8.668   6.880   5.906 -0.5989 -0.4077 -0.2661
  839MOL0     H13241   8.514   6.846   5.652 -1.2955 -0.0368  0.7616
  839MOL0     H13242   8.596   7.008   5.679  2.8221  0.2665  4.3729
  839MOL0     H13243   8.459   7.027   5.896  3.2979 -6.5628  4.0819
  839MOL0     H13244   8.357   7.016   5.736  0.0464 -1.2274  0.5737
  839MOL0     H13245   9.348   7.301   5.412  0.9048  1.1315 -1.7486
  839MOL0     H13246   9.571   7.249   5.336  0.7353 -0.1943  0.3668
  839MOL0     H13247   9.925   7.031   5.262  1.5869  0.7647  0.5887
  839MOL0     H13248  10.121   7.001   5.189 -3.7012 -0.5816  2.7678
  839MOL0     H13249  10.295   6.225   3.230  1.4921  1.0064  3.6841
  839MOL0     H13250  10.354   6.370   3.033 -0.5029 -1.2715  0.0739
  839MOL0     H13251  10.271   7.001   3.177 -0.7061 -2.4966  0.4984
  839MOL0     H13252  10.264   7.216   3.046 -2.4474  1.2974 -1.4822
  839MOL0     H13253  10.354   7.347   2.873 -0.8290 -0.3627 -0.7067
  839MOL0     H13254  10.178   7.391   2.875 -0.0193 -0.8708  2.2897
  839MOL0     H13255  10.192   7.460   2.643 -0.0907 -1.7940 -0.9655
  839MOL0     H13256  10.341   7.375   2.614 -0.3166 -0.6627 -1.0170
  839MOL0     H13257  10.377   7.611   2.651  3.2957 -2.7527 -1.6646
  839MOL0     H13258  10.451   7.522   2.791 -0.4543 -2.4244 -0.3279
  839MOL0     H13259  10.258   7.578   2.939 -0.8375  1.3280  0.7661
  839MOL0     H13260  10.352   7.711   2.882  0.3908 -0.0119  1.8027
  839MOL0     H13261   9.986   7.822   2.714  0.2699 -0.5469 -1.4470
  839MOL0     H13262  10.196   6.987   2.692 -1.6365 -0.2176  0.5415
  839MOL0     H13263  10.349   6.694   2.775  2.3008  3.4746  1.8280
  839MOL0     H13264  10.162   6.672   2.797  1.4326 -1.5460  0.4820
  839MOL0     H13265  10.242   6.776   2.674  3.8286  1.5240  0.7524
  840MOL0     O13266  10.133   1.421  11.302  0.0990 -0.7062 -0.4836
  840MOL0     C13267  10.060   1.513  11.270 -0.0749 -0.9178  0.4229
  840MOL0     O13268   9.934   1.545  11.320 -0.4253  0.2840 -0.4747
  840MOL0     C13269   9.895   1.464  11.427 -0.6132 -0.2232 -0.2034
  840MOL0     C13270   9.955   1.482  11.548  0.0093  0.3108 -0.5521
  840MOL0     C13271   9.913   1.416  11.655 -0.1865 -0.4651  0.0711
  840MOL0     C13272   9.818   1.310  11.644  0.3088 -0.7990  0.0161
  840MOL0     O13273   9.764   1.241  11.750 -0.4281  0.6670 -0.2039
  840MOL0     C13274   9.794   1.285  11.886  0.1828  0.4420  0.6475
  840MOL0     C13275   9.700   1.211  11.979  0.2754 -0.0958  0.3942
  840MOL0     C13276   9.695   1.280  12.122 -0.7174 -0.8606 -0.4393
  840MOL0     C13277   9.828   1.299  12.180  0.4998 -0.9045 -0.1918
  840MOL0     C13278   9.837   1.357  12.320  0.2371  0.9056 -0.2436
  840MOL0     C13279   9.804   1.253  12.432 -0.0323 -0.1068  0.4261
  840MOL0     C13280   9.766   1.335  12.555  0.7249 -0.0150 -0.3093
  840MOL0     C13281   9.720   1.233  12.664  0.3903 -0.4270 -0.2551
  840MOL0     N13282   9.821   1.210  12.761  0.2895 -0.1928  0.2960
  840MOL0     C13283   9.918   1.111  12.750  0.3353 -0.5404  1.0478
  840MOL0     C13284   9.982   1.101  12.866  0.6505 -0.2838  0.2801
  840MOL0     C13285  10.111   1.032  12.888  0.0095 -0.1645  0.5175
  840MOL0     C13286  10.091   0.893  12.945 -0.9435 -0.4152  0.2956
  840MOL0     C13287  10.227   0.824  12.976  0.4874 -0.1219 -0.4366
  840MOL0     C13288  10.180   0.696  13.054 -0.7109 -0.3915 -0.8343
  840MOL0     O13289  10.121   0.615  12.962  0.3126  1.3382  1.1459
  840MOL0     C13290  10.199   0.534  12.881  0.0865 -0.0555 -0.7953
  840MOL0     C13291  10.217   0.399  12.914 -0.3637 -0.3271  0.4036
  840MOL0     C13292  10.272   0.309  12.820 -0.5349  0.3053 -0.9432
  840MOL0     C13293  10.315   0.355  12.699 -0.0128 -0.2415  0.1835
  840MOL0     C13294  10.376   0.266  12.593  0.4390  0.4720 -0.2430
  840MOL0     O13295  10.389   0.313  12.470  0.8448  0.2399  0.7927
  840MOL0     C13296  10.433   0.237  12.362  0.7045  0.0461 -0.1495
  840MOL0     C13297  10.569   0.197  12.351  1.0286  0.5094  0.3811
  840MOL0     C13298  10.624   0.150  12.231  0.1222 -0.5047 -0.7440
  840MOL0     C13299  10.545   0.150  12.119 -0.9404  0.2211 -0.6705
  840MOL0     O13300  10.620   0.118  12.006 -0.0406 -0.4433  0.6375
  840MOL0     C13301  10.650  -0.015  11.977  0.7761 -1.0169  0.4213
  840MOL0     C13302  10.696  -0.011  11.823  0.7599 -0.2913 -0.0606
  840MOL0     C13303  10.571   0.002  11.719 -0.5579  0.3424 -0.0760
  840MOL0     C13304  10.619   0.034  11.579 -1.2456 -1.0760  0.1849
  840MOL0     C13305  10.710   0.157  11.549 -0.6151  0.4143  0.5478
  840MOL0     C13306  10.744   0.168  11.400 -0.5674  0.6809 -0.6195
  840MOL0     C13307  10.822   0.294  11.378  0.3333  0.2433 -0.2132
  840MOL0     C13308  10.852   0.321  11.228  0.1537  0.5804  0.2070
  840MOL0    Cl13309  10.946   0.470  11.220 -0.1091 -0.2914 -0.7576
  840MOL0     C13310  10.411   0.193  12.132 -0.0463  0.3176  0.4019
  840MOL0     C13311  10.356   0.229  12.250 -0.7571 -0.6342  0.3868
  840MOL0     O13312  10.407   0.157  12.623 -0.2540  0.4511  0.3318
  840MOL0     C13313  10.283   0.487  12.659  0.2450  0.4342 -0.0102
  840MOL0     C13314  10.225   0.572  12.747 -0.9008  0.0665  0.1686
  840MOL0     N13315   9.924   1.185  12.958  0.0999  0.6312 -0.4331
  840MOL0     N13316   9.831   1.251  12.891  0.4877  0.5087 -0.6267
  840MOL0     C13317   9.779   1.270  11.518 -0.5923  0.5279  0.1860
  840MOL0     C13318   9.818   1.347  11.408  0.6023 -0.1486 -0.2337
  840MOL0     C13319  10.102   1.599  11.166  0.3002 -0.3080 -0.1971
  840MOL0     C13320  10.130   1.555  11.035  0.3521 -0.2840  0.6827
  840MOL0     C13321  10.159   1.645  10.933  0.7868 -0.5076 -0.6475
  840MOL0     C13322  10.174   1.783  10.946  0.2713 -0.1827 -0.6535
  840MOL0     O13323  10.196   1.858  10.835 -0.2738 -0.1828  0.2733
  840MOL0     C13324  10.304   1.955  10.856 -0.7193 -0.8803  0.6256
  840MOL0     C13325  10.397   1.957  10.742  0.4379  0.2070  1.2980
  840MOL0     C13326  10.501   1.838  10.749 -0.3657 -0.2154  0.7304
  840MOL0     C13327  10.577   1.818  10.614  0.0255 -0.5385 -0.4774
  840MOL0     C13328  10.649   1.934  10.576 -0.5407 -0.1464 -0.1438
  840MOL0     C13329  10.715   2.023  10.524  0.9830  0.3048 -0.2793
  840MOL0     C13330  10.147   1.832  11.081 -0.2907 -0.5042  1.0546
  840MOL0     C13331  10.109   1.743  11.185 -0.4528 -0.2833  0.4672
  840MOL0     C13332  10.093   1.811  11.317 -0.2591 -0.6142 -0.3138
  840MOL0     H13333  10.012   1.575  11.548  4.7130 -2.2361  1.5381
  840MOL0     H13334   9.951   1.456  11.748 -0.1254  0.5650 -0.3882
  840MOL0     H13335   9.902   1.272  11.900  0.1888  2.0564  2.5112
  840MOL0     H13336   9.779   1.393  11.897  0.5545  0.6127 -0.4125
  840MOL0     H13337   9.730   1.107  11.990  3.2365  0.8135  2.2437
  840MOL0     H13338   9.600   1.225  11.936  0.3301 -2.9154 -0.8337
  840MOL0     H13339   9.632   1.219  12.188 -1.1075 -0.5202 -0.4956
  840MOL0     H13340   9.655   1.381  12.115 -0.8542 -0.9779 -1.3684
  840MOL0     H13341   9.881   1.203  12.181 -1.1052 -1.8308 -0.3288
  840MOL0     H13342   9.893   1.363  12.120  0.3642 -0.5469  0.0360
  840MOL0     H13343   9.940   1.390  12.338  0.4151  0.6343 -0.7545
  840MOL0     H13344   9.774   1.446  12.314  2.3812  2.7168  1.8559
  840MOL0     H13345   9.726   1.189  12.392  0.1843 -0.4304  0.5172
  840MOL0     H13346   9.892   1.194  12.460  1.0299  0.7941 -0.8601
  840MOL0     H13347   9.696   1.417  12.534 -0.3041 -0.5714  0.8533
  840MOL0     H13348   9.846   1.398  12.597 -0.7697  1.7900 -0.0156
  840MOL0     H13349   9.649   1.298  12.717 -1.0987  0.4517 -3.1259
  840MOL0     H13350   9.665   1.145  12.629 -1.9389  0.3433  1.2241
  840MOL0     H13351   9.943   1.057  12.660  0.1894 -0.3335  0.8841
  840MOL0     H13352  10.165   1.011  12.795  2.3865  0.2957  1.7133
  840MOL0     H13353  10.172   1.091  12.957  1.9611 -3.0910  1.4604
  840MOL0     H13354  10.040   0.910  13.040  0.1513 -0.9423  0.9973
  840MOL0     H13355  10.036   0.839  12.868  1.2392  1.0888 -2.4985
  840MOL0     H13356  10.285   0.887  13.044  0.8508 -2.6231  1.7673
  840MOL0     H13357  10.291   0.802  12.889  2.0034 -0.2523  0.6737
  840MOL0     H13358  10.104   0.712  13.130  0.1942  1.4347 -0.2556
  840MOL0     H13359  10.269   0.662  13.108 -2.8609  0.8247  3.9705
  840MOL0     H13360  10.180   0.355  13.006  1.5307 -0.3977  1.1781
  840MOL0     H13361  10.267   0.205  12.851 -1.5325  0.6574  0.1348
  840MOL0     H13362  10.637   0.174  12.432  1.6324 -1.6868 -0.6590
  840MOL0     H13363  10.726   0.114  12.219  0.7973  0.9739  0.2952
  840MOL0     H13364  10.735  -0.045  12.039  1.8452  1.1044  0.0617
  840MOL0     H13365  10.555  -0.066  11.998  0.2191  0.1093  0.6768
  840MOL0     H13366  10.769   0.066  11.797 -2.9937  2.5402 -3.4784
  840MOL0     H13367  10.740  -0.104  11.788  1.6172  0.8816 -2.2988
  840MOL0     H13368  10.513  -0.090  11.720 -0.3295  0.2036  0.9252
  840MOL0     H13369  10.510   0.088  11.748 -1.9332 -0.2273 -1.2051
  840MOL0     H13370  10.528   0.061  11.524 -0.1043  1.5950 -0.5359
  840MOL0     H13371  10.661  -0.057  11.536 -0.6568  0.3765 -2.4959
  840MOL0     H13372  10.808   0.149  11.597  0.4350 -0.4443 -1.5928
  840MOL0     H13373  10.654   0.248  11.574  2.0854  1.5801  2.9174
  840MOL0     H13374  10.811   0.088  11.365 -1.0273 -0.0333  0.1029
  840MOL0     H13375  10.658   0.162  11.333  0.1892  0.5691 -1.6188
  840MOL0     H13376  10.918   0.288  11.430  0.2777  1.2866  0.0368
  840MOL0     H13377  10.771   0.377  11.427 -0.3983  0.1901 -0.8765
  840MOL0     H13378  10.907   0.241  11.176 -0.1989  0.6403 -0.2582
  840MOL0     H13379  10.760   0.323  11.169  0.5917  1.0214 -0.4755
  840MOL0     H13380  10.354   0.207  12.041  0.9198 -2.0989 -0.6594
  840MOL0     H13381  10.262   0.282  12.263 -1.5390 -1.5876 -1.0997
  840MOL0     H13382  10.307   0.519  12.558 -0.3105  0.9218  0.0071
  840MOL0     H13383  10.199   0.675  12.722  1.3186  1.0907  1.7607
  840MOL0     H13384   9.730   1.173  11.512  1.1103 -0.3537 -0.2883
  840MOL0     H13385   9.786   1.335  11.305  1.4364  3.0220 -0.9815
  840MOL0     H13386  10.109   1.451  11.012  2.8180 -0.3328 -2.0458
  840MOL0     H13387  10.166   1.595  10.837 -1.5824  0.3943 -1.3631
  840MOL0     H13388  10.359   1.930  10.947  2.5232  3.7356  0.2905
  840MOL0     H13389  10.262   2.055  10.872  0.1636  0.2840 -3.2110
  840MOL0     H13390  10.456   2.049  10.743 -1.5676  1.5943  0.0164
  840MOL0     H13391  10.342   1.963  10.647 -0.1402 -1.5409  1.4824
  840MOL0     H13392  10.446   1.745  10.771 -1.6802  0.7562  1.8140
  840MOL0     H13393  10.561   1.857  10.839  0.5578 -2.9848  0.8038
  840MOL0     H13394  10.656   1.745  10.632  2.0249  1.8165  0.8931
  840MOL0     H13395  10.503   1.782  10.542 -0.4068  1.2668 -0.9955
  840MOL0     H13396  10.783   2.084  10.469  0.8375  1.1040  0.4064
  840MOL0     H13397  10.156   1.940  11.086 -3.2136  0.0073 -1.2054
  840MOL0     H13398  10.162   1.895  11.327  0.4788 -0.6222 -3.9698
  840MOL0     H13399   9.992   1.854  11.316 -0.1862 -0.4486 -1.1287
  840MOL0     H13400  10.118   1.752  11.406  1.4920  0.9316  0.2777
  841MOL0     O13401   4.210   9.887  10.995  0.2832  0.6776 -0.0002
  841MOL0     C13402   4.297   9.830  11.050 -0.7985 -0.2691  0.5037
  841MOL0     O13403   4.428   9.840  11.020  0.2654  0.1781 -0.4204
  841MOL0     C13404   4.461   9.943  10.943 -0.3819  1.1679 -0.3552
  841MOL0     C13405   4.409  10.074  10.949  0.2432 -0.2597 -0.3908
  841MOL0     C13406   4.463  10.164  10.847 -0.7518 -0.1463  0.6609
  841MOL0     C13407   4.557  10.124  10.750  0.3335  0.3392  0.3262
  841MOL0     O13408   4.610  10.216  10.660  1.0551  0.4345 -0.1418
  841MOL0     C13409   4.661  10.166  10.532 -0.4237 -0.3599 -0.0189
  841MOL0     C13410   4.753  10.264  10.470 -0.0331  0.9463  0.5149
  841MOL0     C13411   4.675  10.370  10.376  1.0086 -0.5506 -0.7852
  841MOL0     C13412   4.764  10.497  10.326 -0.1963  0.1268 -0.5428
  841MOL0     C13413   4.677  10.617  10.272  1.0496 -0.3959  0.4051
  841MOL0     C13414   4.753  10.706  10.174  0.6183  0.4744 -0.8544
  841MOL0     C13415   4.659  10.811  10.121  0.0159  0.5381  0.5863
  841MOL0     C13416   4.728  10.931  10.067 -0.3344 -0.1021 -0.2434
  841MOL0     N13417   4.798  10.928   9.941 -0.6376 -0.2087 -0.4469
  841MOL0     C13418   4.751  10.966   9.821 -0.3136 -0.8437 -0.3221
  841MOL0     C13419   4.839  10.907   9.729  0.5019 -0.3583 -0.0225
  841MOL0     C13420   4.840  10.932   9.584  0.3876  0.0879 -0.3475
  841MOL0     C13421   4.704  10.983   9.513 -0.2651  0.4828 -0.2302
  841MOL0     C13422   4.594  10.876   9.536 -0.6668  0.5881  0.9383
  841MOL0     C13423   4.633  10.740   9.467 -0.2601 -0.6916 -0.1378
  841MOL0     O13424   4.514  10.645   9.453  0.5756 -0.4732  0.2903
  841MOL0     C13425   4.419  10.648   9.551 -0.5544  0.1016 -0.1881
  841MOL0     C13426   4.454  10.610   9.681 -0.3791 -0.1991  0.6858
  841MOL0     C13427   4.362  10.629   9.781  0.0368 -0.1716 -0.3624
  841MOL0     C13428   4.238  10.687   9.772  0.2057 -0.5648  0.9197
  841MOL0     C13429   4.131  10.700   9.877 -0.5803  0.0673  0.4479
  841MOL0     O13430   4.039  10.807   9.867 -0.0041 -0.1638  0.2164
  841MOL0     C13431   3.948  10.816   9.963  0.5337 -0.0670 -0.0751
  841MOL0     C13432   3.960  10.919  10.060 -0.0955 -0.3037 -0.2860
  841MOL0     C13433   3.863  10.942  10.153 -0.2136  0.2974 -0.1803
  841MOL0     C13434   3.753  10.847  10.169  0.1126  0.8691 -0.2543
  841MOL0     O13435   3.656  10.859  10.260  0.5640  0.1966  0.5489
  841MOL0     C13436   3.664  10.941  10.380  0.1318  0.3630 -1.6566
  841MOL0     C13437   3.530  10.930  10.459  0.3299 -0.5800  0.9843
  841MOL0     C13438   3.508  10.797  10.504  0.7725  0.7847  0.2999
  841MOL0     C13439   3.402  10.788  10.612 -1.1644 -0.3585 -0.6342
  841MOL0     C13440   3.368  10.641  10.639  0.7172  0.5965  0.3318
  841MOL0     C13441   3.307  10.616  10.771  0.0330  0.2137  0.0969
  841MOL0     C13442   3.183  10.703  10.793  0.1459  0.3944 -0.0508
  841MOL0     C13443   3.088  10.622  10.892 -0.1389 -0.2956  0.4309
  841MOL0    Cl13444   2.997  10.491  10.807 -0.0357  0.3559 -0.0423
  841MOL0     C13445   3.736  10.749  10.071 -0.0627 -0.1412 -0.6243
  841MOL0     C13446   3.837  10.728   9.974  0.0052 -0.0811 -0.2457
  841MOL0     O13447   4.142  10.622   9.967 -0.3622 -0.3343  0.4571
  841MOL0     C13448   4.200  10.718   9.635 -0.4723  0.2364 -0.1887
  841MOL0     C13449   4.294  10.695   9.531  0.2129 -0.1686  0.8930
  841MOL0     N13450   4.933  10.845   9.807  0.1202  0.3837  0.3295
  841MOL0     N13451   4.910  10.856   9.935  0.0063  0.7680  0.7374
  841MOL0     C13452   4.605   9.996  10.764 -0.1135 -0.2295  0.9836
  841MOL0     C13453   4.565   9.910  10.862 -0.2131  0.2905 -0.3260
  841MOL0     C13454   4.257   9.718  11.132  0.7704  0.5298 -0.7524
  841MOL0     C13455   4.308   9.584  11.108 -0.8212 -0.3242 -0.6772
  841MOL0     C13456   4.241   9.475  11.177  0.4228  0.3396 -0.1587
  841MOL0     C13457   4.130   9.497  11.259 -0.6433 -0.2990 -0.7260
  841MOL0     O13458   4.061   9.381  11.305 -0.6231 -0.0074 -0.3294
  841MOL0     C13459   3.954   9.374  11.398 -0.2839 -0.2558 -0.4972
  841MOL0     C13460   3.900   9.229  11.384 -0.6573  0.1007  0.2955
  841MOL0     C13461   3.819   9.201  11.255 -0.0862  0.1444 -1.0798
  841MOL0     C13462   3.768   9.057  11.259  0.2422 -0.0075  0.8830
  841MOL0     C13463   3.742   9.004  11.130 -0.1621  0.4106  0.6659
  841MOL0     C13464   3.730   8.963  11.013 -0.9705  0.2128  0.0711
  841MOL0     C13465   4.084   9.625  11.285  0.2338 -0.1831 -0.3130
  841MOL0     C13466   4.157   9.736  11.234 -0.7349  0.2851 -0.5307
  841MOL0     C13467   4.097   9.871  11.276 -0.5127 -0.0437 -0.0074
  841MOL0     H13468   4.332  10.118  11.012 -0.0090  2.8835 -2.6776
  841MOL0     H13469   4.430  10.267  10.836  0.7827  0.3174  0.2570
  841MOL0     H13470   4.725  10.078  10.544  2.5232  1.6773  0.1159
  841MOL0     H13471   4.579  10.139  10.466 -1.7794  0.7636  1.1216
  841MOL0     H13472   4.824  10.218  10.401 -0.5118  1.4849 -0.3670
  841MOL0     H13473   4.807  10.315  10.549  0.9708  0.8172 -0.0735
  841MOL0     H13474   4.593  10.409  10.437  1.0294 -1.3108 -0.2643
  841MOL0     H13475   4.633  10.321  10.287  1.8460  0.9876 -2.0913
  841MOL0     H13476   4.824  10.522  10.414 -1.9983  0.2896  0.6948
  841MOL0     H13477   4.824  10.459  10.243  1.3879 -1.8664  1.4056
  841MOL0     H13478   4.581  10.588  10.230 -0.0040  3.0142  0.2224
  841MOL0     H13479   4.653  10.690  10.349  1.7041  1.1319 -0.7871
  841MOL0     H13480   4.836  10.746  10.233 -0.0572  1.4667 -0.5408
  841MOL0     H13481   4.801  10.658  10.088  5.2310  2.3002  0.4235
  841MOL0     H13482   4.603  10.843  10.209  2.5928 -1.2342  3.0408
  841MOL0     H13483   4.599  10.763  10.043  1.1946 -0.0300 -0.0007
  841MOL0     H13484   4.650  11.007  10.058 -2.5003 -2.1983 -0.0679
  841MOL0     H13485   4.802  10.967  10.140 -0.2010  2.4356 -1.4868
  841MOL0     H13486   4.670  11.034   9.796  0.2248  0.4981  1.3979
  841MOL0     H13487   4.919  11.006   9.568  0.3089  0.3263  0.3679
  841MOL0     H13488   4.883  10.840   9.542 -1.4353 -1.5324  1.1054
  841MOL0     H13489   4.671  11.082   9.544 -2.4655  0.0726 -1.0298
  841MOL0     H13490   4.724  10.985   9.405  0.6108  1.8741 -0.0558
  841MOL0     H13491   4.507  10.912   9.482 -1.0065  0.2482  1.2538
  841MOL0     H13492   4.572  10.863   9.643 -1.2210  0.8793  0.8621
  841MOL0     H13493   4.708  10.691   9.529  0.0213  0.3818  0.3923
  841MOL0     H13494   4.674  10.738   9.366 -0.3934 -1.6479 -0.1805
  841MOL0     H13495   4.555  10.577   9.700 -0.0477  1.1791  1.4598
  841MOL0     H13496   4.398  10.600   9.879  0.0081 -2.3236 -0.9399
  841MOL0     H13497   4.029  11.003  10.051 -2.7634  1.8337 -2.9201
  841MOL0     H13498   3.881  11.030  10.214  2.4053 -0.5307  0.3702
  841MOL0     H13499   3.745  10.901  10.440 -1.5603 -1.5585 -0.5130
  841MOL0     H13500   3.690  11.043  10.352  0.0735  1.2739  1.2930
  841MOL0     H13501   3.528  10.995  10.547 -3.3292 -0.4275  0.9539
  841MOL0     H13502   3.444  10.962  10.400 -1.2297 -0.3711  3.2380
  841MOL0     H13503   3.478  10.740  10.415  0.0801  1.7235 -0.0951
  841MOL0     H13504   3.598  10.762  10.554  0.1274 -1.0146  0.2689
  841MOL0     H13505   3.310  10.846  10.602 -1.7535 -0.2174  3.7059
  841MOL0     H13506   3.456  10.830  10.697  2.5694 -0.1530 -2.9128
  841MOL0     H13507   3.455  10.578  10.617  0.0571 -0.0684 -0.4661
  841MOL0     H13508   3.295  10.613  10.562  0.3646 -1.2694  1.2979
  841MOL0     H13509   3.280  10.511  10.781  0.4904  0.2094  1.5456
  841MOL0     H13510   3.379  10.637  10.851 -0.8960  2.6257  0.3961
  841MOL0     H13511   3.130  10.726  10.700 -2.1060  0.5658  1.1775
  841MOL0     H13512   3.214  10.799  10.835 -2.7102  1.4528 -0.1130
  841MOL0     H13513   3.137  10.598  10.987 -0.9661  0.6881  1.1257
  841MOL0     H13514   3.010  10.693  10.921  1.3961  1.9613 -0.6453
  841MOL0     H13515   3.642  10.696  10.055 -0.9917  0.4637  2.3027
  841MOL0     H13516   3.825  10.656   9.894 -3.2024 -0.7594  0.7075
  841MOL0     H13517   4.099  10.752   9.612 -0.5780  1.3563  1.7244
  841MOL0     H13518   4.261  10.738   9.437 -0.8024  1.5601  1.9936
  841MOL0     H13519   4.696   9.958  10.719  1.3206  2.6715  1.2023
  841MOL0     H13520   4.622   9.818  10.868 -0.2127  0.3529  1.0179
  841MOL0     H13521   4.398   9.576  11.048 -0.5969  0.9540 -0.5365
  841MOL0     H13522   4.269   9.370  11.167 -2.4436 -0.7515  1.8355
  841MOL0     H13523   3.874   9.446  11.380 -3.7080 -3.8722 -1.3163
  841MOL0     H13524   4.015   9.385  11.488 -1.6294 -4.0079  1.0690
  841MOL0     H13525   3.828   9.210  11.464 -0.4478 -0.2696  0.3987
  841MOL0     H13526   3.988   9.165  11.392 -0.6094  0.1607  0.2532
  841MOL0     H13527   3.890   9.208  11.172  3.1825 -0.1275  1.5294
  841MOL0     H13528   3.736   9.272  11.241  1.8446  2.6584 -0.4402
  841MOL0     H13529   3.836   8.982  11.301  0.8332 -0.7342 -1.2589
  841MOL0     H13530   3.678   9.042  11.320  0.2896 -3.6941  0.2535
  841MOL0     H13531   3.707   8.908  10.924 -0.6778 -0.4570  0.4041
  841MOL0     H13532   3.998   9.650  11.347  3.2151  4.1459  2.6192
  841MOL0     H13533   4.058   9.858  11.377 -1.0774  0.3579 -0.1721
  841MOL0     H13534   4.169   9.954  11.272  0.9332 -1.1432  1.5838
  841MOL0     H13535   4.019   9.889  11.202  0.8198 -1.1875 -1.7704
  842MOL0     O13536   3.843   0.591   4.117 -0.0930 -0.3559 -0.6150
  842MOL0     C13537   3.791   0.599   4.004 -0.9411  0.5378 -0.1437
  842MOL0     O13538   3.832   0.685   3.908 -0.3945 -0.1274  0.1487
  842MOL0     C13539   3.934   0.784   3.919  0.6572 -0.1906 -0.0721
  842MOL0     C13540   3.998   0.826   4.039  1.1010  0.9441  0.2175
  842MOL0     C13541   4.122   0.911   4.038  1.1874  0.0166  0.3138
  842MOL0     C13542   4.177   0.948   3.919 -0.3377  0.3658  0.1212
  842MOL0     O13543   4.300   1.018   3.908  0.1182  0.1009 -0.6736
  842MOL0     C13544   4.383   1.050   4.020  0.3349  0.7705 -0.0762
  842MOL0     C13545   4.449   0.922   4.089  1.0639 -0.5998  0.2026
  842MOL0     C13546   4.496   0.951   4.234 -0.0315  0.5561 -0.1829
  842MOL0     C13547   4.630   1.036   4.232  0.1231  0.2191  0.8363
  842MOL0     C13548   4.640   1.120   4.363  0.5060 -0.4515 -0.0675
  842MOL0     C13549   4.784   1.167   4.387 -0.7258 -0.0741  0.7934
  842MOL0     C13550   4.861   1.239   4.269 -0.9407  0.0761  0.0050
  842MOL0     C13551   4.996   1.301   4.305 -0.2459  0.7674  0.1380
  842MOL0     N13552   5.023   1.426   4.233 -1.4564 -0.1346 -0.0058
  842MOL0     C13553   4.986   1.559   4.262  0.3242 -0.4368 -0.2423
  842MOL0     C13554   5.069   1.625   4.174  0.3354  0.0832  0.1681
  842MOL0     C13555   5.078   1.776   4.182  0.7933 -0.0403 -0.1509
  842MOL0     C13556   4.969   1.844   4.097  1.0679 -0.1395 -0.3283
  842MOL0     C13557   4.993   1.800   3.947  0.8473 -0.9280  0.0230
  842MOL0     C13558   4.863   1.831   3.853  0.0121  0.3990 -0.4679
  842MOL0     O13559   4.745   1.757   3.889 -0.0114 -0.3249  0.5997
  842MOL0     C13560   4.626   1.785   3.827 -0.7137  0.3348 -0.0995
  842MOL0     C13561   4.501   1.765   3.892 -0.4001  0.4008 -0.1521
  842MOL0     C13562   4.378   1.794   3.823 -0.0689  0.5354 -0.0050
  842MOL0     C13563   4.376   1.841   3.688 -0.0406  0.1955  0.4137
  842MOL0     C13564   4.243   1.877   3.624 -0.3895 -0.5450 -0.1916
  842MOL0     O13565   4.254   1.948   3.508  0.7253  0.9990  0.8283
  842MOL0     C13566   4.143   1.951   3.428 -0.3621 -0.5205  0.3431
  842MOL0     C13567   4.024   2.009   3.467 -0.5278 -0.1166  0.3781
  842MOL0     C13568   3.912   2.015   3.372 -0.2037 -0.5382 -0.0358
  842MOL0     C13569   3.922   1.947   3.250  0.0290  0.3688  0.9151
  842MOL0     O13570   3.808   1.949   3.169 -0.1419 -0.1442 -0.4527
  842MOL0     C13571   3.778   1.850   3.079 -1.4183  1.4105  0.4217
  842MOL0     C13572   3.636   1.892   3.030  1.0567  0.8072 -0.2716
  842MOL0     C13573   3.525   1.844   3.123  0.0131  0.1575 -0.0821
  842MOL0     C13574   3.491   1.696   3.091 -0.1764  0.0336  0.6967
  842MOL0     C13575   3.405   1.640   3.197  0.3117 -0.6990  0.3754
  842MOL0     C13576   3.372   1.488   3.185  0.4530  0.0980  0.3188
  842MOL0     C13577   3.301   1.428   3.309 -0.3340  0.5747 -1.0025
  842MOL0     C13578   3.239   1.290   3.267  0.2765 -0.1733 -0.1615
  842MOL0    Cl13579   3.360   1.169   3.271 -0.1935  0.3622 -0.1567
  842MOL0     C13580   4.040   1.876   3.213 -0.4241 -1.2794 -0.5036
  842MOL0     C13581   4.142   1.889   3.301 -1.1968  0.5715 -0.5635
  842MOL0     O13582   4.141   1.831   3.672 -0.6474  0.6848 -0.0234
  842MOL0     C13583   4.497   1.849   3.623 -0.0811  0.8246  0.4403
  842MOL0     C13584   4.617   1.817   3.688 -0.0978 -0.0032 -0.2501
  842MOL0     N13585   5.133   1.551   4.090 -1.1201  0.4718  0.2709
  842MOL0     N13586   5.103   1.423   4.121 -0.0380  0.0702  0.2855
  842MOL0     C13587   4.101   0.919   3.804 -0.4134  0.1984 -0.5852
  842MOL0     C13588   3.984   0.844   3.802 -0.2279 -0.4510  0.8641
  842MOL0     C13589   3.667   0.503   3.975 -0.6843 -1.2149  0.4032
  842MOL0     C13590   3.589   0.535   3.865 -0.5841  0.6180 -0.0325
  842MOL0     C13591   3.476   0.449   3.843 -0.4944 -0.2097 -0.1048
  842MOL0     C13592   3.441   0.345   3.924  1.1807  0.9104  0.1159
  842MOL0     O13593   3.327   0.283   3.904 -0.7718 -0.5570 -0.4974
  842MOL0     C13594   3.322   0.182   3.801 -0.1904  0.3388  0.9740
  842MOL0     C13595   3.181   0.171   3.745 -0.4558 -0.4826  0.0726
  842MOL0     C13596   3.075   0.104   3.839 -0.1988  0.2224 -0.5942
  842MOL0     C13597   2.936   0.149   3.801  0.9934 -0.5887  0.1987
  842MOL0     C13598   2.874   0.086   3.681 -0.5189  0.3594  0.5652
  842MOL0     C13599   2.853   0.028   3.576 -0.0161 -0.5043 -0.6037
  842MOL0     C13600   3.532   0.308   4.022 -0.3731 -1.3407  0.2373
  842MOL0     C13601   3.646   0.386   4.043  0.2977  0.3799 -0.1484
  842MOL0     C13602   3.735   0.325   4.152  0.0894 -0.1247 -0.3448
  842MOL0     H13603   3.955   0.801   4.135 -2.5312 -2.9829 -2.0944
  842MOL0     H13604   4.177   0.935   4.129 -0.5827  2.6730  0.7953
  842MOL0     H13605   4.468   1.111   3.987  0.4285  0.1539 -1.0166
  842MOL0     H13606   4.317   1.109   4.084 -1.1222  2.4625 -2.9670
  842MOL0     H13607   4.534   0.893   4.026 -0.7197 -1.5009 -1.9413
  842MOL0     H13608   4.391   0.829   4.099  2.9741 -1.8564  0.1149
  842MOL0     H13609   4.512   0.854   4.283  0.7339 -0.1822 -1.8233
  842MOL0     H13610   4.425   1.018   4.284 -0.0291  1.9031 -1.9048
  842MOL0     H13611   4.720   0.977   4.212 -1.9978 -2.0532 -3.5317
  842MOL0     H13612   4.627   1.112   4.153  3.1857 -2.3439 -2.0274
  842MOL0     H13613   4.573   1.206   4.362  0.5652 -0.2931  2.4733
  842MOL0     H13614   4.601   1.063   4.448  0.5744  1.4028  1.2777
  842MOL0     H13615   4.780   1.232   4.475  0.5982  0.1953  0.6778
  842MOL0     H13616   4.852   1.086   4.415 -0.8999 -0.6364 -0.3492
  842MOL0     H13617   4.799   1.326   4.244 -0.0763  2.3791  4.6970
  842MOL0     H13618   4.876   1.173   4.183  2.6090 -0.7542  1.0930
  842MOL0     H13619   4.997   1.329   4.411 -2.0023 -1.3026  0.7753
  842MOL0     H13620   5.081   1.234   4.289 -1.8002 -1.5748  1.1515
  842MOL0     H13621   4.926   1.602   4.341  2.8858  2.0046  0.5357
  842MOL0     H13622   5.062   1.797   4.288 -0.6155  0.4864 -0.4529
  842MOL0     H13623   5.181   1.805   4.160  0.8654  0.8403  1.2242
  842MOL0     H13624   4.866   1.812   4.117  0.4308  1.4005 -0.9656
  842MOL0     H13625   4.974   1.953   4.109 -1.7545  0.0456 -0.0220
  842MOL0     H13626   5.013   1.693   3.940 -0.2947 -1.2505  1.3557
  842MOL0     H13627   5.072   1.862   3.903  0.0500 -0.1796 -0.3872
  842MOL0     H13628   4.891   1.816   3.748 -0.3083 -2.5285 -0.2042
  842MOL0     H13629   4.844   1.935   3.883  1.2058  0.3375  0.5677
  842MOL0     H13630   4.485   1.731   3.994 -3.7586 -0.1946 -0.7622
  842MOL0     H13631   4.280   1.777   3.868 -1.0025 -0.7162 -2.3348
  842MOL0     H13632   4.013   2.078   3.551  0.4683  3.7440 -2.4014
  842MOL0     H13633   3.820   2.072   3.379 -0.5230 -0.9050 -1.1676
  842MOL0     H13634   3.845   1.851   2.993 -0.7124 -1.4807  0.7993
  842MOL0     H13635   3.788   1.749   3.121  2.6765  0.6755 -1.8694
  842MOL0     H13636   3.636   2.001   3.032 -0.7575  0.8547  2.6952
  842MOL0     H13637   3.617   1.860   2.927 -0.6798 -3.0015  1.0330
  842MOL0     H13638   3.566   1.860   3.223 -2.4198  0.6959  0.9060
  842MOL0     H13639   3.429   1.897   3.115  0.7519  1.6115  0.3712
  842MOL0     H13640   3.578   1.632   3.076 -1.1279 -0.7915 -1.6650
  842MOL0     H13641   3.442   1.687   2.994  0.1055  0.9778  0.4495
  842MOL0     H13642   3.316   1.704   3.196 -1.7652 -3.3511 -2.2184
  842MOL0     H13643   3.470   1.651   3.284 -0.3501  0.3252  0.7613
  842MOL0     H13644   3.310   1.469   3.096  3.0121 -2.5568 -1.0919
  842MOL0     H13645   3.464   1.428   3.182  0.9429  0.7312  1.7849
  842MOL0     H13646   3.230   1.498   3.354 -1.8629 -1.5353  0.0330
  842MOL0     H13647   3.382   1.408   3.380  4.6506  3.4252 -5.1864
  842MOL0     H13648   3.165   1.264   3.343 -0.5867  2.9980  0.2203
  842MOL0     H13649   3.188   1.299   3.170 -1.2990  2.7884  0.8155
  842MOL0     H13650   4.044   1.828   3.116  0.3104 -2.1904 -0.0411
  842MOL0     H13651   4.231   1.840   3.263 -0.2252  2.4434 -0.8519
  842MOL0     H13652   4.499   1.887   3.521 -2.1164  0.2147  0.1326
  842MOL0     H13653   4.699   1.819   3.617 -0.1921 -0.9762 -0.3927
  842MOL0     H13654   4.149   0.952   3.713  1.8421  0.6679  0.6922
  842MOL0     H13655   3.921   0.831   3.714 -2.5270  0.1133  2.3401
  842MOL0     H13656   3.611   0.623   3.805 -1.2630  0.5634 -0.3718
  842MOL0     H13657   3.410   0.476   3.761 -0.6484  0.9584  0.3814
  842MOL0     H13658   3.362   0.088   3.841  0.2181  0.1598  0.1597
  842MOL0     H13659   3.375   0.212   3.710 -3.0076  0.9900 -0.5726
  842MOL0     H13660   3.181   0.119   3.648  1.4675 -0.2863 -0.0799
  842MOL0     H13661   3.148   0.273   3.726 -1.1846 -0.4425  1.3991
  842MOL0     H13662   3.093   0.135   3.942 -2.2071 -1.5736  0.3641
  842MOL0     H13663   3.088  -0.004   3.837 -0.2538  0.2166 -0.6420
  842MOL0     H13664   2.866   0.116   3.878  0.0792  0.3355 -0.2181
  842MOL0     H13665   2.939   0.256   3.777  3.1273 -1.0132 -1.6873
  842MOL0     H13666   2.814  -0.017   3.487 -0.8676 -0.0530 -0.4702
  842MOL0     H13667   3.516   0.214   4.075 -1.7536 -1.0326  0.4259
  842MOL0     H13668   3.836   0.352   4.122 -0.4030  1.9873 -0.2882
  842MOL0     H13669   3.711   0.376   4.247 -4.6186  1.0595 -1.8652
  842MOL0     H13670   3.718   0.218   4.167  1.8940 -0.1316  2.3163
  843MOL0     O13671  11.230  10.615   8.023  0.2867  0.0334 -0.9377
  843MOL0     C13672  11.246  10.565   7.916 -0.8002 -0.7690  0.4255
  843MOL0     O13673  11.229  10.634   7.807 -0.0961  0.1718  0.1762
  843MOL0     C13674  11.211  10.766   7.807 -1.1802  0.2402 -0.5788
  843MOL0     C13675  11.305  10.853   7.854 -0.6688  0.2653 -0.5451
  843MOL0     C13676  11.293  10.985   7.833 -0.2269 -0.3963 -0.6743
  843MOL0     C13677  11.176  11.044   7.789  0.0916 -0.4755 -0.3749
  843MOL0     O13678  11.161  11.180   7.776 -0.6383  0.1056  0.4392
  843MOL0     C13679  11.235  11.268   7.864 -0.8908 -0.4713  0.8773
  843MOL0     C13680  11.227  11.419   7.815 -0.3983  0.3982  0.8228
  843MOL0     C13681  11.089  11.463   7.797  0.1655  0.8549  0.3085
  843MOL0     C13682  11.067  11.611   7.798  0.1225  0.1790  0.7310
  843MOL0     C13683  10.951  11.646   7.694  0.7271 -0.2939  0.4163
  843MOL0     C13684  10.982  11.630   7.546  0.2139  0.7499 -0.0433
  843MOL0     C13685  11.068  11.745   7.488  0.1517 -1.2567  0.6532
  843MOL0     C13686  11.110  11.733   7.339 -0.0954 -1.0980 -0.2759
  843MOL0     N13687  11.230  11.654   7.333 -0.4549  0.3586 -0.6734
  843MOL0     C13688  11.358  11.701   7.330 -0.7465  0.8990  0.2818
  843MOL0     C13689  11.436  11.587   7.341 -0.0648 -0.3564  0.0729
  843MOL0     C13690  11.586  11.578   7.340 -1.0608 -0.1277 -0.1931
  843MOL0     C13691  11.644  11.449   7.273  0.0827 -0.5035 -0.1223
  843MOL0     C13692  11.792  11.462   7.243  0.7794  0.1758  0.2822
  843MOL0     C13693  11.819  11.373   7.123  1.0786 -0.2661 -0.1081
  843MOL0     O13694  11.754  11.242   7.144 -0.1273  0.4723  0.4184
  843MOL0     C13695  11.740  11.155   7.033 -0.3189 -0.1510 -0.5554
  843MOL0     C13696  11.794  11.183   6.907  0.0416  0.2691  0.0833
  843MOL0     C13697  11.798  11.087   6.809 -0.0715  0.2344 -0.1269
  843MOL0     C13698  11.767  10.953   6.843 -0.1308  0.3811  0.5291
  843MOL0     C13699  11.765  10.848   6.741  0.1025  0.2046  0.4811
  843MOL0     O13700  11.814  10.869   6.608 -0.2784  0.0603 -0.3090
  843MOL0     C13701  11.803  10.770   6.519 -0.0144 -0.4623  0.5405
  843MOL0     C13702  11.899  10.666   6.528  0.1226  0.3720  0.7492
  843MOL0     C13703  11.890  10.552   6.452 -0.3442 -0.5990 -0.3298
  843MOL0     C13704  11.794  10.542   6.358 -0.5446  0.3716  1.3433
  843MOL0     O13705  11.787  10.430   6.280  0.3569  0.0834 -0.7704
  843MOL0     C13706  11.670  10.346   6.286 -0.4494 -0.8960 -0.4466
  843MOL0     C13707  11.704  10.223   6.191 -0.1251 -0.5062 -0.0044
  843MOL0     C13708  11.577  10.163   6.150  0.2518 -0.7676 -0.0658
  843MOL0     C13709  11.490  10.102   6.258  0.4431 -0.2347 -0.2995
  843MOL0     C13710  11.409   9.979   6.218  0.4888  1.2872 -0.4388
  843MOL0     C13711  11.298   9.955   6.324 -0.6551  0.3878 -0.1735
  843MOL0     C13712  11.363   9.919   6.457 -0.2343  0.3112  0.7275
  843MOL0     C13713  11.296   9.805   6.546  0.5608  0.7085  1.0670
  843MOL0    Cl13714  11.116   9.825   6.543 -0.1579  0.4531  0.0287
  843MOL0     C13715  11.701  10.640   6.343 -0.2215  0.9164 -0.1135
  843MOL0     C13716  11.696  10.754   6.426  0.3839 -0.0065  0.9646
  843MOL0     O13717  11.725  10.740   6.780 -0.2872 -0.4674  0.2236
  843MOL0     C13718  11.713  10.925   6.969  0.1985 -0.0311  0.4341
  843MOL0     C13719  11.701  11.025   7.059  0.5742 -0.1907 -0.2328
  843MOL0     N13720  11.358  11.483   7.360  0.0038  0.6651  0.3700
  843MOL0     N13721  11.233  11.522   7.364 -0.0601  0.2398  0.4401
  843MOL0     C13722  11.088  10.960   7.736  0.4921 -0.7746  0.5069
  843MOL0     C13723  11.101  10.820   7.744 -0.0400 -0.3261  0.5861
  843MOL0     C13724  11.251  10.414   7.920  0.2515 -0.6210  0.5993
  843MOL0     C13725  11.325  10.348   8.017 -0.1115  0.2902 -0.3522
  843MOL0     C13726  11.336  10.209   8.030 -0.3260 -0.4874  0.4765
  843MOL0     C13727  11.270  10.134   7.934  0.5767 -0.5331 -1.0533
  843MOL0     O13728  11.284  10.000   7.940  0.1218  0.0365 -1.4405
  843MOL0     C13729  11.313   9.935   8.070  0.2578  0.6090 -0.1909
  843MOL0     C13730  11.233   9.812   8.076 -0.2050  0.3049 -0.4529
  843MOL0     C13731  11.095   9.831   8.131  0.3179 -0.9141 -0.2964
  843MOL0     C13732  11.013   9.924   8.043 -0.8241  0.0243 -0.0211
  843MOL0     C13733  10.871   9.913   8.077 -0.2748  0.7818 -1.3797
  843MOL0     C13734  10.751   9.923   8.092 -0.7815  0.4581  0.5589
  843MOL0     C13735  11.185  10.203   7.840  0.1299  0.2655  0.9616
  843MOL0     C13736  11.181  10.334   7.831  0.6704  1.0374  0.2889
  843MOL0     C13737  11.105  10.403   7.713  0.2410  1.4015 -0.4621
  843MOL0     H13738  11.389  10.796   7.894 -2.2845 -3.8066 -2.4140
  843MOL0     H13739  11.383  11.043   7.850 -1.9956  1.9660  1.2662
  843MOL0     H13740  11.181  11.255   7.958  0.7105 -1.4862  1.7155
  843MOL0     H13741  11.339  11.241   7.886 -0.0654  0.6380 -1.3795
  843MOL0     H13742  11.276  11.412   7.718 -1.6587 -1.3207  0.2670
  843MOL0     H13743  11.280  11.493   7.877  4.3188 -0.5443 -1.5847
  843MOL0     H13744  11.026  11.423   7.877  0.8865  2.0490  1.5065
  843MOL0     H13745  11.053  11.414   7.706 -0.8781 -3.3663  2.6979
  843MOL0     H13746  11.033  11.635   7.899 -2.5964  1.2302 -0.3451
  843MOL0     H13747  11.162  11.645   7.757  0.0874  0.1838  0.6572
  843MOL0     H13748  10.865  11.581   7.717  0.7259 -0.1997  0.6787
  843MOL0     H13749  10.924  11.750   7.713  3.6748  1.3361 -3.1592
  843MOL0     H13750  11.028  11.534   7.523  0.4867  0.9606 -0.3890
  843MOL0     H13751  10.883  11.631   7.499 -0.3451  0.3705  1.0781
  843MOL0     H13752  11.153  11.738   7.557  0.0835 -4.0353  0.5612
  843MOL0     H13753  11.023  11.845   7.489  2.9098  0.1253 -1.1886
  843MOL0     H13754  11.028  11.693   7.278 -2.8109  2.0516  1.0108
  843MOL0     H13755  11.136  11.830   7.296 -0.8227 -1.0706 -0.6731
  843MOL0     H13756  11.383  11.805   7.311  3.0906  0.0576 -0.0027
  843MOL0     H13757  11.628  11.660   7.280  0.7994 -1.2999 -0.5787
  843MOL0     H13758  11.619  11.599   7.443  0.1742  0.8518 -0.7548
  843MOL0     H13759  11.634  11.370   7.347  2.9301  0.7592  1.8203
  843MOL0     H13760  11.586  11.425   7.184  1.9697  1.1261 -1.9109
  843MOL0     H13761  11.846  11.411   7.323 -2.2007 -0.8056  1.8272
  843MOL0     H13762  11.828  11.566   7.241  1.6526 -0.1248 -0.1184
  843MOL0     H13763  11.927  11.360   7.115  1.0118 -0.2782 -1.0934
  843MOL0     H13764  11.784  11.422   7.031 -0.3910  2.2615  1.6644
  843MOL0     H13765  11.829  11.279   6.870 -1.1952 -0.4480 -3.2629
  843MOL0     H13766  11.843  11.117   6.714  5.8233  0.7783  2.4103
  843MOL0     H13767  11.982  10.678   6.597  0.3198  1.8023  0.2906
  843MOL0     H13768  11.957  10.467   6.456  0.3615 -0.0354 -0.0190
  843MOL0     H13769  11.656  10.318   6.391  0.1128  1.8852  0.4471
  843MOL0     H13770  11.578  10.394   6.252 -1.3527 -2.7147 -0.6753
  843MOL0     H13771  11.753  10.241   6.095 -1.7274 -2.8562 -1.3484
  843MOL0     H13772  11.761  10.154   6.254  1.5060  2.4122  1.9798
  843MOL0     H13773  11.528  10.239   6.089  1.7078 -1.7185 -2.5613
  843MOL0     H13774  11.596  10.081   6.080 -2.4180  1.1767 -3.3552
  843MOL0     H13775  11.417  10.178   6.286  0.7874 -0.1765  0.4781
  843MOL0     H13776  11.552  10.075   6.344 -2.5605 -1.6726  1.5700
  843MOL0     H13777  11.471   9.891   6.198 -0.7461  0.2366  0.2465
  843MOL0     H13778  11.360  10.006   6.125 -0.3237  1.3376 -0.0044
  843MOL0     H13779  11.247  10.049   6.347  0.6652  0.4506  2.8862
  843MOL0     H13780  11.222   9.881   6.294  1.1604 -1.3364 -0.7656
  843MOL0     H13781  11.382  10.011   6.514 -2.6936  0.9759  0.5891
  843MOL0     H13782  11.457   9.866   6.436 -1.4531 -2.5040  1.8206
  843MOL0     H13783  11.340   9.710   6.516  1.0498  0.6563  1.9104
  843MOL0     H13784  11.324   9.824   6.650 -1.7622 -1.0327  2.1035
  843MOL0     H13785  11.627  10.627   6.264 -1.8166 -0.4005  1.5183
  843MOL0     H13786  11.626  10.836   6.436  4.0378  3.1486  4.2442
  843MOL0     H13787  11.663  10.829   6.977 -2.2596  1.2056  1.0380
  843MOL0     H13788  11.643  11.000   7.147  0.7838 -1.9785 -0.5736
  843MOL0     H13789  10.996  11.003   7.699  0.3861  0.1838  1.8014
  843MOL0     H13790  11.026  10.754   7.700 -1.8530  1.1435  1.3506
  843MOL0     H13791  11.395  10.407   8.076  2.9405 -2.3477 -1.0202
  843MOL0     H13792  11.414  10.164   8.090  0.3138 -1.5658 -1.1079
  843MOL0     H13793  11.281   9.995   8.156 -0.8749  0.3893 -0.4403
  843MOL0     H13794  11.416   9.901   8.084 -0.2750 -0.7600  0.6388
  843MOL0     H13795  11.291   9.744   8.138 -0.1739  0.5113 -0.2575
  843MOL0     H13796  11.215   9.757   7.982  0.3664 -0.5196 -0.0937
  843MOL0     H13797  11.097   9.863   8.236 -2.9377 -0.7872 -0.1927
  843MOL0     H13798  11.031   9.743   8.116 -1.7075  0.7139 -1.7630
  843MOL0     H13799  11.029  10.032   8.045 -3.7210  0.5322 -0.0206
  843MOL0     H13800  11.022   9.897   7.937 -0.3482  3.7167 -1.0586
  843MOL0     H13801  10.645   9.919   8.108 -0.8054  1.0870  0.5574
  843MOL0     H13802  11.133  10.138   7.770  1.2662  0.2807  0.0707
  843MOL0     H13803  11.171  10.460   7.647  1.0535  0.0478 -0.8726
  843MOL0     H13804  11.048  10.333   7.651 -0.0274  2.9279 -1.9855
  843MOL0     H13805  11.026  10.468   7.754 -2.9262 -3.3407  1.9702
  844MOL0     O13806   3.204   2.532   8.675 -0.2142  0.3348 -0.0949
  844MOL0     C13807   3.232   2.592   8.779 -0.8083  0.2074 -0.0427
  844MOL0     O13808   3.302   2.714   8.787  0.0639  0.2721 -0.2259
  844MOL0     C13809   3.368   2.756   8.673 -0.2595 -0.1806  0.5412
  844MOL0     C13810   3.299   2.778   8.553 -0.1527 -0.4308  0.8432
  844MOL0     C13811   3.376   2.815   8.442  0.6514  0.1292 -0.5952
  844MOL0     C13812   3.498   2.860   8.439 -0.4823 -0.0585 -0.1272
  844MOL0     O13813   3.552   2.925   8.330  0.4236 -0.2805  0.5830
  844MOL0     C13814   3.556   2.849   8.211  0.3751  0.4242  0.0354
  844MOL0     C13815   3.621   2.919   8.091 -0.2167 -0.0531  0.1646
  844MOL0     C13816   3.669   2.811   7.991  0.6769  0.3285  0.5580
  844MOL0     C13817   3.734   2.862   7.864 -0.3231 -0.2712 -0.2926
  844MOL0     C13818   3.868   2.929   7.874 -0.4416  0.5236 -0.3340
  844MOL0     C13819   3.954   2.940   7.757  0.9044 -1.0333  0.3894
  844MOL0     C13820   4.083   3.024   7.787  1.0673  0.0252  0.0598
  844MOL0     C13821   4.150   3.021   7.652  0.4967 -0.0370 -0.0962
  844MOL0     N13822   4.264   3.106   7.645  0.4195 -0.4193 -0.2971
  844MOL0     C13823   4.279   3.240   7.677  0.5258 -0.2712  0.2350
  844MOL0     C13824   4.406   3.260   7.691  0.8291  0.2323  0.5721
  844MOL0     C13825   4.483   3.362   7.780 -0.1872 -0.1191 -0.2688
  844MOL0     C13826   4.619   3.378   7.727 -0.7258 -1.2545  1.0924
  844MOL0     C13827   4.612   3.451   7.593  0.1732 -0.1422 -0.2065
  844MOL0     C13828   4.741   3.491   7.531 -0.7833 -0.6557 -0.1457
  844MOL0     O13829   4.815   3.380   7.494 -0.0686  0.2410 -0.4350
  844MOL0     C13830   4.926   3.350   7.576 -0.3557 -0.1602 -0.2097
  844MOL0     C13831   4.948   3.209   7.597 -0.5828  0.0830 -0.0353
  844MOL0     C13832   5.068   3.163   7.657 -0.6591  0.0661 -0.5407
  844MOL0     C13833   5.151   3.256   7.716  0.5682 -0.3057  0.7588
  844MOL0     C13834   5.283   3.224   7.766 -0.0850  0.4081  0.2664
  844MOL0     O13835   5.309   3.091   7.790 -0.1734  0.1167 -0.9393
  844MOL0     C13836   5.416   3.053   7.855 -0.5930 -0.3263 -0.3135
  844MOL0     C13837   5.497   2.945   7.808  0.5267 -0.4093 -0.2610
  844MOL0     C13838   5.601   2.909   7.896  0.1553  0.7702 -0.3995
  844MOL0     C13839   5.632   2.974   8.011  0.4685 -0.7932 -0.5250
  844MOL0     O13840   5.744   2.942   8.084  0.2118 -0.1283 -0.8875
  844MOL0     C13841   5.792   2.810   8.065 -0.4823 -0.5270  0.4437
  844MOL0     C13842   5.900   2.772   8.165  0.1452  0.9935 -0.1659
  844MOL0     C13843   5.944   2.623   8.152 -0.4743 -0.2519 -0.1604
  844MOL0     C13844   6.052   2.603   8.261  0.1976  0.7804  0.2984
  844MOL0     C13845   6.135   2.473   8.248  0.2282 -0.0574 -0.1514
  844MOL0     C13846   6.267   2.492   8.334 -0.7543 -0.2817  0.9507
  844MOL0     C13847   6.356   2.370   8.331  0.2164  0.2937  0.4223
  844MOL0     C13848   6.487   2.406   8.406  0.2320 -0.1716  1.1638
  844MOL0    Cl13849   6.608   2.276   8.387 -0.0562 -0.0014 -0.1811
  844MOL0     C13850   5.556   3.083   8.056  0.6127 -0.5283  0.2994
  844MOL0     C13851   5.441   3.117   7.979  0.0704  0.4035  0.3327
  844MOL0     O13852   5.367   3.313   7.783 -0.2651 -0.6282  0.4137
  844MOL0     C13853   5.122   3.398   7.701 -0.3043 -0.1325  0.4345
  844MOL0     C13854   5.009   3.448   7.632  0.5973  0.4132 -0.4808
  844MOL0     N13855   4.474   3.142   7.658 -0.2303  0.0224 -0.0231
  844MOL0     N13856   4.390   3.053   7.639  0.1876  0.8535 -0.0527
  844MOL0     C13857   3.566   2.856   8.565  0.0146 -0.4394  0.4439
  844MOL0     C13858   3.502   2.792   8.676 -0.4357  0.0425  1.0084
  844MOL0     C13859   3.173   2.539   8.906 -0.3816 -0.1475  0.9277
  844MOL0     C13860   3.135   2.406   8.901 -0.1305 -0.1356 -0.6045
  844MOL0     C13861   3.082   2.346   9.004  0.4463  0.3506 -0.1570
  844MOL0     C13862   3.042   2.417   9.116  0.2781  0.3457 -0.1848
  844MOL0     O13863   2.954   2.358   9.204  0.4664  0.4229 -0.2783
  844MOL0     C13864   2.844   2.444   9.249 -0.3050 -0.2326 -0.2823
  844MOL0     C13865   2.774   2.377   9.368  0.1312  0.1490 -0.3566
  844MOL0     C13866   2.720   2.231   9.325  0.1186 -0.6262 -0.0446
  844MOL0     C13867   2.639   2.169   9.441  0.3715 -0.0641 -1.7912
  844MOL0     C13868   2.627   2.028   9.422  0.6050  0.8245  0.2094
  844MOL0     C13869   2.623   1.901   9.399 -0.8097 -0.1416  0.2526
  844MOL0     C13870   3.087   2.552   9.127  0.3153  0.8110  0.3169
  844MOL0     C13871   3.145   2.619   9.020  0.9072  0.6181  0.1634
  844MOL0     C13872   3.199   2.759   9.037  0.0220  0.1852 -1.0645
  844MOL0     H13873   3.193   2.758   8.539 -0.0835 -0.0523 -0.3549
  844MOL0     H13874   3.321   2.795   8.350 -0.9976 -0.4639  0.4664
  844MOL0     H13875   3.592   2.747   8.226  0.4687  0.0915 -2.1251
  844MOL0     H13876   3.454   2.835   8.173  1.4079 -0.5345 -2.6037
  844MOL0     H13877   3.695   2.994   8.118 -0.9249  0.5227  0.5497
  844MOL0     H13878   3.539   2.977   8.046  0.1852 -1.0888 -2.0062
  844MOL0     H13879   3.584   2.757   7.949  2.1110 -0.7383 -1.0760
  844MOL0     H13880   3.734   2.741   8.044  1.4449 -0.9523 -1.9013
  844MOL0     H13881   3.739   2.774   7.800 -5.2077 -1.8816  1.1279
  844MOL0     H13882   3.667   2.939   7.824  2.2268  0.8847 -2.6716
  844MOL0     H13883   3.851   3.029   7.915  0.9828  0.1086  1.4420
  844MOL0     H13884   3.923   2.864   7.944 -0.0417  0.5078 -0.6612
  844MOL0     H13885   3.977   2.842   7.715  1.6263 -1.6935  2.2434
  844MOL0     H13886   3.892   2.991   7.682  2.9739 -1.7151 -1.9155
  844MOL0     H13887   4.136   2.985   7.874  0.8385  1.2197  0.7558
  844MOL0     H13888   4.067   3.128   7.818  1.2165 -0.5284  2.1719
  844MOL0     H13889   4.181   2.918   7.629 -0.4656 -0.5111  0.6356
  844MOL0     H13890   4.082   3.036   7.568 -0.3874 -0.7200  0.4750
  844MOL0     H13891   4.196   3.303   7.709  0.8700  0.4978 -0.3632
  844MOL0     H13892   4.438   3.461   7.792  1.9613  0.5883  3.3278
  844MOL0     H13893   4.485   3.317   7.880  0.4311 -0.5069 -0.4523
  844MOL0     H13894   4.673   3.430   7.807  1.5020 -3.6506  1.2704
  844MOL0     H13895   4.678   3.287   7.709 -1.4376 -1.6040  0.4706
  844MOL0     H13896   4.558   3.543   7.618  0.0510 -0.6599  1.5967
  844MOL0     H13897   4.548   3.395   7.525  0.2067  1.7231 -1.8790
  844MOL0     H13898   4.786   3.567   7.597  0.3984  0.3403 -2.0162
  844MOL0     H13899   4.711   3.543   7.439 -0.1897  0.2446  0.1491
  844MOL0     H13900   4.884   3.141   7.542 -0.0266 -0.0721 -0.5039
  844MOL0     H13901   5.098   3.059   7.647 -1.7685 -0.2499 -0.7298
  844MOL0     H13902   5.474   2.891   7.717 -0.2734  0.9094 -0.8683
  844MOL0     H13903   5.660   2.823   7.867 -1.0419  0.1773 -1.1986
  844MOL0     H13904   5.713   2.735   8.062  1.4597 -2.6288 -0.3746
  844MOL0     H13905   5.842   2.797   7.969 -2.1552 -1.5440 -0.3160
  844MOL0     H13906   5.995   2.823   8.147  2.4629 -2.6820  0.5593
  844MOL0     H13907   5.865   2.795   8.266 -1.1925  1.2699 -0.6742
  844MOL0     H13908   5.858   2.556   8.167 -1.9041  1.5623  0.0580
  844MOL0     H13909   5.982   2.614   8.050 -1.6809 -0.9091 -0.5808
  844MOL0     H13910   6.011   2.608   8.362 -0.9647  0.1961 -0.1240
  844MOL0     H13911   6.124   2.685   8.252  0.7874  0.5858  2.6555
  844MOL0     H13912   6.165   2.479   8.143 -0.3381  0.3146 -0.2989
  844MOL0     H13913   6.077   2.382   8.262  1.0403 -0.5241  0.2237
  844MOL0     H13914   6.324   2.578   8.298  0.3726 -0.1216  2.9712
  844MOL0     H13915   6.238   2.507   8.438 -1.6694  0.8424  0.5489
  844MOL0     H13916   6.365   2.356   8.223 -0.5253  1.4697  0.1838
  844MOL0     H13917   6.303   2.287   8.377 -1.2982  0.6989 -0.5456
  844MOL0     H13918   6.536   2.499   8.376 -1.0117  1.4079  3.7413
  844MOL0     H13919   6.467   2.431   8.511 -2.1036  4.0445 -0.0486
  844MOL0     H13920   5.566   3.136   8.150 -3.0096  2.7580 -0.8801
  844MOL0     H13921   5.366   3.181   8.023 -0.0098  0.7429 -0.2793
  844MOL0     H13922   5.198   3.464   7.743 -0.7158 -0.0727  1.1042
  844MOL0     H13923   4.986   3.553   7.615 -0.5236  0.2273 -0.1817
  844MOL0     H13924   3.662   2.907   8.574  0.4494 -1.1724  0.0274
  844MOL0     H13925   3.550   2.785   8.774  1.0043 -1.2595  0.2736
  844MOL0     H13926   3.161   2.343   8.817 -1.1679  2.1173 -2.7213
  844MOL0     H13927   3.065   2.238   9.000 -2.9878  0.7674  0.1893
  844MOL0     H13928   2.776   2.469   9.166  0.8946 -0.5612 -1.4037
  844MOL0     H13929   2.890   2.537   9.283  4.0570 -2.1260 -0.3670
  844MOL0     H13930   2.703   2.449   9.410 -1.0793 -0.0704 -1.9056
  844MOL0     H13931   2.836   2.357   9.456 -1.2509  0.0502  0.6398
  844MOL0     H13932   2.803   2.162   9.304 -0.1521 -0.3994 -2.1238
  844MOL0     H13933   2.666   2.235   9.230  0.0271 -1.4600 -0.0413
  844MOL0     H13934   2.676   2.208   9.537 -1.4369  0.3701 -1.2213
  844MOL0     H13935   2.533   2.197   9.446 -0.0931 -1.7837  1.7948
  844MOL0     H13936   2.620   1.796   9.381 -1.0710 -1.1307  4.9167
  844MOL0     H13937   3.070   2.603   9.221  1.3912 -2.7401  2.6471
  844MOL0     H13938   3.180   2.789   9.140  4.0379 -2.0430  0.5447
  844MOL0     H13939   3.307   2.767   9.022 -0.1617 -0.0552 -2.7954
  844MOL0     H13940   3.157   2.836   8.971  0.0005  1.2074  0.1135
  845MOL0     O13941   2.745   6.044  10.169 -0.2042  0.7783 -0.3466
  845MOL0     C13942   2.799   6.154  10.183 -0.7985  0.3058 -0.0819
  845MOL0     O13943   2.875   6.217  10.085 -0.4793  0.2561 -0.2375
  845MOL0     C13944   2.851   6.174   9.966 -0.1824 -0.6194  0.1159
  845MOL0     C13945   2.945   6.094   9.902 -0.1063  0.4328 -0.6669
  845MOL0     C13946   2.926   6.041   9.781 -0.1621 -0.9229  1.0158
  845MOL0     C13947   2.808   6.074   9.704 -0.1196  0.6293 -0.0656
  845MOL0     O13948   2.808   6.023   9.575 -0.0163 -0.7544 -0.1127
  845MOL0     C13949   2.677   5.968   9.528  0.1415 -0.6252 -0.7619
  845MOL0     C13950   2.617   6.081   9.441 -0.2182 -0.8125  1.0170
  845MOL0     C13951   2.707   6.127   9.328 -0.9023 -0.4360  1.5183
  845MOL0     C13952   2.660   6.264   9.268  0.4281 -0.3725 -1.4648
  845MOL0     C13953   2.746   6.291   9.151  0.6792 -1.0509  0.5127
  845MOL0     C13954   2.767   6.442   9.125 -0.7279  0.2947  0.1632
  845MOL0     C13955   2.783   6.459   8.978  1.0403  0.4788  0.0008
  845MOL0     C13956   2.920   6.436   8.924 -0.2945 -0.4003 -0.5405
  845MOL0     N13957   3.026   6.510   8.994  0.4187  0.0306  0.5248
  845MOL0     C13958   3.063   6.641   8.949 -0.0908  0.1586 -0.2997
  845MOL0     C13959   3.177   6.672   9.017 -0.1580  0.6319  0.1999
  845MOL0     C13960   3.245   6.806   8.999 -0.1155 -0.2482 -0.3904
  845MOL0     C13961   3.364   6.814   9.084 -0.9170 -0.3294 -0.6216
  845MOL0     C13962   3.449   6.936   9.052  0.1344 -0.8152 -0.2010
  845MOL0     C13963   3.408   7.071   9.102  0.0220  0.5347 -0.3648
  845MOL0     O13964   3.495   7.163   9.047 -0.6200 -0.1167  0.1347
  845MOL0     C13965   3.487   7.288   9.082  0.0309 -0.1796  0.0642
  845MOL0     C13966   3.576   7.372   9.026 -0.8538  0.0279  0.1753
  845MOL0     C13967   3.571   7.506   9.033 -0.4939 -1.2622 -0.5249
  845MOL0     C13968   3.485   7.569   9.128 -0.1480 -0.0609 -0.1868
  845MOL0     C13969   3.482   7.711   9.128  1.2264 -0.5129 -0.2900
  845MOL0     O13970   3.553   7.786   9.038 -0.2191  0.0954 -0.3450
  845MOL0     C13971   3.516   7.898   8.987 -0.9402 -0.9669  0.3530
  845MOL0     C13972   3.389   7.927   8.940  0.6051 -0.8356  0.2497
  845MOL0     C13973   3.350   8.044   8.884  0.9465  0.3607 -0.1763
  845MOL0     C13974   3.447   8.149   8.876 -0.2227  0.7962 -0.3682
  845MOL0     O13975   3.387   8.265   8.834  0.7656 -0.9180 -0.7837
  845MOL0     C13976   3.471   8.392   8.827 -0.3237  0.0977 -0.1743
  845MOL0     C13977   3.404   8.519   8.761  0.0561  0.2225 -0.5170
  845MOL0     C13978   3.267   8.541   8.835 -0.1780  0.0924  0.3166
  845MOL0     C13979   3.192   8.656   8.789  0.2819 -0.5394  0.1913
  845MOL0     C13980   3.170   8.663   8.639 -0.7670  0.6109 -0.1860
  845MOL0     C13981   3.091   8.788   8.594  0.5432  0.1170  0.0111
  845MOL0     C13982   3.151   8.926   8.616 -0.1182 -0.1456  0.4346
  845MOL0     C13983   3.047   9.028   8.597  0.9518 -0.4149  0.9822
  845MOL0    Cl13984   3.003   9.023   8.424 -0.0472 -0.3025  0.3289
  845MOL0     C13985   3.580   8.130   8.919  0.5236  0.0369 -0.8833
  845MOL0     C13986   3.610   8.004   8.973  0.0256  0.0141 -0.1886
  845MOL0     O13987   3.392   7.756   9.197  0.0253  0.0729  0.1954
  845MOL0     C13988   3.393   7.482   9.200 -1.0342 -0.4845  0.4684
  845MOL0     C13989   3.391   7.345   9.164  0.1184 -0.7146  0.1463
  845MOL0     N13990   3.200   6.560   9.093 -0.3904  0.3440 -0.6156
  845MOL0     N13991   3.114   6.466   9.079 -0.5104 -0.2476 -0.7243
  845MOL0     C13992   2.718   6.160   9.765 -1.1070 -0.4142  0.2638
  845MOL0     C13993   2.735   6.211   9.897 -0.4140 -0.5160 -0.1890
  845MOL0     C13994   2.768   6.231  10.308  0.5534 -0.7990  0.1921
  845MOL0     C13995   2.734   6.166  10.426  1.4648  0.2431  0.9953
  845MOL0     C13996   2.695   6.235  10.540 -0.4438 -0.0279 -0.8354
  845MOL0     C13997   2.703   6.378  10.543  0.0806  0.0004  0.4133
  845MOL0     O13998   2.680   6.451  10.658  0.0021 -0.1778  0.0614
  845MOL0     C13999   2.597   6.401  10.762 -0.2340 -0.5212  0.2329
  845MOL0     C14000   2.595   6.507  10.876 -0.1849 -0.8067  0.1614
  845MOL0     C14001   2.554   6.448  11.013 -0.0570  0.6556  0.2809
  845MOL0     C14002   2.530   6.563  11.116  0.1653  0.8488  0.1693
  845MOL0     C14003   2.523   6.495  11.247  0.3761  0.0448  0.0536
  845MOL0     C14004   2.512   6.460  11.365  0.7238  0.5158  0.5666
  845MOL0     C14005   2.754   6.445  10.430  0.2753 -0.7006 -1.1758
  845MOL0     C14006   2.771   6.378  10.315  1.2137  0.1153  0.1218
  845MOL0     C14007   2.775   6.468  10.198 -0.9113 -0.4446  0.2533
  845MOL0     H14008   3.042   6.077   9.949  0.1101  2.6090 -0.2496
  845MOL0     H14009   3.006   5.975   9.749  1.9777  0.1329  3.7477
  845MOL0     H14010   2.705   5.879   9.471 -1.4676 -2.3975  1.0821
  845MOL0     H14011   2.615   5.939   9.613  0.7685 -2.3100 -0.8491
  845MOL0     H14012   2.579   6.167   9.497 -0.8537 -0.5721  0.2323
  845MOL0     H14013   2.531   6.033   9.392 -0.9469  1.1565  0.2863
  845MOL0     H14014   2.701   6.042   9.260 -1.6380 -0.6336  1.8250
  845MOL0     H14015   2.815   6.136   9.344 -0.3593 -0.7947 -1.4212
  845MOL0     H14016   2.552   6.262   9.251  0.0840  0.9111  0.3325
  845MOL0     H14017   2.671   6.346   9.339  2.2733 -1.5397 -0.3303
  845MOL0     H14018   2.842   6.238   9.159  2.8718  2.5549  0.1138
  845MOL0     H14019   2.694   6.250   9.064 -1.6164  0.0803  1.2683
  845MOL0     H14020   2.687   6.491   9.181 -2.5951 -1.6109 -0.6885
  845MOL0     H14021   2.852   6.485   9.178 -1.1372  1.0420  0.2170
  845MOL0     H14022   2.763   6.562   8.949 -2.6860 -1.1303 -4.6567
  845MOL0     H14023   2.698   6.403   8.936  0.6915 -2.3653  3.9045
  845MOL0     H14024   2.963   6.336   8.926  2.3783  0.4513 -4.3869
  845MOL0     H14025   2.907   6.460   8.818 -1.5052 -1.6616 -0.6940
  845MOL0     H14026   3.006   6.703   8.880  0.7568 -0.8330 -1.9643
  845MOL0     H14027   3.278   6.820   8.896  0.3808  1.0062 -0.0774
  845MOL0     H14028   3.173   6.886   9.017  0.5043  0.3190 -0.3998
  845MOL0     H14029   3.339   6.809   9.191  0.3057  1.3546 -0.2180
  845MOL0     H14030   3.429   6.728   9.063  1.4538  1.1629  0.1516
  845MOL0     H14031   3.471   6.956   8.947 -0.7053  0.5129 -0.1436
  845MOL0     H14032   3.548   6.910   9.092 -0.2643 -0.8763  0.7790
  845MOL0     H14033   3.417   7.083   9.210  2.3729  1.3383 -0.5782
  845MOL0     H14034   3.306   7.091   9.069 -0.5000 -1.8316 -0.3381
  845MOL0     H14035   3.646   7.324   8.959 -0.6611 -0.8297  0.9606
  845MOL0     H14036   3.647   7.572   8.994  2.7265 -2.6007  2.9217
  845MOL0     H14037   3.320   7.843   8.933  2.2725 -2.1521 -1.5906
  845MOL0     H14038   3.244   8.061   8.866  0.6341 -0.1022  1.1166
  845MOL0     H14039   3.508   8.420   8.926 -0.5789  0.3032 -0.1354
  845MOL0     H14040   3.566   8.377   8.774 -1.0478  1.2781 -1.9186
  845MOL0     H14041   3.467   8.608   8.769 -1.6101  1.6667 -2.6247
  845MOL0     H14042   3.402   8.511   8.652 -1.5362  1.1021 -0.5732
  845MOL0     H14043   3.209   8.449   8.821 -2.2706  1.2770  0.6844
  845MOL0     H14044   3.283   8.563   8.941  0.4933  1.3433 -0.0255
  845MOL0     H14045   3.261   8.737   8.818  2.8738 -2.6981  0.4502
  845MOL0     H14046   3.094   8.665   8.837  0.4728 -1.4518  0.7612
  845MOL0     H14047   3.111   8.575   8.615 -1.6080  1.5280 -1.6488
  845MOL0     H14048   3.265   8.663   8.585 -0.4542 -1.8580  0.2463
  845MOL0     H14049   3.086   8.778   8.485  1.8478 -1.6408  0.0585
  845MOL0     H14050   2.993   8.777   8.641  0.6019  1.2746  0.4495
  845MOL0     H14051   3.237   8.935   8.549 -0.2076 -0.8029  0.2279
  845MOL0     H14052   3.192   8.929   8.718 -3.4770  1.8835  1.8796
  845MOL0     H14053   2.956   9.009   8.654  0.0344 -0.4328 -0.4255
  845MOL0     H14054   3.079   9.129   8.624 -0.0534  0.1059  0.2856
  845MOL0     H14055   3.650   8.209   8.896  1.8254 -0.6896  0.4661
  845MOL0     H14056   3.712   7.978   9.000 -0.0506 -0.0440  0.0427
  845MOL0     H14057   3.333   7.531   9.275  0.4240  1.1530  0.6324
  845MOL0     H14058   3.307   7.295   9.211  1.1944 -2.0319  0.7779
  845MOL0     H14059   2.627   6.193   9.716 -0.9801  0.2015  0.4306
  845MOL0     H14060   2.665   6.272   9.953  0.2878 -3.2822  4.2217
  845MOL0     H14061   2.736   6.057  10.427  0.9521  0.2043 -0.5813
  845MOL0     H14062   2.666   6.172  10.624  0.6197  0.9307  0.3056
  845MOL0     H14063   2.635   6.307  10.803 -0.0561  0.0148  1.3107
  845MOL0     H14064   2.494   6.385  10.728 -0.5976  0.1348  1.0031
  845MOL0     H14065   2.520   6.584  10.852  0.3786 -0.0924  0.6441
  845MOL0     H14066   2.689   6.559  10.893 -2.4705  3.8277  0.1286
  845MOL0     H14067   2.636   6.389  11.054  0.3745  0.3419 -0.9866
  845MOL0     H14068   2.467   6.382  11.006  1.8697 -1.8878 -1.2597
  845MOL0     H14069   2.604   6.643  11.110 -0.6613  1.5231 -2.8455
  845MOL0     H14070   2.441   6.619  11.089  0.7689  1.1200 -1.3996
  845MOL0     H14071   2.501   6.421  11.464  0.1113 -0.8876 -0.0256
  845MOL0     H14072   2.798   6.543  10.423  2.1385 -1.2650  1.2471
  845MOL0     H14073   2.877   6.507  10.195 -0.6831 -0.8214  1.8384
  845MOL0     H14074   2.754   6.421  10.102  0.1970 -0.3711 -0.0468
  845MOL0     H14075   2.706   6.552  10.206  0.4167  0.6276  0.9576
  846MOL0     O14076   0.746   9.155   7.240 -0.0032  0.0306  0.0676
  846MOL0     C14077   0.869   9.140   7.260  0.6922  0.0622 -0.1642
  846MOL0     O14078   0.967   9.205   7.193  0.8756  0.5241  0.2459
  846MOL0     C14079   0.950   9.244   7.058  0.5002  0.6436  0.0745
  846MOL0     C14080   0.830   9.265   6.982 -0.4950  0.0049 -0.5141
  846MOL0     C14081   0.852   9.313   6.850 -0.2519  0.5278  0.7585
  846MOL0     C14082   0.985   9.330   6.789 -0.1513 -0.3640 -0.4221
  846MOL0     O14083   1.002   9.366   6.657 -0.0684 -0.9913  0.0315
  846MOL0     C14084   0.939   9.490   6.619  0.5432  0.3406 -0.1891
  846MOL0     C14085   1.021   9.601   6.680 -0.1729 -0.1484 -0.6750
  846MOL0     C14086   0.998   9.740   6.631  0.2651  0.5490  0.7995
  846MOL0     C14087   1.032   9.842   6.737 -0.1189  0.5304 -0.3073
  846MOL0     C14088   0.986   9.973   6.697  0.0768  0.4149  0.0404
  846MOL0     C14089   0.852  10.020   6.757 -0.1966 -0.1349  0.3388
  846MOL0     C14090   0.831  10.175   6.715 -0.6694 -0.0763 -0.0370
  846MOL0     C14091   0.933  10.280   6.759 -0.1407 -0.1051  0.2657
  846MOL0     N14092   0.945  10.314   6.905  0.3189  0.7483 -0.2211
  846MOL0     C14093   0.981  10.212   6.989 -0.1078  0.3789 -0.0628
  846MOL0     C14094   0.925  10.245   7.107 -0.6451  0.1797 -0.3420
  846MOL0     C14095   0.948  10.158   7.226  1.2138 -0.2981  0.0342
  846MOL0     C14096   0.828  10.073   7.282  0.2692 -0.1853 -0.5278
  846MOL0     C14097   0.832   9.933   7.219  0.6917  0.6989 -0.3098
  846MOL0     C14098   0.957   9.851   7.258  0.7152 -0.3250  0.1490
  846MOL0     O14099   0.929   9.711   7.241  0.1597  0.1929 -0.4118
  846MOL0     C14100   0.929   9.629   7.349  0.2946 -0.3378  0.0896
  846MOL0     C14101   0.830   9.531   7.348  0.1289  0.3594 -0.1558
  846MOL0     C14102   0.820   9.442   7.464  0.0916 -0.1544  0.2805
  846MOL0     C14103   0.918   9.445   7.562 -0.5548 -0.0299 -0.5981
  846MOL0     C14104   0.910   9.349   7.672 -0.1906 -0.9911  0.4119
  846MOL0     O14105   0.810   9.253   7.671 -0.8523 -0.5717 -0.3022
  846MOL0     C14106   0.791   9.187   7.789  0.3736 -0.0644  0.1850
  846MOL0     C14107   0.668   9.186   7.845  0.0073  0.2228 -0.4711
  846MOL0     C14108   0.642   9.136   7.966  0.1395  0.3474 -0.1094
  846MOL0     C14109   0.742   9.066   8.037 -0.4020 -0.3178  0.5743
  846MOL0     O14110   0.711   9.020   8.163  0.3203 -0.0888  0.3066
  846MOL0     C14111   0.799   8.945   8.243 -0.0770 -0.4835  0.3146
  846MOL0     C14112   0.731   8.901   8.374  0.5455  0.4537  0.8754
  846MOL0     C14113   0.601   8.820   8.347  0.0898  0.4670 -0.2423
  846MOL0     C14114   0.630   8.668   8.297  0.1204  0.0265  1.1853
  846MOL0     C14115   0.506   8.597   8.240 -0.2522 -0.2530 -0.7561
  846MOL0     C14116   0.442   8.665   8.117  0.9735 -0.3029  0.2570
  846MOL0     C14117   0.521   8.673   7.984 -0.0729 -0.4582  0.3406
  846MOL0     C14118   0.502   8.808   7.924 -0.6813 -0.3063  0.3763
  846MOL0    Cl14119   0.565   8.825   7.755  0.2770 -0.3174 -0.4201
  846MOL0     C14120   0.863   9.045   7.974  0.0860 -0.5342  0.4180
  846MOL0     C14121   0.890   9.105   7.848 -0.2249 -0.6171  1.5044
  846MOL0     O14122   0.995   9.352   7.761 -1.1252 -0.3223 -0.2048
  846MOL0     C14123   1.020   9.543   7.554  0.0176  0.6023 -0.0753
  846MOL0     C14124   1.020   9.632   7.448 -0.0256 -0.0933 -0.7909
  846MOL0     N14125   0.856  10.359   7.097  0.7903 -0.2966 -0.6401
  846MOL0     N14126   0.868  10.404   6.976  0.0118 -0.4359  0.2121
  846MOL0     C14127   1.093   9.294   6.867  0.5840  0.6845 -1.1686
  846MOL0     C14128   1.069   9.258   6.998 -1.2592  0.7693  0.5482
  846MOL0     C14129   0.904   9.061   7.383  1.0463 -0.6722 -0.9063
  846MOL0     C14130   0.809   8.978   7.442  0.7376 -0.3661  1.0326
  846MOL0     C14131   0.838   8.898   7.552 -0.1049  0.6597 -0.2903
  846MOL0     C14132   0.979   8.900   7.606  0.0916  0.8412 -0.8021
  846MOL0     O14133   1.017   8.824   7.711 -1.0734 -0.6192  0.9205
  846MOL0     C14134   0.921   8.793   7.813  0.1228 -0.1538 -0.8330
  846MOL0     C14135   0.879   8.643   7.816 -0.2103 -0.8463  0.4043
  846MOL0     C14136   1.003   8.557   7.802 -0.7899  0.2165 -0.8805
  846MOL0     C14137   0.983   8.399   7.819 -0.1888 -0.6079 -0.8636
  846MOL0     C14138   1.113   8.330   7.793  0.8937  0.1593 -0.9090
  846MOL0     C14139   1.229   8.290   7.786  0.3307  0.0169  0.2985
  846MOL0     C14140   1.069   8.985   7.544  0.0054  1.2007 -1.0836
  846MOL0     C14141   1.036   9.065   7.437  0.4710 -0.4320 -0.2910
  846MOL0     C14142   1.143   9.160   7.400  0.5559 -0.0898 -0.4827
  846MOL0     H14143   0.729   9.236   7.010 -2.1449  3.1626 -2.5436
  846MOL0     H14144   0.764   9.340   6.793  0.4082 -2.5657 -2.0648
  846MOL0     H14145   0.941   9.497   6.509  1.7081 -1.8691 -0.3670
  846MOL0     H14146   0.837   9.490   6.658  0.9230 -1.9618  0.9786
  846MOL0     H14147   1.128   9.580   6.671  0.3001  1.4877  0.5876
  846MOL0     H14148   1.006   9.601   6.788 -2.0916 -0.4091 -0.8927
  846MOL0     H14149   0.890   9.749   6.613  0.0808 -2.4018 -0.0762
  846MOL0     H14150   1.052   9.760   6.538  0.3593 -3.4444 -0.1724
  846MOL0     H14151   0.993   9.821   6.837  3.6184  2.0643  1.6845
  846MOL0     H14152   1.140   9.851   6.754 -0.1052 -1.2686  0.8146
  846MOL0     H14153   1.059  10.044   6.738  1.4385 -1.5856  1.2261
  846MOL0     H14154   0.984   9.986   6.588 -1.1751  2.5517  0.2534
  846MOL0     H14155   0.765   9.963   6.724 -0.9014  0.4546  1.1430
  846MOL0     H14156   0.848  10.013   6.866 -0.6369 -1.8095  0.2369
  846MOL0     H14157   0.735  10.213   6.749  0.2247  0.3138  2.2577
  846MOL0     H14158   0.831  10.179   6.606  1.8723 -4.0348 -0.4127
  846MOL0     H14159   1.035  10.258   6.726  0.0676  0.7028  0.3402
  846MOL0     H14160   0.900  10.371   6.708  1.0601  0.6624  0.8109
  846MOL0     H14161   1.043  10.129   6.957  2.5156  2.1234  0.2240
  846MOL0     H14162   1.028  10.088   7.199  0.4169 -1.5902  0.8895
  846MOL0     H14163   0.985  10.222   7.307  0.9510 -0.5599  0.3680
  846MOL0     H14164   0.845  10.063   7.389  0.5799 -0.6041 -0.6112
  846MOL0     H14165   0.728  10.103   7.250  0.3147  0.2953 -0.2192
  846MOL0     H14166   0.810   9.920   7.112 -4.4238 -1.5602  0.6723
  846MOL0     H14167   0.748   9.880   7.266 -0.3153  2.0396 -0.5564
  846MOL0     H14168   0.974   9.870   7.364  0.9923  0.2170  0.0145
  846MOL0     H14169   1.040   9.882   7.194  1.3865  1.0107  1.5979
  846MOL0     H14170   0.765   9.510   7.264  1.9539 -0.2732 -1.4490
  846MOL0     H14171   0.743   9.365   7.463  0.5540 -0.6409  1.1228
  846MOL0     H14172   0.591   9.252   7.806 -0.6274  0.0954  0.5142
  846MOL0     H14173   0.546   9.160   8.010 -0.1249  1.9442 -1.4262
  846MOL0     H14174   0.845   8.861   8.192 -2.8712 -0.5940 -2.3477
  846MOL0     H14175   0.882   9.011   8.269 -0.3349 -1.3307  3.6909
  846MOL0     H14176   0.795   8.849   8.446 -0.4010  1.1309  2.2453
  846MOL0     H14177   0.710   8.989   8.436  3.2149  1.2978  0.7293
  846MOL0     H14178   0.544   8.826   8.440 -1.3050  1.8722 -1.1236
  846MOL0     H14179   0.545   8.872   8.268 -0.1885 -1.1547 -1.1600
  846MOL0     H14180   0.651   8.600   8.380 -2.0919 -1.5296  0.5589
  846MOL0     H14181   0.713   8.665   8.225  0.6112 -0.0457  1.7405
  846MOL0     H14182   0.430   8.605   8.318 -0.2074  4.1405 -0.9196
  846MOL0     H14183   0.531   8.492   8.221 -1.4429 -0.6745 -0.0500
  846MOL0     H14184   0.360   8.597   8.089  1.3418 -1.1667  1.1976
  846MOL0     H14185   0.393   8.758   8.145 -1.2997  0.1943 -4.4195
  846MOL0     H14186   0.502   8.592   7.913  0.0815  0.2422 -0.5285
  846MOL0     H14187   0.629   8.671   8.000  0.1557 -2.2378 -1.0759
  846MOL0     H14188   0.394   8.822   7.932 -1.0345 -2.2513 -0.3782
  846MOL0     H14189   0.543   8.894   7.977 -0.4930  0.6668 -1.2869
  846MOL0     H14190   0.944   8.988   8.019  0.4603 -0.6323 -0.3635
  846MOL0     H14191   0.990   9.106   7.805  0.1366  1.6701  2.2288
  846MOL0     H14192   1.078   9.552   7.646 -0.2519  3.4382 -0.1012
  846MOL0     H14193   1.104   9.699   7.465  1.2152 -1.5426 -0.9653
  846MOL0     H14194   1.186   9.315   6.815  1.0882  1.6606  0.0808
  846MOL0     H14195   1.158   9.246   7.058 -0.0185  1.4182 -1.0926
  846MOL0     H14196   0.707   8.977   7.405  0.9541  0.1705  0.3985
  846MOL0     H14197   0.764   8.821   7.571 -0.1452  0.9909  1.0410
  846MOL0     H14198   0.833   8.857   7.802  1.1573  1.5685  0.4244
  846MOL0     H14199   0.975   8.807   7.907  0.6795 -1.4075 -0.9429
  846MOL0     H14200   0.796   8.622   7.747 -1.8541 -0.0627  2.0540
  846MOL0     H14201   0.828   8.621   7.910 -2.8990  1.2835 -0.4226
  846MOL0     H14202   1.056   8.588   7.892 -1.7196 -0.0856 -0.2127
  846MOL0     H14203   1.065   8.565   7.712  1.2743 -3.6201 -0.0770
  846MOL0     H14204   0.960   8.385   7.925 -0.2362  0.7982 -0.6676
  846MOL0     H14205   0.891   8.380   7.762 -1.8128 -0.5703  1.5767
  846MOL0     H14206   1.333   8.272   7.770  0.5038  2.2779 -1.8686
  846MOL0     H14207   1.166   8.980   7.592  0.6975  1.3723 -2.4372
  846MOL0     H14208   1.227   9.168   7.470  0.5055  1.0123 -0.5384
  846MOL0     H14209   1.185   9.136   7.302 -0.5652  0.3480 -1.0896
  846MOL0     H14210   1.094   9.257   7.392 -3.9405 -2.2258 -1.9078
  847MOL0     O14211   7.253   4.014  10.961  0.3543 -0.7864  0.3449
  847MOL0     C14212   7.210   3.915  10.899  0.8422 -0.1816 -0.2945
  847MOL0     O14213   7.273   3.803  10.889  0.2418 -0.0539 -0.0424
  847MOL0     C14214   7.374   3.752  10.971  0.6713 -0.3790  0.1452
  847MOL0     C14215   7.400   3.793  11.103 -0.3943 -0.2194  0.3643
  847MOL0     C14216   7.511   3.744  11.170 -0.1791  0.2736  0.5320
  847MOL0     C14217   7.595   3.648  11.110  0.5126 -0.1485  0.2851
  847MOL0     O14218   7.693   3.595  11.185 -0.1435 -0.2554  0.0072
  847MOL0     C14219   7.704   3.453  11.183 -0.0530 -0.8434 -0.6239
  847MOL0     C14220   7.778   3.397  11.301  0.3775 -0.3328 -0.0350
  847MOL0     C14221   7.702   3.409  11.423 -0.6472 -0.3341  0.1129
  847MOL0     C14222   7.788   3.382  11.548  0.9032  0.2691 -0.6920
  847MOL0     C14223   7.720   3.421  11.679  0.0961 -0.1879 -0.5577
  847MOL0     C14224   7.823   3.457  11.789  0.8610 -0.0903  0.3961
  847MOL0     C14225   7.752   3.531  11.915 -0.7707 -1.1336  1.4399
  847MOL0     C14226   7.877   3.592  11.987  0.4993 -0.4486 -0.1754
  847MOL0     N14227   7.847   3.649  12.123 -0.4648 -0.1956  0.4429
  847MOL0     C14228   7.787   3.582  12.224 -0.1556  0.8406 -1.0942
  847MOL0     C14229   7.795   3.674  12.328  0.0388  0.5574 -0.0826
  847MOL0     C14230   7.739   3.645  12.469  0.4467 -0.0936 -0.6622
  847MOL0     C14231   7.854   3.592  12.557 -0.1372  0.4211 -0.7320
  847MOL0     C14232   7.815   3.571  12.705  0.4137 -0.3534 -0.4758
  847MOL0     C14233   7.932   3.517  12.792 -0.4403  0.2947  0.6876
  847MOL0     O14234   7.910   3.536  12.934 -0.6313 -0.5199  0.4874
  847MOL0     C14235   7.978   3.633  13.000  1.0595 -0.2003 -0.5370
  847MOL0     C14236   8.006   3.763  12.955  0.2853 -0.2213 -0.9018
  847MOL0     C14237   8.066   3.862  13.028 -0.0731  1.0134 -0.5104
  847MOL0     C14238   8.100   3.828  13.165  0.9329  0.1473  0.1397
  847MOL0     C14239   8.165   3.933  13.244 -0.9212 -0.1819  0.3578
  847MOL0     O14240   8.189   4.047  13.171 -0.3762 -0.1591  0.6015
  847MOL0     C14241   8.247   4.152  13.224  0.4131  0.8137  0.0729
  847MOL0     C14242   8.178   4.248  13.298 -1.2910  0.1455  0.6007
  847MOL0     C14243   8.254   4.358  13.355  0.7613  0.4974  0.2223
  847MOL0     C14244   8.390   4.354  13.355 -1.8494  0.1292 -1.3969
  847MOL0     O14245   8.475   4.442  13.431  0.4024 -0.2231  0.0231
  847MOL0     C14246   8.417   4.556  13.493  0.8846 -0.5489 -0.6860
  847MOL0     C14247   8.531   4.628  13.575  0.4306  0.6159 -0.7371
  847MOL0     C14248   8.663   4.657  13.499  0.3736 -0.0540 -0.3157
  847MOL0     C14249   8.751   4.761  13.573 -0.1059 -0.6462 -0.2554
  847MOL0     C14250   8.886   4.787  13.522  0.8910  0.1083 -1.2435
  847MOL0     C14251   8.973   4.856  13.620 -0.5035 -0.8757  0.0730
  847MOL0     C14252   8.947   4.992  13.669 -0.0655  0.6613  0.2322
  847MOL0     C14253   9.057   5.047  13.753 -0.5564  0.0463  0.5580
  847MOL0    Cl14254   9.013   5.189  13.835 -0.2161  0.0278 -0.2870
  847MOL0     C14255   8.462   4.260  13.286  0.1261  0.1451  0.1712
  847MOL0     C14256   8.390   4.156  13.219  0.2735 -0.2899  0.2128
  847MOL0     O14257   8.202   3.909  13.361  0.0997  0.0215 -0.4848
  847MOL0     C14258   8.064   3.709  13.219  0.0975  0.5464  0.4116
  847MOL0     C14259   8.005   3.607  13.140 -0.5010  0.6289 -0.5734
  847MOL0     N14260   7.866   3.779  12.289  0.6368  0.0558 -0.4218
  847MOL0     N14261   7.888   3.767  12.168 -0.5790  0.3834  0.6976
  847MOL0     C14262   7.564   3.608  10.976  0.4540  0.6499  1.1136
  847MOL0     C14263   7.448   3.653  10.913 -0.8845  0.1083  0.2096
  847MOL0     C14264   7.099   3.943  10.804 -0.4552 -0.0136  0.1649
  847MOL0     C14265   7.100   3.871  10.674 -0.5623  0.5926  0.5735
  847MOL0     C14266   7.006   3.910  10.573 -0.2381 -0.5775 -0.4057
  847MOL0     C14267   6.909   4.010  10.595  0.6530  0.4538  0.4544
  847MOL0     O14268   6.817   4.045  10.499 -0.5229 -0.2627 -0.0988
  847MOL0     C14269   6.732   3.947  10.441 -0.3657 -0.0879 -0.5934
  847MOL0     C14270   6.689   3.984  10.305  0.2239 -0.4441 -0.2133
  847MOL0     C14271   6.801   3.995  10.203  1.4530 -1.5614 -0.0715
  847MOL0     C14272   6.742   4.005  10.063  0.9715  0.5614 -0.0182
  847MOL0     C14273   6.755   3.873  10.004 -0.2358  0.2053 -0.8492
  847MOL0     C14274   6.779   3.758   9.955 -0.1588 -0.2747  0.2068
  847MOL0     C14275   6.896   4.062  10.723 -0.3290 -0.0995  0.0102
  847MOL0     C14276   6.994   4.041  10.822 -1.4756 -0.4062 -0.0175
  847MOL0     C14277   6.980   4.117  10.951  0.1521 -0.3402  0.3266
  847MOL0     H14278   7.337   3.871  11.145  1.7541  1.9360 -0.2319
  847MOL0     H14279   7.534   3.787  11.268 -2.2386  4.5124 -0.6321
  847MOL0     H14280   7.604   3.410  11.194 -0.0087 -0.5337  1.4558
  847MOL0     H14281   7.766   3.424  11.098  2.1717  0.4241  0.4668
  847MOL0     H14282   7.876   3.446  11.305  0.0616  0.3283 -0.2128
  847MOL0     H14283   7.806   3.294  11.275  3.3699 -0.0604  1.6026
  847MOL0     H14284   7.619   3.339  11.435  0.5521 -1.3612  3.8999
  847MOL0     H14285   7.667   3.513  11.423  2.1911  0.7321 -1.7321
  847MOL0     H14286   7.810   3.275  11.555 -3.8116 -0.8760  0.3640
  847MOL0     H14287   7.875   3.447  11.550 -0.4980  2.2485  1.9452
  847MOL0     H14288   7.674   3.519  11.662  0.3486  0.3033  1.3609
  847MOL0     H14289   7.649   3.353  11.728 -3.5112  4.6056  1.8799
  847MOL0     H14290   7.889   3.375  11.821  2.6674  0.9151 -0.5700
  847MOL0     H14291   7.893   3.529  11.746  1.2978 -0.6662  0.1204
  847MOL0     H14292   7.706   3.448  11.968 -1.7333 -2.6728 -1.5779
  847MOL0     H14293   7.679   3.609  11.889  3.1159  1.8896 -1.7929
  847MOL0     H14294   7.955   3.521  12.017  2.5628  1.7218 -0.1464
  847MOL0     H14295   7.923   3.665  11.921 -2.2211 -0.0671 -1.8332
  847MOL0     H14296   7.729   3.491  12.237  4.3378 -2.0336  1.5041
  847MOL0     H14297   7.706   3.744  12.501 -0.8930  0.1418 -2.6340
  847MOL0     H14298   7.656   3.573  12.477  1.3444 -0.9566  2.1898
  847MOL0     H14299   7.891   3.501  12.508  0.5936  0.0742  0.4245
  847MOL0     H14300   7.931   3.669  12.556  0.2222  0.1240  1.2127
  847MOL0     H14301   7.732   3.501  12.721 -1.2928  1.5238 -0.8335
  847MOL0     H14302   7.770   3.668  12.727  0.2614  0.3020 -3.3039
  847MOL0     H14303   8.024   3.568  12.762 -1.3061  1.7448  0.4324
  847MOL0     H14304   7.926   3.410  12.768 -1.8916  0.4370  0.3708
  847MOL0     H14305   8.010   3.771  12.846  0.3261 -1.4501 -1.0107
  847MOL0     H14306   8.091   3.960  12.991  3.1314  1.2055  1.7532
  847MOL0     H14307   8.071   4.248  13.310 -1.1592  2.3204  2.7072
  847MOL0     H14308   8.196   4.440  13.395 -0.6771  0.0010 -0.7887
  847MOL0     H14309   8.375   4.615  13.411  0.6692 -0.9004 -0.8321
  847MOL0     H14310   8.327   4.537  13.552 -0.5689  0.2680 -2.5452
  847MOL0     H14311   8.492   4.713  13.631 -2.0972  0.4825 -2.1553
  847MOL0     H14312   8.559   4.552  13.649  0.7953  0.1800 -1.3108
  847MOL0     H14313   8.716   4.564  13.476 -0.6501 -1.2121  1.7015
  847MOL0     H14314   8.625   4.698  13.405 -2.3507 -0.0448  0.6986
  847MOL0     H14315   8.767   4.719  13.673  2.1610  1.0075  0.1399
  847MOL0     H14316   8.710   4.862  13.583  1.0664 -0.3566  2.4485
  847MOL0     H14317   8.876   4.846  13.431  1.1791  0.9896 -0.7158
  847MOL0     H14318   8.928   4.688  13.498 -0.7192 -0.7593 -0.6211
  847MOL0     H14319   8.994   4.787  13.703  3.1811 -0.6623 -0.5172
  847MOL0     H14320   9.071   4.862  13.572 -1.3847 -0.5446 -1.7890
  847MOL0     H14321   8.848   4.985  13.715 -0.1798 -0.0786 -0.1135
  847MOL0     H14322   8.931   5.031  13.568 -1.5601 -2.5283 -0.8927
  847MOL0     H14323   9.089   4.965  13.818  2.9356  0.9199  0.1158
  847MOL0     H14324   9.138   5.073  13.685 -0.9538  4.6821  1.5408
  847MOL0     H14325   8.570   4.266  13.273  0.1607  1.8849  0.9158
  847MOL0     H14326   8.439   4.080  13.159  1.4533  0.3748  0.3083
  847MOL0     H14327   8.080   3.678  13.322 -2.5443 -1.8020  0.2108
  847MOL0     H14328   7.982   3.506  13.171  1.7177  0.7046  1.6347
  847MOL0     H14329   7.629   3.538  10.925  2.2647  1.5439  2.0877
  847MOL0     H14330   7.430   3.616  10.812 -0.1964 -2.1617  0.8475
  847MOL0     H14331   7.170   3.794  10.644 -0.6174  2.1937 -4.4286
  847MOL0     H14332   7.018   3.864  10.475  0.5733  0.4161 -0.7854
  847MOL0     H14333   6.651   3.915  10.507  0.5642  1.5380  1.4886
  847MOL0     H14334   6.793   3.857  10.433 -3.0163 -2.4333  2.8235
  847MOL0     H14335   6.644   4.083  10.315  0.1296 -0.6075  1.1540
  847MOL0     H14336   6.625   3.901  10.274  0.7552 -1.0488  0.2870
  847MOL0     H14337   6.872   3.913  10.216  1.1973 -1.8549 -0.5009
  847MOL0     H14338   6.859   4.085  10.224  0.1225 -1.3455  3.2204
  847MOL0     H14339   6.638   4.037  10.075  1.0483  0.0874  2.3734
  847MOL0     H14340   6.796   4.078  10.003 -1.1072  1.4635 -0.8953
  847MOL0     H14341   6.804   3.658   9.926  0.2187 -0.5896  1.5640
  847MOL0     H14342   6.818   4.136  10.732  0.1320  0.2196  1.5257
  847MOL0     H14343   7.062   4.186  10.973 -1.4724  1.4751  0.9816
  847MOL0     H14344   6.882   4.165  10.945  0.9845  1.2087 -4.2701
  847MOL0     H14345   6.977   4.050  11.038  1.9051 -1.6223 -0.5506
  848MOL0     O14346   8.443   6.890   8.790 -0.2476  0.2410 -0.5786
  848MOL0     C14347   8.544   6.855   8.856  0.0583 -0.1076  0.3763
  848MOL0     O14348   8.669   6.868   8.812 -0.6342 -0.4332 -0.0209
  848MOL0     C14349   8.691   6.875   8.680 -0.5584 -0.0263  0.0980
  848MOL0     C14350   8.629   6.778   8.591 -0.4595 -0.6273  0.9655
  848MOL0     C14351   8.669   6.758   8.460 -0.2218 -0.6205 -0.2389
  848MOL0     C14352   8.772   6.839   8.413 -0.6026 -0.5124 -0.0175
  848MOL0     O14353   8.811   6.824   8.284  1.0106  0.2304 -0.3481
  848MOL0     C14354   8.947   6.773   8.272  0.5007 -1.1420  0.5942
  848MOL0     C14355   9.005   6.757   8.132  0.6320 -0.2144 -0.0057
  848MOL0     C14356   9.025   6.895   8.070 -0.0836  0.4683  0.3116
  848MOL0     C14357   9.168   6.896   8.015  0.2080 -0.0276  0.6632
  848MOL0     C14358   9.209   7.022   7.931  0.5036 -0.1659  0.6444
  848MOL0     C14359   9.129   7.055   7.799  0.5404  0.5285 -0.6073
  848MOL0     C14360   9.199   7.170   7.738 -0.0577 -0.7088  0.3028
  848MOL0     C14361   9.142   7.205   7.600  1.0313 -0.6033 -0.7517
  848MOL0     N14362   9.234   7.301   7.546 -0.5254 -0.8709  0.4130
  848MOL0     C14363   9.214   7.438   7.557 -0.1256 -1.0875 -0.5978
  848MOL0     C14364   9.309   7.489   7.473  0.5138  0.4207  1.0537
  848MOL0     C14365   9.304   7.630   7.433  0.4791 -1.6112  0.0820
  848MOL0     C14366   9.269   7.648   7.284  0.0331 -0.0535  0.5847
  848MOL0     C14367   9.389   7.633   7.190 -0.1282  0.4240 -0.2696
  848MOL0     C14368   9.357   7.716   7.063 -0.8502 -0.4287  1.0003
  848MOL0     O14369   9.248   7.661   6.990 -1.1406 -0.0470 -0.3756
  848MOL0     C14370   9.200   7.738   6.892 -0.9870 -0.3699  0.3517
  848MOL0     C14371   9.245   7.868   6.858 -1.1405  0.1445 -0.5271
  848MOL0     C14372   9.195   7.933   6.747  0.6466 -0.7164 -0.1434
  848MOL0     C14373   9.095   7.868   6.665 -0.7196 -1.3385  0.0264
  848MOL0     C14374   9.040   7.947   6.552 -1.0368 -0.1396 -0.4287
  848MOL0     O14375   9.035   8.081   6.573  0.2866 -0.4156 -1.0280
  848MOL0     C14376   8.984   8.156   6.475  0.3902  0.2340  0.3615
  848MOL0     C14377   9.000   8.146   6.336 -0.3164 -0.8047  0.0729
  848MOL0     C14378   8.959   8.256   6.259  0.4937  0.7381  0.0547
  848MOL0     C14379   8.888   8.363   6.309  0.4146  0.0637  0.1430
  848MOL0     O14380   8.823   8.451   6.223  0.2873  0.6050 -0.2035
  848MOL0     C14381   8.734   8.552   6.277 -0.2251 -0.9923 -0.2797
  848MOL0     C14382   8.694   8.638   6.152 -0.4885 -0.0032 -0.5038
  848MOL0     C14383   8.591   8.740   6.191 -0.9234 -0.3191  0.8256
  848MOL0     C14384   8.525   8.809   6.071  0.3241  0.0452  0.9153
  848MOL0     C14385   8.433   8.934   6.117  0.0328  0.3881  0.1302
  848MOL0     C14386   8.328   8.896   6.221 -0.4847  0.3796  0.3757
  848MOL0     C14387   8.224   8.800   6.163  0.2445 -0.4837  1.0255
  848MOL0     C14388   8.087   8.826   6.222  0.7441  0.0054 -0.6245
  848MOL0    Cl14389   8.096   8.806   6.403  0.5338  0.2166  0.2020
  848MOL0     C14390   8.877   8.376   6.445  0.6207 -0.4777 -0.1145
  848MOL0     C14391   8.923   8.270   6.522  0.1992  0.8793 -0.0765
  848MOL0     O14392   9.004   7.879   6.459 -0.6884 -0.1158  0.3365
  848MOL0     C14393   9.050   7.741   6.702 -0.4452  0.2497 -0.2369
  848MOL0     C14394   9.096   7.676   6.816 -0.4137  0.6114  0.0664
  848MOL0     N14395   9.379   7.385   7.409  0.5198 -0.4146  0.3687
  848MOL0     N14396   9.331   7.276   7.459 -0.3815 -0.4001 -0.6549
  848MOL0     C14397   8.826   6.938   8.493 -0.6633 -0.2610  0.5932
  848MOL0     C14398   8.786   6.960   8.628  0.0491  0.2153  0.5570
  848MOL0     C14399   8.529   6.821   9.003  0.4672 -0.3894  0.7153
  848MOL0     C14400   8.632   6.855   9.087 -0.8310 -0.9336  0.3224
  848MOL0     C14401   8.635   6.839   9.228 -0.5445  0.0145  0.4053
  848MOL0     C14402   8.527   6.769   9.290 -0.3350 -0.3351  0.8403
  848MOL0     O14403   8.511   6.749   9.425  0.3605  0.2620  0.4007
  848MOL0     C14404   8.599   6.803   9.523 -1.0057  0.4657 -0.6787
  848MOL0     C14405   8.715   6.701   9.550  0.6689 -0.1377  0.6178
  848MOL0     C14406   8.632   6.568   9.598  0.4791 -0.7031  1.0613
  848MOL0     C14407   8.712   6.438   9.633 -0.1904  0.5405 -0.6835
  848MOL0     C14408   8.671   6.386   9.763 -0.1095  0.7342 -0.1986
  848MOL0     C14409   8.625   6.354   9.869 -0.4430 -0.1139 -0.4378
  848MOL0     C14410   8.424   6.740   9.205  0.7615 -0.0582 -0.2962
  848MOL0     C14411   8.418   6.763   9.065 -0.8078  0.2198 -1.0393
  848MOL0     C14412   8.294   6.732   8.980  0.5234  0.4517  1.1436
  848MOL0     H14413   8.553   6.709   8.625 -0.6584  0.0981  2.0335
  848MOL0     H14414   8.619   6.680   8.403 -1.0589 -1.9473  2.1645
  848MOL0     H14415   9.019   6.836   8.326 -1.1993 -1.6449  3.6106
  848MOL0     H14416   8.942   6.680   8.330  2.9098  0.3341  3.4620
  848MOL0     H14417   8.927   6.704   8.078 -1.8764  1.7480  1.4810
  848MOL0     H14418   9.091   6.690   8.147  1.6617  0.5319 -2.1398
  848MOL0     H14419   9.012   6.982   8.135 -2.3191  1.9709 -1.9593
  848MOL0     H14420   8.958   6.905   7.985  1.9239  1.7865 -1.2108
  848MOL0     H14421   9.230   6.885   8.105 -0.2435 -3.6773  0.6783
  848MOL0     H14422   9.179   6.802   7.961  1.3515 -0.4898  1.6541
  848MOL0     H14423   9.203   7.111   7.994 -1.6389 -0.0746  0.3754
  848MOL0     H14424   9.315   7.001   7.912  0.3955 -0.8388  0.7516
  848MOL0     H14425   9.148   6.971   7.731  1.7281  1.1282 -1.0415
  848MOL0     H14426   9.023   7.074   7.814 -0.0131 -1.3437 -1.7382
  848MOL0     H14427   9.307   7.158   7.729  0.4425  2.4862  0.8991
  848MOL0     H14428   9.175   7.252   7.808 -0.5974 -1.0834  0.5673
  848MOL0     H14429   9.134   7.118   7.535 -0.1964 -2.3708  1.5741
  848MOL0     H14430   9.044   7.254   7.606  1.8793  1.4471 -2.3940
  848MOL0     H14431   9.148   7.486   7.628  0.1323 -0.4386 -0.7873
  848MOL0     H14432   9.240   7.697   7.490  2.9383  1.7246 -0.7434
  848MOL0     H14433   9.400   7.679   7.452 -1.1935  1.8846  0.3287
  848MOL0     H14434   9.193   7.575   7.255 -0.9083  0.0825  2.5847
  848MOL0     H14435   9.228   7.749   7.272 -1.7438 -0.7174  0.6459
  848MOL0     H14436   9.401   7.527   7.164  3.0972  0.7730 -0.6317
  848MOL0     H14437   9.487   7.665   7.226 -0.7076  1.9973 -0.0387
  848MOL0     H14438   9.450   7.716   7.005 -0.2428 -2.3919  1.8418
  848MOL0     H14439   9.346   7.818   7.099 -5.0692 -1.3096  2.7824
  848MOL0     H14440   9.315   7.924   6.919 -3.8234  0.6077  2.3720
  848MOL0     H14441   9.218   8.036   6.722 -1.2058 -0.3330 -0.3879
  848MOL0     H14442   9.043   8.067   6.275  4.0609 -0.2265  2.0327
  848MOL0     H14443   8.967   8.247   6.151 -0.1757 -1.0198  0.1214
  848MOL0     H14444   8.641   8.518   6.324  1.0557 -0.8921  2.5133
  848MOL0     H14445   8.784   8.623   6.342 -2.6916 -0.7453  1.5066
  848MOL0     H14446   8.783   8.686   6.112  1.2242 -2.0544  0.6682
  848MOL0     H14447   8.666   8.570   6.071  2.0547 -0.0611 -1.4125
  848MOL0     H14448   8.496   8.702   6.230 -3.8368  1.3445 -3.7940
  848MOL0     H14449   8.640   8.812   6.257 -0.1642  2.3599 -2.3953
  848MOL0     H14450   8.465   8.743   6.008  0.1318  1.8511 -0.9308
  848MOL0     H14451   8.605   8.836   6.001  0.0014 -1.6872 -0.1734
  848MOL0     H14452   8.378   8.985   6.038 -0.4956  1.1750  0.9810
  848MOL0     H14453   8.502   9.000   6.171 -1.3811  1.1304  1.0872
  848MOL0     H14454   8.379   8.865   6.312 -1.0260  1.1199  0.9467
  848MOL0     H14455   8.278   8.986   6.257  1.2179  0.6039  2.3403
  848MOL0     H14456   8.261   8.699   6.184 -0.2770 -0.7018  0.9047
  848MOL0     H14457   8.223   8.824   6.057 -0.3201 -1.3164  0.8352
  848MOL0     H14458   8.055   8.930   6.205 -0.7164 -0.2771  0.2645
  848MOL0     H14459   8.018   8.757   6.171 -1.4855 -0.7107  3.0291
  848MOL0     H14460   8.830   8.456   6.502 -0.7906  0.3034 -2.2672
  848MOL0     H14461   8.904   8.288   6.628 -1.5596  2.9592 -0.6882
  848MOL0     H14462   8.970   7.697   6.644 -2.6849 -0.9083  3.3889
  848MOL0     H14463   9.062   7.580   6.852  1.0481  0.7749  2.0356
  848MOL0     H14464   8.903   7.009   8.466 -0.1932 -1.2554 -0.7676
  848MOL0     H14465   8.835   7.037   8.686  0.6885  1.9187 -2.0312
  848MOL0     H14466   8.707   6.919   9.041 -1.8760 -0.0830 -0.2152
  848MOL0     H14467   8.722   6.874   9.283 -0.5958  0.0576  0.4591
  848MOL0     H14468   8.542   6.816   9.615  1.4213  0.9309  0.8417
  848MOL0     H14469   8.636   6.903   9.497  0.3882 -0.1525 -1.2282
  848MOL0     H14470   8.788   6.741   9.622 -1.7346  2.3587  1.8887
  848MOL0     H14471   8.767   6.686   9.455  0.3882  0.0327  0.4351
  848MOL0     H14472   8.567   6.530   9.519  0.4168 -1.0371  1.2715
  848MOL0     H14473   8.572   6.603   9.682  0.0853 -0.2691  0.6086
  848MOL0     H14474   8.691   6.361   9.558 -0.5752 -2.3697  2.1667
  848MOL0     H14475   8.817   6.468   9.640 -0.1616  0.1753  0.9070
  848MOL0     H14476   8.576   6.321   9.959 -0.7016  2.4440  0.4726
  848MOL0     H14477   8.333   6.699   9.246 -0.7856 -0.7993 -4.0903
  848MOL0     H14478   8.316   6.675   8.890 -0.4758  0.3898  0.9255
  848MOL0     H14479   8.216   6.671   9.026 -1.9368  2.0597 -0.6494
  848MOL0     H14480   8.241   6.823   8.951 -0.5041 -0.4231  0.2020
  849MOL0     O14481   5.451   5.239   5.287  0.0437 -0.0233  0.1158
  849MOL0     C14482   5.332   5.233   5.303  0.6682 -0.5161  0.2196
  849MOL0     O14483   5.249   5.157   5.232 -0.0808  0.5706  0.6915
  849MOL0     C14484   5.301   5.054   5.157  0.0107 -0.3940 -0.5673
  849MOL0     C14485   5.233   5.019   5.043  0.3506  1.5710 -0.2518
  849MOL0     C14486   5.267   4.901   4.974  0.0538 -1.1958  0.4001
  849MOL0     C14487   5.366   4.815   5.012  0.5186 -0.3972  0.4992
  849MOL0     O14488   5.410   4.704   4.940  0.0764 -0.3898  0.7618
  849MOL0     C14489   5.326   4.666   4.827 -0.6922  0.4234  0.5583
  849MOL0     C14490   5.368   4.534   4.786  0.6155  0.5276  0.0263
  849MOL0     C14491   5.522   4.535   4.775 -0.9629  0.1506  0.2819
  849MOL0     C14492   5.568   4.465   4.643  0.2574 -0.3663  0.2499
  849MOL0     C14493   5.717   4.488   4.622  1.0702  0.2896 -1.2410
  849MOL0     C14494   5.799   4.388   4.530  0.3899  0.0418  0.3167
  849MOL0     C14495   5.824   4.243   4.583 -0.8641  1.1624  0.3168
  849MOL0     C14496   5.893   4.159   4.462  0.9111  0.4963  0.2865
  849MOL0     N14497   5.988   4.227   4.371 -0.1658 -0.0468  0.1086
  849MOL0     C14498   6.110   4.294   4.411  0.1517 -0.7405 -0.2528
  849MOL0     C14499   6.147   4.369   4.302  0.1701 -0.1354 -0.2468
  849MOL0     C14500   6.266   4.468   4.306  0.3538 -0.0458  0.4447
  849MOL0     C14501   6.274   4.580   4.196  0.4670 -0.0373  0.1547
  849MOL0     C14502   6.363   4.683   4.262 -0.2193 -0.2492 -0.2306
  849MOL0     C14503   6.367   4.813   4.179  0.1530  0.1187  0.6789
  849MOL0     O14504   6.406   4.937   4.239 -0.0230  0.5528 -0.4586
  849MOL0     C14505   6.414   5.047   4.165 -0.3256  0.4531  0.9228
  849MOL0     C14506   6.393   5.057   4.024  0.1329  0.0829  0.4966
  849MOL0     C14507   6.398   5.179   3.962 -0.8622  0.1822  0.3133
  849MOL0     C14508   6.452   5.293   4.029 -0.2763 -0.3006  0.3493
  849MOL0     C14509   6.467   5.414   3.957  0.0142 -0.5658  0.3089
  849MOL0     O14510   6.390   5.448   3.850 -0.1982 -0.0131  0.5673
  849MOL0     C14511   6.399   5.574   3.794  0.7194 -0.3796 -0.8016
  849MOL0     C14512   6.481   5.584   3.680 -0.0003  0.3094  0.8095
  849MOL0     C14513   6.493   5.708   3.612 -0.7813 -0.7984  0.4474
  849MOL0     C14514   6.419   5.814   3.662  0.0654 -0.4273  0.4449
  849MOL0     O14515   6.434   5.938   3.601 -0.0288 -0.0352  0.5505
  849MOL0     C14516   6.445   6.055   3.689 -0.6709 -0.6906 -0.1539
  849MOL0     C14517   6.519   6.169   3.616  0.1340 -0.3329  0.4474
  849MOL0     C14518   6.530   6.291   3.699 -0.1789 -0.2112 -0.6481
  849MOL0     C14519   6.399   6.380   3.686  0.0439 -0.5439  0.1523
  849MOL0     C14520   6.362   6.447   3.821  0.0868 -0.0035 -0.7923
  849MOL0     C14521   6.252   6.554   3.792 -0.6302  0.1038 -0.2494
  849MOL0     C14522   6.241   6.629   3.925 -0.1433 -0.1504  0.3688
  849MOL0     C14523   6.157   6.764   3.918  0.3235 -0.0283  0.1484
  849MOL0    Cl14524   6.097   6.811   4.081 -0.2694 -0.0966  0.1310
  849MOL0     C14525   6.336   5.803   3.766 -0.6568 -0.6403 -0.4587
  849MOL0     C14526   6.315   5.676   3.825 -0.2588 -0.0370 -0.5010
  849MOL0     O14527   6.562   5.484   3.988  0.0775  0.0097  0.1561
  849MOL0     C14528   6.495   5.283   4.161  0.5240  0.0522 -1.1591
  849MOL0     C14529   6.462   5.166   4.225 -0.2950 -0.3180 -0.6557
  849MOL0     N14530   6.057   4.348   4.202  0.6697 -0.0640  0.0514
  849MOL0     N14531   5.966   4.260   4.242  0.2745  0.3508  0.3725
  849MOL0     C14532   5.438   4.851   5.125 -0.2512 -0.9909  0.4390
  849MOL0     C14533   5.411   4.972   5.194 -1.1212  0.1733  0.2916
  849MOL0     C14534   5.279   5.347   5.389  0.0138 -0.1979 -0.3866
  849MOL0     C14535   5.364   5.408   5.490  0.4332 -0.8881 -0.0016
  849MOL0     C14536   5.322   5.502   5.580 -0.0362 -0.3423  0.2688
  849MOL0     C14537   5.191   5.561   5.563 -0.1651  0.2406 -1.2904
  849MOL0     O14538   5.126   5.642   5.656  0.3937  0.4945 -0.7585
  849MOL0     C14539   5.042   5.752   5.614  0.6672  0.0392 -0.9479
  849MOL0     C14540   4.982   5.811   5.745 -0.0545  0.6132  0.3706
  849MOL0     C14541   4.876   5.727   5.821 -0.4293  0.1883  0.3734
  849MOL0     C14542   4.767   5.691   5.727 -0.1934 -0.3731  0.2876
  849MOL0     C14543   4.683   5.806   5.684 -0.7870  0.9087 -1.0205
  849MOL0     C14544   4.615   5.906   5.667  0.4315  0.6487  0.1832
  849MOL0     C14545   5.111   5.511   5.463  0.5937  0.1095  0.8769
  849MOL0     C14546   5.151   5.408   5.380 -0.4195  0.8179 -0.3715
  849MOL0     C14547   5.052   5.355   5.275 -1.3462 -0.5369 -1.0541
  849MOL0     H14548   5.139   5.057   5.006 -1.3463 -1.9597 -0.0167
  849MOL0     H14549   5.196   4.882   4.894 -2.0846  0.6520  1.7367
  849MOL0     H14550   5.220   4.676   4.852 -0.8354  1.8451 -0.4411
  849MOL0     H14551   5.338   4.733   4.741  3.0057  1.3013  1.5749
  849MOL0     H14552   5.325   4.525   4.686  3.0314  1.5845 -1.1910
  849MOL0     H14553   5.333   4.453   4.851  0.0624  1.2337  0.6387
  849MOL0     H14554   5.571   4.484   4.858  0.8210  1.2210 -0.0506
  849MOL0     H14555   5.559   4.637   4.765 -1.9558  0.4065 -1.1730
  849MOL0     H14556   5.551   4.357   4.653 -0.8168 -0.3174 -0.8312
  849MOL0     H14557   5.520   4.504   4.553  2.1311  1.1946 -0.1360
  849MOL0     H14558   5.733   4.588   4.581  1.9595  1.4059  1.5966
  849MOL0     H14559   5.766   4.486   4.720 -1.2434 -2.0866 -0.0087
  849MOL0     H14560   5.766   4.389   4.425 -0.4565  3.9273  0.4574
  849MOL0     H14561   5.895   4.440   4.534  0.6490 -0.3591 -0.4926
  849MOL0     H14562   5.733   4.205   4.631 -1.7426  1.7593 -0.8486
  849MOL0     H14563   5.903   4.260   4.657  0.2262  0.4253 -0.6373
  849MOL0     H14564   5.939   4.072   4.510 -2.6026 -1.6227  0.1169
  849MOL0     H14565   5.815   4.132   4.391  1.2236  2.5380 -0.9117
  849MOL0     H14566   6.148   4.306   4.512 -1.4728  1.3103  0.1922
  849MOL0     H14567   6.258   4.504   4.409 -1.2363 -0.4108  0.4657
  849MOL0     H14568   6.359   4.411   4.315  1.0873  0.9683 -0.4659
  849MOL0     H14569   6.317   4.554   4.098 -2.5584 -1.8426 -0.8239
  849MOL0     H14570   6.173   4.617   4.179  1.5791  4.2308  1.5200
  849MOL0     H14571   6.465   4.643   4.260  0.3959  1.1973  0.4491
  849MOL0     H14572   6.321   4.705   4.361 -1.5624 -2.9057 -0.1123
  849MOL0     H14573   6.268   4.824   4.133 -1.0715  1.1017  3.3559
  849MOL0     H14574   6.435   4.798   4.095  0.8435  3.2676  0.5605
  849MOL0     H14575   6.360   4.974   3.963  2.0118 -1.0858  0.9918
  849MOL0     H14576   6.368   5.186   3.858  2.0446 -0.0678 -0.6344
  849MOL0     H14577   6.546   5.502   3.655  0.2394  0.8390 -0.3581
  849MOL0     H14578   6.556   5.730   3.527 -4.6424  1.5520 -2.0910
  849MOL0     H14579   6.345   6.097   3.702  0.8707  3.5775 -0.3832
  849MOL0     H14580   6.504   6.037   3.779 -0.2177  1.0511 -0.0525
  849MOL0     H14581   6.620   6.131   3.596 -0.3309 -1.2207 -0.2858
  849MOL0     H14582   6.467   6.192   3.523  0.2694  0.9662  0.6774
  849MOL0     H14583   6.558   6.269   3.802  0.7114  1.6155 -0.4547
  849MOL0     H14584   6.616   6.349   3.663  0.6510  1.6270  3.6610
  849MOL0     H14585   6.315   6.317   3.656  0.9809 -0.6590 -2.4426
  849MOL0     H14586   6.412   6.447   3.600 -2.9319 -0.0223  0.0031
  849MOL0     H14587   6.455   6.486   3.863  0.8352 -3.4592  1.0829
  849MOL0     H14588   6.317   6.374   3.889  2.0765  0.3101  0.9405
  849MOL0     H14589   6.279   6.622   3.711  4.6500  0.2930  1.3168
  849MOL0     H14590   6.155   6.507   3.771 -1.2461  1.1684  0.0974
  849MOL0     H14591   6.345   6.646   3.955  0.6454 -2.4274 -0.8268
  849MOL0     H14592   6.210   6.557   4.002  1.7293  1.1767  2.5177
  849MOL0     H14593   6.218   6.844   3.873  0.5778  0.1474  0.7857
  849MOL0     H14594   6.067   6.738   3.864  0.5516  1.3630 -0.9728
  849MOL0     H14595   6.273   5.882   3.805 -2.8868 -2.7346  0.4452
  849MOL0     H14596   6.246   5.675   3.909 -0.4620  0.4805 -0.6603
  849MOL0     H14597   6.553   5.359   4.212  0.6344  0.7673 -2.3261
  849MOL0     H14598   6.502   5.154   4.325 -0.3322  1.7216 -0.3532
  849MOL0     H14599   5.513   4.779   5.159 -0.3465 -1.3319 -0.0486
  849MOL0     H14600   5.471   4.989   5.283 -0.3433 -1.6948  0.1676
  849MOL0     H14601   5.463   5.366   5.485 -0.2278 -2.3961 -1.3001
  849MOL0     H14602   5.389   5.543   5.655  2.0512 -1.1666 -1.0337
  849MOL0     H14603   4.955   5.722   5.554 -0.0416 -2.8955  1.3246
  849MOL0     H14604   5.094   5.830   5.556  0.5594  0.6464 -0.2399
  849MOL0     H14605   4.929   5.898   5.706  0.3572 -0.0656 -1.8130
  849MOL0     H14606   5.067   5.833   5.811  2.1475  2.2646 -2.7648
  849MOL0     H14607   4.841   5.783   5.909 -0.2323 -0.5556  0.9344
  849MOL0     H14608   4.926   5.639   5.861  0.9994 -1.9365 -5.1950
  849MOL0     H14609   4.806   5.630   5.645 -0.2378 -2.5226  1.7929
  849MOL0     H14610   4.704   5.623   5.786  0.7431 -0.2118  1.5078
  849MOL0     H14611   4.553   5.991   5.647  2.4920  2.2490  0.2464
  849MOL0     H14612   5.009   5.548   5.458  1.0386  1.4290  1.1266
  849MOL0     H14613   4.958   5.407   5.256 -0.4526  1.5701 -0.0828
  849MOL0     H14614   5.100   5.365   5.177  0.0066 -0.5127 -0.4158
  849MOL0     H14615   5.026   5.250   5.288  1.7496 -1.1959  0.7025
  850MOL0     O14616   2.830   0.980   2.609  0.2233 -0.1201  0.2082
  850MOL0     C14617   2.775   1.018   2.506  0.5349 -0.1093 -0.6078
  850MOL0     O14618   2.679   1.111   2.503  0.2559 -0.4162  0.4756
  850MOL0     C14619   2.648   1.168   2.629 -0.3342  0.1001  0.9787
  850MOL0     C14620   2.522   1.148   2.663 -0.4208  0.0480 -0.4715
  850MOL0     C14621   2.475   1.198   2.786 -0.2187 -0.2774  0.0771
  850MOL0     C14622   2.555   1.279   2.864  0.3021 -0.0565  0.8522
  850MOL0     O14623   2.505   1.327   2.978 -0.8244  0.0982 -0.0194
  850MOL0     C14624   2.576   1.438   3.034 -0.2929  0.2760 -0.0101
  850MOL0     C14625   2.498   1.497   3.149  0.1646  0.2042 -0.1350
  850MOL0     C14626   2.365   1.542   3.091 -0.0758  0.2507 -0.7266
  850MOL0     C14627   2.304   1.632   3.196  0.3170 -0.2847  0.3179
  850MOL0     C14628   2.182   1.574   3.271  0.4486  0.2389  0.3348
  850MOL0     C14629   2.100   1.674   3.351  0.9259 -0.5077 -0.3992
  850MOL0     C14630   1.974   1.600   3.401  0.4643 -0.2959  0.3685
  850MOL0     C14631   1.908   1.660   3.528 -0.2294  0.4343 -0.2391
  850MOL0     N14632   1.794   1.575   3.572  0.2720 -0.5699  1.1622
  850MOL0     C14633   1.799   1.438   3.589 -0.4171 -0.5637  0.3804
  850MOL0     C14634   1.668   1.387   3.586 -0.4523 -0.2708  0.1753
  850MOL0     C14635   1.625   1.242   3.596 -0.2588 -0.6842 -0.2289
  850MOL0     C14636   1.479   1.216   3.524 -0.4437  0.3069  0.6381
  850MOL0     C14637   1.464   1.274   3.383  1.0332 -0.0294 -0.7285
  850MOL0     C14638   1.525   1.188   3.278  0.5184  0.2340 -0.2813
  850MOL0     O14639   1.439   1.082   3.242  0.3129 -0.3070 -0.1017
  850MOL0     C14640   1.486   0.984   3.166 -0.0444  0.9831  0.6609
  850MOL0     C14641   1.617   0.949   3.147 -0.1011  0.7770  0.2207
  850MOL0     C14642   1.666   0.836   3.075 -0.3463  0.3032 -0.5081
  850MOL0     C14643   1.576   0.763   3.005  0.0229 -0.1702  0.0994
  850MOL0     C14644   1.619   0.648   2.923  0.6186  0.3875  0.1281
  850MOL0     O14645   1.754   0.617   2.915  0.6498  0.7391  0.2179
  850MOL0     C14646   1.806   0.495   2.902 -0.2101  0.1123 -0.0412
  850MOL0     C14647   1.747   0.381   2.960  0.2174  0.0212 -0.2277
  850MOL0     C14648   1.819   0.257   2.988  0.1485 -0.2315  0.2981
  850MOL0     C14649   1.948   0.250   2.934  0.4060  0.2783 -0.2443
  850MOL0     O14650   2.033   0.145   2.952  0.1433  0.3361  0.5758
  850MOL0     C14651   1.974   0.022   2.972  0.3858  0.4662  0.7089
  850MOL0     C14652   2.090  -0.080   2.975 -0.5385 -0.1447  0.2221
  850MOL0     C14653   2.046  -0.217   2.987 -1.2318  0.6805 -0.2424
  850MOL0     C14654   1.986  -0.241   3.125  0.1074  0.3650 -0.8859
  850MOL0     C14655   1.983  -0.392   3.161 -0.1676 -0.3703 -0.5400
  850MOL0     C14656   2.105  -0.431   3.248 -0.4968  0.6714  0.3178
  850MOL0     C14657   2.093  -0.586   3.242 -0.7183  0.4297 -1.6099
  850MOL0     C14658   2.214  -0.643   3.330  0.0083  0.2576 -0.5602
  850MOL0    Cl14659   2.165  -0.816   3.387 -0.1983 -0.2510 -0.5571
  850MOL0     C14660   2.009   0.359   2.871  0.2942 -0.1610  0.1026
  850MOL0     C14661   1.937   0.478   2.859  0.3713  0.1243 -0.3533
  850MOL0     O14662   1.522   0.577   2.900 -0.4801  0.1691  1.7547
  850MOL0     C14663   1.436   0.801   3.013 -0.9127  0.7621 -0.9382
  850MOL0     C14664   1.396   0.911   3.089  1.5435  0.1107 -0.1846
  850MOL0     N14665   1.593   1.501   3.556 -0.5591  0.4213  0.1507
  850MOL0     N14666   1.666   1.610   3.559 -0.0781  0.7868  0.9488
  850MOL0     C14667   2.681   1.304   2.821  0.0643  0.6124  0.2464
  850MOL0     C14668   2.730   1.244   2.713 -0.0445  0.5493 -0.4420
  850MOL0     C14669   2.811   0.946   2.386 -0.4003  0.6785  0.5524
  850MOL0     C14670   2.847   0.814   2.395 -1.3252  0.0258 -0.0453
  850MOL0     C14671   2.910   0.747   2.285 -0.7462 -0.4272 -0.9844
  850MOL0     C14672   2.941   0.811   2.160  0.3192 -0.6093 -0.4309
  850MOL0     O14673   3.002   0.747   2.049  0.2183 -0.3921  0.4617
  850MOL0     C14674   3.088   0.637   2.084  0.5388  0.0049  1.0410
  850MOL0     C14675   3.018   0.503   2.072 -0.1873 -0.1828  0.8852
  850MOL0     C14676   2.990   0.480   1.921 -0.0050  0.7005  0.0572
  850MOL0     C14677   2.874   0.386   1.894 -0.2633 -0.6657  0.2209
  850MOL0     C14678   2.751   0.407   1.972 -0.5592  0.6490 -0.2010
  850MOL0     C14679   2.642   0.418   2.015 -0.0477 -0.1012  0.0699
  850MOL0     C14680   2.906   0.946   2.159 -0.9508  0.7738 -0.4841
  850MOL0     C14681   2.831   1.009   2.258  0.4885 -0.2271 -0.1339
  850MOL0     C14682   2.786   1.150   2.224  0.0527  0.9489  0.1800
  850MOL0     H14683   2.465   1.084   2.596  0.9478 -0.1759 -1.4500
  850MOL0     H14684   2.377   1.184   2.831  0.1905 -2.5714  0.3936
  850MOL0     H14685   2.669   1.402   3.080  0.9199 -0.0702 -2.5872
  850MOL0     H14686   2.602   1.507   2.954  1.3358 -1.5549 -1.1548
  850MOL0     H14687   2.554   1.571   3.207  0.0879  0.7809 -0.7869
  850MOL0     H14688   2.475   1.415   3.218  4.3388  1.2469  2.9028
  850MOL0     H14689   2.293   1.466   3.060 -1.3786  0.9703  0.4126
  850MOL0     H14690   2.385   1.598   2.999 -0.3901  0.7104 -0.5186
  850MOL0     H14691   2.381   1.676   3.260 -0.3632  0.6185  0.5329
  850MOL0     H14692   2.276   1.725   3.146 -2.1222 -1.0126  0.1794
  850MOL0     H14693   2.119   1.524   3.198  0.4015 -1.3467  1.4076
  850MOL0     H14694   2.210   1.495   3.341  1.7747  0.1209 -0.3015
  850MOL0     H14695   2.155   1.706   3.440  3.1952 -0.1912 -1.8354
  850MOL0     H14696   2.071   1.760   3.289 -2.4093 -0.8513  0.5310
  850MOL0     H14697   1.997   1.495   3.419  2.1765  0.3670  2.5251
  850MOL0     H14698   1.893   1.612   3.328 -0.6014  2.4940  1.8232
  850MOL0     H14699   1.969   1.657   3.619  0.8553 -0.6683 -0.9724
  850MOL0     H14700   1.872   1.760   3.502  1.9976  0.7679 -2.4078
  850MOL0     H14701   1.889   1.378   3.591 -0.0981 -0.2785 -1.9585
  850MOL0     H14702   1.708   1.182   3.556  0.2289 -1.8673  2.2962
  850MOL0     H14703   1.614   1.212   3.701 -0.0919 -1.0521 -0.3142
  850MOL0     H14704   1.472   1.107   3.516 -0.8505  0.3688  0.0732
  850MOL0     H14705   1.397   1.240   3.592  0.7484 -0.9553  2.6338
  850MOL0     H14706   1.509   1.373   3.372  0.4831  0.1816 -1.1346
  850MOL0     H14707   1.355   1.274   3.375  0.7879 -2.9899  1.0134
  850MOL0     H14708   1.613   1.144   3.326  1.3671  0.4606 -1.5746
  850MOL0     H14709   1.553   1.242   3.187 -2.3765  0.9191 -0.8559
  850MOL0     H14710   1.684   1.010   3.206 -0.3580  0.4979  0.8060
  850MOL0     H14711   1.773   0.822   3.075 -0.3999 -0.5971  2.1749
  850MOL0     H14712   1.650   0.396   3.006  0.3960 -0.6057  0.3547
  850MOL0     H14713   1.774   0.178   3.047  2.4197 -1.9991 -0.2154
  850MOL0     H14714   1.928   0.012   3.071  0.6506 -2.5242  0.6268
  850MOL0     H14715   1.897  -0.001   2.898  0.4648  0.9952  0.4599
  850MOL0     H14716   2.136  -0.067   2.876  0.5066  1.1013  0.8455
  850MOL0     H14717   2.151  -0.036   3.054 -3.0101  4.3543 -0.0691
  850MOL0     H14718   1.983  -0.252   2.905  0.9819  0.8933 -2.1596
  850MOL0     H14719   2.134  -0.281   2.979 -1.2989  0.4440  0.7804
  850MOL0     H14720   1.880  -0.215   3.118 -0.6595 -2.3070 -0.6272
  850MOL0     H14721   2.025  -0.178   3.205  0.9067 -0.4969 -0.5832
  850MOL0     H14722   1.976  -0.460   3.076 -0.7314 -0.1379 -0.6820
  850MOL0     H14723   1.890  -0.409   3.217  0.5793  1.3099  1.3433
  850MOL0     H14724   2.191  -0.398   3.190 -1.7413  1.5100 -1.1365
  850MOL0     H14725   2.110  -0.388   3.348  3.5338 -1.1113  1.0553
  850MOL0     H14726   2.105  -0.626   3.141  1.2781  0.5146 -1.4389
  850MOL0     H14727   1.997  -0.619   3.285  0.1293 -0.1113 -0.0358
  850MOL0     H14728   2.310  -0.654   3.278 -0.6737  0.9509 -2.0488
  850MOL0     H14729   2.214  -0.584   3.421 -1.6452  0.8283 -0.8964
  850MOL0     H14730   2.115   0.360   2.849  0.2557 -1.0233 -0.2011
  850MOL0     H14731   1.985   0.568   2.822  0.2188  0.1221 -0.5582
  850MOL0     H14732   1.361   0.745   2.959 -0.4879 -0.8077  0.0431
  850MOL0     H14733   1.295   0.949   3.098  3.1067  4.8194  0.3834
  850MOL0     H14734   2.747   1.370   2.877 -0.4819  0.6333  0.8780
  850MOL0     H14735   2.836   1.253   2.694 -0.2955  1.9851 -1.3837
  850MOL0     H14736   2.847   0.761   2.490 -0.2228 -1.5936 -0.9045
  850MOL0     H14737   2.943   0.647   2.311  1.9920  0.8071  0.7864
  850MOL0     H14738   3.145   0.646   2.176  0.8527 -0.3842  0.8860
  850MOL0     H14739   3.173   0.631   2.015  0.5175  1.0814  0.8915
  850MOL0     H14740   2.930   0.512   2.137 -1.1483 -0.3440 -0.3559
  850MOL0     H14741   3.085   0.426   2.112  0.6132 -0.7790 -1.4407
  850MOL0     H14742   3.085   0.445   1.879 -0.0643  0.2737  0.2714
  850MOL0     H14743   2.946   0.572   1.881 -0.4749 -1.0900 -3.9205
  850MOL0     H14744   2.854   0.385   1.787  4.9671 -0.1098 -1.0246
  850MOL0     H14745   2.908   0.285   1.922  1.1823 -0.4235 -0.5627
  850MOL0     H14746   2.538   0.423   2.043 -0.2349  0.0724 -0.6455
  850MOL0     H14747   2.936   1.002   2.070  0.3219  1.4141  0.3226
  850MOL0     H14748   2.686   1.166   2.266 -0.3583 -1.9271  0.5156
  850MOL0     H14749   2.855   1.215   2.277 -1.3185  1.0470  1.9301
  850MOL0     H14750   2.805   1.172   2.118  2.0426  0.8462  0.4888
  851MOL0     O14751   8.003   0.674   3.142  0.8518  0.5586  0.1744
  851MOL0     C14752   7.884   0.695   3.132  0.6111 -1.2864 -0.5440
  851MOL0     O14753   7.814   0.779   3.207  0.1176 -0.7506  0.8972
  851MOL0     C14754   7.874   0.897   3.239  0.4142 -0.5027 -0.1592
  851MOL0     C14755   7.999   0.912   3.288  0.2375  0.1913 -0.3281
  851MOL0     C14756   8.044   1.043   3.312  0.0499 -0.6902 -1.1064
  851MOL0     C14757   7.971   1.161   3.286 -0.5720 -0.4468  0.4432
  851MOL0     O14758   8.049   1.272   3.281  1.2637 -0.4571  1.3940
  851MOL0     C14759   7.990   1.397   3.320  0.1046 -0.6134  0.6551
  851MOL0     C14760   8.091   1.517   3.322  0.0558  1.0437  0.3682
  851MOL0     C14761   8.202   1.484   3.423 -0.7549 -0.0606 -0.8218
  851MOL0     C14762   8.291   1.604   3.435  0.4682 -0.1732 -0.0069
  851MOL0     C14763   8.393   1.594   3.321 -0.1533 -0.7569  0.6503
  851MOL0     C14764   8.471   1.724   3.297 -0.2890  1.3629  0.2355
  851MOL0     C14765   8.549   1.710   3.163 -0.3421  1.0231  0.9122
  851MOL0     C14766   8.674   1.806   3.145  0.0478 -0.5391  0.0741
  851MOL0     N14767   8.786   1.797   3.243  0.1446  0.5983 -0.4222
  851MOL0     C14768   8.888   1.704   3.250  0.5712  1.2817 -0.1447
  851MOL0     C14769   8.976   1.752   3.341  1.3833 -0.4600 -0.0245
  851MOL0     C14770   9.111   1.699   3.392  0.3040  0.0264 -0.2821
  851MOL0     C14771   9.190   1.653   3.274 -0.7342  0.7894 -0.0627
  851MOL0     C14772   9.323   1.573   3.299  0.2819 -0.5463 -0.2916
  851MOL0     C14773   9.432   1.647   3.382  1.3440 -0.6045 -0.1196
  851MOL0     O14774   9.538   1.563   3.383 -0.1745  0.1329  0.5372
  851MOL0     C14775   9.649   1.602   3.314  0.1708  0.3270  0.8111
  851MOL0     C14776   9.760   1.529   3.349  0.1642  0.1678  0.2568
  851MOL0     C14777   9.887   1.569   3.310 -0.8287 -0.1355 -0.0544
  851MOL0     C14778   9.913   1.691   3.235 -0.8059 -0.4287  0.1658
  851MOL0     C14779  10.046   1.739   3.209  0.2394  0.5959 -0.4841
  851MOL0     O14780  10.153   1.649   3.189  0.2881  0.3877  0.3831
  851MOL0     C14781  10.283   1.695   3.150  0.5289 -0.1604  0.5330
  851MOL0     C14782  10.300   1.798   3.047  0.2524 -0.1835 -0.1542
  851MOL0     C14783  10.433   1.852   3.039 -0.7537 -0.6148  1.4289
  851MOL0     C14784  10.536   1.802   3.118 -0.2120  0.5587  1.4010
  851MOL0     O14785  10.667   1.833   3.099  0.5568 -0.2372 -0.6635
  851MOL0     C14786  10.699   1.961   3.040 -0.4115 -0.2409 -0.4829
  851MOL0     C14787  10.847   1.992   3.053  0.5331 -0.4354 -0.0001
  851MOL0     C14788  10.900   1.972   3.197  0.2274  0.3895  1.1739
  851MOL0     C14789  10.936   1.828   3.218  0.3043 -1.0773  0.2238
  851MOL0     C14790  11.010   1.827   3.355 -0.0680 -0.4285  0.3729
  851MOL0     C14791  10.927   1.853   3.483 -0.3843  0.2947  0.5434
  851MOL0     C14792  10.821   1.738   3.500 -0.9825 -0.3366  0.0361
  851MOL0     C14793  10.760   1.762   3.630 -0.4782 -0.0748  0.5874
  851MOL0    Cl14794  10.634   1.633   3.667 -0.1804 -0.0848 -0.3080
  851MOL0     C14795  10.512   1.698   3.205  0.1578 -0.6437 -0.7964
  851MOL0     C14796  10.389   1.650   3.224  1.0141 -0.4338  0.3593
  851MOL0     O14797  10.066   1.865   3.205 -0.2321  0.2060  0.4216
  851MOL0     C14798   9.803   1.762   3.200 -0.0505 -0.2574 -0.7641
  851MOL0     C14799   9.673   1.715   3.229 -0.0563 -0.3539 -0.0602
  851MOL0     N14800   8.919   1.863   3.396 -0.2118 -0.1216  0.5781
  851MOL0     N14801   8.813   1.894   3.336  0.3096 -0.0875  1.6888
  851MOL0     C14802   7.840   1.144   3.227  0.4027  0.1305 -0.8976
  851MOL0     C14803   7.801   1.013   3.211  1.2194  0.2593 -0.8723
  851MOL0     C14804   7.796   0.612   3.041 -1.1197  0.4921 -0.3701
  851MOL0     C14805   7.669   0.595   3.085 -0.2058  0.4200 -0.4167
  851MOL0     C14806   7.580   0.515   3.008 -0.8298  0.8070  1.0279
  851MOL0     C14807   7.629   0.441   2.900 -0.1835 -0.6849 -0.8938
  851MOL0     O14808   7.547   0.350   2.838 -0.7226  0.7328  0.3758
  851MOL0     C14809   7.514   0.360   2.700 -0.0777 -0.4063 -0.2009
  851MOL0     C14810   7.376   0.275   2.678 -0.8936  1.2840 -0.5490
  851MOL0     C14811   7.332   0.300   2.533  0.3926 -0.0266 -0.6400
  851MOL0     C14812   7.206   0.219   2.495 -0.5150 -0.8337 -0.1630
  851MOL0     C14813   7.143   0.267   2.377 -0.1254 -0.0486  0.7505
  851MOL0     C14814   7.083   0.310   2.281  0.8859  0.8330  1.0286
  851MOL0     C14815   7.763   0.452   2.862  1.1360  0.7298 -0.0015
  851MOL0     C14816   7.846   0.530   2.934  0.2655 -0.0980  0.1535
  851MOL0     C14817   7.993   0.528   2.892 -0.7500 -0.1280 -0.3680
  851MOL0     H14818   8.072   0.833   3.303 -0.1903 -1.0499 -3.7974
  851MOL0     H14819   8.143   1.056   3.355  0.0261 -1.8513 -0.6861
  851MOL0     H14820   7.909   1.426   3.253  1.4260 -0.5752 -0.9715
  851MOL0     H14821   7.948   1.395   3.421  0.1361  3.2607  0.8680
  851MOL0     H14822   8.035   1.608   3.346 -2.1487 -0.6531  1.9500
  851MOL0     H14823   8.136   1.538   3.224  0.1274  2.3146  0.6583
  851MOL0     H14824   8.262   1.395   3.404 -0.8130  0.1419 -1.9988
  851MOL0     H14825   8.159   1.473   3.523  0.7107  2.5263  0.2040
  851MOL0     H14826   8.235   1.698   3.444  0.6081 -0.1799  1.0999
  851MOL0     H14827   8.338   1.588   3.532 -1.3977 -2.1907  0.6451
  851MOL0     H14828   8.455   1.506   3.337  0.9608 -0.9941 -3.6841
  851MOL0     H14829   8.340   1.574   3.228 -0.1937 -0.4683  0.6109
  851MOL0     H14830   8.401   1.806   3.312 -1.5278  0.4036 -0.1663
  851MOL0     H14831   8.540   1.715   3.382  0.5043 -1.2188 -0.5954
  851MOL0     H14832   8.478   1.742   3.086  0.8972  2.3601  0.2553
  851MOL0     H14833   8.582   1.609   3.135 -4.9958 -1.0927  2.0565
  851MOL0     H14834   8.720   1.793   3.046 -2.2305 -1.0016 -0.9725
  851MOL0     H14835   8.640   1.909   3.144 -0.2818 -0.6299  1.0665
  851MOL0     H14836   8.890   1.616   3.187  0.7773  1.6845 -0.7131
  851MOL0     H14837   9.156   1.775   3.456  1.9141  0.4284 -1.8098
  851MOL0     H14838   9.092   1.618   3.462 -1.5077  0.3592 -0.3453
  851MOL0     H14839   9.131   1.591   3.206 -0.3798  1.8132 -1.3566
  851MOL0     H14840   9.219   1.739   3.213  2.4396  0.3911  0.7031
  851MOL0     H14841   9.369   1.561   3.200 -0.8031 -0.0853 -0.8733
  851MOL0     H14842   9.303   1.474   3.341  2.3332 -1.7881 -2.0543
  851MOL0     H14843   9.395   1.669   3.483  0.9044  3.0933 -0.9566
  851MOL0     H14844   9.444   1.743   3.332  0.4951 -0.5019 -0.1468
  851MOL0     H14845   9.747   1.431   3.395 -0.3622 -0.1993 -0.6506
  851MOL0     H14846   9.970   1.501   3.322 -0.3504  0.1723 -1.5068
  851MOL0     H14847  10.213   1.833   2.992  1.7399  0.9592 -1.8995
  851MOL0     H14848  10.458   1.938   2.978 -0.9626 -1.9155 -0.5837
  851MOL0     H14849  10.664   1.950   2.937 -1.6423  1.2207 -0.2552
  851MOL0     H14850  10.642   2.040   3.090  0.8463  1.3719 -1.4615
  851MOL0     H14851  10.914   1.934   2.989  1.4974  0.0607  0.5375
  851MOL0     H14852  10.860   2.098   3.029  1.6292 -1.0517 -2.4430
  851MOL0     H14853  10.990   2.030   3.220  1.0631 -0.8655  1.1175
  851MOL0     H14854  10.830   2.012   3.271  1.1281  1.1434  1.6437
  851MOL0     H14855  11.002   1.793   3.138  0.8789  0.2853  0.0783
  851MOL0     H14856  10.852   1.758   3.212  0.3380 -1.0186 -1.1883
  851MOL0     H14857  11.089   1.902   3.358 -1.0770  0.9258 -2.7921
  851MOL0     H14858  11.059   1.729   3.355 -2.3884 -1.6665 -1.0339
  851MOL0     H14859  10.993   1.850   3.570  0.6112 -0.5895 -0.2105
  851MOL0     H14860  10.876   1.949   3.491  1.4814  1.1670  3.7272
  851MOL0     H14861  10.864   1.637   3.501 -1.8471 -0.7178  1.1461
  851MOL0     H14862  10.742   1.741   3.424  1.7987 -1.6074 -3.1582
  851MOL0     H14863  10.840   1.754   3.704 -0.8043 -0.4267  0.9077
  851MOL0     H14864  10.728   1.866   3.634 -0.0478  0.0377  1.2398
  851MOL0     H14865  10.591   1.662   3.270  1.5856  2.6119 -0.4994
  851MOL0     H14866  10.371   1.575   3.301  2.2807 -1.0924  0.0369
  851MOL0     H14867   9.817   1.860   3.155 -3.5412  0.6650 -0.1679
  851MOL0     H14868   9.596   1.781   3.190  0.6972  0.7852  0.3253
  851MOL0     H14869   7.776   1.230   3.207  0.4819  0.5162  0.4550
  851MOL0     H14870   7.706   1.005   3.159 -1.0956 -1.6227  3.1822
  851MOL0     H14871   7.648   0.623   3.188  0.5129 -1.6284  0.3368
  851MOL0     H14872   7.480   0.498   3.047 -0.5246 -1.7992  0.8619
  851MOL0     H14873   7.600   0.330   2.640  0.2654  0.0553  0.0504
  851MOL0     H14874   7.507   0.466   2.676 -0.9642 -0.1119  1.2686
  851MOL0     H14875   7.295   0.306   2.745  2.0397  1.9620  2.9963
  851MOL0     H14876   7.398   0.169   2.696 -0.5205  1.6609  1.5599
  851MOL0     H14877   7.418   0.270   2.472  0.7365 -2.7470  1.0075
  851MOL0     H14878   7.313   0.407   2.518 -0.5599 -0.0809  0.0922
  851MOL0     H14879   7.246   0.117   2.498  1.8732  0.0184 -0.4770
  851MOL0     H14880   7.132   0.236   2.573 -0.8404  0.4703 -0.7341
  851MOL0     H14881   7.045   0.368   2.199  0.6856 -1.0655 -0.2799
  851MOL0     H14882   7.803   0.396   2.777  1.2499  1.0592 -0.1664
  851MOL0     H14883   8.003   0.475   2.797 -0.3972  0.1049 -0.4628
  851MOL0     H14884   8.026   0.628   2.864  0.3625 -1.0442 -2.5794
  851MOL0     H14885   8.056   0.486   2.970 -1.6333  0.8311  0.9011
  852MOL0     O14886   5.397   0.564   2.200  0.5464  0.1768  0.7759
  852MOL0     C14887   5.407   0.620   2.307 -0.2269  0.8938 -0.8552
  852MOL0     O14888   5.346   0.570   2.423 -0.4144 -0.3769  0.2960
  852MOL0     C14889   5.235   0.502   2.398 -0.1629  0.1932 -0.3028
  852MOL0     C14890   5.229   0.369   2.431 -0.1381  0.0798  0.1640
  852MOL0     C14891   5.109   0.302   2.406 -0.1275  0.1522  0.1658
  852MOL0     C14892   4.995   0.367   2.357 -0.0039 -0.0808 -0.4043
  852MOL0     O14893   4.878   0.288   2.326  0.0272 -0.1482 -0.9581
  852MOL0     C14894   4.777   0.342   2.241 -0.3677  0.1112 -0.4495
  852MOL0     C14895   4.814   0.350   2.095  1.0305  0.2548  0.3287
  852MOL0     C14896   4.856   0.214   2.049 -1.1466  0.1778 -0.7594
  852MOL0     C14897   4.882   0.220   1.900 -0.4912  0.4269  0.4775
  852MOL0     C14898   4.921   0.087   1.841 -0.2937  0.1600 -0.2007
  852MOL0     C14899   4.970   0.092   1.693  0.0774  0.2734  0.1826
  852MOL0     C14900   5.016  -0.042   1.644  0.2106 -0.2010 -0.0445
  852MOL0     C14901   5.160  -0.080   1.663 -0.4595  0.1299 -0.2601
  852MOL0     N14902   5.166  -0.165   1.779  0.4121  0.8694 -0.1671
  852MOL0     C14903   5.223  -0.130   1.898 -0.5137 -0.5561  0.6574
  852MOL0     C14904   5.251  -0.240   1.975  0.2923  0.4002 -0.3525
  852MOL0     C14905   5.296  -0.257   2.113 -0.5685  0.3425 -0.3934
  852MOL0     C14906   5.220  -0.155   2.204  0.6458  0.2800  0.3059
  852MOL0     C14907   5.073  -0.168   2.196  0.2940  0.1696  0.6959
  852MOL0     C14908   5.015  -0.311   2.222  0.7558 -0.4821 -0.8613
  852MOL0     O14909   4.872  -0.308   2.247  0.3517 -0.3418 -0.1369
  852MOL0     C14910   4.792  -0.293   2.134 -0.6330  0.7425  0.7977
  852MOL0     C14911   4.790  -0.386   2.032  0.3187  0.6518  0.4338
  852MOL0     C14912   4.732  -0.365   1.911  0.6443 -0.7150 -0.6134
  852MOL0     C14913   4.664  -0.243   1.888 -0.3598  0.2123 -1.3774
  852MOL0     C14914   4.610  -0.217   1.747  0.0469  0.6787 -0.4694
  852MOL0     O14915   4.702  -0.249   1.647 -0.0674  0.0738  0.0267
  852MOL0     C14916   4.654  -0.286   1.518 -0.1222 -0.4776 -0.2029
  852MOL0     C14917   4.522  -0.294   1.466 -0.2075  1.0634 -0.3767
  852MOL0     C14918   4.496  -0.356   1.347  0.0635  1.0026  0.0915
  852MOL0     C14919   4.603  -0.396   1.262 -0.1430 -0.3020 -0.6508
  852MOL0     O14920   4.589  -0.466   1.144  0.2905 -0.8855  0.6018
  852MOL0     C14921   4.459  -0.494   1.096 -0.4770 -0.6371 -0.0161
  852MOL0     C14922   4.465  -0.536   0.953 -1.2885  1.6190  0.1300
  852MOL0     C14923   4.507  -0.680   0.950  0.5696  0.1464  0.2919
  852MOL0     C14924   4.657  -0.721   0.934 -0.5555 -0.6174 -1.0870
  852MOL0     C14925   4.686  -0.865   0.910 -0.1829 -0.3528  0.2223
  852MOL0     C14926   4.828  -0.887   0.850  0.0831 -0.0601  0.2971
  852MOL0     C14927   4.897  -1.032   0.847  0.1833 -0.0489 -0.4314
  852MOL0     C14928   5.051  -1.021   0.840  0.3521  0.3795 -0.1017
  852MOL0    Cl14929   5.131  -0.984   0.990  0.3180  0.1452 -0.4972
  852MOL0     C14930   4.731  -0.364   1.303  0.3176  0.7470 -0.6776
  852MOL0     C14931   4.757  -0.305   1.427  0.1799 -0.1051 -0.8533
  852MOL0     O14932   4.493  -0.196   1.731  0.2683  0.0660 -0.3452
  852MOL0     C14933   4.649  -0.149   1.992 -0.1593 -0.4667  0.5040
  852MOL0     C14934   4.717  -0.177   2.115 -0.6791 -1.1163  0.5274
  852MOL0     N14935   5.209  -0.343   1.891 -0.9087  0.4749 -0.7110
  852MOL0     N14936   5.166  -0.303   1.775 -0.2576  0.0644  0.2174
  852MOL0     C14937   4.999   0.500   2.327  0.1818 -0.3241 -0.2962
  852MOL0     C14938   5.124   0.566   2.356 -0.1444 -0.0664  0.4684
  852MOL0     C14939   5.502   0.739   2.330  0.0776 -0.6114  0.2606
  852MOL0     C14940   5.494   0.819   2.444  0.5771  0.4516 -0.0565
  852MOL0     C14941   5.586   0.912   2.491  0.1807  0.5663 -0.1570
  852MOL0     C14942   5.669   0.959   2.393 -0.0259 -0.1756 -0.0505
  852MOL0     O14943   5.747   1.048   2.447  0.3848 -0.1256 -0.0616
  852MOL0     C14944   5.847   1.112   2.368 -0.4520  0.2230 -0.1062
  852MOL0     C14945   5.863   1.257   2.423  0.0518  0.2069 -0.1924
  852MOL0     C14946   5.873   1.272   2.574 -0.2776 -1.0674 -0.4249
  852MOL0     C14947   5.994   1.200   2.633 -0.7781  0.3668  0.1845
  852MOL0     C14948   6.127   1.224   2.575  0.5569  0.6657  0.5383
  852MOL0     C14949   6.244   1.246   2.553 -0.1470  0.1961  0.6014
  852MOL0     C14950   5.675   0.901   2.263  0.3618 -0.2151  0.2742
  852MOL0     C14951   5.597   0.783   2.229 -0.5608 -0.7754 -1.1570
  852MOL0     C14952   5.594   0.736   2.089 -0.4381  0.1987 -0.0414
  852MOL0     H14953   5.317   0.316   2.465 -0.2907  0.1331  0.6462
  852MOL0     H14954   5.100   0.194   2.416 -2.2223  0.2972  0.3066
  852MOL0     H14955   4.691   0.274   2.247 -0.4234 -0.0855 -2.7444
  852MOL0     H14956   4.739   0.438   2.279 -2.5388 -1.2375  1.0198
  852MOL0     H14957   4.895   0.420   2.076 -1.1867  2.3343 -2.2426
  852MOL0     H14958   4.723   0.382   2.042 -0.9322 -2.6761  1.6160
  852MOL0     H14959   4.781   0.138   2.071 -0.0334 -1.1463 -1.3940
  852MOL0     H14960   4.949   0.178   2.094 -0.4449 -0.2082 -2.4348
  852MOL0     H14961   4.791   0.254   1.851  0.3426 -0.6950 -2.0397
  852MOL0     H14962   4.958   0.291   1.865  0.7791 -1.7064 -1.3737
  852MOL0     H14963   4.995   0.038   1.906  1.0146  2.3530  0.1063
  852MOL0     H14964   4.838   0.017   1.838 -1.3987  1.4680 -1.7343
  852MOL0     H14965   4.892   0.130   1.627  0.3984  0.1333 -0.2776
  852MOL0     H14966   5.057   0.158   1.693  0.5748 -0.3226  2.0932
  852MOL0     H14967   5.009  -0.037   1.535 -0.8598 -2.4464 -0.1194
  852MOL0     H14968   4.956  -0.123   1.685 -2.8756  2.9289  2.2416
  852MOL0     H14969   5.198  -0.134   1.576 -1.2168  2.0183 -1.8502
  852MOL0     H14970   5.214   0.013   1.680  1.4096 -1.2449  2.0599
  852MOL0     H14971   5.247  -0.027   1.922 -0.8241 -0.0073 -1.2015
  852MOL0     H14972   5.286  -0.360   2.147  0.7145  1.2772  3.2769
  852MOL0     H14973   5.404  -0.240   2.124 -0.4052 -1.9510  2.7807
  852MOL0     H14974   5.253  -0.163   2.308 -1.0458 -0.5671  0.8091
  852MOL0     H14975   5.249  -0.056   2.170 -1.3320  0.5010 -0.8885
  852MOL0     H14976   5.030  -0.135   2.100  1.4057 -0.1762  0.0592
  852MOL0     H14977   5.041  -0.099   2.274  0.4519  1.5641 -0.4193
  852MOL0     H14978   5.065  -0.346   2.312 -0.9934  2.3013  1.3574
  852MOL0     H14979   5.035  -0.377   2.137 -0.8290 -1.7356 -0.3012
  852MOL0     H14980   4.843  -0.476   2.060  1.9873  1.7007  0.8234
  852MOL0     H14981   4.741  -0.442   1.835  3.1175 -0.1059 -1.0316
  852MOL0     H14982   4.434  -0.277   1.528 -1.4395 -2.7557 -0.7941
  852MOL0     H14983   4.397  -0.384   1.311  0.0202  2.0556 -0.6438
  852MOL0     H14984   4.429  -0.583   1.153  1.9676 -0.8845  0.9895
  852MOL0     H14985   4.390  -0.410   1.105  1.9049  1.2892  1.3958
  852MOL0     H14986   4.365  -0.517   0.914 -2.0680 -0.8529  0.7227
  852MOL0     H14987   4.540  -0.483   0.894 -0.9726  0.3365 -0.6556
  852MOL0     H14988   4.468  -0.733   1.038 -0.9072 -0.0132 -0.4193
  852MOL0     H14989   4.458  -0.726   0.863  0.0788 -0.0095  0.6470
  852MOL0     H14990   4.702  -0.687   1.028  0.2376  1.6723 -2.2361
  852MOL0     H14991   4.712  -0.667   0.857 -2.5513 -0.0947 -2.2262
  852MOL0     H14992   4.616  -0.889   0.830 -0.8551 -2.0650  1.2625
  852MOL0     H14993   4.661  -0.923   0.999 -1.1325  0.3123  0.4002
  852MOL0     H14994   4.819  -0.873   0.742 -4.5119 -1.3035  0.2905
  852MOL0     H14995   4.896  -0.818   0.900 -1.8577  0.9481  1.6682
  852MOL0     H14996   4.858  -1.077   0.755  3.3898 -1.0825 -1.4339
  852MOL0     H14997   4.880  -1.096   0.934 -0.3579  1.8893  0.9716
  852MOL0     H14998   5.082  -1.111   0.787  0.9295  0.8595 -0.5950
  852MOL0     H14999   5.073  -0.945   0.764  2.6669 -0.8829 -0.7692
  852MOL0     H15000   4.814  -0.370   1.234 -2.2667 -0.7131 -3.9690
  852MOL0     H15001   4.862  -0.296   1.455  0.3376 -2.3675 -0.5212
  852MOL0     H15002   4.606  -0.055   1.958  2.1934 -0.1699 -1.9824
  852MOL0     H15003   4.723  -0.100   2.192  0.0418 -1.4538  0.8160
  852MOL0     H15004   4.918   0.558   2.283  0.3912 -1.3199 -2.0925
  852MOL0     H15005   5.128   0.674   2.340 -2.7211 -0.0393 -0.4467
  852MOL0     H15006   5.427   0.795   2.526  1.1286  6.5309  2.7077
  852MOL0     H15007   5.579   0.944   2.594  0.8987 -0.4661  0.2360
  852MOL0     H15008   5.822   1.108   2.262  0.3898 -2.3261 -0.2704
  852MOL0     H15009   5.942   1.063   2.392  0.4217  2.7089  2.0350
  852MOL0     H15010   5.770   1.303   2.388 -0.5466 -0.5163  0.4104
  852MOL0     H15011   5.948   1.298   2.369 -0.0402 -0.4092 -0.8125
  852MOL0     H15012   5.779   1.253   2.627  0.3908  1.4740  1.8986
  852MOL0     H15013   5.891   1.378   2.596  1.6600 -1.3043 -0.6481
  852MOL0     H15014   6.012   1.242   2.733 -0.3862 -1.1875  0.7915
  852MOL0     H15015   5.976   1.093   2.642 -0.3223  0.3529  1.0239
  852MOL0     H15016   6.338   1.277   2.511 -0.1561 -0.2167  0.2693
  852MOL0     H15017   5.734   0.944   2.183 -1.0007  0.9412 -0.1570
  852MOL0     H15018   5.494   0.720   2.047 -0.1440 -3.2510  0.3151
  852MOL0     H15019   5.643   0.818   2.035 -0.9661  0.8647  0.4711
  852MOL0     H15020   5.661   0.649   2.080  0.8366  0.9553  1.6129
  853MOL0     O15021  10.473   7.601   3.108  0.4669 -0.4650  0.7277
  853MOL0     C15022  10.581   7.592   3.164  0.1245 -0.1605 -0.2249
  853MOL0     O15023  10.699   7.650   3.117  0.1379 -0.2267  0.4938
  853MOL0     C15024  10.698   7.702   2.989  0.4556  0.0058  0.0149
  853MOL0     C15025  10.658   7.831   2.983  0.7379 -0.3071  0.0734
  853MOL0     C15026  10.662   7.896   2.860  0.6201 -0.3755  0.1436
  853MOL0     C15027  10.696   7.834   2.739 -0.1115  0.6590 -0.5659
  853MOL0     O15028  10.671   7.907   2.622 -0.2991 -0.2783 -1.2125
  853MOL0     C15029  10.639   7.837   2.499 -0.8289  0.3044  0.1947
  853MOL0     C15030  10.765   7.860   2.412  0.1811 -0.0329 -0.2745
  853MOL0     C15031  10.746   7.941   2.289 -0.0791 -0.4494 -0.0172
  853MOL0     C15032  10.872   7.949   2.195  0.1781  0.0267 -0.6506
  853MOL0     C15033  10.838   8.033   2.072  0.0492 -0.2557 -0.3887
  853MOL0     C15034  10.955   8.014   1.969 -1.0761  0.1089 -0.2785
  853MOL0     C15035  10.918   8.086   1.837  0.2959  0.0961  0.1747
  853MOL0     C15036  11.045   8.097   1.745  0.2963 -0.6562 -1.0353
  853MOL0     N15037  11.095   7.960   1.706  0.1375 -0.7414  0.4238
  853MOL0     C15038  11.208   7.899   1.759  0.3402 -0.0486  0.1940
  853MOL0     C15039  11.243   7.802   1.662  0.5025 -0.6138 -0.2010
  853MOL0     C15040  11.356   7.699   1.663  0.4118 -0.6036 -0.1351
  853MOL0     C15041  11.477   7.755   1.595  0.0255 -0.3734  0.8102
  853MOL0     C15042  11.570   7.836   1.681  0.1982  0.4523  0.0843
  853MOL0     C15043  11.712   7.837   1.625 -0.9001  0.4317  0.4156
  853MOL0     O15044  11.723   7.918   1.516 -0.7369 -0.0171 -0.0545
  853MOL0     C15045  11.801   7.885   1.405 -1.0755  0.3317 -0.1192
  853MOL0     C15046  11.766   7.921   1.274 -1.2049 -0.1876  0.6836
  853MOL0     C15047  11.868   7.896   1.171  0.1613  0.1314 -0.2265
  853MOL0     C15048  11.984   7.816   1.188 -0.0336  0.1975  0.3993
  853MOL0     C15049  12.071   7.803   1.064  0.7471  0.9970  0.1012
  853MOL0     O15050  12.034   7.866   0.951 -0.3288 -0.2923  0.1665
  853MOL0     C15051  12.126   7.846   0.855 -0.1336  0.3114  0.0367
  853MOL0     C15052  12.253   7.903   0.847 -0.1924 -0.4558  0.1517
  853MOL0     C15053  12.335   7.910   0.728  0.1102 -0.1502  0.3846
  853MOL0     C15054  12.303   7.847   0.606 -0.1795 -0.1440  1.1314
  853MOL0     O15055  12.375   7.864   0.484 -0.1882  0.2488 -0.2910
  853MOL0     C15056  12.292   7.908   0.373 -0.9386  0.0365  0.5175
  853MOL0     C15057  12.387   7.945   0.268 -0.3321 -0.4089  0.1465
  853MOL0     C15058  12.336   8.076   0.203  0.4006  0.0919 -0.4312
  853MOL0     C15059  12.410   8.113   0.079  0.2916 -0.8394 -0.0996
  853MOL0     C15060  12.388   8.259   0.026 -1.0091  0.4568 -0.7381
  853MOL0     C15061  12.242   8.263  -0.026 -0.4945  0.6246 -0.8256
  853MOL0     C15062  12.212   8.393  -0.095  0.7303 -0.4950  0.2071
  853MOL0     C15063  12.070   8.412  -0.141 -0.2865 -0.1457 -1.0186
  853MOL0    Cl15064  12.031   8.315  -0.293  0.3538 -0.2574  0.3700
  853MOL0     C15065  12.171   7.786   0.612 -1.0028 -0.2386  0.0099
  853MOL0     C15066  12.094   7.777   0.739  0.9094  0.1215  0.5343
  853MOL0     O15067  12.176   7.736   1.082 -0.1944  0.5262 -0.1979
  853MOL0     C15068  12.018   7.783   1.320  0.5281  0.6365 -0.4999
  853MOL0     C15069  11.924   7.818   1.429  0.0155 -0.5731  0.1398
  853MOL0     N15070  11.138   7.806   1.575  0.4153  0.6218  0.6314
  853MOL0     N15071  11.043   7.886   1.603 -0.7518 -0.6489  0.1207
  853MOL0     C15072  10.734   7.705   2.746 -0.4213  0.0814 -0.0620
  853MOL0     C15073  10.742   7.633   2.870  0.1874 -0.0470 -0.4929
  853MOL0     C15074  10.584   7.518   3.289  0.8378  0.2199 -0.0277
  853MOL0     C15075  10.686   7.549   3.377 -1.0349  1.4376 -0.7286
  853MOL0     C15076  10.702   7.485   3.500  0.6933 -0.0788  0.2814
  853MOL0     C15077  10.600   7.400   3.542  0.4466 -0.0113  0.3069
  853MOL0     O15078  10.586   7.345   3.666  0.0461 -0.0823 -0.1784
  853MOL0     C15079  10.685   7.383   3.766  0.5257 -0.0958  0.6038
  853MOL0     C15080  10.633   7.326   3.897 -0.2694  0.2086 -0.1746
  853MOL0     C15081  10.745   7.330   4.011  0.0407 -0.7315  0.1337
  853MOL0     C15082  10.683   7.283   4.140  0.4687 -1.2343  1.3715
  853MOL0     C15083  10.741   7.334   4.268 -0.3445  0.3810 -0.5741
  853MOL0     C15084  10.800   7.378   4.376  0.2561  0.3722 -0.3293
  853MOL0     C15085  10.495   7.373   3.455 -0.0038 -0.2953 -0.4068
  853MOL0     C15086  10.485   7.424   3.333 -0.0126 -0.9958  0.4471
  853MOL0     C15087  10.362   7.386   3.258 -0.2383  1.2312  0.0120
  853MOL0     H15088  10.633   7.885   3.073  0.4797  0.6279 -0.5466
  853MOL0     H15089  10.633   7.999   2.843 -0.5113 -0.9123 -1.4486
  853MOL0     H15090  10.635   7.730   2.521  1.1544  0.2328  0.3969
  853MOL0     H15091  10.546   7.869   2.451 -1.9061 -1.5928  0.8952
  853MOL0     H15092  10.800   7.764   2.372 -0.6228 -0.4506  0.0078
  853MOL0     H15093  10.848   7.898   2.472 -0.1069 -1.1815  0.8805
  853MOL0     H15094  10.722   8.045   2.313 -0.7426 -0.2109 -1.5432
  853MOL0     H15095  10.666   7.894   2.230  1.1911 -2.4104 -0.2674
  853MOL0     H15096  10.949   7.994   2.257 -1.1322 -1.1537  1.9846
  853MOL0     H15097  10.890   7.848   2.155  2.3572 -0.0686  0.4807
  853MOL0     H15098  10.746   8.000   2.022  0.2424 -1.7958  0.2477
  853MOL0     H15099  10.820   8.137   2.102 -3.1758 -0.9640  0.4764
  853MOL0     H15100  11.050   8.053   2.009  0.2077 -1.3068 -1.7742
  853MOL0     H15101  10.958   7.907   1.949 -0.8098  0.1573 -0.5051
  853MOL0     H15102  10.878   8.187   1.842 -1.7054 -0.5486 -1.5247
  853MOL0     H15103  10.843   8.023   1.787  0.7496  0.1021 -0.5338
  853MOL0     H15104  11.008   8.136   1.649  1.8813 -0.2934 -1.5292
  853MOL0     H15105  11.119   8.162   1.791 -0.8583  0.1556 -0.2857
  853MOL0     H15106  11.263   7.917   1.850  0.3241 -1.1628  0.4393
  853MOL0     H15107  11.384   7.676   1.767  1.2747 -4.1218 -1.0231
  853MOL0     H15108  11.319   7.607   1.617  1.3371 -1.5682  0.9674
  853MOL0     H15109  11.528   7.668   1.552 -3.5599 -2.7906  1.0217
  853MOL0     H15110  11.449   7.819   1.510  0.9190 -0.8432  0.1452
  853MOL0     H15111  11.568   7.789   1.779  2.9974 -2.5603 -1.1232
  853MOL0     H15112  11.534   7.939   1.691 -0.0794  0.1686  2.5446
  853MOL0     H15113  11.747   7.738   1.594 -1.6594  0.5094 -0.7682
  853MOL0     H15114  11.773   7.886   1.702  1.0667  5.0390 -3.4976
  853MOL0     H15115  11.669   7.969   1.265 -2.0991 -1.7767  1.4589
  853MOL0     H15116  11.850   7.930   1.070  0.6469  1.7009  0.1749
  853MOL0     H15117  12.288   7.955   0.935  1.0381 -0.8020 -0.1190
  853MOL0     H15118  12.430   7.961   0.730  0.5052 -0.8896  1.2392
  853MOL0     H15119  12.228   7.831   0.329  1.8303 -0.9112 -2.2137
  853MOL0     H15120  12.239   7.996   0.412 -4.2676  0.0445 -3.4067
  853MOL0     H15121  12.491   7.953   0.301 -0.0059 -1.1133 -0.6448
  853MOL0     H15122  12.397   7.860   0.199  2.0912 -1.4522  1.6428
  853MOL0     H15123  12.230   8.064   0.177  0.5166 -0.4948 -0.6562
  853MOL0     H15124  12.343   8.152   0.281  2.4553 -2.2280  1.8644
  853MOL0     H15125  12.401   8.038  -0.000 -0.3447  2.1608 -3.0756
  853MOL0     H15126  12.515   8.097   0.107  0.4423 -0.5153 -0.4653
  853MOL0     H15127  12.447   8.281  -0.064  1.3054 -0.5364  0.4559
  853MOL0     H15128  12.403   8.335   0.103  4.9363  0.2780 -1.2354
  853MOL0     H15129  12.217   8.185  -0.098  0.7191  1.6426 -2.4191
  853MOL0     H15130  12.175   8.252   0.060 -2.0886  0.1719 -2.0910
  853MOL0     H15131  12.282   8.397  -0.178 -0.9555 -2.1343 -1.3823
  853MOL0     H15132  12.240   8.484  -0.040  2.0257 -0.2504 -0.8260
  853MOL0     H15133  12.003   8.373  -0.064 -0.3455 -0.0260 -1.0089
  853MOL0     H15134  12.055   8.520  -0.154 -0.0537 -0.2957 -2.8463
  853MOL0     H15135  12.135   7.728   0.528 -1.6807 -2.1287  1.5366
  853MOL0     H15136  12.005   7.716   0.733  3.0464 -3.1106 -1.2989
  853MOL0     H15137  12.111   7.733   1.343 -0.1788 -0.4425  0.1244
  853MOL0     H15138  11.950   7.781   1.528  1.5951 -4.1696 -1.4163
  853MOL0     H15139  10.763   7.643   2.662  0.3781 -1.4835  1.3167
  853MOL0     H15140  10.770   7.528   2.876  0.8754  0.2130  1.5595
  853MOL0     H15141  10.762   7.619   3.344  2.6688 -1.5786  0.6899
  853MOL0     H15142  10.777   7.504   3.576  0.3972 -1.4659  0.9354
  853MOL0     H15143  10.709   7.490   3.770  0.2098  0.4057 -4.5315
  853MOL0     H15144  10.782   7.339   3.740  1.3365  0.7407  2.0405
  853MOL0     H15145  10.602   7.222   3.889 -2.6150  0.8829 -0.7174
  853MOL0     H15146  10.534   7.367   3.918 -1.3404 -1.5342 -1.5406
  853MOL0     H15147  10.761   7.438   4.024 -0.0897 -0.8041  0.9712
  853MOL0     H15148  10.840   7.283   3.982  1.1497 -1.1359  3.8882
  853MOL0     H15149  10.578   7.315   4.147  0.1384 -1.4471 -1.4116
  853MOL0     H15150  10.688   7.174   4.133 -1.4913 -1.2919 -0.2929
  853MOL0     H15151  10.851   7.418   4.460 -0.6073  1.3651 -0.2555
  853MOL0     H15152  10.408   7.316   3.487  1.8276 -2.8604  0.3648
  853MOL0     H15153  10.404   7.336   3.170  2.0295  0.3551  1.5087
  853MOL0     H15154  10.309   7.308   3.313 -0.2655  1.8023  0.8133
  853MOL0     H15155  10.296   7.472   3.245  1.3106  2.6599  1.3126
  854MOL0     O15156   1.806   5.081   0.336 -0.3537  0.1278 -0.5422
  854MOL0     C15157   1.903   5.017   0.382  0.8362  0.8285 -0.3296
  854MOL0     O15158   1.907   4.896   0.444 -0.0236 -0.9553  0.2659
  854MOL0     C15159   1.795   4.849   0.498 -0.0910  0.3044  0.3396
  854MOL0     C15160   1.776   4.870   0.625  0.2228  0.2715  0.4881
  854MOL0     C15161   1.656   4.826   0.687  1.1568  0.4294 -1.0685
  854MOL0     C15162   1.549   4.766   0.610 -0.1994  0.3873 -0.6041
  854MOL0     O15163   1.424   4.732   0.663  0.0720  0.2402  0.1744
  854MOL0     C15164   1.404   4.592   0.686 -0.3522  0.0273 -0.1452
  854MOL0     C15165   1.416   4.567   0.832 -0.0619  0.4302  0.2357
  854MOL0     C15166   1.334   4.666   0.922  0.2933 -0.3231  0.2873
  854MOL0     C15167   1.316   4.622   1.067 -0.0491 -0.2925 -0.3122
  854MOL0     C15168   1.443   4.602   1.151 -0.3479 -0.1191  0.3637
  854MOL0     C15169   1.413   4.580   1.298 -0.6840  0.0583  0.6097
  854MOL0     C15170   1.538   4.537   1.371  0.5967  0.4380 -0.2671
  854MOL0     C15171   1.667   4.613   1.342 -0.5081  0.2106  0.0775
  854MOL0     N15172   1.663   4.743   1.424  0.7257 -0.1096 -0.6107
  854MOL0     C15173   1.656   4.873   1.372  0.1328 -0.1850 -0.1419
  854MOL0     C15174   1.671   4.951   1.478  0.9652  0.2347 -0.5526
  854MOL0     C15175   1.676   5.097   1.471 -0.7394  0.6221 -0.0127
  854MOL0     C15176   1.814   5.156   1.496 -0.5263  0.7829 -0.2527
  854MOL0     C15177   1.797   5.300   1.508  0.1202  0.0997  0.2339
  854MOL0     C15178   1.941   5.354   1.512  0.4764 -0.1557 -0.0284
  854MOL0     O15179   2.020   5.326   1.398 -1.0649 -0.0264 -0.2231
  854MOL0     C15180   2.020   5.411   1.290 -0.7197  0.5258 -0.7530
  854MOL0     C15181   1.921   5.493   1.249 -0.2454  0.2625  0.1906
  854MOL0     C15182   1.936   5.570   1.130 -0.1705 -0.5425  0.0905
  854MOL0     C15183   2.051   5.561   1.048 -0.0932  0.3082  0.7008
  854MOL0     C15184   2.071   5.630   0.919  0.1230 -0.0211 -0.3317
  854MOL0     O15185   2.183   5.597   0.856 -0.1160 -0.3077  0.7137
  854MOL0     C15186   2.196   5.640   0.726  0.3072  0.1309  1.0588
  854MOL0     C15187   2.245   5.763   0.698 -0.2628  0.1443 -0.0644
  854MOL0     C15188   2.263   5.812   0.564  0.2301 -0.6342 -0.0772
  854MOL0     C15189   2.235   5.721   0.458 -0.0510  0.2002  0.6890
  854MOL0     O15190   2.241   5.753   0.325  1.0981  0.2629  0.4868
  854MOL0     C15191   2.209   5.886   0.288 -0.6289  0.3787  0.7466
  854MOL0     C15192   2.166   5.901   0.139 -0.5715  0.1325  0.4774
  854MOL0     C15193   2.243   5.824   0.031 -0.2125  0.4276 -0.3226
  854MOL0     C15194   2.378   5.904   0.003 -0.3232  0.4881 -0.3336
  854MOL0     C15195   2.451   5.839  -0.109  0.6730  0.3961 -1.5000
  854MOL0     C15196   2.602   5.875  -0.122  0.6409 -0.0365 -0.4067
  854MOL0     C15197   2.662   5.822  -0.261  0.0447 -0.5229  0.0418
  854MOL0     C15198   2.681   5.933  -0.368 -0.2088 -0.0436  0.3508
  854MOL0    Cl15199   2.726   5.852  -0.523  0.3996 -0.0964 -0.2663
  854MOL0     C15200   2.194   5.591   0.491 -0.5952  0.1123  0.2370
  854MOL0     C15201   2.171   5.548   0.626  0.2839  0.1843 -1.0227
  854MOL0     O15202   1.980   5.692   0.866 -0.4483  0.5923 -0.8028
  854MOL0     C15203   2.149   5.472   1.089 -0.2367 -0.8529 -1.0067
  854MOL0     C15204   2.138   5.403   1.212 -0.1388 -0.5331  0.0362
  854MOL0     N15205   1.691   4.874   1.592  0.3266  0.1096  0.8678
  854MOL0     N15206   1.666   4.747   1.560  0.0635  0.5694  0.7137
  854MOL0     C15207   1.572   4.745   0.471 -0.2964 -0.2864 -0.0124
  854MOL0     C15208   1.690   4.786   0.416 -0.1217 -0.3091 -0.7146
  854MOL0     C15209   2.024   5.081   0.336  0.3922  0.5703 -0.0251
  854MOL0     C15210   2.026   5.202   0.270 -0.3861 -0.4384  0.7388
  854MOL0     C15211   2.137   5.262   0.211  0.5343  0.5046  0.0106
  854MOL0     C15212   2.259   5.221   0.248  0.0066  0.8283  0.2010
  854MOL0     O15213   2.374   5.279   0.190 -0.2846 -0.2781  0.1002
  854MOL0     C15214   2.501   5.265   0.257  0.4586  0.6028 -0.1912
  854MOL0     C15215   2.589   5.374   0.200  0.8038 -0.7272 -1.1119
  854MOL0     C15216   2.627   5.378   0.053  0.2047  0.0418  0.1266
  854MOL0     C15217   2.741   5.470   0.017  0.0929 -0.9285 -0.7142
  854MOL0     C15218   2.873   5.415   0.055 -0.9313 -0.1154  0.6305
  854MOL0     C15219   2.986   5.374   0.087 -0.9282 -0.5883 -0.4625
  854MOL0     C15220   2.268   5.096   0.325 -0.2855  0.4575  0.0135
  854MOL0     C15221   2.151   5.025   0.363 -0.7696  1.0181  0.8034
  854MOL0     C15222   2.174   4.890   0.413 -0.0725  0.7219  0.2160
  854MOL0     H15223   1.853   4.932   0.670  0.5027  1.9392 -2.0816
  854MOL0     H15224   1.643   4.836   0.794 -0.1920  2.9641 -1.3914
  854MOL0     H15225   1.299   4.573   0.663 -0.5034  1.1905 -0.5044
  854MOL0     H15226   1.479   4.538   0.628  0.3321  0.8908 -0.0875
  854MOL0     H15227   1.524   4.560   0.848  0.5909 -0.3602 -3.4765
  854MOL0     H15228   1.378   4.469   0.862  3.6273 -0.3149  3.2218
  854MOL0     H15229   1.230   4.675   0.888 -1.0078  3.1956  4.2820
  854MOL0     H15230   1.388   4.761   0.933  0.7152 -0.2347 -2.1240
  854MOL0     H15231   1.259   4.703   1.114 -0.7073 -1.6660  1.3592
  854MOL0     H15232   1.261   4.528   1.077  1.5251 -1.0241  2.5686
  854MOL0     H15233   1.499   4.520   1.106  1.1797  1.5180 -0.8669
  854MOL0     H15234   1.513   4.684   1.130 -3.6398  2.4899 -1.4975
  854MOL0     H15235   1.377   4.675   1.339  4.4773  1.0605  3.7211
  854MOL0     H15236   1.326   4.515   1.308 -1.2572  0.5558 -0.8784
  854MOL0     H15237   1.551   4.428   1.365 -2.4410 -0.4452  4.2611
  854MOL0     H15238   1.511   4.539   1.477  1.7480 -3.7795  0.3062
  854MOL0     H15239   1.746   4.554   1.390  1.4576  0.3136 -2.8211
  854MOL0     H15240   1.702   4.621   1.239  1.6504 -6.0631 -0.1197
  854MOL0     H15241   1.636   4.911   1.272 -0.8502  1.0998  0.5061
  854MOL0     H15242   1.648   5.130   1.370 -1.2268  0.2511 -0.0044
  854MOL0     H15243   1.609   5.152   1.538  0.1154  2.4989 -0.6232
  854MOL0     H15244   1.864   5.117   1.584 -1.8845 -0.8651 -0.1711
  854MOL0     H15245   1.874   5.129   1.409 -2.1074 -1.0229 -0.8503
  854MOL0     H15246   1.737   5.318   1.597 -2.7364  0.9164 -1.7209
  854MOL0     H15247   1.734   5.341   1.429 -0.5490 -2.5040 -0.7010
  854MOL0     H15248   2.001   5.303   1.587 -1.6261 -2.5400  0.1665
  854MOL0     H15249   1.942   5.461   1.532  1.4809 -0.4049  1.3523
  854MOL0     H15250   1.828   5.487   1.304  0.4969  1.1366  1.5839
  854MOL0     H15251   1.869   5.638   1.079  3.8600  1.1651 -3.5539
  854MOL0     H15252   2.261   5.829   0.783  2.5467 -1.4421  0.7608
  854MOL0     H15253   2.289   5.912   0.531 -2.4974  0.7652  1.6390
  854MOL0     H15254   2.133   5.917   0.359 -3.0588 -1.2482 -0.9948
  854MOL0     H15255   2.300   5.947   0.296 -0.4354 -0.1509  3.7639
  854MOL0     H15256   2.061   5.869   0.147 -1.1511  2.3215  5.2035
  854MOL0     H15257   2.175   6.008   0.121  0.6009 -0.2006 -1.1058
  854MOL0     H15258   2.268   5.723   0.066  1.0572  1.2257  1.1664
  854MOL0     H15259   2.187   5.819  -0.063  0.3765 -1.5022 -0.6271
  854MOL0     H15260   2.446   5.926   0.086 -0.0937  3.3600 -1.1709
  854MOL0     H15261   2.349   6.005  -0.029 -0.4808 -0.2599 -2.6959
  854MOL0     H15262   2.391   5.863  -0.198 -0.8716  0.2898 -0.5145
  854MOL0     H15263   2.450   5.730  -0.096 -0.3837  0.5771  0.1200
  854MOL0     H15264   2.623   5.981  -0.109 -2.8904  0.5908  1.2655
  854MOL0     H15265   2.650   5.825  -0.038 -3.2974 -5.2003 -0.7071
  854MOL0     H15266   2.587   5.749  -0.293 -0.2472  0.5764 -1.9689
  854MOL0     H15267   2.752   5.762  -0.247  0.0163 -0.7744 -0.8206
  854MOL0     H15268   2.599   6.005  -0.381  2.1245  2.6815 -0.0812
  854MOL0     H15269   2.769   5.991  -0.339  1.4609 -2.4227  0.3126
  854MOL0     H15270   2.176   5.525   0.407 -2.4580  2.2060 -1.1407
  854MOL0     H15271   2.136   5.451   0.657  0.0308  0.5880  0.0038
  854MOL0     H15272   2.249   5.465   1.047 -1.1831  0.6149 -3.8239
  854MOL0     H15273   2.217   5.337   1.245 -0.0467 -1.3265 -1.6602
  854MOL0     H15274   1.498   4.688   0.417 -1.3646 -1.2411  2.3129
  854MOL0     H15275   1.711   4.768   0.312 -1.0163  1.8250 -1.3220
  854MOL0     H15276   1.933   5.257   0.255  1.2921  2.2174 -0.8222
  854MOL0     H15277   2.135   5.345   0.142  1.0209 -2.1281 -3.5026
  854MOL0     H15278   2.543   5.166   0.232  1.7162  1.0331  0.1255
  854MOL0     H15279   2.495   5.276   0.365  0.9882  3.5166 -0.3882
  854MOL0     H15280   2.684   5.397   0.248  0.2947  2.6149 -1.4569
  854MOL0     H15281   2.534   5.465   0.227  1.5687 -1.3148  3.1261
  854MOL0     H15282   2.538   5.412   0.000 -0.3410 -1.8317 -0.2366
  854MOL0     H15283   2.645   5.275   0.021 -2.5800 -0.6323  0.5125
  854MOL0     H15284   2.747   5.490  -0.090  0.5992  1.8915 -0.2355
  854MOL0     H15285   2.718   5.563   0.069  3.0825 -0.6079  0.1861
  854MOL0     H15286   3.082   5.335   0.114 -2.3098 -3.2092  1.0377
  854MOL0     H15287   2.364   5.049   0.341 -0.2521  0.5003 -0.0637
  854MOL0     H15288   2.277   4.853   0.407 -0.8295 -1.3621 -0.7974
  854MOL0     H15289   2.144   4.884   0.518 -2.5523 -0.6425 -0.4985
  854MOL0     H15290   2.111   4.812   0.371 -0.9380  1.2267  0.5513
  855MOL0     O15291   2.039   5.235   8.240 -0.6636  1.2991 -0.5561
  855MOL0     C15292   1.926   5.275   8.241  0.7439  0.1625  0.4309
  855MOL0     O15293   1.811   5.201   8.292 -0.3128 -0.0651  0.4047
  855MOL0     C15294   1.814   5.065   8.315 -0.0717  0.3697 -0.3100
  855MOL0     C15295   1.704   5.011   8.392 -0.2151  0.4957  0.4822
  855MOL0     C15296   1.695   4.870   8.426 -0.4521 -0.2228  0.3033
  855MOL0     C15297   1.782   4.771   8.369  0.2710 -0.6066 -0.8107
  855MOL0     O15298   1.761   4.641   8.407  0.1430 -0.0593  0.7902
  855MOL0     C15299   1.880   4.560   8.386 -0.6292  0.2190  0.4187
  855MOL0     C15300   1.868   4.426   8.458  0.0259 -0.1756  0.1473
  855MOL0     C15301   1.757   4.332   8.407  0.1776  0.1031 -0.2772
  855MOL0     C15302   1.794   4.276   8.272  0.0835 -0.2714  0.2668
  855MOL0     C15303   1.679   4.185   8.222 -0.6096 -0.6177 -0.2397
  855MOL0     C15304   1.708   4.157   8.069  0.0868 -0.1799  0.6524
  855MOL0     C15305   1.845   4.091   8.040 -0.6921  0.2384  0.0790
  855MOL0     C15306   1.865   3.950   8.105  0.9346 -0.2447 -0.7844
  855MOL0     N15307   1.992   3.891   8.094 -0.2959  0.6967  0.2689
  855MOL0     C15308   2.083   3.888   7.989 -0.2337 -1.0816 -0.0580
  855MOL0     C15309   2.186   3.809   8.032 -0.3284 -0.0641  0.2685
  855MOL0     C15310   2.316   3.775   7.958  0.3218 -0.6708  0.2938
  855MOL0     C15311   2.368   3.890   7.875 -0.4977  0.0040 -0.1406
  855MOL0     C15312   2.478   3.843   7.773  0.0869  0.1996  0.3300
  855MOL0     C15313   2.559   3.963   7.720 -0.6647 -0.4547  0.1790
  855MOL0     O15314   2.694   3.913   7.691 -0.5651  0.5644 -0.3849
  855MOL0     C15315   2.789   3.990   7.648  0.8112 -0.5801  0.2780
  855MOL0     C15316   2.917   3.945   7.672 -0.3905  0.7078  0.1415
  855MOL0     C15317   3.028   4.032   7.655 -0.8795  0.4483  0.2928
  855MOL0     C15318   3.015   4.160   7.610  0.6681 -0.0841  0.6292
  855MOL0     C15319   3.131   4.248   7.567  0.3476 -0.5038  0.4933
  855MOL0     O15320   3.095   4.366   7.525 -0.0114  0.2653 -0.8973
  855MOL0     C15321   3.174   4.476   7.506  0.2787  0.2411 -0.0897
  855MOL0     C15322   3.144   4.549   7.395  0.3301  0.0619  0.4293
  855MOL0     C15323   3.229   4.656   7.351  0.2132 -0.0149 -0.1357
  855MOL0     C15324   3.343   4.690   7.425  0.4062 -0.7232 -0.3065
  855MOL0     O15325   3.439   4.780   7.376  0.3377  0.2564 -1.4592
  855MOL0     C15326   3.407   4.865   7.259 -0.3464 -0.3854  0.2178
  855MOL0     C15327   3.525   4.962   7.243  0.7424 -1.0019 -0.0696
  855MOL0     C15328   3.506   5.074   7.137  0.4586  0.0874  1.2164
  855MOL0     C15329   3.534   5.016   6.994 -0.5025 -0.3045 -0.5863
  855MOL0     C15330   3.530   5.135   6.888  0.0043  0.0535 -0.9176
  855MOL0     C15331   3.516   5.081   6.745 -0.7658  0.5750  0.4876
  855MOL0     C15332   3.529   5.195   6.645  0.9843 -0.3528  0.1853
  855MOL0     C15333   3.404   5.234   6.551  0.0865  0.5362  0.6016
  855MOL0    Cl15334   3.290   5.352   6.641  0.1559  0.1134 -0.1249
  855MOL0     C15335   3.360   4.619   7.539  0.5567  0.4572  0.1278
  855MOL0     C15336   3.293   4.500   7.576  1.7051 -0.4118  0.6657
  855MOL0     O15337   3.242   4.210   7.599 -0.4789  1.3642  0.2768
  855MOL0     C15338   2.879   4.201   7.578 -1.0581 -0.0972 -0.6054
  855MOL0     C15339   2.772   4.120   7.592 -0.2050 -0.2382  0.1892
  855MOL0     N15340   2.158   3.767   8.159  0.3391  0.4682  0.3851
  855MOL0     N15341   2.049   3.817   8.195 -0.2874  0.4373  1.4854
  855MOL0     C15342   1.885   4.825   8.278 -0.3719 -0.5611  0.3937
  855MOL0     C15343   1.902   4.965   8.266 -0.1181 -0.4210  0.7816
  855MOL0     C15344   1.915   5.423   8.207 -0.0175  0.8072  0.7052
  855MOL0     C15345   2.028   5.481   8.139  0.5454  0.7829  0.7624
  855MOL0     C15346   2.034   5.614   8.107 -0.7285 -0.1037  0.3123
  855MOL0     C15347   1.922   5.698   8.132 -0.4338 -0.5056  0.7899
  855MOL0     O15348   1.923   5.828   8.097  0.2784 -0.0681  0.0366
  855MOL0     C15349   1.914   5.866   7.958  0.1643 -0.9518 -0.5062
  855MOL0     C15350   2.047   5.900   7.903  0.0604 -0.0953 -0.0410
  855MOL0     C15351   2.098   6.028   7.970  0.8881 -0.1876 -0.9048
  855MOL0     C15352   2.173   6.119   7.877  0.1550  0.6396  0.0674
  855MOL0     C15353   2.300   6.070   7.836  0.3416 -0.3293  0.7415
  855MOL0     C15354   2.415   6.044   7.823 -0.1575  0.7339 -0.3917
  855MOL0     C15355   1.808   5.646   8.191 -0.0727 -0.0091  0.0171
  855MOL0     C15356   1.806   5.509   8.231 -0.0814 -0.0670 -0.0702
  855MOL0     C15357   1.685   5.482   8.311 -0.2086  1.2314 -1.2161
  855MOL0     H15358   1.630   5.087   8.414  0.0716  1.5249 -1.7813
  855MOL0     H15359   1.621   4.843   8.500 -0.3019  1.2169  1.0204
  855MOL0     H15360   1.910   4.546   8.282  1.1565 -2.9579  1.2211
  855MOL0     H15361   1.964   4.619   8.424 -0.9734  1.5782 -0.8653
  855MOL0     H15362   1.848   4.447   8.563 -3.4175 -0.0308 -0.4186
  855MOL0     H15363   1.964   4.374   8.453  0.6664  0.7518  1.9116
  855MOL0     H15364   1.660   4.382   8.399 -0.1313 -0.3363  0.6645
  855MOL0     H15365   1.746   4.250   8.478  0.5294  1.1865  1.0737
  855MOL0     H15366   1.817   4.356   8.201 -1.4658 -1.1595 -1.3396
  855MOL0     H15367   1.879   4.209   8.290 -0.3069 -1.2447 -1.3094
  855MOL0     H15368   1.667   4.089   8.275 -2.2209  1.0053  2.5787
  855MOL0     H15369   1.579   4.230   8.230 -0.5909  0.2841 -3.6013
  855MOL0     H15370   1.630   4.089   8.033  2.6440 -3.6822  1.2182
  855MOL0     H15371   1.703   4.251   8.012  0.2647 -1.2145 -1.1681
  855MOL0     H15372   1.925   4.161   8.067  0.2325  0.0944 -2.0528
  855MOL0     H15373   1.861   4.079   7.932  1.5885 -1.2980  0.4889
  855MOL0     H15374   1.832   3.952   8.210 -0.9327 -2.4709 -1.2448
  855MOL0     H15375   1.796   3.882   8.055  0.4834  1.1692 -2.1654
  855MOL0     H15376   2.086   3.943   7.896  4.9900  1.5722  1.2740
  855MOL0     H15377   2.394   3.737   8.024  0.4064 -1.4152 -0.2177
  855MOL0     H15378   2.297   3.693   7.888  0.8540  0.1013 -0.8026
  855MOL0     H15379   2.293   3.934   7.809 -0.1364 -1.0400 -1.2876
  855MOL0     H15380   2.399   3.969   7.945 -0.2057 -0.4565  0.2634
  855MOL0     H15381   2.446   3.773   7.695  1.0032  2.4490 -2.2241
  855MOL0     H15382   2.551   3.785   7.831  0.0077 -1.1496 -0.8645
  855MOL0     H15383   2.556   4.042   7.796 -1.6772 -0.8660  0.5889
  855MOL0     H15384   2.504   3.997   7.632 -4.3138 -0.3279  2.2825
  855MOL0     H15385   2.941   3.847   7.711  1.1412  0.8962 -0.2567
  855MOL0     H15386   3.129   4.000   7.680 -1.2105 -0.1360  0.8965
  855MOL0     H15387   3.053   4.512   7.348 -1.5219  1.3602  2.7560
  855MOL0     H15388   3.218   4.716   7.261  3.7090 -2.0998 -2.1936
  855MOL0     H15389   3.391   4.814   7.163 -0.4749 -1.7507  0.9481
  855MOL0     H15390   3.310   4.916   7.269 -0.3127 -0.3850  0.5456
  855MOL0     H15391   3.553   5.001   7.341  0.3383  0.8696 -0.6673
  855MOL0     H15392   3.611   4.904   7.208  0.4105 -1.1966 -0.5734
  855MOL0     H15393   3.405   5.117   7.136  0.9860  1.4513 -1.4775
  855MOL0     H15394   3.580   5.152   7.157  4.8075 -2.7874 -1.8511
  855MOL0     H15395   3.455   4.940   6.980 -1.8780  0.7463  1.0316
  855MOL0     H15396   3.634   4.971   6.995  0.5969  2.0297 -0.0688
  855MOL0     H15397   3.613   5.200   6.916 -0.3390 -0.4061  1.3359
  855MOL0     H15398   3.449   5.203   6.918 -3.2509 -3.0279 -1.9414
  855MOL0     H15399   3.598   5.010   6.731  0.1242  0.9721  3.1282
  855MOL0     H15400   3.417   5.036   6.733 -0.0166 -1.3085  0.9922
  855MOL0     H15401   3.621   5.174   6.590  1.4463  2.7572 -0.4586
  855MOL0     H15402   3.541   5.287   6.703  1.3011 -1.3806  1.8054
  855MOL0     H15403   3.440   5.285   6.462  0.1920 -0.1707  0.2332
  855MOL0     H15404   3.351   5.140   6.533  2.4787 -0.9027  0.7626
  855MOL0     H15405   3.443   4.650   7.603  0.8531  3.6996 -1.6534
  855MOL0     H15406   3.323   4.445   7.666 -1.2742  1.2210  2.8427
  855MOL0     H15407   2.856   4.301   7.544 -0.2397  0.9626  1.7077
  855MOL0     H15408   2.672   4.153   7.563 -0.9057 -1.1314  1.4634
  855MOL0     H15409   1.948   4.764   8.214 -0.0158  0.4115 -0.1949
  855MOL0     H15410   1.983   5.000   8.202  1.6217 -1.1346  2.5115
  855MOL0     H15411   2.111   5.417   8.112  0.0197  0.0056  0.9162
  855MOL0     H15412   2.117   5.643   8.043  0.3971 -4.2848 -0.4437
  855MOL0     H15413   1.843   5.949   7.949  0.7764 -0.0429  2.0188
  855MOL0     H15414   1.875   5.782   7.900 -1.0681 -0.9605  0.2787
  855MOL0     H15415   2.030   5.922   7.797 -1.0708  0.6063  0.2746
  855MOL0     H15416   2.115   5.815   7.913  0.1234  0.0814  1.1838
  855MOL0     H15417   2.160   5.996   8.055 -0.2012  0.2986  0.0990
  855MOL0     H15418   2.010   6.078   8.011  1.1393  0.4280 -1.0965
  855MOL0     H15419   2.109   6.145   7.791 -1.7171 -0.4839  1.0541
  855MOL0     H15420   2.184   6.216   7.927 -2.0430  1.2857 -0.5718
  855MOL0     H15421   2.514   6.033   7.782 -0.3429  0.2837 -0.7227
  855MOL0     H15422   1.720   5.707   8.206 -0.7069 -1.5265  3.4353
  855MOL0     H15423   1.638   5.569   8.357 -2.0584 -0.7906  1.0127
  855MOL0     H15424   1.609   5.423   8.258 -1.0735 -0.5041  1.7202
  855MOL0     H15425   1.716   5.414   8.391 -0.4418  0.7676 -1.5115
  856MOL0     O15426   2.048   2.003  11.238  0.7762  0.5795 -0.2644
  856MOL0     C15427   1.972   2.096  11.247  0.1639  0.6897  0.1649
  856MOL0     O15428   1.896   2.144  11.148  0.6560 -0.1229  0.3611
  856MOL0     C15429   1.956   2.170  11.030  0.2954  0.1457  0.0353
  856MOL0     C15430   2.094   2.183  11.010 -0.4069 -0.2182  0.3134
  856MOL0     C15431   2.138   2.218  10.890  0.1535  0.4991 -0.8896
  856MOL0     C15432   2.053   2.227  10.780  0.4876 -0.1427 -0.0181
  856MOL0     O15433   2.093   2.262  10.654 -0.4376  0.1560 -0.1421
  856MOL0     C15434   2.232   2.221  10.617  0.8295 -1.1042 -0.3421
  856MOL0     C15435   2.233   2.193  10.468 -0.1311  0.2365  0.2978
  856MOL0     C15436   2.170   2.064  10.417  0.4155  0.1398  0.0486
  856MOL0     C15437   2.178   2.058  10.269 -0.7251  0.4344 -0.1126
  856MOL0     C15438   2.157   1.919  10.216  0.1513  0.1388 -0.0738
  856MOL0     C15439   2.098   1.930  10.076 -0.2400  0.7800  0.3852
  856MOL0     C15440   2.104   1.786  10.022 -0.6400  0.5996  0.4098
  856MOL0     C15441   2.047   1.804   9.874 -0.1871 -0.0798 -0.7094
  856MOL0     N15442   1.904   1.838   9.862  1.1450  0.6202  0.0765
  856MOL0     C15443   1.801   1.747   9.877 -0.8863  0.4911  0.1459
  856MOL0     C15444   1.689   1.805   9.838  0.4422 -0.9071 -0.0110
  856MOL0     C15445   1.562   1.734   9.854  0.6912 -0.4918 -0.3106
  856MOL0     C15446   1.468   1.820   9.938 -0.2542 -0.0849 -0.8710
  856MOL0     C15447   1.357   1.733   9.997  0.0814 -0.6967  0.7543
  856MOL0     C15448   1.384   1.671  10.135  0.8172 -0.7900  0.1581
  856MOL0     O15449   1.383   1.762  10.245  0.4192  1.0701  0.2024
  856MOL0     C15450   1.363   1.700  10.364 -0.7142  0.6582 -0.5753
  856MOL0     C15451   1.370   1.563  10.394 -0.9900  0.0975  0.7565
  856MOL0     C15452   1.359   1.512  10.523  0.2745  0.0028  0.1394
  856MOL0     C15453   1.332   1.600  10.632 -0.1120 -0.4571 -0.1281
  856MOL0     C15454   1.347   1.551  10.773  0.2792  0.6800  0.5259
  856MOL0     O15455   1.363   1.643  10.869 -0.0262 -0.0590 -0.9857
  856MOL0     C15456   1.384   1.587  10.997 -0.4034  0.2506 -0.1506
  856MOL0     C15457   1.524   1.561  11.033 -0.4858  0.1290 -0.1665
  856MOL0     C15458   1.550   1.495  11.149  0.1400  1.2470  0.4562
  856MOL0     C15459   1.449   1.456  11.229  0.6229  1.4030 -0.7887
  856MOL0     O15460   1.467   1.382  11.350  0.0940 -0.0206 -0.2451
  856MOL0     C15461   1.514   1.251  11.347 -0.2236  0.2793 -0.4875
  856MOL0     C15462   1.433   1.139  11.272 -0.0697  0.2287  0.0811
  856MOL0     C15463   1.475   1.144  11.124  0.6475  0.8566  0.0489
  856MOL0     C15464   1.435   1.008  11.060  0.6266 -0.1637 -0.7319
  856MOL0     C15465   1.490   0.995  10.915 -0.1407  0.0477  0.8210
  856MOL0     C15466   1.425   1.075  10.804 -0.1306 -0.3470  0.0405
  856MOL0     C15467   1.274   1.053  10.785 -0.7102 -0.5768  1.1371
  856MOL0     C15468   1.203   1.146  10.690  0.5902 -0.7642  1.0398
  856MOL0    Cl15469   1.025   1.085  10.697 -0.2681 -0.1724 -0.3300
  856MOL0     C15470   1.315   1.484  11.210 -0.6584 -1.0068  0.4527
  856MOL0     C15471   1.285   1.545  11.085  1.2081 -0.0985  0.3713
  856MOL0     O15472   1.360   1.435  10.791  0.3772  0.5317  0.5469
  856MOL0     C15473   1.314   1.742  10.600 -0.5585 -0.7152 -0.8054
  856MOL0     C15474   1.339   1.783  10.469 -0.2948 -0.6159  0.3077
  856MOL0     N15475   1.714   1.934   9.790 -1.0592 -0.1358 -0.1608
  856MOL0     N15476   1.844   1.943   9.801  0.5704 -0.6116 -0.1804
  856MOL0     C15477   1.920   2.215  10.798  1.2536  0.1759  0.4727
  856MOL0     C15478   1.868   2.195  10.922  0.6169  0.0985 -0.9386
  856MOL0     C15479   1.960   2.149  11.377  0.8569 -0.1714  0.2593
  856MOL0     C15480   1.932   2.291  11.384  0.2351  0.4489  0.8353
  856MOL0     C15481   1.921   2.355  11.502 -0.1799  0.8921 -0.7775
  856MOL0     C15482   1.925   2.293  11.619  0.8366  0.1107 -0.4342
  856MOL0     O15483   1.911   2.372  11.731  0.2620 -0.0922  0.0178
  856MOL0     C15484   1.838   2.312  11.841 -0.3687 -0.3926 -0.5908
  856MOL0     C15485   1.819   2.416  11.952  0.0100 -0.4185  0.2130
  856MOL0     C15486   1.675   2.417  12.014 -0.8411 -0.5890  0.7321
  856MOL0     C15487   1.647   2.302  12.109 -0.4477 -1.0709  0.6304
  856MOL0     C15488   1.539   2.339  12.199  0.4940 -0.4605  0.1918
  856MOL0     C15489   1.446   2.370  12.274  0.5046 -0.4195  0.3133
  856MOL0     C15490   1.956   2.154  11.619 -1.0326 -0.3689 -0.6850
  856MOL0     C15491   1.974   2.078  11.503 -0.4660  0.0393  0.4985
  856MOL0     C15492   1.987   1.931  11.512  0.4478 -0.1193  0.0490
  856MOL0     H15493   2.163   2.170  11.093  0.6400  4.7218  0.4793
  856MOL0     H15494   2.245   2.237  10.890 -0.0485  2.3827  2.3782
  856MOL0     H15495   2.292   2.307  10.647 -2.5979  0.6373  2.1957
  856MOL0     H15496   2.263   2.126  10.663  2.6544  0.7346  2.5331
  856MOL0     H15497   2.337   2.182  10.435 -0.2694 -1.9312  0.4043
  856MOL0     H15498   2.191   2.281  10.421 -0.0359 -1.3622 -3.0593
  856MOL0     H15499   2.066   2.059  10.450 -0.9946 -3.8359 -4.0891
  856MOL0     H15500   2.226   1.981  10.460 -2.0682  0.1648  3.8267
  856MOL0     H15501   2.097   2.118  10.224  1.2700  2.4178 -1.2670
  856MOL0     H15502   2.272   2.095  10.229 -0.4138 -1.5241 -1.3155
  856MOL0     H15503   2.256   1.873  10.222  0.2658  0.5325  1.5492
  856MOL0     H15504   2.097   1.867  10.290 -3.0252  2.5493 -0.7565
  856MOL0     H15505   1.997   1.970  10.075 -0.6019 -0.0893 -1.2749
  856MOL0     H15506   2.154   1.997  10.010 -1.3699  0.3101 -1.0951
  856MOL0     H15507   2.039   1.722  10.083  1.1158  0.2834  2.0294
  856MOL0     H15508   2.204   1.741  10.030 -0.9427  0.2025  2.6609
  856MOL0     H15509   2.107   1.872   9.812  0.6096  0.3196  0.4695
  856MOL0     H15510   2.062   1.706   9.828  2.3652 -1.0925  1.9208
  856MOL0     H15511   1.801   1.645   9.914 -3.1045  1.0525  1.9311
  856MOL0     H15512   1.507   1.723   9.760  0.6306 -1.4117 -0.1825
  856MOL0     H15513   1.576   1.632   9.892 -0.4702 -0.9791 -1.1189
  856MOL0     H15514   1.514   1.871  10.024 -2.6144  0.2460  0.2799
  856MOL0     H15515   1.426   1.907   9.886 -1.0431  1.2095  1.7571
  856MOL0     H15516   1.306   1.669   9.924 -1.2439 -0.0892  1.1172
  856MOL0     H15517   1.275   1.804  10.013  1.6069  1.8048 -1.7090
  856MOL0     H15518   1.474   1.610  10.127  0.3981 -1.3010 -0.9127
  856MOL0     H15519   1.302   1.602  10.158  1.2252 -1.3858 -0.1697
  856MOL0     H15520   1.390   1.494  10.312  0.5302  4.3566 -2.8667
  856MOL0     H15521   1.394   1.412  10.547 -1.0917 -0.6369 -0.4000
  856MOL0     H15522   1.604   1.580  10.963 -1.3790 -2.4598 -2.0519
  856MOL0     H15523   1.654   1.477  11.173  0.0868 -0.4304 -0.3805
  856MOL0     H15524   1.621   1.247  11.324 -0.5226  0.4373 -1.9533
  856MOL0     H15525   1.519   1.233  11.455  3.1375  4.4524  0.3238
  856MOL0     H15526   1.457   1.044  11.320 -1.8137  0.3475  1.2672
  856MOL0     H15527   1.327   1.164  11.278  0.6235  3.5423  0.3556
  856MOL0     H15528   1.414   1.215  11.068 -0.0271  0.7123  0.5822
  856MOL0     H15529   1.582   1.168  11.118 -0.0373  4.6204  0.8012
  856MOL0     H15530   1.326   1.002  11.069  0.6137  2.6266  2.8189
  856MOL0     H15531   1.475   0.934  11.129  0.2571  0.1972 -0.1228
  856MOL0     H15532   1.496   0.890  10.886 -0.2965  0.3390 -0.2945
  856MOL0     H15533   1.593   1.032  10.910  0.0552 -0.6851 -1.4748
  856MOL0     H15534   1.456   1.179  10.820 -0.2050 -0.5273  1.5385
  856MOL0     H15535   1.467   1.048  10.707  2.7389 -1.2776  1.4169
  856MOL0     H15536   1.247   1.084  10.887 -3.4099 -0.5317  0.4547
  856MOL0     H15537   1.257   0.947  10.766 -0.1754 -0.2231 -1.8127
  856MOL0     H15538   1.216   1.251  10.717 -0.8689  0.0242 -1.1009
  856MOL0     H15539   1.245   1.126  10.592  0.0684  1.5251  0.2797
  856MOL0     H15540   1.243   1.451  11.284  1.5943 -0.5922  2.9987
  856MOL0     H15541   1.181   1.566  11.065  1.3623 -0.2022 -0.6114
  856MOL0     H15542   1.274   1.806  10.679  0.5258  0.4784 -1.1864
  856MOL0     H15543   1.342   1.886  10.437  1.6110 -0.6772  0.1590
  856MOL0     H15544   1.852   2.225  10.713  1.7722 -0.3327 -0.0092
  856MOL0     H15545   1.763   2.190  10.950  1.2820  1.4848  2.2426
  856MOL0     H15546   1.917   2.355  11.298 -0.4914 -0.6038  0.1532
  856MOL0     H15547   1.913   2.463  11.513  1.3786  0.7943  3.4022
  856MOL0     H15548   1.900   2.227  11.871  0.8153 -0.3664 -2.7424
  856MOL0     H15549   1.739   2.280  11.808 -0.4202  0.5752 -1.4557
  856MOL0     H15550   1.828   2.513  11.901  3.0282  0.2866  1.8113
  856MOL0     H15551   1.893   2.422  12.032  1.1219  1.0846 -0.8622
  856MOL0     H15552   1.606   2.397  11.931 -3.5443  1.4675  2.3175
  856MOL0     H15553   1.660   2.520  12.046  2.2126  0.5647 -1.2127
  856MOL0     H15554   1.632   2.208  12.055 -1.3383 -0.0555 -0.9376
  856MOL0     H15555   1.734   2.296  12.176  0.4998  3.0432  0.0721
  856MOL0     H15556   1.357   2.380  12.333 -1.7983 -3.0134 -2.4325
  856MOL0     H15557   1.960   2.111  11.719 -2.8485 -0.4462 -0.6070
  856MOL0     H15558   1.933   1.914  11.606 -3.6360  1.1827 -1.8108
  856MOL0     H15559   1.935   1.879  11.431  0.7686  1.5881 -1.3214
  856MOL0     H15560   2.088   1.892  11.523 -0.4554 -2.4946  0.4725
  857MOL0     O15561   4.617   2.000   8.236 -0.2166 -0.5310 -0.7873
  857MOL0     C15562   4.575   1.970   8.347  1.0543  0.3092  0.0522
  857MOL0     O15563   4.609   2.033   8.465  0.5190 -0.5634 -0.1460
  857MOL0     C15564   4.685   2.145   8.446 -0.3854 -0.9560  0.3120
  857MOL0     C15565   4.820   2.136   8.466 -0.3891  0.2391  0.0027
  857MOL0     C15566   4.898   2.249   8.427  0.3900 -0.2104  0.2323
  857MOL0     C15567   4.850   2.359   8.349  0.9324 -0.1881  0.4614
  857MOL0     O15568   4.921   2.467   8.304 -0.4887 -0.1923  0.3379
  857MOL0     C15569   5.057   2.471   8.332 -0.2377  0.3606 -0.7121
  857MOL0     C15570   5.125   2.585   8.260  0.7004 -0.0714  0.2732
  857MOL0     C15571   5.269   2.598   8.310  0.0286  0.5190 -0.1049
  857MOL0     C15572   5.317   2.724   8.251 -0.4526  0.4666  0.2164
  857MOL0     C15573   5.458   2.757   8.290 -0.0268  0.5228 -0.3113
  857MOL0     C15574   5.466   2.774   8.443 -0.2105  0.2439 -0.8690
  857MOL0     C15575   5.593   2.857   8.481  0.2947 -0.1177  0.0875
  857MOL0     C15576   5.595   2.873   8.635 -0.6049 -0.3349 -0.4338
  857MOL0     N15577   5.667   2.759   8.693 -0.7704  0.6666 -0.4502
  857MOL0     C15578   5.762   2.673   8.629  0.6389  0.1972 -0.6692
  857MOL0     C15579   5.801   2.594   8.735 -0.8623  0.2504  0.1057
  857MOL0     C15580   5.898   2.485   8.722  0.3632  0.3106 -0.0712
  857MOL0     C15581   6.043   2.527   8.680 -0.2256 -0.6976  0.2302
  857MOL0     C15582   6.140   2.538   8.809 -0.6657 -0.8692  0.0695
  857MOL0     C15583   6.272   2.591   8.766 -0.2027  0.2312 -0.2899
  857MOL0     O15584   6.255   2.718   8.712 -0.4064 -0.2819 -0.2376
  857MOL0     C15585   6.354   2.750   8.622  0.8420  0.3805  0.1597
  857MOL0     C15586   6.319   2.815   8.499  0.3587  1.2381  0.1396
  857MOL0     C15587   6.425   2.848   8.407  0.0271  0.5168 -0.2624
  857MOL0     C15588   6.556   2.818   8.430 -0.6882 -0.1696 -1.2145
  857MOL0     C15589   6.673   2.869   8.343 -0.2939 -0.0435  0.5459
  857MOL0     O15590   6.800   2.876   8.402 -0.7519  0.5124 -0.3823
  857MOL0     C15591   6.898   2.967   8.363  0.7956 -0.2101  0.3489
  857MOL0     C15592   6.920   3.029   8.239  0.2260  0.5266 -0.4416
  857MOL0     C15593   7.021   3.119   8.211 -0.8289  0.0700  0.4093
  857MOL0     C15594   7.114   3.141   8.315 -0.0197 -0.5521 -0.9298
  857MOL0     O15595   7.214   3.230   8.299  0.5668  0.0727  0.0939
  857MOL0     C15596   7.187   3.360   8.339  0.1889 -0.3042  0.5395
  857MOL0     C15597   7.126   3.445   8.232  0.5792 -0.2952 -0.2922
  857MOL0     C15598   7.094   3.589   8.262  0.9808 -0.1822  0.0238
  857MOL0     C15599   7.223   3.672   8.280  0.4873 -0.2452 -0.1976
  857MOL0     C15600   7.195   3.821   8.317  1.3673 -0.2158  0.3440
  857MOL0     C15601   7.328   3.892   8.342 -0.6140 -0.7174 -0.3481
  857MOL0     C15602   7.287   4.037   8.386 -0.4143 -0.0753  0.0297
  857MOL0     C15603   7.224   4.047   8.529 -1.2311 -0.5685  0.6846
  857MOL0    Cl15604   7.152   4.225   8.553  0.0975  0.0333  0.1241
  857MOL0     C15605   7.102   3.083   8.439 -0.7321 -0.4866  0.5499
  857MOL0     C15606   7.001   2.983   8.457 -0.3575  0.0637 -0.0529
  857MOL0     O15607   6.631   2.925   8.239 -0.3279 -0.3566 -0.5060
  857MOL0     C15608   6.587   2.756   8.552 -0.5223  0.7878  0.1159
  857MOL0     C15609   6.487   2.716   8.638  0.1272  0.4018  0.5887
  857MOL0     N15610   5.744   2.633   8.854 -0.1758  0.2779  0.7641
  857MOL0     N15611   5.660   2.730   8.829 -0.3673  1.4111  0.2975
  857MOL0     C15612   4.708   2.357   8.320 -0.4410 -1.0768  0.6276
  857MOL0     C15613   4.631   2.253   8.369  0.0505 -0.4847 -0.1851
  857MOL0     C15614   4.469   1.860   8.353 -0.7682 -0.1799  0.0716
  857MOL0     C15615   4.406   1.844   8.476  0.9592 -0.3551 -0.2010
  857MOL0     C15616   4.314   1.740   8.505  0.1791 -0.9675 -0.1398
  857MOL0     C15617   4.287   1.640   8.405 -0.0065  0.4311 -0.2994
  857MOL0     O15618   4.198   1.538   8.417 -0.6420 -0.5828 -0.4397
  857MOL0     C15619   4.077   1.584   8.489 -0.6930  0.2661  0.3450
  857MOL0     C15620   3.987   1.465   8.485  0.2057 -0.6294  0.3064
  857MOL0     C15621   3.867   1.482   8.573 -0.8255  0.0402 -0.1815
  857MOL0     C15622   3.805   1.347   8.585  0.0278 -0.1028 -0.0797
  857MOL0     C15623   3.710   1.347   8.701 -1.2425  0.2823 -0.7977
  857MOL0     C15624   3.631   1.359   8.791 -0.4403  0.2896  0.4146
  857MOL0     C15625   4.368   1.649   8.285  0.6507  0.2324  0.3424
  857MOL0     C15626   4.452   1.760   8.261  0.7338  1.1604 -0.3804
  857MOL0     C15627   4.501   1.746   8.121 -0.9031 -0.2745 -0.6654
  857MOL0     H15628   4.856   2.049   8.520  1.6652  1.4501  0.6832
  857MOL0     H15629   5.003   2.246   8.455  0.3176  3.5880  1.4548
  857MOL0     H15630   5.071   2.475   8.441 -1.1580 -0.9650 -0.5325
  857MOL0     H15631   5.099   2.375   8.302 -0.7712 -0.9863  2.3819
  857MOL0     H15632   5.072   2.680   8.269 -0.9644 -0.8493 -0.7507
  857MOL0     H15633   5.122   2.555   8.155  0.6697 -2.7648  0.9769
  857MOL0     H15634   5.336   2.517   8.280 -0.8416 -0.4233  0.4088
  857MOL0     H15635   5.285   2.587   8.418 -1.7594  0.9414  0.2407
  857MOL0     H15636   5.312   2.723   8.142  3.0764  1.5627 -0.0828
  857MOL0     H15637   5.263   2.811   8.290 -0.5702 -0.3458  1.9796
  857MOL0     H15638   5.521   2.674   8.256  2.3303  1.2965  1.8661
  857MOL0     H15639   5.498   2.840   8.231  0.6531 -0.0155 -0.6252
  857MOL0     H15640   5.378   2.827   8.482  0.8759  1.5087 -0.0133
  857MOL0     H15641   5.481   2.676   8.490 -0.5388  0.5074 -0.1987
  857MOL0     H15642   5.570   2.957   8.442 -3.3248 -0.7733  0.2554
  857MOL0     H15643   5.676   2.820   8.420  1.0065  2.4905 -0.6831
  857MOL0     H15644   5.647   2.961   8.675 -1.4204 -0.3749  0.7637
  857MOL0     H15645   5.489   2.883   8.663  0.2622  1.0202  2.8910
  857MOL0     H15646   5.800   2.674   8.528  2.0080  0.7547 -0.1670
  857MOL0     H15647   5.920   2.429   8.813  1.8131  0.2903 -0.4097
  857MOL0     H15648   5.858   2.414   8.649  2.1600 -0.8187 -0.0194
  857MOL0     H15649   6.075   2.451   8.608 -2.5105  0.7973 -2.5587
  857MOL0     H15650   6.053   2.621   8.625 -2.2979  0.9333  2.3971
  857MOL0     H15651   6.164   2.444   8.860 -0.1356  0.3258  2.1459
  857MOL0     H15652   6.099   2.611   8.878 -2.7958 -0.0563 -1.9509
  857MOL0     H15653   6.326   2.524   8.699  0.1154 -0.9463  1.0977
  857MOL0     H15654   6.330   2.596   8.859 -0.0014 -0.7891 -0.3417
  857MOL0     H15655   6.216   2.829   8.467  0.4368  1.6734  0.0702
  857MOL0     H15656   6.395   2.905   8.319 -3.5948 -0.3668  0.2317
  857MOL0     H15657   6.859   3.009   8.152  0.3439  3.1026 -1.1930
  857MOL0     H15658   7.034   3.182   8.124  0.7845 -0.0958  0.4833
  857MOL0     H15659   7.132   3.368   8.434 -0.7075 -2.8702  0.3012
  857MOL0     H15660   7.286   3.399   8.364  0.2818 -0.5567  0.5592
  857MOL0     H15661   7.193   3.453   8.146 -0.8474  4.6626 -1.3004
  857MOL0     H15662   7.037   3.384   8.215  0.9100 -2.8946  5.2830
  857MOL0     H15663   7.034   3.616   8.174  0.8408 -2.1607 -0.5407
  857MOL0     H15664   7.035   3.600   8.353 -1.8774  2.7586 -1.9361
  857MOL0     H15665   7.295   3.651   8.202  1.9812 -0.7248  1.2505
  857MOL0     H15666   7.271   3.635   8.371  1.3219  1.5236  0.1258
  857MOL0     H15667   7.130   3.832   8.404 -2.3756 -1.0115 -2.0922
  857MOL0     H15668   7.150   3.865   8.227  1.1353  0.3510  0.7354
  857MOL0     H15669   7.394   3.837   8.409  2.5830  1.4247 -1.5357
  857MOL0     H15670   7.378   3.877   8.246  1.5794  2.0314  0.2633
  857MOL0     H15671   7.212   4.073   8.315 -2.0268  0.0228  1.7084
  857MOL0     H15672   7.374   4.103   8.387 -0.9427  0.6702 -0.9177
  857MOL0     H15673   7.150   3.971   8.554  0.2290 -1.7575  1.5837
  857MOL0     H15674   7.306   4.033   8.600  0.9362  1.3230 -1.2567
  857MOL0     H15675   7.181   3.101   8.513 -0.6866  3.5226 -0.2323
  857MOL0     H15676   6.981   2.935   8.552 -0.1742 -1.9144 -0.9730
  857MOL0     H15677   6.689   2.731   8.579 -0.5913 -0.0588 -0.3767
  857MOL0     H15678   6.520   2.673   8.732 -1.2100  0.3067  1.0413
  857MOL0     H15679   4.656   2.435   8.265 -3.4803 -3.1137  0.3523
  857MOL0     H15680   4.528   2.254   8.337 -0.0686  1.0403  0.1597
  857MOL0     H15681   4.435   1.906   8.560  1.6093 -1.4351  0.3918
  857MOL0     H15682   4.261   1.742   8.600 -3.1280 -2.5434 -1.8040
  857MOL0     H15683   4.039   1.679   8.452  0.0259  1.4588  2.5113
  857MOL0     H15684   4.106   1.598   8.594  2.7018 -1.4287 -0.2252
  857MOL0     H15685   4.047   1.374   8.498  1.8560  0.7286  2.9512
  857MOL0     H15686   3.949   1.464   8.382  1.1449  1.9989 -0.1436
  857MOL0     H15687   3.804   1.558   8.527  0.8396  1.7276  0.2037
  857MOL0     H15688   3.893   1.513   8.675  0.8587 -0.7887 -0.3289
  857MOL0     H15689   3.751   1.327   8.492 -2.4956 -2.9065  1.7850
  857MOL0     H15690   3.878   1.266   8.594  0.0129 -0.0307  0.7348
  857MOL0     H15691   3.553   1.384   8.860  0.5901  0.4962  1.5354
  857MOL0     H15692   4.335   1.569   8.221 -0.5817  0.1408  1.0722
  857MOL0     H15693   4.529   1.641   8.105 -0.7714 -0.7889  2.3610
  857MOL0     H15694   4.414   1.764   8.057 -1.8805 -0.3892  0.5958
  857MOL0     H15695   4.586   1.811   8.101  0.8465 -2.9764 -2.9042
  858MOL0     O15696   9.055   5.588  11.089 -0.7413 -0.6897 -0.4176
  858MOL0     C15697   9.026   5.703  11.044 -0.4673  0.3543  0.3664
  858MOL0     O15698   8.972   5.806  11.122 -0.0673  0.2232 -0.7233
  858MOL0     C15699   8.957   5.783  11.260 -0.7485 -0.7764 -0.3351
  858MOL0     C15700   9.068   5.762  11.339 -0.2358  0.1786 -0.8823
  858MOL0     C15701   9.052   5.757  11.482  0.5630 -0.1498  0.7415
  858MOL0     C15702   8.921   5.759  11.536 -0.1083  0.1465 -0.4151
  858MOL0     O15703   8.899   5.776  11.670 -0.0468  0.8012  0.0552
  858MOL0     C15704   8.964   5.686  11.765 -1.5213  0.2698  0.4986
  858MOL0     C15705   8.954   5.721  11.911 -0.0261  0.0245  0.1595
  858MOL0     C15706   8.805   5.733  11.950 -0.2533 -0.0876  0.6581
  858MOL0     C15707   8.796   5.741  12.102  0.7611  0.3245 -0.4220
  858MOL0     C15708   8.653   5.758  12.151  0.1306 -0.2718  0.4219
  858MOL0     C15709   8.663   5.802  12.295  0.7901  0.5716  0.4110
  858MOL0     C15710   8.522   5.810  12.362 -0.5894  0.2140  0.1100
  858MOL0     C15711   8.529   5.917  12.483  0.4870  1.4671  0.5039
  858MOL0     N15712   8.404   5.925  12.553  0.4341 -0.3092  0.2062
  858MOL0     C15713   8.315   6.025  12.540  0.0843 -0.1977 -0.2365
  858MOL0     C15714   8.207   5.976  12.609  0.1113 -0.0651  0.0229
  858MOL0     C15715   8.084   6.049  12.622 -0.0535 -0.1740 -0.1776
  858MOL0     C15716   7.974   5.959  12.662  0.6331  0.0829  0.5933
  858MOL0     C15717   7.835   6.023  12.648 -0.6835 -0.0741  0.6896
  858MOL0     C15718   7.799   6.143  12.721 -0.5244  0.3362 -0.3374
  858MOL0     O15719   7.662   6.179  12.678 -0.6853  0.9728  0.1607
  858MOL0     C15720   7.594   6.278  12.730  0.1342 -0.5219 -0.4076
  858MOL0     C15721   7.627   6.349  12.846  0.0176  0.1056  0.3244
  858MOL0     C15722   7.563   6.469  12.869  0.3547  0.3509 -0.0774
  858MOL0     C15723   7.451   6.509  12.800 -0.5883 -0.4818 -0.9658
  858MOL0     C15724   7.403   6.647  12.838  0.1430  0.0336  0.5095
  858MOL0     O15725   7.326   6.711  12.747 -0.0428 -0.3836 -0.5695
  858MOL0     C15726   7.281   6.837  12.768  0.4933  0.6194 -0.8950
  858MOL0     C15727   7.278   6.906  12.890 -0.2232 -0.3930 -0.4472
  858MOL0     C15728   7.232   7.035  12.892  0.3648  0.3673 -0.2514
  858MOL0     C15729   7.193   7.104  12.782 -0.0336  0.4377  0.5691
  858MOL0     O15730   7.149   7.233  12.808 -0.0417 -0.6160 -1.5632
  858MOL0     C15731   7.082   7.315  12.711  0.3505  0.0034  0.2085
  858MOL0     C15732   7.047   7.456  12.783  0.0857  0.9219  0.1279
  858MOL0     C15733   6.949   7.452  12.911  1.4123  0.2143  0.5869
  858MOL0     C15734   6.805   7.455  12.881  0.0645 -0.3217  0.1589
  858MOL0     C15735   6.725   7.469  13.002 -0.0687 -0.0160  0.3708
  858MOL0     C15736   6.682   7.343  13.076 -0.0181 -0.6125  0.3664
  858MOL0     C15737   6.577   7.354  13.184  0.3632 -0.3552 -0.8675
  858MOL0     C15738   6.606   7.448  13.301 -0.5295  0.6762 -0.2623
  858MOL0    Cl15739   6.513   7.427  13.454 -0.1750  0.1334  0.2838
  858MOL0     C15740   7.196   7.039  12.652  0.3222 -0.3420 -0.3215
  858MOL0     C15741   7.241   6.907  12.654 -1.1444 -0.3354  0.5956
  858MOL0     O15742   7.454   6.694  12.934  0.4343  0.0957  0.1512
  858MOL0     C15743   7.412   6.433  12.686  0.9420 -0.9430 -0.4870
  858MOL0     C15744   7.479   6.310  12.656 -0.2877  0.4641 -1.1538
  858MOL0     N15745   8.234   5.857  12.665 -0.0882 -0.6529 -0.5939
  858MOL0     N15746   8.358   5.826  12.637 -0.4135 -0.4608  1.1163
  858MOL0     C15747   8.807   5.771  11.447 -0.6171 -0.5045  0.3453
  858MOL0     C15748   8.828   5.785  11.313  0.3974  0.7501  0.0811
  858MOL0     C15749   9.041   5.723  10.897 -0.0452  0.1041  0.7922
  858MOL0     C15750   9.102   5.847  10.860  0.6444  0.2167 -0.6679
  858MOL0     C15751   9.122   5.873  10.725 -0.0054 -0.0937 -0.2594
  858MOL0     C15752   9.085   5.784  10.624 -0.2821  0.8071  0.0571
  858MOL0     O15753   9.092   5.820  10.498  0.6158  0.3691 -0.8250
  858MOL0     C15754   9.180   5.741  10.411  0.2525 -0.1261 -0.1883
  858MOL0     C15755   9.310   5.809  10.389  0.5127  0.5161 -0.5903
  858MOL0     C15756   9.293   5.933  10.316 -0.4179 -0.4416  0.8043
  858MOL0     C15757   9.412   6.031  10.312 -0.0556  0.6891 -1.1486
  858MOL0     C15758   9.365   6.153  10.238 -1.4383  0.7975 -0.6008
  858MOL0     C15759   9.321   6.244  10.174  0.1162  0.0708 -0.2213
  858MOL0     C15760   9.039   5.655  10.662 -0.7956 -0.5215 -0.6276
  858MOL0     C15761   9.013   5.621  10.795 -0.1836  0.4898 -0.1713
  858MOL0     C15762   8.956   5.483  10.815  0.9794 -0.0518 -0.0878
  858MOL0     H15763   9.171   5.770  11.306 -0.7642  0.4424 -2.5929
  858MOL0     H15764   9.135   5.757  11.552 -0.2416  0.9210  1.7273
  858MOL0     H15765   8.926   5.584  11.754 -1.2234  0.3056 -1.2539
  858MOL0     H15766   9.071   5.684  11.739 -1.9392  0.8881 -1.4802
  858MOL0     H15767   9.010   5.813  11.929 -0.8369  0.1045  2.7026
  858MOL0     H15768   9.011   5.645  11.966  1.4694  0.8259 -0.2405
  858MOL0     H15769   8.741   5.651  11.915 -0.3936  0.7856 -1.1830
  858MOL0     H15770   8.767   5.821  11.899 -0.4031 -1.4012 -1.6276
  858MOL0     H15771   8.845   5.652  12.144 -1.0147 -1.5551 -2.0858
  858MOL0     H15772   8.855   5.820  12.149  1.1693 -1.6905  2.7435
  858MOL0     H15773   8.594   5.829  12.092  0.6983 -0.4529 -0.3851
  858MOL0     H15774   8.589   5.669  12.144  0.5138 -0.8767  3.4122
  858MOL0     H15775   8.721   5.727  12.351  0.2300  1.5315  2.3816
  858MOL0     H15776   8.713   5.899  12.294  2.5630 -0.2872 -1.8385
  858MOL0     H15777   8.496   5.710  12.397 -0.2225  0.7680  2.1581
  858MOL0     H15778   8.447   5.837  12.288 -1.7720  2.1346  1.8844
  858MOL0     H15779   8.618   5.897  12.544  0.7952 -0.5402 -0.5173
  858MOL0     H15780   8.557   6.018  12.451  1.0311  1.6088  1.3760
  858MOL0     H15781   8.330   6.122  12.495 -0.9073 -0.6682 -1.6414
  858MOL0     H15782   8.109   6.125  12.698  1.2908 -1.0848  0.3110
  858MOL0     H15783   8.057   6.106  12.532 -0.0931 -0.6450 -0.4642
  858MOL0     H15784   7.976   5.873  12.594 -2.2546  2.3805 -2.6841
  858MOL0     H15785   7.994   5.924  12.764  0.2996  1.5213  1.1788
  858MOL0     H15786   7.766   5.944  12.680 -0.0149 -0.6267  0.8015
  858MOL0     H15787   7.815   6.030  12.541 -1.6569 -1.6266  0.7401
  858MOL0     H15788   7.858   6.234  12.707  0.9960 -0.7728 -1.4750
  858MOL0     H15789   7.805   6.116  12.827 -0.3482 -0.4287 -0.5362
  858MOL0     H15790   7.721   6.333  12.897  1.3307  0.8060 -1.7403
  858MOL0     H15791   7.609   6.522  12.952  0.6074 -0.7302  0.5009
  858MOL0     H15792   7.308   6.847  12.976  1.4116 -1.8653 -1.9431
  858MOL0     H15793   7.232   7.096  12.982  0.4731  2.1088 -1.3818
  858MOL0     H15794   7.142   7.329  12.621 -0.0943 -1.1648 -0.2943
  858MOL0     H15795   6.992   7.256  12.692  0.8609 -0.8072  0.2327
  858MOL0     H15796   7.143   7.495  12.820  0.0619 -0.4764  1.7971
  858MOL0     H15797   7.005   7.527  12.711 -1.7398  0.2646  0.4957
  858MOL0     H15798   6.974   7.370  12.979 -0.7029 -1.1344 -0.1681
  858MOL0     H15799   6.972   7.544  12.965  0.0270  0.1994  1.2537
  858MOL0     H15800   6.762   7.370  12.826 -2.1265 -0.0999  1.4049
  858MOL0     H15801   6.799   7.544  12.817  2.4855 -1.2019 -1.4502
  858MOL0     H15802   6.632   7.521  12.974 -0.5123 -0.6880  0.5830
  858MOL0     H15803   6.779   7.535  13.071  1.0479 -0.6600  0.1248
  858MOL0     H15804   6.634   7.278  13.001  2.3189 -0.3449 -1.4859
  858MOL0     H15805   6.775   7.300  13.112 -0.2629  0.7830  2.8808
  858MOL0     H15806   6.564   7.255  13.229 -1.6063 -0.4089 -1.4473
  858MOL0     H15807   6.486   7.387  13.134  2.2927  2.8637 -2.6266
  858MOL0     H15808   6.714   7.443  13.311 -0.3937  1.4037 -1.1824
  858MOL0     H15809   6.591   7.554  13.276  1.0542  1.2794  1.1480
  858MOL0     H15810   7.186   7.095  12.559  0.2838  0.2192  0.0185
  858MOL0     H15811   7.223   6.850  12.563 -0.7763 -0.5102  0.6263
  858MOL0     H15812   7.324   6.470  12.635  1.0021  0.2039  0.1862
  858MOL0     H15813   7.436   6.247  12.579  2.6876 -1.9051 -1.0541
  858MOL0     H15814   8.710   5.781  11.494 -1.5078  1.6585 -1.7297
  858MOL0     H15815   8.742   5.806  11.250  0.6665  1.1527 -0.1558
  858MOL0     H15816   9.138   5.909  10.941 -0.7935  0.1193  0.0815
  858MOL0     H15817   9.151   5.975  10.701  0.4347 -0.1076  0.2034
  858MOL0     H15818   9.125   5.724  10.318  0.0689  0.1988 -0.1415
  858MOL0     H15819   9.207   5.643  10.450 -0.5408 -0.9753 -1.6724
  858MOL0     H15820   9.382   5.746  10.337  0.7989  1.0064 -0.8036
  858MOL0     H15821   9.363   5.828  10.482  1.2572 -0.5992 -0.7749
  858MOL0     H15822   9.210   5.989  10.361 -0.3375 -1.1419  1.8457
  858MOL0     H15823   9.260   5.909  10.214  3.8733  0.6035 -1.0707
  858MOL0     H15824   9.448   6.052  10.413  2.2625 -1.2279 -1.4734
  858MOL0     H15825   9.492   5.975  10.262  2.8323  0.3256  3.2824
  858MOL0     H15826   9.273   6.328  10.127  0.1795 -0.3562 -1.0554
  858MOL0     H15827   9.026   5.586  10.579 -0.4320 -0.5866 -0.6308
  858MOL0     H15828   8.886   5.471  10.898  1.2003 -0.0715  0.0953
  858MOL0     H15829   8.911   5.446  10.722  2.2005 -1.9105 -0.0038
  858MOL0     H15830   9.041   5.421  10.843  1.2804 -1.1129 -2.9877
  859MOL0     O15831   3.762   9.118   2.850 -0.1763  0.4003  0.2620
  859MOL0     C15832   3.753   9.188   2.748 -1.1038  0.3353  1.2222
  859MOL0     O15833   3.687   9.146   2.638  0.0578  0.1202 -0.4678
  859MOL0     C15834   3.673   9.010   2.632  0.1136 -0.1873  0.0228
  859MOL0     C15835   3.745   8.924   2.553  1.4339 -0.1213  0.3866
  859MOL0     C15836   3.713   8.787   2.548 -0.0981 -0.6064 -0.7186
  859MOL0     C15837   3.606   8.731   2.613 -0.2058 -0.6472 -0.0833
  859MOL0     O15838   3.597   8.595   2.619 -0.2293  0.0167 -0.0918
  859MOL0     C15839   3.511   8.541   2.720  0.4387  0.5715  0.5228
  859MOL0     C15840   3.368   8.525   2.674  0.0226 -0.1003 -0.0022
  859MOL0     C15841   3.354   8.426   2.553 -0.0218  0.9795 -1.4975
  859MOL0     C15842   3.206   8.425   2.539 -1.2884  0.2608 -0.7376
  859MOL0     C15843   3.155   8.312   2.446  0.7836  0.5321  0.1810
  859MOL0     C15844   3.033   8.237   2.509 -0.7770  0.3720  0.7860
  859MOL0     C15845   2.971   8.153   2.404  0.1482 -0.1862 -0.1773
  859MOL0     C15846   2.862   8.071   2.466  0.2117  0.0793 -0.6950
  859MOL0     N15847   2.767   8.156   2.530  0.3681 -0.6587  0.0722
  859MOL0     C15848   2.686   8.244   2.468 -0.0323  0.2362  0.6231
  859MOL0     C15849   2.600   8.292   2.565  0.0504 -0.5793 -0.4951
  859MOL0     C15850   2.486   8.382   2.541 -1.5345 -0.1666 -0.1945
  859MOL0     C15851   2.357   8.301   2.535  0.7862  0.9748 -0.0262
  859MOL0     C15852   2.319   8.256   2.677  0.8194 -0.0951 -0.8258
  859MOL0     C15853   2.173   8.209   2.686  0.4029  0.1844 -0.5829
  859MOL0     O15854   2.152   8.077   2.623 -0.2308 -0.8462 -0.9530
  859MOL0     C15855   2.200   7.960   2.687  0.4562 -0.0911  0.0305
  859MOL0     C15856   2.265   7.962   2.809  1.0844 -0.0139 -0.0791
  859MOL0     C15857   2.309   7.840   2.861 -0.4779 -0.5688  0.2765
  859MOL0     C15858   2.277   7.715   2.800 -0.7232  0.4190 -0.3593
  859MOL0     C15859   2.339   7.589   2.856  1.2686 -0.2493 -0.6580
  859MOL0     O15860   2.414   7.590   2.970 -0.0139  0.4283  0.6578
  859MOL0     C15861   2.405   7.473   3.045 -0.9622 -0.0933 -0.4175
  859MOL0     C15862   2.524   7.420   3.098  0.2237  1.6673 -0.1361
  859MOL0     C15863   2.512   7.314   3.189  1.0954  0.4137 -0.4962
  859MOL0     C15864   2.390   7.270   3.234  0.1588  0.2790 -0.3713
  859MOL0     O15865   2.370   7.171   3.335 -0.4159 -0.2466 -1.1854
  859MOL0     C15866   2.474   7.111   3.402 -0.8199 -0.2091  0.2478
  859MOL0     C15867   2.409   7.033   3.520 -0.3177 -0.4957  0.6438
  859MOL0     C15868   2.511   6.943   3.595 -0.1172  0.0165 -0.4705
  859MOL0     C15869   2.562   6.819   3.516 -0.3163 -0.0693  0.2270
  859MOL0     C15870   2.448   6.754   3.447  0.0505 -1.0993 -0.7332
  859MOL0     C15871   2.496   6.630   3.373 -0.5319 -2.0155  0.1038
  859MOL0     C15872   2.375   6.534   3.332 -0.0847  0.0393  0.2995
  859MOL0     C15873   2.444   6.395   3.325  0.0481  0.4872  0.6864
  859MOL0    Cl15874   2.315   6.270   3.361 -0.1189  0.1603  0.1116
  859MOL0     C15875   2.274   7.330   3.186  0.1677  0.0804 -0.3815
  859MOL0     C15876   2.280   7.443   3.099  0.3194 -0.5583 -0.5097
  859MOL0     O15877   2.303   7.483   2.802 -0.5860 -0.2671 -0.0350
  859MOL0     C15878   2.201   7.712   2.677 -0.0661  0.6180  0.1903
  859MOL0     C15879   2.169   7.841   2.616 -0.6943 -0.1936  0.0921
  859MOL0     N15880   2.639   8.239   2.685 -0.3875  0.8572  0.7604
  859MOL0     N15881   2.744   8.162   2.667  0.6521 -0.1793  0.1542
  859MOL0     C15882   3.526   8.823   2.686  0.0842  0.6305  0.5834
  859MOL0     C15883   3.556   8.965   2.698 -0.6838 -0.7343  0.2418
  859MOL0     C15884   3.824   9.321   2.737  0.5898 -0.1433  0.0822
  859MOL0     C15885   3.769   9.419   2.653 -0.4191 -0.2611  0.4101
  859MOL0     C15886   3.824   9.549   2.644  0.7013  0.4090 -0.4202
  859MOL0     C15887   3.939   9.585   2.714 -0.1044 -0.6845 -0.4775
  859MOL0     O15888   3.990   9.711   2.738  0.5029  0.4408  0.2231
  859MOL0     C15889   3.992   9.796   2.624 -0.3736  0.1488 -0.4316
  859MOL0     C15890   4.105   9.744   2.537  0.0745 -0.4330  0.1926
  859MOL0     C15891   4.146   9.858   2.446 -0.6187 -0.1875 -0.3815
  859MOL0     C15892   4.076   9.863   2.315 -0.3320 -0.1066 -0.1966
  859MOL0     C15893   4.108   9.740   2.248 -0.5520 -0.5091 -0.4955
  859MOL0     C15894   4.120   9.635   2.196 -0.4744  0.5894 -0.2737
  859MOL0     C15895   3.999   9.481   2.789 -0.4443  0.0943 -0.3286
  859MOL0     C15896   3.940   9.353   2.810 -0.9162  0.7161 -0.4097
  859MOL0     C15897   4.018   9.258   2.894  1.2974  0.7155 -0.0443
  859MOL0     H15898   3.828   8.962   2.494 -0.2088  0.8097 -1.4379
  859MOL0     H15899   3.780   8.726   2.488 -0.1079 -2.8018  1.3840
  859MOL0     H15900   3.552   8.441   2.738 -0.3170 -0.2285 -1.9042
  859MOL0     H15901   3.509   8.597   2.814  0.1336  0.3844  0.6307
  859MOL0     H15902   3.315   8.619   2.657  0.7628  0.7385  2.0855
  859MOL0     H15903   3.310   8.490   2.760 -0.2217 -1.2465 -0.6058
  859MOL0     H15904   3.392   8.328   2.582 -0.6394  0.6017 -1.9487
  859MOL0     H15905   3.402   8.459   2.461 -0.2886  0.8573 -1.6807
  859MOL0     H15906   3.175   8.394   2.639 -0.2621 -0.5155 -0.6400
  859MOL0     H15907   3.159   8.512   2.493 -0.9907  1.4392  1.1154
  859MOL0     H15908   3.116   8.345   2.349 -1.9377  1.0197  1.3323
  859MOL0     H15909   3.237   8.242   2.432 -0.2980 -1.1776  1.8543
  859MOL0     H15910   3.077   8.181   2.592  1.0381  0.3288 -0.1645
  859MOL0     H15911   2.968   8.304   2.567 -1.8535 -0.7621  0.9313
  859MOL0     H15912   3.047   8.087   2.360 -1.3993 -3.4145  1.6080
  859MOL0     H15913   2.934   8.208   2.317  2.0814  1.9545  0.2505
  859MOL0     H15914   2.809   8.007   2.395 -0.1782 -2.4215  1.6970
  859MOL0     H15915   2.897   8.004   2.545 -0.7480 -0.5391 -0.7822
  859MOL0     H15916   2.685   8.262   2.361 -4.8498 -1.9307  0.0631
  859MOL0     H15917   2.480   8.456   2.622 -1.9562  2.5665 -2.5454
  859MOL0     H15918   2.496   8.442   2.450  3.6841 -1.1445 -0.5568
  859MOL0     H15919   2.268   8.361   2.512 -2.1130  0.6290  7.4141
  859MOL0     H15920   2.369   8.213   2.472 -1.9096  0.7916 -0.3867
  859MOL0     H15921   2.337   8.347   2.736  2.9476 -0.3799 -0.9351
  859MOL0     H15922   2.381   8.176   2.718  2.4198  0.9008 -1.1905
  859MOL0     H15923   2.103   8.279   2.640 -0.3895 -1.5583 -2.2218
  859MOL0     H15924   2.145   8.189   2.789 -0.3378 -2.3833 -1.2033
  859MOL0     H15925   2.296   8.053   2.859  3.2118 -1.4199  1.3052
  859MOL0     H15926   2.359   7.836   2.958 -2.0244 -0.2336  1.1225
  859MOL0     H15927   2.618   7.442   3.048 -0.4823  0.4373 -2.1315
  859MOL0     H15928   2.603   7.270   3.227  2.1510  0.9171 -2.3103
  859MOL0     H15929   2.537   7.055   3.333  0.7545  4.6891 -2.8503
  859MOL0     H15930   2.534   7.189   3.450  0.5979 -1.2531  0.2091
  859MOL0     H15931   2.361   7.106   3.586 -0.7464 -0.5500  0.3997
  859MOL0     H15932   2.333   6.968   3.476  0.2975 -1.4483  0.9657
  859MOL0     H15933   2.603   6.996   3.623  1.4694 -2.6705 -0.2532
  859MOL0     H15934   2.468   6.910   3.690  2.9533 -2.6882  0.1746
  859MOL0     H15935   2.606   6.743   3.581  2.0208  0.9882 -0.0002
  859MOL0     H15936   2.644   6.858   3.456 -0.1644 -1.0154 -0.1876
  859MOL0     H15937   2.400   6.819   3.374 -0.2593  0.4472  0.7792
  859MOL0     H15938   2.379   6.717   3.524 -0.9649  1.2384 -0.4260
  859MOL0     H15939   2.552   6.666   3.287 -2.5066  1.3024  0.0319
  859MOL0     H15940   2.570   6.576   3.433  1.2752 -0.2837 -0.4463
  859MOL0     H15941   2.336   6.554   3.232 -3.0917  1.3776  1.6145
  859MOL0     H15942   2.293   6.539   3.404 -0.6838  3.9825 -0.4182
  859MOL0     H15943   2.496   6.384   3.229 -0.1467  2.2954  0.3382
  859MOL0     H15944   2.523   6.386   3.401  1.4314 -1.2734 -0.8576
  859MOL0     H15945   2.169   7.310   3.208 -0.4757  1.0583 -2.3674
  859MOL0     H15946   2.184   7.492   3.086  0.6680  0.4630  0.5158
  859MOL0     H15947   2.183   7.615   2.633  0.0292  1.5740 -2.0738
  859MOL0     H15948   2.126   7.867   2.520 -1.7269 -0.0011  0.5869
  859MOL0     H15949   3.443   8.785   2.745 -0.8615  0.6027 -0.7158
  859MOL0     H15950   3.493   9.031   2.756  0.8440 -0.0179  1.1347
  859MOL0     H15951   3.686   9.386   2.591 -0.2529  0.5521 -0.2573
  859MOL0     H15952   3.764   9.611   2.578  0.2047 -0.0476 -0.4112
  859MOL0     H15953   4.011   9.898   2.660 -0.4939 -1.2171  4.0638
  859MOL0     H15954   3.898   9.804   2.570 -0.4391 -0.5511 -0.4320
  859MOL0     H15955   4.055   9.669   2.474 -0.7700  0.0278  0.3004
  859MOL0     H15956   4.186   9.702   2.598  1.7717  4.4005  1.7562
  859MOL0     H15957   4.252   9.838   2.425  0.9916  1.5987  4.5096
  859MOL0     H15958   4.141   9.952   2.502 -1.9100 -0.3086 -0.2701
  859MOL0     H15959   3.967   9.864   2.326 -0.1817  2.5754  2.0748
  859MOL0     H15960   4.104   9.959   2.270  2.5093  0.0628  1.7051
  859MOL0     H15961   4.128   9.544   2.138 -0.7137  0.7718 -0.5985
  859MOL0     H15962   4.102   9.493   2.819 -0.5935 -2.0952  1.3303
  859MOL0     H15963   4.087   9.306   2.963 -1.8691  3.9347  1.2121
  859MOL0     H15964   3.964   9.188   2.958  1.8038  0.6353  0.2983
  859MOL0     H15965   4.063   9.191   2.820 -1.9579 -2.2108  0.3434
  860MOL0     O15966   4.766   8.902   9.284 -0.2475 -0.1206  0.9503
  860MOL0     C15967   4.746   8.783   9.304  0.0762  0.4687  0.5441
  860MOL0     O15968   4.682   8.730   9.408 -0.4777 -0.3492 -1.1209
  860MOL0     C15969   4.625   8.819   9.503 -0.2056  0.4419  0.6769
  860MOL0     C15970   4.487   8.821   9.518 -0.5866  0.8933 -0.2956
  860MOL0     C15971   4.419   8.882   9.619 -0.0495  0.1617  0.1032
  860MOL0     C15972   4.487   8.944   9.729 -0.5394 -0.8543  0.2092
  860MOL0     O15973   4.424   9.013   9.835  0.4269  0.6212  0.1348
  860MOL0     C15974   4.491   9.051   9.953  0.2345 -0.3214  0.6090
  860MOL0     C15975   4.399   9.043  10.073  0.5026 -0.5622  0.3903
  860MOL0     C15976   4.444   9.138  10.186  0.7203  0.1452  0.0160
  860MOL0     C15977   4.433   9.285  10.161  0.1431 -0.1096 -0.1134
  860MOL0     C15978   4.503   9.368  10.276  0.8055  0.0520  0.7269
  860MOL0     C15979   4.505   9.522  10.267  0.3113  0.5759 -0.7098
  860MOL0     C15980   4.589   9.594  10.379 -0.0248  0.2198  0.0233
  860MOL0     C15981   4.737   9.592  10.356 -0.0956  0.2469  0.7154
  860MOL0     N15982   4.810   9.656  10.464 -0.3516 -0.0189 -0.0748
  860MOL0     C15983   4.931   9.596  10.493  0.3486  0.3378 -0.1292
  860MOL0     C15984   4.961   9.654  10.609  0.8393 -0.7729  0.4412
  860MOL0     C15985   5.087   9.623  10.688 -0.0089  0.3997 -0.0825
  860MOL0     C15986   5.170   9.734  10.753  0.1030  0.6200  0.5143
  860MOL0     C15987   5.110   9.798  10.890  0.6708 -0.5901 -0.7717
  860MOL0     C15988   5.110   9.698  11.001  0.2667  0.2859 -0.4944
  860MOL0     O15989   5.240   9.640  11.027 -0.2169 -0.5609 -0.3691
  860MOL0     C15990   5.324   9.744  11.069  0.0884 -0.0340 -0.1711
  860MOL0     C15991   5.437   9.771  10.989  0.9419  0.8293 -0.2223
  860MOL0     C15992   5.522   9.865  11.024 -0.0379 -0.8137  0.5150
  860MOL0     C15993   5.502   9.964  11.126 -0.0854 -0.3651 -0.0648
  860MOL0     C15994   5.598  10.071  11.139 -0.1688  0.2777 -0.4837
  860MOL0     O15995   5.713  10.072  11.071 -0.1989  0.3193 -0.4413
  860MOL0     C15996   5.792  10.182  11.062 -0.6997 -1.0963 -0.6987
  860MOL0     C15997   5.747  10.310  11.088 -0.2825 -1.0536 -0.6366
  860MOL0     C15998   5.841  10.417  11.053  0.1714 -0.8542 -0.3826
  860MOL0     C15999   5.974  10.409  11.021 -0.4168  0.5240 -0.4051
  860MOL0     O16000   6.039  10.531  11.011  0.0096 -0.4845  0.3459
  860MOL0     C16001   6.178  10.525  11.069 -0.2854 -0.1654 -0.7428
  860MOL0     C16002   6.261  10.657  11.049 -0.0052  0.1743 -0.4538
  860MOL0     C16003   6.371  10.665  11.150 -0.4721 -0.0569  1.1018
  860MOL0     C16004   6.464  10.776  11.095  0.5212  0.5567  0.0899
  860MOL0     C16005   6.579  10.781  11.193  1.1293 -0.3506  0.2382
  860MOL0     C16006   6.673  10.889  11.144  0.0551 -0.4136  0.7254
  860MOL0     C16007   6.784  10.907  11.242  0.0708 -0.0875  0.0098
  860MOL0     C16008   6.918  10.968  11.186  0.0105 -0.2531  0.5369
  860MOL0    Cl16009   6.885  11.119  11.092  0.3860  0.0020  0.1774
  860MOL0     C16010   6.023  10.280  11.004 -0.1075  1.4580  0.0471
  860MOL0     C16011   5.927  10.169  11.002 -0.2488  0.0273 -0.5717
  860MOL0     O16012   5.564  10.153  11.223 -0.1115  0.0730  0.2570
  860MOL0     C16013   5.390   9.942  11.207  0.4604  0.3472 -0.1844
  860MOL0     C16014   5.304   9.836  11.176  0.0369  0.6287  0.4871
  860MOL0     N16015   4.865   9.748  10.650 -0.4918  0.1401  0.0608
  860MOL0     N16016   4.779   9.743  10.567  0.4355  1.1618  0.6792
  860MOL0     C16017   4.625   8.954   9.711 -0.0295  0.0928 -0.5515
  860MOL0     C16018   4.693   8.890   9.602 -0.2424 -0.6727  0.0382
  860MOL0     C16019   4.804   8.695   9.201  0.4639 -0.2988  0.1123
  860MOL0     C16020   4.836   8.564   9.235  0.1548 -0.5665 -0.7714
  860MOL0     C16021   4.887   8.480   9.140  0.0248  0.1303 -0.1987
  860MOL0     C16022   4.922   8.514   9.015 -0.5818 -0.3366  0.3437
  860MOL0     O16023   4.971   8.409   8.937 -1.2143  0.0292 -0.0410
  860MOL0     C16024   4.953   8.405   8.799 -0.4178  0.7387  0.2405
  860MOL0     C16025   4.890   8.266   8.754  0.5042  0.6296 -0.0573
  860MOL0     C16026   4.849   8.291   8.608 -0.4796  0.2588  0.7261
  860MOL0     C16027   4.758   8.189   8.547 -0.1913 -0.0321  0.3306
  860MOL0     C16028   4.834   8.107   8.455  0.2668 -0.0225  0.5659
  860MOL0     C16029   4.896   8.039   8.376 -0.4338 -0.8475  0.3838
  860MOL0     C16030   4.897   8.643   8.975  0.2782 -0.6936  0.4035
  860MOL0     C16031   4.839   8.736   9.064  0.4246 -0.7992 -0.2423
  860MOL0     C16032   4.803   8.871   9.005 -0.3819 -0.3016 -0.2533
  860MOL0     H16033   4.432   8.766   9.443  1.7344 -1.3727 -0.4679
  860MOL0     H16034   4.310   8.886   9.621 -0.1174 -1.0139 -0.1970
  860MOL0     H16035   4.583   8.998   9.979 -1.4044 -3.9588 -0.3865
  860MOL0     H16036   4.513   9.157   9.942 -2.6904  0.4608  1.3418
  860MOL0     H16037   4.398   8.935  10.093 -2.2478 -0.6904 -0.0471
  860MOL0     H16038   4.299   9.073  10.041 -0.1738 -0.6046  2.3017
  860MOL0     H16039   4.548   9.110  10.205  0.3119 -1.7715 -0.3755
  860MOL0     H16040   4.381   9.130  10.275 -1.9340 -1.6880 -1.8603
  860MOL0     H16041   4.466   9.328  10.066 -0.3335  3.9664  1.3778
  860MOL0     H16042   4.327   9.301  10.185  0.6470  0.5545  1.8394
  860MOL0     H16043   4.450   9.344  10.369  0.8663 -0.9605  0.5041
  860MOL0     H16044   4.609   9.341  10.282  1.0522  0.6644 -0.6344
  860MOL0     H16045   4.527   9.564  10.169  1.3797  2.9761  0.4742
  860MOL0     H16046   4.405   9.561  10.288 -0.9706 -1.3394 -2.8491
  860MOL0     H16047   4.563   9.551  10.477 -3.7432 -1.0880 -1.3325
  860MOL0     H16048   4.557   9.698  10.390  1.2263  0.4905  1.4655
  860MOL0     H16049   4.778   9.492  10.338  1.3389  1.0915 -1.0337
  860MOL0     H16050   4.752   9.644  10.261  0.5761 -2.6455 -0.8744
  860MOL0     H16051   4.969   9.509  10.441 -0.7663 -1.5109  1.9579
  860MOL0     H16052   5.052   9.559  10.770 -2.2657 -2.2505 -2.8748
  860MOL0     H16053   5.149   9.571  10.615 -0.2634  1.7833 -1.3078
  860MOL0     H16054   5.277   9.710  10.761  0.0195 -1.9607 -3.4185
  860MOL0     H16055   5.169   9.811  10.675  1.5677  1.6493  1.4538
  860MOL0     H16056   5.012   9.837  10.863  0.4529 -0.0608  0.6837
  860MOL0     H16057   5.173   9.885  10.913  2.1640 -1.8713  0.1857
  860MOL0     H16058   5.032   9.625  10.973 -3.0304  3.6571 -0.9718
  860MOL0     H16059   5.068   9.741  11.092 -0.2193  0.4332 -0.7834
  860MOL0     H16060   5.454   9.690  10.919  0.1764 -1.1899  1.8340
  860MOL0     H16061   5.612   9.869  10.964 -1.3234 -0.6541 -1.4649
  860MOL0     H16062   5.646  10.344  11.108 -0.2873 -0.3032 -1.8428
  860MOL0     H16063   5.798  10.515  11.072  2.1885 -0.2868  1.5610
  860MOL0     H16064   6.171  10.498  11.175  3.8169 -0.6630 -0.4425
  860MOL0     H16065   6.235  10.435  11.041  1.1053  0.7569 -0.9671
  860MOL0     H16066   6.300  10.670  10.948  0.4598  2.0282 -0.0821
  860MOL0     H16067   6.195  10.744  11.064  0.2837  1.3801 -4.7229
  860MOL0     H16068   6.326  10.693  11.246 -0.8418  2.9970  0.1757
  860MOL0     H16069   6.423  10.571  11.171  0.6123  0.5206  1.0827
  860MOL0     H16070   6.413  10.871  11.081 -1.0428  0.0787  2.0984
  860MOL0     H16071   6.495  10.743  10.995  1.0367 -2.3930  1.1162
  860MOL0     H16072   6.619  10.681  11.211  2.0901 -0.3892 -1.8290
  860MOL0     H16073   6.535  10.809  11.289 -2.0718 -3.3928 -0.1612
  860MOL0     H16074   6.725  10.845  11.058  2.3485  0.3530  1.6303
  860MOL0     H16075   6.636  10.988  11.118  3.5036  0.7683 -0.2762
  860MOL0     H16076   6.821  10.814  11.286 -0.7967  0.3282  1.7193
  860MOL0     H16077   6.756  10.979  11.320 -0.3549 -0.7480  0.4799
  860MOL0     H16078   6.971  10.997  11.277 -0.3562  1.3269  0.2855
  860MOL0     H16079   6.979  10.903  11.123  0.1663  0.4385 -0.0463
  860MOL0     H16080   6.123  10.259  10.968 -0.9296 -1.4885 -0.7867
  860MOL0     H16081   5.969  10.072  10.979 -0.1473  0.1172 -0.7652
  860MOL0     H16082   5.367  10.003  11.294  0.7904 -0.0652  0.1965
  860MOL0     H16083   5.221   9.831  11.247  2.4445  1.8563  3.5967
  860MOL0     H16084   4.694   9.014   9.770  2.9059 -0.4132 -3.2165
  860MOL0     H16085   4.801   8.903   9.599 -0.0082 -1.7212  2.0782
  860MOL0     H16086   4.805   8.517   9.328 -2.8226  1.8674 -0.3903
  860MOL0     H16087   4.903   8.378   9.171 -0.5059  0.6746  2.0666
  860MOL0     H16088   5.049   8.410   8.746  1.4774  1.6067  3.4982
  860MOL0     H16089   4.880   8.480   8.768 -0.2975  2.2858  3.2889
  860MOL0     H16090   4.807   8.237   8.819 -1.3582 -0.0493 -2.5855
  860MOL0     H16091   4.949   8.178   8.778 -4.5259 -2.0916  4.6941
  860MOL0     H16092   4.935   8.309   8.542 -2.6191  3.7840 -1.4590
  860MOL0     H16093   4.796   8.387   8.603 -2.1548 -0.3372  4.3016
  860MOL0     H16094   4.705   8.132   8.624 -1.3850 -0.0578 -0.4845
  860MOL0     H16095   4.684   8.239   8.483  0.8292 -0.0130 -0.8783
  860MOL0     H16096   4.955   7.983   8.307  2.9325  0.0611  2.3271
  860MOL0     H16097   4.920   8.683   8.877 -0.0360  2.6370  1.5743
  860MOL0     H16098   4.866   8.944   9.057 -0.7259 -0.8484  0.9809
  860MOL0     H16099   4.818   8.873   8.897 -3.0473 -2.0234 -0.7568
  860MOL0     H16100   4.699   8.893   9.032 -0.2775  0.9230 -0.7813
  861MOL0     O16101   5.247   6.704   7.082  0.2354 -0.2077 -0.3609
  861MOL0     C16102   5.169   6.655   7.005 -0.9986  0.2982  0.4632
  861MOL0     O16103   5.207   6.617   6.871  0.1198  0.5489  0.4905
  861MOL0     C16104   5.340   6.596   6.848  0.2738 -0.0496 -0.8730
  861MOL0     C16105   5.423   6.688   6.788  0.5283  0.1057  0.4777
  861MOL0     C16106   5.557   6.666   6.766  0.2877 -0.5940  0.4876
  861MOL0     C16107   5.607   6.542   6.804  0.0001 -0.9895  0.4941
  861MOL0     O16108   5.733   6.524   6.757  0.1991  0.3625  0.6935
  861MOL0     C16109   5.809   6.408   6.792 -0.3608 -0.4739  0.1699
  861MOL0     C16110   5.928   6.379   6.699 -0.5446  0.1018  0.0429
  861MOL0     C16111   5.872   6.347   6.561  0.1880  0.3477 -0.2529
  861MOL0     C16112   5.925   6.451   6.464  0.7499 -0.2148  0.1917
  861MOL0     C16113   6.067   6.412   6.408  0.0594 -0.8225 -0.2101
  861MOL0     C16114   6.070   6.302   6.299  0.8915 -1.1609 -0.4640
  861MOL0     C16115   5.960   6.323   6.187  0.0754  0.6287 -0.5985
  861MOL0     C16116   5.981   6.232   6.071 -0.2478 -0.2356  0.5620
  861MOL0     N16117   5.863   6.239   5.986 -0.6535 -0.0222  0.1333
  861MOL0     C16118   5.820   6.344   5.901 -0.0241  0.1152  0.2696
  861MOL0     C16119   5.686   6.322   5.875 -0.6307 -1.0686  0.2902
  861MOL0     C16120   5.605   6.416   5.788  0.3320  0.5502  0.3150
  861MOL0     C16121   5.512   6.515   5.858  0.2645 -0.5078  0.1347
  861MOL0     C16122   5.412   6.584   5.752  0.2897  1.4335 -0.1119
  861MOL0     C16123   5.467   6.633   5.617  0.4263  0.4319  0.3360
  861MOL0     O16124   5.502   6.515   5.528 -1.0801 -0.1826  0.1202
  861MOL0     C16125   5.533   6.546   5.401  0.8879 -0.1883 -1.0996
  861MOL0     C16126   5.658   6.546   5.365 -0.0341  1.0636 -0.3748
  861MOL0     C16127   5.703   6.589   5.239 -0.5487 -0.7604 -0.6742
  861MOL0     C16128   5.610   6.631   5.144  0.7479 -1.2336 -0.2145
  861MOL0     C16129   5.658   6.700   5.017  0.0504 -0.5330 -0.0958
  861MOL0     O16130   5.574   6.736   4.922  0.1324 -0.0557 -0.1000
  861MOL0     C16131   5.625   6.810   4.817  0.2457  0.5800 -0.4955
  861MOL0     C16132   5.629   6.755   4.692  0.3843  0.1393 -0.4952
  861MOL0     C16133   5.692   6.822   4.587 -0.0111  0.5553  0.4120
  861MOL0     C16134   5.736   6.952   4.603 -0.0399  0.3958  1.0309
  861MOL0     O16135   5.794   7.036   4.507  0.7475 -0.4047  0.6230
  861MOL0     C16136   5.820   6.990   4.373 -1.3218  0.1372  0.0460
  861MOL0     C16137   5.872   7.120   4.306 -0.1970  0.3513 -1.1428
  861MOL0     C16138   6.016   7.147   4.328  1.0333  0.2548 -0.2951
  861MOL0     C16139   6.064   7.265   4.254  1.0708 -0.5166 -0.0470
  861MOL0     C16140   6.219   7.258   4.238  0.5887 -0.7603 -0.0995
  861MOL0     C16141   6.268   7.378   4.160 -0.8661 -0.2012 -0.0882
  861MOL0     C16142   6.417   7.375   4.157 -0.3122  0.4622 -0.2397
  861MOL0     C16143   6.493   7.511   4.142  0.1186 -0.3651  0.1890
  861MOL0    Cl16144   6.653   7.471   4.182  0.0936  0.0202  0.2945
  861MOL0     C16145   5.731   7.006   4.729 -0.3180 -0.0282  0.7846
  861MOL0     C16146   5.681   6.935   4.837 -0.9425  0.1275  0.4491
  861MOL0     O16147   5.779   6.731   5.019  0.1565  0.3706  1.0181
  861MOL0     C16148   5.475   6.597   5.170  0.6831  0.1635 -0.3082
  861MOL0     C16149   5.431   6.568   5.302  0.2985 -0.0417  0.1999
  861MOL0     N16150   5.650   6.205   5.945  0.1566 -0.1195  0.1824
  861MOL0     N16151   5.753   6.171   6.015  0.8753  0.3143  0.2241
  861MOL0     C16152   5.531   6.446   6.868  0.3081 -0.8690  0.6508
  861MOL0     C16153   5.401   6.479   6.895  0.0097  0.2240 -0.3707
  861MOL0     C16154   5.031   6.638   7.047 -0.9725 -0.6437  0.0947
  861MOL0     C16155   4.943   6.610   6.946  0.0172 -0.0082  0.4556
  861MOL0     C16156   4.808   6.574   6.979 -0.0560  1.1179 -0.4508
  861MOL0     C16157   4.759   6.595   7.105 -0.1459  0.4449  0.3674
  861MOL0     O16158   4.630   6.564   7.121  0.8560  0.4106 -0.0304
  861MOL0     C16159   4.540   6.645   7.202 -0.3587  0.6754 -0.1543
  861MOL0     C16160   4.533   6.796   7.172 -0.4363  0.1870  0.4458
  861MOL0     C16161   4.502   6.806   7.018 -0.4533 -0.3336 -0.6273
  861MOL0     C16162   4.431   6.941   6.971  0.5597  0.0228  1.0780
  861MOL0     C16163   4.383   6.922   6.828 -0.7435 -0.8957 -0.3830
  861MOL0     C16164   4.350   6.912   6.717  0.3857  0.5753  0.1342
  861MOL0     C16165   4.848   6.643   7.208 -0.4120 -0.2969  0.5718
  861MOL0     C16166   4.981   6.670   7.172 -0.5613 -0.1037 -0.2834
  861MOL0     C16167   5.068   6.722   7.283 -0.2076  0.2187  0.0994
  861MOL0     H16168   5.373   6.777   6.752  2.3777  2.0254  2.4015
  861MOL0     H16169   5.609   6.743   6.711  0.8783  0.1351  2.0129
  861MOL0     H16170   5.831   6.423   6.899 -2.2488  0.0013  0.5355
  861MOL0     H16171   5.750   6.317   6.802 -0.6163 -0.2980  0.3074
  861MOL0     H16172   5.974   6.285   6.732 -1.2606 -0.5245 -0.7135
  861MOL0     H16173   5.995   6.463   6.718 -1.7481  0.6178  2.4086
  861MOL0     H16174   5.762   6.351   6.556  0.2229 -0.0963 -2.0734
  861MOL0     H16175   5.901   6.246   6.532  2.9658 -0.4313  4.2107
  861MOL0     H16176   5.866   6.478   6.376 -1.8320  0.2869  1.9736
  861MOL0     H16177   5.922   6.543   6.524 -0.8905 -1.4740  2.1739
  861MOL0     H16178   6.105   6.508   6.371 -2.5470  0.0235 -0.8931
  861MOL0     H16179   6.124   6.372   6.493  1.7519 -0.3290 -1.0574
  861MOL0     H16180   6.166   6.291   6.248  0.1161 -1.0450 -1.9926
  861MOL0     H16181   6.045   6.209   6.351  0.4356 -0.2197  1.0524
  861MOL0     H16182   5.942   6.430   6.171  3.1195  1.4185  0.5265
  861MOL0     H16183   5.865   6.283   6.225  0.4732 -2.3637 -2.4935
  861MOL0     H16184   6.072   6.258   6.016 -0.1004  1.2958  1.4599
  861MOL0     H16185   5.992   6.130   6.110 -0.4572 -1.2779 -1.9333
  861MOL0     H16186   5.884   6.422   5.861 -0.1481  0.6558  1.0993
  861MOL0     H16187   5.671   6.472   5.722 -0.3129 -0.6411 -1.4330
  861MOL0     H16188   5.537   6.354   5.728  2.7408 -0.8967 -1.1104
  861MOL0     H16189   5.446   6.464   5.928 -1.3370  1.1816 -0.0598
  861MOL0     H16190   5.567   6.592   5.914 -0.2589  1.2589 -1.6634
  861MOL0     H16191   5.371   6.676   5.797  1.9053  2.1033  0.0319
  861MOL0     H16192   5.339   6.504   5.735  4.1647 -1.9380 -2.7684
  861MOL0     H16193   5.566   6.678   5.630  1.0844 -1.1383  1.0525
  861MOL0     H16194   5.396   6.700   5.568  0.7052 -1.8197 -3.5717
  861MOL0     H16195   5.728   6.507   5.438 -0.4179 -2.0542 -1.5475
  861MOL0     H16196   5.809   6.604   5.228 -0.6654 -0.5438 -1.5937
  861MOL0     H16197   5.604   6.650   4.683  0.2198 -0.1222  2.2409
  861MOL0     H16198   5.721   6.770   4.496 -0.9136 -1.5319  1.2456
  861MOL0     H16199   5.901   6.916   4.369  1.9105  3.3883 -0.3873
  861MOL0     H16200   5.731   6.943   4.330 -2.5248  1.0303  1.4531
  861MOL0     H16201   5.844   7.124   4.201 -1.7397  2.0679 -0.7245
  861MOL0     H16202   5.813   7.197   4.355  0.8982  0.9081 -0.6489
  861MOL0     H16203   6.038   7.158   4.435  1.0698  0.2520 -0.3021
  861MOL0     H16204   6.079   7.061   4.304  0.6360 -0.6826  1.7934
  861MOL0     H16205   6.019   7.361   4.281  1.7850  0.7587 -3.0333
  861MOL0     H16206   6.022   7.247   4.155  0.6303  0.1495  0.0131
  861MOL0     H16207   6.243   7.164   4.188 -1.0056 -2.0702  1.4747
  861MOL0     H16208   6.254   7.264   4.341 -1.3948  0.0245  0.5836
  861MOL0     H16209   6.218   7.366   4.063 -1.1884 -1.9010  0.2496
  861MOL0     H16210   6.229   7.469   4.206 -3.2953  0.4407 -3.0807
  861MOL0     H16211   6.452   7.312   4.075  1.2558  0.4761  0.3999
  861MOL0     H16212   6.459   7.325   4.244  0.4522  0.1411 -0.7862
  861MOL0     H16213   6.482   7.555   4.042  0.6111  0.1964  0.3834
  861MOL0     H16214   6.464   7.577   4.224 -0.2626 -2.6010  1.9661
  861MOL0     H16215   5.776   7.103   4.746 -0.2612 -0.1133  1.1307
  861MOL0     H16216   5.689   6.969   4.940 -0.0326 -0.6774  0.6588
  861MOL0     H16217   5.396   6.618   5.098  0.4903 -1.3747 -0.5699
  861MOL0     H16218   5.331   6.573   5.344  0.3250 -1.0493  0.3976
  861MOL0     H16219   5.577   6.351   6.893  2.7217 -0.2119 -0.8818
  861MOL0     H16220   5.343   6.410   6.957 -0.3736  2.5400  2.0332
  861MOL0     H16221   4.966   6.603   6.840 -0.4472 -1.7109  0.4419
  861MOL0     H16222   4.740   6.549   6.898  2.5222  0.6954 -2.6558
  861MOL0     H16223   4.557   6.637   7.310 -1.3137  3.9425  0.3544
  861MOL0     H16224   4.442   6.600   7.187  0.3298 -0.1912 -2.4266
  861MOL0     H16225   4.633   6.836   7.187  0.4029 -1.7035  0.1951
  861MOL0     H16226   4.473   6.854   7.242  0.3037 -0.1985  1.4212
  861MOL0     H16227   4.426   6.730   6.997  1.1692 -0.8507 -6.2666
  861MOL0     H16228   4.590   6.776   6.960 -1.4545 -0.2893 -2.2304
  861MOL0     H16229   4.354   6.965   7.045  0.7745 -0.8634  1.6042
  861MOL0     H16230   4.499   7.027   6.971  0.4534  0.1569 -1.4490
  861MOL0     H16231   4.323   6.887   6.617 -0.6639  0.0587  0.5309
  861MOL0     H16232   4.818   6.661   7.310 -0.9969 -0.4572  0.4320
  861MOL0     H16233   5.112   6.818   7.256  0.7813 -0.4764 -0.8538
  861MOL0     H16234   5.003   6.749   7.367 -1.2082  0.9151 -0.8690
  861MOL0     H16235   5.144   6.650   7.313  1.8469  2.4176  0.4394
  862MOL0     O16236   0.833  10.834   6.279 -0.2570 -0.2795  0.0444
  862MOL0     C16237   0.853  10.834   6.160 -0.3149  0.1055 -0.9483
  862MOL0     O16238   0.945  10.913   6.100 -0.4970  0.2782  0.4773
  862MOL0     C16239   1.071  10.932   6.149 -0.3807 -0.4803 -0.2901
  862MOL0     C16240   1.146  10.830   6.210 -0.1375  0.3578 -0.0916
  862MOL0     C16241   1.283  10.842   6.238  0.3940 -0.4697 -0.5658
  862MOL0     C16242   1.346  10.962   6.212 -0.5357 -0.8731 -0.1811
  862MOL0     O16243   1.486  10.976   6.210 -0.0084  0.8110 -1.3424
  862MOL0     C16244   1.558  11.093   6.176 -0.4119  0.0481 -0.8845
  862MOL0     C16245   1.700  11.037   6.174 -0.5024  1.2045 -0.0205
  862MOL0     C16246   1.808  11.125   6.248  0.7051  0.0769 -0.1602
  862MOL0     C16247   1.887  11.220   6.155  0.2390  0.4928 -0.4472
  862MOL0     C16248   1.978  11.307   6.235 -0.5966 -0.6420 -0.6028
  862MOL0     C16249   2.088  11.219   6.290  0.2399  0.1963  1.4994
  862MOL0     C16250   2.187  11.309   6.377 -0.3333 -0.6787  0.1369
  862MOL0     C16251   2.136  11.344   6.523  0.1323  0.0881 -0.8939
  862MOL0     N16252   2.154  11.231   6.620 -0.4773  0.0996  0.3931
  862MOL0     C16253   2.271  11.161   6.647  1.1904  0.7849 -0.7458
  862MOL0     C16254   2.230  11.057   6.719 -0.4125 -0.2568  0.0616
  862MOL0     C16255   2.316  10.947   6.791  0.3779 -0.1563 -0.6675
  862MOL0     C16256   2.463  10.983   6.827 -0.2020 -0.3130 -0.2800
  862MOL0     C16257   2.558  10.988   6.707 -0.6640 -0.3973 -1.2750
  862MOL0     C16258   2.692  11.059   6.750 -0.5433 -0.3191  0.1137
  862MOL0     O16259   2.757  11.004   6.863 -0.5395  0.8259  0.4918
  862MOL0     C16260   2.896  11.009   6.877 -0.3199 -1.0227 -0.4593
  862MOL0     C16261   2.975  11.129   6.862 -0.0999 -0.3186 -0.5055
  862MOL0     C16262   3.118  11.132   6.885 -0.2177  0.1867  0.2891
  862MOL0     C16263   3.186  11.008   6.911  0.1885 -0.3398 -0.7532
  862MOL0     C16264   3.328  10.995   6.935  0.7160 -0.6988  0.3482
  862MOL0     O16265   3.388  10.875   6.950  0.3522 -0.6292  0.1179
  862MOL0     C16266   3.520  10.851   6.959 -0.1297  0.8123 -0.2814
  862MOL0     C16267   3.588  10.769   6.861 -0.3116 -0.5883  0.6280
  862MOL0     C16268   3.717  10.722   6.872  0.1481  0.3160 -0.5944
  862MOL0     C16269   3.796  10.769   6.985 -0.1855 -0.7785 -0.2253
  862MOL0     O16270   3.924  10.715   7.001 -0.3907 -0.0146  0.1873
  862MOL0     C16271   3.972  10.716   7.138 -0.5436  1.2850  0.7925
  862MOL0     C16272   4.077  10.614   7.152 -0.0606  0.0775  0.4381
  862MOL0     C16273   4.137  10.617   7.287 -0.5219 -0.3120 -0.1887
  862MOL0     C16274   4.246  10.509   7.307  0.8327  0.9089 -0.1426
  862MOL0     C16275   4.333  10.551   7.424 -0.8645  0.2142  1.0266
  862MOL0     C16276   4.461  10.466   7.447 -0.0975  0.3796  0.1832
  862MOL0     C16277   4.562  10.543   7.531  0.4366  1.0809  0.0098
  862MOL0     C16278   4.521  10.556   7.682 -0.3468  0.0180 -0.4282
  862MOL0    Cl16279   4.499  10.392   7.770 -0.2149 -0.3698 -0.0203
  862MOL0     C16280   3.740  10.869   7.071 -0.2187 -0.3451  0.2127
  862MOL0     C16281   3.608  10.910   7.058  0.1711  0.0603  0.3831
  862MOL0     O16282   3.388  11.101   6.917 -0.3279  0.0878  0.2485
  862MOL0     C16283   3.109  10.890   6.931 -0.1464  0.0983  0.2871
  862MOL0     C16284   2.970  10.894   6.911  0.3200  0.2112 -0.1240
  862MOL0     N16285   2.093  11.048   6.726  0.1447 -0.4111  0.9313
  862MOL0     N16286   2.056  11.161   6.670  0.2684  0.2321 -0.7425
  862MOL0     C16287   1.273  11.063   6.146 -0.0791  0.1785  1.4112
  862MOL0     C16288   1.138  11.048   6.120 -0.5642  1.2425  0.1803
  862MOL0     C16289   0.766  10.741   6.080  0.5006  0.7657 -0.3701
  862MOL0     C16290   0.686  10.641   6.150  0.2290 -0.6992 -0.4444
  862MOL0     C16291   0.605  10.558   6.073  0.1237 -0.0717 -0.5711
  862MOL0     C16292   0.588  10.563   5.938  0.0755 -0.2045  0.5032
  862MOL0     O16293   0.506  10.469   5.884 -0.1818  0.3102  0.8764
  862MOL0     C16294   0.518  10.447   5.743  0.5654 -0.4372  0.0735
  862MOL0     C16295   0.425  10.330   5.713  0.7675 -0.1835 -0.7470
  862MOL0     C16296   0.279  10.331   5.779 -0.5333  0.3774  0.0325
  862MOL0     C16297   0.194  10.235   5.702  1.1508  0.5832 -0.0345
  862MOL0     C16298   0.053  10.222   5.749  0.3053 -0.4452 -0.1580
  862MOL0     C16299  -0.063  10.215   5.772  1.5194  0.4522  0.3656
  862MOL0     C16300   0.655  10.662   5.869  0.0944  0.4271 -0.5193
  862MOL0     C16301   0.739  10.752   5.939 -1.0507  0.1412 -0.4966
  862MOL0     C16302   0.775  10.882   5.866  0.3947 -0.1871 -0.3297
  862MOL0     H16303   1.096  10.739   6.241  1.6698 -0.3864  0.7981
  862MOL0     H16304   1.332  10.757   6.285  0.2063 -0.5994 -0.6019
  862MOL0     H16305   1.521  11.120   6.077 -1.6393  1.5015 -0.0676
  862MOL0     H16306   1.535  11.170   6.250  1.7147 -0.6803  0.6370
  862MOL0     H16307   1.726  11.021   6.069 -0.0917 -0.4953  0.3073
  862MOL0     H16308   1.708  10.940   6.223 -0.1182  2.0498  1.6392
  862MOL0     H16309   1.869  11.046   6.292  0.2776 -0.0919  0.1327
  862MOL0     H16310   1.759  11.181   6.328  0.4761  1.9712 -1.5553
  862MOL0     H16311   1.939  11.151   6.086 -0.2266 -0.5685  0.2364
  862MOL0     H16312   1.812  11.287   6.113  0.0547  0.0918 -0.7731
  862MOL0     H16313   2.034  11.378   6.173  0.9232 -1.7201 -0.5175
  862MOL0     H16314   1.932  11.367   6.315  0.3087  0.7031 -1.0517
  862MOL0     H16315   2.050  11.142   6.358 -2.0790  0.7237  0.8992
  862MOL0     H16316   2.143  11.170   6.210 -0.9802  1.1632  0.0025
  862MOL0     H16317   2.201  11.400   6.317  1.1048 -1.4492 -0.7700
  862MOL0     H16318   2.288  11.269   6.391 -0.1611  0.0185  0.9583
  862MOL0     H16319   2.208  11.419   6.559  0.5000 -0.5993 -0.1759
  862MOL0     H16320   2.033  11.381   6.530 -0.6235 -2.1965  3.0239
  862MOL0     H16321   2.365  11.193   6.605  2.8788 -0.8789  1.4880
  862MOL0     H16322   2.261  10.923   6.883 -1.3588 -0.8183 -1.8218
  862MOL0     H16323   2.314  10.860   6.725 -1.0423 -0.4974 -0.2085
  862MOL0     H16324   2.458  11.078   6.882 -1.0433 -1.8994  2.6448
  862MOL0     H16325   2.505  10.913   6.900 -0.7336 -0.3847 -0.0377
  862MOL0     H16326   2.512  11.046   6.626  0.6930  1.8178 -0.5604
  862MOL0     H16327   2.573  10.885   6.673 -0.6995 -0.3219 -1.5228
  862MOL0     H16328   2.666  11.160   6.784  3.4851 -0.3622  4.3588
  862MOL0     H16329   2.764  11.068   6.667 -1.8734 -0.4012 -1.0808
  862MOL0     H16330   2.924  11.222   6.837  0.0481 -1.0511 -3.9918
  862MOL0     H16331   3.169  11.227   6.889  1.2381 -0.5550  0.0206
  862MOL0     H16332   3.524  10.744   6.778 -0.0256  0.8754 -0.0686
  862MOL0     H16333   3.752  10.649   6.799 -3.4701 -2.5505  0.2563
  862MOL0     H16334   4.011  10.815   7.164 -0.5022  0.9369  2.1193
  862MOL0     H16335   3.897  10.692   7.214  0.0610  1.0914  1.3346
  862MOL0     H16336   4.045  10.515   7.121  0.5132 -0.9034  2.7637
  862MOL0     H16337   4.154  10.634   7.076  0.2015 -1.7713  0.1819
  862MOL0     H16338   4.190  10.713   7.288  3.2151 -2.1839 -0.3840
  862MOL0     H16339   4.056  10.611   7.361 -1.4006 -3.5264 -1.2368
  862MOL0     H16340   4.307  10.496   7.216 -0.5713 -0.1479 -0.9767
  862MOL0     H16341   4.194  10.413   7.310  2.3650 -0.2360 -4.0961
  862MOL0     H16342   4.271  10.559   7.514 -2.7055 -2.3482  0.1045
  862MOL0     H16343   4.375  10.648   7.397  3.5788 -1.2916  1.6555
  862MOL0     H16344   4.441  10.365   7.482  0.7352 -0.8488 -2.5887
  862MOL0     H16345   4.505  10.457   7.347 -1.5743  0.4936 -0.4984
  862MOL0     H16346   4.572  10.643   7.486 -0.9284 -0.2480 -3.5362
  862MOL0     H16347   4.664  10.505   7.525 -0.8734 -2.5318 -2.0185
  862MOL0     H16348   4.613  10.599   7.720 -0.4608 -1.3950  1.6016
  862MOL0     H16349   4.444  10.631   7.701 -0.7840 -0.9114  1.8408
  862MOL0     H16350   3.798  10.919   7.148  2.0075 -3.2029  0.5650
  862MOL0     H16351   3.554  10.986   7.114 -2.8661 -0.2776 -1.8240
  862MOL0     H16352   3.162  10.796   6.942 -1.0534 -0.4430  0.1237
  862MOL0     H16353   2.934  10.791   6.903  0.7649 -0.0095  0.6434
  862MOL0     H16354   1.325  11.146   6.098  1.3391 -2.3001 -1.7298
  862MOL0     H16355   1.100  11.133   6.065  1.7122  0.9570 -1.9819
  862MOL0     H16356   0.702  10.639   6.257  2.7132  1.7247 -0.6660
  862MOL0     H16357   0.542  10.483   6.122 -2.8719  1.5278 -1.7378
  862MOL0     H16358   0.622  10.434   5.713  1.3368 -0.5411  2.6205
  862MOL0     H16359   0.478  10.532   5.687  2.5776 -1.0330 -2.4730
  862MOL0     H16360   0.485  10.239   5.726  1.1815 -0.2507 -2.7721
  862MOL0     H16361   0.409  10.340   5.605  2.7574  2.6300 -0.9041
  862MOL0     H16362   0.250  10.435   5.760 -0.5982  0.1965 -0.8659
  862MOL0     H16363   0.275  10.306   5.886 -1.8394 -0.9412 -0.2956
  862MOL0     H16364   0.183  10.249   5.595  0.9054  1.6514  0.1166
  862MOL0     H16365   0.229  10.133   5.719 -0.6446  0.4172  3.8265
  862MOL0     H16366  -0.165  10.188   5.788  1.7522  0.5203  2.1838
  862MOL0     H16367   0.632  10.669   5.764 -1.0103 -0.7762 -0.3832
  862MOL0     H16368   0.747  10.865   5.761  0.9252  2.3684 -0.9602
  862MOL0     H16369   0.740  10.984   5.885  2.6693  1.2829 -3.1202
  862MOL0     H16370   0.883  10.871   5.871  0.6392  2.2385  1.9138
  863MOL0     O16371  10.144  10.975   0.166 -0.5273 -0.4998 -0.4162
  863MOL0     C16372  10.271  10.985   0.166  0.0668 -0.2687 -0.3763
  863MOL0     O16373  10.348  11.060   0.254 -0.1269  0.2469 -0.0730
  863MOL0     C16374  10.301  11.076   0.378  0.4652 -0.4925 -0.1147
  863MOL0     C16375  10.192  11.023   0.451  0.6968 -0.4329 -0.1062
  863MOL0     C16376  10.156  11.083   0.580  0.9193  0.4537  0.7816
  863MOL0     C16377  10.236  11.177   0.641 -0.8701  0.5372 -0.2997
  863MOL0     O16378  10.189  11.238   0.754  0.3045  0.6189 -0.4127
  863MOL0     C16379  10.279  11.330   0.810  0.4355 -0.0630  0.2625
  863MOL0     C16380  10.224  11.382   0.946  0.6449  0.0795  0.9654
  863MOL0     C16381  10.207  11.290   1.065  0.2370  0.2651 -0.4006
  863MOL0     C16382  10.244  11.356   1.195 -0.3262 -0.1942 -0.6552
  863MOL0     C16383  10.231  11.250   1.319  0.5364 -0.1667  0.2183
  863MOL0     C16384  10.235  11.318   1.459  0.0560  0.4076 -0.8105
  863MOL0     C16385  10.102  11.298   1.535  0.1824  0.2312  0.8032
  863MOL0     C16386  10.080  11.389   1.648 -0.2466  0.1361  0.4212
  863MOL0     N16387   9.943  11.410   1.679  0.1990 -0.1463  0.3740
  863MOL0     C16388   9.850  11.458   1.587 -0.5591  0.3818 -0.2193
  863MOL0     C16389   9.737  11.483   1.661 -0.3226  0.4817 -0.2821
  863MOL0     C16390   9.607  11.523   1.608  0.1078  0.3044  0.5311
  863MOL0     C16391   9.497  11.417   1.620 -0.2242 -0.7775  0.8032
  863MOL0     C16392   9.496  11.304   1.521 -0.1012  0.1676  0.2826
  863MOL0     C16393   9.508  11.345   1.371 -0.3456  0.2567 -1.1787
  863MOL0     O16394   9.450  11.469   1.350  0.3693 -0.4855 -0.3566
  863MOL0     C16395   9.448  11.530   1.227  0.5953 -0.8802  0.3324
  863MOL0     C16396   9.371  11.644   1.206 -0.2426  0.2810 -0.7194
  863MOL0     C16397   9.386  11.716   1.088 -0.6344 -0.4460  0.5935
  863MOL0     C16398   9.470  11.667   0.985  0.3223 -0.6358  0.1832
  863MOL0     C16399   9.458  11.720   0.848 -0.3332 -0.5698 -0.2334
  863MOL0     O16400   9.546  11.673   0.755  0.8491 -0.2368  0.4748
  863MOL0     C16401   9.558  11.750   0.643  0.3675 -0.4243  0.3590
  863MOL0     C16402   9.645  11.853   0.637 -0.1260  1.0090 -0.1139
  863MOL0     C16403   9.673  11.922   0.518 -0.0603 -0.0932  0.3507
  863MOL0     C16404   9.615  11.877   0.401 -0.2247  0.8124  0.2365
  863MOL0     O16405   9.648  11.947   0.291  0.5910  0.4831  0.1934
  863MOL0     C16406   9.623  11.900   0.153 -0.5367  0.0391  0.0126
  863MOL0     C16407   9.735  11.801   0.114  0.3539  0.0023  0.3435
  863MOL0     C16408   9.866  11.877   0.108 -0.5847 -0.8728  0.0371
  863MOL0     C16409   9.977  11.787   0.052  0.0596  0.0150  0.1880
  863MOL0     C16410  10.121  11.860   0.054  0.3409  0.7812  0.5294
  863MOL0     C16411  10.233  11.748   0.037 -0.3241  0.0406 -0.6462
  863MOL0     C16412  10.360  11.815   0.063  0.3337  0.6760 -0.6949
  863MOL0     C16413  10.398  11.928  -0.039  0.3143 -0.0055 -0.9932
  863MOL0    Cl16414  10.542  12.018   0.026  0.1461 -0.4394 -0.1812
  863MOL0     C16415   9.513  11.780   0.411  0.4780 -0.2337 -0.2745
  863MOL0     C16416   9.483  11.718   0.527  0.8666 -0.9969 -0.2618
  863MOL0     O16417   9.371  11.811   0.825 -0.4512 -0.1271 -0.6574
  863MOL0     C16418   9.541  11.546   1.001  0.0563  0.5106 -1.4582
  863MOL0     C16419   9.532  11.484   1.131 -0.0313  0.0977 -0.2831
  863MOL0     N16420   9.772  11.460   1.798  0.2240 -0.3967  0.4018
  863MOL0     N16421   9.887  11.406   1.799  0.6127  0.0402 -0.3676
  863MOL0     C16422  10.355  11.212   0.569 -0.5041 -0.8520 -0.0865
  863MOL0     C16423  10.382  11.167   0.443 -0.4097 -0.4047  0.5630
  863MOL0     C16424  10.338  10.915   0.056  0.0454 -0.0154 -0.4533
  863MOL0     C16425  10.477  10.935   0.029  0.6588  0.6262  0.5938
  863MOL0     C16426  10.541  10.863  -0.071 -0.4300 -0.3144 -0.1344
  863MOL0     C16427  10.472  10.769  -0.146  0.5679 -0.0019 -1.1831
  863MOL0     O16428  10.532  10.699  -0.249 -0.2852 -0.2383 -0.5435
  863MOL0     C16429  10.657  10.625  -0.229  0.7256 -0.0490  0.1077
  863MOL0     C16430  10.646  10.488  -0.156  0.6088  0.1052 -0.0241
  863MOL0     C16431  10.778  10.414  -0.175 -0.1335  0.5065  1.0790
  863MOL0     C16432  10.799  10.296  -0.087  0.3630 -0.4283 -1.0602
  863MOL0     C16433  10.801  10.340   0.054  0.6940  0.0554  0.9399
  863MOL0     C16434  10.783  10.375   0.172  0.1114  0.6258 -0.5770
  863MOL0     C16435  10.341  10.743  -0.121 -0.3386  0.1868 -0.5469
  863MOL0     C16436  10.264  10.815  -0.018  0.3043  0.7990  0.1285
  863MOL0     C16437  10.120  10.761  -0.002  0.6557  0.0860 -0.2202
  863MOL0     H16438  10.127  10.946   0.410 -2.0108  2.2681 -1.2648
  863MOL0     H16439  10.078  11.041   0.644  0.9606  2.7605  2.4495
  863MOL0     H16440  10.376  11.283   0.826  0.4820  0.0739  0.3875
  863MOL0     H16441  10.291  11.414   0.741  0.3938 -1.5413 -1.6546
  863MOL0     H16442  10.126  11.423   0.923  0.5963 -0.8009 -0.4860
  863MOL0     H16443  10.289  11.468   0.963 -2.1724  2.9094 -1.4474
  863MOL0     H16444  10.272  11.206   1.040 -0.7361 -0.3114 -1.0452
  863MOL0     H16445  10.108  11.243   1.065  0.8970 -1.2882 -2.6823
  863MOL0     H16446  10.349  11.390   1.197 -1.5244  4.1806  1.3231
  863MOL0     H16447  10.178  11.443   1.200  1.3896  1.1337  0.0827
  863MOL0     H16448  10.141  11.189   1.320  0.7231 -0.4494  0.6126
  863MOL0     H16449  10.324  11.191   1.317  0.0286 -0.9637 -0.0949
  863MOL0     H16450  10.301  11.274   1.535 -0.4704  2.0331  0.6485
  863MOL0     H16451  10.273  11.418   1.440  2.8179 -0.9387 -3.2038
  863MOL0     H16452  10.077  11.195   1.560  0.1823 -0.5487 -2.1343
  863MOL0     H16453  10.021  11.317   1.464  0.9639  1.6568  0.2486
  863MOL0     H16454  10.124  11.342   1.736 -2.8568 -1.2344  1.1239
  863MOL0     H16455  10.135  11.479   1.623  0.1829 -0.2108  0.1010
  863MOL0     H16456   9.856  11.472   1.480 -1.6362 -0.4629 -0.4110
  863MOL0     H16457   9.575  11.613   1.661 -0.8219 -0.1815  0.8151
  863MOL0     H16458   9.617  11.554   1.504  0.8963 -1.8191 -0.0957
  863MOL0     H16459   9.511  11.370   1.718  4.0391 -4.7736 -1.3129
  863MOL0     H16460   9.400  11.464   1.608 -0.4725 -1.7306 -1.3068
  863MOL0     H16461   9.400  11.253   1.522 -0.3173  0.5686  0.1284
  863MOL0     H16462   9.577  11.239   1.555 -0.3990  2.4255  6.7207
  863MOL0     H16463   9.467  11.272   1.301  0.5920 -0.7067 -0.7632
  863MOL0     H16464   9.612  11.350   1.336 -0.0224 -1.1928 -0.5222
  863MOL0     H16465   9.301  11.673   1.284 -0.1127  0.4928 -0.6836
  863MOL0     H16466   9.322  11.802   1.072 -0.3096 -0.1822  0.6955
  863MOL0     H16467   9.684  11.881   0.734 -0.0373  1.0906 -0.1735
  863MOL0     H16468   9.740  12.008   0.522  0.1788 -0.2989  0.8602
  863MOL0     H16469   9.528  11.846   0.158 -1.2559  1.3177  1.0227
  863MOL0     H16470   9.628  11.986   0.086  3.7241 -0.7304 -0.9221
  863MOL0     H16471   9.727  11.721   0.188 -3.4990 -2.4601 -2.3185
  863MOL0     H16472   9.707  11.753   0.020 -0.3439 -2.5851  1.7659
  863MOL0     H16473   9.864  11.969   0.048  4.5979 -0.1475  0.4654
  863MOL0     H16474   9.896  11.905   0.209  0.0160  1.6517 -0.7551
  863MOL0     H16475   9.948  11.766  -0.052  1.3820  2.9978 -0.8891
  863MOL0     H16476   9.964  11.692   0.104 -1.7844  0.4526  0.5780
  863MOL0     H16477  10.123  11.913   0.149 -0.8769  0.2025  0.9091
  863MOL0     H16478  10.122  11.932  -0.028 -0.8193 -1.5433 -1.6700
  863MOL0     H16479  10.222  11.674   0.117  0.0631 -0.9115 -1.4731
  863MOL0     H16480  10.219  11.696  -0.058 -1.9855 -1.3016  0.2781
  863MOL0     H16481  10.439  11.740   0.071 -0.8385 -0.7028 -1.6059
  863MOL0     H16482  10.347  11.867   0.158  3.1927  0.2264  0.0294
  863MOL0     H16483  10.416  11.874  -0.133 -0.6811 -0.6244 -0.8490
  863MOL0     H16484  10.327  12.010  -0.046  0.2318  0.0762  0.4983
  863MOL0     H16485   9.462  11.747   0.321 -3.1657 -2.0770  2.2175
  863MOL0     H16486   9.417  11.632   0.523 -1.4428  0.7201 -2.7735
  863MOL0     H16487   9.604  11.521   0.917  0.9709  0.3397 -0.7406
  863MOL0     H16488   9.608  11.409   1.151  2.3916  1.8060 -2.2713
  863MOL0     H16489  10.426  11.282   0.612  0.2620 -2.8686  2.1504
  863MOL0     H16490  10.470  11.201   0.389  1.5273 -3.4378  1.5080
  863MOL0     H16491  10.537  11.006   0.084 -0.4894  2.3167 -0.2339
  863MOL0     H16492  10.645  10.886  -0.094 -0.8872  1.5107 -0.5124
  863MOL0     H16493  10.736  10.677  -0.175 -0.6666  0.8965  1.3167
  863MOL0     H16494  10.698  10.605  -0.328 -2.1601 -1.3094 -0.9524
  863MOL0     H16495  10.558  10.434  -0.193  0.5008  0.6015 -0.5126
  863MOL0     H16496  10.624  10.511  -0.051  1.4759  3.5248 -0.4521
  863MOL0     H16497  10.859  10.486  -0.162  0.0455  0.6684 -0.7704
  863MOL0     H16498  10.779  10.368  -0.274  2.0572 -1.4124  1.8989
  863MOL0     H16499  10.714  10.228  -0.102  0.3996 -1.5251  2.7610
  863MOL0     H16500  10.895  10.244  -0.098  1.3226  1.4105 -1.8982
  863MOL0     H16501  10.744  10.396   0.269  0.5305  0.1175 -0.2910
  863MOL0     H16502  10.293  10.668  -0.182 -1.9530  1.0348 -0.3753
  863MOL0     H16503  10.098  10.680  -0.073 -0.4297 -0.9541  1.2275
  863MOL0     H16504  10.109  10.725   0.101  3.9088  1.6043  0.7623
  863MOL0     H16505  10.057  10.848  -0.020 -0.6676 -0.5664  0.9665
  864MOL0     O16506   9.964   6.049  10.108  0.7891 -0.0404 -0.1405
  864MOL0     C16507  10.036   6.148  10.103  0.1293 -0.6602  0.0247
  864MOL0     O16508  10.170   6.151  10.130  0.1167 -0.1162 -0.3523
  864MOL0     C16509  10.221   6.063  10.227 -0.2172  0.5488 -0.1389
  864MOL0     C16510  10.356   6.019  10.215  0.8127  0.0074  0.3603
  864MOL0     C16511  10.410   5.935  10.311  0.3113  0.4734  0.3914
  864MOL0     C16512  10.336   5.892  10.423 -0.1289 -0.3197 -0.0071
  864MOL0     O16513  10.397   5.795  10.503 -0.3817  0.5455 -0.3842
  864MOL0     C16514  10.335   5.730  10.617  0.5888 -0.7254 -0.0413
  864MOL0     C16515  10.412   5.606  10.658 -0.4325  0.1716 -0.0830
  864MOL0     C16516  10.522   5.646  10.752  1.0803 -0.7123 -0.7671
  864MOL0     C16517  10.596   5.534  10.813 -0.5353  0.3635 -0.0301
  864MOL0     C16518  10.695   5.589  10.929 -0.3395 -0.2086  0.5659
  864MOL0     C16519  10.771   5.471  10.989 -0.3448  0.1798 -0.5263
  864MOL0     C16520  10.872   5.518  11.087 -0.3697  1.5760 -0.4923
  864MOL0     C16521  10.976   5.402  11.118  0.8869 -0.7258 -0.1313
  864MOL0     N16522  11.089   5.451  11.192 -0.2677  0.4131  0.2989
  864MOL0     C16523  11.208   5.488  11.132  1.7612  0.0529  0.0981
  864MOL0     C16524  11.277   5.545  11.235 -0.6458  0.4126  0.4680
  864MOL0     C16525  11.410   5.615  11.231  0.0742 -0.5880 -0.2322
  864MOL0     C16526  11.369   5.763  11.220 -0.0910 -0.3468  0.1945
  864MOL0     C16527  11.492   5.855  11.210 -0.0849 -0.2613 -0.1220
  864MOL0     C16528  11.442   5.992  11.169  1.1997  0.2322 -0.0731
  864MOL0     O16529  11.368   6.047  11.281  0.3341  0.5579 -0.1644
  864MOL0     C16530  11.409   6.166  11.326 -0.3114  0.1383 -0.6628
  864MOL0     C16531  11.378   6.275  11.245 -0.1466  1.0523  0.0934
  864MOL0     C16532  11.430   6.396  11.282  0.4757 -0.1869 -1.1464
  864MOL0     C16533  11.506   6.417  11.395 -0.2221 -1.0301 -0.7092
  864MOL0     C16534  11.564   6.550  11.435  0.2856 -0.3511 -0.4386
  864MOL0     O16535  11.537   6.659  11.349  0.0365  0.3068 -0.1953
  864MOL0     C16536  11.600   6.776  11.362 -0.3376 -0.4367 -0.8488
  864MOL0     C16537  11.692   6.809  11.256  0.4530  0.3652 -0.1329
  864MOL0     C16538  11.767   6.931  11.261 -0.9265 -0.0420  0.0223
  864MOL0     C16539  11.757   7.014  11.371  0.0143  0.8579  0.1939
  864MOL0     O16540  11.843   7.118  11.371  0.1799 -0.1459 -0.1814
  864MOL0     C16541  11.915   7.146  11.494 -0.3206 -0.5056  0.6240
  864MOL0     C16542  12.056   7.162  11.464 -0.0767 -0.5625  0.4502
  864MOL0     C16543  12.111   7.021  11.441 -1.3784  0.1748 -0.2685
  864MOL0     C16544  12.256   7.028  11.396  0.1455 -0.9570  0.1115
  864MOL0     C16545  12.300   6.890  11.360  0.5803 -0.5638  0.0792
  864MOL0     C16546  12.446   6.882  11.328  0.2929  0.5813  0.5271
  864MOL0     C16547  12.499   6.975  11.212 -0.3315 -0.2706 -0.1357
  864MOL0     C16548  12.645   6.957  11.184  0.7782  0.7112 -0.3749
  864MOL0    Cl16549  12.738   6.978  11.327 -0.1319  0.1576 -0.0131
  864MOL0     C16550  11.674   6.977  11.480 -0.6247 -0.1685 -0.4547
  864MOL0     C16551  11.600   6.857  11.473  0.1334 -0.2057  0.4145
  864MOL0     O16552  11.637   6.561  11.530  0.1272 -0.5884 -0.5113
  864MOL0     C16553  11.528   6.308  11.488 -0.5042  0.4809 -0.1839
  864MOL0     C16554  11.478   6.186  11.447 -0.2214 -0.5905  0.3100
  864MOL0     N16555  11.204   5.540  11.355 -0.2567 -0.9924 -1.1146
  864MOL0     N16556  11.094   5.480  11.319 -0.4402 -0.5775 -0.2783
  864MOL0     C16557  10.205   5.943  10.438 -0.1952  0.3961 -0.6464
  864MOL0     C16558  10.151   6.030  10.347 -0.3487  0.3738  0.0608
  864MOL0     C16559   9.989   6.265  10.032  0.4014 -0.2465 -0.4404
  864MOL0     C16560  10.070   6.326   9.940 -0.1983 -1.0575  0.3673
  864MOL0     C16561  10.031   6.443   9.879  0.6055 -0.2482 -0.4560
  864MOL0     C16562   9.906   6.503   9.911 -0.6640 -0.4781  0.3147
  864MOL0     O16563   9.873   6.638   9.871 -0.0444  0.1903 -0.4529
  864MOL0     C16564   9.917   6.690   9.744  0.9021  0.2240 -0.5088
  864MOL0     C16565   9.855   6.613   9.628  0.1345  0.0629  0.9178
  864MOL0     C16566   9.712   6.671   9.595 -1.3336  0.0046 -0.9037
  864MOL0     C16567   9.638   6.602   9.480 -0.3044  0.0519 -0.0620
  864MOL0     C16568   9.607   6.454   9.505  0.3889 -0.4523  0.7363
  864MOL0     C16569   9.570   6.337   9.519  0.2922 -0.3051  0.0236
  864MOL0     C16570   9.811   6.436   9.991 -0.1923 -0.2507 -0.1384
  864MOL0     C16571   9.857   6.316  10.056  1.3086  0.7080  0.1937
  864MOL0     C16572   9.770   6.257  10.160  0.2334  0.5054  0.5899
  864MOL0     H16573  10.415   6.040  10.127 -0.1325  0.2408 -0.2341
  864MOL0     H16574  10.511   5.911  10.279 -0.0895 -0.6176 -0.1036
  864MOL0     H16575  10.332   5.802  10.699  0.7118  1.2017 -1.6544
  864MOL0     H16576  10.230   5.716  10.593  0.4801  1.6890 -1.3397
  864MOL0     H16577  10.440   5.544  10.572 -0.0741 -0.2808  0.3520
  864MOL0     H16578  10.340   5.536  10.701 -1.7133  0.7501 -1.2207
  864MOL0     H16579  10.485   5.701  10.839  1.1236  0.9991 -1.7823
  864MOL0     H16580  10.580   5.728  10.709 -1.6253  2.2505  0.8216
  864MOL0     H16581  10.530   5.462  10.863 -1.8227  0.6296 -1.2923
  864MOL0     H16582  10.652   5.472  10.743  1.6691  0.1038  1.8677
  864MOL0     H16583  10.761   5.662  10.882 -0.6735 -0.8798 -0.9967
  864MOL0     H16584  10.637   5.641  11.006 -0.5872 -1.2358  1.0939
  864MOL0     H16585  10.697   5.405  11.034 -0.1799  1.8958  2.5344
  864MOL0     H16586  10.815   5.410  10.909 -1.5883  0.8902 -1.7930
  864MOL0     H16587  10.834   5.538  11.188 -1.3833 -4.3027  0.6416
  864MOL0     H16588  10.925   5.611  11.062  0.3030  1.4338  0.3438
  864MOL0     H16589  10.914   5.342  11.185 -0.2887  0.7930  0.1990
  864MOL0     H16590  11.001   5.337  11.033 -2.5698 -3.4639  0.6787
  864MOL0     H16591  11.248   5.496  11.031 -0.0799  0.3292 -0.6465
  864MOL0     H16592  11.471   5.595  11.319 -0.1967  2.4451  0.7556
  864MOL0     H16593  11.458   5.579  11.139  2.1813 -0.2408  0.6797
  864MOL0     H16594  11.293   5.776  11.142  1.6855 -2.8269 -2.1301
  864MOL0     H16595  11.313   5.786  11.311  0.8332 -1.6119  1.1178
  864MOL0     H16596  11.568   5.827  11.136  2.0719  2.9419  0.6535
  864MOL0     H16597  11.537   5.865  11.309 -0.4077  1.6484 -0.1298
  864MOL0     H16598  11.383   5.992  11.077 -0.2926  2.0624  0.8126
  864MOL0     H16599  11.521   6.065  11.147 -0.5475  2.3914  0.5300
  864MOL0     H16600  11.329   6.259  11.149  1.8402  1.6780 -1.0933
  864MOL0     H16601  11.392   6.484  11.231 -0.3608  1.3263  1.8449
  864MOL0     H16602  11.696   6.751  11.164 -0.3754  0.1538 -0.0430
  864MOL0     H16603  11.830   6.944  11.174  0.5857 -0.7852  0.9688
  864MOL0     H16604  11.877   7.236  11.545 -2.7554 -2.9300  3.4905
  864MOL0     H16605  11.911   7.068  11.570 -1.7801  2.0002  3.3580
  864MOL0     H16606  12.076   7.211  11.368  1.1313 -1.9577 -0.0512
  864MOL0     H16607  12.109   7.216  11.544 -0.3643  1.9258 -0.9451
  864MOL0     H16608  12.124   6.975  11.539 -2.6357  3.0797  1.4085
  864MOL0     H16609  12.036   6.963  11.387 -1.2695  1.6571 -2.1255
  864MOL0     H16610  12.317   7.065  11.479  0.6827 -2.2746  0.3374
  864MOL0     H16611  12.261   7.096  11.311 -1.6641 -0.5684  0.2775
  864MOL0     H16612  12.244   6.848  11.276 -0.2160 -0.5679  0.5961
  864MOL0     H16613  12.273   6.827  11.445 -3.9502 -0.0700 -0.7379
  864MOL0     H16614  12.510   6.896  11.415  1.4876 -2.6353  0.2932
  864MOL0     H16615  12.468   6.780  11.294 -0.3858  0.5624  0.1115
  864MOL0     H16616  12.490   7.081  11.238 -0.0503 -0.4189  0.6039
  864MOL0     H16617  12.444   6.953  11.120 -0.9527  0.6713 -0.0047
  864MOL0     H16618  12.666   6.858  11.144  0.6086  1.5941 -2.8518
  864MOL0     H16619  12.680   7.026  11.106  1.9711  2.3660  1.5080
  864MOL0     H16620  11.669   7.037  11.570  0.4523 -1.1390  0.2842
  864MOL0     H16621  11.531   6.835  11.554 -1.3570  0.2204 -0.6835
  864MOL0     H16622  11.582   6.318  11.582  1.0558 -0.4964 -0.9356
  864MOL0     H16623  11.488   6.103  11.516  2.1680  0.5319  1.4283
  864MOL0     H16624  10.145   5.910  10.523 -3.2541  3.4372 -1.3715
  864MOL0     H16625  10.051   6.065  10.369 -0.1083  1.7677 -0.8959
  864MOL0     H16626  10.169   6.287   9.916 -0.0166  1.0156 -2.9324
  864MOL0     H16627  10.092   6.490   9.803 -0.5487 -0.8174 -1.7752
  864MOL0     H16628  10.026   6.683   9.753  0.7099 -1.6773  1.0882
  864MOL0     H16629   9.891   6.796   9.745  1.9175  0.4800 -0.5540
  864MOL0     H16630   9.849   6.503   9.632 -3.6999  0.1452  1.6928
  864MOL0     H16631   9.917   6.622   9.539 -1.2607 -0.4239 -0.1441
  864MOL0     H16632   9.734   6.775   9.569 -0.7824  0.3416  0.7918
  864MOL0     H16633   9.646   6.651   9.680  0.1543 -2.3391 -0.2039
  864MOL0     H16634   9.534   6.631   9.463 -0.0885  1.3989  0.7542
  864MOL0     H16635   9.689   6.618   9.385  2.1603  1.0210  1.3337
  864MOL0     H16636   9.541   6.235   9.535  2.1826 -0.8878 -0.0630
  864MOL0     H16637   9.717   6.489   9.996  0.4003  1.0331 -1.8135
  864MOL0     H16638   9.730   6.159  10.135  0.0284  0.7647 -0.1196
  864MOL0     H16639   9.822   6.242  10.255 -0.8819  2.5216  1.6061
  864MOL0     H16640   9.684   6.326  10.163  0.1922  0.7639 -3.0083
  865MOL0     O16641  10.842   6.910   7.660  1.0830 -0.5721 -1.5045
  865MOL0     C16642  10.792   6.997   7.593  0.3144 -0.3858 -0.8932
  865MOL0     O16643  10.804   7.021   7.462  0.2194  0.5285  0.8291
  865MOL0     C16644  10.902   6.955   7.391 -0.8185 -1.0860  0.1933
  865MOL0     C16645  11.011   7.033   7.341 -0.2088 -0.4478  0.2128
  865MOL0     C16646  11.108   6.963   7.261 -0.9724  0.3664 -0.3598
  865MOL0     C16647  11.103   6.826   7.234  0.5027 -0.4608 -0.7346
  865MOL0     O16648  11.210   6.780   7.164 -0.1569  0.2360  0.4015
  865MOL0     C16649  11.196   6.650   7.091  0.6648  0.9228  0.2179
  865MOL0     C16650  11.311   6.631   6.988  1.1728 -0.0728 -0.2151
  865MOL0     C16651  11.441   6.604   7.050  0.0862 -0.0532  0.1848
  865MOL0     C16652  11.562   6.575   6.952  0.1433 -0.1013  0.6000
  865MOL0     C16653  11.541   6.451   6.852 -0.7265  0.2266 -0.5594
  865MOL0     C16654  11.653   6.451   6.753 -0.2973 -0.2555  0.5857
  865MOL0     C16655  11.668   6.317   6.696  0.2583  0.7957 -0.2373
  865MOL0     C16656  11.809   6.268   6.706 -0.0433  1.4201 -0.7715
  865MOL0     N16657  11.863   6.252   6.846  0.0683  0.1184 -0.0711
  865MOL0     C16658  11.957   6.333   6.909 -0.0022  0.4843  0.0990
  865MOL0     C16659  11.965   6.295   7.038  0.1109  0.9910  0.2647
  865MOL0     C16660  12.075   6.327   7.138  0.0612 -0.0418 -1.5277
  865MOL0     C16661  12.039   6.397   7.272  0.3969 -0.2451  0.4124
  865MOL0     C16662  11.998   6.545   7.253 -0.5552 -0.1893  0.4039
  865MOL0     C16663  12.103   6.644   7.285 -0.8339 -0.6902 -0.5241
  865MOL0     O16664  12.043   6.771   7.309 -0.0933  0.2816 -0.2189
  865MOL0     C16665  11.979   6.846   7.216  0.0954  0.4196  0.4100
  865MOL0     C16666  11.922   6.964   7.263  0.5370  0.2169 -0.0602
  865MOL0     C16667  11.837   7.044   7.184  0.0749 -0.2647 -0.5918
  865MOL0     C16668  11.816   7.003   7.049 -0.7455  0.1662 -0.3718
  865MOL0     C16669  11.706   7.069   6.960 -0.1924 -0.5583  0.1000
  865MOL0     O16670  11.707   7.013   6.834 -0.2426 -0.0318 -0.8168
  865MOL0     C16671  11.617   7.063   6.747  0.0542  0.3541 -0.4460
  865MOL0     C16672  11.500   6.986   6.731  0.5018 -0.6255  0.5465
  865MOL0     C16673  11.397   7.043   6.654 -0.2711  0.2699  0.9752
  865MOL0     C16674  11.416   7.159   6.579 -0.1947 -0.0623  0.3507
  865MOL0     O16675  11.323   7.214   6.492 -0.1511 -0.8789 -0.3176
  865MOL0     C16676  11.212   7.135   6.450  0.1026 -0.3910 -0.4502
  865MOL0     C16677  11.141   7.234   6.355  0.8774 -0.1012 -0.0721
  865MOL0     C16678  11.010   7.175   6.317  0.9142 -0.8061  0.9914
  865MOL0     C16679  10.972   7.246   6.184  0.2405  0.1853  0.2926
  865MOL0     C16680  10.836   7.200   6.118  0.0211  0.7212  0.1444
  865MOL0     C16681  10.805   7.283   5.998 -0.1317 -0.6235 -0.1571
  865MOL0     C16682  10.649   7.267   5.963 -0.8429 -0.1688  1.3148
  865MOL0     C16683  10.619   7.144   5.879 -0.4455  0.6073 -0.2211
  865MOL0    Cl16684  10.454   7.166   5.826 -0.0853 -0.4293 -0.2614
  865MOL0     C16685  11.526   7.232   6.603 -0.1075  0.4539 -0.9615
  865MOL0     C16686  11.625   7.187   6.693  0.5388 -0.3703  0.0219
  865MOL0     O16687  11.631   7.167   7.002 -0.4078  0.2624  0.1283
  865MOL0     C16688  11.880   6.894   7.004 -0.1958  0.9151  0.2979
  865MOL0     C16689  11.968   6.811   7.077 -0.3597 -0.0769 -0.5250
  865MOL0     N16690  11.865   6.199   7.055 -0.1924  0.0143  0.3016
  865MOL0     N16691  11.799   6.175   6.945 -0.3439 -0.1913  0.7131
  865MOL0     C16692  10.987   6.754   7.286 -0.8047  1.1134  0.2940
  865MOL0     C16693  10.891   6.820   7.360 -0.3164 -0.2414  0.0666
  865MOL0     C16694  10.710   7.105   7.651  0.1922  0.9528  0.4064
  865MOL0     C16695  10.578   7.101   7.618 -0.6335 -0.0663  0.7538
  865MOL0     C16696  10.489   7.192   7.664 -0.3708 -1.2360 -0.2123
  865MOL0     C16697  10.531   7.295   7.749  0.5474  0.3389  0.1102
  865MOL0     O16698  10.436   7.378   7.806  0.5295 -1.1167 -0.0010
  865MOL0     C16699  10.387   7.352   7.941 -0.0581  0.6286 -0.4927
  865MOL0     C16700  10.479   7.411   8.055 -0.2850  0.0110 -0.5590
  865MOL0     C16701  10.417   7.415   8.189  0.1823 -0.9885 -0.9263
  865MOL0     C16702  10.489   7.506   8.290 -0.3535 -1.0764  0.0039
  865MOL0     C16703  10.620   7.453   8.315  0.3886  0.0390 -0.8966
  865MOL0     C16704  10.723   7.408   8.339 -1.0460 -0.8699 -0.6467
  865MOL0     C16705  10.658   7.300   7.788  0.1278  0.3383 -0.9431
  865MOL0     C16706  10.751   7.201   7.743 -0.1181 -0.3702  0.3694
  865MOL0     C16707  10.887   7.207   7.789  0.1654  0.3044  0.3675
  865MOL0     H16708  11.021   7.141   7.354  0.5919 -0.6654  1.6066
  865MOL0     H16709  11.197   7.016   7.229 -1.1964  1.6701  1.0602
  865MOL0     H16710  11.192   6.566   7.161 -2.1809  0.5552 -0.2604
  865MOL0     H16711  11.109   6.637   7.025  0.7078  1.3960  0.0634
  865MOL0     H16712  11.324   6.719   6.923  1.0069 -0.0439 -0.2081
  865MOL0     H16713  11.270   6.557   6.919 -0.5119  2.1089 -1.7442
  865MOL0     H16714  11.424   6.508   7.101 -0.1573 -1.6958 -2.7427
  865MOL0     H16715  11.462   6.683   7.122 -2.3330  0.6925  0.1844
  865MOL0     H16716  11.583   6.662   6.889  0.8888 -0.9303 -0.3367
  865MOL0     H16717  11.649   6.572   7.017 -1.9386  2.6453  3.8480
  865MOL0     H16718  11.544   6.363   6.918  0.5650  1.3041  0.8941
  865MOL0     H16719  11.448   6.453   6.794  0.6452 -1.9493 -3.0619
  865MOL0     H16720  11.629   6.505   6.661  2.1919 -0.1748 -0.0732
  865MOL0     H16721  11.749   6.475   6.799  0.5611 -0.5715 -0.9839
  865MOL0     H16722  11.651   6.312   6.588  1.4646 -0.4419 -0.3927
  865MOL0     H16723  11.600   6.250   6.750 -1.1401  0.4566 -2.3174
  865MOL0     H16724  11.814   6.173   6.653 -1.3781  0.8519  0.0735
  865MOL0     H16725  11.886   6.330   6.658  1.9276 -1.9472 -2.3877
  865MOL0     H16726  12.014   6.414   6.864 -0.1014 -0.0394 -1.0033
  865MOL0     H16727  12.104   6.226   7.168  2.5493  1.1610  0.4851
  865MOL0     H16728  12.160   6.369   7.085 -0.3780 -0.8836 -2.9504
  865MOL0     H16729  11.966   6.336   7.326  0.6319  0.1503  1.1886
  865MOL0     H16730  12.130   6.397   7.333  0.5679 -3.2205  0.3359
  865MOL0     H16731  11.922   6.553   7.332  0.1451 -1.9686  1.3196
  865MOL0     H16732  11.949   6.567   7.158  2.2552  2.0913 -0.6400
  865MOL0     H16733  12.183   6.650   7.210  3.0175  0.3034  3.2415
  865MOL0     H16734  12.153   6.627   7.381 -0.5941  2.3078 -0.0081
  865MOL0     H16735  11.926   6.979   7.371  1.7092 -1.1172  0.1057
  865MOL0     H16736  11.771   7.123   7.222  1.1229 -1.2351  3.8645
  865MOL0     H16737  11.475   6.901   6.794  0.8915 -1.4342 -0.3699
  865MOL0     H16738  11.302   6.990   6.645 -1.4142  2.5322 -2.6201
  865MOL0     H16739  11.254   7.044   6.407  0.5749 -0.1188 -0.5710
  865MOL0     H16740  11.155   7.100   6.537 -3.2627 -0.6054 -2.5763
  865MOL0     H16741  11.135   7.329   6.410  0.4337 -1.7346  2.9258
  865MOL0     H16742  11.201   7.265   6.269  1.7946  2.7864  1.4389
  865MOL0     H16743  11.015   7.066   6.322  1.8824 -0.8090  0.1749
  865MOL0     H16744  10.936   7.202   6.394  1.4039  1.7299  0.6719
  865MOL0     H16745  11.052   7.231   6.112 -1.0746 -1.3193 -0.9362
  865MOL0     H16746  10.965   7.351   6.213  3.0958  0.1591  1.4724
  865MOL0     H16747  10.766   7.217   6.200 -1.0744 -0.0467 -0.6004
  865MOL0     H16748  10.824   7.093   6.099 -0.0446  0.6991  0.3079
  865MOL0     H16749  10.826   7.389   6.011  4.1201 -1.3364  0.2195
  865MOL0     H16750  10.865   7.270   5.907 -0.3550  0.9938 -0.5757
  865MOL0     H16751  10.617   7.352   5.903  3.3088  0.8373  0.2209
  865MOL0     H16752  10.595   7.256   6.058 -0.7382  1.2719  1.5565
  865MOL0     H16753  10.687   7.134   5.794 -3.2591  4.6186 -3.3477
  865MOL0     H16754  10.621   7.052   5.938 -0.8274  0.6505 -0.1405
  865MOL0     H16755  11.549   7.330   6.563  0.5335  1.1368  0.9790
  865MOL0     H16756  11.711   7.252   6.701 -0.3354  0.8453 -0.0824
  865MOL0     H16757  11.869   6.855   6.903  1.0074  1.5813 -0.1029
  865MOL0     H16758  12.021   6.724   7.041 -0.2224  0.2198 -1.0448
  865MOL0     H16759  10.975   6.647   7.268  1.2740  1.3219 -3.4421
  865MOL0     H16760  10.812   6.780   7.423 -0.9644  1.1590  0.1703
  865MOL0     H16761  10.541   7.021   7.554  1.9558 -0.7874  0.0511
  865MOL0     H16762  10.386   7.194   7.629 -0.4013  0.6618 -0.1120
  865MOL0     H16763  10.381   7.244   7.960  1.1204  0.9385  2.0786
  865MOL0     H16764  10.291   7.403   7.946 -1.2064 -1.5357  2.1052
  865MOL0     H16765  10.513   7.511   8.027  0.7083 -0.6996 -2.0909
  865MOL0     H16766  10.576   7.361   8.064 -0.7742 -0.6968  1.1287
  865MOL0     H16767  10.410   7.314   8.231  4.4006 -0.4534  1.5556
  865MOL0     H16768  10.319   7.463   8.184  0.9061  0.4372 -2.2742
  865MOL0     H16769  10.491   7.604   8.241  0.8210 -1.9470 -1.8559
  865MOL0     H16770  10.426   7.496   8.378  0.3427  1.1972  0.8177
  865MOL0     H16771  10.801   7.351   8.384  0.5209  2.1815  0.8235
  865MOL0     H16772  10.687   7.379   7.856 -2.9492 -0.2180  1.1821
  865MOL0     H16773  10.918   7.285   7.859  1.2040 -0.7556  1.1362
  865MOL0     H16774  10.904   7.108   7.832 -3.6267 -1.4543 -1.6492
  865MOL0     H16775  10.950   7.212   7.699  0.0988  1.0301  0.3590
  866MOL0     O16776   2.095   2.567   0.938  0.0838  0.0745  0.2815
  866MOL0     C16777   2.218   2.546   0.917  0.3706  0.8767  0.0370
  866MOL0     O16778   2.294   2.448   0.980 -0.5315 -0.5778 -0.4109
  866MOL0     C16779   2.233   2.379   1.085 -0.6172 -0.2571  0.8706
  866MOL0     C16780   2.254   2.420   1.217 -0.8341 -0.5008 -0.8153
  866MOL0     C16781   2.190   2.354   1.316  0.3771  0.6881 -0.8262
  866MOL0     C16782   2.094   2.252   1.294 -0.0310  0.6825  0.5911
  866MOL0     O16783   2.035   2.183   1.387  0.3696 -0.2155 -0.0388
  866MOL0     C16784   1.982   2.254   1.502 -0.6079 -0.2669  0.1544
  866MOL0     C16785   2.006   2.153   1.622  0.6174 -0.1319  0.2038
  866MOL0     C16786   1.912   2.032   1.606 -0.7714  0.4327  0.5010
  866MOL0     C16787   1.770   2.064   1.626 -0.1887  0.8075  0.5100
  866MOL0     C16788   1.682   1.944   1.600  0.5875 -0.2457 -0.4004
  866MOL0     C16789   1.538   1.982   1.629 -0.7603 -0.4639  0.2086
  866MOL0     C16790   1.429   1.885   1.565  0.2721  0.2257 -1.3459
  866MOL0     C16791   1.284   1.909   1.598  0.6053 -0.6724 -0.0474
  866MOL0     N16792   1.222   2.001   1.496  0.3068 -0.2848 -0.1504
  866MOL0     C16793   1.178   1.962   1.372  0.2989 -0.2396 -0.8163
  866MOL0     C16794   1.158   2.073   1.298 -0.7191 -0.2665 -0.4615
  866MOL0     C16795   1.096   2.101   1.160  1.3641  0.2823 -0.4610
  866MOL0     C16796   0.940   2.110   1.170  0.1243  0.3414  0.2478
  866MOL0     C16797   0.873   2.131   1.034 -0.1648 -0.0383  0.1362
  866MOL0     C16798   0.733   2.174   1.064 -0.3632 -0.3662  0.4623
  866MOL0     O16799   0.653   2.201   0.944  0.3345 -0.5469 -0.2814
  866MOL0     C16800   0.595   2.104   0.867  0.6382 -0.3870 -0.1074
  866MOL0     C16801   0.620   1.966   0.866  0.0729 -0.5478  0.2391
  866MOL0     C16802   0.545   1.889   0.775  1.3309 -0.3798 -0.4111
  866MOL0     C16803   0.450   1.934   0.683  0.4181 -0.4428  0.4645
  866MOL0     C16804   0.388   1.842   0.577  0.2663 -0.5498  0.2370
  866MOL0     O16805   0.264   1.880   0.526 -0.4467  0.0243  0.0102
  866MOL0     C16806   0.185   1.803   0.449 -0.4609 -0.4956 -0.6083
  866MOL0     C16807   0.185   1.664   0.447  0.1190  0.2226 -0.5523
  866MOL0     C16808   0.118   1.580   0.349 -0.4175  0.5793 -0.3435
  866MOL0     C16809   0.035   1.646   0.259 -0.2551  0.6237 -0.5317
  866MOL0     O16810  -0.031   1.570   0.168  0.4969 -0.7413  0.0368
  866MOL0     C16811  -0.138   1.632   0.088 -0.7200 -0.1971  0.0132
  866MOL0     C16812  -0.232   1.514   0.065 -0.5060  0.5903 -0.3379
  866MOL0     C16813  -0.272   1.450   0.200 -1.0394 -0.2238  0.2822
  866MOL0     C16814  -0.321   1.311   0.167 -0.9153  0.0735 -0.0405
  866MOL0     C16815  -0.449   1.259   0.247  0.0935  0.6705 -1.3680
  866MOL0     C16816  -0.413   1.212   0.390  0.6745 -0.1114 -0.0942
  866MOL0     C16817  -0.519   1.132   0.468  0.6192  0.0520  0.6457
  866MOL0     C16818  -0.650   1.219   0.488 -0.5851 -0.5820  0.0142
  866MOL0    Cl16819  -0.768   1.133   0.585 -0.1686  0.2281  0.4959
  866MOL0     C16820   0.033   1.784   0.262  0.9476  0.8741 -0.0535
  866MOL0     C16821   0.099   1.863   0.360 -0.1086  0.3632 -0.2771
  866MOL0     O16822   0.463   1.751   0.543  1.1392  0.1127 -0.2666
  866MOL0     C16823   0.430   2.074   0.685 -0.1326  0.1109  0.3076
  866MOL0     C16824   0.500   2.156   0.783  0.1520 -0.4201  0.6984
  866MOL0     N16825   1.215   2.173   1.378  0.0063 -0.3440 -0.1191
  866MOL0     N16826   1.266   2.122   1.487 -0.5848 -0.5546 -0.1327
  866MOL0     C16827   2.067   2.227   1.162 -0.4321  0.3243  0.3818
  866MOL0     C16828   2.136   2.288   1.063  0.9154  1.0213 -0.9914
  866MOL0     C16829   2.284   2.644   0.831  1.2121 -0.0601  0.3795
  866MOL0     C16830   2.404   2.705   0.868  0.5578  0.2546  0.5224
  866MOL0     C16831   2.463   2.796   0.782  0.2016 -0.1860 -0.4305
  866MOL0     C16832   2.406   2.841   0.661  0.9686  1.1649 -0.1327
  866MOL0     O16833   2.467   2.953   0.609 -0.5808  0.0082 -0.9292
  866MOL0     C16834   2.431   3.002   0.480 -0.5796  0.5350 -1.0637
  866MOL0     C16835   2.537   3.108   0.438  0.0871  0.3428  0.5660
  866MOL0     C16836   2.517   3.253   0.496  0.9023  0.0695  0.0613
  866MOL0     C16837   2.399   3.343   0.430  0.3641  0.1306  0.1722
  866MOL0     C16838   2.383   3.483   0.483  0.4291  0.1869 -0.3652
  866MOL0     C16839   2.376   3.598   0.515 -0.2240 -1.0936  0.8074
  866MOL0     C16840   2.290   2.782   0.620  0.5702 -0.1501 -0.6686
  866MOL0     C16841   2.223   2.685   0.707 -0.5779  0.3649  0.3238
  866MOL0     C16842   2.101   2.621   0.653  0.4611  0.2299  0.2867
  866MOL0     H16843   2.318   2.503   1.245  0.7463 -1.5867 -1.0198
  866MOL0     H16844   2.216   2.379   1.418  0.2372 -0.1597 -0.5687
  866MOL0     H16845   2.042   2.342   1.527 -2.5613  0.1985  3.9456
  866MOL0     H16846   1.882   2.299   1.494 -0.5885  0.5745  3.2556
  866MOL0     H16847   1.986   2.204   1.717 -2.3814 -1.2399  0.2795
  866MOL0     H16848   2.110   2.117   1.619  0.8909  0.7094 -1.8304
  866MOL0     H16849   1.933   1.952   1.678 -0.4026 -0.2621 -0.3689
  866MOL0     H16850   1.919   1.989   1.506 -0.9735 -1.8816  1.4081
  866MOL0     H16851   1.740   2.099   1.725  1.9309 -1.7554  2.2037
  866MOL0     H16852   1.731   2.141   1.559 -3.2876 -0.5989  0.5109
  866MOL0     H16853   1.688   1.906   1.498  1.2071  3.0623 -1.7276
  866MOL0     H16854   1.699   1.855   1.662 -0.9452 -1.0528 -1.0897
  866MOL0     H16855   1.519   2.000   1.736 -3.5081 -1.1951 -0.0818
  866MOL0     H16856   1.513   2.077   1.581 -0.6414 -0.1271  0.7997
  866MOL0     H16857   1.460   1.799   1.626  1.8694  1.0352 -0.9682
  866MOL0     H16858   1.437   1.865   1.458 -5.0198 -0.8563 -1.7849
  866MOL0     H16859   1.222   1.819   1.596 -2.2613  1.1961 -1.2014
  866MOL0     H16860   1.277   1.958   1.696 -1.4532  0.5957 -0.7531
  866MOL0     H16861   1.152   1.858   1.353  0.4627 -0.5204  0.3647
  866MOL0     H16862   1.137   2.197   1.127 -0.7260  0.8590 -1.5900
  866MOL0     H16863   1.120   2.030   1.081  0.3941  0.8782 -1.3189
  866MOL0     H16864   0.900   2.017   1.213 -3.3197  1.7445  0.4456
  866MOL0     H16865   0.913   2.187   1.243  3.4604 -1.0343  3.2480
  866MOL0     H16866   0.871   2.040   0.973  2.0039 -0.2669  0.3262
  866MOL0     H16867   0.916   2.202   0.964 -1.5532  0.3731 -0.3323
  866MOL0     H16868   0.742   2.267   1.121  1.1985 -0.7448  0.8621
  866MOL0     H16869   0.695   2.090   1.122 -0.8494 -0.1215  0.5075
  866MOL0     H16870   0.697   1.920   0.927  0.4625  3.0636  2.7421
  866MOL0     H16871   0.577   1.786   0.767  3.6456  0.2733 -0.4722
  866MOL0     H16872   0.251   1.599   0.505 -3.1377 -3.5995 -0.6887
  866MOL0     H16873   0.131   1.472   0.348 -0.1530  0.4449  3.3281
  866MOL0     H16874  -0.194   1.712   0.138 -1.9242 -0.8011 -0.3522
  866MOL0     H16875  -0.101   1.663  -0.010 -0.2481 -2.5864 -0.6206
  866MOL0     H16876  -0.325   1.534   0.010 -0.3542 -0.5118 -1.0172
  866MOL0     H16877  -0.187   1.448  -0.010  0.2487  1.3898 -0.6082
  866MOL0     H16878  -0.194   1.438   0.275 -2.0036 -3.1398  0.9347
  866MOL0     H16879  -0.355   1.510   0.238 -1.5702  2.2659 -4.0393
  866MOL0     H16880  -0.248   1.229   0.166 -2.4749 -1.4797  2.1442
  866MOL0     H16881  -0.353   1.304   0.063 -0.8198 -1.9150  0.0194
  866MOL0     H16882  -0.483   1.172   0.189  3.1087 -0.5362 -1.5466
  866MOL0     H16883  -0.534   1.327   0.257 -0.2190  0.1517 -0.3794
  866MOL0     H16884  -0.322   1.155   0.374  1.7248  2.3785 -4.8161
  866MOL0     H16885  -0.394   1.305   0.446  1.2551 -0.1570 -0.2089
  866MOL0     H16886  -0.476   1.104   0.564  1.5453  0.7727  0.4487
  866MOL0     H16887  -0.543   1.042   0.410  0.4170  1.1531 -1.0472
  866MOL0     H16888  -0.623   1.309   0.543 -0.0602 -0.3137 -0.6695
  866MOL0     H16889  -0.700   1.247   0.395 -2.6424  0.0301  1.2430
  866MOL0     H16890  -0.041   1.834   0.200 -0.6562  1.5389  2.2454
  866MOL0     H16891   0.090   1.971   0.367 -0.3208  0.2925  0.6911
  866MOL0     H16892   0.353   2.109   0.617  0.1114 -0.1446 -0.1065
  866MOL0     H16893   0.464   2.258   0.797 -1.8556 -0.9328 -0.2561
  866MOL0     H16894   1.999   2.146   1.137  3.7752 -3.0786 -1.3215
  866MOL0     H16895   2.126   2.260   0.958 -2.0081 -1.7770 -0.1483
  866MOL0     H16896   2.421   2.681   0.972  0.2899  0.7987  0.6920
  866MOL0     H16897   2.560   2.840   0.803  0.0989 -0.2530  0.2035
  866MOL0     H16898   2.334   3.051   0.483  0.5222  2.8622 -0.5648
  866MOL0     H16899   2.427   2.920   0.408 -2.4490  0.6928 -1.1738
  866MOL0     H16900   2.543   3.107   0.329 -4.5641 -1.7807  0.0673
  866MOL0     H16901   2.637   3.073   0.468  0.1606 -0.4169 -0.5030
  866MOL0     H16902   2.609   3.310   0.481  0.3601  0.2054 -3.9174
  866MOL0     H16903   2.506   3.251   0.605 -0.1361 -1.3204 -0.0422
  866MOL0     H16904   2.422   3.344   0.323 -0.1157 -1.4040  0.0368
  866MOL0     H16905   2.301   3.303   0.456  0.9426 -1.7467 -0.4198
  866MOL0     H16906   2.359   3.698   0.551  1.1459 -0.2159 -0.8500
  866MOL0     H16907   2.243   2.799   0.523 -2.5173 -1.4769  0.4729
  866MOL0     H16908   2.080   2.515   0.667 -1.8347  0.2727 -2.1202
  866MOL0     H16909   2.021   2.687   0.689  0.5045 -0.2321  1.2667
  866MOL0     H16910   2.096   2.639   0.546 -2.0631  0.8972  0.4499
  867MOL0     O16911   3.481   8.440   7.988 -0.1510 -0.4319  0.2254
  867MOL0     C16912   3.536   8.547   8.017  0.1514  1.0186  1.8149
  867MOL0     O16913   3.466   8.672   8.007 -0.3985  0.2952 -0.8836
  867MOL0     C16914   3.333   8.656   8.007 -0.4443  1.1129 -0.4797
  867MOL0     C16915   3.263   8.636   7.886  0.4413  0.0249  0.5902
  867MOL0     C16916   3.124   8.621   7.880  0.2848 -0.3203 -0.8153
  867MOL0     C16917   3.048   8.633   7.992  0.2302 -0.2400  1.4533
  867MOL0     O16918   2.912   8.651   7.974 -0.3587  1.0035  0.3664
  867MOL0     C16919   2.831   8.704   8.079 -1.2652  0.4406  0.2824
  867MOL0     C16920   2.692   8.734   8.031  0.2215  0.0397 -0.7493
  867MOL0     C16921   2.603   8.779   8.148  0.1504 -0.0370 -0.0960
  867MOL0     C16922   2.464   8.842   8.099 -0.4615 -0.1487 -0.0843
  867MOL0     C16923   2.394   8.931   8.206  0.9391 -0.3106  0.0883
  867MOL0     C16924   2.468   9.057   8.252  0.3635 -0.2207  0.6143
  867MOL0     C16925   2.529   9.146   8.144 -0.8643 -0.3467 -0.0390
  867MOL0     C16926   2.583   9.268   8.200  0.0752 -0.2295  1.0067
  867MOL0     N16927   2.655   9.348   8.099  0.9860  0.6282 -0.2828
  867MOL0     C16928   2.781   9.388   8.129 -0.7430  0.8433 -0.1498
  867MOL0     C16929   2.815   9.442   8.008  0.2433  0.7161  0.2088
  867MOL0     C16930   2.948   9.509   7.997  0.7519  0.5272 -0.6143
  867MOL0     C16931   3.069   9.410   7.965  0.2341  0.5772  0.1504
  867MOL0     C16932   3.188   9.486   7.913 -0.0311  0.1548 -0.8697
  867MOL0     C16933   3.166   9.528   7.767  0.0381 -0.1509 -0.2264
  867MOL0     O16934   3.151   9.403   7.700 -0.0195  0.2132  0.0046
  867MOL0     C16935   3.063   9.408   7.600 -0.0746  0.2081  1.2065
  867MOL0     C16936   2.926   9.404   7.612 -0.2271 -0.6592 -0.1606
  867MOL0     C16937   2.851   9.415   7.492 -0.1874 -0.5703 -0.1237
  867MOL0     C16938   2.910   9.413   7.363 -0.3438  0.1853  0.3323
  867MOL0     C16939   2.824   9.415   7.238 -0.7640  0.2860 -0.1982
  867MOL0     O16940   2.894   9.458   7.129  0.0716  0.0079  0.1752
  867MOL0     C16941   2.832   9.465   7.000 -0.8124  0.2880  0.2636
  867MOL0     C16942   2.698   9.428   6.965 -0.2808 -1.5049 -0.4296
  867MOL0     C16943   2.655   9.440   6.833 -0.6009  0.8500 -0.7238
  867MOL0     C16944   2.740   9.477   6.736 -0.5864 -0.7495  0.2841
  867MOL0     O16945   2.684   9.496   6.603  0.7466 -0.5776  0.1059
  867MOL0     C16946   2.649   9.367   6.548 -0.1174 -0.4975  0.6492
  867MOL0     C16947   2.699   9.364   6.402 -0.0527  0.6605  0.0786
  867MOL0     C16948   2.850   9.397   6.384  0.9602 -0.3057  0.2286
  867MOL0     C16949   2.878   9.426   6.239  0.1364  0.4217  0.0310
  867MOL0     C16950   2.870   9.302   6.158 -0.4306 -0.2182  0.8883
  867MOL0     C16951   2.934   9.334   6.024  0.5136  0.0119 -0.6676
  867MOL0     C16952   2.903   9.226   5.912  0.3448  0.0498  0.3736
  867MOL0     C16953   2.922   9.285   5.771 -0.9886 -0.0649 -0.0248
  867MOL0    Cl16954   2.950   9.145   5.668 -0.2433  0.1731  0.1174
  867MOL0     C16955   2.866   9.521   6.773 -0.7326  0.0403 -0.5682
  867MOL0     C16956   2.911   9.517   6.904 -0.5574  0.4056 -0.6870
  867MOL0     O16957   2.703   9.397   7.255 -0.3540  0.3574  0.9309
  867MOL0     C16958   3.048   9.405   7.354 -0.0406  1.3135 -0.6043
  867MOL0     C16959   3.121   9.408   7.469 -0.3402 -0.0899  1.0557
  867MOL0     N16960   2.712   9.420   7.910 -0.2832 -0.1296  0.7887
  867MOL0     N16961   2.614   9.374   7.976 -0.6958  0.0133 -0.1346
  867MOL0     C16962   3.117   8.637   8.116 -0.1584 -0.3136 -0.7112
  867MOL0     C16963   3.254   8.649   8.125 -0.4289  0.3030  0.0310
  867MOL0     C16964   3.680   8.547   8.035 -0.1391 -0.4086  0.0830
  867MOL0     C16965   3.754   8.662   8.014 -0.1456 -1.1944 -0.2904
  867MOL0     C16966   3.883   8.676   8.061 -0.2042  0.4473  1.0388
  867MOL0     C16967   3.943   8.573   8.131 -0.0366  0.6917  0.2201
  867MOL0     O16968   4.060   8.604   8.188  0.2388  0.0313  0.8045
  867MOL0     C16969   4.101   8.531   8.301  0.2506  0.1622  0.4473
  867MOL0     C16970   4.228   8.590   8.350  0.8938  0.4377  0.2203
  867MOL0     C16971   4.283   8.517   8.472  0.5622 -0.2864  0.5635
  867MOL0     C16972   4.409   8.589   8.520  0.7629  0.2012 -0.4054
  867MOL0     C16973   4.467   8.514   8.636  0.1884  0.1482  0.2535
  867MOL0     C16974   4.528   8.465   8.730 -0.0769 -0.2040 -0.1571
  867MOL0     C16975   3.881   8.455   8.150 -0.1082  0.4909 -0.3388
  867MOL0     C16976   3.745   8.438   8.103 -0.3602 -0.3821  0.6534
  867MOL0     C16977   3.685   8.304   8.120  0.2650 -0.1611  0.4502
  867MOL0     H16978   3.321   8.632   7.795 -1.6018  0.6515 -0.8171
  867MOL0     H16979   3.075   8.607   7.784  3.6219 -2.1808 -2.4250
  867MOL0     H16980   2.813   8.640   8.166 -2.1738 -2.2322 -1.7448
  867MOL0     H16981   2.889   8.792   8.106  2.3094 -2.1438  1.9208
  867MOL0     H16982   2.628   8.655   7.990 -1.1751 -1.0967  3.1391
  867MOL0     H16983   2.699   8.807   7.951 -2.0844  1.0701 -0.1033
  867MOL0     H16984   2.657   8.847   8.215  1.3528 -2.5547  1.6420
  867MOL0     H16985   2.578   8.684   8.196 -1.3918 -1.2030 -2.9420
  867MOL0     H16986   2.472   8.914   8.017 -3.9498  0.7616  0.2396
  867MOL0     H16987   2.397   8.766   8.058  0.1108  0.1422 -1.6500
  867MOL0     H16988   2.298   8.956   8.160 -0.4134 -3.1431  1.1342
  867MOL0     H16989   2.361   8.869   8.290 -2.9398 -0.2958 -1.2174
  867MOL0     H16990   2.395   9.127   8.294 -0.5260  0.6926 -2.2129
  867MOL0     H16991   2.544   9.034   8.326 -0.1374 -1.0147  0.8944
  867MOL0     H16992   2.454   9.165   8.066 -0.5918 -2.6141 -0.9415
  867MOL0     H16993   2.609   9.088   8.097  1.0852  2.6141 -0.6351
  867MOL0     H16994   2.504   9.334   8.238 -1.4562 -0.7145 -1.0973
  867MOL0     H16995   2.658   9.237   8.273  2.9797  1.1861 -1.1524
  867MOL0     H16996   2.838   9.394   8.221 -0.2067  0.8978 -0.4806
  867MOL0     H16997   2.939   9.592   7.927 -0.0948 -0.0231 -1.1659
  867MOL0     H16998   2.963   9.565   8.090 -1.2268 -3.0634  2.1452
  867MOL0     H16999   3.089   9.356   8.058 -2.0176 -2.6636 -1.0396
  867MOL0     H17000   3.030   9.330   7.901 -1.6990  0.3923  1.4604
  867MOL0     H17001   3.266   9.409   7.912 -0.6237 -0.5170  0.8526
  867MOL0     H17002   3.225   9.568   7.974  1.8602  0.5491 -2.4544
  867MOL0     H17003   3.259   9.565   7.722 -0.5883  1.6162 -0.1172
  867MOL0     H17004   3.085   9.601   7.760 -2.5632 -2.6796  1.4519
  867MOL0     H17005   2.880   9.408   7.711 -2.3439  2.1923 -1.1179
  867MOL0     H17006   2.743   9.414   7.503 -0.3208  1.7315 -0.8195
  867MOL0     H17007   2.631   9.407   7.048 -0.6796  1.4573  0.1189
  867MOL0     H17008   2.552   9.428   6.800 -1.5268  6.2989 -0.7019
  867MOL0     H17009   2.703   9.289   6.603 -1.0907 -1.3455  0.4340
  867MOL0     H17010   2.542   9.344   6.551 -0.6108  1.0909 -1.8150
  867MOL0     H17011   2.685   9.262   6.366 -0.0005  0.5642  0.3285
  867MOL0     H17012   2.628   9.423   6.343 -0.2202 -0.0444 -0.4311
  867MOL0     H17013   2.884   9.492   6.426 -0.9085  3.1794 -5.1246
  867MOL0     H17014   2.906   9.311   6.422  2.1760  0.7615  0.9306
  867MOL0     H17015   2.981   9.462   6.235  0.1480  0.8424  2.4191
  867MOL0     H17016   2.807   9.502   6.205  1.5379  0.9151 -1.9751
  867MOL0     H17017   2.767   9.269   6.142 -0.7264 -0.2501  2.6356
  867MOL0     H17018   2.922   9.217   6.204 -2.0213 -1.2752  0.8224
  867MOL0     H17019   2.880   9.424   5.992 -0.6413 -0.8558 -1.2133
  867MOL0     H17020   3.041   9.350   6.038  0.8942 -1.9500 -1.0390
  867MOL0     H17021   2.798   9.193   5.913  0.1957  0.3222 -1.9796
  867MOL0     H17022   2.965   9.138   5.931 -0.5209 -0.1681  2.5035
  867MOL0     H17023   2.835   9.342   5.738  0.7443  3.4173  0.9517
  867MOL0     H17024   3.011   9.349   5.769 -0.7281 -0.4378 -1.7602
  867MOL0     H17025   2.940   9.539   6.695  0.3188 -0.6072  0.2552
  867MOL0     H17026   3.015   9.540   6.924 -0.2820 -1.7912  0.7456
  867MOL0     H17027   3.099   9.398   7.259  1.0593 -1.5672  0.1055
  867MOL0     H17028   3.229   9.406   7.459  0.1219  0.0451  4.6300
  867MOL0     H17029   3.064   8.652   8.209 -1.7294 -1.7047 -1.3332
  867MOL0     H17030   3.296   8.676   8.221 -1.9207  1.1555  0.4604
  867MOL0     H17031   3.706   8.750   7.972  1.6929 -0.5221 -1.1050
  867MOL0     H17032   3.928   8.773   8.039  1.5649 -1.1712 -3.8032
  867MOL0     H17033   4.131   8.430   8.273  1.3758  0.2757  1.1619
  867MOL0     H17034   4.027   8.540   8.381  0.3422 -1.1629  0.6979
  867MOL0     H17035   4.215   8.697   8.370  1.2523  0.5251 -0.0098
  867MOL0     H17036   4.302   8.579   8.270  0.9568 -3.1564  0.5821
  867MOL0     H17037   4.310   8.416   8.439 -1.6357 -0.5348 -0.6883
  867MOL0     H17038   4.219   8.502   8.560  0.3615  0.1174  0.4878
  867MOL0     H17039   4.487   8.598   8.444  2.7989  0.0621  1.5249
  867MOL0     H17040   4.377   8.691   8.542  1.0301  0.5826 -1.7243
  867MOL0     H17041   4.565   8.423   8.822 -0.1221  2.6211  1.2725
  867MOL0     H17042   3.927   8.375   8.208 -0.8311 -0.0702 -0.5268
  867MOL0     H17043   3.591   8.305   8.176 -1.2463 -0.3733 -1.9723
  867MOL0     H17044   3.664   8.254   8.025 -0.4148  0.6788  0.1426
  867MOL0     H17045   3.747   8.246   8.190  2.7279  0.5852 -0.9908
  868MOL0     O17046   2.541   4.927   0.474  0.4777  0.2298 -0.5911
  868MOL0     C17047   2.658   4.946   0.492  0.0106 -0.6586 -0.5829
  868MOL0     O17048   2.752   4.990   0.399 -0.2994  0.1930  0.7872
  868MOL0     C17049   2.744   4.988   0.262  0.2679 -0.2764 -0.1814
  868MOL0     C17050   2.640   4.911   0.193  0.8917  0.5614  0.5632
  868MOL0     C17051   2.620   4.927   0.061 -0.9927 -0.3057 -0.6781
  868MOL0     C17052   2.712   5.000  -0.013  0.5507  0.0423 -0.4999
  868MOL0     O17053   2.695   5.035  -0.147  1.0942 -0.6397  0.1096
  868MOL0     C17054   2.651   4.930  -0.241 -0.2221 -0.0915 -0.0918
  868MOL0     C17055   2.525   4.960  -0.315  0.5308  0.1214  1.1617
  868MOL0     C17056   2.411   4.988  -0.209 -0.2153  0.3821 -0.0755
  868MOL0     C17057   2.279   5.029  -0.282 -0.9346  0.3911 -0.3763
  868MOL0     C17058   2.171   5.059  -0.178 -0.7797 -0.4716  0.0670
  868MOL0     C17059   2.159   4.949  -0.074 -0.8399 -0.9227 -0.3578
  868MOL0     C17060   2.020   4.934  -0.006 -0.5919  0.4073 -0.4421
  868MOL0     C17061   1.905   4.879  -0.099 -0.7626 -0.5842 -0.1561
  868MOL0     N17062   1.774   4.849  -0.035  0.0662 -0.3966 -0.5603
  868MOL0     C17063   1.708   4.907   0.073  0.4921 -0.0540 -0.6091
  868MOL0     C17064   1.586   4.865   0.066  0.6811  0.1171 -0.5987
  868MOL0     C17065   1.475   4.912   0.158 -0.0872 -0.2144 -0.0052
  868MOL0     C17066   1.362   5.004   0.120  0.3938  0.3402 -0.6137
  868MOL0     C17067   1.251   4.936   0.039 -0.2668  1.0559 -0.4637
  868MOL0     C17068   1.192   4.815   0.097  0.3099  0.2667  0.2131
  868MOL0     O17069   1.063   4.795   0.033  0.1539 -0.3246 -0.3378
  868MOL0     C17070   1.048   4.709  -0.079 -0.0064 -0.3766  0.3018
  868MOL0     C17071   1.142   4.623  -0.141  0.2138 -0.5650  0.8159
  868MOL0     C17072   1.097   4.539  -0.241  0.6477 -1.1707 -0.4728
  868MOL0     C17073   0.965   4.545  -0.296 -0.2994  0.8897 -0.2284
  868MOL0     C17074   0.915   4.452  -0.399  0.4089 -0.3351 -0.5356
  868MOL0     O17075   0.801   4.487  -0.479  1.3619 -0.2892 -0.8036
  868MOL0     C17076   0.748   4.404  -0.581 -0.6373 -0.1156  0.2683
  868MOL0     C17077   0.686   4.462  -0.688 -1.3755 -1.0604  0.5460
  868MOL0     C17078   0.598   4.392  -0.776 -0.1480 -0.0284 -0.1185
  868MOL0     C17079   0.584   4.256  -0.762 -0.6567 -0.1100 -0.2574
  868MOL0     O17080   0.503   4.167  -0.828 -0.6190 -0.2385  0.0579
  868MOL0     C17081   0.441   4.225  -0.947 -0.4302 -0.2949  1.1131
  868MOL0     C17082   0.329   4.131  -0.981  0.3683 -0.7780 -0.0673
  868MOL0     C17083   0.251   4.181  -1.101  0.1370 -0.0703 -0.7821
  868MOL0     C17084   0.319   4.150  -1.239  1.3658 -0.1780 -0.1073
  868MOL0     C17085   0.237   4.210  -1.350 -0.1847 -0.3390 -0.3659
  868MOL0     C17086   0.294   4.175  -1.482  0.2153 -0.1013 -0.7474
  868MOL0     C17087   0.215   4.226  -1.604  0.0056 -0.2962 -0.2072
  868MOL0     C17088   0.260   4.161  -1.736  0.0444  0.3339  0.3313
  868MOL0    Cl17089   0.153   4.207  -1.878  0.2452 -0.4948  0.0588
  868MOL0     C17090   0.646   4.199  -0.660 -0.3690  0.6118 -0.1863
  868MOL0     C17091   0.728   4.267  -0.564 -0.9126  0.2805 -0.3907
  868MOL0     O17092   0.982   4.355  -0.406 -0.1971  0.3954  0.1669
  868MOL0     C17093   0.880   4.636  -0.247 -0.5238 -0.6652  0.6636
  868MOL0     C17094   0.920   4.711  -0.135  0.7551 -0.0597  0.1473
  868MOL0     N17095   1.574   4.774  -0.044  0.4246 -0.4848  0.6966
  868MOL0     N17096   1.695   4.761  -0.097  0.0397 -0.0906  0.8558
  868MOL0     C17097   2.821   5.054   0.051 -0.6702  0.4420 -1.2394
  868MOL0     C17098   2.843   5.051   0.194 -0.5334 -0.2843  0.1366
  868MOL0     C17099   2.716   4.940   0.629  0.0659  0.3408 -0.5153
  868MOL0     C17100   2.836   5.008   0.653 -0.6035  0.6409  1.0887
  868MOL0     C17101   2.907   5.008   0.773 -0.9433  0.1070  1.9416
  868MOL0     C17102   2.849   4.938   0.881  0.0813  0.3460  0.1927
  868MOL0     O17103   2.909   4.960   0.992 -0.0638  0.9272 -0.4220
  868MOL0     C17104   2.863   4.887   1.110 -0.3232 -0.0661 -0.1334
  868MOL0     C17105   2.734   4.942   1.175  0.0717 -0.1494 -0.0466
  868MOL0     C17106   2.687   4.886   1.309 -0.8459  0.2470 -0.2871
  868MOL0     C17107   2.546   4.894   1.346  0.9282  1.1426 -0.4556
  868MOL0     C17108   2.480   5.025   1.321 -0.2313  0.6999  0.4151
  868MOL0     C17109   2.426   5.122   1.283 -0.0457 -0.3411 -0.2660
  868MOL0     C17110   2.737   4.846   0.851 -0.1385  0.7925 -0.2496
  868MOL0     C17111   2.673   4.853   0.723 -0.5802  0.2472 -1.5212
  868MOL0     C17112   2.552   4.765   0.700 -1.3385 -0.2926 -0.0781
  868MOL0     H17113   2.561   4.861   0.249 -2.1903 -0.8450 -4.3971
  868MOL0     H17114   2.529   4.877   0.030 -1.0749 -1.5687  1.4251
  868MOL0     H17115   2.737   4.897  -0.300 -0.8628 -1.6951 -0.1882
  868MOL0     H17116   2.642   4.841  -0.178  1.3885  1.4584  2.5139
  868MOL0     H17117   2.489   4.879  -0.379 -2.8114  1.7418  0.7713
  868MOL0     H17118   2.532   5.050  -0.376  1.2695 -0.3842  0.4848
  868MOL0     H17119   2.450   5.065  -0.141  0.2689 -1.6907  2.1402
  868MOL0     H17120   2.398   4.904  -0.140 -0.1864  0.7353  0.3707
  868MOL0     H17121   2.295   5.113  -0.350 -2.2627  0.6974 -0.3406
  868MOL0     H17122   2.252   4.936  -0.331 -0.7614 -1.8478  3.4049
  868MOL0     H17123   2.188   5.159  -0.136  3.6093 -0.4142 -1.3150
  868MOL0     H17124   2.073   5.058  -0.226 -1.9826 -0.3790  2.3582
  868MOL0     H17125   2.195   4.853  -0.112  0.3683  0.3394 -2.6674
  868MOL0     H17126   2.233   4.977   0.001 -1.1110 -0.1446 -0.3733
  868MOL0     H17127   1.997   5.033   0.034  3.5017  2.5960 -2.8856
  868MOL0     H17128   2.019   4.864   0.078 -1.1459  1.6011  0.5785
  868MOL0     H17129   1.875   4.942  -0.183 -3.2814  0.8424  1.6593
  868MOL0     H17130   1.947   4.786  -0.138 -0.4663 -1.5569  2.3079
  868MOL0     H17131   1.745   4.990   0.132 -0.9778 -1.8329  3.1284
  868MOL0     H17132   1.426   4.825   0.204 -0.9378 -0.8490 -2.0410
  868MOL0     H17133   1.528   4.939   0.250 -1.7066  0.1880  0.8497
  868MOL0     H17134   1.319   5.030   0.218  1.7997 -0.7343  0.3323
  868MOL0     H17135   1.401   5.091   0.067  1.1067 -0.1966 -0.9762
  868MOL0     H17136   1.288   4.920  -0.063  2.2695  1.1342  0.3842
  868MOL0     H17137   1.173   5.011   0.026 -1.4431 -0.4636 -2.9907
  868MOL0     H17138   1.189   4.830   0.205  1.2534  0.9835  0.1627
  868MOL0     H17139   1.261   4.732   0.081  0.1103  0.1869 -0.2441
  868MOL0     H17140   1.246   4.613  -0.111  0.2782 -2.4013  0.0945
  868MOL0     H17141   1.171   4.464  -0.267  2.0677  0.9662 -3.1093
  868MOL0     H17142   0.683   4.570  -0.699 -3.4213 -1.0992  0.3114
  868MOL0     H17143   0.537   4.440  -0.851 -0.7361 -2.1099 -1.0450
  868MOL0     H17144   0.390   4.317  -0.919 -0.7244  0.8867 -2.7048
  868MOL0     H17145   0.511   4.247  -1.028  0.5628 -2.9755  1.1341
  868MOL0     H17146   0.363   4.030  -1.005  1.0032 -0.3211 -1.1554
  868MOL0     H17147   0.266   4.122  -0.892 -0.0245 -3.2355 -0.5019
  868MOL0     H17148   0.145   4.157  -1.092 -0.7837  2.7065 -2.8498
  868MOL0     H17149   0.240   4.290  -1.103 -4.2126 -0.3092 -3.9551
  868MOL0     H17150   0.326   4.043  -1.259  2.7795  0.4437 -3.6613
  868MOL0     H17151   0.421   4.188  -1.248  1.0989  0.5570 -0.1330
  868MOL0     H17152   0.253   4.318  -1.335  2.6429 -0.6808 -0.4185
  868MOL0     H17153   0.129   4.196  -1.337 -0.3023  0.8204  0.0160
  868MOL0     H17154   0.397   4.211  -1.488  0.3686  0.4409  2.9233
  868MOL0     H17155   0.289   4.066  -1.483 -3.1094 -0.0684 -0.1522
  868MOL0     H17156   0.224   4.335  -1.595  0.7443 -0.5383  3.7109
  868MOL0     H17157   0.108   4.206  -1.594 -0.2590 -0.5302 -2.8672
  868MOL0     H17158   0.357   4.205  -1.760 -0.6112  2.8240  1.8627
  868MOL0     H17159   0.278   4.055  -1.715 -4.3390 -0.3777  1.3770
  868MOL0     H17160   0.620   4.097  -0.633  0.6825  0.1986 -0.6767
  868MOL0     H17161   0.755   4.206  -0.478 -2.6222 -2.5472 -1.7328
  868MOL0     H17162   0.791   4.675  -0.295 -0.9975 -1.4629  0.8897
  868MOL0     H17163   0.847   4.782  -0.099  0.7090  0.4890 -1.0003
  868MOL0     H17164   2.902   5.117   0.014  0.0543  0.8324  0.8348
  868MOL0     H17165   2.919   5.105   0.251 -0.2754  0.3883 -0.8217
  868MOL0     H17166   2.881   5.071   0.577  3.8452  0.3323  3.1663
  868MOL0     H17167   3.003   5.057   0.784 -0.0615 -1.3190  0.8737
  868MOL0     H17168   2.951   4.888   1.176  1.1224 -0.1877 -1.9907
  868MOL0     H17169   2.849   4.782   1.084  0.7533 -0.3636  0.4096
  868MOL0     H17170   2.643   4.919   1.119 -1.5663  1.6911  1.6771
  868MOL0     H17171   2.726   5.051   1.188  0.2473 -0.1917  0.4576
  868MOL0     H17172   2.747   4.924   1.392 -0.8353  0.4647 -0.3921
  868MOL0     H17173   2.708   4.779   1.307  3.0435  0.7660  2.1208
  868MOL0     H17174   2.487   4.822   1.289  0.3793  0.9108  0.3939
  868MOL0     H17175   2.533   4.855   1.447  3.2585  0.3040 -0.4159
  868MOL0     H17176   2.368   5.202   1.242  0.7533 -1.8757 -4.9921
  868MOL0     H17177   2.688   4.782   0.923 -2.5240 -0.6735 -2.9560
  868MOL0     H17178   2.563   4.721   0.601  1.8015 -0.7585  0.3742
  868MOL0     H17179   2.552   4.682   0.771 -0.9449  0.4478  0.8090
  868MOL0     H17180   2.461   4.825   0.709 -0.9001  0.2487  1.0292
  869MOL0     O17181   9.875   4.114   9.333 -0.5097 -0.0811  0.5881
  869MOL0     C17182   9.823   4.067   9.233 -0.1201  0.6120 -0.1510
  869MOL0     O17183   9.853   3.939   9.183 -0.1255  0.9038  0.2003
  869MOL0     C17184   9.934   3.851   9.256  0.5964 -0.5483  0.5940
  869MOL0     C17185  10.074   3.884   9.266  0.0225  0.0418 -0.1609
  869MOL0     C17186  10.156   3.783   9.312  0.5383 -0.0206 -0.4448
  869MOL0     C17187  10.099   3.667   9.367 -0.6653 -0.3292 -0.4969
  869MOL0     O17188  10.178   3.572   9.429  0.3399  0.0505  0.3427
  869MOL0     C17189  10.179   3.569   9.576  0.7009  0.1078 -0.0286
  869MOL0     C17190  10.232   3.693   9.658  0.8043 -0.0912 -0.1412
  869MOL0     C17191  10.386   3.717   9.665  0.4863  0.2438  0.4994
  869MOL0     C17192  10.474   3.606   9.717  0.1636 -0.3339  0.6888
  869MOL0     C17193  10.623   3.631   9.721  0.5308  1.7433 -1.1625
  869MOL0     C17194  10.660   3.760   9.784 -0.5153  0.1774 -0.3119
  869MOL0     C17195  10.716   3.858   9.683 -0.8595  0.5417  0.1488
  869MOL0     C17196  10.757   3.981   9.755 -0.5527 -1.0503  0.0507
  869MOL0     N17197  10.653   4.048   9.823 -0.2503  1.2448 -1.0558
  869MOL0     C17198  10.533   4.087   9.769 -0.6193  0.3449  0.0339
  869MOL0     C17199  10.458   4.125   9.879  0.0343 -0.1193  0.0403
  869MOL0     C17200  10.324   4.184   9.864  0.5344 -0.1324 -0.1664
  869MOL0     C17201  10.221   4.083   9.926  0.2383  0.6828 -0.5715
  869MOL0     C17202  10.069   4.128   9.923  0.1734  0.8078 -0.2936
  869MOL0     C17203   9.984   4.005   9.972 -0.8608 -0.4621 -0.5217
  869MOL0     O17204   9.980   3.893   9.879 -0.1263 -0.6119 -0.2018
  869MOL0     C17205   9.898   3.795   9.925 -1.0515  0.3408  0.3001
  869MOL0     C17206   9.832   3.716   9.837 -0.4082 -0.3755  0.5097
  869MOL0     C17207   9.723   3.632   9.878  0.0199 -0.3985  0.2087
  869MOL0     C17208   9.709   3.609  10.015  0.0615 -0.7730  0.5490
  869MOL0     C17209   9.606   3.511  10.060  0.0107 -0.6090 -0.3018
  869MOL0     O17210   9.563   3.532  10.189 -0.6026  0.0733  0.5170
  869MOL0     C17211   9.477   3.437  10.244  0.6796  1.1141 -0.5653
  869MOL0     C17212   9.502   3.301  10.239 -0.3313  0.1842  0.8912
  869MOL0     C17213   9.432   3.213  10.315  0.4874 -0.0363 -1.6267
  869MOL0     C17214   9.324   3.257  10.397  0.5711  0.3326  0.2277
  869MOL0     O17215   9.257   3.166  10.478 -0.4573  0.2037 -0.4378
  869MOL0     C17216   9.333   3.122  10.586  0.3172 -0.6914 -0.2807
  869MOL0     C17217   9.238   3.075  10.688 -0.7353 -0.0021 -0.2305
  869MOL0     C17218   9.299   3.043  10.827 -0.5447  0.4923 -0.8374
  869MOL0     C17219   9.212   3.024  10.946  0.2143  0.3048 -0.1497
  869MOL0     C17220   9.280   2.955  11.074 -0.4937 -1.0825 -0.1806
  869MOL0     C17221   9.289   2.803  11.065  0.6480  0.2655  0.6536
  869MOL0     C17222   9.166   2.737  11.137  0.1821 -0.5111 -0.6736
  869MOL0     C17223   9.168   2.590  11.128  0.3529  1.2950 -0.0303
  869MOL0    Cl17224   9.009   2.540  11.175  0.2252 -0.1283  0.0310
  869MOL0     C17225   9.298   3.389  10.404 -0.1900  0.4011  0.4787
  869MOL0     C17226   9.375   3.488  10.328  0.2400  0.8400  0.8211
  869MOL0     O17227   9.559   3.438   9.972 -0.3122  0.5865 -0.6432
  869MOL0     C17228   9.779   3.686  10.111  0.5226 -0.8686 -0.0994
  869MOL0     C17229   9.873   3.776  10.059 -0.3873 -0.2419 -0.5124
  869MOL0     N17230  10.531   4.094   9.993 -0.1653 -1.2689 -0.5723
  869MOL0     N17231  10.640   4.051   9.961 -0.0330 -0.9277 -0.1615
  869MOL0     C17232   9.962   3.646   9.374  0.1892 -0.0462  0.1348
  869MOL0     C17233   9.880   3.737   9.307 -0.5060 -0.3846 -0.3585
  869MOL0     C17234   9.717   4.138   9.160 -0.6270 -0.0473  0.6348
  869MOL0     C17235   9.667   4.089   9.034 -0.3666 -0.0654 -0.3910
  869MOL0     C17236   9.546   4.141   8.977  0.4631 -0.0918  0.5456
  869MOL0     C17237   9.477   4.253   9.041 -0.9218  0.5998  0.7797
  869MOL0     O17238   9.366   4.299   8.973  0.4443  0.1476 -0.2247
  869MOL0     C17239   9.309   4.408   9.039 -0.1794  0.6431 -0.0049
  869MOL0     C17240   9.384   4.540   9.020  0.4314  0.0742  0.2018
  869MOL0     C17241   9.365   4.604   8.880  0.2556 -0.0893  0.2235
  869MOL0     C17242   9.435   4.516   8.767 -0.5171 -0.9471  0.1093
  869MOL0     C17243   9.571   4.485   8.791  0.0959  0.5912 -0.2521
  869MOL0     C17244   9.691   4.464   8.824  1.0170  0.4157 -0.4174
  869MOL0     C17245   9.527   4.298   9.164 -0.2519  0.1298 -1.1702
  869MOL0     C17246   9.648   4.245   9.215  0.4713 -0.0539  0.4699
  869MOL0     C17247   9.698   4.317   9.340  0.0251 -0.7558  0.2451
  869MOL0     H17248  10.104   3.981   9.227 -2.2948  1.5286  1.5054
  869MOL0     H17249  10.260   3.808   9.326 -0.0646  1.8313  1.2268
  869MOL0     H17250  10.086   3.532   9.619  0.9038  2.7852  3.1009
  869MOL0     H17251  10.244   3.484   9.598  2.9083  0.6289 -3.7284
  869MOL0     H17252  10.203   3.674   9.762  2.6897 -1.8221  0.1179
  869MOL0     H17253  10.183   3.787   9.628  2.2444  0.1777 -1.8316
  869MOL0     H17254  10.413   3.811   9.713 -1.3020  0.6972  0.6808
  869MOL0     H17255  10.416   3.729   9.561  1.5469  2.6431  1.0290
  869MOL0     H17256  10.443   3.586   9.820 -1.3493  3.9298  1.2554
  869MOL0     H17257  10.458   3.518   9.654  0.7520  0.1287 -0.1294
  869MOL0     H17258  10.662   3.551   9.784  0.2363  2.1142 -0.4957
  869MOL0     H17259  10.650   3.634   9.615  0.8720  0.6504 -1.1131
  869MOL0     H17260  10.576   3.806   9.838 -0.1571 -1.0617  1.3862
  869MOL0     H17261  10.741   3.731   9.852 -1.7544 -5.3133 -0.6945
  869MOL0     H17262  10.637   3.878   9.611 -1.7583 -2.4712  0.1728
  869MOL0     H17263  10.807   3.816   9.638  1.3745  0.4608  4.1687
  869MOL0     H17264  10.844   3.959   9.819  1.1618 -0.6860 -2.0305
  869MOL0     H17265  10.805   4.050   9.685  3.0790 -3.9120 -0.5933
  869MOL0     H17266  10.504   4.083   9.664 -1.1431  2.1114  0.0786
  869MOL0     H17267  10.319   4.283   9.912 -0.5049  0.9508 -2.3496
  869MOL0     H17268  10.296   4.200   9.759 -0.3250  1.6096  0.2846
  869MOL0     H17269  10.234   3.993   9.865  0.2978  1.1446 -1.2534
  869MOL0     H17270  10.246   4.070  10.031 -1.9749  2.2600  0.2293
  869MOL0     H17271  10.027   4.157   9.827 -2.4509 -1.2085  0.1260
  869MOL0     H17272  10.044   4.207   9.995 -3.6680 -1.3343  1.0348
  869MOL0     H17273   9.884   4.037  10.003 -1.0867 -1.3337 -0.3319
  869MOL0     H17274  10.036   3.967  10.060 -2.0407 -2.2444 -0.5503
  869MOL0     H17275   9.858   3.733   9.733  1.7072  1.7344  1.3030
  869MOL0     H17276   9.684   3.563   9.804  0.4741  1.3060 -1.6959
  869MOL0     H17277   9.590   3.270  10.184  1.0385  2.3932  1.6727
  869MOL0     H17278   9.465   3.110  10.313  3.1582  0.4835  2.4316
  869MOL0     H17279   9.385   3.032  10.551 -0.4840 -2.1439  2.0640
  869MOL0     H17280   9.396   3.201  10.628  0.8197 -0.9095 -0.6053
  869MOL0     H17281   9.164   3.153  10.707 -0.9809 -0.4263  0.6288
  869MOL0     H17282   9.190   2.987  10.646  1.4106 -1.2047 -0.3445
  869MOL0     H17283   9.360   2.954  10.812 -0.5375  0.4141 -0.3734
  869MOL0     H17284   9.372   3.122  10.845  2.7252 -2.6015  0.8077
  869MOL0     H17285   9.121   2.969  10.919 -0.4170  1.2605 -0.0358
  869MOL0     H17286   9.185   3.128  10.967 -0.6575 -0.3312  2.1142
  869MOL0     H17287   9.228   2.999  11.159 -0.7001  0.0723 -0.8883
  869MOL0     H17288   9.384   2.986  11.085 -0.4221 -1.1909 -0.5307
  869MOL0     H17289   9.294   2.760  10.965 -4.3173  1.8870 -0.5768
  869MOL0     H17290   9.375   2.771  11.125 -0.1682 -4.6017 -0.3834
  869MOL0     H17291   9.070   2.770  11.095 -1.1132 -1.7179  1.2048
  869MOL0     H17292   9.156   2.770  11.241  2.0505 -1.4560 -0.1546
  869MOL0     H17293   9.198   2.550  11.031  1.1100 -0.3931  0.8541
  869MOL0     H17294   9.251   2.547  11.184  0.7784 -1.5995 -2.6347
  869MOL0     H17295   9.220   3.410  10.477 -0.6754 -3.7848  1.4732
  869MOL0     H17296   9.366   3.595  10.338  3.7200  1.2504  0.8863
  869MOL0     H17297   9.756   3.669  10.216  2.7759 -0.9129  0.4340
  869MOL0     H17298   9.920   3.840  10.133 -1.6740 -0.0968  0.2120
  869MOL0     H17299   9.924   3.568   9.439 -2.5740  1.7229  0.8318
  869MOL0     H17300   9.775   3.712   9.307 -0.5975 -0.0751 -1.5287
  869MOL0     H17301   9.717   4.007   8.985  0.5078  0.0043  0.3465
  869MOL0     H17302   9.502   4.099   8.887  3.9649 -0.4986 -1.1458
  869MOL0     H17303   9.286   4.377   9.142 -2.9220 -1.2393 -1.0478
  869MOL0     H17304   9.204   4.427   9.012 -0.2518 -0.2066 -0.3627
  869MOL0     H17305   9.492   4.530   9.035  0.6982  1.3304 -0.7138
  869MOL0     H17306   9.345   4.604   9.100 -0.4867 -1.6372  1.1704
  869MOL0     H17307   9.399   4.708   8.882 -1.7648  0.7528 -2.5548
  869MOL0     H17308   9.260   4.614   8.852 -0.0414 -1.1958  0.9055
  869MOL0     H17309   9.380   4.422   8.756  1.8641 -2.1485 -2.7334
  869MOL0     H17310   9.430   4.567   8.671 -2.5497 -0.3809  0.4638
  869MOL0     H17311   9.793   4.457   8.856  0.2647 -0.1363  2.1072
  869MOL0     H17312   9.476   4.373   9.223  1.6553  0.2674  0.3775
  869MOL0     H17313   9.803   4.344   9.328 -0.2610  1.6284  2.3728
  869MOL0     H17314   9.647   4.413   9.348  1.1543 -0.0658 -0.6488
  869MOL0     H17315   9.684   4.264   9.435 -2.9527 -0.9622 -0.1925
  870MOL0     O17316   0.505   3.910  11.122 -0.3441  0.7843  0.1360
  870MOL0     C17317   0.510   4.019  11.182 -0.6191 -0.7660 -0.0367
  870MOL0     O17318   0.397   4.095  11.192 -0.0295  0.1613 -0.0761
  870MOL0     C17319   0.281   4.050  11.133 -0.2171 -0.4719 -0.3936
  870MOL0     C17320   0.188   3.975  11.204  0.0546  0.2525  0.1462
  870MOL0     C17321   0.058   3.967  11.153 -0.8981 -0.2545  0.2921
  870MOL0     C17322   0.024   4.017  11.024  1.2818 -0.7026  0.5852
  870MOL0     O17323  -0.109   3.982  10.986 -0.4419  0.0615 -0.4087
  870MOL0     C17324  -0.177   4.060  10.886 -0.1019  0.4249  0.1058
  870MOL0     C17325  -0.191   4.200  10.931 -0.8037 -0.4982  0.5133
  870MOL0     C17326  -0.315   4.282  10.880 -0.2488  0.4993  0.7624
  870MOL0     C17327  -0.276   4.423  10.824  0.7233  0.6126  0.0972
  870MOL0     C17328  -0.404   4.501  10.793  0.0981 -0.1581  0.9880
  870MOL0     C17329  -0.395   4.602  10.677  0.1589  0.4010  0.3262
  870MOL0     C17330  -0.532   4.633  10.620  0.1214 -0.8374  0.1345
  870MOL0     C17331  -0.521   4.761  10.530  0.6068  0.3559  0.1304
  870MOL0     N17332  -0.657   4.809  10.507  0.1725  0.0733  1.0875
  870MOL0     C17333  -0.780   4.752  10.478  0.7391 -0.1640 -0.6712
  870MOL0     C17334  -0.855   4.849  10.433  0.6455 -0.0189  0.4153
  870MOL0     C17335  -1.005   4.835  10.412  0.7601  0.4678 -0.1585
  870MOL0     C17336  -1.040   4.737  10.292 -0.4187 -0.4509  0.8796
  870MOL0     C17337  -1.186   4.750  10.253 -0.4654  0.0292  0.2086
  870MOL0     C17338  -1.222   4.691  10.117 -0.0738  0.1164 -0.3371
  870MOL0     O17339  -1.188   4.553  10.109 -0.7645 -0.4572  0.2669
  870MOL0     C17340  -1.260   4.456  10.165  0.0746 -0.6190  0.8097
  870MOL0     C17341  -1.214   4.328  10.174 -0.8215  0.2698  0.1715
  870MOL0     C17342  -1.290   4.231  10.239 -0.3028  0.2574  0.4130
  870MOL0     C17343  -1.412   4.252  10.294  0.7165 -0.5730 -0.3708
  870MOL0     C17344  -1.492   4.152  10.369  0.3835  0.0050  0.2971
  870MOL0     O17345  -1.619   4.178  10.422  0.1141  0.9155 -0.2271
  870MOL0     C17346  -1.696   4.069  10.458 -0.3424  0.7043  0.7628
  870MOL0     C17347  -1.723   4.054  10.595 -0.2860  0.7900  0.1898
  870MOL0     C17348  -1.825   3.961  10.630  0.0083  0.0375  0.0916
  870MOL0     C17349  -1.885   3.876  10.533 -0.3197  0.7457 -0.8861
  870MOL0     O17350  -1.992   3.790  10.560 -0.4547  0.8720  0.9694
  870MOL0     C17351  -2.005   3.748  10.694 -0.1391 -0.2310 -0.2720
  870MOL0     C17352  -2.097   3.623  10.706 -0.7366 -0.1811  1.0774
  870MOL0     C17353  -2.056   3.542  10.833  0.4692  0.1664 -0.2739
  870MOL0     C17354  -2.171   3.450  10.870 -1.1115 -0.3387 -0.1794
  870MOL0     C17355  -2.177   3.424  11.020 -0.9048 -0.5485  0.0075
  870MOL0     C17356  -2.218   3.544  11.112 -0.6299  0.0365 -0.0316
  870MOL0     C17357  -2.223   3.501  11.258 -0.4993 -0.0855 -0.9152
  870MOL0     C17358  -2.346   3.559  11.341 -0.1520 -0.0425 -0.2121
  870MOL0    Cl17359  -2.483   3.487  11.285  0.4159 -0.0391 -0.3502
  870MOL0     C17360  -1.859   3.898  10.401 -1.5472  0.5272 -0.8288
  870MOL0     C17361  -1.761   3.991  10.364  1.0350  0.6254  0.4744
  870MOL0     O17362  -1.430   4.046  10.390  0.5199 -0.1682  0.1543
  870MOL0     C17363  -1.456   4.386  10.287  0.5795 -0.0734 -0.6764
  870MOL0     C17364  -1.375   4.486  10.237 -0.3918 -0.1214  0.6497
  870MOL0     N17365  -0.779   4.965  10.432 -0.0732 -0.2715  0.1171
  870MOL0     N17366  -0.667   4.942  10.473 -0.1419  0.5195  0.7719
  870MOL0     C17367   0.125   4.081  10.947  0.8338 -0.4937  0.0982
  870MOL0     C17368   0.253   4.099  11.006 -0.1049  0.2725  0.0554
  870MOL0     C17369   0.632   4.050  11.265  0.3064  0.4295  0.0803
  870MOL0     C17370   0.691   3.936  11.322 -1.3694  0.3606  0.1704
  870MOL0     C17371   0.812   3.944  11.394  0.6491 -0.5759  0.1140
  870MOL0     C17372   0.877   4.068  11.408  0.3131 -0.5197 -0.1081
  870MOL0     O17373   0.993   4.071  11.471  0.1814  0.8374 -0.1638
  870MOL0     C17374   1.077   4.186  11.470 -0.3447  0.0073  0.5436
  870MOL0     C17375   1.222   4.154  11.508  0.7003  0.3567 -0.7519
  870MOL0     C17376   1.216   4.102  11.656  0.1858 -0.0903  0.9238
  870MOL0     C17377   1.281   4.203  11.753 -0.0659  0.7293  0.4535
  870MOL0     C17378   1.214   4.330  11.753  0.2931 -0.7489 -1.1509
  870MOL0     C17379   1.152   4.443  11.753 -0.7095  0.0881 -0.2564
  870MOL0     C17380   0.821   4.183  11.356  0.1129 -1.4540 -0.2874
  870MOL0     C17381   0.696   4.179  11.288  0.2977 -0.4371  0.0971
  870MOL0     C17382   0.631   4.303  11.258 -0.0160 -0.5379 -0.0293
  870MOL0     H17383   0.202   3.946  11.308 -1.1569  1.9248  0.8343
  870MOL0     H17384  -0.017   3.907  11.204 -0.4871  0.0353  1.2812
  870MOL0     H17385  -0.121   4.038  10.795  2.0417 -1.7486  1.8116
  870MOL0     H17386  -0.275   4.016  10.866  2.0688 -4.0350 -2.0460
  870MOL0     H17387  -0.088   4.237  10.917  0.6252 -4.2962 -0.2965
  870MOL0     H17388  -0.200   4.202  11.040  0.9238  5.0333  0.8731
  870MOL0     H17389  -0.386   4.293  10.962 -0.9466 -0.4272  0.2942
  870MOL0     H17390  -0.368   4.224  10.805  1.5115  0.3583 -0.4427
  870MOL0     H17391  -0.221   4.489  10.892 -0.6708 -1.4263  3.4963
  870MOL0     H17392  -0.216   4.401  10.736  1.6601 -0.6469  1.0026
  870MOL0     H17393  -0.477   4.424  10.766  1.1074 -0.6791 -0.3253
  870MOL0     H17394  -0.440   4.558  10.880  0.4941 -1.9657  2.3758
  870MOL0     H17395  -0.341   4.686  10.722  0.9661  0.3866 -0.5865
  870MOL0     H17396  -0.332   4.554  10.602  0.1495 -0.7229  1.0211
  870MOL0     H17397  -0.592   4.681  10.698 -0.7226 -0.2174 -0.8605
  870MOL0     H17398  -0.577   4.547  10.570  1.3844 -0.7188 -1.2495
  870MOL0     H17399  -0.465   4.837  10.585  0.5357  0.0235  0.6806
  870MOL0     H17400  -0.469   4.730  10.439  2.2247 -0.5030  1.2808
  870MOL0     H17401  -0.805   4.647  10.471 -4.6841  0.9408 -2.8597
  870MOL0     H17402  -1.051   4.799  10.504  2.4647  0.4904  0.7499
  870MOL0     H17403  -1.049   4.931  10.382  0.4429 -0.2368 -2.0868
  870MOL0     H17404  -0.969   4.753  10.210  1.1442 -3.4780  1.4951
  870MOL0     H17405  -1.015   4.636  10.326  6.5454  1.1619  2.1760
  870MOL0     H17406  -1.184   4.858  10.233 -0.6329 -0.1437 -0.7604
  870MOL0     H17407  -1.247   4.711  10.335  0.7181  1.7378  1.9876
  870MOL0     H17408  -1.156   4.736  10.042  0.3484  1.6036  0.8648
  870MOL0     H17409  -1.327   4.708  10.093 -0.2044 -0.3441 -0.0920
  870MOL0     H17410  -1.113   4.323  10.132 -0.4153  3.6980  0.3883
  870MOL0     H17411  -1.236   4.137  10.242 -0.4392  0.1397 -0.4017
  870MOL0     H17412  -1.683   4.126  10.665 -1.4358 -1.5069  3.4180
  870MOL0     H17413  -1.849   3.953  10.736 -0.8852  2.8477  0.1890
  870MOL0     H17414  -1.906   3.726  10.734 -2.0418 -3.3024  3.3749
  870MOL0     H17415  -2.049   3.825  10.758 -1.7323 -0.4960 -0.9816
  870MOL0     H17416  -2.202   3.653  10.707 -0.9550 -0.7407 -1.0106
  870MOL0     H17417  -2.085   3.557  10.620 -3.2415  0.9306 -0.2296
  870MOL0     H17418  -1.967   3.483  10.809  0.5583  1.5987 -4.3679
  870MOL0     H17419  -2.024   3.604  10.916  1.2851 -1.1533  0.4386
  870MOL0     H17420  -2.163   3.357  10.813 -2.4509 -1.3257  1.1847
  870MOL0     H17421  -2.262   3.505  10.846 -1.7688 -0.9009  0.9565
  870MOL0     H17422  -2.081   3.380  11.049  0.5108  2.1522 -0.1798
  870MOL0     H17423  -2.252   3.346  11.035 -3.9579  1.8851 -1.4704
  870MOL0     H17424  -2.146   3.624  11.094  0.1587 -1.0823 -2.2309
  870MOL0     H17425  -2.318   3.573  11.079 -1.5515 -0.4122  2.1612
  870MOL0     H17426  -2.129   3.527  11.309 -1.0631 -0.3427  0.2830
  870MOL0     H17427  -2.217   3.393  11.275  2.2000  0.1181  0.0563
  870MOL0     H17428  -2.317   3.522  11.440  1.1983 -1.0941 -0.9608
  870MOL0     H17429  -2.342   3.668  11.349  2.8061 -0.2039  3.4876
  870MOL0     H17430  -1.908   3.832  10.331  1.8342 -3.9760  0.6192
  870MOL0     H17431  -1.734   3.994  10.259  1.8184 -3.6730  0.3570
  870MOL0     H17432  -1.550   4.414  10.333  0.6875 -2.4677  1.2052
  870MOL0     H17433  -1.420   4.584  10.228  1.3230  0.5519 -1.7072
  870MOL0     H17434   0.093   4.124  10.853 -1.0530  1.8585  1.7064
  870MOL0     H17435   0.336   4.145  10.954 -1.2938  1.0093 -1.2949
  870MOL0     H17436   0.647   3.840  11.300  1.1222 -0.5556 -1.2490
  870MOL0     H17437   0.861   3.857  11.437 -0.5970 -0.6870  1.3703
  870MOL0     H17438   1.036   4.258  11.542 -2.2769 -1.7838  1.3508
  870MOL0     H17439   1.076   4.238  11.375 -1.7847  0.6958  0.9027
  870MOL0     H17440   1.287   4.241  11.489 -0.5954  1.5738  0.1734
  870MOL0     H17441   1.248   4.068  11.446 -0.7519 -0.6277 -0.0507
  870MOL0     H17442   1.282   4.015  11.659  0.9661  0.2362 -2.7093
  870MOL0     H17443   1.116   4.073  11.691  0.0408  0.6864  1.1710
  870MOL0     H17444   1.288   4.166  11.856  2.2371  2.4681  1.0059
  870MOL0     H17445   1.376   4.220  11.702  0.4603  3.3065  2.0746
  870MOL0     H17446   1.097   4.534  11.758 -0.3108  0.2790  0.8044
  870MOL0     H17447   0.861   4.282  11.378  2.1343 -2.0790 -0.9608
  870MOL0     H17448   0.697   4.391  11.263 -0.4062 -0.2718  0.5029
  870MOL0     H17449   0.580   4.305  11.162  1.0374 -2.4951 -0.6764
  870MOL0     H17450   0.559   4.344  11.329  0.6308  1.2064 -0.3291
  871MOL0     O17451   1.652   1.825   5.124  0.1966 -0.9910 -0.4506
  871MOL0     C17452   1.726   1.774   5.041  0.6740  0.0815  1.0799
  871MOL0     O17453   1.740   1.806   4.906  0.2564 -0.4393 -0.5864
  871MOL0     C17454   1.681   1.920   4.863 -0.7386 -0.4596 -0.6417
  871MOL0     C17455   1.541   1.922   4.865 -0.2866  0.7342  0.5241
  871MOL0     C17456   1.476   2.031   4.802 -0.1981 -0.8137  0.1825
  871MOL0     C17457   1.554   2.120   4.721 -0.1433 -0.6578  0.1193
  871MOL0     O17458   1.495   2.224   4.651  0.4112 -0.1937  0.2434
  871MOL0     C17459   1.369   2.193   4.589  0.3932  0.8798 -0.7720
  871MOL0     C17460   1.265   2.263   4.678  0.2520 -0.2863 -0.3460
  871MOL0     C17461   1.123   2.207   4.635  0.0557  0.7317  0.0338
  871MOL0     C17462   1.010   2.271   4.725  0.4748  0.4199  0.2196
  871MOL0     C17463   0.861   2.255   4.690 -0.3876  0.0346  1.2912
  871MOL0     C17464   0.768   2.248   4.803 -0.5754  0.4076  0.9450
  871MOL0     C17465   0.617   2.297   4.763  0.4446 -0.9453 -0.2800
  871MOL0     C17466   0.548   2.357   4.889 -0.1499 -0.4309 -0.1770
  871MOL0     N17467   0.410   2.386   4.858  0.4503 -0.4139  0.0719
  871MOL0     C17468   0.361   2.469   4.760  0.0013  0.2867 -0.2515
  871MOL0     C17469   0.225   2.474   4.777 -0.1142 -0.6037 -0.2865
  871MOL0     C17470   0.136   2.558   4.692  0.5974  0.1553 -0.3950
  871MOL0     C17471   0.112   2.686   4.755  0.0075  0.3257  0.2016
  871MOL0     C17472  -0.008   2.762   4.685  0.3626 -0.0200  0.5097
  871MOL0     C17473  -0.040   2.893   4.776  0.2147  0.0325  0.0724
  871MOL0     O17474  -0.098   2.850   4.897 -0.1076 -0.0774 -0.4892
  871MOL0     C17475  -0.229   2.812   4.897  0.0801  0.0243 -1.1873
  871MOL0     C17476  -0.329   2.901   4.886  0.7522 -0.0082 -0.2383
  871MOL0     C17477  -0.455   2.873   4.888 -0.0031 -0.2229 -0.1255
  871MOL0     C17478  -0.489   2.739   4.894  0.2429 -0.4826  0.2875
  871MOL0     C17479  -0.625   2.696   4.874 -0.1221 -0.3090 -0.6495
  871MOL0     O17480  -0.706   2.778   4.809 -0.0314 -1.0381 -0.0044
  871MOL0     C17481  -0.819   2.713   4.756 -0.8576 -0.0063 -0.5024
  871MOL0     C17482  -0.831   2.649   4.635 -0.0033  0.5023  0.1956
  871MOL0     C17483  -0.964   2.607   4.599 -0.3841 -0.1545 -0.4342
  871MOL0     C17484  -1.076   2.606   4.679  0.6150  0.0749  0.3925
  871MOL0     O17485  -1.186   2.556   4.628  0.3391  0.5810  0.7000
  871MOL0     C17486  -1.295   2.495   4.709  0.5453 -0.5787  0.0952
  871MOL0     C17487  -1.414   2.466   4.613  0.3316  0.1753  0.3460
  871MOL0     C17488  -1.385   2.351   4.515  0.5795  0.0797 -0.0444
  871MOL0     C17489  -1.365   2.216   4.598  0.1266  0.7938  0.3446
  871MOL0     C17490  -1.363   2.088   4.509 -0.4028  1.0119  0.6575
  871MOL0     C17491  -1.376   1.963   4.600 -0.3137  1.3236  0.5999
  871MOL0     C17492  -1.298   1.841   4.546  0.7734  0.4828 -1.1116
  871MOL0     C17493  -1.321   1.724   4.640  0.1164  0.2616  0.0109
  871MOL0    Cl17494  -1.220   1.589   4.599 -0.4073  0.6638  0.0063
  871MOL0     C17495  -1.060   2.649   4.808 -0.2797 -0.0928 -0.0668
  871MOL0     C17496  -0.938   2.720   4.837 -0.3328  0.6763  0.2784
  871MOL0     O17497  -0.651   2.577   4.902 -0.1426 -0.4353  0.4695
  871MOL0     C17498  -0.394   2.637   4.902 -0.6071  0.4650 -0.1381
  871MOL0     C17499  -0.262   2.674   4.907  0.3050  0.3465 -0.6407
  871MOL0     N17500   0.196   2.381   4.876  1.1319 -0.6069  0.2292
  871MOL0     N17501   0.307   2.331   4.918 -0.0584  0.2480 -0.1655
  871MOL0     C17502   1.691   2.115   4.723 -0.3944  0.0225  0.0498
  871MOL0     C17503   1.758   2.021   4.803  0.3395 -0.7931 -0.4306
  871MOL0     C17504   1.817   1.678   5.086  1.1544  0.1769 -1.1587
  871MOL0     C17505   1.949   1.684   5.056  0.4673 -0.1339 -0.6517
  871MOL0     C17506   2.038   1.615   5.130  0.0500  0.0931  0.3449
  871MOL0     C17507   1.999   1.502   5.207 -0.1136  0.1309  0.5673
  871MOL0     O17508   2.087   1.420   5.286 -0.0198 -0.0159  0.1451
  871MOL0     C17509   2.221   1.464   5.312  0.3256 -0.0988 -0.2257
  871MOL0     C17510   2.283   1.337   5.381 -0.5959  0.2959  0.2022
  871MOL0     C17511   2.431   1.329   5.341  0.2850  0.1820  0.5680
  871MOL0     C17512   2.501   1.278   5.468 -1.3151  0.3612  0.2653
  871MOL0     C17513   2.538   1.386   5.554 -0.2873 -0.2923 -0.2636
  871MOL0     C17514   2.569   1.477   5.631  0.9038  0.6785 -0.0797
  871MOL0     C17515   1.859   1.483   5.232  0.6946  0.7078  0.1888
  871MOL0     C17516   1.766   1.574   5.178 -0.2982 -0.7948 -0.1857
  871MOL0     C17517   1.623   1.559   5.230  0.8129 -0.8773  0.3614
  871MOL0     H17518   1.500   1.842   4.925  0.7435  0.6308  1.1041
  871MOL0     H17519   1.368   2.038   4.804 -0.6319  0.0739 -6.0931
  871MOL0     H17520   1.372   2.230   4.486  0.9882  3.6703  0.1337
  871MOL0     H17521   1.350   2.086   4.588  0.7085  0.7593  1.1688
  871MOL0     H17522   1.280   2.369   4.659  1.7424 -0.6759 -1.5940
  871MOL0     H17523   1.285   2.255   4.785 -1.4010 -0.5613 -0.0350
  871MOL0     H17524   1.117   2.101   4.661  2.8018  0.7951  1.3555
  871MOL0     H17525   1.107   2.220   4.528 -2.2340 -0.5350  0.1457
  871MOL0     H17526   1.031   2.224   4.822 -1.8792  0.8348  0.9792
  871MOL0     H17527   1.036   2.375   4.744  1.0879  0.4988 -0.9926
  871MOL0     H17528   0.833   2.341   4.627  1.2782 -0.0027  0.4586
  871MOL0     H17529   0.847   2.162   4.634  1.0847  1.0550 -0.9074
  871MOL0     H17530   0.773   2.147   4.845  2.4016  0.7852  1.7484
  871MOL0     H17531   0.802   2.316   4.882  1.8527  1.2883 -0.7249
  871MOL0     H17532   0.563   2.214   4.718  0.2913 -1.5616  1.0049
  871MOL0     H17533   0.610   2.378   4.690 -2.4145 -1.1817 -0.3532
  871MOL0     H17534   0.551   2.287   4.973 -4.1113 -0.1949  0.3368
  871MOL0     H17535   0.581   2.453   4.930 -0.3746  0.6963 -2.4850
  871MOL0     H17536   0.426   2.516   4.687  0.1989  0.9330  0.3306
  871MOL0     H17537   0.189   2.567   4.597  1.3775 -4.4215 -0.6169
  871MOL0     H17538   0.044   2.507   4.661  1.3516 -3.0067  2.0474
  871MOL0     H17539   0.095   2.681   4.862 -1.9402  0.7573 -0.0476
  871MOL0     H17540   0.206   2.741   4.737 -0.1878  0.0894 -1.8581
  871MOL0     H17541  -0.099   2.703   4.676  0.1616  0.3924 -0.2176
  871MOL0     H17542   0.020   2.796   4.585 -2.5423 -1.1074 -0.7776
  871MOL0     H17543  -0.113   2.938   4.709 -1.3083 -4.2903 -1.5501
  871MOL0     H17544   0.052   2.948   4.797  0.9928 -0.5623 -1.5968
  871MOL0     H17545  -0.311   3.007   4.871 -1.3811  0.3417 -0.7543
  871MOL0     H17546  -0.534   2.945   4.870  0.0309  0.1448  1.1361
  871MOL0     H17547  -0.740   2.628   4.579  1.4672  2.2464  1.7996
  871MOL0     H17548  -0.976   2.559   4.502 -3.7777  0.2409 -0.3385
  871MOL0     H17549  -1.261   2.398   4.746 -0.9691 -1.9435 -1.8741
  871MOL0     H17550  -1.320   2.559   4.795  1.7163  0.8649 -0.5916
  871MOL0     H17551  -1.502   2.433   4.669  0.9201 -3.2707 -0.4971
  871MOL0     H17552  -1.432   2.550   4.546  0.7079 -0.6752 -0.8617
  871MOL0     H17553  -1.464   2.347   4.438 -0.4796 -0.8169  1.0438
  871MOL0     H17554  -1.295   2.357   4.454 -0.3293 -2.8378 -1.9001
  871MOL0     H17555  -1.451   2.225   4.665  0.9066 -0.2921  1.5348
  871MOL0     H17556  -1.277   2.212   4.663 -0.1610 -0.5079  0.6998
  871MOL0     H17557  -1.279   2.080   4.439  1.0099  1.9095  2.1742
  871MOL0     H17558  -1.448   2.094   4.441 -2.3068 -1.7701  2.5883
  871MOL0     H17559  -1.332   1.977   4.699  2.4593  0.6999 -0.4614
  871MOL0     H17560  -1.484   1.941   4.597  0.0343 -0.4851 -1.0545
  871MOL0     H17561  -1.197   1.881   4.556  0.7550  0.2006  0.4480
  871MOL0     H17562  -1.333   1.819   4.445 -2.7446 -0.5668  0.1514
  871MOL0     H17563  -1.283   1.763   4.735  2.4304 -0.1758 -0.6624
  871MOL0     H17564  -1.423   1.685   4.639  0.0884  0.2466  1.6127
  871MOL0     H17565  -1.143   2.644   4.878 -0.4834 -1.9146 -0.3904
  871MOL0     H17566  -0.925   2.755   4.939 -1.2540 -1.4420  1.1686
  871MOL0     H17567  -0.424   2.533   4.909 -2.4913  0.9343 -0.5075
  871MOL0     H17568  -0.193   2.593   4.927 -1.3956 -1.0058  0.1041
  871MOL0     H17569   1.741   2.175   4.648 -1.6383 -1.6268 -2.2351
  871MOL0     H17570   1.864   1.998   4.802 -0.0454 -3.0435  1.1903
  871MOL0     H17571   1.981   1.747   4.974 -4.4771 -0.0825 -2.8786
  871MOL0     H17572   2.143   1.636   5.115  0.1674 -1.8157 -2.2994
  871MOL0     H17573   2.237   1.550   5.378 -0.3866  2.1339 -2.7904
  871MOL0     H17574   2.261   1.489   5.214 -0.1052 -1.3091 -0.7410
  871MOL0     H17575   2.224   1.246   5.367 -0.0276  0.0944 -1.0155
  871MOL0     H17576   2.273   1.364   5.486  1.2439  0.1645  0.4498
  871MOL0     H17577   2.465   1.427   5.307 -2.3176  0.8867 -0.2391
  871MOL0     H17578   2.434   1.258   5.257 -0.6978 -1.5774  1.9563
  871MOL0     H17579   2.422   1.219   5.516 -1.0231  2.4663  3.7026
  871MOL0     H17580   2.591   1.218   5.456  0.5778  3.1418 -0.5201
  871MOL0     H17581   2.584   1.558   5.699 -0.5468  2.7048 -2.0335
  871MOL0     H17582   1.824   1.405   5.299  0.8304  3.0505  3.1810
  871MOL0     H17583   1.618   1.613   5.325  1.6803  0.6647 -0.4185
  871MOL0     H17584   1.554   1.609   5.161  3.1872  1.1292 -0.7172
  871MOL0     H17585   1.587   1.458   5.248  1.4253 -0.4559  4.9518
  872MOL0     O17586   2.352   9.930   8.313 -0.9644 -0.4821  0.3975
  872MOL0     C17587   2.269  10.010   8.356 -0.7773 -0.2780 -0.2718
  872MOL0     O17588   2.293  10.099   8.442 -0.0808  0.2267 -0.8842
  872MOL0     C17589   2.403  10.184   8.434  0.1895 -0.3783  0.2134
  872MOL0     C17590   2.457  10.233   8.315  0.1092 -0.4104 -0.2916
  872MOL0     C17591   2.559  10.332   8.316  0.4269 -0.4194  0.0310
  872MOL0     C17592   2.592  10.392   8.437 -0.1209  0.3416  0.2191
  872MOL0     O17593   2.692  10.484   8.448 -0.0452 -0.5975  0.5474
  872MOL0     C17594   2.789  10.472   8.338 -0.4381  0.3836 -0.2833
  872MOL0     C17595   2.922  10.529   8.379  0.0224  0.5735 -0.7483
  872MOL0     C17596   3.033  10.510   8.275  0.3148 -0.6769  0.8200
  872MOL0     C17597   3.169  10.554   8.332 -0.1340 -0.2461 -0.1749
  872MOL0     C17598   3.266  10.512   8.230 -0.8060  0.3442  0.8657
  872MOL0     C17599   3.414  10.559   8.253  0.7249 -0.8714  0.6291
  872MOL0     C17600   3.478  10.480   8.371  0.7875  0.3683 -0.4295
  872MOL0     C17601   3.630  10.510   8.363  0.2606 -0.7213 -0.3941
  872MOL0     N17602   3.721  10.509   8.483 -0.0387 -0.2895 -0.2580
  872MOL0     C17603   3.859  10.483   8.487  0.6934  0.3444  0.7191
  872MOL0     C17604   3.908  10.491   8.612  0.6182  0.0630 -0.7713
  872MOL0     C17605   4.049  10.429   8.655 -0.4943  0.2404  0.4006
  872MOL0     C17606   4.037  10.278   8.692 -0.0020 -0.1445 -0.5077
  872MOL0     C17607   4.181  10.212   8.702  0.2475 -0.0211 -0.7070
  872MOL0     C17608   4.169  10.071   8.756 -0.0493  0.0427 -0.2741
  872MOL0     O17609   4.299  10.007   8.785  0.7270 -0.4456  0.4795
  872MOL0     C17610   4.309   9.871   8.775  1.2736  0.7908  0.0220
  872MOL0     C17611   4.193   9.782   8.769 -0.3320  0.0453  0.4090
  872MOL0     C17612   4.213   9.636   8.752  0.5830  0.1289  0.1034
  872MOL0     C17613   4.344   9.584   8.745  0.6404 -0.4165  0.7774
  872MOL0     C17614   4.371   9.437   8.746 -0.6682 -0.3659 -0.1193
  872MOL0     O17615   4.503   9.402   8.731  0.6104 -0.9618  0.2975
  872MOL0     C17616   4.544   9.271   8.716  0.5642 -0.3231 -0.1382
  872MOL0     C17617   4.680   9.250   8.690  0.7555  0.2558  1.2879
  872MOL0     C17618   4.736   9.124   8.681  0.4372  0.3482  0.7686
  872MOL0     C17619   4.665   9.006   8.690  0.7890 -0.0072 -0.4222
  872MOL0     O17620   4.742   8.889   8.674 -0.0930  0.7727 -0.5526
  872MOL0     C17621   4.685   8.782   8.604 -0.2322  0.2463 -0.1975
  872MOL0     C17622   4.791   8.698   8.537 -0.6536 -0.3491  0.1823
  872MOL0     C17623   4.865   8.744   8.414 -0.1717 -0.1964 -0.3152
  872MOL0     C17624   4.912   8.623   8.338  0.5955 -0.0178 -0.3489
  872MOL0     C17625   5.013   8.678   8.234 -0.2280 -0.2281  0.2559
  872MOL0     C17626   5.053   8.576   8.134  1.1037 -0.6654  0.6209
  872MOL0     C17627   5.169   8.634   8.042 -0.7403 -0.1077  0.2548
  872MOL0     C17628   5.211   8.553   7.915 -0.3168  0.1854  0.4595
  872MOL0    Cl17629   5.262   8.386   7.939 -0.0248 -0.4435  0.1685
  872MOL0     C17630   4.525   9.026   8.695 -0.1450  0.2483 -0.7349
  872MOL0     C17631   4.468   9.150   8.711  0.2134  0.3787 -0.1646
  872MOL0     O17632   4.274   9.363   8.730  0.1549 -0.7664  0.2437
  872MOL0     C17633   4.449   9.677   8.741  0.1181 -0.0768 -0.7880
  872MOL0     C17634   4.422   9.808   8.750  0.3476  0.2893  0.0258
  872MOL0     N17635   3.791  10.519   8.685  0.1435 -1.2823  0.3086
  872MOL0     N17636   3.682  10.535   8.612 -0.8508 -0.8423  0.3239
  872MOL0     C17637   2.555  10.330   8.551  0.0070 -0.8475 -0.2728
  872MOL0     C17638   2.463  10.227   8.546  0.0564 -0.3880  0.1341
  872MOL0     C17639   2.134   9.984   8.325 -0.2490 -0.3288  0.9031
  872MOL0     C17640   2.034  10.023   8.413  0.5106  0.9450 -0.9702
  872MOL0     C17641   1.896   9.998   8.383  0.4488  0.6466  0.4058
  872MOL0     C17642   1.856   9.929   8.265  0.5608  0.6060  0.9666
  872MOL0     O17643   1.726   9.907   8.223 -0.6954 -0.4683 -0.9342
  872MOL0     C17644   1.625   9.912   8.327  0.0484 -0.0793  0.3878
  872MOL0     C17645   1.498   9.849   8.270 -1.2238  0.6617  0.3473
  872MOL0     C17646   1.515   9.701   8.236  0.3389  1.8470 -0.0089
  872MOL0     C17647   1.377   9.642   8.186  0.5165  0.1448 -0.6197
  872MOL0     C17648   1.374   9.674   8.042 -0.3670 -0.1201 -0.1665
  872MOL0     C17649   1.354   9.710   7.926 -0.0286 -0.0023  0.6331
  872MOL0     C17650   1.957   9.889   8.178  0.5375 -0.2416 -0.1833
  872MOL0     C17651   2.092   9.918   8.205 -0.6924 -0.1920  0.9430
  872MOL0     C17652   2.181   9.883   8.089  1.3567 -0.1819  0.1836
  872MOL0     H17653   2.415  10.197   8.222  0.0927 -1.1859  0.0098
  872MOL0     H17654   2.596  10.373   8.223  0.4283  2.6341  1.2629
  872MOL0     H17655   2.817  10.367   8.329  3.6544  1.3291 -0.6571
  872MOL0     H17656   2.757  10.513   8.242 -1.5905  1.5983  0.5875
  872MOL0     H17657   2.950  10.487   8.476  1.0767  2.8317  0.0009
  872MOL0     H17658   2.904  10.637   8.379  2.8894  1.1967  2.1937
  872MOL0     H17659   3.011  10.560   8.180  3.5306  2.2868  1.4512
  872MOL0     H17660   3.033  10.403   8.251 -1.1517 -0.3216 -0.9862
  872MOL0     H17661   3.172  10.662   8.343 -0.8656  0.0072 -2.0553
  872MOL0     H17662   3.196  10.510   8.429 -0.2895  1.6011  0.7353
  872MOL0     H17663   3.273  10.403   8.225  1.3477  0.3697  1.9164
  872MOL0     H17664   3.243  10.547   8.129  2.8306  1.9244  0.4121
  872MOL0     H17665   3.476  10.549   8.163  3.0105 -1.2902  2.1621
  872MOL0     H17666   3.405  10.662   8.287 -0.7755 -0.4702 -0.8428
  872MOL0     H17667   3.460  10.374   8.350 -0.7784  0.4845  0.2037
  872MOL0     H17668   3.426  10.504   8.464  1.4076 -1.4400  0.4323
  872MOL0     H17669   3.678  10.431   8.305  2.0570  0.5854 -0.7617
  872MOL0     H17670   3.649  10.597   8.299  0.4929 -0.9429 -0.6332
  872MOL0     H17671   3.924  10.451   8.406  0.3421  0.7271  0.2818
  872MOL0     H17672   4.116  10.445   8.571 -1.1733  0.2169 -0.1601
  872MOL0     H17673   4.098  10.478   8.739  0.8176  0.8557 -0.7044
  872MOL0     H17674   3.989  10.266   8.789 -0.8700 -1.6573 -1.0828
  872MOL0     H17675   3.980  10.216   8.622  1.4289 -3.3413  0.9261
  872MOL0     H17676   4.241  10.273   8.769 -0.1739 -0.1244 -0.2310
  872MOL0     H17677   4.240  10.212   8.610  1.5028  1.8229  0.0441
  872MOL0     H17678   4.102  10.020   8.687 -0.9265  2.8178 -1.6395
  872MOL0     H17679   4.113  10.087   8.849 -0.0427  1.6799 -0.5103
  872MOL0     H17680   4.094   9.826   8.769  0.9329  3.1579  0.5697
  872MOL0     H17681   4.131   9.567   8.763  1.5239 -1.2788 -1.3425
  872MOL0     H17682   4.740   9.340   8.692  2.0692 -0.5576  0.2109
  872MOL0     H17683   4.841   9.100   8.673 -0.4860 -4.7099  0.5901
  872MOL0     H17684   4.654   8.710   8.681  0.2792  1.4402  1.1562
  872MOL0     H17685   4.610   8.811   8.531  0.5204  1.4070 -0.5361
  872MOL0     H17686   4.864   8.668   8.613 -2.0769 -2.0181  0.9475
  872MOL0     H17687   4.725   8.615   8.510 -0.4629 -0.1893 -0.7952
  872MOL0     H17688   4.797   8.809   8.359 -2.5431 -1.7873  0.5737
  872MOL0     H17689   4.957   8.800   8.436  1.7843 -3.8262  1.9301
  872MOL0     H17690   4.824   8.574   8.295  0.0650  0.0694  0.6239
  872MOL0     H17691   4.964   8.550   8.401  0.9754  0.8041  0.3187
  872MOL0     H17692   5.103   8.720   8.279  0.2518  1.6519 -2.2493
  872MOL0     H17693   4.967   8.764   8.184  0.4641  0.9305  1.5528
  872MOL0     H17694   5.089   8.481   8.176  3.8560 -0.4175 -0.9363
  872MOL0     H17695   4.965   8.580   8.070  0.8364  3.5750  0.9579
  872MOL0     H17696   5.258   8.639   8.105 -2.8207 -0.6326  3.4987
  872MOL0     H17697   5.155   8.739   8.015  2.0769 -0.0820 -1.4997
  872MOL0     H17698   5.117   8.545   7.859  0.1756 -1.4607 -0.2018
  872MOL0     H17699   5.285   8.607   7.856  0.0457 -0.9780 -0.1719
  872MOL0     H17700   4.455   8.943   8.701 -0.9042  0.8844 -0.6220
  872MOL0     H17701   4.359   9.152   8.718  0.2604 -0.4185  1.1446
  872MOL0     H17702   4.552   9.643   8.744  0.3112  0.4226 -1.4218
  872MOL0     H17703   4.508   9.874   8.742  0.5380  0.5180  2.9179
  872MOL0     H17704   2.575  10.366   8.651  0.5070 -0.6635 -0.4344
  872MOL0     H17705   2.439  10.196   8.647  3.3600  0.1401  1.2356
  872MOL0     H17706   2.055  10.087   8.497  1.0972 -1.5170  0.8713
  872MOL0     H17707   1.821  10.051   8.441  1.3309  0.6322  1.6085
  872MOL0     H17708   1.608  10.019   8.340  0.4675 -0.0675  0.8295
  872MOL0     H17709   1.648   9.862   8.421  1.9596 -0.3883 -0.1994
  872MOL0     H17710   1.473   9.909   8.182 -0.4016  1.4305  0.6181
  872MOL0     H17711   1.418   9.860   8.344 -2.7408 -1.8175 -0.7692
  872MOL0     H17712   1.544   9.648   8.327 -0.6646  1.1340 -0.0930
  872MOL0     H17713   1.594   9.675   8.164  0.1177  3.5245 -0.9400
  872MOL0     H17714   1.367   9.535   8.204 -2.0294  0.3703 -0.3242
  872MOL0     H17715   1.299   9.695   8.241  2.2659  0.7716  1.3466
  872MOL0     H17716   1.337   9.735   7.823  0.1981  2.1749  1.0788
  872MOL0     H17717   1.935   9.844   8.082  0.7603 -1.0133  0.1182
  872MOL0     H17718   2.239   9.973   8.070  2.1018 -0.9621 -1.4376
  872MOL0     H17719   2.236   9.792   8.118 -5.4951 -5.1869  0.1293
  872MOL0     H17720   2.130   9.855   7.996  0.8200 -2.0895  0.9972
  873MOL0     O17721   9.355   2.386   1.364  1.1198  0.1499 -0.2857
  873MOL0     C17722   9.473   2.345   1.359  0.2323  0.0236  0.0384
  873MOL0     O17723   9.514   2.221   1.405  0.0773 -0.6517  0.4587
  873MOL0     C17724   9.412   2.154   1.462 -0.8526 -0.5289 -0.1112
  873MOL0     C17725   9.356   2.044   1.389 -0.1052 -0.0132 -0.5097
  873MOL0     C17726   9.251   1.975   1.448  0.8302  0.3634  0.2176
  873MOL0     C17727   9.204   2.003   1.575  0.7208  0.1258  0.4343
  873MOL0     O17728   9.112   1.923   1.638 -0.3451  0.3614  0.4942
  873MOL0     C17729   9.071   1.952   1.769  0.1339 -0.0088 -0.0889
  873MOL0     C17730   8.965   1.842   1.813 -0.0848  0.2929  0.0134
  873MOL0     C17731   9.031   1.701   1.805  0.5820  0.1040 -0.0510
  873MOL0     C17732   8.937   1.584   1.851  0.4002  0.3535  0.3274
  873MOL0     C17733   9.018   1.456   1.860 -0.1914  0.0754 -0.0540
  873MOL0     C17734   8.932   1.332   1.877 -0.2652 -0.1313  0.3840
  873MOL0     C17735   9.014   1.197   1.875 -0.9789  0.7671 -0.6511
  873MOL0     C17736   9.161   1.201   1.944  0.4102  0.5972  1.2229
  873MOL0     N17737   9.207   1.070   2.008  0.2803  0.4814 -0.3576
  873MOL0     C17738   9.331   1.057   2.057 -0.4946  0.2729 -0.1943
  873MOL0     C17739   9.329   0.926   2.112 -0.3675 -0.7878 -0.4252
  873MOL0     C17740   9.439   0.847   2.174  0.1331  0.5705  0.2399
  873MOL0     C17741   9.453   0.869   2.329  0.0644  0.5994  0.1964
  873MOL0     C17742   9.588   0.934   2.370 -0.2114 -0.1219 -0.7535
  873MOL0     C17743   9.710   0.858   2.324  0.3394 -0.2162 -0.1293
  873MOL0     O17744   9.722   0.737   2.395  0.1884 -0.0557 -0.0788
  873MOL0     C17745   9.854   0.707   2.446  0.0870  0.5492  0.5622
  873MOL0     C17746   9.944   0.625   2.381 -0.1922  0.7885 -0.2551
  873MOL0     C17747  10.073   0.618   2.423 -0.1074 -0.0481  0.5903
  873MOL0     C17748  10.123   0.695   2.535 -0.3693  0.9784 -0.1119
  873MOL0     C17749  10.256   0.674   2.574 -0.3696  0.0024 -0.1832
  873MOL0     O17750  10.337   0.584   2.509  0.4525  0.4823  0.1657
  873MOL0     C17751  10.470   0.578   2.535  0.2292 -0.5319 -0.1109
  873MOL0     C17752  10.547   0.638   2.434 -0.1129 -0.4488  0.7883
  873MOL0     C17753  10.687   0.626   2.446 -0.5483 -0.1905 -0.1459
  873MOL0     C17754  10.750   0.559   2.552  0.5492  0.8698  0.5831
  873MOL0     O17755  10.880   0.570   2.557 -0.0710 -0.2290 -0.5660
  873MOL0     C17756  10.964   0.504   2.457  0.1564  1.7681  0.2550
  873MOL0     C17757  11.113   0.466   2.502  1.2579  0.1270 -0.3688
  873MOL0     C17758  11.191   0.423   2.377 -0.8569 -0.2843  0.0430
  873MOL0     C17759  11.327   0.366   2.419  0.5026 -0.5870 -0.5884
  873MOL0     C17760  11.423   0.344   2.305  0.1004  0.1483 -0.3603
  873MOL0     C17761  11.366   0.250   2.193  0.0115 -0.1955  0.2929
  873MOL0     C17762  11.453   0.194   2.084 -0.3327  0.4991  0.6999
  873MOL0     C17763  11.560   0.088   2.137  0.0420 -0.7052 -0.0888
  873MOL0    Cl17764  11.654   0.038   2.000 -0.6673 -0.0703 -0.0627
  873MOL0     C17765  10.663   0.514   2.654 -0.4798 -0.3978 -0.0670
  873MOL0     C17766  10.524   0.520   2.648  0.3736 -0.8198 -0.0462
  873MOL0     O17767  10.305   0.749   2.649 -0.5685  0.1055  0.2583
  873MOL0     C17768  10.031   0.769   2.605 -0.3563 -0.7807 -0.9706
  873MOL0     C17769   9.903   0.778   2.559  0.3294 -0.5504  0.2924
  873MOL0     N17770   9.207   0.871   2.099  0.9109  0.6584  0.0872
  873MOL0     N17771   9.131   0.957   2.036 -0.1048 -0.1301 -0.0715
  873MOL0     C17772   9.269   2.114   1.649 -0.5686  0.2147  0.0192
  873MOL0     C17773   9.371   2.191   1.596 -0.7546  0.2984  0.2760
  873MOL0     C17774   9.590   2.419   1.294 -0.3974  0.1904  0.1750
  873MOL0     C17775   9.714   2.345   1.273 -0.7043 -0.2391 -0.1356
  873MOL0     C17776   9.815   2.410   1.203  0.0379  0.3318 -0.8254
  873MOL0     C17777   9.799   2.542   1.170  0.6306 -0.0342 -0.0494
  873MOL0     O17778   9.911   2.592   1.115 -0.5112 -0.1913 -0.3955
  873MOL0     C17779   9.924   2.725   1.072 -0.0070 -0.5949  0.0890
  873MOL0     C17780   9.838   2.742   0.940 -0.1480 -1.1299  0.0619
  873MOL0     C17781   9.879   2.645   0.835 -0.0329 -0.4471  0.3308
  873MOL0     C17782   9.777   2.633   0.715 -0.4549 -0.2650  0.0185
  873MOL0     C17783   9.632   2.632   0.745 -0.2459  0.1956  0.5154
  873MOL0     C17784   9.515   2.620   0.785  0.2608 -0.0836  0.5271
  873MOL0     C17785   9.679   2.610   1.187  0.0450  0.6204  0.8532
  873MOL0     C17786   9.571   2.548   1.243  0.0094 -0.0974 -0.7569
  873MOL0     C17787   9.449   2.635   1.269  0.3727 -0.1973  0.0385
  873MOL0     H17788   9.377   2.031   1.284 -1.5583  0.3697 -0.8632
  873MOL0     H17789   9.202   1.892   1.397  0.3344  2.2616 -2.6600
  873MOL0     H17790   9.153   1.959   1.840  0.2548 -0.6629 -0.1573
  873MOL0     H17791   9.021   2.049   1.773  2.7456  1.4373 -0.1542
  873MOL0     H17792   8.875   1.835   1.750 -0.9073  1.7519  0.9811
  873MOL0     H17793   8.939   1.857   1.918 -0.8210  0.9093 -0.2480
  873MOL0     H17794   9.120   1.705   1.870 -1.3821 -2.6477  3.0965
  873MOL0     H17795   9.049   1.671   1.701 -5.2232 -0.6707 -1.1402
  873MOL0     H17796   8.894   1.608   1.949 -2.0237  0.0330 -0.5851
  873MOL0     H17797   8.869   1.561   1.769  1.9715  1.5164 -1.3954
  873MOL0     H17798   9.079   1.457   1.769 -0.6479  1.4188 -0.3711
  873MOL0     H17799   9.078   1.469   1.951  1.4627  4.5516 -1.5042
  873MOL0     H17800   8.887   1.339   1.977  0.7746  0.0760  0.8536
  873MOL0     H17801   8.865   1.318   1.793 -1.7052  0.9509  1.3156
  873MOL0     H17802   9.022   1.159   1.773  2.7645  0.4071 -0.3745
  873MOL0     H17803   8.961   1.115   1.924  0.3388  0.4864  0.3808
  873MOL0     H17804   9.223   1.220   1.856  1.6936 -1.7964  1.5152
  873MOL0     H17805   9.170   1.287   2.010 -0.2605  1.4170  0.2834
  873MOL0     H17806   9.416   1.123   2.039  1.9575 -2.4520  0.7778
  873MOL0     H17807   9.433   0.741   2.147 -1.5735  0.7574 -0.2256
  873MOL0     H17808   9.523   0.884   2.114 -0.1536 -1.5640 -1.6161
  873MOL0     H17809   9.369   0.932   2.359  0.2001  1.1557 -0.5527
  873MOL0     H17810   9.436   0.773   2.380  0.8365 -0.7728 -1.9776
  873MOL0     H17811   9.594   0.945   2.478 -0.2165 -3.4109 -0.3314
  873MOL0     H17812   9.596   1.026   2.312 -2.0174 -0.0856 -1.0133
  873MOL0     H17813   9.799   0.921   2.327 -1.6216  2.7289  2.5259
  873MOL0     H17814   9.697   0.835   2.217  0.7118  5.0195 -1.5906
  873MOL0     H17815   9.909   0.572   2.293  2.9034 -1.9997 -0.0280
  873MOL0     H17816  10.146   0.558   2.369 -0.3851 -0.0681  0.2266
  873MOL0     H17817  10.520   0.694   2.346  2.7227 -1.1523 -0.6537
  873MOL0     H17818  10.742   0.676   2.367 -1.2098 -3.6819 -3.1021
  873MOL0     H17819  10.918   0.410   2.424  3.1605  0.9515 -2.0415
  873MOL0     H17820  10.960   0.570   2.370  0.4239  0.5393 -0.7137
  873MOL0     H17821  11.151   0.563   2.534  0.6476 -0.0239  0.8944
  873MOL0     H17822  11.116   0.389   2.580  2.2190 -0.4157 -0.9232
  873MOL0     H17823  11.141   0.347   2.317 -2.1079 -1.1888  2.0969
  873MOL0     H17824  11.213   0.511   2.316  3.3102 -0.0031  1.5781
  873MOL0     H17825  11.294   0.271   2.462  1.3267  0.0182  1.5492
  873MOL0     H17826  11.360   0.435   2.498 -1.0438  0.2897 -0.6460
  873MOL0     H17827  11.519   0.314   2.349 -0.1090  1.5759  1.1950
  873MOL0     H17828  11.450   0.438   2.255 -1.2703  0.9392  0.3279
  873MOL0     H17829  11.324   0.161   2.241  0.7656 -0.0397  1.2808
  873MOL0     H17830  11.283   0.303   2.145  0.6054  1.8140  1.3909
  873MOL0     H17831  11.501   0.264   2.016 -0.2078 -0.2669 -0.0149
  873MOL0     H17832  11.391   0.134   2.017  0.5720 -0.0279  0.3178
  873MOL0     H17833  11.624   0.140   2.209  0.2498 -2.6973  1.2259
  873MOL0     H17834  11.514   0.005   2.190  4.3954 -1.6180  2.8068
  873MOL0     H17835  10.706   0.464   2.741 -1.8788 -4.2962 -1.4037
  873MOL0     H17836  10.446   0.474   2.709  1.8376 -3.3260  0.0983
  873MOL0     H17837  10.064   0.814   2.697 -0.8221 -2.5563  0.1143
  873MOL0     H17838   9.829   0.842   2.608  0.8130 -1.2291  2.0053
  873MOL0     H17839   9.231   2.132   1.750  0.7725  2.1865  0.2271
  873MOL0     H17840   9.429   2.270   1.643 -1.0490 -0.0781  1.2951
  873MOL0     H17841   9.739   2.242   1.296  0.1341 -0.2877 -1.2254
  873MOL0     H17842   9.911   2.374   1.167  0.0972  1.5696 -1.9787
  873MOL0     H17843  10.030   2.745   1.058 -0.1944  0.1366 -0.3726
  873MOL0     H17844   9.872   2.794   1.140  2.4505  0.9747  0.4776
  873MOL0     H17845   9.866   2.843   0.908 -1.5403 -0.9791 -0.7320
  873MOL0     H17846   9.732   2.720   0.956 -0.2373 -1.2783 -0.6939
  873MOL0     H17847   9.892   2.542   0.870  2.9368 -0.2028  0.2283
  873MOL0     H17848   9.979   2.685   0.814 -1.0042  2.0767  0.3030
  873MOL0     H17849   9.792   2.719   0.649  2.7249  0.4436  1.4775
  873MOL0     H17850   9.799   2.543   0.656 -2.2256  0.6611 -2.1965
  873MOL0     H17851   9.423   2.606   0.839  1.9471 -1.5455  3.2495
  873MOL0     H17852   9.665   2.715   1.162  0.5660  0.7091  0.9056
  873MOL0     H17853   9.396   2.621   1.364 -1.6603 -3.6859 -1.3939
  873MOL0     H17854   9.472   2.741   1.273  1.9635 -0.4924 -0.6151
  873MOL0     H17855   9.371   2.623   1.194 -1.2694  2.4957  1.1726
  874MOL0     O17856  11.138   3.060   9.802  0.0009 -0.1347 -0.0192
  874MOL0     C17857  11.144   3.032   9.921  0.1024  0.6299  0.3145
  874MOL0     O17858  11.126   2.902   9.974 -0.3107 -0.1844 -0.0028
  874MOL0     C17859  11.113   2.804   9.884  0.0326  0.2760  0.1449
  874MOL0     C17860  11.215   2.742   9.816 -0.0123 -0.8565  0.0340
  874MOL0     C17861  11.180   2.638   9.722  0.8257 -0.4904 -1.2695
  874MOL0     C17862  11.050   2.592   9.705  0.6750 -0.7603  0.3505
  874MOL0     O17863  11.037   2.486   9.619 -0.0448  0.3933  0.0022
  874MOL0     C17864  10.915   2.415   9.633 -0.4799  0.0536  0.6521
  874MOL0     C17865  10.806   2.483   9.534 -0.6586 -0.6181  0.5127
  874MOL0     C17866  10.661   2.452   9.580 -0.8448  0.3018 -0.4181
  874MOL0     C17867  10.557   2.504   9.486 -0.1598  0.1249  0.4903
  874MOL0     C17868  10.542   2.436   9.348 -0.4153 -0.3012 -0.4499
  874MOL0     C17869  10.447   2.533   9.259  0.2028  0.8966 -0.1778
  874MOL0     C17870  10.448   2.498   9.116 -0.1219 -0.8339  0.2576
  874MOL0     C17871  10.582   2.516   9.054  0.2530  0.3513 -1.0883
  874MOL0     N17872  10.640   2.649   9.068  0.3500 -0.3027 -0.6323
  874MOL0     C17873  10.749   2.671   9.154 -0.4068 -0.9405 -0.4851
  874MOL0     C17874  10.770   2.813   9.150  0.4498  0.5868 -1.1400
  874MOL0     C17875  10.860   2.903   9.231 -0.3027  1.3312 -0.3146
  874MOL0     C17876  10.843   2.870   9.388  0.0781  0.2217  1.2697
  874MOL0     C17877  10.969   2.832   9.464 -0.3085  0.1358  0.1440
  874MOL0     C17878  11.053   2.958   9.493 -0.3296  0.0880 -0.2067
  874MOL0     O17879  11.069   3.050   9.376 -0.2657 -0.1753 -0.4340
  874MOL0     C17880  11.202   3.075   9.346  0.0253  0.2539 -0.9292
  874MOL0     C17881  11.278   3.156   9.438  1.2204  0.0094 -0.9812
  874MOL0     C17882  11.412   3.185   9.418  0.0496  0.6179 -0.1414
  874MOL0     C17883  11.476   3.124   9.308  0.0368 -0.7224 -0.3309
  874MOL0     C17884  11.620   3.149   9.280 -0.3187 -0.5154 -0.4174
  874MOL0     O17885  11.676   3.090   9.171  0.4505  0.4769 -0.1575
  874MOL0     C17886  11.806   3.091   9.128  0.4220  0.1530 -0.5286
  874MOL0     C17887  11.887   3.206   9.139  0.2819  1.3645  0.9609
  874MOL0     C17888  12.021   3.186   9.101 -0.5694 -0.4256  0.2400
  874MOL0     C17889  12.075   3.068   9.070 -0.3360 -0.9794  1.4470
  874MOL0     O17890  12.211   3.070   9.038  0.4771 -0.1410 -0.0171
  874MOL0     C17891  12.267   2.976   8.945 -0.0280  0.0973  0.1916
  874MOL0     C17892  12.412   3.003   8.917  0.0114  0.3198 -0.5908
  874MOL0     C17893  12.472   2.959   8.786 -0.3760 -0.4532 -0.0759
  874MOL0     C17894  12.444   2.799   8.771 -0.3698 -0.5641  0.7142
  874MOL0     C17895  12.445   2.753   8.624 -0.9724 -0.4549 -0.1196
  874MOL0     C17896  12.433   2.599   8.630  0.0364  0.2858  0.1229
  874MOL0     C17897  12.397   2.540   8.493 -0.2022  0.4185  0.1874
  874MOL0     C17898  12.374   2.392   8.498 -0.6962 -0.8118  0.1271
  874MOL0    Cl17899  12.352   2.331   8.327  0.2505 -0.2162 -0.2498
  874MOL0     C17900  11.998   2.955   9.068  0.6580  0.7771  0.1186
  874MOL0     C17901  11.862   2.966   9.097 -0.4583 -0.8724  0.5705
  874MOL0     O17902  11.674   3.229   9.358  0.4120 -0.3569 -0.1963
  874MOL0     C17903  11.401   3.052   9.211  1.3458  0.8631 -0.2264
  874MOL0     C17904  11.266   3.023   9.228  0.5045  0.6288 -0.2931
  874MOL0     N17905  10.670   2.860   9.065  0.5498 -0.7770 -0.2369
  874MOL0     N17906  10.590   2.764   9.014 -0.3572  0.2142  0.3819
  874MOL0     C17907  10.949   2.656   9.771 -0.0954 -0.6018 -0.0666
  874MOL0     C17908  10.985   2.758   9.856  0.1513  0.5316  0.6599
  874MOL0     C17909  11.151   3.143  10.018 -0.0231  0.6537 -0.8226
  874MOL0     C17910  11.112   3.114  10.151  0.1249 -0.1693  0.4809
  874MOL0     C17911  11.114   3.208  10.253 -0.3631  1.6108 -0.3747
  874MOL0     C17912  11.160   3.335  10.231  0.6072 -0.5505  0.8744
  874MOL0     O17913  11.165   3.426  10.335 -0.2420 -0.1417  0.0265
  874MOL0     C17914  11.229   3.560  10.324  0.4428  0.6278  0.0633
  874MOL0     C17915  11.127   3.668  10.319  0.4418  0.0970 -1.8785
  874MOL0     C17916  11.033   3.668  10.194  0.5559 -0.5107 -0.0781
  874MOL0     C17917  10.916   3.775  10.204 -0.1927 -0.3508  0.2773
  874MOL0     C17918  10.957   3.901  10.158 -0.2221  0.4169 -0.4613
  874MOL0     C17919  10.994   4.013  10.127  0.8297  0.3697  0.8688
  874MOL0     C17920  11.193   3.375  10.098 -0.8041 -0.1158  0.8013
  874MOL0     C17921  11.209   3.274   9.997 -0.1261 -0.5248 -0.0575
  874MOL0     C17922  11.257   3.326   9.856 -0.1118 -1.0381 -0.2573
  874MOL0     H17923  11.321   2.757   9.831  0.0783 -0.4706 -0.9394
  874MOL0     H17924  11.264   2.596   9.667  2.7167  0.4941  0.7162
  874MOL0     H17925  10.922   2.314   9.591  1.6259  1.4427 -2.7532
  874MOL0     H17926  10.882   2.422   9.737 -2.7451  1.4514 -0.0969
  874MOL0     H17927  10.822   2.444   9.434  0.6032  2.1673 -0.4737
  874MOL0     H17928  10.811   2.592   9.544 -0.0655 -0.6333  0.4199
  874MOL0     H17929  10.637   2.482   9.683  1.9869 -0.6496  0.6155
  874MOL0     H17930  10.636   2.346   9.573 -3.0465  0.8345 -1.7543
  874MOL0     H17931  10.456   2.503   9.528 -0.0550  1.6487  0.8525
  874MOL0     H17932  10.570   2.610   9.459 -1.0161 -0.0428 -0.6340
  874MOL0     H17933  10.638   2.431   9.295  0.6624 -0.6053  1.4470
  874MOL0     H17934  10.502   2.339   9.377  1.2120  0.0094  3.4373
  874MOL0     H17935  10.350   2.535   9.310  0.5207  0.6321  0.4568
  874MOL0     H17936  10.473   2.639   9.267  1.1443  1.0758 -3.7870
  874MOL0     H17937  10.388   2.573   9.064  0.1677 -0.1407  0.9010
  874MOL0     H17938  10.412   2.396   9.099  2.5189 -1.3984 -2.9337
  874MOL0     H17939  10.650   2.438   9.089 -1.6454 -0.8345  0.1734
  874MOL0     H17940  10.565   2.514   8.946  3.4565  0.8291 -1.7035
  874MOL0     H17941  10.803   2.596   9.212 -0.0541  0.0007  0.4236
  874MOL0     H17942  10.967   2.898   9.207 -0.3496 -0.2596 -0.2829
  874MOL0     H17943  10.818   3.001   9.205  1.9766  1.8613 -2.3924
  874MOL0     H17944  10.804   2.961   9.434  2.8826  1.4376  1.4606
  874MOL0     H17945  10.771   2.790   9.409  0.4648 -0.6798 -0.5811
  874MOL0     H17946  11.029   2.753   9.417  0.6078  0.6490  0.4291
  874MOL0     H17947  10.943   2.811   9.568  0.1692  0.1721  0.2724
  874MOL0     H17948  11.148   2.934   9.542 -1.1620  1.7806  2.4667
  874MOL0     H17949  10.998   3.011   9.572  0.5434 -2.0771  1.9793
  874MOL0     H17950  11.218   3.197   9.519 -1.4096  0.3043 -2.9358
  874MOL0     H17951  11.453   3.249   9.496  2.0924 -0.8088  0.0385
  874MOL0     H17952  11.850   3.300   9.181 -1.6242 -0.0679  2.7061
  874MOL0     H17953  12.091   3.268   9.092  0.2973 -1.3167 -1.6276
  874MOL0     H17954  12.248   2.873   8.975 -2.2511  0.9700  2.1086
  874MOL0     H17955  12.228   2.987   8.843 -2.6199 -1.9355  0.8558
  874MOL0     H17956  12.416   3.112   8.925 -0.4036  0.4326 -1.8175
  874MOL0     H17957  12.462   2.952   9.000 -2.2333 -3.3049 -1.2614
  874MOL0     H17958  12.422   3.016   8.707 -1.4430  2.1992  2.3088
  874MOL0     H17959  12.579   2.980   8.775 -0.7219  0.5600 -2.0538
  874MOL0     H17960  12.345   2.767   8.804  0.0012 -3.7355 -0.8303
  874MOL0     H17961  12.521   2.749   8.831  2.6849  0.3719 -2.1127
  874MOL0     H17962  12.545   2.779   8.588 -1.7590  0.1153 -2.0156
  874MOL0     H17963  12.374   2.804   8.557  0.3808 -0.2019 -1.4178
  874MOL0     H17964  12.527   2.554   8.662  0.0029  0.7996  0.9669
  874MOL0     H17965  12.354   2.572   8.701  0.9826 -2.8204  0.1245
  874MOL0     H17966  12.482   2.554   8.425  0.1901 -3.0132 -0.2026
  874MOL0     H17967  12.309   2.592   8.453  0.2375 -0.2273 -1.6927
  874MOL0     H17968  12.453   2.341   8.554  1.0743 -0.0814 -1.5929
  874MOL0     H17969  12.280   2.387   8.553 -0.6295  0.2416  0.3517
  874MOL0     H17970  12.021   2.859   9.024 -2.9069 -1.0412  1.8144
  874MOL0     H17971  11.800   2.877   9.097 -3.5635  1.1492  1.8943
  874MOL0     H17972  11.450   3.028   9.117  1.1480  1.4995 -0.4955
  874MOL0     H17973  11.219   2.954   9.159 -0.5438 -0.0277  1.0182
  874MOL0     H17974  10.847   2.621   9.759  0.4641 -2.0271 -0.9113
  874MOL0     H17975  10.899   2.805   9.904 -0.2309  1.8257 -1.1947
  874MOL0     H17976  11.069   3.019  10.179 -1.7400 -0.2010 -2.1259
  874MOL0     H17977  11.072   3.187  10.351 -1.4677 -0.0032 -1.1343
  874MOL0     H17978  11.294   3.566  10.237 -0.0772 -2.9439 -0.7159
  874MOL0     H17979  11.299   3.563  10.408 -0.4359 -1.6623  0.9743
  874MOL0     H17980  11.180   3.764  10.322  0.2160  0.1983 -0.7587
  874MOL0     H17981  11.066   3.662  10.409  2.4568  0.2247 -0.4268
  874MOL0     H17982  10.993   3.568  10.176 -1.6916  0.5751 -1.5665
  874MOL0     H17983  11.094   3.692  10.106 -1.0576  1.4495 -0.7435
  874MOL0     H17984  10.835   3.745  10.137 -0.7371 -1.8972  1.5634
  874MOL0     H17985  10.868   3.771  10.303 -2.3958  0.1266 -0.7049
  874MOL0     H17986  11.040   4.108  10.105  2.3111 -0.3545  0.7456
  874MOL0     H17987  11.220   3.477  10.071 -2.4677  1.0475  3.1536
  874MOL0     H17988  11.322   3.412   9.871  1.2868 -2.3211  1.5106
  874MOL0     H17989  11.322   3.252   9.808 -1.7243 -0.4460 -3.6537
  874MOL0     H17990  11.173   3.356   9.793  0.6795  0.0222 -0.8186
  875MOL0     O17991   9.872   3.812   3.350 -0.3469 -0.2015 -0.5038
  875MOL0     C17992   9.985   3.864   3.356 -0.7843  0.2628 -0.6181
  875MOL0     O17993  10.024   3.968   3.280 -0.2499 -0.4881 -0.1523
  875MOL0     C17994  10.158   4.001   3.276  0.2971 -0.2013  0.4298
  875MOL0     C17995  10.257   3.907   3.229  0.6414 -0.6313  0.6645
  875MOL0     C17996  10.379   3.942   3.204 -0.1503 -0.1173 -0.3316
  875MOL0     C17997  10.427   4.074   3.209  0.2581 -0.6054 -0.3915
  875MOL0     O17998  10.560   4.093   3.182  0.9476  0.1498  1.2216
  875MOL0     C17999  10.587   4.195   3.088  0.0666  0.3105  0.3068
  875MOL0     C18000  10.681   4.296   3.150 -0.9202  0.9116  1.3271
  875MOL0     C18001  10.732   4.397   3.046  0.2795  0.3956  0.1475
  875MOL0     C18002  10.856   4.470   3.089  0.2213 -0.7875 -0.2258
  875MOL0     C18003  10.845   4.513   3.239 -1.2167 -0.3898 -0.1737
  875MOL0     C18004  10.743   4.626   3.274 -0.4051 -0.0316 -0.1373
  875MOL0     C18005  10.749   4.754   3.202  0.1120  0.2616 -0.2445
  875MOL0     C18006  10.896   4.813   3.189 -0.7504  0.0721  0.6879
  875MOL0     N18007  10.891   4.951   3.133  0.1234 -0.1890 -0.2393
  875MOL0     C18008  10.827   5.059   3.200 -0.2850 -0.5933 -0.0190
  875MOL0     C18009  10.869   5.169   3.137 -0.4748  0.3033  0.7293
  875MOL0     C18010  10.802   5.299   3.196  1.4267  0.6823 -0.2066
  875MOL0     C18011  10.798   5.411   3.106 -0.8629 -0.0140  0.3170
  875MOL0     C18012  10.922   5.493   3.117 -0.5801  0.7255  0.9018
  875MOL0     C18013  10.946   5.586   2.994 -0.0716 -0.0609  0.1394
  875MOL0     O18014  11.075   5.642   3.002  0.5631  0.0572 -0.0996
  875MOL0     C18015  11.075   5.743   3.097  0.3106 -0.5431 -1.1186
  875MOL0     C18016  11.163   5.741   3.202  0.4149  0.2091  0.0228
  875MOL0     C18017  11.157   5.836   3.304 -0.1793 -0.4308  0.2747
  875MOL0     C18018  11.077   5.949   3.292 -0.0482  0.4559 -0.1870
  875MOL0     C18019  11.070   6.059   3.397 -0.4156 -0.1850 -0.2782
  875MOL0     O18020  10.998   6.173   3.366 -0.0108 -0.0824 -0.1131
  875MOL0     C18021  10.993   6.290   3.442  0.5626  0.5478 -0.2862
  875MOL0     C18022  10.879   6.357   3.434 -0.5783  0.0635  1.0959
  875MOL0     C18023  10.851   6.463   3.510  0.1144  0.4101 -0.3621
  875MOL0     C18024  10.938   6.507   3.617 -0.2995 -0.5432  0.2106
  875MOL0     O18025  10.911   6.625   3.681  0.0437 -0.2657  0.4649
  875MOL0     C18026  10.960   6.652   3.817 -0.2933  0.5822  0.3328
  875MOL0     C18027  10.896   6.778   3.865  1.0452 -0.2111 -0.1987
  875MOL0     C18028  10.894   6.779   4.011 -0.6502 -0.8107 -0.3397
  875MOL0     C18029  10.838   6.918   4.069  0.5299 -0.5499  0.9202
  875MOL0     C18030  10.857   6.932   4.218 -0.5035  0.3378 -0.1931
  875MOL0     C18031  10.992   7.001   4.254  0.2018  0.1010 -0.0792
  875MOL0     C18032  10.992   7.045   4.409  0.0416  0.2428  0.8275
  875MOL0     C18033  11.123   7.110   4.443 -0.7279 -0.7790  0.5723
  875MOL0    Cl18034  11.134   7.194   4.601  0.0155 -0.2747 -0.5411
  875MOL0     C18035  11.055   6.435   3.632  0.4797  0.7338 -0.7937
  875MOL0     C18036  11.080   6.336   3.540  0.4316  0.0540 -0.0003
  875MOL0     O18037  11.130   6.032   3.504 -0.7229 -0.4234  0.5536
  875MOL0     C18038  10.983   5.961   3.190 -0.6900  1.1954  0.3269
  875MOL0     C18039  10.989   5.853   3.085 -0.1376 -0.9302  0.0940
  875MOL0     N18040  10.964   5.137   3.041  0.2166 -0.6699  0.3338
  875MOL0     N18041  10.979   5.005   3.050 -0.0947  0.2411  0.0612
  875MOL0     C18042  10.333   4.177   3.238  0.2916 -0.2390 -0.1538
  875MOL0     C18043  10.199   4.139   3.273  0.0675  0.9271 -0.1204
  875MOL0     C18044  10.074   3.795   3.463 -0.6181 -0.3344  0.9964
  875MOL0     C18045  10.149   3.877   3.545 -0.2544 -0.3922 -0.1559
  875MOL0     C18046  10.229   3.827   3.653  0.0803  0.6653  0.9842
  875MOL0     C18047  10.250   3.685   3.667  0.7482  0.6315 -0.1115
  875MOL0     O18048  10.304   3.605   3.767 -0.6569 -0.1207  0.1283
  875MOL0     C18049  10.379   3.683   3.864 -0.1025 -0.4956  1.4650
  875MOL0     C18050  10.458   3.595   3.956 -0.9890 -0.2924 -0.2270
  875MOL0     C18051  10.450   3.640   4.100 -0.0337 -0.0707  0.3968
  875MOL0     C18052  10.479   3.787   4.136  0.4735 -0.7208  0.6820
  875MOL0     C18053  10.623   3.813   4.098  0.3340  0.0701  0.4709
  875MOL0     C18054  10.732   3.852   4.067 -0.2269  0.4173 -0.4410
  875MOL0     C18055  10.174   3.608   3.582  0.9408  0.1935 -0.6734
  875MOL0     C18056  10.091   3.662   3.485 -0.1994 -0.0195  0.4489
  875MOL0     C18057  10.004   3.561   3.403  0.1427  0.5452 -0.4263
  875MOL0     H18058  10.221   3.805   3.217 -1.2209  0.1751 -1.4108
  875MOL0     H18059  10.452   3.866   3.178 -2.5728 -2.3815 -1.0446
  875MOL0     H18060  10.637   4.148   3.002 -0.0933 -3.2134  1.9888
  875MOL0     H18061  10.502   4.245   3.042  0.1043 -0.4495 -0.6269
  875MOL0     H18062  10.767   4.239   3.186 -0.2639  0.3901 -0.9083
  875MOL0     H18063  10.621   4.338   3.231 -1.9096  0.7485  0.7028
  875MOL0     H18064  10.649   4.465   3.028  0.4513  0.4528 -0.4717
  875MOL0     H18065  10.747   4.348   2.949 -1.0649 -0.6890  0.4562
  875MOL0     H18066  10.953   4.432   3.055 -0.1271  0.8298 -3.4668
  875MOL0     H18067  10.863   4.566   3.037 -0.1094 -0.1165  0.9209
  875MOL0     H18068  10.824   4.424   3.300  1.7795 -0.0207  1.5986
  875MOL0     H18069  10.943   4.551   3.271 -1.7818 -0.3114  1.5712
  875MOL0     H18070  10.640   4.596   3.253 -0.2680  0.2366 -1.2368
  875MOL0     H18071  10.738   4.636   3.383  0.6029 -0.0875 -0.0721
  875MOL0     H18072  10.695   4.828   3.261 -0.8537  0.0849 -0.8824
  875MOL0     H18073  10.690   4.741   3.112 -1.1852 -0.7693  0.7068
  875MOL0     H18074  10.940   4.801   3.288 -3.0213  2.0967  2.0506
  875MOL0     H18075  10.952   4.743   3.125  1.7902 -0.1741  2.9651
  875MOL0     H18076  10.756   5.041   3.279 -1.6042 -4.0480 -1.8196
  875MOL0     H18077  10.699   5.276   3.224  1.8366 -1.4784 -0.2848
  875MOL0     H18078  10.847   5.327   3.292 -1.3256  1.2984  0.9974
  875MOL0     H18079  10.791   5.363   3.008 -1.3668  0.3695  0.1609
  875MOL0     H18080  10.711   5.475   3.125  0.2040  1.3434  0.8418
  875MOL0     H18081  11.008   5.425   3.123 -0.9062  0.4371  3.3248
  875MOL0     H18082  10.926   5.550   3.210 -1.2521 -0.6310  1.7926
  875MOL0     H18083  10.865   5.659   2.985  0.2400  0.3688  0.7780
  875MOL0     H18084  10.936   5.510   2.915 -2.5570 -1.3022  1.5273
  875MOL0     H18085  11.239   5.665   3.215 -1.3580 -2.2250 -2.7379
  875MOL0     H18086  11.231   5.829   3.384 -0.1363 -0.3112  0.2452
  875MOL0     H18087  10.820   6.316   3.352  2.1893 -0.3725 -0.8302
  875MOL0     H18088  10.761   6.515   3.477  0.3613  2.6118  2.1507
  875MOL0     H18089  10.939   6.565   3.880  0.8141  0.9409  1.2209
  875MOL0     H18090  11.068   6.668   3.818 -0.1415 -0.0086 -1.7436
  875MOL0     H18091  10.954   6.861   3.821  0.5684  0.1880 -0.0773
  875MOL0     H18092  10.791   6.783   3.835  0.9745 -1.9829 -0.3527
  875MOL0     H18093  10.835   6.694   4.045  2.1055 -3.6217 -2.1289
  875MOL0     H18094  10.993   6.766   4.056 -1.3286 -1.8996  0.8963
  875MOL0     H18095  10.729   6.924   4.057  0.1230 -2.3114  3.0465
  875MOL0     H18096  10.887   7.010   4.036 -0.9365  0.7172  2.1627
  875MOL0     H18097  10.859   6.833   4.265  4.1384  0.2859  0.0165
  875MOL0     H18098  10.771   6.984   4.261  1.2376  0.9411  2.8472
  875MOL0     H18099  11.079   6.937   4.237 -0.3571 -0.9260  0.8456
  875MOL0     H18100  10.987   7.100   4.207 -2.3866  0.7694  1.4342
  875MOL0     H18101  10.974   6.956   4.470 -2.4911  0.5039  0.5704
  875MOL0     H18102  10.904   7.109   4.423  0.5201  1.0748  0.1257
  875MOL0     H18103  11.203   7.035   4.437  1.2554  1.1949  0.9749
  875MOL0     H18104  11.141   7.187   4.368  0.4782 -1.7788 -0.2151
  875MOL0     H18105  11.131   6.444   3.709 -2.0163 -2.8223  2.4639
  875MOL0     H18106  11.168   6.275   3.558 -1.6388 -2.5452  2.2080
  875MOL0     H18107  10.909   6.041   3.184 -1.7267  0.5359  2.9711
  875MOL0     H18108  10.917   5.856   3.005 -2.3218 -0.2118  1.9774
  875MOL0     H18109  10.349   4.284   3.253  0.6032 -0.4364  1.0251
  875MOL0     H18110  10.126   4.218   3.288 -1.3172 -0.2511 -0.4020
  875MOL0     H18111  10.127   3.982   3.533  0.8713 -0.2563 -1.1847
  875MOL0     H18112  10.263   3.892   3.733  1.0030 -1.6841  2.6335
  875MOL0     H18113  10.299   3.730   3.921 -0.5345  1.2472 -0.4390
  875MOL0     H18114  10.444   3.762   3.825 -0.4259 -0.3916  1.1317
  875MOL0     H18115  10.565   3.586   3.933 -1.2421 -0.7656 -1.2920
  875MOL0     H18116  10.412   3.496   3.947  1.4832 -1.3611 -2.3444
  875MOL0     H18117  10.509   3.568   4.156  0.2424  1.5238  2.2919
  875MOL0     H18118  10.345   3.622   4.127 -0.1005  1.7599  1.5388
  875MOL0     H18119  10.422   3.854   4.070  0.5674 -0.6656  0.6569
  875MOL0     H18120  10.460   3.808   4.242  1.0023  0.8020  0.4977
  875MOL0     H18121  10.827   3.897   4.045  0.9555 -0.5741  2.2507
  875MOL0     H18122  10.179   3.502   3.605 -0.1509  0.0848 -0.8820
  875MOL0     H18123   9.898   3.570   3.427 -0.0238 -1.7690  0.0207
  875MOL0     H18124  10.006   3.573   3.294 -3.1354 -2.4808 -1.0189
  875MOL0     H18125  10.039   3.458   3.417 -2.2912 -0.0634  1.9534
  876MOL0     O18126   0.486   6.505   0.696 -0.8928  0.1138 -0.2074
  876MOL0     C18127   0.584   6.557   0.638 -0.7008 -0.3018  0.7655
  876MOL0     O18128   0.672   6.639   0.702 -0.4116 -0.0134  0.1439
  876MOL0     C18129   0.654   6.669   0.829 -0.2768  0.0537  0.0220
  876MOL0     C18130   0.761   6.659   0.913 -0.0863 -0.8768 -0.2539
  876MOL0     C18131   0.752   6.683   1.061 -0.1148  0.2028  0.0156
  876MOL0     C18132   0.627   6.724   1.110 -0.2317  0.1386 -1.0165
  876MOL0     O18133   0.608   6.746   1.241 -0.7009 -0.1484 -0.5947
  876MOL0     C18134   0.666   6.857   1.301 -0.5595  0.5559  0.0050
  876MOL0     C18135   0.677   6.836   1.453  0.8886 -0.6531 -0.0575
  876MOL0     C18136   0.759   6.944   1.531  0.7731  0.0917  0.2039
  876MOL0     C18137   0.694   7.086   1.520 -0.6981  0.9352 -0.3961
  876MOL0     C18138   0.769   7.192   1.592 -0.1583 -0.5747 -0.4041
  876MOL0     C18139   0.700   7.332   1.599 -0.1923  0.3032  0.1766
  876MOL0     C18140   0.795   7.435   1.655  0.7362  0.4546  0.8065
  876MOL0     C18141   0.732   7.570   1.687  0.5704  0.1477 -0.5378
  876MOL0     N18142   0.640   7.561   1.802  0.6309  0.8392  0.1336
  876MOL0     C18143   0.659   7.500   1.930  0.5973  0.1335 -0.7806
  876MOL0     C18144   0.561   7.550   1.999  0.0500 -0.0448 -0.3128
  876MOL0     C18145   0.545   7.533   2.147 -0.2506  0.4401  1.0798
  876MOL0     C18146   0.505   7.392   2.181 -0.7431  0.8050 -0.7707
  876MOL0     C18147   0.486   7.379   2.334  0.1222 -0.1062 -0.0489
  876MOL0     C18148   0.364   7.289   2.359  0.0696  0.1264 -0.5904
  876MOL0     O18149   0.336   7.283   2.498  0.7434 -0.1162  0.0154
  876MOL0     C18150   0.424   7.205   2.579  0.4387 -0.1429  0.0230
  876MOL0     C18151   0.466   7.261   2.707 -0.7436  0.6922  0.3488
  876MOL0     C18152   0.561   7.181   2.778 -0.1439 -0.7155 -0.2744
  876MOL0     C18153   0.608   7.055   2.737  0.8471 -1.3925 -0.0316
  876MOL0     C18154   0.693   6.984   2.834 -0.0379  0.0294 -1.0117
  876MOL0     O18155   0.683   7.016   2.967 -0.3748 -0.3423  0.3120
  876MOL0     C18156   0.802   7.028   3.046  0.7530 -0.4919 -0.6113
  876MOL0     C18157   0.925   7.026   2.989 -0.1044 -0.7610 -0.1383
  876MOL0     C18158   1.042   7.040   3.078  0.9432  0.3628  0.7930
  876MOL0     C18159   1.025   7.037   3.216  1.3074 -0.4474 -0.5815
  876MOL0     O18160   1.129   7.034   3.298 -0.3973  0.3558 -0.1605
  876MOL0     C18161   1.262   6.990   3.248  0.2153 -0.2886 -0.5851
  876MOL0     C18162   1.338   6.929   3.361 -0.5151 -0.9028 -0.5969
  876MOL0     C18163   1.332   6.771   3.347  0.4767 -0.6152  0.0367
  876MOL0     C18164   1.438   6.690   3.426  0.4961 -0.2146  1.0655
  876MOL0     C18165   1.388   6.548   3.436 -0.7850  0.5891  0.4640
  876MOL0     C18166   1.496   6.462   3.501  0.1989  0.5933 -0.7668
  876MOL0     C18167   1.447   6.350   3.604 -0.0989 -0.5084  0.2439
  876MOL0     C18168   1.394   6.233   3.549  0.9984  0.4391 -0.6225
  876MOL0    Cl18169   1.417   6.094   3.664 -0.3292 -0.2524 -0.3231
  876MOL0     C18170   0.898   7.037   3.269 -0.1950  0.6080 -0.3119
  876MOL0     C18171   0.779   7.040   3.187 -0.7234  0.3370 -0.0797
  876MOL0     O18172   0.766   6.891   2.791  0.3244 -0.0708  0.2750
  876MOL0     C18173   0.563   7.004   2.614  0.3254  0.5696  0.5363
  876MOL0     C18174   0.475   7.079   2.540  0.2242  0.7790 -0.3911
  876MOL0     N18175   0.474   7.621   1.928 -0.2364  1.0018  0.9882
  876MOL0     N18176   0.515   7.624   1.804 -0.4212 -0.1364  0.0855
  876MOL0     C18177   0.523   6.727   1.021  0.4380 -0.0917 -0.0719
  876MOL0     C18178   0.534   6.710   0.884  0.4666  0.3907  0.5135
  876MOL0     C18179   0.597   6.538   0.493 -0.1764  0.2841  0.1215
  876MOL0     C18180   0.704   6.592   0.428  0.1597  0.2637  0.2895
  876MOL0     C18181   0.720   6.583   0.286 -0.7026 -0.2242 -0.6369
  876MOL0     C18182   0.622   6.524   0.207 -0.3706  0.5715  0.6314
  876MOL0     O18183   0.644   6.524   0.070 -0.3701  0.2620 -0.7021
  876MOL0     C18184   0.532   6.563  -0.003  0.3442  0.2967  0.1257
  876MOL0     C18185   0.552   6.484  -0.138 -0.8504 -0.1179  0.1157
  876MOL0     C18186   0.419   6.495  -0.211  0.3369 -0.2577  0.2683
  876MOL0     C18187   0.403   6.399  -0.331 -0.2642 -0.4529 -0.5173
  876MOL0     C18188   0.299   6.453  -0.412  0.1928 -0.6586 -0.2706
  876MOL0     C18189   0.209   6.493  -0.490 -1.1377  0.1685  0.4421
  876MOL0     C18190   0.516   6.457   0.267 -0.0561 -0.3869 -0.7383
  876MOL0     C18191   0.495   6.470   0.402 -0.6214 -0.5450  0.1277
  876MOL0     C18192   0.367   6.398   0.445 -0.4454  0.5952 -0.3812
  876MOL0     H18193   0.856   6.618   0.880  0.5023  0.2257  0.0049
  876MOL0     H18194   0.836   6.674   1.128  0.7427 -2.0431 -1.2506
  876MOL0     H18195   0.771   6.858   1.273  0.1821  2.6891  2.4158
  876MOL0     H18196   0.630   6.958   1.279 -0.1768  0.8717  0.7759
  876MOL0     H18197   0.725   6.739   1.459 -1.1009 -1.6373  0.9318
  876MOL0     H18198   0.583   6.829   1.509 -0.2641  3.0641 -1.1939
  876MOL0     H18199   0.855   6.943   1.480 -0.0562 -0.7233 -1.4040
  876MOL0     H18200   0.768   6.921   1.638 -0.7707 -0.7180  0.1891
  876MOL0     H18201   0.676   7.124   1.419 -2.7356  0.8169 -0.1050
  876MOL0     H18202   0.596   7.095   1.567 -2.0628  0.1202 -2.9111
  876MOL0     H18203   0.780   7.152   1.693  1.9872 -1.5640 -0.9605
  876MOL0     H18204   0.873   7.205   1.560 -0.2909 -0.2205 -0.7076
  876MOL0     H18205   0.667   7.360   1.499 -0.5725  1.9865  0.7584
  876MOL0     H18206   0.612   7.328   1.663 -0.4062  1.5884 -0.0264
  876MOL0     H18207   0.871   7.440   1.576 -3.2088 -0.3795 -3.4766
  876MOL0     H18208   0.844   7.404   1.747  2.2188  4.7168  1.6709
  876MOL0     H18209   0.815   7.640   1.704 -0.4945  1.4003 -0.3025
  876MOL0     H18210   0.671   7.609   1.605  0.7900  1.8266  0.0526
  876MOL0     H18211   0.746   7.440   1.953 -1.6047 -3.4728 -1.0294
  876MOL0     H18212   0.643   7.571   2.178 -0.9282  2.5041  0.8815
  876MOL0     H18213   0.466   7.596   2.189 -0.7043 -0.5888  1.8011
  876MOL0     H18214   0.413   7.364   2.127  0.0379 -0.5867 -1.4316
  876MOL0     H18215   0.583   7.325   2.146 -0.9804  0.0742  0.0674
  876MOL0     H18216   0.465   7.471   2.390  2.0765 -0.4434  1.3404
  876MOL0     H18217   0.568   7.332   2.389 -2.0218 -1.4039  2.2616
  876MOL0     H18218   0.384   7.188   2.322 -0.1507  0.6481 -2.2323
  876MOL0     H18219   0.276   7.330   2.308 -1.6239 -1.8082  0.6169
  876MOL0     H18220   0.418   7.353   2.737  0.3836  1.5038 -0.2785
  876MOL0     H18221   0.591   7.232   2.869 -1.2527  2.8912 -1.7434
  876MOL0     H18222   0.930   7.013   2.882 -3.8892 -3.4587 -0.1411
  876MOL0     H18223   1.134   7.022   3.022  1.9777 -2.8862  3.2358
  876MOL0     H18224   1.231   6.911   3.179 -1.6060 -0.0914 -0.0526
  876MOL0     H18225   1.327   7.057   3.190  1.9977  0.5281  2.1479
  876MOL0     H18226   1.443   6.958   3.354 -0.5137 -0.7110  0.1303
  876MOL0     H18227   1.300   6.963   3.458 -0.5600 -2.4978 -0.0282
  876MOL0     H18228   1.231   6.742   3.376  0.3370 -2.2295 -1.8534
  876MOL0     H18229   1.349   6.746   3.242 -1.8976 -1.5261 -0.1883
  876MOL0     H18230   1.442   6.732   3.526  0.6835 -0.1464  1.0291
  876MOL0     H18231   1.539   6.699   3.386 -0.4236  1.7319 -1.0011
  876MOL0     H18232   1.370   6.514   3.333 -1.2549  0.6607  0.5184
  876MOL0     H18233   1.295   6.539   3.494 -1.2708 -2.0766 -0.5987
  876MOL0     H18234   1.553   6.412   3.422 -1.6752 -1.8389 -0.6924
  876MOL0     H18235   1.558   6.528   3.563  0.7796 -1.1261  0.5577
  876MOL0     H18236   1.380   6.394   3.679 -0.2272  1.5269 -0.9799
  876MOL0     H18237   1.532   6.315   3.664  0.1612  1.9104  1.4050
  876MOL0     H18238   1.287   6.247   3.528  1.6237  2.0450 -3.1127
  876MOL0     H18239   1.453   6.206   3.461  1.7060  1.6585 -0.5278
  876MOL0     H18240   0.885   7.009   3.373  2.3104 -2.7142 -0.7366
  876MOL0     H18241   0.675   7.043   3.219 -0.8916  1.5303 -0.6792
  876MOL0     H18242   0.608   6.910   2.582  0.6580 -0.4481  3.6595
  876MOL0     H18243   0.442   7.042   2.444  2.1271 -0.0144 -0.7724
  876MOL0     H18244   0.429   6.764   1.061  0.2675 -0.2446 -0.3313
  876MOL0     H18245   0.438   6.728   0.837  1.4007  1.2899 -1.1183
  876MOL0     H18246   0.776   6.650   0.486  0.8548  1.1314 -1.3589
  876MOL0     H18247   0.810   6.636   0.255  1.2793 -1.9162  1.8894
  876MOL0     H18248   0.543   6.669  -0.026 -2.1739  0.5859 -0.0646
  876MOL0     H18249   0.436   6.537   0.044 -0.0615 -1.4330 -1.5155
  876MOL0     H18250   0.580   6.381  -0.118 -0.3754  0.5137  3.1753
  876MOL0     H18251   0.636   6.531  -0.190 -0.0255 -2.0128 -0.3196
  876MOL0     H18252   0.405   6.600  -0.241  1.3678  0.6241  2.6162
  876MOL0     H18253   0.341   6.463  -0.141  0.6143 -3.5311 -0.7623
  876MOL0     H18254   0.499   6.403  -0.384 -0.1744 -1.4138 -0.4414
  876MOL0     H18255   0.393   6.299  -0.289  0.4770 -1.1954 -2.0262
  876MOL0     H18256   0.164   6.543  -0.573 -1.6434  2.3856  1.9567
  876MOL0     H18257   0.453   6.393   0.206 -1.0890 -1.8162  1.7264
  876MOL0     H18258   0.387   6.316   0.514 -0.1397  0.5133 -0.5640
  876MOL0     H18259   0.306   6.473   0.497 -2.5670 -1.6203  0.5254
  876MOL0     H18260   0.301   6.358   0.369 -1.2338  1.3991 -0.1380
  877MOL0     O18261   3.249   3.948   5.560 -0.7129  0.0282 -0.2240
  877MOL0     C18262   3.288   3.919   5.446 -0.0002 -0.2539 -0.3604
  877MOL0     O18263   3.217   3.839   5.357  0.9844  0.2581  0.3858
  877MOL0     C18264   3.093   3.787   5.363  0.1523 -0.5293 -0.9430
  877MOL0     C18265   3.043   3.722   5.245 -0.4272 -0.7806  0.1946
  877MOL0     C18266   2.921   3.650   5.244  0.3004 -1.3956  0.9182
  877MOL0     C18267   2.836   3.662   5.352  0.8454 -0.0648  0.0356
  877MOL0     O18268   2.699   3.623   5.363 -0.0843  0.8001  0.2986
  877MOL0     C18269   2.674   3.479   5.336 -0.1361 -1.6358 -1.1032
  877MOL0     C18270   2.752   3.379   5.416 -0.1706  0.1655  0.1990
  877MOL0     C18271   2.711   3.239   5.386 -0.0812 -0.7264  1.0860
  877MOL0     C18272   2.564   3.215   5.345 -0.3311 -1.9242 -0.8897
  877MOL0     C18273   2.530   3.066   5.327 -0.9170 -0.3928 -0.2556
  877MOL0     C18274   2.377   3.046   5.318  0.0039  0.6761 -1.1433
  877MOL0     C18275   2.346   2.895   5.325 -0.3359  0.5680 -0.2037
  877MOL0     C18276   2.401   2.832   5.201  0.0023  0.3794  0.2399
  877MOL0     N18277   2.359   2.693   5.196  0.7331  0.3390  1.1318
  877MOL0     C18278   2.235   2.636   5.158 -0.2474 -0.0589  0.5478
  877MOL0     C18279   2.256   2.499   5.145 -1.2565 -0.2532 -0.0873
  877MOL0     C18280   2.149   2.388   5.121  0.1613  0.7068 -1.2648
  877MOL0     C18281   2.025   2.452   5.062 -0.2332 -0.4418 -0.0106
  877MOL0     C18282   1.935   2.354   4.976 -0.9938  0.1166 -1.6470
  877MOL0     C18283   1.883   2.241   5.056  0.0325  0.0599 -0.5815
  877MOL0     O18284   1.970   2.128   5.046 -1.0645  0.2949 -0.2024
  877MOL0     C18285   1.979   2.063   5.164 -0.7620  0.0663  0.0527
  877MOL0     C18286   2.106   2.011   5.205 -0.3847  0.1456 -0.8010
  877MOL0     C18287   2.113   1.920   5.311 -0.1555  1.1541 -0.2641
  877MOL0     C18288   1.998   1.878   5.388 -0.9090  0.0501  0.4713
  877MOL0     C18289   2.001   1.778   5.499 -0.9043  0.4416 -0.1974
  877MOL0     O18290   2.117   1.710   5.524 -0.1759 -0.2238 -0.6973
  877MOL0     C18291   2.122   1.606   5.612  0.2742 -0.8016 -0.1441
  877MOL0     C18292   2.240   1.615   5.677  0.2219 -0.2149 -0.3948
  877MOL0     C18293   2.278   1.511   5.761 -0.0373  0.0955  0.0543
  877MOL0     C18294   2.194   1.400   5.785  0.6188 -0.2058 -0.3168
  877MOL0     O18295   2.234   1.315   5.882 -1.4395  0.8019 -0.0065
  877MOL0     C18296   2.192   1.174   5.869 -0.4034 -0.2728 -1.7522
  877MOL0     C18297   2.292   1.092   5.959 -0.0834 -0.2557  0.5398
  877MOL0     C18298   2.259   0.933   5.957 -0.4545  0.0079  0.1898
  877MOL0     C18299   2.339   0.858   6.062  0.1350  0.0934 -0.5536
  877MOL0     C18300   2.342   0.706   6.058 -0.4329 -0.5198 -0.6700
  877MOL0     C18301   2.446   0.635   6.145  0.2641 -0.9745  0.0248
  877MOL0     C18302   2.413   0.656   6.295 -0.1239 -0.5605  0.6946
  877MOL0     C18303   2.535   0.629   6.388 -0.5566 -0.0830  0.1072
  877MOL0    Cl18304   2.515   0.672   6.557  0.4181 -0.4395  0.8035
  877MOL0     C18305   2.075   1.393   5.706 -0.0165  0.0205 -0.6654
  877MOL0     C18306   2.038   1.505   5.626 -0.8059  0.3573  0.3346
  877MOL0     O18307   1.896   1.758   5.560 -0.5954 -0.6761  1.0879
  877MOL0     C18308   1.876   1.936   5.347 -0.9140 -0.5029 -1.0882
  877MOL0     C18309   1.866   2.033   5.243  0.1754 -0.1201  0.1055
  877MOL0     N18310   2.390   2.481   5.158 -0.1928 -0.2769 -1.0264
  877MOL0     N18311   2.448   2.587   5.191 -0.6914 -0.0420 -0.3287
  877MOL0     C18312   2.879   3.734   5.465  0.2824  0.2633 -0.2394
  877MOL0     C18313   3.003   3.795   5.468 -0.1399 -0.1451  0.0967
  877MOL0     C18314   3.388   3.994   5.381  0.8521 -0.1551 -0.3071
  877MOL0     C18315   3.370   4.047   5.254  0.7467 -0.1020  0.3596
  877MOL0     C18316   3.468   4.124   5.195  0.0442 -0.4120  0.4218
  877MOL0     C18317   3.592   4.148   5.257  0.5261  0.7884  0.3805
  877MOL0     O18318   3.703   4.222   5.199 -0.5982  0.4907 -0.0498
  877MOL0     C18319   3.742   4.340   5.275 -0.0171 -0.0744  0.2964
  877MOL0     C18320   3.682   4.476   5.230 -0.0935  0.1774  0.1751
  877MOL0     C18321   3.773   4.594   5.274  1.2793  0.3608  0.0873
  877MOL0     C18322   3.685   4.712   5.306 -0.0256 -0.2835  0.6230
  877MOL0     C18323   3.638   4.775   5.182 -0.0816  0.5717 -0.3544
  877MOL0     C18324   3.585   4.815   5.081  0.5182 -0.2969  0.2416
  877MOL0     C18325   3.606   4.094   5.383  0.7388  0.2977 -0.3784
  877MOL0     C18326   3.510   4.015   5.442 -0.7419  0.1177 -1.4013
  877MOL0     C18327   3.552   3.965   5.585  0.0152  0.5376  0.4127
  877MOL0     H18328   3.109   3.736   5.160 -1.1432  0.2852 -0.2160
  877MOL0     H18329   2.889   3.595   5.155 -2.0294 -1.5170  1.7652
  877MOL0     H18330   2.567   3.472   5.358  0.3425 -0.7989  1.9729
  877MOL0     H18331   2.698   3.457   5.231 -1.3649  1.9917 -2.2750
  877MOL0     H18332   2.742   3.409   5.521  0.3717  0.0637  0.2830
  877MOL0     H18333   2.856   3.394   5.385 -0.2287  4.5727  1.5478
  877MOL0     H18334   2.728   3.178   5.475 -1.8736 -1.2978  1.0878
  877MOL0     H18335   2.786   3.197   5.319 -0.6786 -0.4686  0.2336
  877MOL0     H18336   2.504   3.263   5.423 -1.3202 -1.5057 -1.8814
  877MOL0     H18337   2.536   3.275   5.257 -4.9852 -0.2867  1.3683
  877MOL0     H18338   2.575   3.045   5.229  1.6918 -1.4317  1.0663
  877MOL0     H18339   2.580   3.008   5.405  1.9335  1.7594 -0.3224
  877MOL0     H18340   2.323   3.098   5.397 -2.2852  0.1836 -2.2966
  877MOL0     H18341   2.328   3.084   5.228 -0.5355 -4.3417 -3.3153
  877MOL0     H18342   2.239   2.887   5.344 -0.2481  2.5871  1.4581
  877MOL0     H18343   2.393   2.870   5.420 -3.1273 -1.0480  0.8860
  877MOL0     H18344   2.363   2.888   5.114 -1.0430  1.4328  1.3394
  877MOL0     H18345   2.510   2.830   5.194  0.1280  0.1325  1.9231
  877MOL0     H18346   2.139   2.687   5.159  0.7075  2.0582 -2.5105
  877MOL0     H18347   2.181   2.308   5.052  0.2393  0.5270 -1.0217
  877MOL0     H18348   2.130   2.330   5.212  0.7568 -1.2418 -2.3076
  877MOL0     H18349   1.971   2.493   5.148  0.3087 -1.3445  0.7802
  877MOL0     H18350   2.059   2.540   5.007  1.8631 -1.0189  0.2692
  877MOL0     H18351   2.000   2.318   4.896 -2.6489  0.2388 -3.1149
  877MOL0     H18352   1.845   2.403   4.936 -1.3434 -0.3862 -1.4902
  877MOL0     H18353   1.783   2.210   5.023 -1.1062 -0.1761  2.7397
  877MOL0     H18354   1.869   2.269   5.161  2.2612 -0.4409 -0.1061
  877MOL0     H18355   2.198   2.022   5.149 -0.9695 -0.8007 -2.0119
  877MOL0     H18356   2.211   1.886   5.342 -1.1972 -0.2073  1.7296
  877MOL0     H18357   2.309   1.697   5.663 -1.6087  1.0843 -2.7126
  877MOL0     H18358   2.374   1.523   5.810  0.7679  0.4970 -1.5826
  877MOL0     H18359   2.093   1.163   5.913 -0.2946  1.7656 -0.9037
  877MOL0     H18360   2.195   1.133   5.767 -1.9322  3.8146 -3.6359
  877MOL0     H18361   2.396   1.114   5.934 -0.2247  0.3745  0.5035
  877MOL0     H18362   2.281   1.127   6.062 -1.7100 -2.5758  1.2246
  877MOL0     H18363   2.151   0.921   5.969 -0.1754 -1.1399  1.8111
  877MOL0     H18364   2.290   0.886   5.863 -0.4401  1.1366 -0.3950
  877MOL0     H18365   2.309   0.897   6.160  0.7347 -0.2058 -0.2460
  877MOL0     H18366   2.444   0.890   6.054 -0.1007  1.1129  0.2992
  877MOL0     H18367   2.355   0.678   5.953  0.6836  0.1797 -0.7405
  877MOL0     H18368   2.245   0.670   6.092  1.1896 -0.2885  5.2189
  877MOL0     H18369   2.450   0.528   6.126  4.1551 -0.9232 -0.2138
  877MOL0     H18370   2.540   0.681   6.114 -2.2094  4.1402 -1.0909
  877MOL0     H18371   2.321   0.603   6.322 -1.4247  1.5251  0.6106
  877MOL0     H18372   2.383   0.761   6.305  0.9757 -0.0509 -1.0279
  877MOL0     H18373   2.565   0.528   6.361  0.8481  0.8397 -2.0495
  877MOL0     H18374   2.614   0.690   6.343 -0.8644 -0.8663 -1.5575
  877MOL0     H18375   2.011   1.306   5.699  1.0656 -0.8011 -0.6137
  877MOL0     H18376   1.947   1.508   5.568 -0.9868  2.7711  0.6423
  877MOL0     H18377   1.784   1.901   5.392 -0.8440 -0.5038 -0.9452
  877MOL0     H18378   1.770   2.064   5.204  0.2704 -1.0074 -0.9002
  877MOL0     H18379   2.824   3.729   5.558 -0.0240 -0.2696 -0.4460
  877MOL0     H18380   3.041   3.854   5.551 -0.8082  0.0272  0.2857
  877MOL0     H18381   3.283   4.032   5.191 -0.3210 -2.3144  2.2207
  877MOL0     H18382   3.443   4.162   5.096 -1.2342 -2.2403 -0.0182
  877MOL0     H18383   3.851   4.344   5.276  0.0767  0.3154 -2.6610
  877MOL0     H18384   3.721   4.324   5.381  2.6310 -2.6018  0.5477
  877MOL0     H18385   3.583   4.480   5.277 -1.1417  1.2303 -1.9961
  877MOL0     H18386   3.674   4.478   5.121  0.6621 -0.3906  0.1065
  877MOL0     H18387   3.848   4.617   5.197  2.4875  1.7810  1.6409
  877MOL0     H18388   3.825   4.567   5.366  3.0694  0.0926 -0.9670
  877MOL0     H18389   3.598   4.681   5.365 -1.1319 -0.7143 -1.1457
  877MOL0     H18390   3.731   4.782   5.376 -4.0825  0.6540  2.6908
  877MOL0     H18391   3.533   4.852   4.995 -2.3853 -2.1898  1.0616
  877MOL0     H18392   3.701   4.101   5.435  0.7595 -2.3766  0.0586
  877MOL0     H18393   3.557   3.857   5.572  1.5690  0.1344  3.4288
  877MOL0     H18394   3.647   3.999   5.626  0.5146 -0.2140 -0.0933
  877MOL0     H18395   3.471   3.982   5.657 -1.7033 -1.2684 -0.9815
  878MOL0     O18396   7.537   1.650   5.706 -0.5428 -0.6428 -0.0547
  878MOL0     C18397   7.504   1.707   5.599 -0.4230  0.3518  0.0592
  878MOL0     O18398   7.400   1.789   5.584  0.1764  0.2663  0.5506
  878MOL0     C18399   7.366   1.837   5.707  0.6144 -0.3856  0.7947
  878MOL0     C18400   7.429   1.941   5.768 -0.5613 -0.0773  0.9850
  878MOL0     C18401   7.405   1.975   5.900  0.7320 -0.0810  0.1685
  878MOL0     C18402   7.297   1.927   5.972  0.3043 -0.1899 -1.0514
  878MOL0     O18403   7.266   1.970   6.095  0.0073 -0.4232 -0.6344
  878MOL0     C18404   7.153   2.056   6.103 -0.5651 -0.6013 -0.1096
  878MOL0     C18405   7.141   2.115   6.242  0.1498  0.1468  0.9005
  878MOL0     C18406   6.989   2.177   6.262  0.0320  0.2383  0.6693
  878MOL0     C18407   6.963   2.208   6.402  0.1065  0.3168 -0.7779
  878MOL0     C18408   7.041   2.343   6.442  0.6286  0.4675  0.1250
  878MOL0     C18409   7.032   2.372   6.591  0.5627 -0.7564  1.0366
  878MOL0     C18410   6.885   2.416   6.648  0.2222 -0.5147  0.8970
  878MOL0     C18411   6.900   2.501   6.782  0.2714 -0.1275  0.9476
  878MOL0     N18412   6.973   2.430   6.889 -0.2508  0.7480  0.4123
  878MOL0     C18413   7.096   2.474   6.941  0.6541  0.2303  0.6950
  878MOL0     C18414   7.129   2.380   7.029 -0.0425  1.2671  0.9217
  878MOL0     C18415   7.252   2.373   7.112 -0.6127 -0.3805  0.2586
  878MOL0     C18416   7.240   2.306   7.256  0.8170 -0.4963 -0.5329
  878MOL0     C18417   7.177   2.405   7.355 -0.3471 -0.1567 -1.1169
  878MOL0     C18418   7.188   2.352   7.501  0.1827  0.2350  0.6636
  878MOL0     O18419   7.136   2.214   7.523 -0.0919  0.1305 -0.6489
  878MOL0     C18420   7.001   2.204   7.554  0.5783  0.3496 -0.0490
  878MOL0     C18421   6.923   2.103   7.492  0.1545 -0.1143  0.8835
  878MOL0     C18422   6.790   2.081   7.519 -1.8060  0.2726  0.7561
  878MOL0     C18423   6.729   2.155   7.624 -0.7041  0.2374 -0.2549
  878MOL0     C18424   6.596   2.127   7.661  0.4555  0.0641  0.1308
  878MOL0     O18425   6.540   1.998   7.625 -0.5456 -1.5020 -0.5127
  878MOL0     C18426   6.409   1.959   7.644  0.1786  0.5388  0.6308
  878MOL0     C18427   6.389   1.825   7.661 -0.0786  0.1842  0.0384
  878MOL0     C18428   6.271   1.755   7.685 -0.7292 -0.2480  0.1658
  878MOL0     C18429   6.150   1.833   7.679 -0.3278 -0.1235 -0.1413
  878MOL0     O18430   6.023   1.775   7.688  0.2593  0.6131  0.2715
  878MOL0     C18431   5.963   1.802   7.818  1.4093 -0.6320  0.2551
  878MOL0     C18432   5.816   1.750   7.811  0.0062 -1.0635 -0.9173
  878MOL0     C18433   5.761   1.739   7.953  0.3752 -0.3914 -0.5278
  878MOL0     C18434   5.751   1.882   8.016 -0.4084 -0.1336  0.6568
  878MOL0     C18435   5.668   1.861   8.144 -0.0082  0.1344  0.1603
  878MOL0     C18436   5.662   2.000   8.220  0.3293  0.1426  0.8045
  878MOL0     C18437   5.571   1.994   8.352 -0.5531 -0.3016 -0.2921
  878MOL0     C18438   5.583   2.131   8.426 -1.2049 -0.0048 -0.2959
  878MOL0    Cl18439   5.531   2.263   8.314  0.2764  0.2342  0.5369
  878MOL0     C18440   6.162   1.969   7.658 -0.0567 -0.8883  0.0932
  878MOL0     C18441   6.288   2.028   7.638  0.3212 -1.3021  0.4377
  878MOL0     O18442   6.521   2.215   7.705 -0.4584  0.1584 -0.2607
  878MOL0     C18443   6.809   2.246   7.696  0.8347  0.7260  0.3265
  878MOL0     C18444   6.941   2.275   7.662 -0.7026  0.6825  0.2011
  878MOL0     N18445   7.034   2.268   7.020  0.1185 -0.6885  0.8199
  878MOL0     N18446   6.942   2.309   6.936 -0.3842  0.0494  0.4213
  878MOL0     C18447   7.226   1.829   5.906 -0.2983 -0.0708 -0.1100
  878MOL0     C18448   7.256   1.787   5.777  0.5618 -0.7449  1.2608
  878MOL0     C18449   7.585   1.677   5.479 -0.5370  0.9609  0.0904
  878MOL0     C18450   7.589   1.762   5.374 -0.3602 -0.8495  0.9668
  878MOL0     C18451   7.672   1.745   5.259 -1.0031  0.3942  0.4419
  878MOL0     C18452   7.765   1.639   5.252  0.6976  0.4019 -0.0920
  878MOL0     O18453   7.857   1.610   5.154  1.0522  0.5002 -0.5400
  878MOL0     C18454   7.890   1.729   5.076 -0.1137 -0.0994 -0.5209
  878MOL0     C18455   7.978   1.821   5.165  0.8773 -0.4695 -1.9395
  878MOL0     C18456   8.111   1.752   5.195  0.1778  0.5849  0.1400
  878MOL0     C18457   8.199   1.855   5.260  1.0636 -1.1144  0.4442
  878MOL0     C18458   8.333   1.821   5.254 -1.3256 -0.1107  0.4959
  878MOL0     C18459   8.447   1.789   5.229  0.1835 -0.1701  0.4653
  878MOL0     C18460   7.767   1.553   5.361  0.5031 -0.1222  1.1510
  878MOL0     C18461   7.671   1.564   5.468 -0.2759 -0.0147  0.2891
  878MOL0     C18462   7.676   1.449   5.562 -0.4838  1.0644 -0.5165
  878MOL0     H18463   7.521   1.981   5.726 -1.1602  2.0453  1.6047
  878MOL0     H18464   7.478   2.044   5.940  2.4444 -2.2147  0.9001
  878MOL0     H18465   7.172   2.133   6.028  1.4875  1.2227  2.1088
  878MOL0     H18466   7.068   1.992   6.077 -0.7804 -0.1610 -0.4929
  878MOL0     H18467   7.225   2.182   6.258  0.9379 -0.5958  0.0071
  878MOL0     H18468   7.155   2.036   6.317  0.7953 -0.4173  0.2033
  878MOL0     H18469   6.920   2.098   6.231 -1.6023  2.1777 -0.9230
  878MOL0     H18470   6.978   2.268   6.203 -0.6093 -1.4327 -1.9822
  878MOL0     H18471   6.857   2.214   6.429 -0.1834  2.9219 -2.1857
  878MOL0     H18472   7.001   2.124   6.461 -0.0293 -1.0253 -2.5235
  878MOL0     H18473   7.144   2.343   6.407  0.3422 -2.5985 -0.9804
  878MOL0     H18474   6.981   2.421   6.394  0.0240  0.2167  0.4622
  878MOL0     H18475   7.061   2.279   6.640  2.2390 -1.4926 -1.1903
  878MOL0     H18476   7.100   2.454   6.617 -0.3226  0.5020 -0.4345
  878MOL0     H18477   6.821   2.329   6.664 -0.2837 -0.7745 -2.0522
  878MOL0     H18478   6.830   2.467   6.569  0.0381  0.5706  1.6921
  878MOL0     H18479   6.957   2.590   6.751  1.8623 -1.3267  0.3348
  878MOL0     H18480   6.803   2.537   6.817 -0.8305  0.4967 -2.3402
  878MOL0     H18481   7.147   2.570   6.933 -0.7893  1.0091  0.4049
  878MOL0     H18482   7.338   2.328   7.062 -0.3826  0.2421  0.0871
  878MOL0     H18483   7.284   2.477   7.125  1.1968 -0.4622 -2.6913
  878MOL0     H18484   7.185   2.211   7.256  0.9970 -0.6268  1.1160
  878MOL0     H18485   7.344   2.291   7.288  0.2466  1.8391  3.0386
  878MOL0     H18486   7.073   2.410   7.322 -0.3052  1.5878 -1.0681
  878MOL0     H18487   7.219   2.506   7.350 -3.2240  1.2281  0.7792
  878MOL0     H18488   7.142   2.426   7.567 -0.2813  0.4069  0.1478
  878MOL0     H18489   7.293   2.337   7.529 -0.4254 -0.7798  2.6265
  878MOL0     H18490   6.974   2.055   7.409 -0.8190 -0.2291  0.3386
  878MOL0     H18491   6.730   2.014   7.458 -0.0048 -1.0131  0.3075
  878MOL0     H18492   6.485   1.774   7.664  0.9012  2.0060  1.1359
  878MOL0     H18493   6.273   1.646   7.681  1.8495 -0.2619 -0.1004
  878MOL0     H18494   6.017   1.768   7.907  0.9915  1.1275  1.2410
  878MOL0     H18495   5.974   1.907   7.848  1.3861 -1.7453  4.8942
  878MOL0     H18496   5.758   1.819   7.750 -2.1755  0.5966  2.7122
  878MOL0     H18497   5.820   1.646   7.775 -0.9580 -0.4972 -2.7677
  878MOL0     H18498   5.661   1.698   7.937 -0.0745  0.5881 -0.3150
  878MOL0     H18499   5.820   1.666   8.009 -1.8565 -1.5675  0.3935
  878MOL0     H18500   5.700   1.949   7.945 -1.2851 -1.2694  0.1740
  878MOL0     H18501   5.845   1.928   8.047  0.2062 -0.5774 -0.4890
  878MOL0     H18502   5.718   1.788   8.207  1.0541 -2.1318 -3.0586
  878MOL0     H18503   5.566   1.824   8.134 -0.8484  2.8019 -3.6294
  878MOL0     H18504   5.769   2.018   8.234  0.8049  1.9767 -3.5973
  878MOL0     H18505   5.632   2.068   8.140  0.0616 -2.8807 -1.8910
  878MOL0     H18506   5.618   1.914   8.411  0.9485 -0.3968 -1.5656
  878MOL0     H18507   5.465   1.986   8.327 -0.7508 -0.6613  0.6247
  878MOL0     H18508   5.524   2.123   8.518  1.9922 -4.7941  1.7326
  878MOL0     H18509   5.685   2.145   8.463 -0.9527 -3.5414  0.7754
  878MOL0     H18510   6.075   2.033   7.647  0.2220 -0.7584 -1.7530
  878MOL0     H18511   6.309   2.134   7.635  3.9782 -1.7559  3.5467
  878MOL0     H18512   6.766   2.292   7.784  1.9308  0.7505  0.8671
  878MOL0     H18513   6.996   2.348   7.721 -0.7295  2.6362 -2.0282
  878MOL0     H18514   7.142   1.791   5.963 -1.5486  0.9391 -1.2157
  878MOL0     H18515   7.192   1.711   5.732  1.2015 -0.0998 -0.8628
  878MOL0     H18516   7.515   1.842   5.374 -0.0615 -0.5524 -0.3115
  878MOL0     H18517   7.666   1.807   5.170 -2.2481 -0.4408 -0.0909
  878MOL0     H18518   7.803   1.777   5.030 -1.9293 -1.5590  1.1409
  878MOL0     H18519   7.953   1.677   5.004 -2.9562 -4.3348 -0.3301
  878MOL0     H18520   7.929   1.826   5.263 -3.2513 -3.6087 -3.5447
  878MOL0     H18521   7.991   1.924   5.131 -2.4627  0.8590  0.3035
  878MOL0     H18522   8.151   1.714   5.101 -1.5848 -1.0909  0.0154
  878MOL0     H18523   8.106   1.662   5.257  3.1610 -1.3321 -2.1158
  878MOL0     H18524   8.196   1.953   5.211  1.2398  0.5333  3.4554
  878MOL0     H18525   8.160   1.872   5.361 -1.0961  2.4356 -0.7616
  878MOL0     H18526   8.549   1.755   5.225  0.3983  0.5795 -2.0351
  878MOL0     H18527   7.838   1.473   5.343 -2.6017 -2.4593 -2.2351
  878MOL0     H18528   7.753   1.381   5.525 -2.1806  0.4783 -3.3240
  878MOL0     H18529   7.714   1.483   5.658  2.2889  2.7940 -2.1007
  878MOL0     H18530   7.583   1.392   5.573  0.7979 -0.8576  0.8641
  879MOL0     O18531   1.410   6.291   2.288  0.6457  0.3259 -0.3540
  879MOL0     C18532   1.477   6.314   2.394 -0.1210 -0.4671  0.8090
  879MOL0     O18533   1.601   6.372   2.392 -0.1070 -0.4857 -0.0372
  879MOL0     C18534   1.641   6.434   2.277  0.6543 -0.0740 -0.5679
  879MOL0     C18535   1.548   6.524   2.211 -0.0891 -0.1385  0.1483
  879MOL0     C18536   1.583   6.587   2.092  0.1883  0.0771  0.0474
  879MOL0     C18537   1.714   6.573   2.044 -0.4113 -0.7285  0.0509
  879MOL0     O18538   1.754   6.647   1.935 -0.2098 -0.2469 -0.0989
  879MOL0     C18539   1.866   6.724   1.947 -0.2859 -0.2152 -0.9708
  879MOL0     C18540   1.886   6.804   1.817  0.2323  1.1129 -0.0030
  879MOL0     C18541   2.000   6.903   1.825  0.5656 -0.3758 -0.6303
  879MOL0     C18542   2.044   6.939   1.687 -0.8911 -0.4844 -0.3678
  879MOL0     C18543   2.171   7.023   1.722 -0.3188 -0.4085  0.3115
  879MOL0     C18544   2.224   7.111   1.609  0.1787  0.6262  0.6542
  879MOL0     C18545   2.277   7.014   1.490  0.5242  0.1215 -0.9174
  879MOL0     C18546   2.363   7.082   1.384  0.4277  1.2357  0.2391
  879MOL0     N18547   2.300   7.207   1.326 -0.0493  0.5927  0.4504
  879MOL0     C18548   2.230   7.209   1.212  0.6394  0.5208  0.0260
  879MOL0     C18549   2.191   7.340   1.191 -0.1229 -0.2455  0.7088
  879MOL0     C18550   2.098   7.396   1.081  0.0794  1.3381  0.0841
  879MOL0     C18551   1.956   7.407   1.120  1.3691  0.1027 -0.2446
  879MOL0     C18552   1.875   7.515   1.048  0.9390 -0.0445 -0.4124
  879MOL0     C18553   1.887   7.658   1.090 -0.3010 -0.3911 -0.7360
  879MOL0     O18554   1.791   7.744   1.006  0.1217  0.5463 -0.2693
  879MOL0     C18555   1.842   7.785   0.885  0.3065  0.7087  0.0080
  879MOL0     C18556   1.951   7.739   0.817  0.2954 -0.0111  1.4049
  879MOL0     C18557   1.978   7.781   0.682 -0.7442 -0.0422 -0.1004
  879MOL0     C18558   1.904   7.879   0.626  0.4013  0.3178 -0.5346
  879MOL0     C18559   1.921   7.923   0.482 -0.6277 -0.0819 -0.4060
  879MOL0     O18560   1.824   8.011   0.435  0.1202 -0.0636 -0.4865
  879MOL0     C18561   1.838   8.068   0.312 -1.0300  0.2068  0.4937
  879MOL0     C18562   1.960   8.124   0.262 -0.2464 -1.0237  0.1245
  879MOL0     C18563   1.969   8.180   0.132  0.4089 -0.4649  0.9205
  879MOL0     C18564   1.845   8.191   0.058  0.5138  0.8866  0.2290
  879MOL0     O18565   1.842   8.240  -0.070  0.3067 -0.2917 -0.0066
  879MOL0     C18566   1.730   8.329  -0.097 -1.2242  0.9990 -0.1138
  879MOL0     C18567   1.776   8.435  -0.194 -0.4722 -0.2631 -0.1585
  879MOL0     C18568   1.664   8.514  -0.266 -0.1674  0.3342  0.0371
  879MOL0     C18569   1.729   8.579  -0.383 -0.4962  0.3018  0.4185
  879MOL0     C18570   1.623   8.650  -0.475  0.0228 -0.1470  0.5621
  879MOL0     C18571   1.688   8.705  -0.604  0.1369 -0.3465 -0.0916
  879MOL0     C18572   1.598   8.723  -0.730 -0.1922 -0.6719 -1.3305
  879MOL0     C18573   1.655   8.810  -0.832 -0.4210  0.1732  0.3350
  879MOL0    Cl18574   1.696   8.975  -0.770  0.5872  0.5216  0.2951
  879MOL0     C18575   1.723   8.140   0.114 -0.4671  0.9760  0.7927
  879MOL0     C18576   1.721   8.070   0.238  0.3129  0.7851  0.7222
  879MOL0     O18577   2.016   7.879   0.421  0.3283 -0.5645 -0.0264
  879MOL0     C18578   1.801   7.935   0.702 -1.7903  0.5265 -0.1763
  879MOL0     C18579   1.766   7.884   0.831 -0.0641 -0.7644  0.7041
  879MOL0     N18580   2.248   7.413   1.295 -0.7325 -0.2343 -0.2033
  879MOL0     N18581   2.313   7.334   1.374 -0.1965 -0.7554  0.1610
  879MOL0     C18582   1.802   6.482   2.104  0.1130 -0.3655  0.3211
  879MOL0     C18583   1.765   6.419   2.223 -0.8242  0.2691 -0.1933
  879MOL0     C18584   1.444   6.246   2.515  0.5922  0.4824  0.2199
  879MOL0     C18585   1.508   6.131   2.565 -0.9971  0.1233  0.0778
  879MOL0     C18586   1.474   6.060   2.681  0.5756 -0.2533 -0.2263
  879MOL0     C18587   1.364   6.106   2.760 -0.6743 -0.1501  0.7773
  879MOL0     O18588   1.318   6.039   2.870  1.0967 -0.9142  1.0005
  879MOL0     C18589   1.317   5.907   2.894 -0.2626  0.6657  0.1907
  879MOL0     C18590   1.278   5.873   3.040 -0.8342 -0.0369  0.1373
  879MOL0     C18591   1.125   5.889   3.055 -0.1633 -0.0629 -0.5074
  879MOL0     C18592   1.101   6.016   3.142  0.7288 -0.3300 -0.5901
  879MOL0     C18593   1.113   5.989   3.292 -0.4630 -0.2962  0.5326
  879MOL0     C18594   1.122   5.959   3.414  0.9453  0.1926 -0.6537
  879MOL0     C18595   1.303   6.216   2.707 -0.1307  0.4778 -0.0824
  879MOL0     C18596   1.345   6.296   2.600  0.6298  0.0570  0.4034
  879MOL0     C18597   1.264   6.420   2.587  0.1725  1.2732  0.1231
  879MOL0     H18598   1.448   6.544   2.250 -1.1078 -0.3143 -2.1895
  879MOL0     H18599   1.513   6.646   2.035  1.7544  1.5577 -0.4325
  879MOL0     H18600   1.841   6.794   2.027 -2.8503 -0.5449 -1.4059
  879MOL0     H18601   1.949   6.660   1.978 -0.8763 -0.0027  1.1770
  879MOL0     H18602   1.797   6.865   1.802 -1.1607 -0.4674  1.4190
  879MOL0     H18603   1.893   6.728   1.739  2.8085  1.9369 -0.6909
  879MOL0     H18604   2.075   6.869   1.897 -0.1945 -0.2126  0.2571
  879MOL0     H18605   1.955   6.990   1.873 -2.1212 -2.4736  0.9844
  879MOL0     H18606   2.059   6.848   1.629  1.2932 -1.6836  1.9258
  879MOL0     H18607   1.961   6.994   1.641 -0.5198  1.3138  0.9718
  879MOL0     H18608   2.157   7.075   1.817 -0.2736 -1.4889  0.9192
  879MOL0     H18609   2.253   6.958   1.752  0.2457  0.1275 -0.0397
  879MOL0     H18610   2.152   7.190   1.587  0.0933  0.3774  0.0346
  879MOL0     H18611   2.309   7.168   1.648 -0.5351  1.9927  0.2671
  879MOL0     H18612   2.190   6.978   1.434 -1.2194  1.4746  0.7785
  879MOL0     H18613   2.316   6.919   1.527 -1.2686 -0.7913 -1.2619
  879MOL0     H18614   2.460   7.110   1.425  2.1237 -2.2929 -0.9936
  879MOL0     H18615   2.382   7.014   1.301  0.2908 -1.9470  2.6161
  879MOL0     H18616   2.202   7.127   1.146  0.4945  1.3785 -1.0093
  879MOL0     H18617   2.131   7.499   1.068 -0.9788  1.8143  0.9703
  879MOL0     H18618   2.104   7.346   0.983  1.4619  3.8920 -1.2367
  879MOL0     H18619   1.897   7.315   1.114  0.4846  0.6136  0.3898
  879MOL0     H18620   1.965   7.448   1.221  3.8930 -0.0012 -0.3531
  879MOL0     H18621   1.772   7.484   1.066  1.7304 -1.4151  2.4513
  879MOL0     H18622   1.902   7.506   0.942  1.7852 -0.9834 -0.1364
  879MOL0     H18623   1.991   7.688   1.076 -0.2526 -0.5679 -0.7548
  879MOL0     H18624   1.862   7.672   1.195  1.7480 -0.3882 -0.2197
  879MOL0     H18625   2.011   7.662   0.864  1.2899 -0.5622 -0.6292
  879MOL0     H18626   2.057   7.739   0.621  0.6640  2.8771 -0.4534
  879MOL0     H18627   2.049   8.115   0.324 -0.7804  0.1510  1.1214
  879MOL0     H18628   2.067   8.209   0.095  0.2262 -2.5496 -1.5269
  879MOL0     H18629   1.650   8.273  -0.146 -3.4055  5.9187 -3.0228
  879MOL0     H18630   1.694   8.381  -0.008 -3.4006  0.4481 -0.5949
  879MOL0     H18631   1.848   8.499  -0.141  2.3647  1.1365 -5.0732
  879MOL0     H18632   1.833   8.390  -0.276  0.2230  0.1706  0.0748
  879MOL0     H18633   1.590   8.441  -0.301 -0.4205  1.0283 -0.9273
  879MOL0     H18634   1.616   8.593  -0.207  0.5357 -0.1904  1.3480
  879MOL0     H18635   1.789   8.513  -0.446 -0.9498  0.3811 -0.0978
  879MOL0     H18636   1.796   8.647  -0.330  0.4286 -1.6245  1.8693
  879MOL0     H18637   1.563   8.725  -0.422  0.8905  1.9149 -1.2240
  879MOL0     H18638   1.556   8.568  -0.502 -0.5131  0.1149  1.0627
  879MOL0     H18639   1.726   8.804  -0.579  0.7029 -0.9563  1.5782
  879MOL0     H18640   1.768   8.636  -0.633 -0.5795 -1.2542  0.0410
  879MOL0     H18641   1.509   8.775  -0.695  2.6381  3.7836  0.0967
  879MOL0     H18642   1.575   8.626  -0.775  0.8941 -1.3713 -0.4224
  879MOL0     H18643   1.749   8.761  -0.861  0.2732  0.7892  1.4748
  879MOL0     H18644   1.580   8.806  -0.911 -1.2603 -0.5377  1.1495
  879MOL0     H18645   1.630   8.139   0.058  2.0148  0.9582 -3.7974
  879MOL0     H18646   1.628   8.029   0.276  0.1971  0.2032 -0.1441
  879MOL0     H18647   1.747   8.024   0.671 -1.9077  1.1084  1.6116
  879MOL0     H18648   1.686   7.940   0.878 -0.0044 -0.2620  0.2144
  879MOL0     H18649   1.900   6.462   2.061  1.4224  2.7959  1.4935
  879MOL0     H18650   1.833   6.349   2.270 -1.8861  1.5476  3.5542
  879MOL0     H18651   1.590   6.102   2.499  0.1287  3.7723 -0.3714
  879MOL0     H18652   1.518   5.968   2.719 -2.3024 -0.2519  3.8459
  879MOL0     H18653   1.418   5.865   2.885  0.9957  2.4308  4.0694
  879MOL0     H18654   1.252   5.862   2.818 -3.2201  0.9914  2.3603
  879MOL0     H18655   1.334   5.938   3.108 -2.7017  2.7710 -0.8209
  879MOL0     H18656   1.312   5.770   3.045 -1.2870 -0.5344 -3.6910
  879MOL0     H18657   1.085   5.793   3.089 -0.1823 -0.7162 -2.2295
  879MOL0     H18658   1.082   5.905   2.956  1.1118 -0.6850 -1.1950
  879MOL0     H18659   1.168   6.096   3.109 -1.6786  2.1916  0.2578
  879MOL0     H18660   0.999   6.055   3.132 -1.3806 -4.3540  2.4338
  879MOL0     H18661   1.117   5.914   3.511  1.2424 -1.9380 -1.5817
  879MOL0     H18662   1.222   6.261   2.764 -1.3848 -0.0179 -1.4226
  879MOL0     H18663   1.303   6.505   2.644  1.4137  0.6757  0.1947
  879MOL0     H18664   1.250   6.442   2.480  2.3130  3.1435  0.1506
  879MOL0     H18665   1.166   6.394   2.626  0.9813  2.5864  3.2931
  880MOL0     O18666   7.323  10.301   5.996  0.2079 -0.1731 -0.5270
  880MOL0     C18667   7.222  10.316   6.065  0.3446 -0.0633 -1.0333
  880MOL0     O18668   7.094  10.281   6.028  0.6940 -0.3469  0.3278
  880MOL0     C18669   7.058  10.201   5.923  0.1456 -0.9523  0.3829
  880MOL0     C18670   6.924  10.159   5.934  0.7700  0.1553  0.9528
  880MOL0     C18671   6.865  10.074   5.841  0.0418  0.4555 -0.8180
  880MOL0     C18672   6.926  10.029   5.726 -0.6211  0.3789 -0.0435
  880MOL0     O18673   6.847   9.944   5.650 -0.0428 -0.5283  0.0729
  880MOL0     C18674   6.892   9.920   5.520  0.2367 -0.1264  0.5533
  880MOL0     C18675   6.998   9.803   5.501 -0.3981 -0.1123  0.7044
  880MOL0     C18676   6.983   9.711   5.383  0.9947  0.4569  0.5312
  880MOL0     C18677   7.012   9.772   5.252 -0.0975 -1.1457  0.1031
  880MOL0     C18678   6.924   9.709   5.126  0.0285 -0.6256  0.3777
  880MOL0     C18679   6.975   9.778   4.998  1.4477 -0.7301  0.1118
  880MOL0     C18680   6.942   9.928   4.982 -0.0497  0.0740  0.3286
  880MOL0     C18681   7.018   9.980   4.868 -0.1490 -0.3543  0.5888
  880MOL0     N18682   6.957  10.104   4.822 -0.1218 -0.7332  0.1505
  880MOL0     C18683   6.944  10.214   4.901 -0.0718 -0.1673  0.8205
  880MOL0     C18684   6.870  10.300   4.825 -0.1346  0.1293  0.4666
  880MOL0     C18685   6.832  10.444   4.847 -0.7198  0.4740  0.0320
  880MOL0     C18686   6.956  10.544   4.820  0.3878 -0.1048  0.0709
  880MOL0     C18687   6.898  10.681   4.839  0.4334 -0.9797  0.3601
  880MOL0     C18688   6.784  10.729   4.742 -0.1667 -0.0781 -0.3567
  880MOL0     O18689   6.822  10.712   4.611 -0.3150 -0.0009  0.2545
  880MOL0     C18690   6.736  10.767   4.516 -0.0839 -0.4700 -0.3057
  880MOL0     C18691   6.782  10.764   4.377  0.0938 -0.6054 -0.2088
  880MOL0     C18692   6.700  10.829   4.275  0.0178  1.4644 -0.3258
  880MOL0     C18693   6.579  10.892   4.320  0.6278  0.1402  0.1410
  880MOL0     C18694   6.512  10.979   4.222  1.1429 -0.2007 -0.7748
  880MOL0     O18695   6.384  11.017   4.250  0.2689 -0.6017  0.5722
  880MOL0     C18696   6.325  11.118   4.167 -0.5982 -0.7052  0.4563
  880MOL0     C18697   6.326  11.256   4.212 -0.0770 -0.3388  0.0689
  880MOL0     C18698   6.257  11.361   4.147  0.3863 -1.0098 -0.0769
  880MOL0     C18699   6.193  11.325   4.025  0.7675 -0.4759 -0.3950
  880MOL0     O18700   6.139  11.424   3.951  0.5615  0.9304 -0.7259
  880MOL0     C18701   6.203  11.457   3.830  0.8309 -0.5409  1.2222
  880MOL0     C18702   6.170  11.602   3.802  0.6597 -0.2100 -0.0458
  880MOL0     C18703   6.198  11.714   3.903 -0.0109  0.3882  0.0541
  880MOL0     C18704   6.310  11.692   3.996 -0.0211  0.2877  0.1426
  880MOL0     C18705   6.291  11.768   4.127 -0.4370  0.4211 -0.1045
  880MOL0     C18706   6.420  11.733   4.199  0.8783  0.3505  0.4647
  880MOL0     C18707   6.423  11.817   4.327 -0.2370 -0.2993 -0.5963
  880MOL0     C18708   6.507  11.947   4.316  0.1272 -0.1249 -0.3669
  880MOL0    Cl18709   6.676  11.891   4.264 -0.0576  0.5118  0.1172
  880MOL0     C18710   6.194  11.194   3.983  0.6682 -0.0303 -0.1334
  880MOL0     C18711   6.257  11.092   4.055  0.2173 -0.5109  0.3679
  880MOL0     O18712   6.581  11.017   4.130 -1.2811 -0.1082 -0.9218
  880MOL0     C18713   6.527  10.876   4.448  0.1891 -0.1611  0.5545
  880MOL0     C18714   6.612  10.827   4.548  1.1032 -0.3638  0.2334
  880MOL0     N18715   6.838  10.240   4.711  0.0261  0.4528  0.6478
  880MOL0     N18716   6.889  10.118   4.709  0.4672 -0.3724 -0.4508
  880MOL0     C18717   7.069  10.057   5.715 -0.3771  0.3800 -0.3835
  880MOL0     C18718   7.134  10.137   5.814  0.4889  0.3657  0.3297
  880MOL0     C18719   7.235  10.350   6.213  0.8096 -0.2262 -0.3201
  880MOL0     C18720   7.124  10.321   6.296  0.2379  0.2608  0.2632
  880MOL0     C18721   7.121  10.370   6.424  0.6282  0.1466 -0.1000
  880MOL0     C18722   7.224  10.444   6.479 -0.5596  0.7331 -0.6836
  880MOL0     O18723   7.237  10.492   6.612  0.0556 -0.2387 -0.2706
  880MOL0     C18724   7.148  10.442   6.718 -0.2662 -0.8025  0.7124
  880MOL0     C18725   7.194  10.467   6.866 -1.0923  0.7332  0.6558
  880MOL0     C18726   7.261  10.341   6.919 -0.9989  0.4541 -0.2510
  880MOL0     C18727   7.306  10.334   7.066 -0.8130 -0.2566  0.3420
  880MOL0     C18728   7.192  10.313   7.142  0.8510 -0.1968 -0.1054
  880MOL0     C18729   7.091  10.285   7.205  0.1934  0.2946 -0.1754
  880MOL0     C18730   7.335  10.464   6.402  0.1861 -0.1086  1.1300
  880MOL0     C18731   7.350  10.420   6.270 -0.0569 -0.5917 -0.7047
  880MOL0     C18732   7.487  10.454   6.186  0.3816 -0.6612 -0.2258
  880MOL0     H18733   6.860  10.184   6.019 -1.3441  1.1222 -0.8217
  880MOL0     H18734   6.760  10.048   5.851 -0.0187  1.1984  0.9992
  880MOL0     H18735   6.808   9.876   5.466  1.1497  0.5811 -1.5557
  880MOL0     H18736   6.914  10.016   5.471 -2.1757  0.9420  1.4392
  880MOL0     H18737   6.996   9.744   5.593 -2.9025  0.0912  0.8536
  880MOL0     H18738   7.098   9.840   5.479 -1.3260  1.4624 -1.2306
  880MOL0     H18739   6.880   9.674   5.383 -0.0584  3.0930 -0.4462
  880MOL0     H18740   7.050   9.625   5.383  1.4795  0.8219  1.7112
  880MOL0     H18741   6.987   9.878   5.263 -0.3808 -1.0162 -1.5600
  880MOL0     H18742   7.118   9.758   5.233 -0.2844 -1.8013 -0.5139
  880MOL0     H18743   6.961   9.606   5.126  0.3570 -0.5091  0.5719
  880MOL0     H18744   6.815   9.723   5.132 -0.0559 -0.7595 -0.7630
  880MOL0     H18745   7.084   9.771   4.999  1.5766 -1.9931 -3.7335
  880MOL0     H18746   6.932   9.721   4.915  0.5635  0.3725 -0.2141
  880MOL0     H18747   6.951   9.986   5.074 -0.4574 -2.4453  2.0625
  880MOL0     H18748   6.835   9.935   4.959  0.2672 -0.6891 -1.6088
  880MOL0     H18749   7.125   9.985   4.893 -0.1297  0.7580  0.3328
  880MOL0     H18750   7.006   9.906   4.788  1.4468  2.3429 -2.4017
  880MOL0     H18751   6.976  10.223   5.004  0.6702 -1.0716  0.6855
  880MOL0     H18752   6.757  10.470   4.771  0.2650 -2.1386 -2.0001
  880MOL0     H18753   6.785  10.450   4.946  1.4966 -1.3970  1.2884
  880MOL0     H18754   7.036  10.519   4.891  2.0594 -0.5701 -1.8733
  880MOL0     H18755   6.994  10.536   4.718  2.9576 -0.8140  0.9987
  880MOL0     H18756   6.974  10.749   4.799  0.4202 -2.9965 -3.5016
  880MOL0     H18757   6.880  10.704   4.945 -0.7288 -1.2148  0.2204
  880MOL0     H18758   6.774  10.836   4.764 -1.1068  0.0473 -1.3426
  880MOL0     H18759   6.693  10.669   4.747 -0.3954  0.2807 -0.1601
  880MOL0     H18760   6.885  10.731   4.365  1.3272  2.0326  1.9037
  880MOL0     H18761   6.733  10.823   4.172 -0.2980 -3.7551 -0.4190
  880MOL0     H18762   6.378  11.286   4.303 -1.2035 -1.7020  1.2190
  880MOL0     H18763   6.262  11.463   4.183  1.5784 -2.2917  3.9276
  880MOL0     H18764   6.310  11.444   3.844  0.6734 -1.1402  1.9262
  880MOL0     H18765   6.169  11.399   3.744  2.2063  2.5122 -1.5921
  880MOL0     H18766   6.214  11.628   3.705  2.2455 -0.8592  0.4635
  880MOL0     H18767   6.061  11.613   3.798  0.3457  1.0048  5.1563
  880MOL0     H18768   6.210  11.804   3.843  0.5938  0.4359  0.2396
  880MOL0     H18769   6.115  11.709   3.974  1.1018  1.3098  1.4711
  880MOL0     H18770   6.406  11.716   3.949  1.0621 -2.1845  0.9151
  880MOL0     H18771   6.319  11.583   4.005 -1.7864  0.1809  1.0179
  880MOL0     H18772   6.208  11.734   4.190 -2.1256  1.6133 -1.5828
  880MOL0     H18773   6.285  11.873   4.097  1.2424  0.9460  1.2566
  880MOL0     H18774   6.425  11.628   4.227 -2.5407 -0.3356 -0.9459
  880MOL0     H18775   6.503  11.752   4.130 -1.4978 -0.9438 -3.0492
  880MOL0     H18776   6.472  11.757   4.404 -0.1913  2.5825  1.8194
  880MOL0     H18777   6.320  11.836   4.356  0.2178 -1.0196  1.7135
  880MOL0     H18778   6.468  12.015   4.240 -0.6111 -0.2750 -0.1377
  880MOL0     H18779   6.509  11.989   4.417 -0.3377 -0.5241 -0.1847
  880MOL0     H18780   6.129  11.179   3.898 -1.5412  3.6346  0.6843
  880MOL0     H18781   6.236  10.990   4.022 -4.4038 -0.4926  2.4840
  880MOL0     H18782   6.437  10.927   4.479 -0.4915 -0.4861 -0.8321
  880MOL0     H18783   6.577  10.857   4.646 -0.9490 -0.7547 -0.3326
  880MOL0     H18784   7.127  10.023   5.629  1.3657  2.2214 -0.0196
  880MOL0     H18785   7.241  10.149   5.805  0.5595 -1.1903 -1.5339
  880MOL0     H18786   7.046  10.269   6.242  1.3189  1.4271 -2.6169
  880MOL0     H18787   7.036  10.343   6.487  1.0278 -1.4449 -0.1904
  880MOL0     H18788   7.115  10.342   6.690  0.1917 -0.6842 -0.2677
  880MOL0     H18789   7.062  10.508   6.703  0.9040  0.5775 -0.1976
  880MOL0     H18790   7.105  10.485   6.927 -0.8838 -2.4806  2.0760
  880MOL0     H18791   7.260  10.554   6.868  0.3157 -0.2915  0.0261
  880MOL0     H18792   7.350  10.329   6.857 -0.1498  0.8499  0.8576
  880MOL0     H18793   7.189  10.261   6.896  0.4180 -0.3385 -2.1716
  880MOL0     H18794   7.383  10.260   7.092 -0.2629  0.0571 -0.3563
  880MOL0     H18795   7.340  10.433   7.097 -4.1252  0.7601  1.0557
  880MOL0     H18796   6.997  10.270   7.254  1.6744 -1.2307  2.4881
  880MOL0     H18797   7.411  10.527   6.447 -1.5513  1.5851  1.8457
  880MOL0     H18798   7.478  10.542   6.122 -0.3638 -0.7277 -0.2258
  880MOL0     H18799   7.565  10.480   6.258 -1.9847  2.0633  1.6090
  880MOL0     H18800   7.530  10.373   6.126  1.7190  0.0609 -0.2618
  881MOL0     O18801   8.287   7.565  11.417  0.5065 -0.7351 -0.2863
  881MOL0     C18802   8.239   7.466  11.471 -0.6523  0.1328  0.3213
  881MOL0     O18803   8.112   7.419  11.463 -0.5187  0.7654 -0.6183
  881MOL0     C18804   8.008   7.497  11.420 -0.3046  0.0797  0.0288
  881MOL0     C18805   7.926   7.558  11.514  0.7228 -0.6202  0.8317
  881MOL0     C18806   7.816   7.637  11.475  0.5566 -0.4840  0.3495
  881MOL0     C18807   7.788   7.650  11.341 -0.1411  0.1451 -0.8649
  881MOL0     O18808   7.666   7.714  11.309 -0.2219 -0.6824 -0.3521
  881MOL0     C18809   7.640   7.760  11.179 -0.2388 -1.0412 -0.9092
  881MOL0     C18810   7.486   7.774  11.149 -0.3064 -0.5473 -0.5377
  881MOL0     C18811   7.418   7.640  11.163 -0.2222 -0.3653 -0.0842
  881MOL0     C18812   7.293   7.615  11.089 -0.4864  0.4652  0.5070
  881MOL0     C18813   7.314   7.620  10.933  0.1540 -0.4489 -0.1637
  881MOL0     C18814   7.185   7.574  10.865 -0.5916 -0.9019 -0.2209
  881MOL0     C18815   7.210   7.535  10.723  0.5413  0.1339  0.7485
  881MOL0     C18816   7.088   7.466  10.659  0.4386  0.4778  0.0526
  881MOL0     N18817   7.132   7.393  10.533  0.6846 -0.0425  0.8916
  881MOL0     C18818   7.171   7.266  10.532  0.7536  0.1131 -0.0970
  881MOL0     C18819   7.171   7.244  10.399  0.3356 -0.5023  0.8995
  881MOL0     C18820   7.243   7.136  10.327  0.7030  0.9315 -0.9718
  881MOL0     C18821   7.149   7.078  10.211 -0.0108 -0.7741 -0.7690
  881MOL0     C18822   7.220   6.965  10.120  0.4729  0.2119 -0.3643
  881MOL0     C18823   7.130   6.932   9.998 -0.6388 -0.8299  0.7217
  881MOL0     O18824   7.126   7.035   9.895  0.8744 -0.5859 -0.1177
  881MOL0     C18825   7.031   7.021   9.805  0.1950 -1.2750  0.8466
  881MOL0     C18826   7.042   7.098   9.694 -0.5477  0.3799  0.2010
  881MOL0     C18827   6.973   7.077   9.584 -0.3215  0.0929 -0.1461
  881MOL0     C18828   6.859   6.988   9.577 -0.3839 -1.2938  0.1002
  881MOL0     C18829   6.784   6.982   9.449 -0.2565 -0.2937  0.1635
  881MOL0     O18830   6.783   7.104   9.375  0.4371 -0.5227  0.4399
  881MOL0     C18831   6.731   7.093   9.246 -0.1822 -0.4396 -0.4512
  881MOL0     C18832   6.825   7.072   9.146  1.0390  0.6113  0.0834
  881MOL0     C18833   6.789   7.039   9.018 -0.9583  0.2801 -0.7854
  881MOL0     C18834   6.655   7.049   8.977  0.7110 -0.3210  0.0700
  881MOL0     O18835   6.620   7.037   8.839  0.2493 -0.0048 -1.0082
  881MOL0     C18836   6.670   6.926   8.758 -0.1118 -0.2605 -0.6613
  881MOL0     C18837   6.612   6.947   8.621  0.1021 -0.0518 -0.4291
  881MOL0     C18838   6.682   7.069   8.556  0.2730 -0.7845 -0.5991
  881MOL0     C18839   6.688   7.057   8.404  0.4147  0.5569  0.1263
  881MOL0     C18840   6.778   7.154   8.334  0.1803  0.0020 -0.9128
  881MOL0     C18841   6.930   7.112   8.331 -0.3991  0.2426  0.6627
  881MOL0     C18842   7.018   7.232   8.285 -0.0332  0.6307 -0.1518
  881MOL0     C18843   7.160   7.188   8.294 -0.8488 -0.5107 -0.2004
  881MOL0    Cl18844   7.265   7.323   8.260 -0.1320  0.1030  0.2355
  881MOL0     C18845   6.558   7.072   9.074 -0.2937  0.6117  0.2284
  881MOL0     C18846   6.592   7.089   9.206 -0.5890  0.6452  0.1083
  881MOL0     O18847   6.723   6.881   9.413  0.5628  0.4552  0.5457
  881MOL0     C18848   6.843   6.918   9.691  0.7212  0.6471 -0.1843
  881MOL0     C18849   6.928   6.926   9.809  0.0180  0.4324 -0.2454
  881MOL0     N18850   7.129   7.352  10.333  0.3668  0.3093  0.6325
  881MOL0     N18851   7.096   7.441  10.412  0.2832  0.2128  0.2883
  881MOL0     C18852   7.862   7.573  11.243 -0.0619 -0.0148 -0.1903
  881MOL0     C18853   7.976   7.495  11.289  0.4818  0.4100 -0.4100
  881MOL0     C18854   8.336   7.389  11.550 -0.1035 -0.0060 -0.3474
  881MOL0     C18855   8.350   7.249  11.514  0.4760  0.6385  0.0287
  881MOL0     C18856   8.436   7.167  11.584 -0.8070  0.3793  0.1866
  881MOL0     C18857   8.502   7.207  11.699  0.2163 -0.1436 -0.3698
  881MOL0     O18858   8.565   7.105  11.771  0.6037 -0.5951 -0.2727
  881MOL0     C18859   8.656   7.024  11.698 -1.3556 -0.1558 -0.2036
  881MOL0     C18860   8.798   7.055  11.757  0.4437 -0.1826 -1.6689
  881MOL0     C18861   8.908   6.958  11.698 -0.2213  0.2716 -0.6914
  881MOL0     C18862   9.014   6.920  11.798 -0.5120  0.3779  0.0460
  881MOL0     C18863   9.095   7.031  11.840 -0.4726  0.8336  0.2046
  881MOL0     C18864   9.179   7.117  11.868 -0.4305 -0.1642  0.2760
  881MOL0     C18865   8.490   7.337  11.743  1.0542  0.5868  0.0922
  881MOL0     C18866   8.411   7.429  11.665  0.4673  0.2090 -0.4252
  881MOL0     C18867   8.399   7.563  11.727 -0.6185 -0.4798 -0.5844
  881MOL0     H18868   7.958   7.561  11.618  4.2456 -0.6190 -0.1439
  881MOL0     H18869   7.780   7.701  11.555  2.8158 -0.2822  1.2797
  881MOL0     H18870   7.676   7.863  11.179 -0.0147 -1.0940  0.8838
  881MOL0     H18871   7.685   7.703  11.097 -0.6769 -1.3334 -0.9508
  881MOL0     H18872   7.490   7.816  11.048 -3.4332 -0.5218 -0.7335
  881MOL0     H18873   7.438   7.837  11.224 -0.0241  0.0876 -0.8774
  881MOL0     H18874   7.388   7.633  11.268 -2.5904 -2.6482 -0.7963
  881MOL0     H18875   7.487   7.558  11.144  0.1757  0.3261 -1.9079
  881MOL0     H18876   7.250   7.518  11.114 -2.3008 -0.2164 -4.1172
  881MOL0     H18877   7.216   7.688  11.116 -2.7766 -0.4364 -2.8418
  881MOL0     H18878   7.337   7.724  10.909  1.9653 -0.0893  2.6581
  881MOL0     H18879   7.397   7.556  10.901 -0.9867 -1.6999 -0.7375
  881MOL0     H18880   7.146   7.491  10.924 -0.6391  0.3279  1.5687
  881MOL0     H18881   7.116   7.658  10.854  2.5951  1.6228 -3.5541
  881MOL0     H18882   7.297   7.469  10.729  1.7604  1.6907  0.8543
  881MOL0     H18883   7.240   7.614  10.654 -0.1901 -0.3084 -0.1003
  881MOL0     H18884   7.046   7.388  10.723  1.3680 -1.2277 -1.3222
  881MOL0     H18885   7.011   7.543  10.651  1.5198  2.2431  4.1505
  881MOL0     H18886   7.190   7.205  10.619 -1.5615 -2.4214 -1.2237
  881MOL0     H18887   7.337   7.171  10.285  0.7701 -2.5563 -4.2648
  881MOL0     H18888   7.270   7.061  10.402  1.8190  1.1765 -1.1149
  881MOL0     H18889   7.054   7.046  10.255  1.3279 -1.4958  1.7869
  881MOL0     H18890   7.137   7.159  10.138  0.7263  0.3705  0.3456
  881MOL0     H18891   7.217   6.883  10.192 -3.5359 -1.7019 -2.3728
  881MOL0     H18892   7.324   6.990  10.099 -0.1283  0.4887 -3.3447
  881MOL0     H18893   7.027   6.935  10.035 -0.5244  2.2054  1.0816
  881MOL0     H18894   7.149   6.834   9.955 -1.9423 -0.6413 -0.3623
  881MOL0     H18895   7.119   7.175   9.691  0.5855 -0.6826  1.0862
  881MOL0     H18896   6.992   7.127   9.490 -3.5592 -0.0620 -1.0140
  881MOL0     H18897   6.928   7.077   9.181  1.5853  1.2591 -1.5016
  881MOL0     H18898   6.866   7.011   8.947  0.6307  1.5391  0.3937
  881MOL0     H18899   6.779   6.917   8.757  0.0658  1.5118 -0.4587
  881MOL0     H18900   6.627   6.827   8.778  3.3678 -2.7138 -3.9245
  881MOL0     H18901   6.623   6.852   8.568  1.3776 -0.9655  1.3520
  881MOL0     H18902   6.504   6.967   8.625 -0.1207 -1.0617 -0.9855
  881MOL0     H18903   6.626   7.160   8.580  1.0941 -0.3070 -0.4502
  881MOL0     H18904   6.783   7.079   8.598  0.6411  1.2480 -1.8139
  881MOL0     H18905   6.590   7.068   8.357  0.0690 -0.6330  0.5418
  881MOL0     H18906   6.729   6.959   8.378 -4.0193 -2.1978  2.4849
  881MOL0     H18907   6.769   7.247   8.391 -0.3643  0.1617 -1.2545
  881MOL0     H18908   6.743   7.176   8.233 -0.9728 -0.3544 -0.6137
  881MOL0     H18909   6.960   7.086   8.433 -0.4938  1.4056  1.0038
  881MOL0     H18910   6.956   7.034   8.259  0.1014  1.4075 -0.4438
  881MOL0     H18911   6.999   7.316   8.353 -0.9430  1.0655 -0.9328
  881MOL0     H18912   6.986   7.258   8.184 -1.0443 -2.4292 -0.7353
  881MOL0     H18913   7.177   7.143   8.393 -2.2645 -1.7667 -0.4887
  881MOL0     H18914   7.185   7.116   8.216  3.1884  0.6115 -0.1879
  881MOL0     H18915   6.456   7.081   9.036  0.2532 -1.2533 -1.9223
  881MOL0     H18916   6.522   7.110   9.286 -0.1390  1.2530  0.3555
  881MOL0     H18917   6.766   6.841   9.689  1.0638  0.2668  0.8691
  881MOL0     H18918   6.924   6.862   9.896 -1.3948 -0.2097 -0.7646
  881MOL0     H18919   7.838   7.576  11.137 -0.1872 -0.8293 -0.1911
  881MOL0     H18920   8.041   7.444  11.219  1.1141  2.1473 -1.1261
  881MOL0     H18921   8.290   7.211  11.433  2.5424 -2.4163 -0.2612
  881MOL0     H18922   8.460   7.067  11.551  1.4437  1.3945 -1.6178
  881MOL0     H18923   8.656   7.053  11.593  0.2649  3.1922  0.6005
  881MOL0     H18924   8.648   6.915  11.689  3.0418 -0.4957 -3.5355
  881MOL0     H18925   8.782   7.049  11.865 -2.1107  1.2863 -1.8799
  881MOL0     H18926   8.819   7.157  11.725 -0.5581 -0.1899 -2.3963
  881MOL0     H18927   8.957   7.020  11.622 -3.6492 -0.2169 -3.5868
  881MOL0     H18928   8.853   6.871  11.660 -3.6096  1.8586  0.1741
  881MOL0     H18929   8.970   6.875  11.887 -1.3482 -3.1303 -1.9554
  881MOL0     H18930   9.074   6.849  11.741  0.2663  2.5554 -2.0042
  881MOL0     H18931   9.247   7.194  11.898  0.1762 -1.5446  2.8185
  881MOL0     H18932   8.545   7.372  11.830 -2.1661 -1.7645  3.3569
  881MOL0     H18933   8.306   7.564  11.785 -2.9860 -5.1518 -3.6244
  881MOL0     H18934   8.483   7.577  11.795  0.6813 -2.4315 -1.6858
  881MOL0     H18935   8.401   7.641  11.650 -0.6825 -2.5830 -2.8467
  882MOL0     O18936  11.410   6.449   3.055  0.7792 -0.8600  0.6195
  882MOL0     C18937  11.342   6.438   3.158  0.1800 -0.6453  0.8421
  882MOL0     O18938  11.320   6.327   3.235 -0.5153  0.0278  0.4533
  882MOL0     C18939  11.366   6.207   3.181  0.2047  0.1539  0.0962
  882MOL0     C18940  11.317   6.151   3.056 -0.8910  0.4444  0.0400
  882MOL0     C18941  11.372   6.029   3.009 -0.5113 -0.4523  0.1534
  882MOL0     C18942  11.476   5.963   3.087 -0.3941  0.3864  0.0447
  882MOL0     O18943  11.535   5.836   3.071  0.2555 -0.0068  0.2429
  882MOL0     C18944  11.532   5.782   2.935  0.0204 -0.8700 -0.2088
  882MOL0     C18945  11.655   5.685   2.920  0.2192 -0.3450  0.3883
  882MOL0     C18946  11.632   5.557   2.994 -0.3341  1.2911 -0.7237
  882MOL0     C18947  11.757   5.469   3.002 -0.3642 -0.2258 -1.6545
  882MOL0     C18948  11.752   5.382   3.141  0.2139 -0.0802 -0.3536
  882MOL0     C18949  11.883   5.330   3.206  0.5680 -0.7388 -0.0030
  882MOL0     C18950  11.951   5.228   3.105  0.4112 -0.4352 -0.1561
  882MOL0     C18951  12.067   5.152   3.193  0.1916 -0.1985  0.2943
  882MOL0     N18952  12.018   5.068   3.301 -0.1000 -0.4941 -0.3886
  882MOL0     C18953  12.096   4.995   3.385 -0.1398 -0.5349 -0.3944
  882MOL0     C18954  12.011   4.930   3.463 -0.9481  1.2556 -0.2126
  882MOL0     C18955  12.032   4.842   3.592 -0.1446 -0.2498  0.2116
  882MOL0     C18956  12.058   4.699   3.557 -0.6579  0.1630 -0.0920
  882MOL0     C18957  12.110   4.633   3.687 -0.5078  0.1201  0.8469
  882MOL0     C18958  12.128   4.485   3.669  0.8513 -0.0418  1.3336
  882MOL0     O18959  12.187   4.464   3.542 -0.0076  0.2857  0.8295
  882MOL0     C18960  12.197   4.342   3.481  0.7366 -0.3336 -0.1902
  882MOL0     C18961  12.251   4.356   3.356 -0.6930 -0.1616  0.7092
  882MOL0     C18962  12.286   4.249   3.284  0.3433 -0.9517  0.8590
  882MOL0     C18963  12.253   4.120   3.331 -1.4316 -0.7999  0.9844
  882MOL0     C18964  12.293   4.004   3.257 -0.0529  0.3477  0.1000
  882MOL0     O18965  12.245   3.888   3.305  0.5325 -0.1496 -0.3646
  882MOL0     C18966  12.264   3.763   3.249 -0.4377 -0.3792  0.0006
  882MOL0     C18967  12.164   3.680   3.289 -0.3128  0.9424 -0.6451
  882MOL0     C18968  12.154   3.545   3.258  0.0001  0.0416 -0.5387
  882MOL0     C18969  12.255   3.487   3.168  0.3245  0.5463  0.2128
  882MOL0     O18970  12.232   3.356   3.136  0.1643 -0.4676 -0.4240
  882MOL0     C18971  12.192   3.336   2.996 -0.3101  0.1085 -0.5510
  882MOL0     C18972  12.161   3.183   2.973  0.0533 -0.3626 -0.2715
  882MOL0     C18973  12.131   3.168   2.822 -0.9398  0.7213  0.3819
  882MOL0     C18974  11.993   3.185   2.781  0.0625 -0.1959  0.8131
  882MOL0     C18975  11.912   3.060   2.839  0.0042  0.8082  0.1952
  882MOL0     C18976  11.759   3.079   2.833  0.2225 -0.1821 -0.1650
  882MOL0     C18977  11.733   3.065   2.682 -0.2402  0.1839  0.6101
  882MOL0     C18978  11.592   3.026   2.642 -0.2016 -0.5649  0.3258
  882MOL0    Cl18979  11.477   3.168   2.698 -0.0484 -0.2397  0.8009
  882MOL0     C18980  12.351   3.583   3.110 -0.0074 -0.5696 -1.5672
  882MOL0     C18981  12.353   3.719   3.151  0.4874  0.3490  0.2952
  882MOL0     O18982  12.342   4.017   3.145 -0.1278  0.0347 -0.5061
  882MOL0     C18983  12.187   4.107   3.450 -0.0791 -0.1411 -0.0062
  882MOL0     C18984  12.151   4.219   3.528  0.8323 -0.3061  1.4767
  882MOL0     N18985  11.883   4.953   3.423 -1.1323 -0.2606  0.1175
  882MOL0     N18986  11.890   5.038   3.330  0.6472  0.3248  0.2367
  882MOL0     C18987  11.519   6.018   3.208  0.5098  0.6139  0.0311
  882MOL0     C18988  11.464   6.136   3.251 -0.9051 -0.2249 -0.8170
  882MOL0     C18989  11.267   6.558   3.192 -0.2045  0.8843 -0.6352
  882MOL0     C18990  11.133   6.540   3.250  0.2843 -0.0368 -0.1182
  882MOL0     C18991  11.055   6.655   3.283  0.1014  0.7128  0.5821
  882MOL0     C18992  11.105   6.784   3.258  0.4749  0.2007  0.2839
  882MOL0     O18993  11.050   6.901   3.295  0.4975  0.4862  0.4862
  882MOL0     C18994  10.911   6.916   3.344 -0.4669  0.6688 -0.0050
  882MOL0     C18995  10.897   6.889   3.494  0.1441 -1.1395 -1.0341
  882MOL0     C18996  10.758   6.864   3.542  0.2973  1.0440  0.4178
  882MOL0     C18997  10.693   7.003   3.561  0.1309 -0.4039 -0.7219
  882MOL0     C18998  10.616   7.027   3.438 -0.1086 -0.8257  0.0397
  882MOL0     C18999  10.552   7.054   3.343  0.1968 -0.4882  0.5759
  882MOL0     C19000  11.226   6.796   3.199  0.5020  0.0117 -1.5690
  882MOL0     C19001  11.315   6.693   3.164  0.8795 -0.9033  0.1026
  882MOL0     C19002  11.436   6.723   3.089 -0.2185  0.6518  0.1032
  882MOL0     H19003  11.246   6.211   3.000 -0.7678 -0.0946 -0.7131
  882MOL0     H19004  11.343   5.972   2.921  1.9435 -2.8075  0.7087
  882MOL0     H19005  11.443   5.723   2.915 -0.4937  0.1932 -1.1448
  882MOL0     H19006  11.533   5.862   2.860 -3.6086  0.8093  1.2948
  882MOL0     H19007  11.736   5.738   2.970 -1.3994  0.7694  2.0003
  882MOL0     H19008  11.677   5.677   2.813  1.0158 -1.6757  0.6219
  882MOL0     H19009  11.548   5.508   2.943 -2.6756  3.4988  0.7388
  882MOL0     H19010  11.583   5.575   3.090 -2.9781  2.0055 -2.0883
  882MOL0     H19011  11.762   5.398   2.919  2.3686 -1.9607 -0.1299
  882MOL0     H19012  11.843   5.536   2.997 -1.5062  1.2700 -1.9508
  882MOL0     H19013  11.701   5.442   3.217 -0.6358 -0.2362 -0.7895
  882MOL0     H19014  11.689   5.294   3.124  0.0752 -0.4060  1.5718
  882MOL0     H19015  11.948   5.414   3.232 -1.2532  1.1247 -1.1360
  882MOL0     H19016  11.864   5.277   3.299 -4.2521  0.4969 -0.0217
  882MOL0     H19017  11.982   5.281   3.015 -0.3219  0.6020  0.1794
  882MOL0     H19018  11.879   5.148   3.082  0.8393 -1.4546  1.8133
  882MOL0     H19019  12.131   5.095   3.125  2.8505  4.2428 -1.3194
  882MOL0     H19020  12.127   5.233   3.235  0.6110 -0.7687  0.7985
  882MOL0     H19021  12.203   4.990   3.403 -0.3514 -1.5135  0.8005
  882MOL0     H19022  12.118   4.873   3.652  1.1622 -4.3056  0.7467
  882MOL0     H19023  11.950   4.846   3.664 -1.2328  1.9874 -1.0372
  882MOL0     H19024  11.965   4.651   3.526 -0.4053  0.2592 -1.0413
  882MOL0     H19025  12.126   4.690   3.472 -2.1689 -0.3372 -1.2772
  882MOL0     H19026  12.043   4.655   3.770 -0.1590  0.5283  1.0234
  882MOL0     H19027  12.206   4.672   3.723 -0.1276 -0.7413  0.8028
  882MOL0     H19028  12.037   4.426   3.676 -0.4510  1.6551 -0.2977
  882MOL0     H19029  12.195   4.452   3.750  0.9866 -1.0566  0.8215
  882MOL0     H19030  12.294   4.451   3.327 -1.5174  0.8045  2.4649
  882MOL0     H19031  12.345   4.267   3.195  0.6416  2.9395  1.6483
  882MOL0     H19032  12.096   3.715   3.366 -0.1559  0.1385 -0.1264
  882MOL0     H19033  12.063   3.487   3.265 -0.9035  1.5361  0.6608
  882MOL0     H19034  12.099   3.390   2.978  0.8393  1.3297 -3.4517
  882MOL0     H19035  12.275   3.370   2.934  1.3088 -1.8645  0.3730
  882MOL0     H19036  12.248   3.119   2.995  1.1374  1.0368 -0.3743
  882MOL0     H19037  12.090   3.143   3.046  0.6507  0.9652  1.0935
  882MOL0     H19038  12.196   3.237   2.767 -0.6830  2.3039  2.5185
  882MOL0     H19039  12.157   3.068   2.785 -0.1230  1.3199 -0.7277
  882MOL0     H19040  11.977   3.206   2.675  0.7644  0.1237  0.7657
  882MOL0     H19041  11.955   3.276   2.828  0.3958  1.0911 -1.2782
  882MOL0     H19042  11.930   3.052   2.946  0.2552  0.8605  0.1578
  882MOL0     H19043  11.950   2.966   2.799  0.3127  0.7837  0.5475
  882MOL0     H19044  11.706   2.998   2.883  2.6388 -3.0245 -1.9007
  882MOL0     H19045  11.728   3.178   2.870 -0.5071 -0.8829  1.1708
  882MOL0     H19046  11.796   2.981   2.648 -0.5935  0.5910 -1.1639
  882MOL0     H19047  11.765   3.149   2.619 -3.4101 -0.1531 -1.6657
  882MOL0     H19048  11.587   3.005   2.535 -0.5462  2.9229 -0.4406
  882MOL0     H19049  11.549   2.946   2.704  0.5716  0.7412  2.6279
  882MOL0     H19050  12.427   3.538   3.046  2.4563 -0.1356  0.8335
  882MOL0     H19051  12.421   3.796   3.118  0.0854  1.1241  1.2145
  882MOL0     H19052  12.177   4.006   3.489  4.0999 -1.6202 -2.1426
  882MOL0     H19053  12.118   4.216   3.631  5.5852 -4.6455  3.3062
  882MOL0     H19054  11.583   5.949   3.262 -1.8272  0.0351  2.2717
  882MOL0     H19055  11.492   6.176   3.348 -0.8776  1.3540 -1.4450
  882MOL0     H19056  11.114   6.433   3.258  2.2108 -0.4334 -0.3595
  882MOL0     H19057  10.960   6.633   3.331  0.8327 -3.1792  0.6195
  882MOL0     H19058  10.859   6.844   3.280  3.5680 -1.1207 -1.5823
  882MOL0     H19059  10.880   7.019   3.321 -2.6597 -0.1931 -1.2247
  882MOL0     H19060  10.948   6.958   3.562 -0.0377 -0.7858 -1.2535
  882MOL0     H19061  10.940   6.789   3.496  0.1423 -1.1537 -1.6523
  882MOL0     H19062  10.772   6.812   3.637  4.0797 -0.6368 -0.8697
  882MOL0     H19063  10.697   6.807   3.471 -1.7317  2.6834  0.7534
  882MOL0     H19064  10.620   6.999   3.642 -1.6183  1.0787 -2.1328
  882MOL0     H19065  10.766   7.082   3.579 -0.1970 -0.3194  0.2985
  882MOL0     H19066  10.482   7.082   3.266 -4.0157 -1.2712  3.7451
  882MOL0     H19067  11.253   6.900   3.186  0.2102  0.8145  2.8371
  882MOL0     H19068  11.522   6.671   3.133  0.3840  0.3118 -1.4037
  882MOL0     H19069  11.418   6.687   2.988  2.6031 -1.2425  0.1747
  882MOL0     H19070  11.455   6.830   3.100 -1.9118  1.1041 -1.0197
  883MOL0     O19071  10.462   5.122   4.399  0.2133 -0.4798 -0.4636
  883MOL0     C19072  10.572   5.140   4.348 -0.0079  0.4371 -0.5232
  883MOL0     O19073  10.665   5.042   4.341 -0.1869 -0.3914  0.0194
  883MOL0     C19074  10.649   4.913   4.402  0.9454 -0.4571  0.0995
  883MOL0     C19075  10.576   4.814   4.339 -0.8776  0.1846 -0.9434
  883MOL0     C19076  10.590   4.686   4.383  0.0137  0.7289  0.1133
  883MOL0     C19077  10.662   4.658   4.507 -0.5195 -0.2901 -0.1206
  883MOL0     O19078  10.661   4.535   4.570  0.6932  0.3254 -0.2818
  883MOL0     C19079  10.679   4.421   4.493  0.1127  0.3529 -0.0406
  883MOL0     C19080  10.679   4.291   4.571 -0.1474  0.6609  0.3496
  883MOL0     C19081  10.543   4.271   4.652 -0.6818  0.2170  0.2690
  883MOL0     C19082  10.567   4.150   4.742  0.3662 -0.9789 -0.1022
  883MOL0     C19083  10.433   4.110   4.803 -0.2837  0.1204  1.0302
  883MOL0     C19084  10.442   3.968   4.849 -1.0326  0.4128  0.5884
  883MOL0     C19085  10.566   3.947   4.943 -0.3050  0.1962  0.3089
  883MOL0     C19086  10.537   3.834   5.041  0.1529  0.1024 -0.0186
  883MOL0     N19087  10.496   3.709   4.968 -0.6607  0.0489 -0.2667
  883MOL0     C19088  10.387   3.633   4.999 -0.4647  0.4554  0.8584
  883MOL0     C19089  10.410   3.516   4.916  0.7627  0.6358  0.0016
  883MOL0     C19090  10.314   3.403   4.900  0.7724  0.4044 -0.1391
  883MOL0     C19091  10.188   3.449   4.816  0.1118  0.1170  0.2574
  883MOL0     C19092  10.092   3.327   4.790  0.3539  0.4749 -0.3887
  883MOL0     C19093   9.975   3.371   4.708  0.4165  0.0356  1.0513
  883MOL0     O19094   9.866   3.406   4.795 -0.1398  0.0180 -0.0483
  883MOL0     C19095   9.745   3.444   4.755  0.2066  0.2174 -0.1385
  883MOL0     C19096   9.712   3.445   4.620  1.1671  0.1609  0.5743
  883MOL0     C19097   9.582   3.490   4.579  0.3217  0.5851 -0.0706
  883MOL0     C19098   9.488   3.536   4.676 -1.2850  0.5862 -0.5931
  883MOL0     C19099   9.364   3.595   4.631 -0.6975 -0.0183 -0.7551
  883MOL0     O19100   9.359   3.631   4.504  0.0111 -0.2009 -0.4740
  883MOL0     C19101   9.239   3.659   4.442  0.6055 -0.2998  0.1001
  883MOL0     C19102   9.124   3.589   4.460 -0.2632  0.2118 -0.1230
  883MOL0     C19103   9.013   3.615   4.388  0.1971  0.2699 -0.2595
  883MOL0     C19104   9.020   3.722   4.289  0.2971 -0.4986  0.0371
  883MOL0     O19105   8.907   3.756   4.218  0.4338 -0.2006  0.1440
  883MOL0     C19106   8.918   3.762   4.077  1.1403  0.0535  0.0703
  883MOL0     C19107   8.764   3.759   4.034 -0.6203 -0.5744 -0.5492
  883MOL0     C19108   8.677   3.858   4.112 -0.3594  0.3841 -0.2026
  883MOL0     C19109   8.671   3.997   4.051 -0.1518  0.0592 -1.0804
  883MOL0     C19110   8.589   4.095   4.124 -0.3719  0.0673 -0.9217
  883MOL0     C19111   8.588   4.239   4.061  0.4034  0.2165  0.5323
  883MOL0     C19112   8.468   4.329   4.101  0.8898  0.1127  0.9435
  883MOL0     C19113   8.504   4.415   4.216  0.0030 -0.6278  0.0524
  883MOL0    Cl19114   8.618   4.548   4.165  0.2092  0.1534  0.4864
  883MOL0     C19115   9.141   3.791   4.271 -0.4227 -0.7651  0.1182
  883MOL0     C19116   9.248   3.756   4.346  0.4012  0.7687 -0.3857
  883MOL0     O19117   9.270   3.607   4.710  0.9634  0.3871  0.4275
  883MOL0     C19118   9.529   3.544   4.811 -0.4026  0.5694  0.2561
  883MOL0     C19119   9.661   3.492   4.852 -0.2995  0.0203 -0.6484
  883MOL0     N19120  10.526   3.543   4.851 -0.6470  0.2673  0.9252
  883MOL0     N19121  10.587   3.648   4.891  0.1094  0.2862  0.2709
  883MOL0     C19122  10.713   4.767   4.581 -0.4126 -0.2268  0.0767
  883MOL0     C19123  10.720   4.884   4.522  0.3045 -0.4401 -0.2053
  883MOL0     C19124  10.611   5.276   4.286  1.4284 -0.1615 -0.2815
  883MOL0     C19125  10.744   5.287   4.249  0.6302  0.4564  0.5661
  883MOL0     C19126  10.778   5.388   4.163 -0.0382 -0.3712 -0.8041
  883MOL0     C19127  10.691   5.486   4.120  0.1657 -0.1710 -0.4477
  883MOL0     O19128  10.741   5.590   4.051 -0.0496  0.4000  0.1609
  883MOL0     C19129  10.657   5.632   3.942 -0.5618  0.4323  1.3467
  883MOL0     C19130  10.706   5.561   3.802  0.3552  0.3574 -0.1444
  883MOL0     C19131  10.847   5.601   3.772 -0.4072 -0.3781 -0.0646
  883MOL0     C19132  10.870   5.563   3.624  0.2738  0.2587  0.1701
  883MOL0     C19133  10.820   5.652   3.531  0.6313 -0.8093 -1.1295
  883MOL0     C19134  10.780   5.708   3.434  0.6242 -0.8670  0.7372
  883MOL0     C19135  10.554   5.480   4.180 -0.2852 -0.3991  0.9487
  883MOL0     C19136  10.510   5.366   4.250  0.1021 -0.4276  0.0370
  883MOL0     C19137  10.369   5.378   4.299  1.1666 -0.1269 -0.1069
  883MOL0     H19138  10.526   4.855   4.251 -2.8351  1.3862  0.6265
  883MOL0     H19139  10.555   4.603   4.321  1.1092  1.8966 -2.2288
  883MOL0     H19140  10.607   4.413   4.411  1.0142  2.4290 -1.1118
  883MOL0     H19141  10.777   4.436   4.447 -0.4064  0.5560 -1.1073
  883MOL0     H19142  10.768   4.291   4.635  0.4067  0.3929 -0.4060
  883MOL0     H19143  10.699   4.213   4.497  2.6173  0.5049  1.1438
  883MOL0     H19144  10.455   4.254   4.590 -1.9394 -1.2028  2.3220
  883MOL0     H19145  10.520   4.361   4.710 -0.1766  1.4125 -1.3043
  883MOL0     H19146  10.613   4.073   4.679  0.0830 -1.4419  0.2499
  883MOL0     H19147  10.636   4.175   4.823 -0.9548  0.0478  0.7542
  883MOL0     H19148  10.399   4.171   4.887 -1.8120 -1.9884  2.0445
  883MOL0     H19149  10.359   4.106   4.723  1.3043 -3.0130 -0.4977
  883MOL0     H19150  10.352   3.941   4.906 -1.0977  0.2941  0.4295
  883MOL0     H19151  10.446   3.914   4.754  1.4368  1.7628 -0.1806
  883MOL0     H19152  10.587   4.039   4.997 -1.1991  0.7500 -0.2660
  883MOL0     H19153  10.655   3.914   4.889  1.9090  0.8803  3.3021
  883MOL0     H19154  10.617   3.817   5.113 -0.1381 -0.7820  0.1133
  883MOL0     H19155  10.443   3.850   5.096  1.2916 -1.5104  2.5807
  883MOL0     H19156  10.297   3.652   5.056 -0.5487 -3.3417  2.2760
  883MOL0     H19157  10.360   3.315   4.853 -1.4020 -0.1473 -1.3323
  883MOL0     H19158  10.287   3.379   5.003  2.3175 -0.2250  0.1473
  883MOL0     H19159  10.133   3.518   4.880  0.0643  1.8384 -1.5312
  883MOL0     H19160  10.231   3.490   4.724  4.2768 -0.7948  1.5942
  883MOL0     H19161  10.064   3.286   4.888  2.3002  1.4283  0.6290
  883MOL0     H19162  10.143   3.256   4.725 -1.7041  1.3100 -3.1006
  883MOL0     H19163   9.946   3.288   4.643  0.3055  0.4244  0.6067
  883MOL0     H19164  10.013   3.451   4.645  1.2121 -1.2655 -0.1815
  883MOL0     H19165   9.781   3.405   4.546  2.3393  0.1299  1.6475
  883MOL0     H19166   9.554   3.480   4.475 -2.6722 -0.1776  0.7230
  883MOL0     H19167   9.115   3.521   4.545 -3.0887 -0.6879 -1.0120
  883MOL0     H19168   8.915   3.567   4.395  0.8398 -1.0307  0.1632
  883MOL0     H19169   8.965   3.857   4.048 -0.7324  0.4444 -1.9215
  883MOL0     H19170   8.969   3.677   4.032 -0.7608 -1.5471  0.7976
  883MOL0     H19171   8.770   3.787   3.928  0.2339  0.2756 -0.2937
  883MOL0     H19172   8.722   3.658   4.039 -2.0576  0.0256  0.2183
  883MOL0     H19173   8.576   3.819   4.124 -0.3717  1.1122  3.3092
  883MOL0     H19174   8.717   3.875   4.213  0.2109  0.4367 -0.4323
  883MOL0     H19175   8.651   3.983   3.945 -1.0246 -3.2147 -0.5816
  883MOL0     H19176   8.771   4.043   4.057  0.9017 -2.1547 -0.8286
  883MOL0     H19177   8.634   4.108   4.223 -0.2952 -1.4403 -0.7376
  883MOL0     H19178   8.485   4.067   4.145 -1.7864  5.6048  1.2429
  883MOL0     H19179   8.684   4.287   4.079  1.3587  0.0645 -3.2172
  883MOL0     H19180   8.579   4.213   3.955  3.6958 -1.1173  0.4680
  883MOL0     H19181   8.381   4.266   4.119  2.8582 -2.6273  1.4650
  883MOL0     H19182   8.462   4.395   4.014  2.4916  0.2649  0.9257
  883MOL0     H19183   8.413   4.467   4.247 -1.6537 -2.9469 -0.6066
  883MOL0     H19184   8.531   4.358   4.306  2.1757  2.9176  1.8712
  883MOL0     H19185   9.159   3.882   4.214 -2.7710  0.5187  1.2751
  883MOL0     H19186   9.340   3.812   4.336  1.4605 -0.8639 -0.1154
  883MOL0     H19187   9.453   3.577   4.881  0.5698 -1.4979  2.4320
  883MOL0     H19188   9.688   3.478   4.957  0.7921  1.3122 -0.7338
  883MOL0     H19189  10.757   4.761   4.680 -0.0316  0.8489 -0.0127
  883MOL0     H19190  10.776   4.968   4.563 -1.6171  2.3502 -2.7870
  883MOL0     H19191  10.811   5.205   4.271 -3.4242 -2.7313  2.3713
  883MOL0     H19192  10.882   5.396   4.136  0.0288 -0.0476 -0.4518
  883MOL0     H19193  10.669   5.740   3.926  1.7291 -0.2597 -3.0803
  883MOL0     H19194  10.549   5.613   3.950 -0.6873  1.3092  1.8738
  883MOL0     H19195  10.638   5.573   3.716  2.0532  1.2828 -1.4169
  883MOL0     H19196  10.699   5.453   3.817  1.8320  0.2702  0.0248
  883MOL0     H19197  10.918   5.556   3.842  0.1352  1.3952  0.6023
  883MOL0     H19198  10.860   5.709   3.784 -0.9675 -0.4279  1.2838
  883MOL0     H19199  10.977   5.554   3.608  1.2124  3.0048  3.4771
  883MOL0     H19200  10.828   5.462   3.618 -0.5423  0.5030  1.2441
  883MOL0     H19201  10.738   5.755   3.347 -2.6784  0.3024  2.7588
  883MOL0     H19202  10.478   5.550   4.148 -0.8558 -1.9117 -1.3057
  883MOL0     H19203  10.322   5.465   4.252 -0.9493  0.1816  2.3660
  883MOL0     H19204  10.324   5.282   4.273  1.7194  0.3350 -3.2772
  883MOL0     H19205  10.355   5.391   4.406 -5.5764 -1.8004 -0.3105
  884MOL0     O19206  10.880   1.856  11.173  0.3437 -0.5768  0.2377
  884MOL0     C19207  10.984   1.915  11.193 -0.2705 -0.7371 -0.0418
  884MOL0     O19208  11.051   1.914  11.311 -0.2660 -0.2074  0.0237
  884MOL0     C19209  11.009   1.845  11.422  0.2861 -0.1522 -0.0284
  884MOL0     C19210  11.056   1.889  11.551 -0.7078 -0.0259  0.1943
  884MOL0     C19211  10.994   1.834  11.674  0.2298 -0.2351 -0.0989
  884MOL0     C19212  10.892   1.741  11.668 -0.2891 -1.0963 -0.8915
  884MOL0     O19213  10.824   1.700  11.782  0.4271 -0.0961  0.0672
  884MOL0     C19214  10.894   1.598  11.857  0.2744 -0.4516  0.0269
  884MOL0     C19215  10.861   1.601  12.005  0.0228 -0.4686  0.3431
  884MOL0     C19216  10.909   1.720  12.092  0.8419 -0.0818  0.8049
  884MOL0     C19217  11.057   1.730  12.104 -0.8802  0.2021 -0.5807
  884MOL0     C19218  11.098   1.848  12.198 -0.0282 -0.0549 -0.4541
  884MOL0     C19219  11.251   1.892  12.196  0.1883  0.1052  0.5817
  884MOL0     C19220  11.306   1.951  12.069 -0.7387 -0.4948 -0.8164
  884MOL0     C19221  11.231   2.081  12.031 -0.0562 -0.3816  0.5280
  884MOL0     N19222  11.261   2.109  11.882 -0.2474  0.4019  0.3375
  884MOL0     C19223  11.381   2.156  11.827  0.2435 -0.6377  0.3367
  884MOL0     C19224  11.349   2.178  11.694 -1.0133 -0.3637 -0.1776
  884MOL0     C19225  11.443   2.230  11.588  1.4401 -0.3747  0.2196
  884MOL0     C19226  11.527   2.114  11.520 -0.8686 -0.5066 -1.1855
  884MOL0     C19227  11.458   2.045  11.402 -0.1924  0.0664 -0.6390
  884MOL0     C19228  11.473   2.130  11.275 -0.7083 -1.1461 -0.1568
  884MOL0     O19229  11.608   2.133  11.221 -0.0640  0.5094  0.1938
  884MOL0     C19230  11.651   2.214  11.117  0.2906 -0.4277 -0.5758
  884MOL0     C19231  11.566   2.255  11.016 -0.2246 -0.7510 -0.7966
  884MOL0     C19232  11.611   2.347  10.913  0.2926  0.1338  0.0227
  884MOL0     C19233  11.747   2.379  10.906  0.1540  0.1664  1.2121
  884MOL0     C19234  11.801   2.476  10.811 -0.1082  0.2046  0.2543
  884MOL0     O19235  11.711   2.522  10.725  0.0410 -0.3253  0.5516
  884MOL0     C19236  11.748   2.631  10.638  0.3121 -0.6700  0.3486
  884MOL0     C19237  11.800   2.604  10.511  0.3424  0.3361  0.3207
  884MOL0     C19238  11.833   2.701  10.416  0.8291  0.1353 -1.1561
  884MOL0     C19239  11.810   2.828  10.446  0.7274  0.2848 -0.0621
  884MOL0     O19240  11.849   2.916  10.348  0.7932 -0.7415  0.4368
  884MOL0     C19241  11.828   3.056  10.360 -0.1403  0.4521 -0.0832
  884MOL0     C19242  11.857   3.116  10.228  0.2441  0.1082  0.5904
  884MOL0     C19243  12.014   3.109  10.200 -0.3608 -0.6411 -0.3270
  884MOL0     C19244  12.047   3.126  10.054 -0.1305 -0.9163 -0.2428
  884MOL0     C19245  12.195   3.069  10.017 -0.0194 -0.3565  0.1128
  884MOL0     C19246  12.222   2.918  10.009 -0.6679 -0.7086  0.0149
  884MOL0     C19247  12.099   2.839   9.975  0.3996 -0.2142 -0.3443
  884MOL0     C19248  12.113   2.685   9.981  0.8248 -0.9595 -0.3126
  884MOL0    Cl19249  12.204   2.621  10.124 -0.0082  0.2399  0.1563
  884MOL0     C19250  11.753   2.869  10.569 -0.8548  0.6958  0.0845
  884MOL0     C19251  11.723   2.767  10.659  0.0404  0.7435  0.4488
  884MOL0     O19252  11.918   2.496  10.812  0.4086 -0.4940 -0.2584
  884MOL0     C19253  11.830   2.332  11.004  0.8100 -0.2537 -0.0990
  884MOL0     C19254  11.784   2.238  11.098 -1.0129 -0.6488 -0.7878
  884MOL0     N19255  11.212   2.160  11.684 -1.0867  0.5941  0.8610
  884MOL0     N19256  11.167   2.107  11.790 -0.3613 -0.3626 -0.5869
  884MOL0     C19257  10.864   1.678  11.544 -0.2541 -0.4790  0.2712
  884MOL0     C19258  10.920   1.737  11.426  0.3754 -0.0755  0.5321
  884MOL0     C19259  11.043   2.009  11.088 -0.0551 -0.9931  0.5083
  884MOL0     C19260  11.136   2.107  11.134 -0.7941 -0.3927 -1.0775
  884MOL0     C19261  11.183   2.213  11.066  0.8938  0.3233  0.2181
  884MOL0     C19262  11.142   2.216  10.926 -0.5902  0.3316 -1.0076
  884MOL0     O19263  11.175   2.321  10.841  0.1628 -0.0171 -0.2210
  884MOL0     C19264  11.101   2.437  10.867  1.0118 -0.7281 -0.9637
  884MOL0     C19265  11.090   2.507  10.739  0.5049 -0.8002  0.8455
  884MOL0     C19266  11.007   2.433  10.633  0.1474  0.2768  0.0653
  884MOL0     C19267  10.987   2.491  10.500  0.0685 -0.7972  0.7124
  884MOL0     C19268  10.891   2.609  10.519  0.2331 -0.0834  0.1436
  884MOL0     C19269  10.810   2.700  10.531 -0.2780  0.4719  0.1115
  884MOL0     C19270  11.069   2.107  10.870  0.1900 -1.1131 -1.1308
  884MOL0     C19271  11.016   1.999  10.948  0.3510 -0.8126 -0.4796
  884MOL0     C19272  10.940   1.894  10.877  0.5760 -0.7955  0.9187
  884MOL0     H19273  11.138   1.958  11.564 -1.0900  0.1863  1.7396
  884MOL0     H19274  11.027   1.873  11.770 -1.5387  2.5516 -0.5101
  884MOL0     H19275  10.870   1.500  11.815 -0.2482 -0.8490  1.2080
  884MOL0     H19276  11.000   1.621  11.845 -0.1585  1.8106  0.1261
  884MOL0     H19277  10.918   1.512  12.034 -1.9981 -2.1221 -0.4874
  884MOL0     H19278  10.757   1.585  12.037  0.0140  0.5002  0.8337
  884MOL0     H19279  10.865   1.712  12.192  0.1058 -0.7399  0.4426
  884MOL0     H19280  10.866   1.817  12.062  3.0407  0.5480 -0.5088
  884MOL0     H19281  11.105   1.634  12.126 -1.1025  0.5699  1.7923
  884MOL0     H19282  11.096   1.747  12.003 -1.1444  1.8066 -0.4471
  884MOL0     H19283  11.030   1.933  12.182 -0.8868 -0.7255 -0.4547
  884MOL0     H19284  11.084   1.815  12.301 -1.0794 -0.9476 -0.8563
  884MOL0     H19285  11.241   1.977  12.265 -2.1059 -1.4852  2.3754
  884MOL0     H19286  11.307   1.809  12.239  0.7931  1.2256  2.0202
  884MOL0     H19287  11.305   1.874  11.992  0.4347  0.0817 -1.4523
  884MOL0     H19288  11.406   1.993  12.085 -1.7052  1.9466 -0.7950
  884MOL0     H19289  11.126   2.078  12.061 -0.5485 -0.0693 -1.0809
  884MOL0     H19290  11.282   2.161  12.085 -1.0170  1.4463 -1.1489
  884MOL0     H19291  11.478   2.159  11.877  0.3934  0.1462  0.0208
  884MOL0     H19292  11.369   2.261  11.514  2.3750  0.7555 -0.2878
  884MOL0     H19293  11.506   2.312  11.624  0.3706  0.0406  1.2229
  884MOL0     H19294  11.631   2.133  11.492 -0.1437 -3.2337 -0.6457
  884MOL0     H19295  11.545   2.047  11.606  2.6228  3.1334  1.2749
  884MOL0     H19296  11.352   2.029  11.424  0.6456 -1.7685  2.8566
  884MOL0     H19297  11.501   1.945  11.394 -1.5477 -0.5383 -0.7162
  884MOL0     H19298  11.443   2.233  11.296  3.8635  0.7620 -1.8281
  884MOL0     H19299  11.409   2.077  11.203 -0.2767 -1.7953 -0.0636
  884MOL0     H19300  11.463   2.225  11.028  0.3689 -2.0850  1.7281
  884MOL0     H19301  11.538   2.379  10.839  0.5696 -1.0230 -0.7753
  884MOL0     H19302  11.829   2.502  10.488  4.6592  0.9471  2.1736
  884MOL0     H19303  11.880   2.686  10.319  0.5139  3.0407 -1.8563
  884MOL0     H19304  11.727   3.076  10.396 -0.8158 -1.5689 -0.6979
  884MOL0     H19305  11.900   3.105  10.426 -1.2484  0.9616  0.7731
  884MOL0     H19306  11.804   3.057  10.153  0.2222  0.3310  0.4309
  884MOL0     H19307  11.826   3.221  10.230 -2.4808 -0.6336  2.2917
  884MOL0     H19308  12.051   3.200  10.249 -4.2120  1.8596 -1.6153
  884MOL0     H19309  12.052   3.015  10.242  0.3584 -0.4206 -0.4746
  884MOL0     H19310  12.037   3.232  10.032 -6.1820 -0.7664  1.5975
  884MOL0     H19311  11.964   3.075  10.005  0.4376  0.8938 -3.3290
  884MOL0     H19312  12.271   3.120  10.077 -0.1590  0.0218 -0.0225
  884MOL0     H19313  12.205   3.103   9.913 -0.0151  1.0172  0.5441
  884MOL0     H19314  12.307   2.897   9.943 -1.2077  4.1458 -2.7110
  884MOL0     H19315  12.241   2.888  10.112 -2.7018 -3.7816 -0.3812
  884MOL0     H19316  12.088   2.875   9.872  2.4591  0.5577 -0.3392
  884MOL0     H19317  12.024   2.862  10.051  2.7008 -1.6349  2.5880
  884MOL0     H19318  12.010   2.648   9.975  1.0776 -1.8282  0.4880
  884MOL0     H19319  12.160   2.646   9.891  2.5757 -1.7585  0.8981
  884MOL0     H19320  11.730   2.971  10.599 -1.2261  1.1919 -1.6965
  884MOL0     H19321  11.683   2.798  10.755  1.8928 -0.9470  1.8417
  884MOL0     H19322  11.933   2.365  11.016  1.1439 -1.5291  0.7550
  884MOL0     H19323  11.853   2.183  11.162  1.2138  1.4295 -1.2264
  884MOL0     H19324  10.792   1.597  11.552  0.8545 -1.8764 -2.5685
  884MOL0     H19325  10.888   1.682  11.339  1.7270  0.6347 -0.4484
  884MOL0     H19326  11.169   2.112  11.238 -3.3837  0.3826 -0.2046
  884MOL0     H19327  11.234   2.287  11.126 -1.7649  0.0946  3.0392
  884MOL0     H19328  11.152   2.505  10.936 -1.5788 -0.5886  0.9659
  884MOL0     H19329  11.000   2.407  10.897  1.6851 -1.3422  0.8854
  884MOL0     H19330  11.191   2.526  10.701  0.8720 -3.1751  0.5210
  884MOL0     H19331  11.034   2.601  10.748  0.3793 -0.6605 -0.9523
  884MOL0     H19332  10.916   2.389  10.676  1.2599 -2.1263  0.1279
  884MOL0     H19333  11.068   2.343  10.616  0.2231  0.2738  0.3564
  884MOL0     H19334  11.081   2.529  10.458 -1.5360  1.2930 -1.2596
  884MOL0     H19335  10.931   2.427  10.431 -1.8783  0.6518  0.8393
  884MOL0     H19336  10.750   2.786  10.549  1.3758  1.8112 -0.5446
  884MOL0     H19337  11.028   2.123  10.771 -0.2070  2.6644 -0.5148
  884MOL0     H19338  10.965   1.892  10.771  2.5014 -1.1782  1.3509
  884MOL0     H19339  10.983   1.800  10.913  0.8423 -0.7501  0.7255
  884MOL0     H19340  10.832   1.883  10.887  0.4016 -2.6329 -1.8367
  885MOL0     O19341   4.231   9.254   4.281 -0.4057 -0.6691 -0.5159
  885MOL0     C19342   4.328   9.322   4.308 -0.1645  0.0232 -0.6075
  885MOL0     O19343   4.327   9.455   4.341 -1.0198  0.5662 -0.4991
  885MOL0     C19344   4.229   9.536   4.321  0.4028 -0.5052 -0.3122
  885MOL0     C19345   4.195   9.630   4.429  0.3241 -1.4437  0.1007
  885MOL0     C19346   4.083   9.714   4.409  0.1713 -1.0021 -0.9224
  885MOL0     C19347   4.008   9.706   4.293 -0.1816 -0.2804 -0.5735
  885MOL0     O19348   3.915   9.801   4.259  0.2456  0.0109 -0.8927
  885MOL0     C19349   3.960   9.921   4.217  0.0786 -0.3659 -0.2339
  885MOL0     C19350   3.839  10.013   4.204 -0.3909 -0.5167  0.6538
  885MOL0     C19351   3.875  10.164   4.208  0.9126  0.2553 -1.2076
  885MOL0     C19352   3.867  10.210   4.352 -0.3650 -0.6087 -0.8360
  885MOL0     C19353   3.899  10.361   4.369 -0.1882  0.7847  0.0679
  885MOL0     C19354   3.794  10.447   4.303 -0.0330 -0.2016  0.1340
  885MOL0     C19355   3.804  10.588   4.360  0.6832  0.1360 -0.5370
  885MOL0     C19356   3.933  10.670   4.321 -0.0529 -0.0080 -0.0162
  885MOL0     N19357   3.961  10.683   4.182 -0.3116 -0.4463 -0.8235
  885MOL0     C19358   3.922  10.795   4.102 -0.3350  0.1971  0.4711
  885MOL0     C19359   3.976  10.771   3.989 -0.6061  0.5472  0.9789
  885MOL0     C19360   3.974  10.862   3.869  0.1550 -0.5330 -0.4085
  885MOL0     C19361   4.092  10.855   3.772  0.3243  0.0109 -0.0148
  885MOL0     C19362   4.224  10.883   3.832 -0.0871 -0.3167  0.1800
  885MOL0     C19363   4.333  10.893   3.722 -0.0886  0.1533  0.0060
  885MOL0     O19364   4.291  11.005   3.644  0.5184  0.3203 -0.1907
  885MOL0     C19365   4.384  11.055   3.560  0.4044 -0.2329 -0.0537
  885MOL0     C19366   4.505  11.000   3.522  0.4575  0.4671  0.3939
  885MOL0     C19367   4.578  11.060   3.421  1.0012 -0.9834  0.6473
  885MOL0     C19368   4.556  11.200   3.384  0.2483  0.5567 -1.6527
  885MOL0     C19369   4.644  11.272   3.299 -0.9386 -0.2602  0.8788
  885MOL0     O19370   4.760  11.209   3.276  0.6456  0.0168 -0.0587
  885MOL0     C19371   4.814  11.214   3.151  0.8158 -0.5449  0.7168
  885MOL0     C19372   4.940  11.170   3.138  0.0719 -1.2931 -0.5254
  885MOL0     C19373   5.012  11.175   3.018  1.0835  0.2966 -0.2896
  885MOL0     C19374   4.959  11.220   2.904  1.2467  0.2871  0.8653
  885MOL0     O19375   5.043  11.210   2.795 -0.8157  0.5613 -0.1571
  885MOL0     C19376   5.000  11.273   2.675 -0.4369 -0.4766  0.3411
  885MOL0     C19377   5.116  11.347   2.614  0.2676  0.0575 -0.1623
  885MOL0     C19378   5.212  11.394   2.735  0.1025  0.8287  0.7630
  885MOL0     C19379   5.337  11.463   2.688  0.1957  0.6387 -0.0550
  885MOL0     C19380   5.432  11.483   2.809 -0.9168 -0.6658  0.1413
  885MOL0     C19381   5.529  11.370   2.822  0.5878  0.0555  0.6256
  885MOL0     C19382   5.631  11.393   2.930 -0.7413 -0.1529  0.3677
  885MOL0     C19383   5.766  11.473   2.900  0.9078 -0.7546 -0.2117
  885MOL0    Cl19384   5.879  11.511   3.042  0.6011  0.3186 -0.0739
  885MOL0     C19385   4.819  11.249   2.909 -0.1851 -1.4406 -0.0599
  885MOL0     C19386   4.749  11.247   3.031  0.5998  0.1058 -0.2479
  885MOL0     O19387   4.616  11.374   3.246 -0.0265 -0.3941 -0.4995
  885MOL0     C19388   4.435  11.252   3.432  0.3843  0.8012  0.3464
  885MOL0     C19389   4.346  11.183   3.511 -0.3411  0.3496 -0.9037
  885MOL0     N19390   4.023  10.635   3.991 -0.5995  0.4289 -0.4013
  885MOL0     N19391   4.012  10.582   4.105  0.1206  0.5264 -0.4061
  885MOL0     C19392   4.032   9.611   4.197  0.3330  0.0051  0.1425
  885MOL0     C19393   4.150   9.532   4.211  0.3959  0.0879 -0.2531
  885MOL0     C19394   4.456   9.254   4.335  0.8714  0.1403 -0.2026
  885MOL0     C19395   4.545   9.307   4.435  0.4516  0.2097  0.3271
  885MOL0     C19396   4.644   9.222   4.487 -0.7770 -0.3532 -0.6739
  885MOL0     C19397   4.671   9.096   4.437  0.8704  0.5355  0.0368
  885MOL0     O19398   4.764   9.016   4.505 -0.0495 -0.5154 -0.7448
  885MOL0     C19399   4.869   8.956   4.434 -0.0442  0.2048  0.2738
  885MOL0     C19400   4.960   8.889   4.542  0.4590  0.8542 -0.2482
  885MOL0     C19401   4.899   8.758   4.600  0.3026 -0.0624  0.0461
  885MOL0     C19402   5.001   8.649   4.617 -0.2607 -0.6750 -0.6106
  885MOL0     C19403   5.123   8.707   4.676  0.0375  0.6539  0.8464
  885MOL0     C19404   5.230   8.755   4.716  0.3163  0.2998  0.7352
  885MOL0     C19405   4.597   9.054   4.326 -0.4376 -0.6918  0.0373
  885MOL0     C19406   4.490   9.134   4.273 -0.3570  0.2157  0.1917
  885MOL0     C19407   4.401   9.073   4.160  0.1639  0.1773  0.3664
  885MOL0     H19408   4.257   9.632   4.518 -1.1493 -2.6390  1.2059
  885MOL0     H19409   4.060   9.773   4.498 -0.7631 -0.0015 -1.7891
  885MOL0     H19410   4.039   9.960   4.282  0.8606 -1.5439 -0.4596
  885MOL0     H19411   4.009   9.909   4.120  1.4102 -3.5369  0.7020
  885MOL0     H19412   3.753   9.982   4.263 -0.1416 -0.0753  1.2563
  885MOL0     H19413   3.802  10.008   4.101 -3.8549 -0.1653  1.7614
  885MOL0     H19414   3.797  10.224   4.160  1.7103  2.0007 -0.4120
  885MOL0     H19415   3.970  10.179   4.156  3.5856 -3.0099  2.1510
  885MOL0     H19416   3.768  10.180   4.387 -1.1161  0.2478 -2.1378
  885MOL0     H19417   3.940  10.149   4.407 -1.0651 -1.8304 -1.2347
  885MOL0     H19418   3.898  10.376   4.477  2.1978 -0.4782  0.3307
  885MOL0     H19419   4.001  10.385   4.336  0.1561 -0.2104  0.3884
  885MOL0     H19420   3.794  10.450   4.194 -0.5225  1.8470  0.1472
  885MOL0     H19421   3.696  10.417   4.340 -0.3096  0.7808  0.2361
  885MOL0     H19422   3.790  10.599   4.468  0.7016  0.7198 -0.5939
  885MOL0     H19423   3.710  10.632   4.323 -0.1391 -1.9701 -1.1121
  885MOL0     H19424   3.924  10.762   4.379 -2.1814 -0.6321  0.7151
  885MOL0     H19425   4.019  10.613   4.356  1.1621  1.9429  0.3624
  885MOL0     H19426   3.872  10.887   4.132 -1.7118  0.6256 -2.8019
  885MOL0     H19427   3.874  10.872   3.825 -0.5932  0.2943  1.4081
  885MOL0     H19428   3.992  10.964   3.905  3.1692 -1.4442  1.0324
  885MOL0     H19429   4.096  10.749   3.743  3.4980  0.3703 -1.3067
  885MOL0     H19430   4.066  10.909   3.680  0.2795 -0.2575 -0.1614
  885MOL0     H19431   4.248  10.788   3.880  0.4655 -0.7609 -0.9340
  885MOL0     H19432   4.232  10.968   3.900  1.8004  0.3537 -0.7837
  885MOL0     H19433   4.331  10.799   3.665 -2.0280 -0.2904  0.7323
  885MOL0     H19434   4.434  10.908   3.760  0.0578  2.8351 -1.2395
  885MOL0     H19435   4.524  10.902   3.564 -0.4695 -0.0662 -0.3810
  885MOL0     H19436   4.665  11.004   3.387 -0.7041 -2.0244 -2.3611
  885MOL0     H19437   4.978  11.112   3.223 -0.5607 -1.0443 -0.0619
  885MOL0     H19438   5.113  11.137   3.029  0.8226 -0.3159  0.0686
  885MOL0     H19439   4.958  11.210   2.596  2.0014  0.5973 -1.9643
  885MOL0     H19440   4.916  11.340   2.698 -0.7650 -0.5973 -0.4637
  885MOL0     H19441   5.175  11.284   2.547  2.1927  1.3760  0.1966
  885MOL0     H19442   5.087  11.428   2.546 -2.3752 -0.9354 -0.3051
  885MOL0     H19443   5.155  11.463   2.798 -0.2609 -2.1219  3.9413
  885MOL0     H19444   5.251  11.308   2.790  0.9707 -0.0355 -1.0977
  885MOL0     H19445   5.310  11.560   2.645 -4.7906  0.5293  2.0955
  885MOL0     H19446   5.387  11.407   2.608  0.9399  0.7640  0.3175
  885MOL0     H19447   5.367  11.502   2.895 -2.9533  3.9822 -2.0944
  885MOL0     H19448   5.485  11.579   2.805  1.8931 -2.0686  0.8897
  885MOL0     H19449   5.465  11.283   2.835 -3.3580  2.4692 -0.8759
  885MOL0     H19450   5.591  11.347   2.735  3.4170 -1.0788  2.7723
  885MOL0     H19451   5.663  11.295   2.967  0.2256 -0.0946 -0.2580
  885MOL0     H19452   5.575  11.439   3.011  2.0333  1.8574  1.3268
  885MOL0     H19453   5.824  11.423   2.821 -0.3922 -2.1499 -0.3264
  885MOL0     H19454   5.745  11.573   2.860 -0.0777 -0.7805  0.2119
  885MOL0     H19455   4.768  11.282   2.819 -2.1772  0.4629  1.6377
  885MOL0     H19456   4.641  11.259   3.041  0.8633  0.8154  3.1535
  885MOL0     H19457   4.404  11.351   3.399 -1.2870  0.0585 -0.4545
  885MOL0     H19458   4.254  11.232   3.541  1.2877  1.4371  2.8956
  885MOL0     H19459   3.988   9.622   4.099  1.0164  1.1572 -0.0530
  885MOL0     H19460   4.176   9.482   4.118 -1.2265 -2.4149  0.5189
  885MOL0     H19461   4.515   9.396   4.490  0.1342 -0.6013  1.5083
  885MOL0     H19462   4.695   9.251   4.578 -2.5839 -2.0627  0.9614
  885MOL0     H19463   4.922   9.041   4.389 -0.1495  0.0343 -0.1861
  885MOL0     H19464   4.834   8.895   4.350 -1.2662  0.7805  0.3493
  885MOL0     H19465   4.975   8.959   4.624  0.7523  1.3387 -0.7137
  885MOL0     H19466   5.051   8.861   4.488  0.6606 -1.7822  1.2811
  885MOL0     H19467   4.822   8.730   4.528 -1.6418 -0.0296  1.9873
  885MOL0     H19468   4.849   8.781   4.695  1.6722 -1.2027  1.0805
  885MOL0     H19469   4.957   8.570   4.679  1.2736 -2.2422 -1.4268
  885MOL0     H19470   5.031   8.608   4.520  0.7062  1.5892 -1.3352
  885MOL0     H19471   5.323   8.800   4.745  0.7495  1.3473 -2.0141
  885MOL0     H19472   4.622   8.955   4.289 -1.4688 -1.3916  1.1508
  885MOL0     H19473   4.389   9.143   4.077 -0.9719  2.2470  2.1789
  885MOL0     H19474   4.441   8.978   4.125 -2.2118 -1.9243  2.8856
  885MOL0     H19475   4.303   9.049   4.202 -0.0624  0.4547  0.0024
  886MOL0     O19476   4.377   5.256   1.630 -0.2313  0.7008 -1.2956
  886MOL0     C19477   4.464   5.224   1.712 -0.3348 -0.5177 -0.0784
  886MOL0     O19478   4.440   5.173   1.834  0.1099 -0.0423 -0.7281
  886MOL0     C19479   4.308   5.137   1.865  0.6687 -0.2885  0.0033
  886MOL0     C19480   4.224   5.218   1.928  1.3657 -0.2414 -1.2325
  886MOL0     C19481   4.103   5.165   1.975 -0.3895  0.6952  0.3841
  886MOL0     C19482   4.068   5.030   1.941 -0.1882 -0.2500 -0.2839
  886MOL0     O19483   3.948   4.974   1.972  0.5150  0.7294 -0.4247
  886MOL0     C19484   3.860   5.044   2.057 -0.2950 -0.3891 -0.2680
  886MOL0     C19485   3.731   4.958   2.075  0.3240  0.3404  0.3294
  886MOL0     C19486   3.606   5.047   2.120 -0.2743  0.1360 -0.2144
  886MOL0     C19487   3.475   4.968   2.134 -0.7635  0.1022 -0.1846
  886MOL0     C19488   3.413   4.933   1.998  0.3941  0.2710  1.3999
  886MOL0     C19489   3.449   4.796   1.930  0.1554  0.7981  0.4028
  886MOL0     C19490   3.379   4.766   1.796 -0.9853 -0.1926 -1.0000
  886MOL0     C19491   3.310   4.632   1.796 -0.1543  0.4075  0.4921
  886MOL0     N19492   3.251   4.598   1.664 -0.3428  0.2215  0.3445
  886MOL0     C19493   3.155   4.662   1.602  0.3661  0.4178  0.6078
  886MOL0     C19494   3.164   4.609   1.479 -0.1224  0.1442 -0.3373
  886MOL0     C19495   3.091   4.655   1.356 -0.4186  0.2306 -0.1580
  886MOL0     C19496   2.994   4.555   1.290 -0.0682  0.1724  0.3911
  886MOL0     C19497   2.870   4.534   1.372 -0.5563 -0.5812 -0.7432
  886MOL0     C19498   2.778   4.441   1.296  0.2018  0.3394  0.0629
  886MOL0     O19499   2.702   4.525   1.206 -0.0523  0.7360 -0.6253
  886MOL0     C19500   2.606   4.471   1.129 -0.6584  0.0514 -0.4538
  886MOL0     C19501   2.577   4.333   1.115 -0.6056  0.0173  1.0042
  886MOL0     C19502   2.475   4.289   1.035  0.4309  0.0130 -0.3620
  886MOL0     C19503   2.383   4.379   0.977 -1.2950  0.1657  0.3094
  886MOL0     C19504   2.268   4.335   0.899  0.2167 -0.3508  0.0413
  886MOL0     O19505   2.214   4.219   0.936  0.7237 -0.5725  0.1627
  886MOL0     C19506   2.144   4.132   0.857  0.0280  1.2301  0.7143
  886MOL0     C19507   2.064   4.039   0.921 -0.4893 -0.5751  0.0388
  886MOL0     C19508   1.995   3.935   0.852 -0.0427  0.5572 -0.0151
  886MOL0     C19509   2.008   3.930   0.715  0.0494  0.3337  0.5569
  886MOL0     O19510   1.955   3.825   0.657 -0.0930  0.2892  0.1935
  886MOL0     C19511   2.001   3.763   0.529 -0.2757 -0.6141 -1.2340
  886MOL0     C19512   1.898   3.671   0.473 -0.5870 -0.9022 -0.2302
  886MOL0     C19513   1.966   3.572   0.368 -0.0987  0.0817  0.1474
  886MOL0     C19514   2.024   3.640   0.240 -1.2321  0.3853  0.7584
  886MOL0     C19515   2.123   3.546   0.165  0.8429 -0.3888 -0.5944
  886MOL0     C19516   2.156   3.603   0.032 -0.4360 -0.7602 -0.1929
  886MOL0     C19517   2.223   3.737   0.047  0.0183  0.2796  0.0556
  886MOL0     C19518   2.342   3.748   0.144 -0.4390 -0.4330  0.3136
  886MOL0    Cl19519   2.373   3.921   0.169 -0.3218  0.5226  0.3193
  886MOL0     C19520   2.089   4.016   0.645  0.6302 -0.9695 -0.5710
  886MOL0     C19521   2.145   4.124   0.717 -0.1749 -0.6094  0.0394
  886MOL0     O19522   2.229   4.405   0.802  0.5074 -0.3879 -0.0351
  886MOL0     C19523   2.405   4.519   0.990 -0.2197  0.2287  0.0103
  886MOL0     C19524   2.518   4.554   1.063  0.3993  0.0244 -0.4982
  886MOL0     N19525   3.248   4.504   1.470 -0.5964  0.1799 -0.2420
  886MOL0     N19526   3.315   4.501   1.586  0.7916  0.4106  0.8801
  886MOL0     C19527   4.165   4.947   1.888  0.1178  0.5149 -0.3702
  886MOL0     C19528   4.282   5.005   1.841  0.1211  0.8306  0.0316
  886MOL0     C19529   4.606   5.228   1.674 -0.9801  0.7047  0.3421
  886MOL0     C19530   4.686   5.139   1.748 -0.2495 -0.3291 -0.0603
  886MOL0     C19531   4.822   5.132   1.721 -1.3089  0.4122 -0.3797
  886MOL0     C19532   4.884   5.208   1.632 -0.2550 -0.8016  0.8251
  886MOL0     O19533   5.029   5.192   1.624 -0.5149 -0.4165 -0.5046
  886MOL0     C19534   5.088   5.224   1.495 -1.0821 -0.2554 -0.2497
  886MOL0     C19535   5.234   5.246   1.514 -1.1153 -0.5629 -0.6000
  886MOL0     C19536   5.303   5.109   1.537 -0.1753  0.3715 -0.7696
  886MOL0     C19537   5.294   5.005   1.426 -0.3875 -0.0036  0.7179
  886MOL0     C19538   5.346   5.053   1.299 -0.9109 -0.0279  0.6990
  886MOL0     C19539   5.400   5.100   1.201 -0.1915  0.6489  0.1513
  886MOL0     C19540   4.806   5.293   1.553  1.1694 -0.1945  0.5706
  886MOL0     C19541   4.669   5.304   1.574 -0.2583 -0.6658  0.2540
  886MOL0     C19542   4.598   5.418   1.503 -0.4202  0.5373 -0.2048
  886MOL0     H19543   4.241   5.322   1.954 -1.3388  0.4867 -2.0651
  886MOL0     H19544   4.033   5.229   2.028  0.1847  0.1927  1.8027
  886MOL0     H19545   3.905   5.073   2.153 -1.7061  1.6705 -0.1572
  886MOL0     H19546   3.830   5.135   2.005 -0.1504 -0.7785 -1.0472
  886MOL0     H19547   3.750   4.881   2.150 -0.4575 -3.0734 -2.6953
  886MOL0     H19548   3.708   4.907   1.981 -3.2207  1.0015  0.7215
  886MOL0     H19549   3.576   5.129   2.054 -4.6599  0.7202  2.1500
  886MOL0     H19550   3.629   5.085   2.220 -0.3051  0.5995 -0.3823
  886MOL0     H19551   3.499   4.878   2.193  4.8196 -0.6313 -2.8869
  886MOL0     H19552   3.408   5.031   2.194  1.4996 -0.4106  3.1557
  886MOL0     H19553   3.304   4.940   2.011  0.3193  1.6352  0.3044
  886MOL0     H19554   3.416   5.007   1.918 -1.2153  0.4438  1.4502
  886MOL0     H19555   3.558   4.790   1.921  0.1841 -1.3291  1.5726
  886MOL0     H19556   3.418   4.720   2.003 -2.2211  2.7183  1.5486
  886MOL0     H19557   3.445   4.777   1.710 -0.7769  3.4345 -0.5484
  886MOL0     H19558   3.302   4.842   1.782  1.1879  1.7769 -3.1995
  886MOL0     H19559   3.377   4.550   1.821  1.1575  1.6992  1.4075
  886MOL0     H19560   3.222   4.629   1.861 -4.3332  1.3211 -4.4423
  886MOL0     H19561   3.109   4.756   1.630  2.2434  2.4442 -2.5819
  886MOL0     H19562   3.039   4.750   1.370  2.8681  1.9398  1.9623
  886MOL0     H19563   3.169   4.690   1.287 -1.1505 -0.0164 -1.1284
  886MOL0     H19564   2.961   4.588   1.191  2.9530  0.3143 -0.6665
  886MOL0     H19565   3.046   4.461   1.268 -1.5888 -0.1824 -2.0529
  886MOL0     H19566   2.822   4.629   1.397 -0.5914 -1.0226  1.0173
  886MOL0     H19567   2.896   4.481   1.465  0.5884 -0.6481 -1.0862
  886MOL0     H19568   2.711   4.393   1.368 -0.8726 -0.9887 -1.7626
  886MOL0     H19569   2.838   4.360   1.253  2.2408  2.3563 -1.1305
  886MOL0     H19570   2.646   4.260   1.155  0.3232  0.1853 -0.2249
  886MOL0     H19571   2.464   4.181   1.033 -2.4633  0.2292 -1.1556
  886MOL0     H19572   2.059   4.038   1.030  1.7547 -0.1504  0.2030
  886MOL0     H19573   1.933   3.878   0.921 -2.6385  3.4819  0.3096
  886MOL0     H19574   2.012   3.847   0.459 -2.2530  0.5962 -0.1964
  886MOL0     H19575   2.097   3.712   0.534 -0.5700 -1.1440  3.4457
  886MOL0     H19576   1.848   3.616   0.553  1.7293 -2.3125  0.3145
  886MOL0     H19577   1.834   3.735   0.411 -2.0227 -2.0927 -0.0257
  886MOL0     H19578   2.038   3.506   0.417 -0.6036 -0.5488  0.0573
  886MOL0     H19579   1.891   3.513   0.315 -0.7192  1.7094 -0.8628
  886MOL0     H19580   2.068   3.737   0.265 -0.7394  1.5853 -3.8037
  886MOL0     H19581   1.941   3.669   0.174 -0.3566  1.3449  0.0498
  886MOL0     H19582   2.070   3.451   0.153  0.4653 -0.4959  1.5661
  886MOL0     H19583   2.214   3.522   0.221 -0.5550 -0.2443  1.8942
  886MOL0     H19584   2.216   3.536  -0.029 -0.1840 -0.2105 -0.5592
  886MOL0     H19585   2.069   3.616  -0.032 -0.6584 -2.5611 -0.3044
  886MOL0     H19586   2.151   3.816   0.073  2.9803  2.8963  0.8602
  886MOL0     H19587   2.265   3.775  -0.047  0.5230 -0.5272 -0.0473
  886MOL0     H19588   2.315   3.695   0.236  1.4035  1.1886  1.8842
  886MOL0     H19589   2.436   3.707   0.104 -0.1082 -2.6863  3.0298
  886MOL0     H19590   2.096   4.017   0.537 -4.3982 -1.6174 -1.1325
  886MOL0     H19591   2.211   4.190   0.661  1.9858 -2.6373  0.0097
  886MOL0     H19592   2.340   4.599   0.957 -0.2442  1.4939  2.8068
  886MOL0     H19593   2.548   4.656   1.081  1.9986 -0.3280 -1.0153
  886MOL0     H19594   4.152   4.840   1.882  1.3909  0.4308 -2.2941
  886MOL0     H19595   4.359   4.942   1.798 -0.6096 -1.3273  1.6929
  886MOL0     H19596   4.647   5.073   1.825 -0.6378  0.3287  0.3201
  886MOL0     H19597   4.881   5.076   1.794  0.0567  3.0457  0.6772
  886MOL0     H19598   5.041   5.317   1.464 -1.6426 -0.3796  0.2106
  886MOL0     H19599   5.071   5.143   1.424 -0.2449 -0.7118  0.0586
  886MOL0     H19600   5.243   5.313   1.601  1.7320 -0.8114 -0.6258
  886MOL0     H19601   5.294   5.298   1.439  2.1221 -1.8086  0.9149
  886MOL0     H19602   5.279   5.068   1.636  1.6273 -1.5487 -1.0867
  886MOL0     H19603   5.407   5.136   1.554 -0.4710 -0.2562  2.8276
  886MOL0     H19604   5.351   4.918   1.457  0.2052 -0.5886 -1.7781
  886MOL0     H19605   5.192   4.971   1.403  0.1382  0.3872 -2.9130
  886MOL0     H19606   5.442   5.156   1.120 -3.1148  3.8055  0.5879
  886MOL0     H19607   4.840   5.352   1.468 -1.7482  0.8753  0.0283
  886MOL0     H19608   4.669   5.493   1.465 -0.7773  0.3149 -1.3511
  886MOL0     H19609   4.540   5.389   1.415  2.5335 -0.7103 -1.9011
  886MOL0     H19610   4.530   5.467   1.572 -0.3547 -0.6882  0.7637
  887MOL0     O19611   2.781   0.412  10.114 -0.7988 -0.0680  0.6996
  887MOL0     C19612   2.860   0.316  10.123  0.0791 -0.2074  0.7493
  887MOL0     O19613   2.887   0.231  10.021 -0.6866  0.0668 -0.3195
  887MOL0     C19614   2.854   0.279   9.898  0.9454  0.0636 -0.1000
  887MOL0     C19615   2.943   0.356   9.825 -0.0234 -0.2414  0.1399
  887MOL0     C19616   2.915   0.388   9.691 -0.4838  0.3477  0.0795
  887MOL0     C19617   2.799   0.334   9.625 -1.2901  0.5618 -0.7783
  887MOL0     O19618   2.783   0.371   9.496 -0.5795  0.2285  0.2459
  887MOL0     C19619   2.674   0.299   9.424 -0.2469 -0.3350  0.0736
  887MOL0     C19620   2.689   0.331   9.278  0.3972 -0.0262  0.9361
  887MOL0     C19621   2.645   0.471   9.232 -0.9309 -0.6165 -0.1692
  887MOL0     C19622   2.771   0.557   9.188  0.4400  0.2586 -0.2599
  887MOL0     C19623   2.729   0.693   9.124 -0.2171  1.2494  0.3234
  887MOL0     C19624   2.650   0.682   8.990  0.4048 -0.0291 -0.2843
  887MOL0     C19625   2.730   0.616   8.879 -0.2122  0.5510  0.2361
  887MOL0     C19626   2.682   0.678   8.748  1.3250 -0.1644  0.7833
  887MOL0     N19627   2.719   0.816   8.724  0.1181  0.1749  0.1596
  887MOL0     C19628   2.646   0.931   8.719 -0.4528  0.1409  0.4607
  887MOL0     C19629   2.735   1.025   8.680 -0.0864 -0.2087 -0.7387
  887MOL0     C19630   2.699   1.166   8.631  0.8160 -0.1457  0.1311
  887MOL0     C19631   2.779   1.195   8.502 -0.7404 -0.9114  0.6246
  887MOL0     C19632   2.763   1.335   8.428  0.9470  0.6182 -0.4981
  887MOL0     C19633   2.767   1.456   8.516  0.2343 -0.9168 -0.1060
  887MOL0     O19634   2.791   1.586   8.453  0.0078 -0.0083 -0.3912
  887MOL0     C19635   2.888   1.599   8.361 -1.0530 -0.7410  0.4565
  887MOL0     C19636   2.872   1.684   8.254  0.4311  0.1336 -0.6016
  887MOL0     C19637   2.971   1.708   8.159  0.3079 -0.2669  0.4317
  887MOL0     C19638   3.087   1.627   8.159 -1.0686  0.4810 -0.2676
  887MOL0     C19639   3.187   1.620   8.045 -0.2159  0.1625 -0.3223
  887MOL0     O19640   3.318   1.565   8.060 -1.3022  1.3215  0.5894
  887MOL0     C19641   3.435   1.582   7.985 -0.0718  0.8464  0.2423
  887MOL0     C19642   3.450   1.658   7.868  0.0703  0.4571 -0.0955
  887MOL0     C19643   3.562   1.662   7.786  0.2748 -0.2831  0.0286
  887MOL0     C19644   3.661   1.575   7.812 -0.9620 -0.0351  0.4632
  887MOL0     O19645   3.770   1.565   7.734  0.2077 -0.2041 -0.6189
  887MOL0     C19646   3.809   1.678   7.660 -1.4597 -0.1963  0.7113
  887MOL0     C19647   3.938   1.633   7.590 -0.3050  0.0528 -0.2152
  887MOL0     C19648   3.915   1.530   7.475  1.3074 -0.7249 -0.2910
  887MOL0     C19649   4.034   1.502   7.379 -0.9821 -0.4096 -0.1800
  887MOL0     C19650   4.083   1.359   7.394 -0.8434 -0.8761  0.9360
  887MOL0     C19651   3.983   1.264   7.333 -1.2320 -1.1615  0.5138
  887MOL0     C19652   4.036   1.119   7.364  1.3808  0.5606  0.2101
  887MOL0     C19653   3.952   1.015   7.285 -1.1500  0.0242  0.6034
  887MOL0    Cl19654   3.979   0.866   7.358 -0.5011  0.2158 -0.2887
  887MOL0     C19655   3.649   1.499   7.922  0.3605  0.0069 -0.4421
  887MOL0     C19656   3.539   1.499   8.009 -0.0454  0.0503  0.7120
  887MOL0     O19657   3.145   1.666   7.942 -0.2343 -0.7281 -0.0678
  887MOL0     C19658   3.105   1.532   8.258  1.2359 -0.8249 -0.1484
  887MOL0     C19659   3.013   1.531   8.369  0.3728 -0.8791 -0.1203
  887MOL0     N19660   2.859   0.977   8.677  0.1619 -0.5559  0.1713
  887MOL0     N19661   2.848   0.852   8.699  0.5512  0.0219  0.1666
  887MOL0     C19662   2.703   0.271   9.703  0.1417  0.1826  0.7782
  887MOL0     C19663   2.729   0.241   9.838  0.5215  0.0888  0.3090
  887MOL0     C19664   2.924   0.283  10.256  0.3766  0.0859  0.0054
  887MOL0     C19665   2.852   0.313  10.373 -0.7222 -0.8140 -0.6426
  887MOL0     C19666   2.894   0.286  10.503 -0.1766 -1.0445  0.1621
  887MOL0     C19667   3.012   0.209  10.524 -0.3177  0.2912 -0.7004
  887MOL0     O19668   3.029   0.191  10.663  0.3845  0.2734 -0.9255
  887MOL0     C19669   3.131   0.096  10.708  0.4643  0.1045 -0.3967
  887MOL0     C19670   3.091   0.010  10.821  1.2360  0.3538 -0.0170
  887MOL0     C19671   2.974  -0.081  10.764  0.1639 -0.0532  0.4812
  887MOL0     C19672   2.933  -0.185  10.866 -0.1257  1.7127 -0.4559
  887MOL0     C19673   2.907  -0.132  11.002 -0.2558 -0.3043 -0.0098
  887MOL0     C19674   2.886  -0.091  11.116 -0.0915 -0.5065 -0.3661
  887MOL0     C19675   3.090   0.162  10.409  0.2904  0.0915 -0.0615
  887MOL0     C19676   3.044   0.212  10.276  0.0182  0.1462 -0.2177
  887MOL0     C19677   3.141   0.170  10.166 -0.4365  0.2317 -0.0624
  887MOL0     H19678   3.037   0.382   9.872 -1.7402  0.7386  3.3577
  887MOL0     H19679   2.968   0.444   9.615 -0.2542 -1.6813 -1.3252
  887MOL0     H19680   2.683   0.191   9.438  1.1749 -0.3967 -1.0904
  887MOL0     H19681   2.577   0.332   9.464 -1.3816  2.3529 -4.2419
  887MOL0     H19682   2.621   0.267   9.220 -0.3105 -0.3338  2.0684
  887MOL0     H19683   2.794   0.314   9.251  0.9853  2.9772  1.0600
  887MOL0     H19684   2.604   0.524   9.318  0.5205 -2.7417  1.9206
  887MOL0     H19685   2.568   0.472   9.153 -0.6677 -0.2748 -0.4301
  887MOL0     H19686   2.833   0.582   9.275  0.9382  3.9363 -1.5027
  887MOL0     H19687   2.836   0.496   9.124 -0.2537 -0.1366 -0.5890
  887MOL0     H19688   2.666   0.737   9.201 -2.2578  0.3033 -0.7160
  887MOL0     H19689   2.825   0.741   9.099  1.0752 -2.0695 -1.8618
  887MOL0     H19690   2.562   0.621   9.014 -0.9825  1.9759 -0.0895
  887MOL0     H19691   2.624   0.785   8.966  0.4128  0.3062  1.0345
  887MOL0     H19692   2.699   0.511   8.872 -0.3435  0.6109 -0.1189
  887MOL0     H19693   2.837   0.620   8.898 -0.2917 -1.2345  1.2178
  887MOL0     H19694   2.737   0.618   8.675 -0.2838 -0.5501 -0.1655
  887MOL0     H19695   2.576   0.652   8.737  1.5575 -0.5939 -0.5553
  887MOL0     H19696   2.538   0.938   8.713 -0.3920  0.4352 -0.6000
  887MOL0     H19697   2.596   1.181   8.599  0.9474  0.7196  0.0710
  887MOL0     H19698   2.722   1.240   8.708 -2.0826  1.5440 -0.4755
  887MOL0     H19699   2.885   1.205   8.526  0.5646  1.8231 -4.8214
  887MOL0     H19700   2.753   1.117   8.429 -2.3097  0.0713  0.0755
  887MOL0     H19701   2.674   1.336   8.364  0.1022  0.9001  0.6571
  887MOL0     H19702   2.845   1.343   8.356 -0.3204  2.3014 -1.8702
  887MOL0     H19703   2.848   1.448   8.589  2.9911  0.5188 -2.7795
  887MOL0     H19704   2.668   1.469   8.560 -0.3683 -2.1151 -1.0301
  887MOL0     H19705   2.783   1.746   8.262 -0.0926 -0.8170  1.9326
  887MOL0     H19706   2.941   1.779   8.082 -2.0151  0.7041  2.1085
  887MOL0     H19707   3.379   1.735   7.842 -0.1214  0.3197  0.0212
  887MOL0     H19708   3.563   1.736   7.707 -1.7832 -1.1532 -0.8916
  887MOL0     H19709   3.750   1.708   7.573 -0.7376  0.5578  0.4689
  887MOL0     H19710   3.836   1.751   7.737 -0.0258 -1.7565  1.7522
  887MOL0     H19711   3.991   1.722   7.555  1.6106  0.4510  3.2458
  887MOL0     H19712   4.007   1.591   7.665 -2.2446 -1.6241  0.7381
  887MOL0     H19713   3.891   1.440   7.534  1.0796 -1.3194 -1.2788
  887MOL0     H19714   3.827   1.561   7.417  0.7526 -2.5427 -0.4914
  887MOL0     H19715   4.112   1.576   7.399  1.4419 -2.7645 -0.4396
  887MOL0     H19716   4.012   1.517   7.273 -5.2813  0.0109  0.5782
  887MOL0     H19717   4.113   1.337   7.497  5.1856  2.1527  0.2776
  887MOL0     H19718   4.178   1.353   7.340  0.9123 -1.1150  3.8715
  887MOL0     H19719   3.880   1.270   7.370 -2.3659 -1.3974 -2.3433
  887MOL0     H19720   3.966   1.289   7.228 -0.2242 -0.9805  0.3849
  887MOL0     H19721   4.012   1.110   7.470  1.6064 -0.6420  0.1763
  887MOL0     H19722   4.142   1.102   7.343  1.5168  1.6385 -0.0483
  887MOL0     H19723   3.845   1.037   7.289 -0.6766  3.5169 -1.3343
  887MOL0     H19724   3.978   1.012   7.179 -2.4908 -0.8679  0.2841
  887MOL0     H19725   3.727   1.429   7.950  0.5821  1.2680  2.4426
  887MOL0     H19726   3.533   1.435   8.097  0.5637 -1.0967 -0.0470
  887MOL0     H19727   3.193   1.470   8.267  0.6080 -1.3944  3.7255
  887MOL0     H19728   3.023   1.459   8.450  0.9518 -2.8059 -1.7980
  887MOL0     H19729   2.615   0.229   9.657 -1.0794  1.4787  1.8476
  887MOL0     H19730   2.653   0.186   9.893 -0.6022  0.9581 -0.3359
  887MOL0     H19731   2.755   0.360  10.367 -2.0143 -3.3084 -0.8328
  887MOL0     H19732   2.836   0.322  10.587 -0.2898  3.0512 -1.3967
  887MOL0     H19733   3.208   0.169  10.735 -1.2274  1.9487 -0.3361
  887MOL0     H19734   3.178   0.033  10.632  4.5593 -0.0618  1.9446
  887MOL0     H19735   3.065   0.065  10.912  0.3007 -0.6204  0.3238
  887MOL0     H19736   3.173  -0.061  10.838  2.3390  0.3340 -4.2455
  887MOL0     H19737   3.005  -0.135  10.675 -0.0101  0.2458  0.2366
  887MOL0     H19738   2.889  -0.020  10.732  0.9830  1.0358  0.2848
  887MOL0     H19739   2.836  -0.228  10.841 -0.5161  1.5320  1.2202
  887MOL0     H19740   3.007  -0.265  10.881 -0.7389  0.4521 -3.4612
  887MOL0     H19741   2.859  -0.041  11.207  0.6294  2.2862 -1.5913
  887MOL0     H19742   3.183   0.108  10.414  1.4851  1.9582 -1.0257
  887MOL0     H19743   3.133   0.064  10.138  0.9893 -0.2310  1.1404
  887MOL0     H19744   3.126   0.235  10.080  2.4632  0.4999 -0.4634
  887MOL0     H19745   3.244   0.177  10.202  0.5722 -1.0093 -2.4403
  888MOL0     O19746   0.235   8.803   5.679  0.5214 -0.1080  0.4709
  888MOL0     C19747   0.312   8.879   5.621 -0.0450  0.1738 -0.3090
  888MOL0     O19748   0.289   8.924   5.491  0.0214  0.1129 -0.8940
  888MOL0     C19749   0.193   8.864   5.422 -0.0056 -0.3702 -0.5781
  888MOL0     C19750   0.104   8.951   5.351  0.7243 -0.2002 -0.1203
  888MOL0     C19751   0.015   8.893   5.263 -0.4489 -1.0800  0.3661
  888MOL0     C19752   0.011   8.756   5.241  0.0229 -0.4447  1.0158
  888MOL0     O19753  -0.073   8.704   5.153 -0.6560  0.3110  0.2059
  888MOL0     C19754  -0.036   8.700   5.012  0.2334  0.2710  0.1036
  888MOL0     C19755  -0.170   8.668   4.935 -0.1514 -0.0971  0.2187
  888MOL0     C19756  -0.273   8.785   4.961  0.2422  1.0476  0.0963
  888MOL0     C19757  -0.411   8.732   4.924 -0.6125  0.4732  0.3235
  888MOL0     C19758  -0.414   8.666   4.784 -0.3714 -0.1988  0.2541
  888MOL0     C19759  -0.551   8.605   4.747  0.1563 -0.3787 -0.9056
  888MOL0     C19760  -0.556   8.555   4.608  0.0962  0.0469  0.4263
  888MOL0     C19761  -0.706   8.544   4.554  0.4880  0.0413  0.3772
  888MOL0     N19762  -0.791   8.665   4.552 -0.5005  0.0182 -0.3928
  888MOL0     C19763  -0.749   8.796   4.518 -0.6815 -0.2527  0.6390
  888MOL0     C19764  -0.842   8.880   4.556  0.5386  0.5275 -0.0443
  888MOL0     C19765  -0.862   9.026   4.525  0.2339  0.4285  0.5104
  888MOL0     C19766  -0.931   9.050   4.391  0.3632 -0.4229 -0.1326
  888MOL0     C19767  -0.993   9.193   4.403  0.1480  0.7803 -0.4242
  888MOL0     C19768  -1.097   9.222   4.294  0.6156 -0.1259 -0.1247
  888MOL0     O19769  -1.232   9.206   4.337  0.2442  0.5040 -0.4344
  888MOL0     C19770  -1.342   9.250   4.258 -1.0666 -0.7570  0.5727
  888MOL0     C19771  -1.324   9.312   4.134  0.0326  0.8722 -0.2355
  888MOL0     C19772  -1.431   9.344   4.048  0.0513  0.6066  0.0481
  888MOL0     C19773  -1.560   9.337   4.102  0.4411  0.6354  0.0177
  888MOL0     C19774  -1.680   9.405   4.051  0.3672  0.2007  0.8961
  888MOL0     O19775  -1.670   9.533   4.024 -0.0190 -0.5001  0.5909
  888MOL0     C19776  -1.781   9.611   3.982 -0.6470  0.6753 -0.5127
  888MOL0     C19777  -1.872   9.565   3.888 -0.5437  0.5969 -0.0092
  888MOL0     C19778  -1.953   9.650   3.821 -0.4800 -0.1941  0.0369
  888MOL0     C19779  -1.967   9.785   3.862  0.3185  0.2069 -0.3018
  888MOL0     O19780  -2.057   9.872   3.810 -0.9214 -0.7075 -0.1498
  888MOL0     C19781  -1.991   9.982   3.748 -0.0400 -0.7163  0.4735
  888MOL0     C19782  -2.095  10.082   3.689  0.0903 -0.6472  0.3201
  888MOL0     C19783  -2.041  10.169   3.572  0.0429 -0.6708 -0.1485
  888MOL0     C19784  -2.158  10.236   3.500 -0.1197  0.0025  1.5572
  888MOL0     C19785  -2.121  10.263   3.349  0.3749 -0.5760  1.1161
  888MOL0     C19786  -2.121  10.133   3.267  0.2267 -0.0037 -1.1902
  888MOL0     C19787  -2.117  10.167   3.122 -0.2922 -1.0571 -0.0301
  888MOL0     C19788  -2.101  10.052   3.019 -0.5172  0.1901  0.4459
  888MOL0    Cl19789  -2.251   9.960   2.994 -0.2384 -0.5124 -0.0147
  888MOL0     C19790  -1.874   9.829   3.953  0.7960  0.1934 -0.3931
  888MOL0     C19791  -1.788   9.748   4.023  0.3130 -0.2856  0.5950
  888MOL0     O19792  -1.780   9.329   4.041  0.4364  0.0797 -0.0928
  888MOL0     C19793  -1.581   9.259   4.217  0.6344 -0.0325 -1.1503
  888MOL0     C19794  -1.477   9.232   4.300 -0.6271 -0.1793 -0.9303
  888MOL0     N19795  -0.938   8.805   4.626 -0.6871  0.5209  0.0285
  888MOL0     N19796  -0.904   8.682   4.631  1.3474 -0.2694 -0.5096
  888MOL0     C19797   0.099   8.670   5.304 -0.2011  0.7799 -0.0102
  888MOL0     C19798   0.188   8.728   5.398 -0.4000  0.1774  0.0064
  888MOL0     C19799   0.420   8.943   5.700 -0.3338 -0.1217  0.5128
  888MOL0     C19800   0.444   9.082   5.687  0.0848 -0.4945  0.3726
  888MOL0     C19801   0.549   9.143   5.752  0.1534  0.0398 -0.2093
  888MOL0     C19802   0.625   9.075   5.848  0.2830  0.0379 -0.0319
  888MOL0     O19803   0.701   9.134   5.947 -0.2677  0.2697 -0.2372
  888MOL0     C19804   0.758   9.262   5.916 -0.0003  0.3345 -0.1535
  888MOL0     C19805   0.876   9.297   6.007 -0.0560 -0.0525 -0.0565
  888MOL0     C19806   0.876   9.261   6.160 -0.0154  0.2287 -0.0003
  888MOL0     C19807   1.016   9.278   6.236  0.3076 -0.1428 -0.1779
  888MOL0     C19808   1.120   9.181   6.192  0.1142 -0.2992 -0.5005
  888MOL0     C19809   1.217   9.108   6.170 -0.5902  0.1607 -0.0566
  888MOL0     C19810   0.611   8.942   5.859  0.1819  0.2057  0.6656
  888MOL0     C19811   0.512   8.872   5.781  0.2197  0.3214  0.6155
  888MOL0     C19812   0.500   8.720   5.804 -0.6828 -0.2432  0.0657
  888MOL0     H19813   0.118   9.057   5.367  0.7167 -0.5210  2.3767
  888MOL0     H19814  -0.063   8.945   5.208 -1.1583 -0.9771  1.4273
  888MOL0     H19815  -0.003   8.797   4.976 -1.2778 -0.6667 -4.5157
  888MOL0     H19816   0.038   8.621   4.995  0.5968  0.5379  0.4259
  888MOL0     H19817  -0.205   8.571   4.972  2.7380 -2.0238 -1.6982
  888MOL0     H19818  -0.146   8.670   4.828 -1.3292 -0.1546 -0.0555
  888MOL0     H19819  -0.255   8.878   4.907  1.5377  0.1304 -1.1445
  888MOL0     H19820  -0.282   8.813   5.066 -0.4917 -2.1955  1.0038
  888MOL0     H19821  -0.450   8.668   5.004 -1.7854  1.6021  0.6991
  888MOL0     H19822  -0.484   8.814   4.927  2.0497  3.0548 -0.2748
  888MOL0     H19823  -0.370   8.734   4.711  0.0941 -1.6191 -0.8330
  888MOL0     H19824  -0.353   8.576   4.775 -0.5667 -0.7831  3.5120
  888MOL0     H19825  -0.566   8.524   4.818  2.2349 -0.0309  0.0129
  888MOL0     H19826  -0.628   8.678   4.771 -0.4344 -1.0620 -0.6993
  888MOL0     H19827  -0.519   8.453   4.601 -4.7762 -1.8580 -2.7490
  888MOL0     H19828  -0.502   8.614   4.533  3.7073 -1.0807  1.9441
  888MOL0     H19829  -0.685   8.507   4.453  2.4923  0.1642  0.7173
  888MOL0     H19830  -0.753   8.467   4.615 -0.2529  0.5921  0.5200
  888MOL0     H19831  -0.657   8.809   4.463 -3.2050 -0.1199 -4.0568
  888MOL0     H19832  -0.916   9.062   4.613  0.1883 -0.5007  0.8756
  888MOL0     H19833  -0.765   9.076   4.531 -0.1520  2.1345 -4.0145
  888MOL0     H19834  -0.862   9.027   4.310  0.5034  0.0493 -0.1465
  888MOL0     H19835  -1.010   8.975   4.373  0.3975 -0.6397  0.6003
  888MOL0     H19836  -0.912   9.265   4.390  2.3444 -1.8173 -2.2338
  888MOL0     H19837  -1.036   9.203   4.503 -0.5730  1.6954 -0.8126
  888MOL0     H19838  -1.085   9.162   4.203  2.4197 -0.7227  0.4714
  888MOL0     H19839  -1.070   9.325   4.269  4.4652 -0.3260  2.4242
  888MOL0     H19840  -1.226   9.316   4.087 -0.2749  1.3106 -0.8541
  888MOL0     H19841  -1.408   9.404   3.960 -3.2263  3.8532  1.1468
  888MOL0     H19842  -1.893   9.459   3.874 -2.8915  0.9277  0.5955
  888MOL0     H19843  -2.022   9.622   3.742 -0.5704 -2.4915  0.8723
  888MOL0     H19844  -1.918  10.026   3.816 -1.1279 -0.9636  1.8321
  888MOL0     H19845  -1.938   9.937   3.664  0.9100 -1.4243  1.4311
  888MOL0     H19846  -2.182  10.023   3.656  2.5467 -4.2996 -0.2593
  888MOL0     H19847  -2.128  10.137   3.777  0.0268  1.9006 -1.2104
  888MOL0     H19848  -1.975  10.248   3.611 -0.7318 -0.9874  1.9062
  888MOL0     H19849  -1.978  10.110   3.506  1.3287  0.1630  0.2860
  888MOL0     H19850  -2.165  10.337   3.542 -1.3247  0.5772  0.0756
  888MOL0     H19851  -2.244  10.174   3.524 -0.9444  0.2052 -0.6324
  888MOL0     H19852  -2.032  10.325   3.347  0.1839 -0.2915  1.3609
  888MOL0     H19853  -2.200  10.326   3.307  1.1239  0.4626  1.2391
  888MOL0     H19854  -2.036  10.070   3.296  0.1506  0.1297 -0.6592
  888MOL0     H19855  -2.220  10.088   3.282 -1.2126  2.4481 -2.7406
  888MOL0     H19856  -2.019  10.214   3.113 -0.4613 -0.6610  0.1744
  888MOL0     H19857  -2.186  10.248   3.096  4.0372  1.9514 -3.7153
  888MOL0     H19858  -2.090  10.089   2.917 -0.4389 -1.8076 -0.3232
  888MOL0     H19859  -2.007   9.999   3.037  0.3015  1.2953 -0.4397
  888MOL0     H19860  -1.889   9.930   3.989  2.3453  0.9539 -1.7806
  888MOL0     H19861  -1.735   9.789   4.109 -2.0510 -0.8751  2.4641
  888MOL0     H19862  -1.683   9.233   4.243  0.5568  0.9591 -0.3987
  888MOL0     H19863  -1.497   9.184   4.395  3.7549  0.2915  0.4272
  888MOL0     H19864   0.085   8.563   5.301 -1.5299  0.6225  4.2556
  888MOL0     H19865   0.244   8.652   5.451 -0.7475 -2.2645 -2.8225
  888MOL0     H19866   0.369   9.131   5.624  0.0589 -0.5129  0.3891
  888MOL0     H19867   0.556   9.250   5.737 -1.9704  0.1469 -0.8156
  888MOL0     H19868   0.682   9.338   5.931 -1.0568 -0.8682  0.8082
  888MOL0     H19869   0.782   9.264   5.809 -1.9084 -2.8916 -0.7862
  888MOL0     H19870   0.880   9.405   5.990 -5.1624  0.4223  0.2234
  888MOL0     H19871   0.965   9.258   5.956  0.0106  0.4563 -0.3402
  888MOL0     H19872   0.853   9.158   6.188  1.7355 -0.5998 -1.4559
  888MOL0     H19873   0.797   9.326   6.201 -1.9322  0.2706 -3.3359
  888MOL0     H19874   1.064   9.376   6.229 -0.1774  0.2715  1.7700
  888MOL0     H19875   0.995   9.264   6.342  1.5878  1.2769  0.2950
  888MOL0     H19876   1.300   9.041   6.163 -1.2535 -0.5268 -1.6877
  888MOL0     H19877   0.682   8.891   5.922  0.8695  0.2809 -0.0425
  888MOL0     H19878   0.485   8.670   5.707  1.2280  0.5196 -0.6798
  888MOL0     H19879   0.592   8.679   5.848  0.2703  1.4060 -0.3138
  888MOL0     H19880   0.412   8.702   5.867  0.7088  1.3861  2.6254
  889MOL0     O19881   7.588   3.378   7.814  0.0807 -0.0360 -0.2784
  889MOL0     C19882   7.492   3.344   7.879  0.7417 -0.7634 -0.0685
  889MOL0     O19883   7.446   3.399   8.003 -0.0573 -0.6631 -0.0249
  889MOL0     C19884   7.538   3.480   8.079  0.8779  0.3882 -0.0608
  889MOL0     C19885   7.531   3.464   8.216  0.0672 -0.4040 -0.2147
  889MOL0     C19886   7.581   3.568   8.299  0.8274  0.1967 -0.7657
  889MOL0     C19887   7.659   3.663   8.251 -0.0267  0.1452 -0.4486
  889MOL0     O19888   7.708   3.748   8.352  0.3040  0.0513 -0.2589
  889MOL0     C19889   7.847   3.772   8.344 -0.7262 -0.2210  0.6562
  889MOL0     C19890   7.867   3.913   8.303 -0.8309 -0.4760 -0.4015
  889MOL0     C19891   7.847   4.005   8.417  0.7339  0.8150 -0.6432
  889MOL0     C19892   7.853   4.145   8.352  0.1644  0.3260 -0.6156
  889MOL0     C19893   7.815   4.249   8.455 -0.4512  0.1154  0.4405
  889MOL0     C19894   7.661   4.268   8.454  0.2993 -0.0753  0.3950
  889MOL0     C19895   7.630   4.369   8.562  0.3111  0.3324 -0.2617
  889MOL0     C19896   7.477   4.398   8.577 -0.3395  0.0841  0.1828
  889MOL0     N19897   7.468   4.484   8.695  0.3640  0.1527 -0.2966
  889MOL0     C19898   7.464   4.424   8.812 -0.8474  0.6306 -0.3023
  889MOL0     C19899   7.484   4.518   8.906  0.4068  0.8512  0.5503
  889MOL0     C19900   7.474   4.494   9.057 -0.4433  0.1798 -0.5818
  889MOL0     C19901   7.543   4.373   9.113  0.1100  0.9375 -0.2962
  889MOL0     C19902   7.583   4.389   9.266  0.4227  0.0991  0.4196
  889MOL0     C19903   7.487   4.466   9.357 -0.2837  0.2116  0.3436
  889MOL0     O19904   7.539   4.471   9.491 -0.4865 -0.6743 -0.1361
  889MOL0     C19905   7.440   4.483   9.587  0.3740  0.2591 -0.4044
  889MOL0     C19906   7.356   4.379   9.621  0.0046  1.1525  0.0921
  889MOL0     C19907   7.248   4.394   9.706  0.2134  0.4969 -0.1047
  889MOL0     C19908   7.215   4.521   9.758 -0.3609 -0.1108  0.2012
  889MOL0     C19909   7.111   4.524   9.872  0.0087 -0.6452 -0.5177
  889MOL0     O19910   7.077   4.404   9.930  0.1317  0.0823 -0.1895
  889MOL0     C19911   6.966   4.408  10.018 -1.0405  0.8294  0.3765
  889MOL0     C19912   6.849   4.342   9.982 -0.8355 -0.0664 -0.0500
  889MOL0     C19913   6.744   4.334  10.069 -0.5609 -0.1292  0.3942
  889MOL0     C19914   6.759   4.400  10.196 -0.9292  0.1239 -0.5240
  889MOL0     O19915   6.670   4.401  10.300  0.0417  0.0376 -0.2481
  889MOL0     C19916   6.536   4.358  10.275  0.5375 -0.1691  0.1792
  889MOL0     C19917   6.434   4.365  10.389  1.1008  0.1020 -0.0836
  889MOL0     C19918   6.445   4.261  10.500 -0.3719  0.8580  0.8339
  889MOL0     C19919   6.337   4.245  10.605  0.1688  0.8665 -0.0235
  889MOL0     C19920   6.373   4.146  10.723  0.1691 -0.4703 -0.2834
  889MOL0     C19921   6.446   4.197  10.844  0.5113  0.0708  0.4461
  889MOL0     C19922   6.387   4.327  10.901  0.5225  0.7275 -0.3271
  889MOL0     C19923   6.432   4.341  11.046  0.6523 -0.0683 -0.6450
  889MOL0    Cl19924   6.613   4.346  11.060 -0.1408 -0.0828  0.4387
  889MOL0     C19925   6.871   4.467  10.227 -0.6026  0.0882 -0.9395
  889MOL0     C19926   6.976   4.471  10.138  0.5248  0.2358  0.1743
  889MOL0     O19927   7.071   4.636   9.913 -0.6241  0.1265 -0.9980
  889MOL0     C19928   7.303   4.628   9.734 -0.4706  0.7265 -0.7048
  889MOL0     C19929   7.418   4.608   9.647 -0.4308 -0.1835  0.5356
  889MOL0     N19930   7.507   4.639   8.839 -0.5202  1.1599  0.7410
  889MOL0     N19931   7.502   4.615   8.711  0.3359  0.1760 -0.3289
  889MOL0     C19932   7.695   3.658   8.117 -0.4049 -0.1502 -0.3587
  889MOL0     C19933   7.631   3.571   8.034 -0.3925  0.4668  0.2823
  889MOL0     C19934   7.398   3.248   7.821 -0.1338  0.5693  0.2230
  889MOL0     C19935   7.294   3.192   7.900 -0.2975 -0.3327 -0.4651
  889MOL0     C19936   7.210   3.096   7.837  0.1198  0.3368  0.0792
  889MOL0     C19937   7.233   3.049   7.709  0.3223 -0.4102 -0.7584
  889MOL0     O19938   7.138   2.956   7.676  0.0318  0.0111  0.1608
  889MOL0     C19939   7.162   2.877   7.564 -0.0027  0.2855 -0.2389
  889MOL0     C19940   7.243   2.749   7.589  0.1910  0.9596  0.2798
  889MOL0     C19941   7.383   2.767   7.642 -0.8611  0.2716 -0.8094
  889MOL0     C19942   7.457   2.630   7.631 -0.7226 -0.7256 -0.2738
  889MOL0     C19943   7.500   2.585   7.496  0.0982 -0.5100  0.4192
  889MOL0     C19944   7.510   2.530   7.388  0.1341 -0.2495  0.6580
  889MOL0     C19945   7.348   3.090   7.650 -0.4138  0.2970  0.1051
  889MOL0     C19946   7.420   3.195   7.685 -0.5884 -0.2554 -0.5958
  889MOL0     C19947   7.529   3.243   7.585  0.2440  0.9829 -0.0408
  889MOL0     H19948   7.485   3.380   8.267  0.8378  0.3190  1.7627
  889MOL0     H19949   7.546   3.574   8.402  0.2406 -3.8702 -0.5664
  889MOL0     H19950   7.880   3.767   8.448 -1.3857  0.9884  0.9497
  889MOL0     H19951   7.898   3.699   8.280 -1.9315  1.4362 -2.4397
  889MOL0     H19952   7.800   3.946   8.223  1.1353  2.4768 -0.9947
  889MOL0     H19953   7.968   3.924   8.263  0.5046 -1.7103  2.3522
  889MOL0     H19954   7.917   3.990   8.500  0.6108  0.5944 -0.5795
  889MOL0     H19955   7.754   3.988   8.470  1.7373  1.2821  1.3721
  889MOL0     H19956   7.955   4.157   8.315  1.2980  0.9049  2.3566
  889MOL0     H19957   7.790   4.147   8.262 -2.8751  1.1676  1.3437
  889MOL0     H19958   7.851   4.229   8.556  1.2057  0.3027 -0.0873
  889MOL0     H19959   7.857   4.343   8.419 -2.0851  0.7239  0.0304
  889MOL0     H19960   7.627   4.309   8.359 -0.0621  2.8662  1.6996
  889MOL0     H19961   7.610   4.173   8.471 -1.1271  0.8058  1.1953
  889MOL0     H19962   7.684   4.462   8.544 -2.5711  2.3883  0.9434
  889MOL0     H19963   7.665   4.324   8.655  0.2045  0.4307 -0.1732
  889MOL0     H19964   7.437   4.440   8.484  3.6027  2.4497 -0.7142
  889MOL0     H19965   7.421   4.305   8.595 -3.4057  1.8361  0.3023
  889MOL0     H19966   7.445   4.320   8.834 -0.4808  0.4495 -0.8311
  889MOL0     H19967   7.526   4.574   9.110 -1.1656 -0.9948  2.0960
  889MOL0     H19968   7.366   4.500   9.074 -0.8690 -1.5426 -2.3601
  889MOL0     H19969   7.462   4.300   9.117 -2.9069  3.9332 -1.8893
  889MOL0     H19970   7.626   4.338   9.051 -0.7511 -0.7075 -0.5671
  889MOL0     H19971   7.681   4.437   9.260  0.6750 -0.5853 -1.8077
  889MOL0     H19972   7.594   4.291   9.315 -2.6185 -0.6978 -0.2940
  889MOL0     H19973   7.397   4.404   9.347  0.7527 -1.0629 -1.9244
  889MOL0     H19974   7.473   4.574   9.346 -2.2315 -0.0089  0.3250
  889MOL0     H19975   7.373   4.280   9.581  0.8192  1.1772  0.3604
  889MOL0     H19976   7.197   4.301   9.728  1.4554  0.4293  3.1653
  889MOL0     H19977   6.849   4.288   9.888  2.9612  0.3553 -0.4394
  889MOL0     H19978   6.649   4.287  10.049 -2.5875  3.4904  0.5472
  889MOL0     H19979   6.500   4.427  10.198 -0.5252  2.7853  3.1306
  889MOL0     H19980   6.537   4.250  10.255  1.2625 -1.3096  5.0858
  889MOL0     H19981   6.439   4.466  10.431 -2.9343  0.2570  0.4288
  889MOL0     H19982   6.337   4.354  10.340  0.8661  0.1814  0.3639
  889MOL0     H19983   6.451   4.165  10.449  0.3071  0.7856  1.0482
  889MOL0     H19984   6.543   4.275  10.546  1.0824  0.7293 -1.9763
  889MOL0     H19985   6.256   4.197  10.548  0.8869 -2.4923  1.5354
  889MOL0     H19986   6.288   4.340  10.625 -0.3270  1.0477 -1.8869
  889MOL0     H19987   6.429   4.055  10.700 -0.5979 -0.8947 -0.5272
  889MOL0     H19988   6.276   4.111  10.760 -0.2466  2.1742  1.4288
  889MOL0     H19989   6.442   4.113  10.914  2.4298 -1.6585 -1.3656
  889MOL0     H19990   6.551   4.200  10.812 -0.5271 -0.6522 -3.6819
  889MOL0     H19991   6.277   4.328  10.898  0.4441 -2.5953 -2.0584
  889MOL0     H19992   6.415   4.410  10.835 -2.7038  0.2907 -2.4942
  889MOL0     H19993   6.384   4.432  11.083 -2.4150 -1.7001 -0.3660
  889MOL0     H19994   6.399   4.251  11.098  1.6821 -1.5125 -2.3897
  889MOL0     H19995   6.877   4.502  10.330 -1.0320 -1.0095 -0.5346
  889MOL0     H19996   7.074   4.506  10.169  1.7498 -2.1412 -0.7055
  889MOL0     H19997   7.295   4.726   9.778 -2.5385  1.9729 -3.5764
  889MOL0     H19998   7.490   4.683   9.617  1.2267 -2.5039 -1.8287
  889MOL0     H19999   7.761   3.735   8.077 -2.0746  1.8933  0.6101
  889MOL0     H20000   7.646   3.581   7.927 -2.0331  0.7038  0.0381
  889MOL0     H20001   7.292   3.210   8.007  1.9060  0.1206 -0.4397
  889MOL0     H20002   7.121   3.058   7.886  1.4914 -0.6316  1.9583
  889MOL0     H20003   7.215   2.929   7.483 -0.6979  0.5380 -0.5387
  889MOL0     H20004   7.067   2.842   7.524  0.4324 -0.8689 -0.3237
  889MOL0     H20005   7.250   2.687   7.499  2.4978 -2.7048  2.6894
  889MOL0     H20006   7.192   2.689   7.665  3.6381  0.2989  2.2815
  889MOL0     H20007   7.384   2.802   7.746  0.2209  2.3838 -1.4518
  889MOL0     H20008   7.429   2.848   7.584  0.4179 -0.1958 -0.4940
  889MOL0     H20009   7.554   2.631   7.681 -0.4051  2.4809 -0.7038
  889MOL0     H20010   7.395   2.553   7.677 -0.7122 -0.5388  0.0525
  889MOL0     H20011   7.513   2.484   7.292  2.4278 -0.9690  1.0102
  889MOL0     H20012   7.385   3.057   7.554 -0.2175  0.0012  0.2806
  889MOL0     H20013   7.625   3.206   7.622  0.4238 -0.4111 -1.7764
  889MOL0     H20014   7.505   3.202   7.487 -1.5881  1.8829 -0.0170
  889MOL0     H20015   7.552   3.349   7.565  0.4901  1.4562  2.4423
  890MOL0     O20016   2.810   2.486   6.552  0.0043  0.1263  0.0079
  890MOL0     C20017   2.838   2.574   6.625 -0.0984  0.3478 -0.3641
  890MOL0     O20018   2.955   2.633   6.637  0.4057 -0.1307  0.2558
  890MOL0     C20019   2.964   2.742   6.711 -0.3913 -0.5692  1.5555
  890MOL0     C20020   3.009   2.737   6.841  0.3132  0.3049  0.0535
  890MOL0     C20021   3.015   2.859   6.916  0.8036  0.2041 -0.4322
  890MOL0     C20022   2.961   2.983   6.863 -1.0112 -0.4749  0.2672
  890MOL0     O20023   2.950   3.092   6.947 -0.2080  0.0728  0.5470
  890MOL0     C20024   3.002   3.214   6.894 -0.0929  0.6284  0.3250
  890MOL0     C20025   2.884   3.318   6.886 -0.4235 -0.6710 -0.1586
  890MOL0     C20026   2.798   3.308   7.017  0.4663  0.1710  0.3558
  890MOL0     C20027   2.873   3.329   7.154  0.1761 -0.4242 -0.5822
  890MOL0     C20028   2.766   3.318   7.264  0.2430 -0.1213 -0.4870
  890MOL0     C20029   2.820   3.280   7.398 -0.9763  0.6365  0.2956
  890MOL0     C20030   2.718   3.306   7.509 -0.2605  0.2073  0.9774
  890MOL0     C20031   2.779   3.284   7.659  0.3903 -0.0739 -0.0186
  890MOL0     N20032   2.671   3.299   7.756 -0.8926  1.0253  0.0805
  890MOL0     C20033   2.579   3.203   7.777  0.3857  0.7000 -0.2175
  890MOL0     C20034   2.502   3.247   7.880 -0.3330  0.1177 -0.3341
  890MOL0     C20035   2.387   3.165   7.941 -0.9072  0.0312  0.8799
  890MOL0     C20036   2.292   3.144   7.828 -0.0690 -0.4862 -0.7195
  890MOL0     C20037   2.176   3.054   7.862  0.1794  0.3022  0.2842
  890MOL0     C20038   2.056   3.088   7.772  1.0032  0.5577  0.2123
  890MOL0     O20039   2.039   3.227   7.764  0.4268 -0.8126 -0.6880
  890MOL0     C20040   1.964   3.279   7.872 -0.5861 -0.0218  1.2602
  890MOL0     C20041   2.010   3.392   7.938  0.8233 -0.4944 -0.1128
  890MOL0     C20042   1.920   3.456   8.023 -0.6591  0.2335 -0.0748
  890MOL0     C20043   1.791   3.409   8.050  0.4005  0.0234  0.8838
  890MOL0     C20044   1.702   3.490   8.136 -0.3973  0.6081  0.5393
  890MOL0     O20045   1.752   3.602   8.181  0.1098  0.3131 -0.1612
  890MOL0     C20046   1.683   3.690   8.256 -0.3317  0.8151 -0.2767
  890MOL0     C20047   1.553   3.731   8.215 -0.5795  0.7364 -0.6721
  890MOL0     C20048   1.483   3.819   8.294 -0.0022  0.3274 -0.0623
  890MOL0     C20049   1.557   3.881   8.398 -0.2326 -0.2407  0.1392
  890MOL0     O20050   1.486   3.967   8.473 -0.4046 -0.6131 -0.3644
  890MOL0     C20051   1.537   4.033   8.585 -0.3232 -0.5307  0.1032
  890MOL0     C20052   1.480   4.174   8.595 -0.2551 -0.0482  0.4135
  890MOL0     C20053   1.326   4.174   8.584 -0.3927 -0.1636 -1.1984
  890MOL0     C20054   1.273   4.182   8.440 -0.3426  0.1625 -0.6040
  890MOL0     C20055   1.120   4.167   8.433 -0.4176 -0.2921 -0.1654
  890MOL0     C20056   1.055   4.245   8.308 -0.1902  0.2137  0.3120
  890MOL0     C20057   0.898   4.231   8.283 -0.0317 -0.1901 -0.5252
  890MOL0     C20058   0.815   4.275   8.410 -0.1033  0.0053  0.4259
  890MOL0    Cl20059   0.784   4.128   8.502  0.0158 -0.1357 -0.0502
  890MOL0     C20060   1.681   3.839   8.439 -0.1392  0.3192 -0.3210
  890MOL0     C20061   1.743   3.746   8.369  0.1709 -0.1601  0.2276
  890MOL0     O20062   1.601   3.440   8.171  0.0067  0.2165  0.2386
  890MOL0     C20063   1.749   3.296   7.979 -0.1056  0.1691 -0.4607
  890MOL0     C20064   1.836   3.228   7.893 -0.5892  0.4813 -0.7681
  890MOL0     N20065   2.546   3.373   7.918  0.8300 -0.4409 -0.6416
  890MOL0     N20066   2.653   3.404   7.849 -1.2074  0.0341  0.5600
  890MOL0     C20067   2.940   2.987   6.723 -0.3687 -0.9401 -0.6179
  890MOL0     C20068   2.936   2.865   6.651  0.4219 -0.3154 -0.2159
  890MOL0     C20069   2.722   2.613   6.709 -0.9883  0.6592  0.3742
  890MOL0     C20070   2.648   2.737   6.688 -0.0822  0.7462  0.3630
  890MOL0     C20071   2.550   2.778   6.772 -0.8533  0.3564  0.3309
  890MOL0     C20072   2.498   2.692   6.868 -0.6839 -1.1266  0.2409
  890MOL0     O20073   2.396   2.741   6.935 -0.0324  0.4357 -0.2577
  890MOL0     C20074   2.334   2.666   7.044 -0.7993  0.1767 -0.1762
  890MOL0     C20075   2.209   2.736   7.085  0.6679  0.6010  0.6077
  890MOL0     C20076   2.167   2.708   7.226  0.0668 -0.8382  0.5333
  890MOL0     C20077   2.149   2.562   7.272 -0.3863  1.1431 -0.1092
  890MOL0     C20078   2.048   2.509   7.178 -0.0851  0.5578  0.7532
  890MOL0     C20079   1.960   2.480   7.097 -0.4531  0.3615  0.5559
  890MOL0     C20080   2.567   2.575   6.890 -0.0765 -0.8726  0.6430
  890MOL0     C20081   2.674   2.525   6.809  0.5403 -0.6731  0.1987
  890MOL0     C20082   2.747   2.396   6.846  0.4060 -1.0682 -0.9516
  890MOL0     H20083   3.028   2.645   6.894 -2.3997  0.5422  1.5975
  890MOL0     H20084   3.051   2.863   7.018 -2.1412  2.7745  0.6543
  890MOL0     H20085   3.070   3.251   6.972 -0.9563  1.5567  0.6627
  890MOL0     H20086   3.048   3.200   6.796  0.5729 -3.9615  1.0782
  890MOL0     H20087   2.823   3.307   6.796  0.9323  2.1862 -1.5718
  890MOL0     H20088   2.932   3.417   6.882 -0.0495 -0.8306  0.2006
  890MOL0     H20089   2.740   3.216   7.007 -3.6459  2.5913 -0.1933
  890MOL0     H20090   2.731   3.395   7.013  1.1379  0.7141  0.7655
  890MOL0     H20091   2.944   3.251   7.181 -0.0000 -0.8810 -1.4091
  890MOL0     H20092   2.928   3.424   7.160  3.3388 -2.1412 -0.0428
  890MOL0     H20093   2.719   3.417   7.277  0.8818  0.1816 -0.4450
  890MOL0     H20094   2.687   3.250   7.232 -1.5657  2.1321 -1.1581
  890MOL0     H20095   2.843   3.173   7.405  1.3057  1.0982  0.3892
  890MOL0     H20096   2.913   3.336   7.410 -2.0208  2.6279 -0.5293
  890MOL0     H20097   2.626   3.251   7.487 -0.4719  0.2366  1.7283
  890MOL0     H20098   2.681   3.408   7.499  3.3399  1.3973 -3.9299
  890MOL0     H20099   2.833   3.189   7.662 -0.5333 -0.5854  1.0843
  890MOL0     H20100   2.856   3.359   7.675  1.2607 -1.2206  1.3490
  890MOL0     H20101   2.553   3.119   7.712 -0.9020  0.0634  1.0566
  890MOL0     H20102   2.423   3.070   7.981 -3.0320 -0.4716  1.7174
  890MOL0     H20103   2.346   3.204   8.035  0.9509 -1.2979  2.3297
  890MOL0     H20104   2.266   3.248   7.803  1.3128 -0.7190 -3.5603
  890MOL0     H20105   2.333   3.103   7.735 -1.5352 -1.4742 -0.9587
  890MOL0     H20106   2.161   3.074   7.968  3.3801 -0.0674  0.8933
  890MOL0     H20107   2.215   2.953   7.844  2.7497  1.2604  0.0625
  890MOL0     H20108   1.966   3.035   7.805  2.0603  0.4265  3.2575
  890MOL0     H20109   2.083   3.051   7.673  4.5063 -1.9061  1.9100
  890MOL0     H20110   2.103   3.443   7.916  0.9665  0.6521  2.6745
  890MOL0     H20111   1.959   3.548   8.065  1.6756 -1.4022  1.5800
  890MOL0     H20112   1.507   3.670   8.138 -2.2466 -0.5812  1.2601
  890MOL0     H20113   1.378   3.843   8.276  0.0412  1.3650  0.9986
  890MOL0     H20114   1.508   3.976   8.674 -0.1551  2.3903  2.1783
  890MOL0     H20115   1.645   4.039   8.569 -0.2416  1.3693  1.1496
  890MOL0     H20116   1.507   4.229   8.685 -1.8759 -0.0422  0.9161
  890MOL0     H20117   1.516   4.242   8.517 -2.2023  1.4716  0.7647
  890MOL0     H20118   1.288   4.087   8.639 -0.2805  1.1693  1.1450
  890MOL0     H20119   1.275   4.260   8.628  2.6383  0.9368  0.5034
  890MOL0     H20120   1.309   4.097   8.381  1.1436  0.2865  0.0784
  890MOL0     H20121   1.306   4.275   8.394  2.3966  1.4161  3.3386
  890MOL0     H20122   1.082   4.211   8.526 -1.5650 -2.2909  0.3612
  890MOL0     H20123   1.095   4.061   8.425 -0.5050 -0.2500 -0.4758
  890MOL0     H20124   1.075   4.352   8.319  0.2053  0.4290 -1.9789
  890MOL0     H20125   1.096   4.211   8.213 -0.1892 -1.2442  0.8058
  890MOL0     H20126   0.855   4.137   8.249 -3.5721  0.6642  1.1265
  890MOL0     H20127   0.876   4.295   8.197  1.5951 -1.3595 -1.8782
  890MOL0     H20128   0.873   4.351   8.463  1.5623  0.6551 -2.1491
  890MOL0     H20129   0.718   4.314   8.377 -0.2340  0.3885  1.2195
  890MOL0     H20130   1.735   3.873   8.526 -3.8902 -0.3117  2.5154
  890MOL0     H20131   1.841   3.717   8.403 -0.3686 -1.9643  0.3476
  890MOL0     H20132   1.645   3.277   8.002  0.5649  0.7998  3.7494
  890MOL0     H20133   1.784   3.145   7.848 -4.7273  1.1613  2.1847
  890MOL0     H20134   2.913   3.082   6.679  0.8864 -0.6387 -0.7624
  890MOL0     H20135   2.900   2.880   6.550 -1.8837  5.0342  1.0693
  890MOL0     H20136   2.680   2.793   6.600 -2.6766  2.3417  0.3316
  890MOL0     H20137   2.500   2.872   6.751  1.0664  1.0296 -1.5600
  890MOL0     H20138   2.402   2.684   7.128 -1.6200  0.9474  0.3325
  890MOL0     H20139   2.324   2.560   7.020  3.1961 -0.0716 -1.5268
  890MOL0     H20140   2.122   2.737   7.018  0.4835  0.7015  0.8454
  890MOL0     H20141   2.223   2.844   7.087 -2.3340  1.0995 -0.5062
  890MOL0     H20142   2.073   2.764   7.237  0.6541  0.6907 -1.5912
  890MOL0     H20143   2.248   2.750   7.286 -0.5784 -2.1790  2.4369
  890MOL0     H20144   2.247   2.514   7.276 -0.9287 -0.4044 -3.1423
  890MOL0     H20145   2.104   2.554   7.372  2.4274 -0.3157  1.1303
  890MOL0     H20146   1.876   2.451   7.037  1.0799  3.4587 -3.5910
  890MOL0     H20147   2.543   2.503   6.967 -0.8969 -0.5228  0.7277
  890MOL0     H20148   2.854   2.414   6.862  0.1310 -0.5686  0.5115
  890MOL0     H20149   2.699   2.353   6.934  1.0334 -0.4172 -0.2729
  890MOL0     H20150   2.735   2.321   6.768  0.9423 -3.6592  1.3224
  891MOL0     O20151   4.723   6.011  10.655  0.0297  0.2085  0.1741
  891MOL0     C20152   4.636   5.929  10.617 -0.7515  0.0835  0.6775
  891MOL0     O20153   4.586   5.822  10.686  0.4885  0.2206 -0.4985
  891MOL0     C20154   4.602   5.821  10.820 -0.0498  0.0631 -0.0568
  891MOL0     C20155   4.642   5.694  10.866  0.4018 -0.0016 -0.6741
  891MOL0     C20156   4.668   5.671  10.999  0.2211 -1.1364  0.5607
  891MOL0     C20157   4.673   5.779  11.089 -0.0770  0.5173 -0.5972
  891MOL0     O20158   4.721   5.750  11.216  0.6721 -0.4263  0.6377
  891MOL0     C20159   4.765   5.864  11.288  0.3922 -0.3612 -0.7253
  891MOL0     C20160   4.881   5.833  11.386 -0.0498 -1.2662 -0.3883
  891MOL0     C20161   4.906   5.953  11.476 -0.0401  0.5396  0.6329
  891MOL0     C20162   4.795   5.964  11.580 -0.0022  0.3157  0.3724
  891MOL0     C20163   4.848   6.058  11.694 -0.2035  0.5907 -0.1183
  891MOL0     C20164   4.876   6.201  11.647 -0.4638 -0.9097  0.8292
  891MOL0     C20165   4.872   6.298  11.770  0.8220  1.0559  0.1452
  891MOL0     C20166   4.948   6.253  11.894  0.4029  0.8625 -0.3631
  891MOL0     N20167   4.976   6.362  11.984  0.1031  1.7748 -0.8654
  891MOL0     C20168   5.023   6.487  11.958 -0.5352  1.1928  0.4349
  891MOL0     C20169   5.031   6.546  12.084 -0.1554  0.4748  0.0080
  891MOL0     C20170   5.068   6.687  12.115 -0.2843 -0.2529 -0.0704
  891MOL0     C20171   4.980   6.795  12.065 -0.5900 -0.2718  0.9086
  891MOL0     C20172   5.042   6.931  12.103  0.6615  1.0727  0.1727
  891MOL0     C20173   4.961   7.051  12.071  0.2339  0.3944  1.4878
  891MOL0     O20174   4.900   7.057  11.937  0.4204  0.4021  0.9406
  891MOL0     C20175   4.799   7.144  11.919  0.3451 -0.5438 -0.1809
  891MOL0     C20176   4.767   7.248  12.001  0.5679 -0.2707  0.7486
  891MOL0     C20177   4.685   7.350  11.955 -0.3905  0.3943 -0.4502
  891MOL0     C20178   4.625   7.350  11.830  0.4599  0.2139 -0.2758
  891MOL0     C20179   4.534   7.450  11.775  0.8137 -0.1989 -0.0175
  891MOL0     O20180   4.485   7.537  11.873 -0.0235  0.6871 -0.0026
  891MOL0     C20181   4.366   7.601  11.852  0.1837  0.3838  0.6304
  891MOL0     C20182   4.358   7.731  11.887 -0.2872 -0.2142 -0.1585
  891MOL0     C20183   4.242   7.813  11.876 -0.9371  0.2962 -0.1211
  891MOL0     C20184   4.126   7.759  11.819 -0.8768  0.4698 -0.6079
  891MOL0     O20185   4.029   7.850  11.812 -0.4474 -0.7369 -0.3148
  891MOL0     C20186   3.893   7.802  11.788 -0.2726 -0.4527  0.4198
  891MOL0     C20187   3.789   7.916  11.767  0.4303 -0.0935  0.1821
  891MOL0     C20188   3.774   8.021  11.894  0.2125 -0.4166 -0.8013
  891MOL0     C20189   3.896   8.096  11.922  1.2170 -0.0827 -0.1726
  891MOL0     C20190   3.882   8.232  11.981  0.3073 -0.3180 -0.6904
  891MOL0     C20191   4.016   8.305  11.992  0.4937  0.2104  0.5449
  891MOL0     C20192   4.087   8.339  11.864  0.4054  0.1101  0.3268
  891MOL0     C20193   4.218   8.421  11.876  0.0031  0.8250 -0.7253
  891MOL0    Cl20194   4.352   8.315  11.936 -0.1589  0.0941 -0.3219
  891MOL0     C20195   4.122   7.622  11.788 -0.0702  0.7504  0.3719
  891MOL0     C20196   4.239   7.542  11.807 -0.6922 -0.1184  0.2290
  891MOL0     O20197   4.488   7.432  11.663  0.5170 -0.6813 -0.1253
  891MOL0     C20198   4.645   7.236  11.751 -0.0685  0.8743 -0.3080
  891MOL0     C20199   4.731   7.130  11.797  0.5193  0.1344  0.0962
  891MOL0     N20200   5.000   6.458  12.182 -0.0373  0.2889  0.4767
  891MOL0     N20201   4.961   6.345  12.123  0.1812  0.1000 -0.0366
  891MOL0     C20202   4.624   5.903  11.041  0.1527 -0.8320  1.0311
  891MOL0     C20203   4.585   5.925  10.909 -1.0334 -2.2204 -0.4409
  891MOL0     C20204   4.602   5.938  10.470 -0.5383 -0.2027  0.3223
  891MOL0     C20205   4.664   6.037  10.395  0.0265 -0.6473 -0.0408
  891MOL0     C20206   4.654   6.046  10.254  0.4074  0.4586  0.5841
  891MOL0     C20207   4.547   5.986  10.191  0.0896 -0.3145 -0.7806
  891MOL0     O20208   4.505   6.000  10.057 -1.4604 -0.3383  0.4855
  891MOL0     C20209   4.555   6.102   9.976  0.3113  0.2073 -0.4892
  891MOL0     C20210   4.485   6.238  10.010 -0.2177  0.4164  0.0976
  891MOL0     C20211   4.336   6.242   9.994 -0.0866 -0.1933  0.1794
  891MOL0     C20212   4.287   6.206   9.851  0.2550  0.2070  0.2115
  891MOL0     C20213   4.354   6.292   9.756  0.6631 -0.5522 -0.0338
  891MOL0     C20214   4.415   6.356   9.674  0.1253 -0.9225  0.3715
  891MOL0     C20215   4.465   5.904  10.268  0.5655 -0.1241 -1.1557
  891MOL0     C20216   4.492   5.878  10.406  0.7444 -0.9556 -0.6510
  891MOL0     C20217   4.400   5.779  10.478  0.2706 -1.0799  1.0835
  891MOL0     H20218   4.653   5.621  10.786 -1.7406 -1.9505  0.6931
  891MOL0     H20219   4.687   5.568  11.029  0.7966 -0.4562  2.7755
  891MOL0     H20220   4.802   5.941  11.220 -1.5796  0.3391 -1.0835
  891MOL0     H20221   4.688   5.916  11.346  0.4577 -1.4082  0.3417
  891MOL0     H20222   4.975   5.802  11.339  1.7090  0.9034  1.4802
  891MOL0     H20223   4.851   5.749  11.450 -0.2804 -1.6992 -1.0569
  891MOL0     H20224   4.913   6.044  11.415 -3.2556 -0.7081 -1.9057
  891MOL0     H20225   5.001   5.943  11.528  1.4392  2.1732 -1.5807
  891MOL0     H20226   4.707   6.011  11.535 -0.9989 -2.0794 -0.3101
  891MOL0     H20227   4.777   5.864  11.622 -3.2985  0.1340 -1.1740
  891MOL0     H20228   4.773   6.051  11.773  0.1552 -0.2309  0.1564
  891MOL0     H20229   4.937   6.013  11.740 -0.1675  1.6223  0.8767
  891MOL0     H20230   4.975   6.216  11.604 -0.2828  2.6352  2.1594
  891MOL0     H20231   4.802   6.235  11.574  0.1452 -0.3956  0.4397
  891MOL0     H20232   4.765   6.319  11.779  0.3185 -1.0420 -0.2338
  891MOL0     H20233   4.930   6.387  11.744  3.1202 -0.8766 -1.8633
  891MOL0     H20234   4.897   6.175  11.952  0.5893  1.6743  0.9533
  891MOL0     H20235   5.036   6.203  11.854 -1.7351 -1.9444 -1.9219
  891MOL0     H20236   5.037   6.515  11.854 -1.0373 -0.3554 -0.0719
  891MOL0     H20237   5.073   6.688  12.224 -1.9694  0.0239  0.0213
  891MOL0     H20238   5.173   6.712  12.096  0.9927 -1.8329  3.8067
  891MOL0     H20239   4.969   6.799  11.957 -0.9261 -0.2494  0.9433
  891MOL0     H20240   4.883   6.782  12.114  0.0465 -0.8454  2.0715
  891MOL0     H20241   5.129   6.946  12.039  0.7394  3.2920  0.7051
  891MOL0     H20242   5.070   6.925  12.208 -4.4404  0.5729  1.7737
  891MOL0     H20243   5.011   7.146  12.091 -1.0915  1.1245  1.4044
  891MOL0     H20244   4.877   7.036  12.141 -1.4551 -2.0137 -0.8634
  891MOL0     H20245   4.825   7.267  12.091 -2.4051  0.3167  2.6988
  891MOL0     H20246   4.667   7.441  12.013 -0.1387  0.7480 -0.9219
  891MOL0     H20247   4.451   7.768  11.929 -1.9612  1.0413  2.7543
  891MOL0     H20248   4.244   7.917  11.906  0.1744 -0.2659  1.9155
  891MOL0     H20249   3.886   7.739  11.699 -2.4213  0.2509  0.0223
  891MOL0     H20250   3.869   7.729  11.866  2.2282 -0.8244  0.9118
  891MOL0     H20251   3.821   7.980  11.685  1.8049  2.8753  2.8181
  891MOL0     H20252   3.687   7.882  11.748  0.4108 -0.0444  0.1992
  891MOL0     H20253   3.689   8.088  11.875 -1.4726 -0.9421  3.7460
  891MOL0     H20254   3.742   7.965  11.982  0.8548  1.5008  0.7286
  891MOL0     H20255   3.962   8.116  11.837  0.8314  2.8383  0.1115
  891MOL0     H20256   3.945   8.034  11.998 -3.8568 -1.3262  2.4829
  891MOL0     H20257   3.845   8.227  12.084 -1.4461 -0.5910 -1.3012
  891MOL0     H20258   3.807   8.295  11.931 -0.3571 -1.0065 -0.5921
  891MOL0     H20259   4.002   8.387  12.063 -2.5765  0.8693 -0.6875
  891MOL0     H20260   4.078   8.229  12.041 -2.4214 -2.6727  0.1300
  891MOL0     H20261   4.022   8.397  11.798  0.0399  0.0693  0.6523
  891MOL0     H20262   4.095   8.250  11.801 -1.7981 -1.3035  1.9078
  891MOL0     H20263   4.245   8.464  11.779 -1.2647 -0.5874 -1.7464
  891MOL0     H20264   4.189   8.493  11.953 -0.4977 -1.4104  1.2841
  891MOL0     H20265   4.033   7.584  11.740 -1.2362  4.2220 -0.5613
  891MOL0     H20266   4.250   7.436  11.789 -0.4630  0.1766 -1.5795
  891MOL0     H20267   4.604   7.221  11.652 -0.7052 -1.7656  0.2636
  891MOL0     H20268   4.743   7.048  11.726  1.7002  1.6657 -1.5913
  891MOL0     H20269   4.607   5.990  11.104 -1.7939 -0.0200 -0.4915
  891MOL0     H20270   4.537   6.020  10.893  0.8115 -1.2055 -0.2027
  891MOL0     H20271   4.733   6.109  10.439 -0.3026 -0.8196  0.7746
  891MOL0     H20272   4.718   6.110  10.195  0.7274 -2.8105 -3.0583
  891MOL0     H20273   4.550   6.073   9.871 -1.4576 -1.0197 -0.1154
  891MOL0     H20274   4.661   6.098  10.001  0.0981 -1.9898  0.3184
  891MOL0     H20275   4.534   6.314   9.947  0.0209 -1.6808 -2.4266
  891MOL0     H20276   4.504   6.258  10.116 -0.9296  0.7768  0.1583
  891MOL0     H20277   4.285   6.335  10.021  0.5383 -0.3990  2.2861
  891MOL0     H20278   4.300   6.174  10.072 -3.1593  2.8973  1.7681
  891MOL0     H20279   4.301   6.100   9.826 -1.6800 -0.0299 -0.0896
  891MOL0     H20280   4.182   6.232   9.831  0.0599 -0.2952  0.5536
  891MOL0     H20281   4.466   6.423   9.607  2.1972 -0.0229  2.6533
  891MOL0     H20282   4.376   5.856  10.229 -0.8148  0.4354  1.1232
  891MOL0     H20283   4.371   5.825  10.573  0.1759 -2.6298  1.8328
  891MOL0     H20284   4.300   5.769  10.434 -0.2478  1.9548  1.3746
  891MOL0     H20285   4.447   5.680  10.484  1.4772 -0.4607  2.6525
  892MOL0     O20286   5.658   5.494   0.685  0.1636 -0.5461 -0.0607
  892MOL0     C20287   5.637   5.372   0.665 -0.3416  0.6674  0.0462
  892MOL0     O20288   5.515   5.315   0.653  0.0243 -0.4536 -0.4472
  892MOL0     C20289   5.400   5.389   0.659  0.2222  0.9566 -1.4140
  892MOL0     C20290   5.361   5.460   0.769 -0.9345  0.9480  0.3685
  892MOL0     C20291   5.240   5.523   0.770 -0.6315 -0.1005 -0.1087
  892MOL0     C20292   5.145   5.516   0.667 -0.7445 -0.0975  0.4407
  892MOL0     O20293   5.021   5.572   0.678  0.1672 -0.1140  0.3041
  892MOL0     C20294   4.994   5.690   0.747  0.6753 -0.4393  1.1134
  892MOL0     C20295   4.861   5.731   0.684 -0.0769 -1.3112 -0.4000
  892MOL0     C20296   4.841   5.884   0.684 -1.3272 -0.2778  1.2342
  892MOL0     C20297   4.794   5.929   0.825  0.3736 -0.0417 -0.0123
  892MOL0     C20298   4.779   6.080   0.841  0.8325 -0.5335 -0.3185
  892MOL0     C20299   4.729   6.109   0.983 -0.2239 -0.5291  1.0427
  892MOL0     C20300   4.651   6.245   0.993 -0.7285 -0.2602 -0.1977
  892MOL0     C20301   4.742   6.374   0.995  0.3445 -0.5411 -0.1467
  892MOL0     N20302   4.669   6.497   0.999  0.0227  0.2211  0.4814
  892MOL0     C20303   4.608   6.549   0.886  0.5401  0.3870 -0.3059
  892MOL0     C20304   4.535   6.647   0.929  0.8794 -0.0772 -0.8965
  892MOL0     C20305   4.435   6.737   0.850  0.8822 -0.6387  0.8683
  892MOL0     C20306   4.487   6.879   0.826  0.5809 -1.3594 -0.3477
  892MOL0     C20307   4.419   6.941   0.700 -0.1131  0.2978  0.4276
  892MOL0     C20308   4.479   6.888   0.576 -0.3677  0.1866 -0.4150
  892MOL0     O20309   4.439   6.967   0.461 -0.0322 -0.5768 -0.2571
  892MOL0     C20310   4.317   6.946   0.401  0.8105  0.2727  0.7073
  892MOL0     C20311   4.215   6.849   0.446 -0.0754  0.3475  0.6306
  892MOL0     C20312   4.096   6.839   0.370  0.0071  0.1031 -0.5115
  892MOL0     C20313   4.071   6.910   0.247 -0.3564 -0.0345  0.6244
  892MOL0     C20314   3.935   6.914   0.181 -0.6496  0.4972  0.4545
  892MOL0     O20315   3.900   7.012   0.102 -1.0341 -0.9797  0.7740
  892MOL0     C20316   3.781   7.021   0.031 -0.3607  0.6875  0.3491
  892MOL0     C20317   3.783   7.113  -0.076 -0.0479 -0.4684  0.4901
  892MOL0     C20318   3.680   7.117  -0.165 -0.2101 -0.4027 -0.0754
  892MOL0     C20319   3.559   7.057  -0.136 -0.0878 -0.4644 -1.1061
  892MOL0     O20320   3.460   7.083  -0.225 -0.2986 -0.4296  0.2919
  892MOL0     C20321   3.324   7.040  -0.190  0.4583 -0.3615 -0.0451
  892MOL0     C20322   3.220   7.124  -0.265  0.0655  0.2935  0.2450
  892MOL0     C20323   3.210   7.099  -0.408  0.2723 -0.2234  0.0409
  892MOL0     C20324   3.102   7.191  -0.474  0.4894 -0.4372 -0.3688
  892MOL0     C20325   3.111   7.190  -0.629 -0.9566 -0.0358  0.0516
  892MOL0     C20326   2.999   7.279  -0.685  0.2924  0.3951 -0.6795
  892MOL0     C20327   2.959   7.245  -0.829 -0.2161 -0.5619 -0.7611
  892MOL0     C20328   3.079   7.246  -0.925  0.0197  0.2078 -0.0269
  892MOL0    Cl20329   3.031   7.211  -1.096 -0.0094 -0.0426  0.1031
  892MOL0     C20330   3.551   6.986  -0.018 -0.1558 -0.2378 -1.8247
  892MOL0     C20331   3.657   6.954   0.065 -0.4173  0.3470  0.2273
  892MOL0     O20332   3.871   6.812   0.193  0.0300 -0.1269 -0.2123
  892MOL0     C20333   4.173   6.992   0.198  0.3396  0.2096 -0.5067
  892MOL0     C20334   4.300   7.006   0.273  0.0837  0.6778  0.8130
  892MOL0     N20335   4.563   6.659   1.069  0.5026  0.2768 -1.4155
  892MOL0     N20336   4.640   6.563   1.111  0.1071  0.1760 -0.5327
  892MOL0     C20337   5.197   5.450   0.550 -0.0108  0.2870  0.2637
  892MOL0     C20338   5.316   5.380   0.550  0.2987 -0.5955  0.1587
  892MOL0     C20339   5.763   5.299   0.649  0.0537  0.8668  0.1315
  892MOL0     C20340   5.887   5.364   0.622  0.3571 -0.4145  1.6688
  892MOL0     C20341   6.018   5.307   0.627 -0.3486 -0.4952  0.1724
  892MOL0     C20342   6.019   5.169   0.644  0.0083 -0.0254 -0.3030
  892MOL0     O20343   6.143   5.105   0.644 -0.4605 -0.1339  0.2171
  892MOL0     C20344   6.161   4.973   0.585  0.1632  0.3948  0.0115
  892MOL0     C20345   6.311   4.948   0.558 -0.3280 -0.3886 -0.6749
  892MOL0     C20346   6.333   4.830   0.460  0.4240  0.4141 -0.9323
  892MOL0     C20347   6.475   4.794   0.424 -0.4819 -0.5949  0.5062
  892MOL0     C20348   6.574   4.811   0.527 -0.1881 -0.5243 -0.4498
  892MOL0     C20349   6.661   4.848   0.599  0.7118 -0.9619 -0.2312
  892MOL0     C20350   5.902   5.094   0.658 -1.1909 -0.3199  0.9372
  892MOL0     C20351   5.776   5.155   0.670  0.1583 -0.3211  0.4002
  892MOL0     C20352   5.660   5.066   0.698 -0.3058  0.0936 -0.4587
  892MOL0     H20353   5.422   5.478   0.857  2.2856 -0.8842 -1.3142
  892MOL0     H20354   5.222   5.575   0.864  1.2334  0.6469 -0.1272
  892MOL0     H20355   4.977   5.665   0.852  1.6503 -2.3561  0.8504
  892MOL0     H20356   5.072   5.766   0.737 -0.3659  0.5083 -0.2055
  892MOL0     H20357   4.778   5.692   0.743  0.8931 -5.1428 -1.2946
  892MOL0     H20358   4.852   5.695   0.581 -4.2926  0.2753 -0.8026
  892MOL0     H20359   4.776   5.913   0.601  1.6360  1.2679 -0.7315
  892MOL0     H20360   4.936   5.932   0.657 -1.1684 -1.0346  0.4045
  892MOL0     H20361   4.694   5.893   0.850 -0.1221  0.8100 -0.7196
  892MOL0     H20362   4.865   5.889   0.898 -1.0524 -0.4523  1.2100
  892MOL0     H20363   4.875   6.129   0.823  2.9969 -3.8902  1.0543
  892MOL0     H20364   4.704   6.113   0.769 -0.9054  3.3243  2.8871
  892MOL0     H20365   4.657   6.031   1.005  0.5726 -1.6892 -0.2912
  892MOL0     H20366   4.801   6.089   1.063 -4.0075 -1.4011  4.5730
  892MOL0     H20367   4.599   6.245   1.089  2.3989 -2.3649  1.6749
  892MOL0     H20368   4.577   6.241   0.914 -0.7671 -2.7917 -0.1089
  892MOL0     H20369   4.815   6.371   1.076 -0.0358  3.3576  0.5029
  892MOL0     H20370   4.794   6.395   0.901  0.9964  1.8479  0.6959
  892MOL0     H20371   4.619   6.515   0.783  1.5350 -2.0320  0.5112
  892MOL0     H20372   4.403   6.692   0.755 -1.3233  1.5914  0.4357
  892MOL0     H20373   4.336   6.736   0.896  0.1275 -1.6361 -0.6924
  892MOL0     H20374   4.464   6.945   0.911  1.2195  1.2481 -2.1039
  892MOL0     H20375   4.595   6.874   0.812  1.0735 -1.0642  2.6804
  892MOL0     H20376   4.427   7.050   0.702 -1.8448  0.5486 -1.7425
  892MOL0     H20377   4.315   6.906   0.704  0.1183 -0.8852 -1.9144
  892MOL0     H20378   4.442   6.786   0.563  1.0455 -0.2821 -1.0595
  892MOL0     H20379   4.588   6.885   0.585 -0.4180 -2.0425  0.0504
  892MOL0     H20380   4.212   6.787   0.535 -1.6306  1.1081  1.1411
  892MOL0     H20381   4.016   6.780   0.415 -2.2129  3.2296 -0.0143
  892MOL0     H20382   3.865   7.179  -0.104 -1.1919  1.7807  2.0702
  892MOL0     H20383   3.691   7.183  -0.250  1.6905 -0.4028  0.1147
  892MOL0     H20384   3.309   6.933  -0.207 -0.8813 -0.7899  3.1514
  892MOL0     H20385   3.294   7.044  -0.085  0.4328  2.1684 -0.0983
  892MOL0     H20386   3.126   7.115  -0.210  1.2858  0.8463  2.5913
  892MOL0     H20387   3.257   7.226  -0.253 -0.9279  0.7451 -0.4578
  892MOL0     H20388   3.309   7.116  -0.452  0.2485 -1.3895 -0.4876
  892MOL0     H20389   3.183   6.994  -0.422 -0.1451 -0.1634  0.3818
  892MOL0     H20390   3.112   7.295  -0.442 -1.0590 -0.9506  1.9957
  892MOL0     H20391   3.005   7.150  -0.445 -1.0374  0.9743 -3.0343
  892MOL0     H20392   3.100   7.091  -0.674  3.0185  0.5394 -2.6538
  892MOL0     H20393   3.211   7.225  -0.653 -0.7092 -0.2781  0.7085
  892MOL0     H20394   2.910   7.259  -0.624  0.1116  1.5023 -0.5536
  892MOL0     H20395   3.021   7.386  -0.685 -0.8695  0.6724  0.7674
  892MOL0     H20396   2.879   7.316  -0.853 -0.7567 -0.7915  0.2884
  892MOL0     H20397   2.903   7.151  -0.835 -3.9736  0.9161  4.0318
  892MOL0     H20398   3.130   7.343  -0.925  1.4339 -0.4457 -2.2384
  892MOL0     H20399   3.160   7.183  -0.888  0.1278  1.2129  1.5394
  892MOL0     H20400   3.455   6.937  -0.007  0.3262 -1.3118 -2.1758
  892MOL0     H20401   3.643   6.882   0.146 -0.7869 -0.2934 -0.3895
  892MOL0     H20402   4.152   7.048   0.107 -3.4339 -0.2852 -0.0949
  892MOL0     H20403   4.380   7.066   0.231  0.4361 -0.1725  0.2421
  892MOL0     H20404   5.140   5.443   0.459  1.2184 -2.0066 -0.4003
  892MOL0     H20405   5.340   5.316   0.466 -0.7540 -0.6963 -0.0790
  892MOL0     H20406   5.886   5.468   0.589 -1.0382 -0.5367  1.2493
  892MOL0     H20407   6.110   5.363   0.610  0.2630 -1.5431 -0.0652
  892MOL0     H20408   6.112   4.964   0.487  2.2293 -1.2225 -0.9534
  892MOL0     H20409   6.118   4.895   0.648 -0.6456 -2.0134 -3.2394
  892MOL0     H20410   6.358   4.923   0.654 -2.1001 -0.7739  0.1412
  892MOL0     H20411   6.353   5.043   0.522 -0.2481  0.8366  2.3161
  892MOL0     H20412   6.290   4.856   0.363  0.4668  1.1468 -0.7626
  892MOL0     H20413   6.272   4.751   0.504 -0.5644  3.1031  3.0450
  892MOL0     H20414   6.486   4.689   0.395  3.2227  0.1232 -1.2590
  892MOL0     H20415   6.499   4.854   0.336  0.4298  0.3107  1.3443
  892MOL0     H20416   6.741   4.879   0.665  1.1951 -1.2558 -0.6719
  892MOL0     H20417   5.899   4.986   0.671  0.2130 -0.5784 -0.5932
  892MOL0     H20418   5.613   5.041   0.603 -1.0639  1.5566 -0.4977
  892MOL0     H20419   5.683   4.973   0.752 -3.8790 -0.9137 -0.3854
  892MOL0     H20420   5.589   5.114   0.766 -0.9387  1.1733 -1.8547
  893MOL0     O20421  10.717   5.236   3.726 -0.5721  0.3896  0.1582
  893MOL0     C20422  10.769   5.184   3.626 -0.3425 -0.2360 -0.3466
  893MOL0     O20423  10.717   5.184   3.504 -0.3561 -0.3052 -0.3346
  893MOL0     C20424  10.582   5.217   3.501 -0.4892  0.7426  0.1840
  893MOL0     C20425  10.537   5.343   3.451 -0.1556 -0.0459 -0.3601
  893MOL0     C20426  10.399   5.366   3.441 -0.6785  0.0529 -0.9308
  893MOL0     C20427  10.308   5.281   3.499 -0.1424  0.5332  0.6470
  893MOL0     O20428  10.173   5.315   3.475 -0.0475 -0.5150  0.0328
  893MOL0     C20429  10.094   5.331   3.592  0.3461  0.6064 -0.0987
  893MOL0     C20430   9.950   5.364   3.550 -0.4268  0.8476  0.4969
  893MOL0     C20431   9.873   5.427   3.667  0.0414 -0.2984  1.0538
  893MOL0     C20432   9.726   5.376   3.660  0.3164 -0.1492 -0.8112
  893MOL0     C20433   9.639   5.466   3.743 -0.4839  0.2243  0.0639
  893MOL0     C20434   9.493   5.428   3.709 -0.1290 -0.5600 -0.9126
  893MOL0     C20435   9.420   5.507   3.589 -0.6395  0.9244  0.1495
  893MOL0     C20436   9.284   5.428   3.560  0.0390 -0.5907  0.1048
  893MOL0     N20437   9.197   5.487   3.450  0.2299  0.1325 -0.4121
  893MOL0     C20438   9.245   5.530   3.330  0.4262  0.9742  0.2910
  893MOL0     C20439   9.153   5.614   3.281  0.7823  0.2418 -0.0604
  893MOL0     C20440   9.163   5.676   3.146 -0.2848 -0.7076 -0.3156
  893MOL0     C20441   9.077   5.811   3.144  0.4664  0.2711  0.0069
  893MOL0     C20442   9.080   5.864   3.004 -0.2082 -0.3948  0.2400
  893MOL0     C20443   8.997   5.996   2.998 -0.3348 -0.0739  0.0209
  893MOL0     O20444   8.857   5.957   2.982 -0.7825  0.6619  0.1678
  893MOL0     C20445   8.761   6.055   2.988 -0.7415  0.4394 -0.6064
  893MOL0     C20446   8.628   6.026   2.955 -1.0788 -0.2382 -0.4746
  893MOL0     C20447   8.535   6.130   2.958 -1.2788 -0.6479  0.2288
  893MOL0     C20448   8.570   6.261   2.982  0.0104  0.5636  0.5491
  893MOL0     C20449   8.472   6.367   2.997  0.1505  0.7106  0.3462
  893MOL0     O20450   8.349   6.338   2.930 -0.1367 -0.4728  0.2761
  893MOL0     C20451   8.251   6.428   2.932  0.0659 -0.3653  0.1910
  893MOL0     C20452   8.199   6.478   3.049 -0.7669 -0.1254  0.3198
  893MOL0     C20453   8.081   6.558   3.053 -1.0826  0.5052  0.0914
  893MOL0     C20454   8.012   6.582   2.934  1.1813 -0.5119  0.5770
  893MOL0     O20455   7.895   6.662   2.942  0.7802 -0.4257  0.0226
  893MOL0     C20456   7.801   6.657   2.841 -0.0555 -0.2059 -0.6043
  893MOL0     C20457   7.741   6.517   2.843  1.0008 -0.3343  0.5634
  893MOL0     C20458   7.644   6.493   2.719  0.1812 -0.7008  1.0653
  893MOL0     C20459   7.721   6.456   2.584  0.0802  0.6737 -0.3886
  893MOL0     C20460   7.622   6.388   2.482  0.1646 -0.7354 -0.0146
  893MOL0     C20461   7.691   6.357   2.355 -0.2079  0.2877 -0.0125
  893MOL0     C20462   7.605   6.282   2.256  0.0057  0.3171 -0.4595
  893MOL0     C20463   7.635   6.302   2.111  0.0054  0.4933  0.9762
  893MOL0    Cl20464   7.526   6.435   2.036 -0.4080  0.0701  0.1714
  893MOL0     C20465   8.074   6.548   2.809 -0.5116  0.2920  0.7571
  893MOL0     C20466   8.194   6.473   2.815 -0.2594  0.0679 -0.3869
  893MOL0     O20467   8.488   6.470   3.060 -0.2373 -0.0629  0.2891
  893MOL0     C20468   8.707   6.293   3.005 -0.1136  1.0741  0.0386
  893MOL0     C20469   8.791   6.186   3.013 -0.6731 -0.0915  0.2123
  893MOL0     N20470   9.052   5.627   3.371  0.2387  0.7551  0.4823
  893MOL0     N20471   9.083   5.546   3.469  0.3478  0.0069  0.2099
  893MOL0     C20472  10.347   5.154   3.539 -1.2448  0.9645 -0.3002
  893MOL0     C20473  10.489   5.129   3.542 -0.0914  0.0811 -0.3451
  893MOL0     C20474  10.902   5.104   3.644  0.6771 -0.3157  0.1097
  893MOL0     C20475  10.935   4.999   3.546 -0.2470 -0.6738 -0.6710
  893MOL0     C20476  11.034   4.910   3.592  0.4505  0.2864 -0.4495
  893MOL0     C20477  11.095   4.922   3.707 -0.1960 -0.1191 -0.5263
  893MOL0     O20478  11.197   4.825   3.735 -0.1923 -0.1828 -0.3408
  893MOL0     C20479  11.251   4.819   3.867  0.3153 -0.6145  0.9540
  893MOL0     C20480  11.307   4.679   3.897 -0.4361 -0.8703  0.3011
  893MOL0     C20481  11.194   4.579   3.890 -0.1378  0.1460  0.8191
  893MOL0     C20482  11.247   4.452   3.949 -0.4431 -0.0353  0.1690
  893MOL0     C20483  11.326   4.360   3.861  0.2414 -0.6594 -0.0530
  893MOL0     C20484  11.382   4.274   3.803 -0.8029 -0.1947 -0.6177
  893MOL0     C20485  11.075   5.043   3.781 -0.1539 -0.8250 -1.2420
  893MOL0     C20486  10.973   5.134   3.758  0.9245  0.7829 -0.7171
  893MOL0     C20487  10.959   5.256   3.848 -0.6156 -0.8388  0.6464
  893MOL0     H20488  10.612   5.410   3.410  0.0957 -1.1951 -1.8790
  893MOL0     H20489  10.359   5.454   3.391 -1.3938 -0.7969 -1.8947
  893MOL0     H20490  10.097   5.238   3.649 -1.9194 -1.2020 -2.6407
  893MOL0     H20491  10.134   5.416   3.648 -0.1970  0.5971  0.3077
  893MOL0     H20492   9.919   5.262   3.525  0.9265  0.2431  1.1770
  893MOL0     H20493   9.938   5.427   3.461  1.7210  1.6137  0.6753
  893MOL0     H20494   9.870   5.535   3.651  0.3872 -0.0991  2.2040
  893MOL0     H20495   9.923   5.404   3.761 -2.1227  0.1936  2.4004
  893MOL0     H20496   9.692   5.385   3.557 -3.2288 -0.2736  0.2064
  893MOL0     H20497   9.711   5.276   3.702 -0.1218  1.0784  2.2644
  893MOL0     H20498   9.669   5.441   3.845  0.7377  0.4564 -0.2275
  893MOL0     H20499   9.666   5.571   3.724 -2.8976  0.7569 -0.7951
  893MOL0     H20500   9.477   5.321   3.691 -2.3726 -0.1392 -1.7548
  893MOL0     H20501   9.435   5.444   3.801  0.1012 -2.7672 -0.3298
  893MOL0     H20502   9.476   5.510   3.495  0.5765 -1.1089  0.7730
  893MOL0     H20503   9.403   5.610   3.622  0.0083  1.5474 -1.3459
  893MOL0     H20504   9.328   5.329   3.543 -3.0252 -2.5381  2.3085
  893MOL0     H20505   9.218   5.428   3.648 -0.1751 -0.1330 -0.0536
  893MOL0     H20506   9.327   5.481   3.279 -0.2747 -0.7504  0.7375
  893MOL0     H20507   9.269   5.690   3.123  0.1379 -4.3755 -1.2924
  893MOL0     H20508   9.125   5.604   3.073 -3.2979 -2.6870  2.9102
  893MOL0     H20509   8.981   5.785   3.189  2.4282 -0.8108  4.0975
  893MOL0     H20510   9.118   5.889   3.210 -1.2401  1.5902 -0.4090
  893MOL0     H20511   9.038   5.797   2.929  5.1329 -2.3298 -1.5107
  893MOL0     H20512   9.181   5.898   2.977 -0.3978  1.1640  1.3307
  893MOL0     H20513   9.030   6.051   2.909 -3.1989  1.0386 -0.4515
  893MOL0     H20514   9.019   6.057   3.086  0.0545 -2.4733  1.6761
  893MOL0     H20515   8.604   5.923   2.930  2.5023 -1.9325  2.0567
  893MOL0     H20516   8.433   6.095   2.963 -2.1947  1.9351  2.6016
  893MOL0     H20517   8.245   6.470   3.147  0.1168 -1.1321 -0.1583
  893MOL0     H20518   8.046   6.597   3.148  0.9833  0.6313  0.8424
  893MOL0     H20519   7.727   6.727   2.881  0.3101 -1.4419  2.4562
  893MOL0     H20520   7.849   6.689   2.748  1.6811 -0.7641  0.0657
  893MOL0     H20521   7.821   6.443   2.857  0.9755  0.1027  3.8751
  893MOL0     H20522   7.682   6.505   2.934  0.0638 -1.5778 -0.1834
  893MOL0     H20523   7.576   6.411   2.741 -1.5052 -0.6082 -2.8923
  893MOL0     H20524   7.576   6.577   2.702  3.6654  2.0937 -0.3117
  893MOL0     H20525   7.796   6.380   2.606 -1.2461 -0.2015  1.4652
  893MOL0     H20526   7.764   6.543   2.535  3.2536 -1.3497 -1.4754
  893MOL0     H20527   7.546   6.461   2.455 -0.1637 -0.8378  0.6268
  893MOL0     H20528   7.566   6.305   2.525 -3.6977  2.0345  0.8337
  893MOL0     H20529   7.732   6.443   2.303 -0.9807 -0.4098 -1.8656
  893MOL0     H20530   7.773   6.287   2.371  0.9233  1.2779 -1.3442
  893MOL0     H20531   7.499   6.307   2.268 -0.7528 -3.5170  3.8201
  893MOL0     H20532   7.613   6.178   2.290 -0.9471 -0.4314 -2.3818
  893MOL0     H20533   7.740   6.329   2.099  0.2711  0.0551  2.2092
  893MOL0     H20534   7.617   6.220   2.040  1.8783  2.5205 -2.1233
  893MOL0     H20535   8.032   6.575   2.712  1.5438  0.0133 -0.2690
  893MOL0     H20536   8.232   6.435   2.721  2.5563 -0.9392  1.0375
  893MOL0     H20537   8.734   6.398   3.002 -0.2066  1.2089  2.3700
  893MOL0     H20538   8.895   6.213   3.031 -0.4964  3.0532 -4.1472
  893MOL0     H20539  10.282   5.070   3.562  1.2813 -1.2792 -0.9468
  893MOL0     H20540  10.529   5.028   3.550  0.5408  0.2244 -1.4508
  893MOL0     H20541  10.893   4.980   3.448  0.4129 -0.0440 -1.0816
  893MOL0     H20542  11.071   4.828   3.531  2.3029  0.2171  0.6710
  893MOL0     H20543  11.183   4.842   3.949  1.7129  0.5183  1.8447
  893MOL0     H20544  11.333   4.889   3.882 -0.6534  0.2956  2.1710
  893MOL0     H20545  11.348   4.685   3.998 -0.0898  1.1413  0.1009
  893MOL0     H20546  11.387   4.656   3.825 -0.2177  0.2495  0.1611
  893MOL0     H20547  11.157   4.558   3.789  4.1554  0.8824 -1.1334
  893MOL0     H20548  11.112   4.620   3.949 -0.9817  0.7460 -0.7100
  893MOL0     H20549  11.309   4.463   4.039 -0.6260 -1.1290  0.4440
  893MOL0     H20550  11.164   4.398   3.995  0.1680  0.2448  1.6979
  893MOL0     H20551  11.429   4.193   3.750 -0.9415 -0.3966 -0.4348
  893MOL0     H20552  11.134   5.061   3.871 -1.4052  1.5794 -0.8156
  893MOL0     H20553  10.923   5.340   3.788 -2.1999 -0.0731  2.5710
  893MOL0     H20554  10.895   5.251   3.936  0.3988 -0.2629  1.4455
  893MOL0     H20555  11.060   5.282   3.881  0.2250 -0.1007 -2.2173
  894MOL0     O20556   9.160   2.379   3.516  0.1442  0.8202  0.2950
  894MOL0     C20557   9.054   2.369   3.581  0.4320  1.0480  0.1129
  894MOL0     O20558   8.970   2.475   3.598 -0.2215 -0.3149 -0.6894
  894MOL0     C20559   9.013   2.602   3.553 -0.0282 -0.0346 -0.0034
  894MOL0     C20560   8.994   2.635   3.417  0.3287  0.4957 -1.0900
  894MOL0     C20561   9.062   2.757   3.374  0.4835  0.5278 -0.6510
  894MOL0     C20562   9.125   2.850   3.468  0.7142  0.6736 -0.5246
  894MOL0     O20563   9.182   2.967   3.427 -0.3373  0.0942 -0.3965
  894MOL0     C20564   9.257   2.949   3.309 -0.1628 -1.2203  1.1796
  894MOL0     C20565   9.330   3.075   3.266 -0.4855  0.5159 -0.6794
  894MOL0     C20566   9.240   3.206   3.279 -1.3720  0.1520  0.6455
  894MOL0     C20567   9.300   3.333   3.211  0.3516 -0.0812 -0.2476
  894MOL0     C20568   9.428   3.398   3.285  0.4665 -0.0199  0.3461
  894MOL0     C20569   9.483   3.506   3.186  0.5845  0.3766 -0.4618
  894MOL0     C20570   9.595   3.599   3.255 -0.8921 -0.7610 -0.9308
  894MOL0     C20571   9.539   3.705   3.336  0.3016 -0.7729 -0.9321
  894MOL0     N20572   9.509   3.828   3.257 -0.3735  0.5256  0.2089
  894MOL0     C20573   9.597   3.930   3.229 -0.0801  0.3727 -0.4901
  894MOL0     C20574   9.523   4.017   3.159 -0.4938  0.3666 -0.1396
  894MOL0     C20575   9.553   4.150   3.086  0.7502  0.3144 -0.7999
  894MOL0     C20576   9.619   4.235   3.189 -0.2496 -0.3162  0.0444
  894MOL0     C20577   9.630   4.380   3.146  0.9138 -0.0080 -0.2028
  894MOL0     C20578   9.750   4.406   3.061  0.1790  0.2291  0.4099
  894MOL0     O20579   9.869   4.393   3.139 -0.7827  0.2373  0.0321
  894MOL0     C20580   9.987   4.449   3.092  0.7042  0.6730 -0.6413
  894MOL0     C20581  10.003   4.489   2.958 -0.5468  0.3188 -0.2677
  894MOL0     C20582  10.113   4.561   2.917  0.0218  0.3908 -0.2469
  894MOL0     C20583  10.211   4.588   3.006 -0.3182 -0.0732  1.1119
  894MOL0     C20584  10.342   4.647   2.960 -0.6879 -0.3828 -0.1513
  894MOL0     O20585  10.371   4.654   2.827 -0.2936  0.0977  0.1459
  894MOL0     C20586  10.504   4.690   2.795  0.7615 -0.2487 -1.1730
  894MOL0     C20587  10.565   4.601   2.705 -0.0892 -1.6116 -0.2531
  894MOL0     C20588  10.699   4.633   2.665 -0.1216  0.9627  0.1533
  894MOL0     C20589  10.777   4.732   2.732  0.2774 -0.9440  0.2596
  894MOL0     O20590  10.907   4.764   2.698 -1.2924 -0.0046  0.7142
  894MOL0     C20591  11.008   4.743   2.801 -0.8789  0.2317  0.0180
  894MOL0     C20592  11.052   4.598   2.789 -0.7659  1.2152  0.2567
  894MOL0     C20593  11.204   4.596   2.800  0.4495 -0.0120  0.2778
  894MOL0     C20594  11.284   4.467   2.797  0.5716  0.1821  0.0970
  894MOL0     C20595  11.429   4.482   2.850  0.2089  0.4597  0.2008
  894MOL0     C20596  11.504   4.358   2.841 -0.2982  0.0253  0.8217
  894MOL0     C20597  11.574   4.352   2.700 -0.8720 -0.1204  0.3893
  894MOL0     C20598  11.672   4.239   2.687 -0.9203  1.1000 -0.1522
  894MOL0    Cl20599  11.594   4.084   2.724 -0.2437  0.2514 -0.1034
  894MOL0     C20600  10.710   4.827   2.817 -0.3459  0.3776  0.0077
  894MOL0     C20601  10.578   4.805   2.846 -0.2008  0.1078 -0.4168
  894MOL0     O20602  10.417   4.675   3.059 -0.5350 -0.7268  0.2454
  894MOL0     C20603  10.196   4.558   3.137 -0.5627  0.5180 -1.1471
  894MOL0     C20604  10.084   4.490   3.184 -0.1513 -1.1215  0.3843
  894MOL0     N20605   9.402   3.956   3.136  0.3669 -0.0568  0.5282
  894MOL0     N20606   9.389   3.847   3.192 -0.2967 -0.4183 -0.0705
  894MOL0     C20607   9.129   2.812   3.600 -0.5692  0.4651  0.2558
  894MOL0     C20608   9.075   2.691   3.641  0.4292  0.0186  0.7294
  894MOL0     C20609   9.030   2.242   3.671  0.0756 -0.1605  0.4037
  894MOL0     C20610   8.938   2.252   3.780 -0.0395 -0.4050  0.3944
  894MOL0     C20611   8.904   2.136   3.853 -0.7565  0.8475  0.4391
  894MOL0     C20612   8.965   2.009   3.833 -0.1128 -0.1963  0.3939
  894MOL0     O20613   8.921   1.893   3.892 -0.7970 -0.0663  0.2659
  894MOL0     C20614   8.854   1.921   4.023 -0.6500 -0.5081  0.5695
  894MOL0     C20615   8.877   1.805   4.118  0.4389 -0.0127 -0.1549
  894MOL0     C20616   8.789   1.821   4.240 -0.3500 -0.0377 -0.2309
  894MOL0     C20617   8.843   1.927   4.333 -0.2495  0.7317  0.6136
  894MOL0     C20618   8.774   1.931   4.464  0.0144  1.0548  0.3876
  894MOL0     C20619   8.719   1.954   4.570 -0.3860 -0.5653  0.7844
  894MOL0     C20620   9.051   2.003   3.722 -0.1469  0.0150 -0.3907
  894MOL0     C20621   9.087   2.113   3.644  0.1738 -1.3744 -0.1056
  894MOL0     C20622   9.182   2.082   3.536 -0.5682 -0.4540 -0.3529
  894MOL0     H20623   8.963   2.561   3.345 -3.2990  2.2289 -1.5156
  894MOL0     H20624   9.072   2.767   3.267  1.4611  1.7244 -0.4728
  894MOL0     H20625   9.324   2.862   3.312 -1.5009 -2.3335  0.3027
  894MOL0     H20626   9.190   2.939   3.222  1.5929  0.0239 -0.4027
  894MOL0     H20627   9.360   3.046   3.165 -0.8550  0.6881 -0.8391
  894MOL0     H20628   9.419   3.087   3.328 -0.5674 -2.9062  0.3297
  894MOL0     H20629   9.229   3.216   3.387  1.1312 -1.7355  1.1756
  894MOL0     H20630   9.142   3.189   3.232  0.3657 -2.2768 -2.5958
  894MOL0     H20631   9.330   3.312   3.108  1.5154  1.0953 -0.1746
  894MOL0     H20632   9.222   3.410   3.202  1.3528  0.8801 -0.8531
  894MOL0     H20633   9.394   3.432   3.383  3.2255  4.3172  0.0916
  894MOL0     H20634   9.508   3.325   3.294 -0.4614 -1.2453 -0.9019
  894MOL0     H20635   9.534   3.443   3.112  1.3247 -0.9486  1.0996
  894MOL0     H20636   9.400   3.562   3.142 -1.6078 -0.8876  1.7845
  894MOL0     H20637   9.656   3.647   3.178 -0.9614  1.1133  0.1347
  894MOL0     H20638   9.649   3.523   3.312 -2.1869 -1.7860 -1.0190
  894MOL0     H20639   9.449   3.671   3.387 -0.9410  3.3189 -0.0224
  894MOL0     H20640   9.599   3.743   3.420 -3.4144  3.2352  0.2788
  894MOL0     H20641   9.700   3.933   3.261 -0.3134 -0.4740  0.3803
  894MOL0     H20642   9.606   4.145   2.990 -1.3799 -0.4805 -2.0176
  894MOL0     H20643   9.456   4.197   3.066  0.0332 -0.3817  0.8939
  894MOL0     H20644   9.570   4.228   3.287  1.6021 -1.0227  0.9738
  894MOL0     H20645   9.720   4.196   3.208  0.3767  0.7808 -0.8615
  894MOL0     H20646   9.638   4.455   3.225 -1.7896 -0.5363  0.6783
  894MOL0     H20647   9.535   4.403   3.097 -0.5754 -2.4794  1.2767
  894MOL0     H20648   9.752   4.512   3.035 -0.2564  0.9195  2.9032
  894MOL0     H20649   9.749   4.339   2.975  0.6708  0.9637 -0.1899
  894MOL0     H20650   9.932   4.461   2.882  0.5341  1.7935 -1.8871
  894MOL0     H20651  10.135   4.582   2.813 -1.2445 -1.8042 -1.0024
  894MOL0     H20652  10.522   4.519   2.649 -1.9461 -1.5688  1.0235
  894MOL0     H20653  10.758   4.583   2.589  2.5210  2.2849  1.1945
  894MOL0     H20654  11.090   4.814   2.784  1.2883 -2.3935 -1.1960
  894MOL0     H20655  10.977   4.748   2.906  1.0460  0.7567  0.6048
  894MOL0     H20656  11.009   4.531   2.865  0.3501  1.6848  1.3282
  894MOL0     H20657  11.026   4.557   2.691 -1.1398 -1.7238  1.4543
  894MOL0     H20658  11.253   4.652   2.719 -1.3694  1.6402  0.2408
  894MOL0     H20659  11.234   4.650   2.890  2.9224  1.2058 -1.1913
  894MOL0     H20660  11.288   4.436   2.692  0.8348  2.2987 -0.5743
  894MOL0     H20661  11.229   4.400   2.863 -0.4781  1.1626  0.2572
  894MOL0     H20662  11.421   4.510   2.955 -0.8414  0.0596  0.2359
  894MOL0     H20663  11.473   4.565   2.794 -1.0691  0.1775 -1.2849
  894MOL0     H20664  11.580   4.353   2.920  0.4073  2.7667  0.4128
  894MOL0     H20665  11.435   4.274   2.852 -1.8353  0.9710 -1.0731
  894MOL0     H20666  11.637   4.440   2.685 -0.8273  0.0616  1.5308
  894MOL0     H20667  11.495   4.348   2.624 -1.6640 -1.4069  1.2469
  894MOL0     H20668  11.701   4.247   2.582 -1.8686  1.5667 -0.3946
  894MOL0     H20669  11.757   4.246   2.754  0.4130 -2.5483 -1.2195
  894MOL0     H20670  10.768   4.902   2.869 -0.7505 -0.4543  1.7443
  894MOL0     H20671  10.536   4.867   2.925  1.2210  0.9871 -0.3182
  894MOL0     H20672  10.267   4.576   3.217 -0.2438 -3.7660 -0.2216
  894MOL0     H20673  10.070   4.479   3.291  0.4058  4.0451  1.2507
  894MOL0     H20674   9.185   2.869   3.673 -3.3711 -0.2706  3.2322
  894MOL0     H20675   9.086   2.659   3.744  0.6221 -2.6266 -0.0156
  894MOL0     H20676   8.896   2.349   3.805  2.3804  1.7772 -3.1732
  894MOL0     H20677   8.824   2.154   3.925 -1.7517  0.4835 -0.5511
  894MOL0     H20678   8.749   1.922   3.994 -0.4156  1.1217 -0.3678
  894MOL0     H20679   8.882   2.014   4.073 -3.1093 -0.4303  1.9520
  894MOL0     H20680   8.984   1.806   4.143  0.1915  2.4903  1.0488
  894MOL0     H20681   8.857   1.711   4.066 -0.8392  0.8512 -1.2783
  894MOL0     H20682   8.803   1.726   4.293  2.0362 -1.7002 -3.4367
  894MOL0     H20683   8.684   1.845   4.221  0.4684  4.5246 -0.0092
  894MOL0     H20684   8.947   1.905   4.356 -0.4544  0.2575  1.1015
  894MOL0     H20685   8.830   2.022   4.280 -1.1820  1.6146  2.3266
  894MOL0     H20686   8.668   1.987   4.658 -2.1961  1.9916 -1.0627
  894MOL0     H20687   9.095   1.905   3.705  0.9282 -0.1137  2.5760
  894MOL0     H20688   9.211   1.978   3.552 -0.9688 -0.7989 -1.7053
  894MOL0     H20689   9.138   2.088   3.436  0.0442  2.4253 -0.5413
  894MOL0     H20690   9.281   2.127   3.543  1.6046 -4.6885 -0.9764
  895MOL0     O20691   9.211   9.614   2.891 -0.1195  0.2244  0.4087
  895MOL0     C20692   9.307   9.596   2.819 -0.8127  0.8535 -1.0485
  895MOL0     O20693   9.337   9.650   2.699 -0.0318  0.1006  0.3969
  895MOL0     C20694   9.249   9.722   2.626  0.8259 -0.5638  0.4639
  895MOL0     C20695   9.265   9.726   2.489 -0.9459 -0.2104  0.5012
  895MOL0     C20696   9.175   9.783   2.395 -0.0880 -0.2158 -0.6569
  895MOL0     C20697   9.068   9.849   2.450  1.0191  0.0252  0.1164
  895MOL0     O20698   8.972   9.913   2.373 -0.2354 -0.0773  0.1800
  895MOL0     C20699   8.986   9.928   2.231 -1.0881 -0.2817 -0.1937
  895MOL0     C20700   8.862   9.984   2.175 -0.1907 -1.0415 -0.2332
  895MOL0     C20701   8.804  10.103   2.256  0.2759 -0.3792 -0.2164
  895MOL0     C20702   8.692  10.181   2.191 -0.1633 -0.0388  0.0018
  895MOL0     C20703   8.634  10.309   2.252 -0.3370  0.5626  0.2508
  895MOL0     C20704   8.527  10.366   2.154 -0.1481 -1.5662 -0.4126
  895MOL0     C20705   8.472  10.509   2.198  0.1945 -0.8263 -0.1948
  895MOL0     C20706   8.383  10.577   2.091  0.7764 -0.0955  0.3518
  895MOL0     N20707   8.254  10.520   2.095  0.0879  0.8646 -0.3244
  895MOL0     C20708   8.149  10.545   2.189 -1.0189  1.0467  0.4167
  895MOL0     C20709   8.050  10.456   2.163 -0.4729  0.0158  0.5893
  895MOL0     C20710   7.922  10.447   2.246  0.7835 -1.0802  0.0831
  895MOL0     C20711   7.797  10.507   2.172  0.0280 -0.2378 -0.1983
  895MOL0     C20712   7.667  10.486   2.253 -0.7411 -0.4696  0.0678
  895MOL0     C20713   7.548  10.543   2.177 -1.0737 -0.4757 -0.2351
  895MOL0     O20714   7.445  10.558   2.269  0.0256 -0.1073 -0.5025
  895MOL0     C20715   7.382  10.457   2.332 -1.6511  0.0733 -1.0098
  895MOL0     C20716   7.324  10.483   2.455  0.8547 -0.0152 -0.7271
  895MOL0     C20717   7.264  10.384   2.530  1.1096  0.1421  1.2899
  895MOL0     C20718   7.280  10.245   2.488 -0.3641  0.1248  0.0416
  895MOL0     C20719   7.215  10.133   2.566  1.0055  0.9365 -0.4656
  895MOL0     O20720   7.125  10.184   2.651 -0.5102 -0.1043  0.2046
  895MOL0     C20721   7.034  10.085   2.692 -1.0282 -0.6447 -0.7716
  895MOL0     C20722   7.000  10.082   2.828  0.4981  1.6292  0.0082
  895MOL0     C20723   6.903   9.995   2.877 -0.0185 -0.5899 -0.0938
  895MOL0     C20724   6.829   9.917   2.787  0.0930 -0.0837 -0.2995
  895MOL0     O20725   6.731   9.850   2.851  0.3380  0.2625 -0.5076
  895MOL0     C20726   6.602   9.912   2.833 -0.5533 -0.3757  0.5235
  895MOL0     C20727   6.493   9.848   2.927  0.1718 -0.6305 -0.1851
  895MOL0     C20728   6.356   9.843   2.863 -0.2649 -0.1641  0.0060
  895MOL0     C20729   6.325   9.970   2.786 -0.3075 -0.7444  0.4155
  895MOL0     C20730   6.165   9.993   2.780 -0.8180 -0.8500  0.4253
  895MOL0     C20731   6.123  10.110   2.688  0.3260  0.3148  0.2567
  895MOL0     C20732   5.973  10.100   2.648  0.6301 -0.4374  0.2545
  895MOL0     C20733   5.895  10.121   2.774  0.1655 -0.4140 -0.0480
  895MOL0    Cl20734   5.727  10.180   2.726 -0.0735  0.2148  0.0235
  895MOL0     C20735   6.857   9.917   2.652  0.6302  0.1719 -0.3068
  895MOL0     C20736   6.957   9.997   2.603 -0.2562 -0.7861 -0.7109
  895MOL0     O20737   7.234  10.014   2.548  0.6989  0.0121  0.7387
  895MOL0     C20738   7.349  10.225   2.362 -0.8045  0.3062 -0.1156
  895MOL0     C20739   7.402  10.329   2.286  0.3019  0.0783  0.2429
  895MOL0     N20740   8.103  10.370   2.067  0.3920  0.4172  0.4947
  895MOL0     N20741   8.219  10.408   2.021 -0.1524 -0.0165 -0.0661
  895MOL0     C20742   9.050   9.848   2.585 -0.0560  0.0971  0.4986
  895MOL0     C20743   9.134   9.788   2.675  0.7773  0.2968 -0.2896
  895MOL0     C20744   9.415   9.507   2.870  0.1417 -0.1918  0.3408
  895MOL0     C20745   9.473   9.430   2.775  0.2381  0.8498  0.1383
  895MOL0     C20746   9.569   9.332   2.803  0.3332 -0.0230 -0.6811
  895MOL0     C20747   9.602   9.317   2.942 -0.3099 -0.5383  0.1113
  895MOL0     O20748   9.691   9.216   2.956 -0.7126 -0.2029 -0.5946
  895MOL0     C20749   9.697   9.147   3.084 -0.1965 -0.9495  0.3082
  895MOL0     C20750   9.828   9.066   3.083 -0.3435 -0.3811 -0.3084
  895MOL0     C20751   9.857   9.002   2.954  0.0964 -0.8929  1.0320
  895MOL0     C20752   9.947   8.875   2.959 -0.5017 -0.6642  0.3895
  895MOL0     C20753   9.862   8.757   2.932  0.6277 -0.2842  0.3050
  895MOL0     C20754   9.786   8.667   2.899 -1.2070 -0.3914  0.6107
  895MOL0     C20755   9.550   9.400   3.039  0.7215  0.0985  0.0490
  895MOL0     C20756   9.456   9.505   3.007  0.3560  0.0593  1.1492
  895MOL0     C20757   9.401   9.593   3.120 -0.7961 -0.9726  0.7374
  895MOL0     H20758   9.352   9.675   2.447 -0.2127  1.4587 -0.0950
  895MOL0     H20759   9.195   9.798   2.289  1.1668  2.9991 -0.0722
  895MOL0     H20760   9.068   9.996   2.209 -1.4349 -0.2831 -1.5561
  895MOL0     H20761   9.006   9.830   2.186  2.8108  0.3519 -0.2214
  895MOL0     H20762   8.778   9.916   2.162 -1.3422  0.2170  0.3977
  895MOL0     H20763   8.882  10.027   2.077 -0.5702 -1.2509 -0.4022
  895MOL0     H20764   8.889  10.171   2.269 -0.6719  0.6032  1.0449
  895MOL0     H20765   8.764  10.060   2.348  0.5980  0.6854  0.4391
  895MOL0     H20766   8.728  10.206   2.090  1.7368  1.1127  0.9196
  895MOL0     H20767   8.608  10.112   2.200 -0.4714  0.6461  4.4502
  895MOL0     H20768   8.593  10.298   2.353  0.4840  1.4785  0.7038
  895MOL0     H20769   8.717  10.380   2.255 -0.2386  0.4938 -0.6900
  895MOL0     H20770   8.575  10.379   2.057  0.3265 -1.9040 -0.2298
  895MOL0     H20771   8.439  10.301   2.148 -2.4082  1.3494 -1.0671
  895MOL0     H20772   8.558  10.576   2.195 -1.3137  1.2049 -0.5908
  895MOL0     H20773   8.439  10.511   2.302  0.0328  0.5468 -0.2591
  895MOL0     H20774   8.383  10.684   2.114  0.3386 -0.0059 -0.0465
  895MOL0     H20775   8.411  10.573   1.985  0.1866 -2.8024  0.2239
  895MOL0     H20776   8.164  10.601   2.281  4.2033  2.6528 -1.0777
  895MOL0     H20777   7.895  10.348   2.283 -3.0123  0.5708  2.3218
  895MOL0     H20778   7.934  10.501   2.340  0.0292 -1.5812  0.4806
  895MOL0     H20779   7.812  10.613   2.149 -1.4120 -0.0886 -0.5269
  895MOL0     H20780   7.790  10.446   2.081  0.1248  0.6182 -0.7932
  895MOL0     H20781   7.671  10.545   2.345 -0.6002  0.5813 -0.5943
  895MOL0     H20782   7.654  10.381   2.283  2.0281 -0.2489  2.4563
  895MOL0     H20783   7.519  10.479   2.093 -1.3334  0.6873 -1.0689
  895MOL0     H20784   7.571  10.633   2.119  1.6192  0.3211  1.8743
  895MOL0     H20785   7.319  10.588   2.482 -0.5358  0.0977 -1.3109
  895MOL0     H20786   7.205  10.415   2.616  2.0474 -0.9697  2.3711
  895MOL0     H20787   7.057  10.136   2.903  1.8700 -2.7736  2.4715
  895MOL0     H20788   6.871   9.994   2.981  1.0689 -1.7475  0.2651
  895MOL0     H20789   6.616  10.018   2.857 -0.4756 -0.3757  0.4784
  895MOL0     H20790   6.572   9.890   2.730  0.5495 -2.5332  0.6075
  895MOL0     H20791   6.504   9.744   2.960  0.9285  0.0915  2.0123
  895MOL0     H20792   6.488   9.894   3.026 -1.6280  0.4652 -0.7429
  895MOL0     H20793   6.346   9.770   2.783  2.4082  3.8551 -4.5299
  895MOL0     H20794   6.279   9.824   2.939 -1.0016 -1.5281 -1.0406
  895MOL0     H20795   6.367   9.962   2.685 -0.2690  1.9364  0.1696
  895MOL0     H20796   6.366  10.058   2.836 -2.4726  2.0008 -2.2841
  895MOL0     H20797   6.135  10.005   2.884 -0.9670 -2.8317  0.6542
  895MOL0     H20798   6.118   9.902   2.741 -2.1876  0.3304 -0.7746
  895MOL0     H20799   6.156  10.204   2.734 -0.5756  0.3854  0.7970
  895MOL0     H20800   6.172  10.091   2.593 -1.6179  0.0232 -0.7474
  895MOL0     H20801   5.948  10.007   2.596 -0.5649 -0.3990  0.7306
  895MOL0     H20802   5.946  10.180   2.579  0.6192 -2.2555 -1.9595
  895MOL0     H20803   5.885  10.033   2.839  0.8831  0.1630  0.8695
  895MOL0     H20804   5.936  10.191   2.847 -0.2667 -0.1383 -0.0669
  895MOL0     H20805   6.806   9.843   2.592 -0.7110  1.7126 -1.1280
  895MOL0     H20806   6.971  10.004   2.495  2.0222 -0.2146 -0.4213
  895MOL0     H20807   7.359  10.124   2.325 -1.5195 -0.2658  1.2047
  895MOL0     H20808   7.445  10.298   2.191  0.7385 -0.0644  0.4838
  895MOL0     H20809   8.960   9.900   2.617 -0.6049  1.0614 -2.3737
  895MOL0     H20810   9.106   9.795   2.780 -0.2131 -0.8265 -0.4482
  895MOL0     H20811   9.453   9.433   2.669 -0.1910 -0.0270  0.1824
  895MOL0     H20812   9.626   9.277   2.729 -0.4377 -2.0843  0.1664
  895MOL0     H20813   9.606   9.086   3.090 -0.5242 -0.8479 -2.2763
  895MOL0     H20814   9.696   9.214   3.170  0.1950  1.5829 -1.5403
  895MOL0     H20815   9.813   8.985   3.154 -0.7311 -1.0660 -1.1501
  895MOL0     H20816   9.908   9.130   3.121 -2.4910  0.1782  3.8423
  895MOL0     H20817   9.907   9.074   2.889  3.0494 -4.4072 -0.9763
  895MOL0     H20818   9.761   8.972   2.910 -0.4345 -0.7735  2.0786
  895MOL0     H20819  10.022   8.884   2.880  0.6960 -0.6248  1.5064
  895MOL0     H20820   9.996   8.871   3.056  1.1584  0.9531 -0.3217
  895MOL0     H20821   9.733   8.584   2.857  1.3002 -2.4025  1.1799
  895MOL0     H20822   9.579   9.395   3.143 -3.4426  0.2560  1.4294
  895MOL0     H20823   9.342   9.537   3.193 -0.8458 -2.1246 -0.1468
  895MOL0     H20824   9.483   9.641   3.174  0.3799  1.6507 -2.9741
  895MOL0     H20825   9.334   9.668   3.079  0.4882  0.3220  0.9358
  896MOL0     O20826   7.356   6.355   8.586  0.3062 -0.4614 -0.3307
  896MOL0     C20827   7.480   6.347   8.597  0.9937 -0.1293 -0.2408
  896MOL0     O20828   7.559   6.405   8.700 -0.2323 -0.0203 -0.0633
  896MOL0     C20829   7.497   6.497   8.776  0.4645 -1.0817 -0.8026
  896MOL0     C20830   7.544   6.631   8.779  1.3679  0.2017 -0.2750
  896MOL0     C20831   7.496   6.717   8.880  0.2350  0.7726  0.5047
  896MOL0     C20832   7.401   6.671   8.971 -1.3628 -0.2935  0.1025
  896MOL0     O20833   7.367   6.733   9.083 -0.1946  0.7964 -0.2410
  896MOL0     C20834   7.456   6.847   9.126  0.0653 -1.0102 -0.8446
  896MOL0     C20835   7.375   6.910   9.245  0.1310  0.8980 -0.3808
  896MOL0     C20836   7.381   6.818   9.362  0.0774 -0.3535 -0.6052
  896MOL0     C20837   7.300   6.857   9.483  0.0839  0.0042 -0.2708
  896MOL0     C20838   7.305   6.750   9.597 -0.5795  0.2057  0.3582
  896MOL0     C20839   7.451   6.701   9.621  0.9436  0.3238  0.3588
  896MOL0     C20840   7.459   6.600   9.742  0.3894  0.2307  0.5710
  896MOL0     C20841   7.421   6.678   9.872  0.3391 -0.3577 -0.0293
  896MOL0     N20842   7.446   6.603   9.995  0.4665 -0.1861  0.2219
  896MOL0     C20843   7.338   6.544  10.062 -0.5105 -0.5280  0.4090
  896MOL0     C20844   7.372   6.534  10.191  0.3833 -0.3990 -0.3946
  896MOL0     C20845   7.274   6.493  10.299 -0.4392  0.2410  0.1347
  896MOL0     C20846   7.321   6.537  10.441 -0.6847 -0.0542 -0.2154
  896MOL0     C20847   7.213   6.543  10.543  0.4923  0.6068  0.2295
  896MOL0     C20848   7.129   6.674  10.523  0.0216  0.0053  0.7547
  896MOL0     O20849   7.208   6.779  10.535  0.2605  1.3084  0.3926
  896MOL0     C20850   7.168   6.857  10.638  0.2441 -0.3751  0.4559
  896MOL0     C20851   7.053   6.947  10.633 -0.2316 -0.8793 -0.2185
  896MOL0     C20852   7.032   7.055  10.735  0.3013 -0.4804  0.3276
  896MOL0     C20853   7.131   7.072  10.835 -0.0384  0.0941 -0.1786
  896MOL0     C20854   7.122   7.174  10.940 -1.5018  0.1964  0.0194
  896MOL0     O20855   7.000   7.233  10.956  0.2066 -0.0469 -0.2649
  896MOL0     C20856   6.977   7.324  11.055  0.2484  0.7970 -0.5286
  896MOL0     C20857   7.025   7.298  11.180  0.1906 -0.2677 -0.9291
  896MOL0     C20858   6.998   7.392  11.290 -0.0044  0.2677 -0.5389
  896MOL0     C20859   6.946   7.524  11.259 -0.2244 -0.5946 -0.7354
  896MOL0     O20860   6.920   7.616  11.355 -0.1870 -0.3004  0.0733
  896MOL0     C20861   6.973   7.745  11.336  0.3240 -0.0576  0.4951
  896MOL0     C20862   6.972   7.804  11.482 -0.2510 -0.5683 -0.8983
  896MOL0     C20863   7.048   7.938  11.482 -0.4346  0.6254  0.1509
  896MOL0     C20864   7.199   7.920  11.527  0.2931 -0.9946  0.2255
  896MOL0     C20865   7.262   8.065  11.554  0.3226  0.2486  0.2650
  896MOL0     C20866   7.408   8.057  11.600 -0.2917 -0.1243 -0.0689
  896MOL0     C20867   7.503   7.999  11.497  0.9474 -0.7495  0.2973
  896MOL0     C20868   7.659   8.016  11.514 -0.3551 -0.4146  0.0801
  896MOL0    Cl20869   7.729   7.969  11.673  0.4954  0.4674 -0.0310
  896MOL0     C20870   6.891   7.544  11.133  0.7094 -0.2937  0.8506
  896MOL0     C20871   6.907   7.440  11.030 -0.4899  0.1343 -0.1374
  896MOL0     O20872   7.228   7.204  11.000 -0.6594 -0.6439  0.6102
  896MOL0     C20873   7.256   6.998  10.822 -0.6960  0.2933 -0.6595
  896MOL0     C20874   7.262   6.891  10.735  0.3906  0.1562 -0.1537
  896MOL0     N20875   7.503   6.577  10.203 -0.8298  0.6545 -0.6011
  896MOL0     N20876   7.551   6.622  10.088 -0.2197  0.9428  0.5045
  896MOL0     C20877   7.340   6.546   8.951  0.0278 -0.1373 -0.2298
  896MOL0     C20878   7.389   6.455   8.861  0.0768 -1.2276  0.0986
  896MOL0     C20879   7.560   6.265   8.496  0.6517 -0.3410 -0.2153
  896MOL0     C20880   7.698   6.261   8.519 -0.3251 -0.8818  0.1731
  896MOL0     C20881   7.781   6.191   8.432  0.7838 -0.8473 -0.3547
  896MOL0     C20882   7.737   6.113   8.335  0.1401  0.1089 -0.9483
  896MOL0     O20883   7.827   6.038   8.272 -0.6011 -0.0050  0.0726
  896MOL0     C20884   7.824   6.057   8.131  1.3904  1.4670  0.4597
  896MOL0     C20885   7.956   6.025   8.061  0.0550  1.2842 -0.0400
  896MOL0     C20886   7.986   5.877   8.056 -0.0175 -1.4708 -1.3250
  896MOL0     C20887   8.049   5.825   7.926  0.2499  0.1601  0.6723
  896MOL0     C20888   8.183   5.884   7.923  1.0893  0.0927 -0.8104
  896MOL0     C20889   8.287   5.943   7.900  0.1359 -0.7520 -0.9767
  896MOL0     C20890   7.602   6.126   8.296 -0.8303 -0.6564 -0.1574
  896MOL0     C20891   7.512   6.189   8.382  0.8953 -0.0203 -0.2647
  896MOL0     C20892   7.365   6.181   8.346 -0.3239 -0.2845  0.3154
  896MOL0     H20893   7.613   6.659   8.700 -0.2957  2.5367 -0.9882
  896MOL0     H20894   7.552   6.810   8.879  3.2075 -0.8738  0.4747
  896MOL0     H20895   7.543   6.796   9.168  1.7456  1.0590 -1.5976
  896MOL0     H20896   7.475   6.927   9.053  1.7097 -0.6656 -0.0966
  896MOL0     H20897   7.269   6.929   9.224 -0.2146  1.8382  1.8673
  896MOL0     H20898   7.410   7.011   9.267 -1.7228  1.8542 -1.5845
  896MOL0     H20899   7.486   6.823   9.394 -0.6817  4.6619  2.2458
  896MOL0     H20900   7.342   6.719   9.340 -1.8598  0.0047  0.9571
  896MOL0     H20901   7.338   6.954   9.516 -0.0383  0.4221 -1.2951
  896MOL0     H20902   7.195   6.875   9.457  0.0953 -0.0309 -0.3420
  896MOL0     H20903   7.253   6.787   9.685 -1.8388 -0.3844 -0.1156
  896MOL0     H20904   7.254   6.657   9.569  2.5492 -0.5869 -3.7323
  896MOL0     H20905   7.495   6.652   9.533 -0.4308 -1.5698  0.6535
  896MOL0     H20906   7.522   6.783   9.635  2.0066 -0.1029 -2.0695
  896MOL0     H20907   7.562   6.565   9.759  0.0420 -0.0502  2.3227
  896MOL0     H20908   7.398   6.511   9.722 -1.2918  1.8521 -1.9021
  896MOL0     H20909   7.488   6.765   9.873 -0.7529  0.5712  2.8111
  896MOL0     H20910   7.317   6.715   9.870  0.5439  0.3643  1.3721
  896MOL0     H20911   7.242   6.507  10.027 -0.9795  1.2090 -0.2574
  896MOL0     H20912   7.178   6.542  10.280 -1.0367 -0.2394  1.7620
  896MOL0     H20913   7.269   6.385  10.284  0.7791  0.0971  0.6313
  896MOL0     H20914   7.407   6.477  10.473 -0.1878  0.1079 -1.2021
  896MOL0     H20915   7.350   6.643  10.437 -1.0728  0.1670  1.7892
  896MOL0     H20916   7.256   6.549  10.643  0.0058 -0.3770  0.5069
  896MOL0     H20917   7.138   6.465  10.539 -0.8135  1.7872  0.8563
  896MOL0     H20918   7.047   6.668  10.595 -1.0279  0.9624 -0.3285
  896MOL0     H20919   7.084   6.681  10.424  3.5028  0.9100 -0.9162
  896MOL0     H20920   6.970   6.921  10.568 -1.1022  2.2980 -0.5135
  896MOL0     H20921   6.938   7.108  10.746  2.6287  3.5926  3.8065
  896MOL0     H20922   7.074   7.204  11.202  0.0210 -0.2171 -0.3056
  896MOL0     H20923   7.033   7.370  11.391 -0.2795  4.4152  0.6632
  896MOL0     H20924   7.075   7.733  11.299 -0.7213 -1.0997 -2.2381
  896MOL0     H20925   6.902   7.794  11.269  0.4661 -0.1377  0.2853
  896MOL0     H20926   6.870   7.823  11.519  0.5515 -0.7445  1.5706
  896MOL0     H20927   7.010   7.744  11.565  2.1353  1.9922  0.0144
  896MOL0     H20928   7.040   7.990  11.386  4.7474  4.3187  1.2417
  896MOL0     H20929   7.017   8.002  11.566  2.1534  0.0830  1.6184
  896MOL0     H20930   7.257   7.868  11.449 -0.2038 -0.0622 -0.7997
  896MOL0     H20931   7.197   7.864  11.621 -0.1098 -0.1865  0.7097
  896MOL0     H20932   7.208   8.118  11.633  0.6022  0.3394  0.3975
  896MOL0     H20933   7.249   8.124  11.463 -2.9067  0.2116  0.5988
  896MOL0     H20934   7.444   8.158  11.621  0.2489 -0.5049  0.8764
  896MOL0     H20935   7.420   8.006  11.696 -0.7393  2.4962  1.4705
  896MOL0     H20936   7.471   8.032  11.397 -0.0757  0.9271  1.1285
  896MOL0     H20937   7.477   7.893  11.500  0.1753 -0.6102 -0.8844
  896MOL0     H20938   7.715   7.954  11.443  2.2040  1.3449  0.4232
  896MOL0     H20939   7.681   8.123  11.506  1.0347 -0.4822  2.2990
  896MOL0     H20940   6.838   7.636  11.113 -2.9861 -2.2529  0.5759
  896MOL0     H20941   6.885   7.457  10.925  0.9454  1.0540 -0.3316
  896MOL0     H20942   7.350   7.015  10.874 -1.4751 -0.2494  0.9833
  896MOL0     H20943   7.354   6.833  10.736 -1.2634 -2.6829 -0.0063
  896MOL0     H20944   7.256   6.510   9.009  0.6756 -0.9065  0.2584
  896MOL0     H20945   7.355   6.353   8.869  1.5381 -1.6405  1.3909
  896MOL0     H20946   7.740   6.307   8.609  1.3249 -1.5287 -0.2322
  896MOL0     H20947   7.884   6.164   8.456  0.1165 -1.1563  2.5497
  896MOL0     H20948   7.819   6.161   8.097  1.6580  1.5355  0.6219
  896MOL0     H20949   7.750   5.993   8.083 -1.5021  5.3207 -0.6420
  896MOL0     H20950   8.036   6.076   8.116 -0.9328  0.4622  2.2864
  896MOL0     H20951   7.941   6.049   7.956 -1.7598 -2.4842 -0.8217
  896MOL0     H20952   7.897   5.819   8.082 -1.1421 -1.4693 -4.6654
  896MOL0     H20953   8.043   5.850   8.145  0.3985 -0.8645 -1.4019
  896MOL0     H20954   8.063   5.717   7.918  1.3562  0.4219 -1.7978
  896MOL0     H20955   7.985   5.853   7.842 -0.5929 -0.6664  1.0205
  896MOL0     H20956   8.380   5.994   7.881 -0.4431  0.6549 -0.1596
  896MOL0     H20957   7.576   6.066   8.210  1.8815  0.8530 -2.1822
  896MOL0     H20958   7.320   6.126   8.429  2.6191 -0.9881  1.5809
  896MOL0     H20959   7.334   6.286   8.346  0.7334  0.0752  2.4668
  896MOL0     H20960   7.352   6.125   8.253 -0.1107 -0.1556  0.2070
  897MOL0     O20961   0.730   0.376   9.028 -0.0905 -0.0541  0.7248
  897MOL0     C20962   0.713   0.391   9.145 -0.4147  0.0827  0.5542
  897MOL0     O20963   0.699   0.280   9.239 -0.3018 -0.4434 -0.1698
  897MOL0     C20964   0.701   0.145   9.198 -0.7651 -0.4552 -0.9527
  897MOL0     C20965   0.783   0.061   9.270  0.3473 -0.5298 -0.4000
  897MOL0     C20966   0.806  -0.073   9.221  0.2624 -0.4844 -0.3240
  897MOL0     C20967   0.733  -0.109   9.109  0.9160  0.4872  0.0286
  897MOL0     O20968   0.733  -0.240   9.071 -0.2295 -0.2582 -0.6848
  897MOL0     C20969   0.856  -0.303   9.055 -0.5003 -1.4647  0.1394
  897MOL0     C20970   0.837  -0.444   8.995 -0.1352  0.3013 -0.0119
  897MOL0     C20971   0.774  -0.433   8.859 -0.5994  0.4451  0.3238
  897MOL0     C20972   0.871  -0.441   8.744  0.4279 -1.0933  0.1660
  897MOL0     C20973   0.796  -0.436   8.610  0.1187  0.6135  0.4305
  897MOL0     C20974   0.897  -0.413   8.505 -0.3806 -0.5773 -0.2447
  897MOL0     C20975   0.823  -0.403   8.366 -0.3675 -0.6299  0.4472
  897MOL0     C20976   0.901  -0.451   8.250 -0.5772  0.4313  0.5113
  897MOL0     N20977   1.032  -0.396   8.252  0.1511 -0.1682  0.1177
  897MOL0     C20978   1.067  -0.267   8.241 -0.1356  0.4699 -0.2756
  897MOL0     C20979   1.193  -0.257   8.283 -0.0665  0.1279 -0.7253
  897MOL0     C20980   1.281  -0.138   8.272 -0.4213 -0.2669  0.5680
  897MOL0     C20981   1.288  -0.055   8.399 -0.2984  0.4185 -0.2341
  897MOL0     C20982   1.423   0.004   8.409 -0.2374  0.2115 -0.2315
  897MOL0     C20983   1.448   0.094   8.539 -0.1644  1.1340  0.0590
  897MOL0     O20984   1.462   0.228   8.494  0.2705 -0.6248 -0.5156
  897MOL0     C20985   1.519   0.323   8.581  0.4791  0.3891  0.5131
  897MOL0     C20986   1.525   0.303   8.722 -0.4060  0.3807  0.0864
  897MOL0     C20987   1.576   0.395   8.812 -0.5452 -0.1024  0.9281
  897MOL0     C20988   1.630   0.508   8.764 -0.2276 -0.1019  1.3411
  897MOL0     C20989   1.707   0.591   8.855  0.8474 -0.1878  0.7187
  897MOL0     O20990   1.792   0.672   8.801 -0.6868  1.3089  0.5271
  897MOL0     C20991   1.895   0.728   8.868 -0.0017  0.0306  0.0029
  897MOL0     C20992   2.029   0.672   8.858 -0.3614  0.4598  0.4191
  897MOL0     C20993   2.143   0.729   8.915 -1.5299  0.9225  0.2508
  897MOL0     C20994   2.128   0.830   9.014  0.0098 -1.4094 -0.0541
  897MOL0     O20995   2.226   0.902   9.091 -0.0047  0.8970  0.1556
  897MOL0     C20996   2.365   0.876   9.088  0.0534  0.8866  0.6324
  897MOL0     C20997   2.452   1.003   9.125  1.0943 -0.1855  0.3253
  897MOL0     C20998   2.428   1.119   9.035 -0.4647 -0.1282  0.5307
  897MOL0     C20999   2.466   1.263   9.080 -0.5425  0.1594 -0.0023
  897MOL0     C21000   2.616   1.293   9.105  0.5084 -0.5450 -0.0704
  897MOL0     C21001   2.641   1.444   9.111 -0.0911 -0.1368 -0.5245
  897MOL0     C21002   2.784   1.479   9.160  0.3129  0.4343 -0.6395
  897MOL0     C21003   2.890   1.439   9.065  0.1441 -0.1811 -0.3197
  897MOL0    Cl21004   2.880   1.554   8.927 -0.7621  0.5539  0.5855
  897MOL0     C21005   2.001   0.872   9.037 -0.0945  0.4602 -0.7943
  897MOL0     C21006   1.882   0.835   8.958  0.3470  1.1235 -0.1074
  897MOL0     O21007   1.692   0.566   8.972  0.0210  0.2880  0.4887
  897MOL0     C21008   1.629   0.535   8.621  0.4224  0.4795  0.5994
  897MOL0     C21009   1.573   0.439   8.541 -0.3140 -0.1427 -0.0688
  897MOL0     N21010   1.233  -0.379   8.312  0.0384 -0.1045  0.0027
  897MOL0     N21011   1.139  -0.464   8.273 -0.5398  0.9310 -0.3167
  897MOL0     C21012   0.647  -0.024   9.040 -0.0243  1.1104 -0.8664
  897MOL0     C21013   0.630   0.103   9.087  0.8875  0.5866  0.9488
  897MOL0     C21014   0.705   0.529   9.195  0.9729 -0.4272  0.6506
  897MOL0     C21015   0.755   0.553   9.319  0.3391 -0.5246  0.4230
  897MOL0     C21016   0.765   0.684   9.372  0.7882 -0.0049  0.0506
  897MOL0     C21017   0.706   0.788   9.299  0.2169 -0.0116 -0.7830
  897MOL0     O21018   0.696   0.909   9.364 -0.7408  0.6081 -1.5070
  897MOL0     C21019   0.559   0.942   9.404  0.5274  0.4812  0.4999
  897MOL0     C21020   0.509   0.847   9.511  0.8952  0.6182  0.0553
  897MOL0     C21021   0.555   0.879   9.659  0.2326 -0.1277  0.5742
  897MOL0     C21022   0.522   0.763   9.754  0.1990  0.4727 -0.6761
  897MOL0     C21023   0.493   0.817   9.888  0.4625  0.6840  0.1065
  897MOL0     C21024   0.477   0.856  10.005  0.3336 -0.5955  0.0052
  897MOL0     C21025   0.657   0.765   9.170 -0.3118  0.0762 -0.5252
  897MOL0     C21026   0.645   0.636   9.116 -0.6728 -0.8156 -0.1248
  897MOL0     C21027   0.573   0.616   8.982 -0.2173 -0.6785 -0.9952
  897MOL0     H21028   0.840   0.101   9.354  0.1179  2.2674 -1.4764
  897MOL0     H21029   0.886  -0.137   9.258  0.6631  0.4395  0.4291
  897MOL0     H21030   0.922  -0.242   8.993 -1.9799 -0.8758 -0.9329
  897MOL0     H21031   0.901  -0.319   9.153  0.0418 -1.2504 -0.0702
  897MOL0     H21032   0.781  -0.503   9.068 -0.9676  0.4031 -0.5567
  897MOL0     H21033   0.935  -0.493   8.996 -1.7489 -3.2537  0.4821
  897MOL0     H21034   0.712  -0.344   8.853 -1.3377  0.1845  2.8602
  897MOL0     H21035   0.703  -0.514   8.837 -0.1586  0.7170 -2.5512
  897MOL0     H21036   0.933  -0.351   8.750  0.7501 -1.2655 -0.5067
  897MOL0     H21037   0.937  -0.529   8.746 -1.9463 -3.0179 -0.4878
  897MOL0     H21038   0.735  -0.526   8.597 -1.7782  1.8979 -0.0677
  897MOL0     H21039   0.719  -0.358   8.609  1.3831  1.9538 -1.9300
  897MOL0     H21040   0.962  -0.328   8.527 -0.5029 -0.2466 -1.1250
  897MOL0     H21041   0.961  -0.502   8.494 -2.3586 -1.8000 -3.2782
  897MOL0     H21042   0.785  -0.302   8.347  0.5802 -0.7791 -2.8852
  897MOL0     H21043   0.736  -0.468   8.356  1.5517 -2.9763 -3.5638
  897MOL0     H21044   0.900  -0.560   8.263  0.3400  0.4258  0.5907
  897MOL0     H21045   0.854  -0.436   8.153 -1.7388  0.0943  1.0093
  897MOL0     H21046   1.004  -0.183   8.214  0.4296  1.6315  1.7900
  897MOL0     H21047   1.376  -0.169   8.227 -0.3803 -1.4516  1.4074
  897MOL0     H21048   1.234  -0.078   8.193  2.2789 -2.1089 -2.7053
  897MOL0     H21049   1.203   0.014   8.390 -1.4049 -0.9540 -0.7167
  897MOL0     H21050   1.262  -0.125   8.479 -1.2642  4.1021  2.9703
  897MOL0     H21051   1.435   0.068   8.322  2.5133 -1.0703 -0.9134
  897MOL0     H21052   1.509  -0.064   8.408 -2.3034 -2.6530  1.2123
  897MOL0     H21053   1.532   0.059   8.598 -1.4597 -2.5918 -0.0767
  897MOL0     H21054   1.370   0.083   8.615  2.7600 -1.5966  2.9424
  897MOL0     H21055   1.499   0.207   8.768  1.2494 -0.4717 -0.6561
  897MOL0     H21056   1.595   0.367   8.915  0.3762 -2.6885  0.1224
  897MOL0     H21057   2.038   0.582   8.799 -0.3476 -0.3723  1.6581
  897MOL0     H21058   2.239   0.683   8.893 -0.8335  1.4247  2.0172
  897MOL0     H21059   2.398   0.801   9.161  1.7363  2.0199  1.1069
  897MOL0     H21060   2.386   0.842   8.986 -1.6383  1.5030  0.0527
  897MOL0     H21061   2.428   1.038   9.225  1.7146  0.5546  0.2168
  897MOL0     H21062   2.553   0.963   9.126  1.1430 -0.0674  1.6186
  897MOL0     H21063   2.486   1.107   8.943  1.6458  2.3879  1.4135
  897MOL0     H21064   2.321   1.127   9.013 -0.8025  0.7715  2.3464
  897MOL0     H21065   2.418   1.274   9.178 -3.7501  0.3507 -1.4861
  897MOL0     H21066   2.427   1.342   9.015  0.6742 -1.8342 -3.3945
  897MOL0     H21067   2.675   1.250   9.024 -3.2522 -4.9796 -0.8786
  897MOL0     H21068   2.649   1.251   9.201 -1.4475  2.3454  2.0461
  897MOL0     H21069   2.623   1.487   9.012  0.4673  0.2053 -0.4822
  897MOL0     H21070   2.575   1.489   9.185  0.4907 -0.8806  0.4893
  897MOL0     H21071   2.792   1.427   9.256  0.1303  0.6885 -0.4817
  897MOL0     H21072   2.776   1.586   9.181 -0.8192  0.2480 -0.0561
  897MOL0     H21073   2.992   1.452   9.101 -0.0660 -0.0633  0.2566
  897MOL0     H21074   2.870   1.333   9.050  2.1862 -1.4057  4.0965
  897MOL0     H21075   1.988   0.959   9.100  2.6877  1.0388 -0.9179
  897MOL0     H21076   1.780   0.871   8.971 -0.7976  0.0375 -4.5018
  897MOL0     H21077   1.676   0.621   8.574  0.3533 -0.0075 -0.3826
  897MOL0     H21078   1.576   0.445   8.432  1.6580 -2.9474 -0.2709
  897MOL0     H21079   0.578  -0.053   8.962  1.3905  0.3176 -1.8771
  897MOL0     H21080   0.556   0.170   9.044 -0.2714 -1.1875  0.0551
  897MOL0     H21081   0.792   0.469   9.377 -1.2461 -0.6259  1.3264
  897MOL0     H21082   0.812   0.709   9.466 -3.2208  1.9728  1.7619
  897MOL0     H21083   0.492   0.929   9.318  0.1594 -0.0704  0.8630
  897MOL0     H21084   0.544   1.047   9.428 -0.3251  0.0924  1.7341
  897MOL0     H21085   0.524   0.740   9.491 -0.0869  0.6113 -0.7194
  897MOL0     H21086   0.401   0.863   9.508  0.8823  1.2762 -5.8356
  897MOL0     H21087   0.514   0.969   9.705 -4.3966 -2.7045  2.2038
  897MOL0     H21088   0.664   0.889   9.664  0.0874  1.0034  1.7459
  897MOL0     H21089   0.442   0.701   9.714  1.8161 -2.1132 -0.1149
  897MOL0     H21090   0.609   0.697   9.757 -0.0985  0.0674  2.3936
  897MOL0     H21091   0.436   0.899  10.094  0.5718  1.0634 -0.6536
  897MOL0     H21092   0.621   0.856   9.124  0.0063 -1.4805 -4.2092
  897MOL0     H21093   0.639   0.608   8.895  1.7861 -1.0655  0.4894
  897MOL0     H21094   0.498   0.537   8.979 -1.3951  0.4318 -2.7954
  897MOL0     H21095   0.516   0.708   8.964  0.2985  0.2340  1.5344
  898MOL0     O21096   6.596   3.507  11.230 -0.4272  0.9076 -0.0871
  898MOL0     C21097   6.652   3.399  11.246 -0.2611  0.8623  0.6902
  898MOL0     O21098   6.787   3.380  11.269 -0.2450 -0.1345  0.3559
  898MOL0     C21099   6.857   3.496  11.257  0.4339  0.0402 -1.9141
  898MOL0     C21100   6.951   3.515  11.162 -0.1985  0.6972 -0.0341
  898MOL0     C21101   7.036   3.623  11.166  1.0554  0.2482  0.4960
  898MOL0     C21102   7.013   3.729  11.249 -0.2689 -0.4391 -0.5787
  898MOL0     O21103   7.107   3.828  11.250  0.1196  0.0140  0.0765
  898MOL0     C21104   7.111   3.934  11.351  0.0543  0.5839  0.8931
  898MOL0     C21105   7.249   4.012  11.332  0.3633 -0.3162  0.6548
  898MOL0     C21106   7.258   4.125  11.440 -0.5239 -0.5875  0.0366
  898MOL0     C21107   7.397   4.190  11.427  0.1652  0.2602 -0.6796
  898MOL0     C21108   7.420   4.309  11.528 -0.1323  0.1094 -0.5048
  898MOL0     C21109   7.512   4.420  11.478 -0.8180  0.1238  0.1596
  898MOL0     C21110   7.519   4.547  11.555  0.1394 -0.1022  0.3067
  898MOL0     C21111   7.609   4.530  11.683  0.0905  0.6386 -0.3571
  898MOL0     N21112   7.744   4.517  11.642  0.2116 -0.0051 -0.6736
  898MOL0     C21113   7.833   4.421  11.687 -0.4879 -1.2817 -0.5522
  898MOL0     C21114   7.951   4.462  11.623  0.7895 -0.9573 -0.0669
  898MOL0     C21115   8.083   4.404  11.650  0.3413 -0.4074 -0.2086
  898MOL0     C21116   8.092   4.361  11.795 -0.0509 -0.3392 -0.8216
  898MOL0     C21117   8.223   4.299  11.825 -0.3204  0.3934 -1.8736
  898MOL0     C21118   8.252   4.298  11.978  0.0842 -0.4395  0.1823
  898MOL0     O21119   8.164   4.204  12.045 -0.3604 -0.6894  0.6213
  898MOL0     C21120   8.203   4.156  12.162  0.4062 -0.5105  0.0296
  898MOL0     C21121   8.113   4.073  12.228  0.5328  0.6798  0.8907
  898MOL0     C21122   8.147   4.000  12.342  0.2118  0.8472  0.6049
  898MOL0     C21123   8.277   4.018  12.393 -0.4589  0.8922  0.0715
  898MOL0     C21124   8.325   3.934  12.515 -0.3902 -0.2471 -1.0878
  898MOL0     O21125   8.240   3.834  12.556  0.0536 -0.6397  0.1075
  898MOL0     C21126   8.277   3.737  12.647  0.2522 -0.5051 -0.2993
  898MOL0     C21127   8.312   3.772  12.776  0.8921  0.5356 -0.9608
  898MOL0     C21128   8.371   3.678  12.863  0.0093  0.2342  0.3430
  898MOL0     C21129   8.392   3.543  12.823 -0.1879  0.0791 -0.3897
  898MOL0     O21130   8.449   3.442  12.897  0.1915 -0.7159  0.0526
  898MOL0     C21131   8.403   3.443  13.038 -0.0926 -0.2366 -0.0330
  898MOL0     C21132   8.346   3.309  13.084 -0.7145  0.1715 -0.6652
  898MOL0     C21133   8.285   3.321  13.227  0.0827 -0.0122 -0.0703
  898MOL0     C21134   8.396   3.352  13.329 -0.4612 -0.9109  0.1449
  898MOL0     C21135   8.339   3.437  13.448  0.4274 -0.6994  0.5140
  898MOL0     C21136   8.452   3.489  13.536  0.0508  0.2527 -0.1675
  898MOL0     C21137   8.398   3.604  13.631 -1.0966 -0.3940 -0.4972
  898MOL0     C21138   8.505   3.628  13.742 -0.5416  0.0881 -0.0508
  898MOL0    Cl21139   8.500   3.498  13.859 -0.2482 -0.1075 -0.8390
  898MOL0     C21140   8.358   3.512  12.691 -0.7218  0.6082  0.9156
  898MOL0     C21141   8.300   3.605  12.605 -0.6287  0.1978 -0.0241
  898MOL0     O21142   8.431   3.963  12.571 -0.0014  0.4460  0.4540
  898MOL0     C21143   8.355   4.121  12.344 -0.6870  0.3164 -0.0756
  898MOL0     C21144   8.325   4.190  12.225 -0.8052  0.4965 -0.0425
  898MOL0     N21145   7.935   4.577  11.559  0.3623  1.0103  0.1537
  898MOL0     N21146   7.808   4.603  11.557 -0.3439 -0.1167 -0.0409
  898MOL0     C21147   6.915   3.715  11.347 -0.3483 -0.2367  0.8712
  898MOL0     C21148   6.834   3.601  11.352  0.0475 -0.2224 -1.0846
  898MOL0     C21149   6.575   3.274  11.246  0.1571  0.0355 -0.4194
  898MOL0     C21150   6.640   3.152  11.272 -0.5937  0.9969  0.7189
  898MOL0     C21151   6.568   3.037  11.277 -1.4888  0.4280 -0.0396
  898MOL0     C21152   6.442   3.025  11.237 -0.0694  0.6727  0.5874
  898MOL0     O21153   6.391   2.900  11.230  0.2167 -0.1679  0.3556
  898MOL0     C21154   6.274   2.866  11.304  0.1246  0.5899 -0.1344
  898MOL0     C21155   6.251   2.716  11.302  0.5879  0.4737  0.4511
  898MOL0     C21156   6.373   2.629  11.331  0.7417 -0.7020  0.3959
  898MOL0     C21157   6.333   2.490  11.369 -0.1705  0.4161 -0.1433
  898MOL0     C21158   6.378   2.404  11.251 -0.5030  0.6791 -0.8153
  898MOL0     C21159   6.426   2.339  11.161  0.3323 -0.0873 -0.1091
  898MOL0     C21160   6.365   3.139  11.206 -0.0989 -0.2514  0.1109
  898MOL0     C21161   6.428   3.267  11.228 -0.6021 -0.2445 -0.7207
  898MOL0     C21162   6.348   3.395  11.207 -1.1409 -0.2215 -0.8187
  898MOL0     H21163   6.982   3.430  11.101 -3.0653 -0.0153 -0.6630
  898MOL0     H21164   7.123   3.640  11.103 -0.4047  0.4671 -1.5867
  898MOL0     H21165   7.025   4.001  11.338 -3.3739 -3.3206  1.3184
  898MOL0     H21166   7.107   3.882  11.447  0.5889  1.0052  1.1423
  898MOL0     H21167   7.236   4.054  11.232 -1.7224  0.4252  1.1810
  898MOL0     H21168   7.336   3.947  11.344  1.6548  0.5933 -2.7358
  898MOL0     H21169   7.245   4.083  11.540 -2.9332  2.6161  1.2413
  898MOL0     H21170   7.182   4.204  11.431  1.8192  1.9222  0.9903
  898MOL0     H21171   7.477   4.116  11.431 -0.7255 -0.8235 -2.0643
  898MOL0     H21172   7.418   4.236  11.329  2.1234 -1.8459 -1.3357
  898MOL0     H21173   7.325   4.353  11.558 -1.2647 -1.6030 -1.3894
  898MOL0     H21174   7.458   4.258  11.617  1.1840 -0.8973 -1.5968
  898MOL0     H21175   7.609   4.373  11.458 -1.1448  1.0776 -4.9325
  898MOL0     H21176   7.470   4.449  11.382  3.8298 -3.5183 -3.4546
  898MOL0     H21177   7.416   4.580  11.574 -0.0656  0.2778 -1.3082
  898MOL0     H21178   7.545   4.637  11.499  1.2968 -0.7633 -0.2588
  898MOL0     H21179   7.593   4.620  11.744 -0.1091  2.2129 -2.6031
  898MOL0     H21180   7.585   4.440  11.740  2.8815 -0.3508 -0.6404
  898MOL0     H21181   7.821   4.343  11.761  1.1652 -1.7315 -0.7115
  898MOL0     H21182   8.097   4.318  11.584 -0.7727 -0.1622 -0.7825
  898MOL0     H21183   8.160   4.478  11.624 -1.1897  0.7875 -1.5249
  898MOL0     H21184   8.079   4.442  11.867 -0.5883 -3.7319  3.3074
  898MOL0     H21185   8.015   4.288  11.822 -2.0341  1.7789 -0.4352
  898MOL0     H21186   8.306   4.346  11.772  1.5617  0.6001  1.0365
  898MOL0     H21187   8.214   4.195  11.792 -0.2422  0.7932 -3.1791
  898MOL0     H21188   8.239   4.393  12.030  1.9976 -0.4087  0.6990
  898MOL0     H21189   8.357   4.266  11.980 -0.2560 -1.7154 -0.9215
  898MOL0     H21190   8.024   4.043  12.173  0.6755  0.0566  0.9836
  898MOL0     H21191   8.093   3.913  12.378  1.7538  0.0833  1.1581
  898MOL0     H21192   8.285   3.874  12.802 -2.0966 -0.3690 -0.1044
  898MOL0     H21193   8.389   3.695  12.969 -5.0407 -0.4515  1.5611
  898MOL0     H21194   8.494   3.468  13.094 -2.3154  3.2851  2.4233
  898MOL0     H21195   8.322   3.514  13.056  0.0153 -0.4671  1.5412
  898MOL0     H21196   8.271   3.271  13.014 -0.9577 -0.5579 -0.0253
  898MOL0     H21197   8.422   3.231  13.074 -0.1055  0.7285 -0.4568
  898MOL0     H21198   8.208   3.399  13.228 -1.5781 -1.5876 -1.0400
  898MOL0     H21199   8.247   3.227  13.268  0.1460  0.5902  1.4375
  898MOL0     H21200   8.480   3.407  13.286 -1.1534  0.5611  0.5781
  898MOL0     H21201   8.435   3.258  13.367  0.8848 -0.7597 -0.8177
  898MOL0     H21202   8.273   3.378  13.512 -1.5333 -0.7249 -1.4113
  898MOL0     H21203   8.283   3.522  13.408  0.2720 -1.8818 -1.9825
  898MOL0     H21204   8.494   3.405  13.593 -0.8789 -1.1029 -1.4333
  898MOL0     H21205   8.536   3.529  13.478  1.3651 -2.6462 -0.4402
  898MOL0     H21206   8.306   3.585  13.687 -2.3767  0.9838 -2.0711
  898MOL0     H21207   8.376   3.699  13.582  0.0363  0.6063  0.8360
  898MOL0     H21208   8.601   3.633  13.690 -0.8347  2.3789 -0.4714
  898MOL0     H21209   8.493   3.723  13.795  2.6234  0.0792  0.9106
  898MOL0     H21210   8.376   3.414  12.649 -1.9565  0.8077 -0.1499
  898MOL0     H21211   8.292   3.577  12.500  1.3524  0.1142 -0.1936
  898MOL0     H21212   8.447   4.142  12.397 -0.4937 -0.8642  0.0700
  898MOL0     H21213   8.389   4.273  12.197  0.1348 -0.5355 -1.0342
  898MOL0     H21214   6.888   3.800  11.408 -0.2014  2.5449 -2.6595
  898MOL0     H21215   6.750   3.604  11.421  2.4142 -0.8680  2.0230
  898MOL0     H21216   6.747   3.150  11.293 -0.1831  0.9934 -1.1694
  898MOL0     H21217   6.631   2.951  11.297  0.4058  1.6371 -0.5368
  898MOL0     H21218   6.189   2.917  11.257 -0.7082 -1.4668 -0.9917
  898MOL0     H21219   6.280   2.907  11.405 -0.6739  3.5442 -1.2067
  898MOL0     H21220   6.209   2.687  11.205 -2.0891 -0.9390  1.8999
  898MOL0     H21221   6.175   2.709  11.380 -0.2737  2.8843 -0.0729
  898MOL0     H21222   6.417   2.679  11.418 -4.7152  3.3196  1.3129
  898MOL0     H21223   6.440   2.635  11.244  0.1014  2.5779 -0.0043
  898MOL0     H21224   6.390   2.451  11.454  1.5221  0.3748 -1.2399
  898MOL0     H21225   6.225   2.482  11.383 -0.0161 -0.5035  0.6588
  898MOL0     H21226   6.458   2.282  11.077 -0.3781  1.2230 -1.3162
  898MOL0     H21227   6.258   3.145  11.190 -0.5592  1.8129  3.0472
  898MOL0     H21228   6.390   3.460  11.130 -1.5192  0.7246 -0.2347
  898MOL0     H21229   6.251   3.367  11.165 -0.2383 -2.3656 -1.6687
  898MOL0     H21230   6.350   3.444  11.304  1.6143 -1.6822 -0.0190
  899MOL0     O21231   9.040   0.517   9.734  0.8557  0.7303 -0.2921
  899MOL0     C21232   8.946   0.559   9.671  0.0993 -0.0938  0.7868
  899MOL0     O21233   8.934   0.547   9.530 -1.0819  0.7196 -0.4633
  899MOL0     C21234   8.818   0.582   9.473  0.4981  0.8086 -0.0807
  899MOL0     C21235   8.694   0.507   9.494 -0.2557 -0.0743 -0.6607
  899MOL0     C21236   8.578   0.539   9.426 -0.5807 -0.4385  0.0225
  899MOL0     C21237   8.579   0.648   9.340 -0.1488 -0.0800 -0.2891
  899MOL0     O21238   8.459   0.689   9.284  0.1841  0.4240 -0.1298
  899MOL0     C21239   8.459   0.829   9.243 -0.0298 -0.6529 -0.1696
  899MOL0     C21240   8.311   0.875   9.263 -0.1014  1.1242  0.0670
  899MOL0     C21241   8.309   1.026   9.262 -0.2679 -0.3048 -0.1044
  899MOL0     C21242   8.353   1.102   9.131  0.4652 -0.1193 -1.5270
  899MOL0     C21243   8.291   1.241   9.107 -0.6244 -0.3132  0.0857
  899MOL0     C21244   8.302   1.324   9.229  0.0233 -0.3049  0.7594
  899MOL0     C21245   8.273   1.473   9.219  0.1494 -0.7673 -0.1101
  899MOL0     C21246   8.247   1.538   9.354  0.6279  0.2204  0.4123
  899MOL0     N21247   8.357   1.530   9.444  0.5419  0.1273  0.0418
  899MOL0     C21248   8.464   1.615   9.423 -0.3506 -0.6537  0.8356
  899MOL0     C21249   8.519   1.645   9.546  0.7941  0.4695  0.7369
  899MOL0     C21250   8.648   1.696   9.581 -0.2871 -0.4754  0.4023
  899MOL0     C21251   8.762   1.664   9.481  0.0751  0.0127 -0.7531
  899MOL0     C21252   8.831   1.535   9.513 -0.4874 -0.6123  0.0892
  899MOL0     C21253   8.965   1.499   9.442 -1.2427  0.8467 -0.5437
  899MOL0     O21254   8.951   1.500   9.295  0.8572 -0.1449 -0.5477
  899MOL0     C21255   9.071   1.497   9.224  0.4287  0.7864 -0.5050
  899MOL0     C21256   9.088   1.599   9.131 -1.0325  0.5881 -0.6264
  899MOL0     C21257   9.194   1.587   9.038 -0.4014  0.0306  0.2521
  899MOL0     C21258   9.282   1.478   9.041 -0.5100  0.4974 -0.1611
  899MOL0     C21259   9.396   1.472   8.947 -1.3704  0.8672  0.7984
  899MOL0     O21260   9.495   1.393   8.992 -0.2861  0.0783  0.5414
  899MOL0     C21261   9.614   1.391   8.922 -0.4256  0.4293 -0.1976
  899MOL0     C21262   9.706   1.506   8.911  0.2085  0.4700 -0.7000
  899MOL0     C21263   9.829   1.493   8.843 -0.3730 -0.8656  0.0680
  899MOL0     C21264   9.864   1.370   8.791  0.2346  1.0355  0.6364
  899MOL0     O21265   9.970   1.354   8.709 -0.6374  0.2587 -0.9978
  899MOL0     C21266   9.963   1.409   8.575  0.2200 -0.2617 -0.0969
  899MOL0     C21267  10.092   1.373   8.499 -0.8690 -0.1666  0.6094
  899MOL0     C21268  10.095   1.439   8.358  0.8575  0.6408  0.4501
  899MOL0     C21269  10.232   1.462   8.293 -0.3212 -0.3796  0.4312
  899MOL0     C21270  10.310   1.330   8.303  1.0817 -0.6753  0.6306
  899MOL0     C21271  10.439   1.339   8.216 -0.7575  0.6885 -0.4979
  899MOL0     C21272  10.521   1.208   8.203 -0.3797 -0.1421  0.2577
  899MOL0     C21273  10.670   1.219   8.215 -0.8733 -0.2775  0.1222
  899MOL0    Cl21274  10.750   1.286   8.070  0.1573 -0.0440  0.0221
  899MOL0     C21275   9.789   1.252   8.811 -0.2119 -1.2452  0.0449
  899MOL0     C21276   9.659   1.266   8.869 -0.0292  0.2605  0.3522
  899MOL0     O21277   9.403   1.547   8.850 -0.7226  0.9352 -0.4568
  899MOL0     C21278   9.253   1.377   9.136  0.6085 -0.3613  0.7362
  899MOL0     C21279   9.151   1.385   9.229 -0.3031 -0.4845  0.6833
  899MOL0     N21280   8.444   1.570   9.633  0.0673 -0.0396 -0.4292
  899MOL0     N21281   8.346   1.513   9.576 -0.3259 -0.6555  0.1933
  899MOL0     C21282   8.702   0.708   9.312 -0.0362  0.3932  0.2702
  899MOL0     C21283   8.821   0.673   9.364  0.6184  0.2072 -1.0214
  899MOL0     C21284   8.848   0.637   9.743  0.3078 -0.6674 -0.2529
  899MOL0     C21285   8.834   0.776   9.710  0.1252  0.0966 -0.3946
  899MOL0     C21286   8.751   0.855   9.787 -0.1402 -0.8579 -0.0293
  899MOL0     C21287   8.687   0.799   9.895  0.2303 -0.3429 -0.5323
  899MOL0     O21288   8.604   0.868   9.978  0.3070 -0.3060  0.0839
  899MOL0     C21289   8.488   0.935   9.916  1.3821  0.0325  0.6398
  899MOL0     C21290   8.416   0.825   9.838  0.2656 -0.2123  0.2174
  899MOL0     C21291   8.282   0.883   9.796 -0.5049  0.1454 -0.7963
  899MOL0     C21292   8.309   0.990   9.685  0.3447 -0.1802 -0.2660
  899MOL0     C21293   8.175   1.040   9.644 -0.8378 -0.4790 -0.0621
  899MOL0     C21294   8.063   1.093   9.631  0.4391 -0.0953  0.0165
  899MOL0     C21295   8.708   0.667   9.924 -0.5544 -1.6528 -0.1137
  899MOL0     C21296   8.792   0.589   9.851  0.4714 -0.1593 -0.6247
  899MOL0     C21297   8.807   0.453   9.911 -0.2256 -0.6573 -0.1758
  899MOL0     H21298   8.712   0.428   9.567  2.5602 -0.1172 -1.2675
  899MOL0     H21299   8.491   0.480   9.454 -0.1608 -1.5920 -1.0146
  899MOL0     H21300   8.516   0.902   9.302  1.8740 -1.5275 -0.8593
  899MOL0     H21301   8.492   0.848   9.141  0.7377 -1.2845 -0.0448
  899MOL0     H21302   8.266   0.840   9.356 -0.0075  2.8115  0.7805
  899MOL0     H21303   8.250   0.834   9.181  0.5382  1.4305 -0.5700
  899MOL0     H21304   8.363   1.067   9.348 -0.0969 -1.0313  0.1404
  899MOL0     H21305   8.206   1.060   9.276  0.9166  2.4771  3.6177
  899MOL0     H21306   8.460   1.107   9.149  0.2362  2.5670 -0.3081
  899MOL0     H21307   8.325   1.039   9.046 -0.8157 -1.3051 -0.2762
  899MOL0     H21308   8.337   1.295   9.024  0.5943 -1.8357 -0.2815
  899MOL0     H21309   8.186   1.221   9.083 -0.4230 -0.4527 -0.7038
  899MOL0     H21310   8.232   1.299   9.310  0.4585  2.0165  1.9466
  899MOL0     H21311   8.401   1.326   9.275  0.0582  0.5059  0.6741
  899MOL0     H21312   8.191   1.488   9.148  0.5285 -3.1613 -1.1386
  899MOL0     H21313   8.360   1.518   9.170  0.7519 -1.3724  0.3883
  899MOL0     H21314   8.220   1.645   9.350 -0.4643 -0.0491  0.0878
  899MOL0     H21315   8.156   1.495   9.398  0.1079  1.7484  0.9201
  899MOL0     H21316   8.508   1.656   9.333 -0.2566 -0.8592  0.7893
  899MOL0     H21317   8.636   1.805   9.580  1.2133 -0.2481 -2.3230
  899MOL0     H21318   8.667   1.671   9.686 -2.5581  1.1621  1.2943
  899MOL0     H21319   8.717   1.649   9.382  0.5457  1.8535 -1.2846
  899MOL0     H21320   8.830   1.749   9.491  0.3629 -0.3240  0.1771
  899MOL0     H21321   8.766   1.452   9.484 -1.0795 -0.6377  1.4271
  899MOL0     H21322   8.850   1.536   9.621 -4.1820  1.0195  0.8684
  899MOL0     H21323   9.004   1.399   9.464 -0.6603  1.7795  3.3442
  899MOL0     H21324   9.040   1.568   9.479  0.3116 -0.4108 -1.2064
  899MOL0     H21325   9.034   1.692   9.144 -1.7860 -0.1749  2.6513
  899MOL0     H21326   9.199   1.675   8.975 -0.1877 -1.3851 -1.7891
  899MOL0     H21327   9.672   1.598   8.957 -1.1358 -1.5357  2.7637
  899MOL0     H21328   9.897   1.576   8.830 -1.7902  0.4184  0.4291
  899MOL0     H21329   9.875   1.368   8.525  1.7207 -1.5154 -1.8670
  899MOL0     H21330   9.943   1.516   8.589 -2.7216 -0.9869  2.1348
  899MOL0     H21331  10.165   1.416   8.568  0.9768  0.8195 -1.8069
  899MOL0     H21332  10.099   1.264   8.493  0.4579 -0.2711  2.8741
  899MOL0     H21333  10.033   1.374   8.296  1.3612 -2.1265  2.6498
  899MOL0     H21334  10.040   1.532   8.370 -1.1084 -0.4782  0.4516
  899MOL0     H21335  10.287   1.543   8.341  0.0819 -0.5167  0.2061
  899MOL0     H21336  10.204   1.497   8.193  1.2487  0.4111  0.2490
  899MOL0     H21337  10.252   1.252   8.252  1.6306 -0.5027 -0.2968
  899MOL0     H21338  10.329   1.308   8.408  1.6527 -0.7811  0.5090
  899MOL0     H21339  10.415   1.366   8.113 -0.9338  0.8218 -0.4233
  899MOL0     H21340  10.500   1.417   8.263  0.2086  0.2717 -1.0387
  899MOL0     H21341  10.500   1.167   8.104  0.3960  1.6032 -0.6750
  899MOL0     H21342  10.499   1.133   8.279  0.3108 -0.8607 -0.2377
  899MOL0     H21343  10.681   1.285   8.301 -1.5348  0.5972 -0.4470
  899MOL0     H21344  10.714   1.119   8.223  0.4505  0.1684 -1.1749
  899MOL0     H21345   9.799   1.153   8.770  2.1410 -1.6333  1.3439
  899MOL0     H21346   9.602   1.173   8.874  0.9020 -0.3263  0.2903
  899MOL0     H21347   9.316   1.290   9.150 -0.2620 -1.4765 -1.5925
  899MOL0     H21348   9.139   1.308   9.304  2.5162 -0.0131  1.7293
  899MOL0     H21349   8.707   0.781   9.231 -2.4926  1.0373  0.5884
  899MOL0     H21350   8.910   0.725   9.332  1.6972 -0.2678  1.0418
  899MOL0     H21351   8.886   0.814   9.623  4.6123 -1.8652  1.1471
  899MOL0     H21352   8.751   0.963   9.770  1.1401 -0.0982  3.7817
  899MOL0     H21353   8.511   1.016   9.847 -0.7536 -0.6401 -0.9532
  899MOL0     H21354   8.433   0.982   9.998  2.7783 -0.9725  2.2446
  899MOL0     H21355   8.398   0.734   9.896  1.4619 -1.1218 -0.7671
  899MOL0     H21356   8.477   0.793   9.753  1.1761 -1.3399  1.2710
  899MOL0     H21357   8.244   0.926   9.889  1.0271 -0.0487 -0.0451
  899MOL0     H21358   8.221   0.797   9.768 -1.1719  0.1320  0.5858
  899MOL0     H21359   8.349   1.083   9.727 -2.1928  2.2169 -2.7204
  899MOL0     H21360   8.382   0.951   9.613  2.0893  3.1996 -0.5506
  899MOL0     H21361   7.961   1.127   9.630  0.6210  0.6179 -2.2894
  899MOL0     H21362   8.668   0.632  10.018 -2.1129 -1.5111 -0.6933
  899MOL0     H21363   8.811   0.380   9.830  1.1261 -0.6447 -0.1530
  899MOL0     H21364   8.909   0.447   9.950 -0.3959  1.7054  0.8071
  899MOL0     H21365   8.726   0.430   9.981  0.9817 -2.1020  0.8112
  900MOL0     O21366   1.822  10.332   0.248  0.6621  0.6251  0.2596
  900MOL0     C21367   1.813  10.270   0.358  0.5244 -0.7384  0.7827
  900MOL0     O21368   1.896  10.174   0.395  0.0352  0.5288 -1.0538
  900MOL0     C21369   1.977  10.097   0.317  0.4618  0.6107  0.1550
  900MOL0     C21370   2.073  10.019   0.391  0.3839  0.2072 -0.7230
  900MOL0     C21371   2.141   9.920   0.319 -0.4008  0.0731 -0.5222
  900MOL0     C21372   2.150   9.926   0.177  0.4755  0.6483  0.4664
  900MOL0     O21373   2.239   9.845   0.109  0.1708  0.2243  0.4889
  900MOL0     C21374   2.188   9.711   0.081 -0.6335 -0.1086  0.3519
  900MOL0     C21375   2.169   9.701  -0.074  0.9485 -1.5674  0.0287
  900MOL0     C21376   2.262   9.599  -0.141  1.0211 -0.1894 -0.3537
  900MOL0     C21377   2.255   9.610  -0.292  0.6484 -0.6942  0.5080
  900MOL0     C21378   2.342   9.495  -0.345 -0.2732 -0.0799 -0.5537
  900MOL0     C21379   2.422   9.555  -0.460  0.8077 -0.2569 -0.2037
  900MOL0     C21380   2.522   9.454  -0.510 -0.8436 -0.4803 -0.2157
  900MOL0     C21381   2.611   9.532  -0.619  0.1080 -0.0737 -0.0052
  900MOL0     N21382   2.549   9.602  -0.717  0.5378 -0.2771 -0.9283
  900MOL0     C21383   2.493   9.729  -0.701  0.7618  0.1847 -0.2358
  900MOL0     C21384   2.417   9.742  -0.814  1.0514  0.3901  0.5282
  900MOL0     C21385   2.335   9.867  -0.833 -1.4940  1.3633  0.3793
  900MOL0     C21386   2.356   9.919  -0.969  0.3442  0.1436  0.3914
  900MOL0     C21387   2.505   9.948  -1.006 -0.3392  0.6870  0.3491
  900MOL0     C21388   2.536  10.082  -0.941  0.3954  0.0138 -0.3528
  900MOL0     O21389   2.659  10.125  -0.993 -0.4996 -0.5996  0.2851
  900MOL0     C21390   2.646  10.233  -1.076  0.0726 -0.7445 -0.1391
  900MOL0     C21391   2.538  10.272  -1.161 -1.0182  0.0068  0.5460
  900MOL0     C21392   2.552  10.373  -1.250 -0.4045 -0.0884 -0.2542
  900MOL0     C21393   2.662  10.452  -1.265 -0.8709 -0.2586 -0.0882
  900MOL0     C21394   2.680  10.547  -1.375  0.0651  0.4811  0.3857
  900MOL0     O21395   2.813  10.590  -1.389 -0.3048  0.8363 -0.3642
  900MOL0     C21396   2.846  10.668  -1.494 -0.1701 -1.0786 -0.3790
  900MOL0     C21397   2.893  10.618  -1.623 -0.6439 -1.0703 -0.8057
  900MOL0     C21398   2.911  10.704  -1.725  0.7451  0.3180 -0.3806
  900MOL0     C21399   2.908  10.840  -1.707 -0.0290 -1.0336  0.3974
  900MOL0     O21400   2.932  10.913  -1.823  0.0903 -0.2529  0.2078
  900MOL0     C21401   2.914  11.061  -1.820 -0.0720  0.3595 -0.8651
  900MOL0     C21402   2.898  11.120  -1.961 -1.3087  0.3299 -0.9702
  900MOL0     C21403   2.758  11.119  -2.001  0.9424 -0.5533  0.0563
  900MOL0     C21404   2.734  11.151  -2.139  0.3455  0.8995  0.7558
  900MOL0     C21405   2.775  11.298  -2.174  0.1087 -0.4187 -0.1499
  900MOL0     C21406   2.760  11.324  -2.318 -0.8618 -0.3094 -0.2319
  900MOL0     C21407   2.801  11.469  -2.355 -0.4063 -0.0676  0.0662
  900MOL0     C21408   2.940  11.477  -2.395 -0.6498  0.5217  0.3401
  900MOL0    Cl21409   2.974  11.636  -2.464  0.4092 -0.1548  0.7458
  900MOL0     C21410   2.871  10.893  -1.584 -0.4937 -1.7125  0.3749
  900MOL0     C21411   2.856  10.805  -1.477  0.0387  0.0093  0.4420
  900MOL0     O21412   2.590  10.572  -1.452 -0.3088 -0.4935  0.1373
  900MOL0     C21413   2.767  10.419  -1.179  0.0103 -0.5636  0.3428
  900MOL0     C21414   2.760  10.320  -1.084 -0.0884 -0.1384 -0.8007
  900MOL0     N21415   2.447   9.637  -0.909  0.2713 -0.2673  0.4378
  900MOL0     N21416   2.528   9.557  -0.842 -0.4415 -0.1770  0.7565
  900MOL0     C21417   2.063  10.015   0.113  0.0069 -0.0290  0.2972
  900MOL0     C21418   1.978  10.096   0.179  0.1700 -0.0970 -0.1360
  900MOL0     C21419   1.716  10.315   0.461 -0.3530 -0.0150  0.7246
  900MOL0     C21420   1.757  10.300   0.596  0.7722 -0.0383 -0.1467
  900MOL0     C21421   1.683  10.350   0.704 -0.6724 -0.7953 -0.4974
  900MOL0     C21422   1.553  10.398   0.682 -0.0292 -0.4767 -0.1919
  900MOL0     O21423   1.458  10.436   0.770 -0.0487  1.0120  0.1216
  900MOL0     C21424   1.493  10.414   0.914  0.5726  0.3609  0.5196
  900MOL0     C21425   1.387  10.424   1.028  0.8034  1.1641 -0.6661
  900MOL0     C21426   1.272  10.515   0.992 -0.1993  0.3891  0.0405
  900MOL0     C21427   1.199  10.551   1.120 -0.0034  0.0114  0.6859
  900MOL0     C21428   1.270  10.591   1.234  0.0569 -0.9232  0.2795
  900MOL0     C21429   1.335  10.634   1.326  0.2130 -1.0296 -0.1917
  900MOL0     C21430   1.519  10.419   0.547  0.2990  0.2520 -0.3904
  900MOL0     C21431   1.591  10.377   0.441 -0.7601 -0.0056  0.5833
  900MOL0     C21432   1.525  10.397   0.310 -1.3111  0.1296 -0.1412
  900MOL0     H21433   2.080  10.042   0.497  0.0855  0.4502 -0.7559
  900MOL0     H21434   2.210   9.851   0.367  0.8003 -0.0242 -2.2982
  900MOL0     H21435   2.272   9.648   0.111 -0.4018 -0.9408 -1.8211
  900MOL0     H21436   2.096   9.691   0.137 -1.6304 -1.8056 -1.7448
  900MOL0     H21437   2.182   9.793  -0.132 -3.6083 -1.8151 -1.8422
  900MOL0     H21438   2.067   9.664  -0.089  1.0932 -2.3982  0.9860
  900MOL0     H21439   2.230   9.504  -0.098  0.0507  0.1674 -0.2718
  900MOL0     H21440   2.364   9.613  -0.103  0.7576  1.2105 -0.1176
  900MOL0     H21441   2.154   9.588  -0.327 -0.2771 -1.0270  3.1194
  900MOL0     H21442   2.272   9.710  -0.332  0.2076  0.3145  2.6755
  900MOL0     H21443   2.404   9.441  -0.272 -1.5401  1.8580  2.1204
  900MOL0     H21444   2.282   9.411  -0.381  1.3334 -1.3172 -0.4678
  900MOL0     H21445   2.346   9.579  -0.535 -0.2026 -2.6594 -0.0573
  900MOL0     H21446   2.471   9.649  -0.435 -1.7563  0.9034  0.9058
  900MOL0     H21447   2.472   9.368  -0.557 -1.2184  0.8023 -2.3135
  900MOL0     H21448   2.586   9.419  -0.429 -1.2305  1.6064  1.0482
  900MOL0     H21449   2.686   9.586  -0.560  0.5781 -2.5210  1.7976
  900MOL0     H21450   2.677   9.456  -0.663  1.1069  0.6200  0.2622
  900MOL0     H21451   2.494   9.790  -0.611  0.2461 -0.5366  0.2643
  900MOL0     H21452   2.230   9.846  -0.812 -0.6619 -0.7387  2.9915
  900MOL0     H21453   2.367   9.942  -0.760 -0.4288 -0.5961  2.0214
  900MOL0     H21454   2.320   9.837  -1.033  0.3048  0.2034  0.3371
  900MOL0     H21455   2.292  10.006  -0.990  0.7760  0.0241 -1.7058
  900MOL0     H21456   2.518   9.951  -1.115  0.7045 -2.6876  0.2664
  900MOL0     H21457   2.564   9.861  -0.974 -1.0363  0.2289  0.4169
  900MOL0     H21458   2.564  10.075  -0.835  2.5516  2.4031 -0.6709
  900MOL0     H21459   2.457  10.155  -0.962 -1.8325 -2.2738 -0.4170
  900MOL0     H21460   2.445  10.219  -1.176 -0.2059 -1.6721  1.1398
  900MOL0     H21461   2.470  10.389  -1.319 -1.0598  3.1358  1.1077
  900MOL0     H21462   2.894  10.513  -1.650 -0.0595 -0.3681 -3.9677
  900MOL0     H21463   2.917  10.661  -1.824 -0.1417  0.4690 -0.5164
  900MOL0     H21464   2.828  11.093  -1.760 -0.4404 -1.8612 -0.1189
  900MOL0     H21465   3.000  11.117  -1.782 -1.1213  1.0755  0.5469
  900MOL0     H21466   2.935  11.223  -1.959  3.6274 -1.1585 -2.0579
  900MOL0     H21467   2.969  11.067  -2.025 -0.1321  1.1429 -0.3912
  900MOL0     H21468   2.725  11.015  -1.994 -0.5116 -0.5122 -3.6773
  900MOL0     H21469   2.705  11.194  -1.943  0.1421  1.3220 -2.8544
  900MOL0     H21470   2.626  11.140  -2.153  0.6086  0.7238 -1.6559
  900MOL0     H21471   2.775  11.070  -2.201 -2.6190 -2.8614  3.2478
  900MOL0     H21472   2.880  11.310  -2.145 -0.2781 -1.9979  2.2899
  900MOL0     H21473   2.716  11.363  -2.109  1.8857 -0.1559  1.3143
  900MOL0     H21474   2.826  11.255  -2.373  2.6054  1.8319  0.9385
  900MOL0     H21475   2.660  11.299  -2.355  0.0396 -0.9647 -2.4229
  900MOL0     H21476   2.786  11.530  -2.265  2.0356 -0.8752  1.1034
  900MOL0     H21477   2.732  11.503  -2.432 -1.5229 -2.8152 -0.2668
  900MOL0     H21478   3.003  11.444  -2.313 -2.5853 -2.7737  0.6974
  900MOL0     H21479   2.952  11.403  -2.475 -0.3785  1.2831 -0.3451
  900MOL0     H21480   2.870  11.001  -1.577  0.0616 -1.7090  0.5132
  900MOL0     H21481   2.816  10.842  -1.383 -1.3953  1.8642 -0.8102
  900MOL0     H21482   2.862  10.471  -1.186 -0.3447 -0.0204 -0.7499
  900MOL0     H21483   2.842  10.300  -1.016 -0.3549  0.4924 -0.2891
  900MOL0     H21484   2.067  10.031   0.006  5.2973  0.4032  0.3240
  900MOL0     H21485   1.919  10.166   0.122 -0.3378  0.4379  1.0024
  900MOL0     H21486   1.852  10.257   0.623  0.6460 -0.5832 -0.5461
  900MOL0     H21487   1.730  10.349   0.801 -1.0370  0.0573 -0.2999
  900MOL0     H21488   1.565  10.490   0.946 -1.4454  1.9439  1.5359
  900MOL0     H21489   1.520  10.309   0.924 -1.7952 -0.5923 -1.8581
  900MOL0     H21490   1.442  10.437   1.122  1.3956  0.9751 -0.9827
  900MOL0     H21491   1.339  10.328   1.049  0.0827  1.2091 -2.0368
  900MOL0     H21492   1.200  10.473   0.922 -0.0406  1.7489 -0.9866
  900MOL0     H21493   1.303  10.610   0.947 -0.3452 -0.6479 -2.4190
  900MOL0     H21494   1.123  10.628   1.103 -1.2333 -0.6151  3.0062
  900MOL0     H21495   1.146  10.458   1.144  0.3766  0.7220  5.2632
  900MOL0     H21496   1.382  10.652   1.420 -0.2009  1.1958 -0.3448
  900MOL0     H21497   1.419  10.456   0.527  0.7596  0.2948 -3.0617
  900MOL0     H21498   1.559  10.326   0.234 -0.9090 -1.7940  1.7578
  900MOL0     H21499   1.416  10.394   0.323 -1.2907  3.8029  2.6570
  900MOL0     H21500   1.542  10.498   0.271 -3.2010 -0.5253 -3.0075
  901MOL0     O21501   5.464   5.222  10.662  0.4369 -0.4447  0.4871
  901MOL0     C21502   5.453   5.125  10.740  0.7377  0.0540  0.2726
  901MOL0     O21503   5.330   5.080  10.785 -0.4266  0.0750  0.1706
  901MOL0     C21504   5.232   5.062  10.686 -0.9176 -0.1266  0.8546
  901MOL0     C21505   5.262   5.049  10.546 -0.2371 -0.7547 -0.6152
  901MOL0     C21506   5.169   5.017  10.446  0.1282 -0.0240  0.7229
  901MOL0     C21507   5.037   4.995  10.494  0.6811 -0.4200  0.0047
  901MOL0     O21508   4.934   4.974  10.408 -0.2506 -1.3392 -0.1957
  901MOL0     C21509   4.949   5.048  10.290 -0.2824 -0.9314  0.2919
  901MOL0     C21510   4.822   5.040  10.205  0.1607 -0.4668  0.2819
  901MOL0     C21511   4.722   5.148  10.239  0.1205  0.1376  0.2820
  901MOL0     C21512   4.760   5.293  10.218 -0.1927  0.3782  0.0534
  901MOL0     C21513   4.647   5.383  10.158 -0.2633 -0.3586  0.0758
  901MOL0     C21514   4.697   5.529  10.144  1.0518 -0.3501 -0.4695
  901MOL0     C21515   4.596   5.627  10.070 -0.1622 -0.5585  0.1398
  901MOL0     C21516   4.572   5.591   9.932 -0.3999  0.6184 -1.0638
  901MOL0     N21517   4.695   5.583   9.855  0.1026  0.2945 -0.5392
  901MOL0     C21518   4.743   5.664   9.758  0.5623 -0.1674  0.3821
  901MOL0     C21519   4.855   5.607   9.718 -1.0484 -0.2142  0.9324
  901MOL0     C21520   4.958   5.682   9.635 -0.1569 -0.2334  0.2816
  901MOL0     C21521   4.988   5.613   9.498 -0.1578  0.3320  0.4199
  901MOL0     C21522   5.062   5.477   9.507 -0.2248 -0.5073 -0.1137
  901MOL0     C21523   5.111   5.429   9.371 -0.4722  0.8312 -0.1411
  901MOL0     O21524   5.241   5.491   9.346  0.2488  0.0502  0.3340
  901MOL0     C21525   5.313   5.468   9.236  0.2217  0.7336  0.2986
  901MOL0     C21526   5.254   5.409   9.123 -0.6311 -0.3379  0.0983
  901MOL0     C21527   5.338   5.386   9.018 -0.6683 -0.4620  0.2130
  901MOL0     C21528   5.473   5.425   9.011  0.2192 -0.0993 -0.4312
  901MOL0     C21529   5.563   5.402   8.898  0.2371  0.3733  0.2868
  901MOL0     O21530   5.529   5.297   8.815  0.2131  0.2256  0.8458
  901MOL0     C21531   5.588   5.290   8.696  0.4341  0.1071  0.1233
  901MOL0     C21532   5.501   5.253   8.590 -0.5646  0.6025 -0.3311
  901MOL0     C21533   5.546   5.251   8.464 -0.1668 -0.5947  0.5877
  901MOL0     C21534   5.672   5.269   8.429 -0.6900 -0.4396 -0.7898
  901MOL0     O21535   5.732   5.263   8.309  0.6009 -0.1926  0.3528
  901MOL0     C21536   5.643   5.300   8.202  0.0064  1.4745  0.3646
  901MOL0     C21537   5.710   5.296   8.058 -0.3175  0.3337  0.2511
  901MOL0     C21538   5.826   5.401   8.048  0.0619  0.2511 -0.4941
  901MOL0     C21539   5.922   5.354   7.929  0.6065 -0.6674  0.4950
  901MOL0     C21540   6.060   5.420   7.911  0.8080 -0.1488  0.2804
  901MOL0     C21541   6.111   5.393   7.771 -0.2857 -0.2706 -0.2158
  901MOL0     C21542   6.250   5.463   7.767 -1.4279 -0.0187 -0.1164
  901MOL0     C21543   6.338   5.452   7.638 -0.5615  0.3084  0.0085
  901MOL0    Cl21544   6.468   5.586   7.627  0.1472 -0.4721 -0.3240
  901MOL0     C21545   5.758   5.309   8.535  0.8761  0.6240  1.5974
  901MOL0     C21546   5.719   5.314   8.663  0.9150 -0.2800 -0.1132
  901MOL0     O21547   5.661   5.471   8.886  0.0030 -0.1419  0.1390
  901MOL0     C21548   5.523   5.487   9.126  1.0505  0.1959 -0.2013
  901MOL0     C21549   5.445   5.495   9.243 -0.3135 -0.2463  0.7893
  901MOL0     N21550   4.881   5.488   9.785 -0.0433 -0.2362  0.1235
  901MOL0     N21551   4.781   5.470   9.867  0.3342 -0.5874  0.1094
  901MOL0     C21552   5.001   5.003  10.634  0.0447  0.0289 -0.3210
  901MOL0     C21553   5.099   5.042  10.730 -0.3314 -0.0194 -0.6886
  901MOL0     C21554   5.576   5.078  10.803 -0.6569  0.0441 -0.4249
  901MOL0     C21555   5.685   5.174  10.809 -0.3241 -0.4643 -0.2276
  901MOL0     C21556   5.803   5.133  10.873  0.2657  0.0628 -0.2529
  901MOL0     C21557   5.825   5.005  10.924 -0.3699  0.5365 -0.9763
  901MOL0     O21558   5.947   4.969  10.968 -0.7836 -0.1800 -1.1476
  901MOL0     C21559   6.047   5.069  11.007 -0.8869 -0.1338 -0.3872
  901MOL0     C21560   6.181   5.004  11.041 -0.2796  0.2765  0.5096
  901MOL0     C21561   6.148   4.893  11.134  0.4774  0.6794 -0.2822
  901MOL0     C21562   6.268   4.807  11.179  0.0336  0.4302 -0.4158
  901MOL0     C21563   6.334   4.726  11.071 -0.1623 -0.1208 -0.3076
  901MOL0     C21564   6.405   4.676  10.987  0.2946 -0.4952 -0.4454
  901MOL0     C21565   5.715   4.918  10.911 -0.1655 -0.6346  1.1452
  901MOL0     C21566   5.589   4.944  10.857 -0.0260 -1.1988 -0.3260
  901MOL0     C21567   5.486   4.838  10.836  0.3718  0.3567 -0.5649
  901MOL0     H21568   5.365   5.060  10.515  0.6969  0.0087  2.3880
  901MOL0     H21569   5.212   5.004  10.347  2.5571 -1.1475  1.8480
  901MOL0     H21570   4.953   5.151  10.326 -1.4578 -1.1335  1.0516
  901MOL0     H21571   5.044   5.032  10.238  1.2612  0.0516  2.6458
  901MOL0     H21572   4.779   4.940  10.217  0.7290 -0.6172  1.2392
  901MOL0     H21573   4.852   5.040  10.100  1.6395 -5.2829  0.4354
  901MOL0     H21574   4.688   5.125  10.340 -1.2403 -3.6927 -0.8596
  901MOL0     H21575   4.635   5.120  10.179  1.1556  0.8338 -1.6754
  901MOL0     H21576   4.788   5.321  10.320  0.2303 -3.3082  1.1048
  901MOL0     H21577   4.843   5.309  10.148  1.8800 -1.4872  1.8985
  901MOL0     H21578   4.604   5.348  10.064 -0.6977 -0.1132  0.1862
  901MOL0     H21579   4.565   5.371  10.228 -0.9816  0.1042 -0.6754
  901MOL0     H21580   4.704   5.575  10.243  0.5862 -0.5498 -0.3389
  901MOL0     H21581   4.796   5.539  10.099  2.0263  3.7740  2.0080
  901MOL0     H21582   4.638   5.726  10.050  0.8475 -1.1870 -1.0223
  901MOL0     H21583   4.503   5.636  10.127  0.6363 -0.5708  1.4597
  901MOL0     H21584   4.534   5.489   9.918  3.2140 -1.7133  3.2246
  901MOL0     H21585   4.500   5.668   9.903 -2.6451 -0.8304  0.3200
  901MOL0     H21586   4.694   5.745   9.706  1.4309  0.4286  0.4597
  901MOL0     H21587   4.921   5.784   9.620 -2.4155 -0.7345  1.8665
  901MOL0     H21588   5.055   5.692   9.684  0.5185 -0.3478 -0.9867
  901MOL0     H21589   4.890   5.585   9.459  0.3595 -0.3572 -0.4167
  901MOL0     H21590   5.054   5.669   9.432  2.9967 -1.3756  1.9005
  901MOL0     H21591   4.998   5.395   9.540 -0.0238 -0.3620  0.6481
  901MOL0     H21592   5.144   5.490   9.577  1.2396  1.5071 -2.0512
  901MOL0     H21593   5.039   5.453   9.292  1.6286  0.1384 -2.3719
  901MOL0     H21594   5.127   5.321   9.378 -2.1034  0.6702  2.8586
  901MOL0     H21595   5.150   5.381   9.110 -0.4836 -0.1937 -1.6379
  901MOL0     H21596   5.298   5.343   8.927  0.4567  0.0903 -0.5721
  901MOL0     H21597   5.393   5.244   8.602 -0.6538 -5.1015 -2.1299
  901MOL0     H21598   5.476   5.240   8.381 -0.4687  0.1012  0.7399
  901MOL0     H21599   5.567   5.221   8.203  2.2982 -0.8647  0.1733
  901MOL0     H21600   5.591   5.396   8.211  0.9089  1.8271  2.2750
  901MOL0     H21601   5.737   5.194   8.031 -2.4146  0.0648 -0.9822
  901MOL0     H21602   5.631   5.321   7.988 -0.4892 -1.6419 -0.3184
  901MOL0     H21603   5.787   5.498   8.015  1.0378  0.0264 -2.4530
  901MOL0     H21604   5.877   5.407   8.145 -2.7196 -1.5689  1.2149
  901MOL0     H21605   5.870   5.360   7.833  0.4417  1.9331  0.6639
  901MOL0     H21606   5.947   5.249   7.943  2.8290 -0.0846  1.2892
  901MOL0     H21607   6.131   5.377   7.982 -2.2211 -3.5933  1.4934
  901MOL0     H21608   6.055   5.527   7.936  1.4232 -0.1532  0.4509
  901MOL0     H21609   6.116   5.293   7.727  0.1456  0.0007 -0.7967
  901MOL0     H21610   6.042   5.444   7.703 -1.6714  0.9142  1.9565
  901MOL0     H21611   6.311   5.433   7.852  0.3970  2.0012 -0.6249
  901MOL0     H21612   6.232   5.570   7.779 -3.3237 -0.4132  1.0406
  901MOL0     H21613   6.380   5.351   7.647 -3.5669 -1.2938 -2.1790
  901MOL0     H21614   6.276   5.456   7.548 -2.3988  1.2491  1.2444
  901MOL0     H21615   5.862   5.322   8.507  0.3079  1.3764 -0.3913
  901MOL0     H21616   5.796   5.335   8.736  1.1568 -4.7944  1.2275
  901MOL0     H21617   5.625   5.521   9.142  0.5948  0.9257  1.3215
  901MOL0     H21618   5.474   5.549   9.332  2.7911 -0.5941  0.1048
  901MOL0     H21619   4.899   4.992  10.669  0.7293  1.1272  2.2915
  901MOL0     H21620   5.080   5.063  10.835  0.7692  1.2488 -0.7089
  901MOL0     H21621   5.669   5.274  10.771 -0.1279 -0.7741 -1.1557
  901MOL0     H21622   5.886   5.203  10.875 -1.1499  1.8200 -0.6564
  901MOL0     H21623   6.008   5.122  11.094  1.8092  0.6024  0.4954
  901MOL0     H21624   6.071   5.139  10.927 -0.3035  0.5756  0.3846
  901MOL0     H21625   6.249   5.078  11.084  0.5061 -0.9045  1.3743
  901MOL0     H21626   6.228   4.975  10.947  1.0107  1.9592  0.5902
  901MOL0     H21627   6.075   4.822  11.096  0.5753 -0.7758  2.0422
  901MOL0     H21628   6.117   4.943  11.227  1.1468 -1.3506  1.1042
  901MOL0     H21629   6.341   4.869  11.232  0.9049 -2.1992  1.6472
  901MOL0     H21630   6.239   4.731  11.251  1.0879 -0.0456 -0.4835
  901MOL0     H21631   6.471   4.642  10.909  0.0043  0.1080 -0.9672
  901MOL0     H21632   5.722   4.812  10.935 -1.0136 -0.6427  1.3809
  901MOL0     H21633   5.396   4.852  10.897  0.3164 -2.6915  0.2166
  901MOL0     H21634   5.449   4.842  10.733 -0.0778  0.4502 -0.4035
  901MOL0     H21635   5.527   4.739  10.855 -1.1318 -0.3358 -0.7777
  902MOL0     O21636   1.283   9.963   6.956 -0.6801 -0.3767  0.6482
  902MOL0     C21637   1.369   9.935   6.870 -1.7973  0.3564 -0.2426
  902MOL0     O21638   1.442   9.816   6.866  0.3344 -0.2957 -0.1327
  902MOL0     C21639   1.451   9.741   6.984 -0.1033 -0.2521 -0.9717
  902MOL0     C21640   1.575   9.705   7.037 -1.3925 -1.3091 -0.8607
  902MOL0     C21641   1.583   9.633   7.159 -0.2002 -0.4521  0.3474
  902MOL0     C21642   1.468   9.584   7.220 -0.1861  0.6198 -0.3517
  902MOL0     O21643   1.477   9.518   7.339 -0.2929 -0.2521  0.3854
  902MOL0     C21644   1.407   9.566   7.455  0.2357 -0.1855  0.7861
  902MOL0     C21645   1.381   9.445   7.544  0.5432 -0.6448  0.5371
  902MOL0     C21646   1.485   9.378   7.628 -0.1419  1.4849 -0.4421
  902MOL0     C21647   1.422   9.259   7.691 -0.1099  0.0382 -0.6709
  902MOL0     C21648   1.331   9.284   7.811 -0.4439  1.1359 -0.6051
  902MOL0     C21649   1.424   9.292   7.933 -0.0889  0.5541  0.3732
  902MOL0     C21650   1.349   9.259   8.063 -0.0966  0.0708 -1.0259
  902MOL0     C21651   1.408   9.132   8.121 -0.1086 -0.3919  0.0067
  902MOL0     N21652   1.325   9.094   8.231  0.1293 -0.0345  0.0195
  902MOL0     C21653   1.365   9.117   8.363  0.4024 -0.2834  0.0801
  902MOL0     C21654   1.267   9.049   8.437  0.1594  0.2343  0.2539
  902MOL0     C21655   1.247   9.033   8.584  0.0603  0.3408  0.3773
  902MOL0     C21656   1.194   9.160   8.645 -0.4511  0.9028 -0.0682
  902MOL0     C21657   1.147   9.161   8.782  0.7151 -0.2279 -0.8562
  902MOL0     C21658   0.998   9.116   8.803 -0.3686  0.3977  0.1777
  902MOL0     O21659   0.991   8.973   8.770  0.4654 -0.0092  0.4720
  902MOL0     C21660   0.971   8.902   8.882  0.8887  0.3089  0.5809
  902MOL0     C21661   1.075   8.861   8.959 -0.1414  0.3246  0.0105
  902MOL0     C21662   1.048   8.783   9.083  0.5789 -0.0998 -0.2083
  902MOL0     C21663   0.921   8.743   9.121  0.7241 -0.6224 -0.2356
  902MOL0     C21664   0.887   8.670   9.254  1.3831  0.2053 -0.0868
  902MOL0     O21665   0.754   8.665   9.301  0.1667 -0.2117 -0.6049
  902MOL0     C21666   0.726   8.587   9.414  1.3817  0.6359 -0.9004
  902MOL0     C21667   0.807   8.491   9.478 -0.3460  0.2149  0.3992
  902MOL0     C21668   0.757   8.424   9.590  0.1626  0.1504 -0.8042
  902MOL0     C21669   0.625   8.444   9.636  0.6450 -0.9298  0.2094
  902MOL0     O21670   0.585   8.359   9.731 -1.0234  0.2086 -0.2582
  902MOL0     C21671   0.502   8.414   9.836 -0.4383 -0.4427 -0.1768
  902MOL0     C21672   0.518   8.329   9.956 -0.0733  1.0766  0.1338
  902MOL0     C21673   0.510   8.178   9.934  0.7305 -0.0409  0.3633
  902MOL0     C21674   0.362   8.119   9.916  0.4042 -0.8833 -0.0180
  902MOL0     C21675   0.351   7.965   9.917 -0.3032 -0.2959 -0.8285
  902MOL0     C21676   0.415   7.885  10.030  0.6769  0.0896  0.5358
  902MOL0     C21677   0.349   7.750  10.034  0.6205  0.0257 -0.1924
  902MOL0     C21678   0.388   7.665  10.160  0.0939 -0.9589 -0.1148
  902MOL0    Cl21679   0.565   7.634  10.163 -0.4417  0.1778  0.5839
  902MOL0     C21680   0.537   8.546   9.571 -0.0746 -0.3588  0.2590
  902MOL0     C21681   0.597   8.615   9.466  0.3253  0.4195  0.0921
  902MOL0     O21682   0.986   8.636   9.317  1.7502  0.3267 -0.1748
  902MOL0     C21683   0.820   8.790   9.028 -0.1059  0.9018 -0.9256
  902MOL0     C21684   0.846   8.865   8.921  0.1446  0.1203  0.9816
  902MOL0     N21685   1.177   8.990   8.351 -0.2626 -0.3033  0.0762
  902MOL0     N21686   1.220   9.002   8.231  0.6875  0.4380  0.3549
  902MOL0     C21687   1.346   9.594   7.159 -0.4458  0.1356  0.1950
  902MOL0     C21688   1.332   9.688   7.047  0.0889 -0.8342 -0.9636
  902MOL0     C21689   1.388  10.031   6.758  0.8007  0.2283  0.4693
  902MOL0     C21690   1.314  10.147   6.756  0.0911 -0.7507  0.4104
  902MOL0     C21691   1.343  10.247   6.661  0.5479  0.0783 -0.5257
  902MOL0     C21692   1.439  10.233   6.563 -0.6352  0.5340 -0.2161
  902MOL0     O21693   1.447  10.336   6.472  0.9193 -0.2237 -0.3888
  902MOL0     C21694   1.551  10.334   6.373 -0.0716 -0.2632  0.3503
  902MOL0     C21695   1.552  10.470   6.301 -0.5939 -0.2764 -0.2487
  902MOL0     C21696   1.675  10.486   6.214  0.4338  0.0151  0.3431
  902MOL0     C21697   1.712  10.640   6.194 -0.0036  0.0342 -1.1896
  902MOL0     C21698   1.779  10.665   6.069 -0.1128 -0.9691 -0.0458
  902MOL0     C21699   1.841  10.681   5.968  0.1149  0.6585 -0.3393
  902MOL0     C21700   1.517  10.112   6.558  0.9286  0.3977 -0.1036
  902MOL0     C21701   1.491  10.011   6.658  1.6016 -0.7828  0.1093
  902MOL0     C21702   1.588   9.899   6.644  0.3830  0.4756 -0.2080
  902MOL0     H21703   1.660   9.721   6.972 -1.3905 -4.8129 -1.9008
  902MOL0     H21704   1.679   9.598   7.195 -0.3643 -1.5187 -0.1866
  902MOL0     H21705   1.465   9.644   7.506 -2.8007 -0.1757  4.7114
  902MOL0     H21706   1.307   9.605   7.434 -1.1073 -3.0932  1.3191
  902MOL0     H21707   1.322   9.380   7.479 -1.1683  0.7320  0.6042
  902MOL0     H21708   1.305   9.485   7.612 -2.0249  2.0014 -3.4502
  902MOL0     H21709   1.530   9.440   7.706  2.5599 -2.6280  1.6053
  902MOL0     H21710   1.567   9.350   7.562  0.4881  1.4675  0.3275
  902MOL0     H21711   1.366   9.204   7.615 -0.1005  0.4822 -1.0032
  902MOL0     H21712   1.501   9.188   7.722  0.1469  0.9261  0.8347
  902MOL0     H21713   1.272   9.375   7.800 -1.8814  0.4439  1.0381
  902MOL0     H21714   1.267   9.196   7.808  0.6474  0.2953  0.0007
  902MOL0     H21715   1.516   9.234   7.923 -0.0395  0.7130 -0.0958
  902MOL0     H21716   1.456   9.397   7.933  2.7322 -0.1688 -2.3016
  902MOL0     H21717   1.242   9.237   8.051 -0.1581  0.6609 -1.6571
  902MOL0     H21718   1.359   9.341   8.135  0.3244  0.4508 -1.5069
  902MOL0     H21719   1.405   9.064   8.036 -1.2713 -0.5021  0.1191
  902MOL0     H21720   1.512   9.145   8.151 -0.3276 -1.5316  1.3132
  902MOL0     H21721   1.453   9.168   8.400  1.3377 -1.9004  0.1969
  902MOL0     H21722   1.182   8.947   8.606  0.4335  0.3915  1.7432
  902MOL0     H21723   1.334   8.988   8.632  0.4856  0.1772 -0.5151
  902MOL0     H21724   1.276   9.232   8.639  0.9209 -0.4849  1.2815
  902MOL0     H21725   1.115   9.205   8.585 -3.1791 -3.1052  0.1257
  902MOL0     H21726   1.155   9.267   8.808  0.7218  0.5682 -3.7703
  902MOL0     H21727   1.202   9.104   8.857  1.2938  1.1963 -0.1478
  902MOL0     H21728   0.930   9.177   8.744  0.7241  1.5089  0.0520
  902MOL0     H21729   0.976   9.138   8.908 -1.2772 -0.3031  0.1479
  902MOL0     H21730   1.179   8.883   8.940 -0.3078  2.3455  1.1390
  902MOL0     H21731   1.133   8.752   9.142  0.0716 -1.7434 -0.3057
  902MOL0     H21732   0.904   8.452   9.448  0.2877  0.7876  1.6178
  902MOL0     H21733   0.816   8.355   9.650 -0.3374  0.8096  0.4603
  902MOL0     H21734   0.524   8.520   9.855 -1.9872  0.0994 -1.1628
  902MOL0     H21735   0.397   8.401   9.808 -0.8695 -2.4541  2.1072
  902MOL0     H21736   0.614   8.355  10.002  0.3860  0.9695 -0.7320
  902MOL0     H21737   0.444   8.361  10.029 -0.6260 -1.1991  0.6501
  902MOL0     H21738   0.573   8.147   9.851  0.2059 -0.4566  0.1092
  902MOL0     H21739   0.546   8.137  10.029  2.2025 -1.7982 -0.8811
  902MOL0     H21740   0.308   8.153   9.827  2.3801 -1.9292 -1.7086
  902MOL0     H21741   0.308   8.155  10.004 -0.7609 -3.2325  0.3108
  902MOL0     H21742   0.391   7.934   9.820 -1.5107 -1.2419 -1.0510
  902MOL0     H21743   0.244   7.941   9.918  0.0354 -1.8976  1.0913
  902MOL0     H21744   0.522   7.872  10.007  0.5664  1.3416 -0.8830
  902MOL0     H21745   0.415   7.951  10.117 -1.9622  0.0472  0.6383
  902MOL0     H21746   0.364   7.693   9.942 -0.4209  0.9931 -0.9928
  902MOL0     H21747   0.241   7.766  10.035  0.4159 -0.8034 -2.2684
  902MOL0     H21748   0.355   7.724  10.245 -0.4784  0.8804 -1.5468
  902MOL0     H21749   0.326   7.576  10.177 -1.6269  0.3394  0.6114
  902MOL0     H21750   0.430   8.550   9.591  0.2447 -0.8502  2.2498
  902MOL0     H21751   0.525   8.680   9.419  0.9241  1.4807  0.5955
  902MOL0     H21752   0.715   8.767   9.043  0.4826 -0.2146  2.2316
  902MOL0     H21753   0.762   8.896   8.859  1.5934 -1.9536 -2.3084
  902MOL0     H21754   1.264   9.550   7.215 -0.7770  1.5193  0.8200
  902MOL0     H21755   1.234   9.725   7.020  0.8948  0.5245 -2.1958
  902MOL0     H21756   1.241  10.161   6.835  0.1568 -1.0390  0.5217
  902MOL0     H21757   1.291  10.343   6.661  1.8636  0.9022  2.3982
  902MOL0     H21758   1.529  10.260   6.295 -1.8182  2.3756 -1.8899
  902MOL0     H21759   1.650  10.319   6.415  0.0622  2.3297  1.1314
  902MOL0     H21760   1.535  10.551   6.373  2.2524  0.5986 -0.4486
  902MOL0     H21761   1.455  10.471   6.251 -3.6091 -2.6583  4.7523
  902MOL0     H21762   1.646  10.449   6.115 -0.5359  0.0593  0.6043
  902MOL0     H21763   1.759  10.431   6.258  1.3938  2.4676  1.7366
  902MOL0     H21764   1.618  10.696   6.193 -0.4339 -0.5936  0.6460
  902MOL0     H21765   1.771  10.676   6.279 -2.0075  1.9384 -0.4984
  902MOL0     H21766   1.897  10.691   5.877  1.0490  0.6517  0.2285
  902MOL0     H21767   1.599  10.096   6.488  0.9600  0.3493 -0.0564
  902MOL0     H21768   1.631   9.875   6.742  0.8529  1.7429 -0.0824
  902MOL0     H21769   1.542   9.808   6.604 -0.7149  0.8496  0.1737
  902MOL0     H21770   1.674   9.931   6.584 -1.0416  1.5974 -1.7420
  903MOL0     O21771   0.312   9.072   9.561  0.5696 -0.7081  0.4594
  903MOL0     C21772   0.406   9.033   9.627 -0.3164 -0.6340 -0.8925
  903MOL0     O21773   0.397   9.008   9.761 -0.4600  0.0013 -0.1824
  903MOL0     C21774   0.287   9.010   9.837  0.0528  0.3933 -0.1292
  903MOL0     C21775   0.270   9.111   9.935  0.9736 -0.2204  0.3131
  903MOL0     C21776   0.172   9.090  10.028  1.0172  0.2128 -0.5720
  903MOL0     C21777   0.082   8.978  10.025 -0.6654 -0.5265  0.0199
  903MOL0     O21778  -0.022   8.964  10.112  0.6768  0.3241  0.3161
  903MOL0     C21779   0.006   8.941  10.252  0.6178  0.4598 -0.0880
  903MOL0     C21780  -0.039   8.799  10.283  0.5832  0.0035 -0.1176
  903MOL0     C21781  -0.187   8.763  10.274 -0.1396 -0.1962  0.7933
  903MOL0     C21782  -0.275   8.834  10.377 -0.6828  0.1983 -0.0529
  903MOL0     C21783  -0.418   8.797  10.365  0.3385  0.4687 -0.0128
  903MOL0     C21784  -0.505   8.879  10.264  0.0821 -0.2522  0.0059
  903MOL0     C21785  -0.512   9.029  10.294 -0.7772 -0.7795 -0.2810
  903MOL0     C21786  -0.639   9.083  10.227  0.7472 -0.2700 -0.9415
  903MOL0     N21787  -0.689   9.205  10.299 -0.1740 -0.2476 -0.2162
  903MOL0     C21788  -0.700   9.335  10.262  0.5870 -0.4206  0.4414
  903MOL0     C21789  -0.769   9.400  10.364 -0.3324 -0.6299 -0.8789
  903MOL0     C21790  -0.813   9.553  10.362 -0.3233 -0.1547 -0.0650
  903MOL0     C21791  -0.956   9.550  10.401  0.5547  0.0532 -0.4241
  903MOL0     C21792  -1.013   9.686  10.442  1.1459  0.1806 -0.3319
  903MOL0     C21793  -1.028   9.770  10.317 -0.7550 -0.4058 -0.8770
  903MOL0     O21794  -0.909   9.849  10.300  0.4932  0.1425 -0.1391
  903MOL0     C21795  -0.900   9.911  10.175 -0.8001  0.1171 -0.4265
  903MOL0     C21796  -0.766   9.963  10.151 -0.0662  1.2288  0.0131
  903MOL0     C21797  -0.744  10.031  10.034 -0.5098  0.0099 -0.1755
  903MOL0     C21798  -0.843  10.034   9.931 -0.2226 -0.9351 -0.8844
  903MOL0     C21799  -0.820  10.095   9.797 -0.0649 -0.5424 -0.4451
  903MOL0     O21800  -0.920  10.086   9.706 -0.7521  0.6033  0.6252
  903MOL0     C21801  -0.881  10.129   9.579  1.2446 -0.6063 -0.2716
  903MOL0     C21802  -0.790  10.057   9.508  0.0267  0.7623 -0.3134
  903MOL0     C21803  -0.726  10.110   9.391 -0.0094  0.2805  0.0131
  903MOL0     C21804  -0.757  10.239   9.342  0.0195  0.1396  0.2243
  903MOL0     O21805  -0.690  10.294   9.234  0.5807 -0.0078  0.4193
  903MOL0     C21806  -0.748  10.417   9.180  0.6866 -0.6574 -0.4324
  903MOL0     C21807  -0.646  10.475   9.082  0.0781  0.8628 -0.0099
  903MOL0     C21808  -0.676  10.601   9.007  0.2440  0.0574 -0.1203
  903MOL0     C21809  -0.617  10.718   9.083  0.1124 -0.0679 -0.8476
  903MOL0     C21810  -0.635  10.846   8.997  1.2124  0.1815  0.1986
  903MOL0     C21811  -0.540  10.955   9.053  0.4308 -0.6058 -0.3918
  903MOL0     C21812  -0.537  11.093   8.970 -0.2025 -0.4289 -0.9102
  903MOL0     C21813  -0.478  11.081   8.832 -0.1666 -0.0086  0.2596
  903MOL0    Cl21814  -0.478  11.238   8.756  0.0062 -0.0233 -0.3290
  903MOL0     C21815  -0.850  10.315   9.422 -0.2702  0.0693 -0.1312
  903MOL0     C21816  -0.905  10.259   9.544  0.3372  0.1518 -0.1076
  903MOL0     O21817  -0.711  10.149   9.792  0.6842 -0.4775 -0.4620
  903MOL0     C21818  -0.966   9.980   9.958  0.4003  0.1182 -0.1511
  903MOL0     C21819  -0.997   9.933  10.083  0.2102 -0.1528  0.0886
  903MOL0     N21820  -0.781   9.304  10.467 -0.0516  0.7435 -0.4397
  903MOL0     N21821  -0.746   9.191  10.416 -0.8441 -0.6665 -0.6111
  903MOL0     C21822   0.096   8.887   9.916 -0.2599  0.7832  0.2176
  903MOL0     C21823   0.205   8.899   9.832  0.7612  0.8610 -0.1335
  903MOL0     C21824   0.538   9.021   9.555 -0.6191  0.7954  0.7854
  903MOL0     C21825   0.554   9.071   9.428  0.5374 -0.2429  0.9023
  903MOL0     C21826   0.675   9.087   9.358 -0.0758 -0.3246 -0.4345
  903MOL0     C21827   0.792   9.028   9.403  1.0997 -0.2305 -0.1011
  903MOL0     O21828   0.915   9.028   9.346  0.2007  0.2199  0.1160
  903MOL0     C21829   0.936   9.121   9.238  0.0593 -0.3349  1.3525
  903MOL0     C21830   0.977   9.272   9.267 -0.1509  0.5996 -0.4353
  903MOL0     C21831   0.895   9.375   9.191  0.3366  0.3513 -0.2441
  903MOL0     C21832   0.954   9.515   9.214  0.0820 -1.2261 -0.2832
  903MOL0     C21833   1.077   9.542   9.138  0.2530  0.5190 -0.2790
  903MOL0     C21834   1.170   9.545   9.062 -0.7439 -0.4430 -0.3512
  903MOL0     C21835   0.783   8.975   9.531  0.0444  0.2900  0.4385
  903MOL0     C21836   0.664   8.976   9.608  1.0345 -0.7462  0.2458
  903MOL0     C21837   0.673   8.919   9.750  0.5666 -0.3311 -0.5373
  903MOL0     H21838   0.338   9.195   9.934  1.3545 -0.2968 -4.5392
  903MOL0     H21839   0.149   9.158  10.108 -1.0692  1.3743 -2.0680
  903MOL0     H21840   0.114   8.955  10.257  0.4650  1.4717  0.7164
  903MOL0     H21841  -0.040   9.024  10.307 -1.7552  0.8588 -2.4249
  903MOL0     H21842   0.001   8.777  10.382 -0.8978 -1.7893  0.1500
  903MOL0     H21843   0.006   8.742  10.201 -0.1611  1.9529 -1.9835
  903MOL0     H21844  -0.208   8.657  10.292 -2.6126 -0.2532 -1.7591
  903MOL0     H21845  -0.215   8.786  10.171  3.7060 -3.6796 -1.3234
  903MOL0     H21846  -0.245   8.800  10.476  1.4640 -3.6647 -1.8205
  903MOL0     H21847  -0.265   8.942  10.362  1.7699 -0.3744 -3.7912
  903MOL0     H21848  -0.443   8.692  10.349 -0.1742  0.1927  2.3005
  903MOL0     H21849  -0.453   8.828  10.464  1.0417  1.7133 -0.1310
  903MOL0     H21850  -0.472   8.859  10.161 -1.9977 -1.0715 -0.5479
  903MOL0     H21851  -0.606   8.838  10.266 -0.6171  1.1563 -2.2502
  903MOL0     H21852  -0.420   9.074  10.256  0.3983 -1.6208  1.4349
  903MOL0     H21853  -0.524   9.048  10.401 -1.8263 -0.8032 -0.3770
  903MOL0     H21854  -0.613   9.112  10.124 -2.8914  1.4694 -1.5341
  903MOL0     H21855  -0.718   9.010  10.210 -1.3276  2.0065 -1.6425
  903MOL0     H21856  -0.683   9.371  10.161 -1.1839 -1.7116 -0.3788
  903MOL0     H21857  -0.755   9.622  10.423  0.3722 -0.8074  0.0349
  903MOL0     H21858  -0.806   9.593  10.260 -1.1511 -0.6663 -0.3392
  903MOL0     H21859  -1.012   9.500  10.321 -1.6182 -1.4561  1.8883
  903MOL0     H21860  -0.973   9.496  10.494 -1.5924  1.5678  0.1255
  903MOL0     H21861  -0.957   9.736  10.521  1.9969 -1.6584  0.2935
  903MOL0     H21862  -1.116   9.667  10.473  0.0641 -1.1762 -4.1422
  903MOL0     H21863  -1.111   9.841  10.320  0.2099  0.7959 -1.5378
  903MOL0     H21864  -1.035   9.707  10.228 -0.2598 -1.7396 -0.0005
  903MOL0     H21865  -0.695   9.927  10.225  0.9481 -5.4220 -3.3549
  903MOL0     H21866  -0.653  10.086  10.014  1.3893 -2.4791  1.0708
  903MOL0     H21867  -0.757   9.961   9.545  0.3441  0.4880 -1.2619
  903MOL0     H21868  -0.642  10.053   9.354 -0.7964 -2.4967  2.1445
  903MOL0     H21869  -0.840  10.394   9.126 -0.4525  3.4332 -0.5694
  903MOL0     H21870  -0.755  10.490   9.261 -0.0513 -2.3752  1.1098
  903MOL0     H21871  -0.553  10.479   9.140 -0.6797  0.3614  1.3030
  903MOL0     H21872  -0.643  10.399   9.003 -2.0647  0.3477  0.3377
  903MOL0     H21873  -0.623  10.609   8.912  0.9858  0.9183  0.3509
  903MOL0     H21874  -0.782  10.604   8.980  0.5083  1.0295 -1.1077
  903MOL0     H21875  -0.514  10.699   9.113 -1.1071 -3.7126  1.8034
  903MOL0     H21876  -0.664  10.716   9.182  2.2624  1.7635  0.3171
  903MOL0     H21877  -0.741  10.868   8.982  0.7436 -1.1689  1.3444
  903MOL0     H21878  -0.602  10.836   8.893  2.7402  0.9993  0.5806
  903MOL0     H21879  -0.574  10.979   9.154  0.0963  3.0840 -1.2053
  903MOL0     H21880  -0.437  10.920   9.048  0.4646 -0.6549  0.5616
  903MOL0     H21881  -0.481  11.169   9.026 -0.9241  0.8209 -1.8439
  903MOL0     H21882  -0.642  11.124   8.971  0.3227  1.5572 -1.5293
  903MOL0     H21883  -0.385  11.023   8.830 -0.4403 -0.5459 -3.5637
  903MOL0     H21884  -0.548  11.020   8.775 -0.8852  0.4756  0.6114
  903MOL0     H21885  -0.878  10.415   9.390  0.1882 -0.2964 -1.8054
  903MOL0     H21886  -0.967  10.328   9.600 -1.0881 -0.3783 -0.9669
  903MOL0     H21887  -1.054   9.998   9.898  0.6537  1.1016 -0.2346
  903MOL0     H21888  -1.099   9.903  10.099 -0.3970  1.5426 -0.3300
  903MOL0     H21889   0.036   8.797   9.918  2.3065 -1.0414 -0.0008
  903MOL0     H21890   0.224   8.818   9.762 -3.0111 -3.2550  3.0453
  903MOL0     H21891   0.474   9.115   9.369  0.6334 -1.6467 -0.3275
  903MOL0     H21892   0.679   9.136   9.261  1.1733 -1.2874 -0.8879
  903MOL0     H21893   0.848   9.129   9.173  0.7053 -2.3578  0.1209
  903MOL0     H21894   1.015   9.073   9.179 -0.7203 -1.2940  1.0695
  903MOL0     H21895   1.082   9.279   9.237  1.1369 -0.2927  3.2576
  903MOL0     H21896   0.973   9.291   9.375  0.4109  2.0220 -0.6380
  903MOL0     H21897   0.789   9.358   9.216 -0.2754 -0.6333 -3.0655
  903MOL0     H21898   0.907   9.344   9.087  0.7472  1.3067 -0.4900
  903MOL0     H21899   0.867   9.580   9.196  2.5126  2.2812 -0.4120
  903MOL0     H21900   0.980   9.524   9.320 -1.8463  2.0216  0.0574
  903MOL0     H21901   1.258   9.553   9.001 -0.3314 -1.4848  0.0734
  903MOL0     H21902   0.877   8.951   9.580 -1.8489 -4.8082  2.1978
  903MOL0     H21903   0.638   8.988   9.827  1.4731 -1.2794  0.7515
  903MOL0     H21904   0.616   8.828   9.765  0.4393 -0.4698 -1.7784
  903MOL0     H21905   0.775   8.896   9.784 -0.2228 -0.7385  1.7257
  904MOL0     O21906   0.210   5.981   9.487 -0.8777 -0.3532 -0.5289
  904MOL0     C21907   0.087   5.991   9.474 -0.0056  0.6808 -0.2827
  904MOL0     O21908   0.016   5.900   9.401  0.1056 -0.2997 -0.1655
  904MOL0     C21909   0.068   5.775   9.379 -0.1822 -0.3447  1.3010
  904MOL0     C21910   0.125   5.695   9.481  1.1215  0.0364 -0.0928
  904MOL0     C21911   0.181   5.574   9.432  0.4116  0.2449 -0.9820
  904MOL0     C21912   0.186   5.537   9.298 -0.6838 -0.2120  1.2095
  904MOL0     O21913   0.246   5.410   9.269  0.0198 -0.2355  0.3920
  904MOL0     C21914   0.284   5.377   9.129 -0.2328 -0.2149 -0.1075
  904MOL0     C21915   0.377   5.260   9.127  0.4773  0.1157  1.0396
  904MOL0     C21916   0.510   5.290   9.197  0.4676  0.5185 -0.3023
  904MOL0     C21917   0.595   5.174   9.235 -0.1943  0.4319 -0.0093
  904MOL0     C21918   0.685   5.204   9.360  0.8569  0.2059  0.5300
  904MOL0     C21919   0.737   5.063   9.411  0.3003 -0.1493 -1.2577
  904MOL0     C21920   0.813   5.091   9.546  0.4280 -0.0371 -0.0814
  904MOL0     C21921   0.721   5.078   9.664  0.3980  0.0562 -0.4272
  904MOL0     N21922   0.779   5.110   9.791 -0.5058  0.0034  0.1633
  904MOL0     C21923   0.913   5.147   9.816  0.4586  0.1466  0.4099
  904MOL0     C21924   0.919   5.176   9.946  0.1583 -0.5432 -0.7601
  904MOL0     C21925   1.045   5.226  10.009  0.0974 -0.3120  0.3135
  904MOL0     C21926   1.031   5.369  10.050  0.1479  0.2741  0.6233
  904MOL0     C21927   0.987   5.387  10.196 -0.0561 -0.1769  0.2206
  904MOL0     C21928   0.967   5.528  10.248 -0.9277 -1.1115  0.3653
  904MOL0     O21929   0.870   5.620  10.194  0.5984 -0.6990  0.5123
  904MOL0     C21930   0.740   5.612  10.225 -0.2595  0.5482  0.5086
  904MOL0     C21931   0.668   5.713  10.166  0.3863  0.4400 -0.0266
  904MOL0     C21932   0.542   5.746  10.201 -0.6269 -0.1821  0.2165
  904MOL0     C21933   0.488   5.673  10.315  0.0431  0.1832  0.3226
  904MOL0     C21934   0.351   5.705  10.358 -0.2371 -0.3605  1.1508
  904MOL0     O21935   0.311   5.667  10.479 -0.6688  0.3995  0.0042
  904MOL0     C21936   0.186   5.676  10.529  0.3795 -0.2213  0.7878
  904MOL0     C21937   0.068   5.697  10.459 -0.0640  0.9199 -0.4250
  904MOL0     C21938  -0.053   5.686  10.527  1.3382  0.6889  0.3091
  904MOL0     C21939  -0.066   5.678  10.659 -0.1023  0.1326  0.2997
  904MOL0     O21940  -0.188   5.689  10.713  0.0081 -0.5097  0.2172
  904MOL0     C21941  -0.206   5.791  10.813  0.4944 -0.5184  0.3316
  904MOL0     C21942  -0.358   5.816  10.822  1.3102  0.3452 -0.0251
  904MOL0     C21943  -0.375   5.934  10.918 -0.0774 -0.9090  0.3362
  904MOL0     C21944  -0.522   5.986  10.903 -0.0456  0.0464  0.2230
  904MOL0     C21945  -0.563   6.125  10.952  0.8501  0.6950  0.2441
  904MOL0     C21946  -0.548   6.154  11.104 -0.0577  0.1948  0.3137
  904MOL0     C21947  -0.639   6.266  11.159  0.3179 -0.2778 -0.0326
  904MOL0     C21948  -0.784   6.255  11.113  0.1921  1.2302 -0.6762
  904MOL0    Cl21949  -0.847   6.087  11.101 -0.0439  0.4566 -0.0336
  904MOL0     C21950   0.052   5.685  10.732 -0.2443 -1.3123 -0.5516
  904MOL0     C21951   0.172   5.668  10.670  0.1234  0.5738  0.5254
  904MOL0     O21952   0.291   5.794  10.288  0.2101  0.1100 -0.5075
  904MOL0     C21953   0.547   5.565  10.367 -0.5387  0.1233 -0.1388
  904MOL0     C21954   0.672   5.529  10.322 -0.5081 -1.4287  0.6621
  904MOL0     N21955   0.794   5.161  10.006  0.5239 -0.3635 -0.0989
  904MOL0     N21956   0.715   5.115   9.906  0.0690 -0.0522  1.6222
  904MOL0     C21957   0.131   5.625   9.202  1.0894 -0.3158  0.2792
  904MOL0     C21958   0.072   5.738   9.242 -0.1652 -0.1825  0.3408
  904MOL0     C21959   0.026   6.115   9.547  0.3078 -0.5128  0.0687
  904MOL0     C21960   0.092   6.155   9.663 -0.6354 -0.4489 -0.0106
  904MOL0     C21961   0.047   6.259   9.741 -0.7718  0.1133 -0.3001
  904MOL0     C21962  -0.053   6.334   9.694 -0.3525  0.7539  0.2468
  904MOL0     O21963  -0.100   6.452   9.750 -0.0822  0.6979  0.5908
  904MOL0     C21964  -0.130   6.440   9.888  0.9517  0.0212 -0.8298
  904MOL0     C21965  -0.266   6.374   9.884 -0.4080 -0.5581 -0.5365
  904MOL0     C21966  -0.377   6.460   9.820  0.3216  0.5870 -0.2527
  904MOL0     C21967  -0.406   6.588   9.900  0.5679  0.2871  0.8680
  904MOL0     C21968  -0.522   6.650   9.832 -0.5783 -0.9311  1.1539
  904MOL0     C21969  -0.621   6.680   9.764  0.8901  0.3679  1.2420
  904MOL0     C21970  -0.115   6.306   9.569 -0.9181  0.5901  0.3741
  904MOL0     C21971  -0.083   6.194   9.506  0.4614  0.5075  0.0933
  904MOL0     C21972  -0.142   6.167   9.365  0.2070  0.4211 -0.7798
  904MOL0     H21973   0.118   5.729   9.584  0.4393  1.5292 -0.5993
  904MOL0     H21974   0.230   5.500   9.494  0.9666  1.2083 -0.2628
  904MOL0     H21975   0.189   5.358   9.077 -0.5687 -0.3896  0.5634
  904MOL0     H21976   0.340   5.457   9.080 -0.6455  0.1416 -0.0038
  904MOL0     H21977   0.398   5.213   9.031  0.7966 -1.9287  2.0655
  904MOL0     H21978   0.321   5.189   9.189 -0.3361  1.1016  1.4680
  904MOL0     H21979   0.485   5.345   9.289 -1.1966 -1.2478  0.3573
  904MOL0     H21980   0.572   5.350   9.131  2.4402 -1.6395 -0.5349
  904MOL0     H21981   0.534   5.090   9.269 -0.9479  0.8981 -0.1920
  904MOL0     H21982   0.653   5.146   9.146 -0.7446 -2.0654  0.3581
  904MOL0     H21983   0.766   5.271   9.330 -0.5650  1.1173 -1.5426
  904MOL0     H21984   0.629   5.265   9.431 -1.0469  0.1782 -0.8387
  904MOL0     H21985   0.649   5.001   9.429 -1.1124  1.2219 -3.1077
  904MOL0     H21986   0.813   5.029   9.340 -0.9953  1.3872 -3.4996
  904MOL0     H21987   0.862   5.188   9.550 -3.3613  2.0978  4.2965
  904MOL0     H21988   0.885   5.009   9.553 -0.9255 -1.3678 -0.9562
  904MOL0     H21989   0.632   5.141   9.654 -0.4089 -0.9194  0.4372
  904MOL0     H21990   0.676   4.979   9.669 -2.3111  1.2105 -0.3534
  904MOL0     H21991   0.990   5.146   9.738 -0.1616 -1.3824 -0.2333
  904MOL0     H21992   1.079   5.165  10.094 -0.2206 -0.9202  0.0137
  904MOL0     H21993   1.124   5.202   9.938  0.6034 -2.9729  1.6351
  904MOL0     H21994   1.129   5.419  10.048 -0.4356  1.4304  0.4122
  904MOL0     H21995   0.963   5.426   9.986  0.8300  0.0052 -0.3664
  904MOL0     H21996   1.068   5.353  10.261  1.2041  1.3336 -0.4914
  904MOL0     H21997   0.906   5.316  10.212  0.8300 -1.1236  0.6390
  904MOL0     H21998   1.063   5.580  10.259 -1.0972 -0.7744  0.2465
  904MOL0     H21999   0.942   5.503  10.351 -0.0153  3.1521  1.8422
  904MOL0     H22000   0.719   5.763  10.084 -0.3317 -0.1833 -0.8719
  904MOL0     H22001   0.493   5.822  10.141 -0.3978  0.5654  0.9565
  904MOL0     H22002   0.055   5.693  10.352 -2.9550 -0.0914 -0.1353
  904MOL0     H22003  -0.140   5.694  10.462  2.0079  0.1171 -0.6852
  904MOL0     H22004  -0.174   5.748  10.908  1.2618 -0.9882 -0.1275
  904MOL0     H22005  -0.153   5.883  10.785 -0.2782 -0.6266 -1.7019
  904MOL0     H22006  -0.391   5.853  10.724  1.2794  1.7564  0.4878
  904MOL0     H22007  -0.411   5.726  10.852  0.6000  0.1391 -1.7564
  904MOL0     H22008  -0.343   5.897  11.016  3.8776 -0.9980 -0.8325
  904MOL0     H22009  -0.303   6.014  10.899 -0.4961 -0.4437  0.6585
  904MOL0     H22010  -0.576   5.902  10.949 -0.8759  0.7558  0.5671
  904MOL0     H22011  -0.547   5.970  10.798  0.4174 -1.6437  0.3318
  904MOL0     H22012  -0.669   6.127  10.925  1.1166 -4.0839 -2.2369
  904MOL0     H22013  -0.530   6.203  10.883 -3.5702 -1.3341 -4.8845
  904MOL0     H22014  -0.578   6.062  11.154 -4.2462  0.4787 -1.2579
  904MOL0     H22015  -0.446   6.186  11.125  0.0398  1.1805 -1.4100
  904MOL0     H22016  -0.608   6.366  11.129 -1.9507  0.2122 -0.8831
  904MOL0     H22017  -0.644   6.262  11.268 -2.0357 -0.6745 -0.1159
  904MOL0     H22018  -0.845   6.324  11.172 -0.1718 -0.6235  1.2428
  904MOL0     H22019  -0.789   6.282  11.007  0.9955  3.1657 -0.2666
  904MOL0     H22020   0.053   5.687  10.840  0.4022 -0.1977 -0.5685
  904MOL0     H22021   0.266   5.654  10.721  0.5432 -0.9839 -0.5883
  904MOL0     H22022   0.496   5.506  10.443 -1.1681  0.8976  0.0566
  904MOL0     H22023   0.732   5.443  10.350  2.7250  0.1791 -0.7994
  904MOL0     H22024   0.138   5.606   9.095  3.6756 -0.4918  0.4005
  904MOL0     H22025   0.030   5.809   9.171 -0.1381  1.5514  1.9960
  904MOL0     H22026   0.173   6.088   9.692 -2.7835 -3.3398 -0.1578
  904MOL0     H22027   0.102   6.286   9.831 -2.3189 -1.3482  1.1303
  904MOL0     H22028  -0.136   6.539   9.934  1.6852 -0.5840  0.6180
  904MOL0     H22029  -0.056   6.387   9.948  0.8374  1.0647  0.2701
  904MOL0     H22030  -0.298   6.352   9.986 -0.4177  1.7276 -0.0014
  904MOL0     H22031  -0.243   6.273   9.848 -1.3125 -2.2359  3.1273
  904MOL0     H22032  -0.463   6.394   9.836  2.0639 -1.9023 -0.5330
  904MOL0     H22033  -0.366   6.472   9.712 -1.2442 -2.6460 -0.8811
  904MOL0     H22034  -0.425   6.562  10.004 -2.3181  3.3301  1.2798
  904MOL0     H22035  -0.318   6.653   9.913  1.5870 -1.1707  1.4474
  904MOL0     H22036  -0.711   6.698   9.709  0.3606 -6.0294 -0.8101
  904MOL0     H22037  -0.179   6.387   9.537  0.0206  1.2663  0.1545
  904MOL0     H22038  -0.222   6.235   9.334  0.2387  0.1087 -1.5833
  904MOL0     H22039  -0.068   6.179   9.286  2.1859  1.6881  1.1526
  904MOL0     H22040  -0.189   6.068   9.371 -2.4796  1.6393 -0.3433
  905MOL0     O22041   3.438   7.609   6.699 -0.3112  0.1586  0.2958
  905MOL0     C22042   3.529   7.689   6.670 -0.0077  0.9320  0.9949
  905MOL0     O22043   3.520   7.821   6.655 -0.1460 -0.3658 -0.3836
  905MOL0     C22044   3.404   7.881   6.684  0.0186  0.8930  1.2073
  905MOL0     C22045   3.278   7.855   6.629  0.7605  0.1671 -0.3694
  905MOL0     C22046   3.173   7.942   6.650  0.2480  0.8245  0.3821
  905MOL0     C22047   3.187   8.059   6.718  0.3262  0.0542  1.1248
  905MOL0     O22048   3.066   8.128   6.733 -0.2457  0.5172 -0.2814
  905MOL0     C22049   3.070   8.258   6.801 -0.4466  0.0792  0.4244
  905MOL0     C22050   2.931   8.308   6.767 -0.0315 -0.7529  0.3253
  905MOL0     C22051   2.833   8.249   6.870 -0.1460 -0.6730 -0.3792
  905MOL0     C22052   2.694   8.316   6.858 -0.1418  0.2873 -0.2006
  905MOL0     C22053   2.616   8.279   6.983  0.5358  0.1727  0.3329
  905MOL0     C22054   2.473   8.332   6.984  1.0580 -0.1076  0.4514
  905MOL0     C22055   2.394   8.306   7.123  0.4619 -1.1745 -0.4492
  905MOL0     C22056   2.316   8.175   7.139 -1.2452  0.8307 -0.1522
  905MOL0     N22057   2.221   8.161   7.030 -1.3407  0.2458  0.2767
  905MOL0     C22058   2.129   8.262   6.990  1.7823  0.4468 -0.9433
  905MOL0     C22059   2.022   8.190   6.944  0.7683  0.2537 -0.1056
  905MOL0     C22060   1.901   8.254   6.880  0.4047  0.0922  0.0929
  905MOL0     C22061   1.833   8.181   6.763  0.3522 -0.5502 -0.6183
  905MOL0     C22062   1.729   8.081   6.813 -0.3499  0.4142 -0.3123
  905MOL0     C22063   1.644   8.001   6.712 -0.5290  0.8585 -0.2312
  905MOL0     O22064   1.598   8.079   6.593 -0.0108 -0.0131  0.0421
  905MOL0     C22065   1.600   8.011   6.472  0.0213  0.0891  0.4807
  905MOL0     C22066   1.608   8.098   6.364 -0.4027 -0.6862  0.0394
  905MOL0     C22067   1.603   8.037   6.231  0.1280  0.1178  0.7440
  905MOL0     C22068   1.581   7.903   6.212 -0.3387 -0.1142 -0.9747
  905MOL0     C22069   1.570   7.846   6.084  0.2473  0.5599  0.0851
  905MOL0     O22070   1.576   7.710   6.083  0.1453  0.1434 -0.5490
  905MOL0     C22071   1.541   7.651   5.963  0.7071 -0.4077 -0.3283
  905MOL0     C22072   1.414   7.601   5.938 -1.4224  0.3166  0.7320
  905MOL0     C22073   1.374   7.552   5.812  0.5729 -0.0842  0.0365
  905MOL0     C22074   1.460   7.552   5.699  0.0462 -0.5451 -0.0294
  905MOL0     O22075   1.413   7.493   5.582 -0.2458 -0.6638 -0.2347
  905MOL0     C22076   1.512   7.485   5.478 -0.0750  0.4091 -1.2350
  905MOL0     C22077   1.440   7.445   5.347  0.9978 -0.8378  0.3172
  905MOL0     C22078   1.335   7.549   5.293 -0.3778 -0.5208  1.0517
  905MOL0     C22079   1.372   7.634   5.174 -0.5437 -0.8122 -1.0655
  905MOL0     C22080   1.260   7.719   5.120 -0.5108 -0.3350  0.6132
  905MOL0     C22081   1.207   7.824   5.222 -0.3104  0.3663  0.2726
  905MOL0     C22082   1.102   7.921   5.157  0.5607 -0.8379  0.2812
  905MOL0     C22083   1.073   8.032   5.261  0.1449  0.5217  0.7796
  905MOL0    Cl22084   1.038   8.192   5.168  0.7091 -0.3344 -0.1979
  905MOL0     C22085   1.592   7.604   5.729  1.0459  0.1139  0.3470
  905MOL0     C22086   1.624   7.655   5.852 -0.4716 -0.1966  0.3254
  905MOL0     O22087   1.544   7.915   5.989 -0.4873  0.1941 -0.2185
  905MOL0     C22088   1.574   7.824   6.330 -0.0895  0.2484  0.1261
  905MOL0     C22089   1.579   7.879   6.459 -0.2240  0.8371  0.3295
  905MOL0     N22090   2.052   8.060   6.959 -0.0422 -0.2225 -0.6004
  905MOL0     N22091   2.164   8.041   7.017 -0.6380  0.2245  0.8906
  905MOL0     C22092   3.316   8.099   6.763 -0.1388  0.4680  0.0589
  905MOL0     C22093   3.426   8.004   6.750 -1.1629 -0.6709  1.3321
  905MOL0     C22094   3.664   7.613   6.651  0.3248 -0.1065  0.4664
  905MOL0     C22095   3.683   7.510   6.556  0.2076 -0.8654 -0.2855
  905MOL0     C22096   3.796   7.437   6.568  0.2116  0.0210  0.6128
  905MOL0     C22097   3.898   7.472   6.651 -0.5638 -0.0383 -0.6903
  905MOL0     O22098   4.018   7.413   6.656  0.3015  0.0496  0.5658
  905MOL0     C22099   4.025   7.285   6.602  0.9498  0.4264 -0.1305
  905MOL0     C22100   4.148   7.217   6.641  0.4757  0.1246 -1.2567
  905MOL0     C22101   4.279   7.290   6.585 -0.1373  0.1839 -0.5903
  905MOL0     C22102   4.401   7.214   6.627 -0.2769  0.8790 -0.0880
  905MOL0     C22103   4.517   7.286   6.586 -0.3492  0.2497  0.2955
  905MOL0     C22104   4.613   7.354   6.575 -0.0986 -0.0675  0.7205
  905MOL0     C22105   3.879   7.585   6.735  0.4567 -0.1174  0.3792
  905MOL0     C22106   3.769   7.671   6.730 -0.7512  0.7523  0.0339
  905MOL0     C22107   3.763   7.792   6.826 -0.2606  0.6809 -0.4979
  905MOL0     H22108   3.271   7.751   6.597  4.2982 -0.0100 -0.9043
  905MOL0     H22109   3.075   7.917   6.611  1.9382 -1.1727 -3.0713
  905MOL0     H22110   3.079   8.248   6.910 -3.3908 -1.3475  0.6302
  905MOL0     H22111   3.131   8.336   6.755 -0.5875 -0.3124 -0.4451
  905MOL0     H22112   2.897   8.281   6.666 -1.8692 -1.6228  1.1354
  905MOL0     H22113   2.940   8.417   6.766 -2.7576 -0.4661 -0.0700
  905MOL0     H22114   2.859   8.256   6.975  1.3216  0.2645 -0.7870
  905MOL0     H22115   2.827   8.141   6.854  0.3629 -1.0039  1.4899
  905MOL0     H22116   2.705   8.424   6.845  3.7908  0.1340  0.6177
  905MOL0     H22117   2.639   8.267   6.776  2.0313 -0.6612 -1.1595
  905MOL0     H22118   2.600   8.171   6.991  0.3575  0.2156  0.5794
  905MOL0     H22119   2.677   8.313   7.067  3.3204  0.3918 -1.6667
  905MOL0     H22120   2.472   8.440   6.967 -1.2461  0.7709  4.7052
  905MOL0     H22121   2.417   8.283   6.904 -0.7285 -2.2893  2.8576
  905MOL0     H22122   2.313   8.379   7.130 -0.7913 -2.5982  0.4446
  905MOL0     H22123   2.463   8.324   7.207  1.5638 -3.1357 -0.8635
  905MOL0     H22124   2.393   8.098   7.129 -1.0147  1.3133 -2.4544
  905MOL0     H22125   2.277   8.162   7.241  4.5504  4.1097  3.0301
  905MOL0     H22126   2.135   8.370   6.982 -3.1329  0.9609 -0.3070
  905MOL0     H22127   1.826   8.288   6.952  0.2266  1.9170 -0.8953
  905MOL0     H22128   1.936   8.351   6.844 -2.3530  1.0804 -0.1813
  905MOL0     H22129   1.792   8.263   6.704  3.1867  1.5392  0.1174
  905MOL0     H22130   1.906   8.127   6.702 -0.3522 -0.7791 -1.2728
  905MOL0     H22131   1.651   8.136   6.867  0.4724  0.3262  0.9922
  905MOL0     H22132   1.780   8.014   6.883  0.3890  0.5961 -0.6667
  905MOL0     H22133   1.547   7.970   6.753  0.3308 -0.6791  0.7565
  905MOL0     H22134   1.702   7.913   6.681 -1.5772 -0.1295  0.5095
  905MOL0     H22135   1.614   8.205   6.374 -2.2858 -0.2938 -2.0260
  905MOL0     H22136   1.619   8.103   6.146  1.0936 -0.1227  0.7315
  905MOL0     H22137   1.335   7.611   6.012 -1.9243  1.6278  0.0484
  905MOL0     H22138   1.272   7.521   5.791  0.2861  0.8233  0.0497
  905MOL0     H22139   1.569   7.578   5.478  1.5500 -0.2390  4.0766
  905MOL0     H22140   1.589   7.416   5.514 -0.0315  0.7970 -0.5682
  905MOL0     H22141   1.517   7.427   5.271 -1.3536  1.7792 -2.9534
  905MOL0     H22142   1.386   7.351   5.366 -1.4010  0.5719  0.8841
  905MOL0     H22143   1.251   7.485   5.264  0.5700 -0.8212 -1.2986
  905MOL0     H22144   1.300   7.617   5.372  0.1696 -0.0506  0.8909
  905MOL0     H22145   1.400   7.572   5.088 -1.2181  1.3396 -2.9576
  905MOL0     H22146   1.462   7.693   5.194  0.0597 -1.6953 -1.1169
  905MOL0     H22147   1.178   7.653   5.089 -1.0131 -0.4343  2.0484
  905MOL0     H22148   1.298   7.769   5.031 -0.4162 -0.9980  0.2779
  905MOL0     H22149   1.158   7.770   5.303 -0.6163 -3.1039 -1.9936
  905MOL0     H22150   1.293   7.885   5.250 -0.5775  1.2141 -0.6870
  905MOL0     H22151   1.009   7.865   5.145  1.9197 -3.2354  0.1252
  905MOL0     H22152   1.131   7.964   5.061 -3.5685  2.1324  0.1344
  905MOL0     H22153   0.989   8.013   5.328 -1.5876 -0.8824 -1.6435
  905MOL0     H22154   1.160   8.046   5.324 -0.2006  0.2761  1.3146
  905MOL0     H22155   1.666   7.610   5.650  1.2078 -1.6241  0.3300
  905MOL0     H22156   1.721   7.701   5.868 -0.1311  0.3090 -2.6048
  905MOL0     H22157   1.581   7.716   6.323 -0.1098  0.0489  2.2715
  905MOL0     H22158   1.559   7.817   6.546 -1.7395  2.9490  1.5947
  905MOL0     H22159   3.333   8.203   6.790 -0.3336  0.4751  0.1496
  905MOL0     H22160   3.516   8.036   6.802 -0.4816  1.0491 -0.7692
  905MOL0     H22161   3.602   7.465   6.500  0.0521 -4.1358  2.2359
  905MOL0     H22162   3.809   7.360   6.493  3.1283  0.1115  0.9204
  905MOL0     H22163   4.020   7.289   6.493 -1.0648 -3.1081 -0.2958
  905MOL0     H22164   3.942   7.226   6.642  2.6690 -1.1402  1.3345
  905MOL0     H22165   4.142   7.111   6.612 -1.6409  0.2982 -1.6743
  905MOL0     H22166   4.150   7.221   6.750 -1.4591 -1.4545 -1.0962
  905MOL0     H22167   4.281   7.394   6.617 -1.6336  0.5607 -1.6235
  905MOL0     H22168   4.282   7.286   6.475 -0.9099 -0.9695 -0.5841
  905MOL0     H22169   4.416   7.180   6.730  0.5754 -2.7083 -1.2508
  905MOL0     H22170   4.409   7.128   6.560  1.3083  1.4971 -0.7293
  905MOL0     H22171   4.704   7.410   6.570 -0.0480 -0.2652 -2.9824
  905MOL0     H22172   3.965   7.593   6.801  1.1326  0.3085 -0.5356
  905MOL0     H22173   3.703   7.770   6.915  2.7649 -0.3106  1.4558
  905MOL0     H22174   3.865   7.819   6.856 -1.7253  3.8456  2.2048
  905MOL0     H22175   3.716   7.877   6.777  1.3403  2.1110  0.3251
  906MOL0     O22176   6.499   5.042   7.176  0.5173  0.4643 -0.1897
  906MOL0     C22177   6.563   5.043   7.280 -0.3802 -1.2496 -0.1636
  906MOL0     O22178   6.512   5.101   7.392 -0.1979 -0.4049 -0.4566
  906MOL0     C22179   6.383   5.135   7.401  0.0970  0.9869 -0.2284
  906MOL0     C22180   6.287   5.064   7.484  0.1792  0.4303 -0.4489
  906MOL0     C22181   6.157   5.110   7.498  1.2503  0.8807  1.1500
  906MOL0     C22182   6.112   5.226   7.423 -1.1268  0.2749 -0.5150
  906MOL0     O22183   5.981   5.272   7.448 -0.3926 -0.3547 -0.6826
  906MOL0     C22184   5.917   5.381   7.375 -0.0291  0.7458 -0.1823
  906MOL0     C22185   5.794   5.422   7.449  0.1043 -0.3401  0.7906
  906MOL0     C22186   5.750   5.560   7.390 -0.2369 -0.2005 -0.5479
  906MOL0     C22187   5.621   5.596   7.463  0.1148  0.0762 -0.9879
  906MOL0     C22188   5.555   5.727   7.408  0.4149  0.4517  0.4731
  906MOL0     C22189   5.524   5.730   7.259  0.5956  1.0038 -0.3431
  906MOL0     C22190   5.444   5.857   7.216  0.0987 -0.3836 -0.1710
  906MOL0     C22191   5.461   5.887   7.071 -0.2897  0.5367 -0.3596
  906MOL0     N22192   5.567   5.985   7.064 -0.3045 -0.5489  0.1320
  906MOL0     C22193   5.695   5.960   7.111  0.1588 -0.5195  0.3656
  906MOL0     C22194   5.769   6.061   7.058 -0.5800 -0.5563 -0.1200
  906MOL0     C22195   5.914   6.064   7.062  0.7124  0.2442 -0.4673
  906MOL0     C22196   5.971   6.200   7.063 -0.6470  0.2875 -0.8065
  906MOL0     C22197   6.117   6.217   7.122 -0.4177  0.4341  0.1927
  906MOL0     C22198   6.144   6.360   7.155 -0.0932 -0.6762  0.6239
  906MOL0     O22199   6.050   6.422   7.249  0.8003 -0.4754 -0.5780
  906MOL0     C22200   6.057   6.422   7.388 -0.3128  1.1782  0.0840
  906MOL0     C22201   6.158   6.353   7.457  0.8880  0.1937  0.1031
  906MOL0     C22202   6.150   6.342   7.601 -0.4012  0.2303  0.2399
  906MOL0     C22203   6.040   6.414   7.670 -0.0845  0.5353 -0.9173
  906MOL0     C22204   6.033   6.409   7.820  0.7882 -0.0553 -0.4780
  906MOL0     O22205   5.936   6.473   7.895  0.5448 -0.7262 -0.3396
  906MOL0     C22206   5.931   6.449   8.025 -0.4265 -0.1795 -0.1649
  906MOL0     C22207   5.976   6.536   8.118  0.5926  0.0268 -0.3940
  906MOL0     C22208   5.956   6.513   8.260 -0.6693 -0.3653  0.2183
  906MOL0     C22209   5.885   6.399   8.301  0.4919  0.8240 -0.2570
  906MOL0     O22210   5.857   6.360   8.433  0.2787 -0.2748  0.1695
  906MOL0     C22211   5.956   6.403   8.535 -0.2420 -0.3642  0.5088
  906MOL0     C22212   5.905   6.529   8.606  0.3121 -0.0465  0.0692
  906MOL0     C22213   5.987   6.569   8.728  0.0567 -0.0356  0.2947
  906MOL0     C22214   5.930   6.500   8.859  0.0653 -0.1846 -0.3265
  906MOL0     C22215   5.983   6.580   8.978  0.4902 -0.5372 -0.0612
  906MOL0     C22216   5.941   6.528   9.110 -0.1538 -0.4291 -1.1934
  906MOL0     C22217   6.002   6.600   9.231 -1.0110  0.5765  1.1797
  906MOL0     C22218   5.978   6.525   9.369  0.5174  1.0870 -0.4178
  906MOL0    Cl22219   6.025   6.348   9.369 -0.0300  0.0456 -0.1625
  906MOL0     C22220   5.836   6.314   8.207  0.0289 -0.4230 -0.2914
  906MOL0     C22221   5.860   6.336   8.073  0.5107 -0.3806  0.1234
  906MOL0     O22222   6.129   6.348   7.875 -0.0845 -0.4044  0.5291
  906MOL0     C22223   5.947   6.485   7.595 -0.4302  0.9243 -0.0314
  906MOL0     C22224   5.951   6.489   7.454 -0.4674 -0.0502  0.3128
  906MOL0     N22225   5.677   6.154   7.008  0.1845 -0.4326 -0.3561
  906MOL0     N22226   5.561   6.111   7.016 -0.4838  0.7295 -0.1608
  906MOL0     C22227   6.204   5.288   7.337  0.4217  0.2637 -0.7859
  906MOL0     C22228   6.336   5.247   7.327 -0.4268 -0.2296 -0.6475
  906MOL0     C22229   6.703   4.988   7.278 -0.2605  1.1401 -0.2509
  906MOL0     C22230   6.736   4.895   7.178  0.0821  0.9111 -0.1190
  906MOL0     C22231   6.873   4.851   7.155  0.3310  0.3731 -0.6863
  906MOL0     C22232   6.969   4.892   7.235 -0.1147  0.0087  0.0109
  906MOL0     O22233   7.094   4.844   7.217 -0.5860  0.3788  0.0935
  906MOL0     C22234   7.195   4.843   7.322  0.0268  0.6184  0.0411
  906MOL0     C22235   7.287   4.714   7.335  0.7578  0.2407  0.6152
  906MOL0     C22236   7.333   4.669   7.193  0.1291 -0.1384 -0.3154
  906MOL0     C22237   7.450   4.571   7.192 -0.7115  0.4152 -0.4190
  906MOL0     C22238   7.460   4.481   7.311 -0.5100  0.4686 -0.4890
  906MOL0     C22239   7.467   4.406   7.408  0.0988 -0.5540 -0.0613
  906MOL0     C22240   6.936   4.987   7.327 -0.6482 -0.7313 -0.6605
  906MOL0     C22241   6.810   5.030   7.355 -0.2932 -1.4609  0.2917
  906MOL0     C22242   6.783   5.141   7.451  0.2072 -1.1085  0.2443
  906MOL0     H22243   6.322   4.977   7.538 -1.6254 -0.5029 -0.7102
  906MOL0     H22244   6.085   5.050   7.552 -0.6209 -1.5710 -3.4484
  906MOL0     H22245   5.988   5.464   7.365 -1.0857  1.7590  0.4807
  906MOL0     H22246   5.880   5.360   7.274  1.8069 -0.2981 -0.7023
  906MOL0     H22247   5.820   5.443   7.553 -1.1626 -0.9814  1.2650
  906MOL0     H22248   5.722   5.339   7.447  1.8051 -1.8877 -1.3706
  906MOL0     H22249   5.729   5.547   7.283 -1.7703  0.8866 -0.4104
  906MOL0     H22250   5.834   5.629   7.399  0.8725 -1.7905  4.0983
  906MOL0     H22251   5.544   5.520   7.446  0.1793 -0.9479  2.4365
  906MOL0     H22252   5.624   5.614   7.571  0.4004  2.4866 -1.3433
  906MOL0     H22253   5.458   5.732   7.458  0.4351 -2.2980  0.9521
  906MOL0     H22254   5.619   5.813   7.433  0.6668  0.5136 -0.3506
  906MOL0     H22255   5.615   5.713   7.201  0.1848  1.0177 -0.9975
  906MOL0     H22256   5.459   5.645   7.238 -0.0156  1.8139 -1.8795
  906MOL0     H22257   5.451   5.950   7.274 -1.5398  0.3215 -1.0457
  906MOL0     H22258   5.342   5.826   7.242  0.6676 -1.0917  1.3834
  906MOL0     H22259   5.475   5.798   7.009 -1.5051  0.4602 -0.5439
  906MOL0     H22260   5.367   5.932   7.039 -0.9817 -0.3249  0.3960
  906MOL0     H22261   5.738   5.877   7.167  0.4023 -1.3103 -0.9552
  906MOL0     H22262   5.948   6.011   7.151  0.7212 -1.5278 -1.4792
  906MOL0     H22263   5.954   6.012   6.974  0.7966  1.9322 -1.4645
  906MOL0     H22264   5.974   6.244   6.963  3.4819  2.4577  0.0619
  906MOL0     H22265   5.908   6.259   7.130  0.3563 -1.1199  1.5148
  906MOL0     H22266   6.186   6.174   7.049 -1.1591  0.4443 -0.5306
  906MOL0     H22267   6.122   6.171   7.221 -3.5723  0.5115  0.5116
  906MOL0     H22268   6.137   6.414   7.060  0.0117 -2.7444 -0.6144
  906MOL0     H22269   6.246   6.385   7.184  1.3132 -0.0829 -3.9821
  906MOL0     H22270   6.218   6.275   7.412 -3.7830 -3.6962 -0.1255
  906MOL0     H22271   6.227   6.279   7.645  1.8171  1.7848 -1.1674
  906MOL0     H22272   6.044   6.617   8.093  0.4644  0.4660  0.6061
  906MOL0     H22273   6.011   6.591   8.313  1.6445  0.8267 -3.5826
  906MOL0     H22274   5.967   6.330   8.616 -1.7144  2.2026  3.2472
  906MOL0     H22275   6.051   6.425   8.487 -0.8457  1.2588 -0.0071
  906MOL0     H22276   5.909   6.614   8.538  0.2997 -1.8701 -2.3185
  906MOL0     H22277   5.800   6.526   8.635 -0.2537 -1.1401 -1.9032
  906MOL0     H22278   6.089   6.534   8.710  0.1682  1.2021 -1.8369
  906MOL0     H22279   5.978   6.678   8.726  2.2319  0.1782  0.0497
  906MOL0     H22280   5.944   6.392   8.865 -1.6939 -0.3782  1.7014
  906MOL0     H22281   5.821   6.509   8.862 -0.1744 -2.6237  0.5705
  906MOL0     H22282   5.965   6.687   8.975 -2.1263 -0.9335 -0.7944
  906MOL0     H22283   6.091   6.567   8.969  0.7391  0.3133  1.4054
  906MOL0     H22284   5.840   6.568   9.108  1.4283  4.0512 -1.0921
  906MOL0     H22285   5.950   6.421   9.133 -2.7767 -0.3048  0.8895
  906MOL0     H22286   5.968   6.703   9.219 -0.0851  0.9191  1.4171
  906MOL0     H22287   6.109   6.615   9.216 -0.9831 -1.8007 -2.5640
  906MOL0     H22288   6.028   6.573   9.454  1.7526  1.2714 -1.2207
  906MOL0     H22289   5.871   6.545   9.380  0.2156 -1.4510  2.6967
  906MOL0     H22290   5.789   6.226   8.250  0.7364  0.0251  1.5070
  906MOL0     H22291   5.831   6.266   7.994 -2.7256  0.0050  0.8334
  906MOL0     H22292   5.859   6.533   7.637  0.0421  1.5320  0.2760
  906MOL0     H22293   5.883   6.563   7.413  1.6122  2.1276  0.5791
  906MOL0     H22294   6.173   5.383   7.294  2.4783  1.1011 -0.5436
  906MOL0     H22295   6.408   5.316   7.284  4.0898 -2.1527  2.8950
  906MOL0     H22296   6.655   4.852   7.118 -1.2845 -2.4162  3.6144
  906MOL0     H22297   6.893   4.777   7.078 -0.8010 -2.9897  1.9782
  906MOL0     H22298   7.149   4.863   7.420 -1.4354  0.9723 -0.6996
  906MOL0     H22299   7.253   4.934   7.302  1.0700  0.1177  0.6818
  906MOL0     H22300   7.212   4.640   7.364 -2.2632  3.4143  1.8007
  906MOL0     H22301   7.361   4.725   7.415  0.4519  0.6709  0.8471
  906MOL0     H22302   7.350   4.747   7.118 -1.6463 -0.3198 -0.9635
  906MOL0     H22303   7.243   4.621   7.154 -0.5490  2.0876 -1.6664
  906MOL0     H22304   7.427   4.505   7.108  0.1071 -1.6314  0.8815
  906MOL0     H22305   7.548   4.619   7.183 -0.1144 -0.5894  0.5304
  906MOL0     H22306   7.468   4.341   7.492 -0.3998 -1.1831 -0.5355
  906MOL0     H22307   7.020   5.024   7.385  0.5716  0.7373 -3.1789
  906MOL0     H22308   6.738   5.096   7.540  2.1045 -1.6447  0.9845
  906MOL0     H22309   6.876   5.193   7.479  0.4008 -1.6685  0.6652
  906MOL0     H22310   6.725   5.217   7.398  0.3885  0.1585  1.7761
  907MOL0     O22311   9.256   9.221   3.370 -0.4260  0.0302 -0.6454
  907MOL0     C22312   9.242   9.154   3.265 -0.4311  0.7225 -0.0111
  907MOL0     O22313   9.158   9.173   3.164 -0.7381 -0.5834 -0.5682
  907MOL0     C22314   9.070   9.280   3.165 -0.0798 -0.3059  0.4730
  907MOL0     C22315   8.948   9.253   3.229 -1.2278  0.0177 -0.9892
  907MOL0     C22316   8.850   9.354   3.238  0.9093  0.7735  0.2509
  907MOL0     C22317   8.870   9.483   3.179  0.8289 -1.1965  0.0893
  907MOL0     O22318   8.777   9.589   3.192  0.0861  0.0422 -0.0327
  907MOL0     C22319   8.823   9.719   3.232 -0.0110  0.6924  0.1308
  907MOL0     C22320   8.707   9.813   3.270 -0.3839 -0.0984 -0.3880
  907MOL0     C22321   8.671   9.899   3.149  0.2672  0.6863  0.5165
  907MOL0     C22322   8.578  10.008   3.185 -1.2224  0.0692  0.2043
  907MOL0     C22323   8.530  10.099   3.070  0.1491 -0.4038 -0.0845
  907MOL0     C22324   8.420  10.191   3.113  0.1801 -0.1383 -0.0795
  907MOL0     C22325   8.475  10.309   3.206 -0.2902 -0.5291  0.5442
  907MOL0     C22326   8.354  10.389   3.262  0.5514  0.1523  0.5179
  907MOL0     N22327   8.388  10.477   3.367 -0.6375 -0.3554 -0.1573
  907MOL0     C22328   8.497  10.561   3.359 -0.9488 -0.3973 -0.4217
  907MOL0     C22329   8.525  10.607   3.484  0.7489  0.7793 -0.0575
  907MOL0     C22330   8.620  10.717   3.521 -0.0696  0.1423 -0.7693
  907MOL0     C22331   8.729  10.654   3.605 -0.2828  0.0048 -0.6617
  907MOL0     C22332   8.841  10.754   3.658  0.7173  0.6462 -0.0973
  907MOL0     C22333   8.938  10.662   3.737 -0.0733 -1.1906 -0.5203
  907MOL0     O22334   9.064  10.727   3.743  0.6707  0.4008 -0.4644
  907MOL0     C22335   9.161  10.657   3.800  0.2062 -0.0729 -0.1194
  907MOL0     C22336   9.159  10.521   3.837  1.4169  0.1255  0.3855
  907MOL0     C22337   9.279  10.454   3.869 -1.2111 -0.5654 -0.3346
  907MOL0     C22338   9.409  10.517   3.877 -0.0957 -0.1924  0.2981
  907MOL0     C22339   9.534  10.453   3.899  0.4540 -0.0923  0.0472
  907MOL0     O22340   9.541  10.321   3.859 -0.2202 -0.1705 -0.0510
  907MOL0     C22341   9.654  10.252   3.905 -0.3744 -0.9436  0.5182
  907MOL0     C22342   9.765  10.235   3.820 -0.4761  0.2591  0.0372
  907MOL0     C22343   9.880  10.166   3.867 -0.9110  1.6034  0.2414
  907MOL0     C22344   9.881  10.106   3.991  0.2064 -0.9363  0.6476
  907MOL0     O22345   9.982  10.036   4.048 -0.0870 -0.0115 -0.6086
  907MOL0     C22346  10.113  10.080   4.024  0.2828  0.9802  0.2716
  907MOL0     C22347  10.196  10.012   4.133 -0.0845 -0.1175  0.5865
  907MOL0     C22348  10.336  10.070   4.133 -0.3252 -0.2640 -0.2211
  907MOL0     C22349  10.423  10.010   4.238  0.0731  0.6564 -0.1140
  907MOL0     C22350  10.558  10.068   4.226 -0.1266  0.3504  0.7466
  907MOL0     C22351  10.658   9.977   4.289 -0.4672  0.9547  0.5547
  907MOL0     C22352  10.647   9.959   4.439  0.6176  0.0163 -0.3678
  907MOL0     C22353  10.763   9.885   4.496 -0.3022 -0.5075  0.7211
  907MOL0    Cl22354  10.898  10.000   4.465 -0.5222  0.3217  0.2609
  907MOL0     C22355   9.765  10.130   4.073 -0.0863 -0.0461 -0.1322
  907MOL0     C22356   9.653  10.206   4.038 -0.1100 -0.3918  0.6209
  907MOL0     O22357   9.614  10.517   3.963  0.1112  0.7093  0.1130
  907MOL0     C22358   9.404  10.657   3.851  0.0548 -0.5833  0.1051
  907MOL0     C22359   9.279  10.718   3.814 -0.0963 -0.0035  0.8640
  907MOL0     N22360   8.440  10.521   3.567  0.6456 -0.8638  0.3219
  907MOL0     N22361   8.359  10.447   3.493  0.3466  0.3213 -0.4847
  907MOL0     C22362   8.987   9.499   3.104  0.1117 -0.1434  0.0997
  907MOL0     C22363   9.089   9.404   3.101  0.0576 -0.0724  0.3813
  907MOL0     C22364   9.338   9.037   3.244 -0.6345 -0.1414  0.0092
  907MOL0     C22365   9.359   8.985   3.112 -0.2666  0.0314  0.0287
  907MOL0     C22366   9.443   8.885   3.086 -0.9239  0.1691  0.3905
  907MOL0     C22367   9.518   8.832   3.189 -0.0776  0.5037 -0.5197
  907MOL0     O22368   9.598   8.731   3.162 -0.0847  0.5040 -0.4154
  907MOL0     C22369   9.686   8.665   3.259  1.0792 -0.1507 -0.5004
  907MOL0     C22370   9.600   8.560   3.332 -0.0682 -0.3793  0.6231
  907MOL0     C22371   9.552   8.458   3.223 -0.5520 -0.2646 -0.4285
  907MOL0     C22372   9.547   8.315   3.272  0.0461 -1.0435  0.5769
  907MOL0     C22373   9.479   8.306   3.403 -0.2257 -0.3068 -0.2719
  907MOL0     C22374   9.436   8.289   3.516 -0.2033  0.0723  0.9428
  907MOL0     C22375   9.491   8.871   3.326  0.1116 -1.1521  0.0036
  907MOL0     C22376   9.405   8.974   3.355 -0.7309 -0.3864  0.0876
  907MOL0     C22377   9.401   9.026   3.503  0.1632  0.3938  0.5351
  907MOL0     H22378   8.936   9.151   3.264  1.2198  0.9581  3.3088
  907MOL0     H22379   8.757   9.342   3.292  0.9252 -1.4274 -0.1167
  907MOL0     H22380   8.883   9.693   3.320 -0.7392 -2.8338 -0.2689
  907MOL0     H22381   8.897   9.751   3.158 -0.8638  0.1242 -1.0049
  907MOL0     H22382   8.740   9.874   3.355 -0.8692 -1.6974  0.9937
  907MOL0     H22383   8.624   9.762   3.319 -0.1294  0.5681  0.7631
  907MOL0     H22384   8.611   9.842   3.078  2.4198 -2.8384  1.3182
  907MOL0     H22385   8.761   9.937   3.100 -0.6619  1.2894 -0.7948
  907MOL0     H22386   8.490   9.954   3.223 -0.9975 -0.2282  0.3040
  907MOL0     H22387   8.619  10.068   3.266  0.0678  0.1075 -0.4588
  907MOL0     H22388   8.612  10.157   3.027 -1.2729  3.6051  2.0283
  907MOL0     H22389   8.491  10.040   2.987  0.9790  1.0514 -1.5732
  907MOL0     H22390   8.362  10.236   3.032  0.7677 -0.3808 -0.6469
  907MOL0     H22391   8.347  10.126   3.162  1.4349 -0.1548  1.8803
  907MOL0     H22392   8.544  10.382   3.162  2.5193  0.2447  5.4539
  907MOL0     H22393   8.535  10.269   3.289 -1.0326 -0.7823  0.9666
  907MOL0     H22394   8.298  10.422   3.174 -0.5545 -3.5444 -0.3802
  907MOL0     H22395   8.275  10.315   3.283 -1.2814  0.3088 -4.4140
  907MOL0     H22396   8.540  10.589   3.263 -1.6292 -2.5568 -1.4147
  907MOL0     H22397   8.665  10.746   3.425  0.0424 -2.2926 -1.5242
  907MOL0     H22398   8.563  10.793   3.574 -0.2269  0.1294 -0.9204
  907MOL0     H22399   8.682  10.606   3.691  0.3537  0.0916 -0.2524
  907MOL0     H22400   8.777  10.571   3.552 -0.3855 -0.5991  0.1717
  907MOL0     H22401   8.788  10.830   3.717  3.4049  1.5215  1.3400
  907MOL0     H22402   8.890  10.789   3.567 -0.5129 -1.9889 -1.9109
  907MOL0     H22403   8.942  10.569   3.680 -1.7406 -0.5944 -1.6990
  907MOL0     H22404   8.902  10.642   3.838  1.6375  0.7945  0.5545
  907MOL0     H22405   9.071  10.460   3.825  1.9940 -0.8488  0.9478
  907MOL0     H22406   9.277  10.346   3.887  2.1549 -1.0100 -1.8982
  907MOL0     H22407   9.766  10.263   3.715 -2.9221  1.1745  0.2076
  907MOL0     H22408   9.975  10.174   3.816 -0.0273  0.7509  1.6864
  907MOL0     H22409  10.158  10.045   3.931  3.9265  1.2038  1.7820
  907MOL0     H22410  10.117  10.189   4.032 -1.1194  1.3346 -2.6897
  907MOL0     H22411  10.137  10.020   4.225 -1.4838 -0.1282 -0.2821
  907MOL0     H22412  10.214   9.905   4.114  0.5280  0.3640 -1.9117
  907MOL0     H22413  10.377  10.065   4.032 -1.3437  0.8145 -0.7045
  907MOL0     H22414  10.325  10.174   4.165  1.1434  0.7218 -2.6065
  907MOL0     H22415  10.419   9.903   4.220 -0.7935  0.9854 -2.1411
  907MOL0     H22416  10.391  10.039   4.339  2.1486 -0.0889  0.8025
  907MOL0     H22417  10.571  10.170   4.262  1.7138 -1.6851  7.1109
  907MOL0     H22418  10.580  10.065   4.119 -2.4417  2.5652  0.0999
  907MOL0     H22419  10.646   9.877   4.248 -1.6423  0.4714  1.9938
  907MOL0     H22420  10.763  10.000   4.266  1.4168 -5.4052  0.9353
  907MOL0     H22421  10.551   9.912   4.462  1.5576 -0.3474  3.4921
  907MOL0     H22422  10.636  10.065   4.465 -0.0281 -0.1255 -0.0472
  907MOL0     H22423  10.742   9.872   4.603 -0.2299 -0.0513  0.7948
  907MOL0     H22424  10.775   9.784   4.456 -3.2198 -1.0702  1.0280
  907MOL0     H22425   9.771  10.084   4.171  0.7728 -1.7471 -0.9495
  907MOL0     H22426   9.578  10.230   4.113 -0.4461 -3.0652  1.2409
  907MOL0     H22427   9.508  10.690   3.846  0.8962 -3.1740 -1.6545
  907MOL0     H22428   9.276  10.824   3.793 -2.6251 -0.4568 -1.7630
  907MOL0     H22429   9.016   9.597   3.067  0.7917 -0.7555 -1.0379
  907MOL0     H22430   9.178   9.425   3.043  2.2921  0.9453  3.8941
  907MOL0     H22431   9.301   9.022   3.029 -1.5862  0.6943  1.2018
  907MOL0     H22432   9.457   8.848   2.985  0.9794 -0.4613  0.8483
  907MOL0     H22433   9.739   8.735   3.325  2.0148 -1.5242  0.2677
  907MOL0     H22434   9.762   8.620   3.194  2.7564  0.7457  0.7622
  907MOL0     H22435   9.509   8.590   3.385 -0.3997  1.8581 -1.0975
  907MOL0     H22436   9.662   8.515   3.411  1.3512  0.9633  0.3204
  907MOL0     H22437   9.607   8.462   3.128  0.1288 -0.1281 -0.0351
  907MOL0     H22438   9.448   8.481   3.195 -0.2064  1.2388 -0.5515
  907MOL0     H22439   9.491   8.266   3.191  0.0778  1.9238 -1.4143
  907MOL0     H22440   9.652   8.284   3.284 -0.3994 -2.5293  0.9102
  907MOL0     H22441   9.407   8.279   3.619  0.9970 -1.7303  1.1594
  907MOL0     H22442   9.549   8.838   3.411 -0.1305  3.4680  2.3113
  907MOL0     H22443   9.477   8.981   3.567  2.4074  1.0279 -1.5658
  907MOL0     H22444   9.419   9.133   3.510  0.2825  0.4506 -0.5560
  907MOL0     H22445   9.306   8.996   3.549  0.0517 -0.9370 -0.5001
  908MOL0     O22446   8.699   0.750   8.541  0.2834  0.2968 -0.1696
  908MOL0     C22447   8.788   0.812   8.488  0.7266  0.7819 -0.2016
  908MOL0     O22448   8.918   0.779   8.498 -1.0876 -0.8103  0.9159
  908MOL0     C22449   8.937   0.653   8.548 -0.1359 -0.1973  0.0168
  908MOL0     C22450   8.902   0.623   8.684 -0.4026 -0.4534 -0.7925
  908MOL0     C22451   8.937   0.493   8.739 -0.5706 -0.0254  0.8969
  908MOL0     C22452   8.996   0.393   8.660 -0.6306  0.2266 -0.7127
  908MOL0     O22453   9.026   0.264   8.703  0.5313 -0.0403 -0.0715
  908MOL0     C22454   8.985   0.229   8.830  0.6758 -0.5984 -0.6786
  908MOL0     C22455   9.034   0.103   8.870 -0.6262  0.4909 -0.5710
  908MOL0     C22456   8.989  -0.010   8.783 -0.5005  0.0855 -0.7291
  908MOL0     C22457   9.024  -0.155   8.831  1.6871 -0.2056  0.1625
  908MOL0     C22458   8.942  -0.204   8.945  0.3127  0.1941  0.1883
  908MOL0     C22459   8.784  -0.186   8.914 -0.0186  0.4670 -0.7512
  908MOL0     C22460   8.703  -0.248   9.022  0.2926  0.4097 -0.3125
  908MOL0     C22461   8.681  -0.399   8.989 -0.4613  0.8115 -0.7505
  908MOL0     N22462   8.597  -0.446   8.875  0.2560 -0.3910  0.7418
  908MOL0     C22463   8.644  -0.473   8.751 -0.7589 -0.2137 -0.3121
  908MOL0     C22464   8.525  -0.500   8.684  0.1307 -0.6947  0.5669
  908MOL0     C22465   8.527  -0.530   8.537 -0.6418  0.5224  1.0367
  908MOL0     C22466   8.601  -0.420   8.459  0.0892  0.3263  1.0060
  908MOL0     C22467   8.603  -0.449   8.305  0.6820 -0.6475  0.1272
  908MOL0     C22468   8.693  -0.351   8.230 -0.3495 -0.1912  0.8184
  908MOL0     O22469   8.758  -0.251   8.305  0.6967  0.8239  0.2897
  908MOL0     C22470   8.817  -0.147   8.231  0.3015 -0.0835  1.2112
  908MOL0     C22471   8.848  -0.156   8.093  0.6236  0.2056  0.1410
  908MOL0     C22472   8.895  -0.048   8.022  0.6615  0.0799  0.3958
  908MOL0     C22473   8.940   0.066   8.090  0.1116  0.3599 -1.0366
  908MOL0     C22474   9.015   0.173   8.022  0.2770  0.0667  1.1779
  908MOL0     O22475   9.058   0.279   8.092  0.3218 -0.7390 -0.0352
  908MOL0     C22476   9.131   0.379   8.033 -0.3327  1.5259  0.5359
  908MOL0     C22477   9.063   0.501   8.008 -0.9376 -0.0870 -0.1866
  908MOL0     C22478   9.139   0.612   7.954  0.2144  0.4995  0.1753
  908MOL0     C22479   9.278   0.603   7.930 -0.4840  0.2268  0.0160
  908MOL0     O22480   9.332   0.725   7.882 -0.3428  0.1364  0.2356
  908MOL0     C22481   9.466   0.728   7.823  0.4649  0.3331  0.0924
  908MOL0     C22482   9.514   0.861   7.771  0.2820  0.0042 -0.2391
  908MOL0     C22483   9.513   0.975   7.873  0.6300 -0.0771  0.2278
  908MOL0     C22484   9.543   1.114   7.815 -0.9029  0.5178  0.0499
  908MOL0     C22485   9.690   1.134   7.775 -0.2635  0.0517 -0.5438
  908MOL0     C22486   9.788   1.158   7.887 -0.0128  0.0847 -0.2766
  908MOL0     C22487   9.916   1.196   7.834 -0.2618 -0.2241 -0.2734
  908MOL0     C22488  10.010   1.259   7.937 -0.7418  0.4063  0.1910
  908MOL0    Cl22489  10.168   1.195   7.879  0.4390 -0.0468  0.6339
  908MOL0     C22490   9.337   0.476   7.947 -0.2287  0.3545  0.7595
  908MOL0     C22491   9.264   0.364   8.007  0.7062  0.5532  0.1790
  908MOL0     O22492   9.032   0.155   7.898 -0.1208 -0.5537 -0.0575
  908MOL0     C22493   8.914   0.074   8.228  0.5306 -0.5487 -0.2782
  908MOL0     C22494   8.843  -0.023   8.298  0.0940  0.1746 -0.5733
  908MOL0     N22495   8.416  -0.510   8.777 -0.1043 -0.0897  0.0698
  908MOL0     N22496   8.461  -0.476   8.891 -0.9922 -0.1357 -0.4527
  908MOL0     C22497   9.028   0.422   8.529  0.3355  0.4892 -0.0145
  908MOL0     C22498   9.006   0.552   8.482 -0.1531 -0.0730  0.6525
  908MOL0     C22499   8.743   0.942   8.429  0.9982  0.7614  1.0743
  908MOL0     C22500   8.639   1.019   8.477 -1.0689 -0.7954  0.5609
  908MOL0     C22501   8.595   1.138   8.421  0.4886  0.2362  0.3145
  908MOL0     C22502   8.661   1.194   8.316  0.3008 -0.3312 -0.1779
  908MOL0     O22503   8.602   1.311   8.281  0.1367 -0.2655 -0.0489
  908MOL0     C22504   8.657   1.414   8.199  0.1540 -0.6465 -0.9118
  908MOL0     C22505   8.750   1.499   8.281 -0.1216  0.1804 -0.4618
  908MOL0     C22506   8.679   1.605   8.374 -0.4506  0.1440 -0.1330
  908MOL0     C22507   8.678   1.572   8.526  0.1288 -0.2631  0.6615
  908MOL0     C22508   8.618   1.682   8.604 -0.0236 -0.5745 -0.4421
  908MOL0     C22509   8.575   1.772   8.671 -1.2451  0.2160 -0.2606
  908MOL0     C22510   8.772   1.131   8.265 -0.1461  0.0747 -0.0653
  908MOL0     C22511   8.800   0.999   8.313 -0.8322  0.7995  0.5331
  908MOL0     C22512   8.906   0.927   8.237 -0.3213  0.2071 -0.2473
  908MOL0     H22513   8.857   0.697   8.750 -0.6707 -1.2049 -0.1200
  908MOL0     H22514   8.911   0.470   8.842 -0.1741 -1.4205  0.6981
  908MOL0     H22515   9.032   0.293   8.906  0.1146  0.6775 -1.3885
  908MOL0     H22516   8.877   0.231   8.847  0.3867  1.1468 -2.4338
  908MOL0     H22517   9.003   0.069   8.969 -1.4115 -1.3737 -1.3987
  908MOL0     H22518   9.143   0.112   8.875 -0.5662 -0.6043  0.4244
  908MOL0     H22519   9.028   0.005   8.682 -1.1428  0.9522 -0.8581
  908MOL0     H22520   8.882  -0.003   8.765 -1.3620 -2.8002  2.2972
  908MOL0     H22521   9.014  -0.221   8.745 -1.7594  1.0927 -0.5605
  908MOL0     H22522   9.124  -0.154   8.877  1.9433  0.3275 -0.3946
  908MOL0     H22523   8.951  -0.313   8.947 -1.3804  0.0222  0.1049
  908MOL0     H22524   8.962  -0.146   9.036  1.9182 -1.3231  0.8513
  908MOL0     H22525   8.761  -0.079   8.922  1.8610  0.7860  1.1044
  908MOL0     H22526   8.753  -0.205   8.811 -2.5374 -0.5599  0.0989
  908MOL0     H22527   8.604  -0.201   9.023 -0.1923 -0.5914  0.5152
  908MOL0     H22528   8.736  -0.236   9.125  0.5153 -0.0145 -0.3322
  908MOL0     H22529   8.781  -0.443   8.982  0.5306  2.8967 -0.4275
  908MOL0     H22530   8.628  -0.435   9.078  2.3226 -0.5354  0.4865
  908MOL0     H22531   8.743  -0.462   8.706 -0.7663  1.0300 -0.0541
  908MOL0     H22532   8.569  -0.630   8.519 -0.0957  0.9709 -0.3131
  908MOL0     H22533   8.425  -0.552   8.506 -0.4145 -0.2277  0.7917
  908MOL0     H22534   8.550  -0.324   8.468 -1.9234  0.0448 -4.0554
  908MOL0     H22535   8.701  -0.401   8.500  0.5298 -1.1592  0.6916
  908MOL0     H22536   8.506  -0.428   8.259  0.8159  1.1309  0.5919
  908MOL0     H22537   8.637  -0.552   8.293  0.6863 -0.5795 -0.4639
  908MOL0     H22538   8.640  -0.297   8.151  2.6830  0.5790 -0.8633
  908MOL0     H22539   8.778  -0.404   8.185 -0.2866  0.3845  0.2591
  908MOL0     H22540   8.822  -0.249   8.043 -0.6577  1.3857 -1.5071
  908MOL0     H22541   8.899  -0.055   7.913 -1.1096 -3.3362  0.4314
  908MOL0     H22542   8.955   0.508   8.018 -1.0846 -1.8447 -0.2088
  908MOL0     H22543   9.076   0.699   7.935 -3.5434 -1.2993  3.1591
  908MOL0     H22544   9.520   0.697   7.913 -3.3135 -0.3576  2.3206
  908MOL0     H22545   9.478   0.645   7.753  0.4430  1.1575 -0.9281
  908MOL0     H22546   9.619   0.839   7.753  0.9565  0.0743  3.0063
  908MOL0     H22547   9.463   0.891   7.679  0.5404  1.2948  0.0147
  908MOL0     H22548   9.407   0.977   7.898  0.5507 -1.3388  0.0553
  908MOL0     H22549   9.572   0.947   7.961 -1.8691 -1.8891  1.4689
  908MOL0     H22550   9.511   1.190   7.888 -1.3741 -2.4792  3.2670
  908MOL0     H22551   9.479   1.117   7.726 -1.4174 -2.4885  0.1985
  908MOL0     H22552   9.699   1.222   7.710 -1.5900 -0.1998 -1.0954
  908MOL0     H22553   9.722   1.046   7.718  0.8806  1.7642 -2.6871
  908MOL0     H22554   9.746   1.245   7.939  0.3528  0.1515 -0.0922
  908MOL0     H22555   9.804   1.074   7.955 -0.2949  0.5609  0.3959
  908MOL0     H22556   9.911   1.271   7.755 -1.1034  1.4465  1.2895
  908MOL0     H22557   9.958   1.103   7.794 -3.1724 -1.0833 -1.5482
  908MOL0     H22558  10.019   1.368   7.942 -2.0530  0.6340 -1.3862
  908MOL0     H22559   9.989   1.223   8.038 -0.2361 -0.6264 -0.0521
  908MOL0     H22560   9.443   0.475   7.921 -0.5023 -0.3766 -0.4319
  908MOL0     H22561   9.312   0.267   8.007  0.9622  0.6024  2.8437
  908MOL0     H22562   8.935   0.166   8.282 -0.0106 -0.5127 -0.1254
  908MOL0     H22563   8.811  -0.015   8.401 -1.1664 -1.6624 -0.7733
  908MOL0     H22564   9.080   0.359   8.457  0.9989  2.5332 -1.4098
  908MOL0     H22565   9.038   0.581   8.383  0.7668  0.3639  1.0607
  908MOL0     H22566   8.583   0.985   8.563 -1.9099  0.9407  0.7509
  908MOL0     H22567   8.510   1.193   8.460  0.1019  0.0147 -0.1948
  908MOL0     H22568   8.570   1.471   8.164 -1.7562 -2.4563  0.6199
  908MOL0     H22569   8.710   1.372   8.112  0.0050 -2.1638 -0.3039
  908MOL0     H22570   8.806   1.556   8.206 -0.9453  2.2542  0.4136
  908MOL0     H22571   8.814   1.442   8.348  1.6872  1.0273 -1.3791
  908MOL0     H22572   8.576   1.616   8.340 -1.0014  0.2631  1.5092
  908MOL0     H22573   8.733   1.698   8.358  0.1636  0.1554  1.7907
  908MOL0     H22574   8.626   1.478   8.544 -0.4836  0.1525  1.0956
  908MOL0     H22575   8.784   1.561   8.551  0.0754 -0.5384  0.7682
  908MOL0     H22576   8.541   1.853   8.732 -3.6311 -0.2209 -0.9119
  908MOL0     H22577   8.838   1.171   8.189  1.0773 -1.7923 -0.0620
  908MOL0     H22578   8.997   0.928   8.298 -0.7312 -1.2467  0.4125
  908MOL0     H22579   8.860   0.832   8.211 -1.6355  0.5048  0.9049
  908MOL0     H22580   8.913   0.983   8.143 -3.0656 -0.0561 -0.6694
  909MOL0     O22581   5.040   9.721   2.817 -0.3040  0.3615  0.4572
  909MOL0     C22582   5.056   9.747   2.934  0.1446  0.0021  0.3739
  909MOL0     O22583   4.963   9.823   3.005 -0.4785 -0.6702  0.0389
  909MOL0     C22584   4.837   9.867   2.952  0.5657  0.1180  1.2919
  909MOL0     C22585   4.719   9.873   3.034  0.1124  0.4774  0.7529
  909MOL0     C22586   4.598   9.924   2.988 -0.0575 -0.3107  0.4644
  909MOL0     C22587   4.593   9.992   2.864 -0.4482 -0.4520 -0.5923
  909MOL0     O22588   4.492  10.068   2.818  0.0794  0.4730  0.5455
  909MOL0     C22589   4.358  10.058   2.875 -0.4245  0.0199 -0.2447
  909MOL0     C22590   4.269  10.136   2.779  0.4581  0.3886  0.1952
  909MOL0     C22591   4.138  10.159   2.852 -0.2845 -0.1970 -0.5580
  909MOL0     C22592   4.046  10.265   2.768 -0.1517  0.2418 -0.0354
  909MOL0     C22593   4.085  10.415   2.785  1.2226  1.3397 -0.5621
  909MOL0     C22594   4.042  10.484   2.914  0.1747 -0.8232  0.3933
  909MOL0     C22595   4.114  10.617   2.925  0.8271  0.1434  0.3371
  909MOL0     C22596   4.068  10.706   3.048 -0.0346 -0.5541  0.4746
  909MOL0     N22597   4.093  10.843   3.028 -0.9291 -0.6473 -0.3030
  909MOL0     C22598   4.144  10.932   3.127 -0.4037  0.3296 -0.3054
  909MOL0     C22599   4.121  11.056   3.077 -0.3775 -0.4652  0.3529
  909MOL0     C22600   4.159  11.185   3.143  0.4269  0.2220 -0.5741
  909MOL0     C22601   4.226  11.291   3.051 -0.2906 -0.0407  0.5135
  909MOL0     C22602   4.340  11.227   2.969  0.3478 -0.0825 -0.8881
  909MOL0     C22603   4.410  11.326   2.882  0.9877  0.4195  0.3712
  909MOL0     O22604   4.503  11.262   2.788  0.1014 -0.2634 -0.3448
  909MOL0     C22605   4.469  11.203   2.665 -0.3551 -0.4637 -0.1245
  909MOL0     C22606   4.578  11.176   2.582  0.4035  0.0461 -0.0550
  909MOL0     C22607   4.557  11.111   2.464 -0.1795 -0.7662  0.8000
  909MOL0     C22608   4.420  11.077   2.410  0.1518 -1.4944  0.0763
  909MOL0     C22609   4.401  11.010   2.279 -0.4689  0.0731  0.6492
  909MOL0     O22610   4.512  10.979   2.214  0.2251 -0.2825 -0.2977
  909MOL0     C22611   4.505  10.925   2.082  0.3257 -0.0576 -0.6906
  909MOL0     C22612   4.592  10.817   2.053  0.2357  0.1467  0.0948
  909MOL0     C22613   4.605  10.764   1.923  0.5713 -0.0967 -1.0666
  909MOL0     C22614   4.544  10.824   1.815 -0.6573 -0.6930  0.9843
  909MOL0     O22615   4.543  10.760   1.694 -0.6415 -0.4965 -0.6285
  909MOL0     C22616   4.572  10.835   1.573  0.8526 -0.2711 -0.5644
  909MOL0     C22617   4.569  10.748   1.446  0.3899 -0.3031 -0.3368
  909MOL0     C22618   4.447  10.671   1.425 -0.2405 -0.0472 -0.9732
  909MOL0     C22619   4.333  10.759   1.385 -0.0913  0.1978  0.4705
  909MOL0     C22620   4.248  10.690   1.279  0.2499 -0.7499  0.1927
  909MOL0     C22621   4.126  10.791   1.253  0.2228  1.5903 -0.9513
  909MOL0     C22622   4.060  10.770   1.121 -1.3671 -0.0516 -0.5390
  909MOL0     C22623   3.981  10.897   1.081 -0.0493 -0.9036 -0.1554
  909MOL0    Cl22624   4.088  11.059   1.083 -0.3042 -0.0254 -0.1337
  909MOL0     C22625   4.452  10.928   1.832 -1.7466 -0.0973 -0.9494
  909MOL0     C22626   4.431  10.977   1.969 -0.1400  0.1927  0.3291
  909MOL0     O22627   4.292  10.997   2.234  0.5402  0.2280  0.2373
  909MOL0     C22628   4.314  11.131   2.492  0.2381  0.4302  0.1657
  909MOL0     C22629   4.334  11.174   2.623 -0.8119 -0.0604 -0.5352
  909MOL0     N22630   4.054  11.043   2.956  0.5085 -0.5975  0.5294
  909MOL0     N22631   4.035  10.918   2.929  0.0835 -0.2818  0.5394
  909MOL0     C22632   4.700   9.980   2.773  0.0592  0.0533  0.1816
  909MOL0     C22633   4.822   9.930   2.824  0.0811  0.5646 -0.8390
  909MOL0     C22634   5.176   9.720   3.005 -0.4219  0.3403  0.4101
  909MOL0     C22635   5.186   9.746   3.142  0.4532 -0.4093  0.7293
  909MOL0     C22636   5.301   9.724   3.220 -0.4329  0.7742  0.2659
  909MOL0     C22637   5.420   9.684   3.166 -0.4505  0.1291 -0.0925
  909MOL0     O22638   5.515   9.648   3.258 -0.0727  0.9719  0.1234
  909MOL0     C22639   5.635   9.590   3.206 -0.1007  0.7586  0.4923
  909MOL0     C22640   5.721   9.545   3.327  0.5114  0.4065  0.4764
  909MOL0     C22641   5.648   9.438   3.413  0.2712  0.2110  0.1464
  909MOL0     C22642   5.578   9.320   3.333 -0.3147 -0.4257  1.6238
  909MOL0     C22643   5.662   9.233   3.255  0.4792  0.4151  0.1344
  909MOL0     C22644   5.709   9.137   3.193  0.0668  0.2452  0.4703
  909MOL0     C22645   5.422   9.653   3.034  0.6584 -0.1964 -0.3777
  909MOL0     C22646   5.306   9.666   2.951 -0.1591 -0.1419  0.8459
  909MOL0     C22647   5.319   9.634   2.805  0.6076  0.8394 -0.0662
  909MOL0     H22648   4.707   9.837   3.136  1.5240 -0.0299  0.7668
  909MOL0     H22649   4.500   9.911   3.033  0.4504 -1.3110  1.3321
  909MOL0     H22650   4.324   9.954   2.883  1.7169 -0.7759 -0.8255
  909MOL0     H22651   4.364  10.102   2.975  0.5401 -1.1204  0.2175
  909MOL0     H22652   4.248  10.083   2.686 -0.4773 -2.0434  1.6933
  909MOL0     H22653   4.317  10.230   2.752 -1.1883  1.0027 -0.7238
  909MOL0     H22654   4.147  10.205   2.951 -1.1957 -1.3150  0.0728
  909MOL0     H22655   4.091  10.061   2.871 -3.1171  1.1174 -0.2260
  909MOL0     H22656   4.056  10.238   2.663  0.5005  1.4737 -0.3117
  909MOL0     H22657   3.946  10.241   2.805  0.5551 -1.8173  0.7090
  909MOL0     H22658   4.192  10.419   2.765  1.7385 -3.5001  0.1461
  909MOL0     H22659   4.038  10.461   2.697  1.3635 -2.9393 -3.1194
  909MOL0     H22660   3.936  10.510   2.912  0.6538  1.3096 -1.2132
  909MOL0     H22661   4.057  10.422   3.003  2.3533 -0.4970  0.3098
  909MOL0     H22662   4.096  10.675   2.835  2.1402  2.5099  1.4893
  909MOL0     H22663   4.222  10.606   2.915  0.7989  0.2159 -0.0285
  909MOL0     H22664   3.959  10.700   3.055  0.0826 -1.4318  2.0252
  909MOL0     H22665   4.111  10.662   3.139  0.7665 -1.4044 -0.2879
  909MOL0     H22666   4.200  10.929   3.220 -1.0780 -0.6760  0.0871
  909MOL0     H22667   4.070  11.238   3.179  1.2093  1.0621  0.1843
  909MOL0     H22668   4.222  11.166   3.231 -0.4813  2.6893  0.6953
  909MOL0     H22669   4.141  11.316   2.986  1.2848 -2.6534 -2.8208
  909MOL0     H22670   4.261  11.374   3.114  2.5338  0.3293 -1.3951
  909MOL0     H22671   4.297  11.151   2.903 -0.8069  1.2269 -1.7061
  909MOL0     H22672   4.408  11.183   3.042  0.7011  0.4643 -0.8794
  909MOL0     H22673   4.457  11.402   2.946 -0.0978  0.4852  1.1132
  909MOL0     H22674   4.341  11.397   2.835  0.3275 -1.8205 -2.2482
  909MOL0     H22675   4.677  11.208   2.613 -0.6157  3.1883  0.3604
  909MOL0     H22676   4.636  11.084   2.395 -1.2845 -1.9395 -0.0507
  909MOL0     H22677   4.663  10.781   2.127  1.2895 -0.4726 -1.1839
  909MOL0     H22678   4.664  10.675   1.903 -1.8459 -2.2371  0.7118
  909MOL0     H22679   4.506  10.922   1.560  3.8357  1.8027 -3.4794
  909MOL0     H22680   4.664  10.895   1.577  1.3644 -1.1077  1.3669
  909MOL0     H22681   4.590  10.810   1.358 -1.3655  0.8188 -0.0246
  909MOL0     H22682   4.651  10.677   1.459 -0.7402 -1.1354  3.3797
  909MOL0     H22683   4.452  10.591   1.351  5.7594  0.5879 -1.8158
  909MOL0     H22684   4.426  10.626   1.522 -1.0121  1.0078 -0.6402
  909MOL0     H22685   4.360  10.863   1.365  0.3524  0.2372  1.2267
  909MOL0     H22686   4.270  10.765   1.474 -0.3833  1.4151  0.1965
  909MOL0     H22687   4.208  10.596   1.317  0.0185  0.0178  1.9350
  909MOL0     H22688   4.297  10.682   1.182 -1.0814 -2.2905 -0.3977
  909MOL0     H22689   4.047  10.775   1.328  1.3299  1.8025  0.2996
  909MOL0     H22690   4.147  10.897   1.273 -0.6327  1.3929  1.3420
  909MOL0     H22691   3.995  10.681   1.120 -1.6854  0.1430  0.9769
  909MOL0     H22692   4.134  10.756   1.041 -1.3888 -3.1007 -0.1564
  909MOL0     H22693   3.926  10.880   0.988 -2.2378  2.3484  0.3676
  909MOL0     H22694   3.899  10.916   1.151 -0.6804  0.6072 -1.2498
  909MOL0     H22695   4.400  10.972   1.747  3.0056  2.4160 -2.9388
  909MOL0     H22696   4.365  11.061   1.985  1.1167  1.9512 -2.8713
  909MOL0     H22697   4.213  11.126   2.452 -0.0506 -1.6354  1.0465
  909MOL0     H22698   4.248  11.204   2.681  0.9912  2.4109  1.0860
  909MOL0     H22699   4.695  10.019   2.672 -0.1796  2.1507  0.9595
  909MOL0     H22700   4.911   9.945   2.763  0.5097  0.0769 -0.3508
  909MOL0     H22701   5.094   9.776   3.191  0.8901  2.4114  0.0028
  909MOL0     H22702   5.295   9.733   3.328  0.7115  2.0515  0.2412
  909MOL0     H22703   5.690   9.669   3.155 -0.4902  1.2439  0.8140
  909MOL0     H22704   5.614   9.510   3.133 -0.7370 -1.7589  3.2462
  909MOL0     H22705   5.752   9.621   3.399  0.9370 -0.5077  1.2846
  909MOL0     H22706   5.816   9.499   3.296 -0.6207 -1.8227  0.1668
  909MOL0     H22707   5.565   9.487   3.464  1.9668  3.4517  0.0770
  909MOL0     H22708   5.725   9.392   3.477 -1.1511 -2.5685  0.0095
  909MOL0     H22709   5.525   9.253   3.400  1.3077 -4.5559 -0.8386
  909MOL0     H22710   5.501   9.361   3.267 -0.0474 -2.6040 -0.1430
  909MOL0     H22711   5.757   9.059   3.136 -3.5025  0.1669 -2.8136
  909MOL0     H22712   5.506   9.597   2.996  0.7016 -1.4604  1.4317
  909MOL0     H22713   5.326   9.721   2.739 -3.4362  0.1646 -1.7118
  909MOL0     H22714   5.395   9.563   2.771  1.0966  1.5665 -0.5096
  909MOL0     H22715   5.229   9.581   2.771  0.7579  0.1454  0.5970
  910MOL0     O22716   2.820   3.889   3.878 -0.1603  0.0380  0.7269
  910MOL0     C22717   2.710   3.835   3.874  0.7757 -0.2875  0.2264
  910MOL0     O22718   2.656   3.778   3.763  0.0713 -0.2361  0.0942
  910MOL0     C22719   2.703   3.792   3.632 -1.5620 -0.1378 -0.2026
  910MOL0     C22720   2.615   3.808   3.520  0.3453 -0.6427  0.3358
  910MOL0     C22721   2.663   3.798   3.390  1.0560  0.4210  0.0279
  910MOL0     C22722   2.796   3.758   3.362 -0.3717 -0.2006 -0.6720
  910MOL0     O22723   2.836   3.754   3.231  0.1445 -0.0495  0.0448
  910MOL0     C22724   2.816   3.638   3.151 -0.7938 -0.5420 -0.8727
  910MOL0     C22725   2.829   3.674   3.009 -0.1245  0.9473 -0.3482
  910MOL0     C22726   2.698   3.752   2.961  0.1041 -0.1425 -0.3796
  910MOL0     C22727   2.689   3.753   2.810 -0.4225 -0.7149 -0.2806
  910MOL0     C22728   2.576   3.830   2.756  0.3734  0.6885  0.7094
  910MOL0     C22729   2.569   3.811   2.600 -1.0315  0.3031 -0.3098
  910MOL0     C22730   2.486   3.922   2.529  0.2017  0.0708  0.1452
  910MOL0     C22731   2.473   3.894   2.372  0.3791 -0.2746 -0.7544
  910MOL0     N22732   2.401   4.006   2.300  0.7233  0.7638 -0.2477
  910MOL0     C22733   2.459   4.071   2.193 -0.2975 -0.0603 -0.4173
  910MOL0     C22734   2.354   4.148   2.151  0.1809 -0.9611 -0.0080
  910MOL0     C22735   2.365   4.234   2.020  0.0056 -0.4086 -0.0697
  910MOL0     C22736   2.298   4.164   1.897  1.2518  0.7456  0.4780
  910MOL0     C22737   2.365   4.031   1.876  0.0112  0.7588 -0.1483
  910MOL0     C22738   2.302   3.938   1.766  0.3252 -1.3473  0.6430
  910MOL0     O22739   2.183   3.867   1.795  0.4066  0.1429  0.0675
  910MOL0     C22740   2.170   3.746   1.738 -0.8948  0.2951 -0.4035
  910MOL0     C22741   2.236   3.709   1.618  0.1924  0.4417 -0.4046
  910MOL0     C22742   2.217   3.580   1.559  0.1761 -1.0960 -0.5810
  910MOL0     C22743   2.123   3.493   1.624 -0.5841  0.7066  0.7177
  910MOL0     C22744   2.113   3.344   1.592  0.1768 -0.2155 -0.0466
  910MOL0     O22745   2.016   3.266   1.647 -0.2688 -0.2549 -0.5322
  910MOL0     C22746   2.027   3.132   1.645  0.2453  0.2362  0.0318
  910MOL0     C22747   2.140   3.061   1.690 -0.5259  0.0771 -0.7713
  910MOL0     C22748   2.123   2.921   1.705  0.2233  1.1367  0.9536
  910MOL0     C22749   2.001   2.858   1.709 -0.4113  0.5613 -0.6354
  910MOL0     O22750   1.978   2.732   1.740  0.1660 -0.2225  0.1649
  910MOL0     C22751   2.075   2.665   1.826  0.1458 -0.2384 -0.7160
  910MOL0     C22752   1.999   2.568   1.920  0.4835  0.6832 -0.1573
  910MOL0     C22753   1.913   2.642   2.023 -0.8894 -0.0615  0.0487
  910MOL0     C22754   1.821   2.564   2.121 -0.0048 -0.2100  0.2221
  910MOL0     C22755   1.732   2.471   2.047  0.2055 -0.4830  0.7373
  910MOL0     C22756   1.635   2.401   2.146 -1.1400 -1.1168  0.2458
  910MOL0     C22757   1.539   2.304   2.097  0.7560 -0.1096  0.4421
  910MOL0     C22758   1.587   2.230   1.977 -0.1363  0.2006 -0.0252
  910MOL0    Cl22759   1.710   2.111   2.015 -0.0296 -0.0134  0.0725
  910MOL0     C22760   1.890   2.930   1.673 -0.2704  0.1640  0.6282
  910MOL0     C22761   1.906   3.063   1.629  0.9876 -0.0082  0.1443
  910MOL0     O22762   2.208   3.299   1.536  0.0804  0.4005 -0.0121
  910MOL0     C22763   2.046   3.541   1.726 -0.2843 -0.3250 -0.7146
  910MOL0     C22764   2.075   3.664   1.788 -0.7665  0.8371 -0.0097
  910MOL0     N22765   2.245   4.149   2.239  0.0134 -0.2737  0.9294
  910MOL0     N22766   2.272   4.055   2.324  0.2747 -0.0690 -0.4017
  910MOL0     C22767   2.879   3.746   3.473  0.0235  0.0764 -0.8611
  910MOL0     C22768   2.835   3.763   3.604 -0.6065 -0.0132 -0.0480
  910MOL0     C22769   2.653   3.794   4.003  0.3166 -0.3385  0.4278
  910MOL0     C22770   2.741   3.755   4.101 -0.9542 -0.4762 -1.2320
  910MOL0     C22771   2.708   3.733   4.233  0.8277 -0.6260  0.1333
  910MOL0     C22772   2.576   3.733   4.264  0.0766  0.4654  0.7654
  910MOL0     O22773   2.522   3.712   4.386  0.2022 -0.1860 -0.0811
  910MOL0     C22774   2.604   3.663   4.493 -0.4193 -0.9624  0.5196
  910MOL0     C22775   2.541   3.654   4.633  0.4876  0.6534  1.2665
  910MOL0     C22776   2.403   3.579   4.625 -0.5703  0.3491 -0.4660
  910MOL0     C22777   2.281   3.651   4.581 -0.1513 -0.1155 -0.3371
  910MOL0     C22778   2.254   3.757   4.689  0.5612 -0.0069  0.0388
  910MOL0     C22779   2.225   3.845   4.764 -0.0644 -0.6126  0.2903
  910MOL0     C22780   2.481   3.757   4.168  0.2433 -0.2480  0.3394
  910MOL0     C22781   2.513   3.793   4.038  0.7942 -0.0782  0.1082
  910MOL0     C22782   2.409   3.829   3.940  0.2317  0.4346  0.7050
  910MOL0     H22783   2.511   3.835   3.537  0.7695  3.2847 -1.8643
  910MOL0     H22784   2.587   3.814   3.314 -2.2938 -0.0780  2.9953
  910MOL0     H22785   2.896   3.571   3.185 -1.0229 -0.7458 -0.7358
  910MOL0     H22786   2.720   3.593   3.176  0.5391 -1.6496  2.9839
  910MOL0     H22787   2.842   3.575   2.964  1.5571  0.7287  0.5653
  910MOL0     H22788   2.923   3.725   2.986  0.9774 -0.6085  0.5179
  910MOL0     H22789   2.681   3.853   2.999 -0.2497  0.0864 -1.1139
  910MOL0     H22790   2.607   3.695   2.985 -0.4493 -1.9646 -5.4552
  910MOL0     H22791   2.787   3.786   2.774 -1.0158  0.0606 -1.2301
  910MOL0     H22792   2.692   3.647   2.785  1.8996 -0.7525 -0.0210
  910MOL0     H22793   2.485   3.792   2.802 -1.2208  2.1225 -1.0903
  910MOL0     H22794   2.585   3.937   2.777  2.5202  0.3406  1.8674
  910MOL0     H22795   2.668   3.802   2.555 -1.9298  1.7491 -2.7913
  910MOL0     H22796   2.513   3.720   2.577 -2.1698  0.3625  1.9174
  910MOL0     H22797   2.551   4.010   2.542 -0.2446  0.4152  0.0716
  910MOL0     H22798   2.388   3.920   2.576  0.0724 -0.5482 -0.1469
  910MOL0     H22799   2.561   3.873   2.312  0.7500  3.9680 -2.0529
  910MOL0     H22800   2.408   3.806   2.376 -0.7357  0.4444 -2.1665
  910MOL0     H22801   2.554   4.052   2.143 -0.3014  1.4202 -1.0373
  910MOL0     H22802   2.324   4.335   2.033  1.9790  0.4778 -0.3588
  910MOL0     H22803   2.469   4.247   1.987  0.0577 -3.1248 -1.2099
  910MOL0     H22804   2.190   4.151   1.905  1.0646  1.1134 -1.1545
  910MOL0     H22805   2.306   4.230   1.811 -1.5955  1.8753  0.9694
  910MOL0     H22806   2.356   3.966   1.963  1.1639 -0.5663 -0.9816
  910MOL0     H22807   2.472   4.043   1.858  0.1289  5.7719  2.1899
  910MOL0     H22808   2.385   3.869   1.748 -0.1105 -1.6337 -0.3638
  910MOL0     H22809   2.277   3.996   1.677  0.2530 -2.6889 -0.2430
  910MOL0     H22810   2.317   3.769   1.579  1.4045  0.2711  1.7284
  910MOL0     H22811   2.264   3.548   1.466 -0.1659  3.9173 -2.8244
  910MOL0     H22812   2.238   3.105   1.707 -1.4487  1.6495  0.8577
  910MOL0     H22813   2.204   2.853   1.728 -2.0477 -1.6218  1.3603
  910MOL0     H22814   2.157   2.613   1.774  1.8020  1.0872  0.4674
  910MOL0     H22815   2.129   2.735   1.890  0.2250 -1.4687  0.6160
  910MOL0     H22816   1.943   2.504   1.852 -1.8616 -1.4864  3.4425
  910MOL0     H22817   2.068   2.500   1.971  3.8895  1.6577 -3.0931
  910MOL0     H22818   1.987   2.698   2.080 -0.9342  0.1918 -0.1442
  910MOL0     H22819   1.848   2.717   1.977  0.4035  3.1085  3.0452
  910MOL0     H22820   1.770   2.637   2.184  1.4112 -0.2977  1.5422
  910MOL0     H22821   1.883   2.501   2.185 -0.2426 -2.2752 -1.4635
  910MOL0     H22822   1.787   2.404   1.980  0.5049  0.5965 -0.1232
  910MOL0     H22823   1.679   2.523   1.967  2.5175  1.0713  0.1025
  910MOL0     H22824   1.677   2.367   2.241 -1.3415 -2.6344 -0.1889
  910MOL0     H22825   1.575   2.484   2.185 -2.2922 -0.0529 -3.3834
  910MOL0     H22826   1.461   2.369   2.058  2.9041  0.7216 -2.9427
  910MOL0     H22827   1.520   2.235   2.180 -0.7246 -0.0619  0.1649
  910MOL0     H22828   1.506   2.175   1.929  0.1401  1.1697 -1.7131
  910MOL0     H22829   1.624   2.301   1.902  1.0936  0.2325  0.5762
  910MOL0     H22830   1.796   2.877   1.661 -1.1213  1.7278  0.0679
  910MOL0     H22831   1.818   3.123   1.607  0.3900 -1.3946 -1.4349
  910MOL0     H22832   1.980   3.478   1.785 -2.3289  2.1331 -0.1973
  910MOL0     H22833   2.019   3.689   1.878  0.5170  4.0361  0.0497
  910MOL0     H22834   2.975   3.707   3.441  0.1881 -0.2427  0.0023
  910MOL0     H22835   2.898   3.744   3.690 -2.5190  1.4317  1.7740
  910MOL0     H22836   2.847   3.757   4.076 -1.1485  1.9713 -2.1825
  910MOL0     H22837   2.786   3.706   4.302  1.1740  0.6197  0.2591
  910MOL0     H22838   2.696   3.722   4.493  0.0241 -1.5759 -1.7041
  910MOL0     H22839   2.630   3.561   4.464 -2.4357 -1.0469 -1.2616
  910MOL0     H22840   2.521   3.757   4.663 -0.0348  0.4273  1.7082
  910MOL0     H22841   2.610   3.601   4.701  3.1388  1.1472 -0.8537
  910MOL0     H22842   2.383   3.546   4.728 -2.2948 -1.7584 -1.4195
  910MOL0     H22843   2.413   3.485   4.571  4.3519 -1.8596  3.4360
  910MOL0     H22844   2.290   3.703   4.486  0.2567 -0.9526 -0.7665
  910MOL0     H22845   2.199   3.579   4.576  0.4523 -0.9966  1.3376
  910MOL0     H22846   2.206   3.923   4.835  1.0991  0.2600 -0.3259
  910MOL0     H22847   2.382   3.775   4.209  1.0512  1.5567  1.6210
  910MOL0     H22848   2.458   3.898   3.872  0.5586  1.3987  1.8770
  910MOL0     H22849   2.374   3.738   3.889 -1.0786  1.1363  0.3210
  910MOL0     H22850   2.323   3.870   3.995 -1.2149 -2.9519  1.2500
  911MOL0     O22851  10.199   3.038   7.124 -0.3667  0.4475 -0.5105
  911MOL0     C22852  10.145   3.030   7.013  0.0740 -0.7891  0.4906
  911MOL0     O22853  10.161   3.116   6.911  0.1041 -0.3838 -0.1675
  911MOL0     C22854  10.274   3.194   6.896  0.2848 -0.5163  0.3473
  911MOL0     C22855  10.406   3.140   6.882 -0.8600 -0.0095 -0.0801
  911MOL0     C22856  10.513   3.222   6.859  0.4904  0.0256  0.4799
  911MOL0     C22857  10.489   3.348   6.813  0.7249  0.0276  0.6319
  911MOL0     O22858  10.597   3.433   6.791 -0.0467 -0.0559 -0.7604
  911MOL0     C22859  10.674   3.425   6.670  0.6616 -0.4212  1.1009
  911MOL0     C22860  10.699   3.558   6.596 -0.2605  0.0482 -1.6397
  911MOL0     C22861  10.754   3.660   6.694  0.6072 -0.8194  0.1484
  911MOL0     C22862  10.780   3.794   6.634  0.5444  0.1438  0.1099
  911MOL0     C22863  10.828   3.889   6.743  1.0804 -0.7854  0.1191
  911MOL0     C22864  10.846   4.038   6.695  0.5337  1.0751 -0.7906
  911MOL0     C22865  10.726   4.121   6.716 -0.3200 -0.0980 -0.7280
  911MOL0     C22866  10.731   4.250   6.655  1.4038 -1.1448 -0.8840
  911MOL0     N22867  10.836   4.350   6.684  0.3566  0.7135  0.7715
  911MOL0     C22868  10.920   4.341   6.788 -0.8509  0.0598 -0.1595
  911MOL0     C22869  11.005   4.440   6.785  0.3018 -0.4037 -0.1184
  911MOL0     C22870  11.102   4.442   6.901 -0.7277  0.4864 -0.2656
  911MOL0     C22871  11.246   4.507   6.893 -0.0789  0.1401 -0.0506
  911MOL0     C22872  11.343   4.415   6.824  0.1206  0.0841  0.2164
  911MOL0     C22873  11.485   4.469   6.816 -0.9467 -0.2875 -0.0572
  911MOL0     O22874  11.581   4.405   6.731  0.4691  0.3932  0.0608
  911MOL0     C22875  11.706   4.454   6.703  0.1784  0.6164  0.2104
  911MOL0     C22876  11.785   4.375   6.622 -0.1807 -0.7783 -1.6059
  911MOL0     C22877  11.920   4.398   6.600 -0.2897 -0.4322  0.2696
  911MOL0     C22878  11.980   4.509   6.655 -0.7365 -0.3033 -0.6058
  911MOL0     C22879  12.127   4.521   6.654 -0.4948 -0.0186  1.0559
  911MOL0     O22880  12.200   4.427   6.593 -0.6323 -0.2428  0.4102
  911MOL0     C22881  12.343   4.448   6.587  0.7150  0.4315 -0.4235
  911MOL0     C22882  12.419   4.333   6.594 -0.4652  0.3794  0.0920
  911MOL0     C22883  12.555   4.337   6.552 -0.4938 -0.2851  0.4216
  911MOL0     C22884  12.619   4.459   6.514  0.6762 -0.4206 -0.0722
  911MOL0     O22885  12.748   4.460   6.478  0.1030  0.4502  0.3549
  911MOL0     C22886  12.816   4.562   6.546  0.7498 -0.2533  0.0258
  911MOL0     C22887  12.969   4.536   6.525  0.5297  0.6479 -0.7910
  911MOL0     C22888  13.004   4.389   6.550  0.3324  0.3231  0.3482
  911MOL0     C22889  13.150   4.362   6.505  0.4149  0.3078  1.1857
  911MOL0     C22890  13.185   4.210   6.556 -0.0735  1.0586 -0.4650
  911MOL0     C22891  13.300   4.155   6.474 -0.0060 -0.1608 -0.2019
  911MOL0     C22892  13.248   4.098   6.345 -0.6706  0.0826  0.0990
  911MOL0     C22893  13.364   4.009   6.284 -0.2459  0.5147  1.1467
  911MOL0    Cl22894  13.312   3.934   6.135 -0.0634  0.3099  0.2388
  911MOL0     C22895  12.543   4.573   6.516  0.4447 -0.0464  1.1275
  911MOL0     C22896  12.407   4.564   6.546 -0.1086 -0.5433  0.0249
  911MOL0     O22897  12.176   4.626   6.698  0.0299 -0.5604  0.2711
  911MOL0     C22898  11.900   4.599   6.731 -0.4199 -0.5999  0.5217
  911MOL0     C22899  11.766   4.573   6.750  0.8322  0.0759 -0.7697
  911MOL0     N22900  10.995   4.506   6.661 -0.3735 -1.2280 -0.0604
  911MOL0     N22901  10.887   4.448   6.607 -1.3785 -0.7852 -0.1427
  911MOL0     C22902  10.357   3.403   6.822  0.1657 -0.2931  1.0078
  911MOL0     C22903  10.251   3.323   6.859  1.0936  1.0683 -0.3096
  911MOL0     C22904  10.045   2.922   6.990  0.6787 -0.7454  0.8105
  911MOL0     C22905  10.045   2.863   6.862  0.3138  0.8184 -0.0610
  911MOL0     C22906   9.964   2.756   6.825 -0.6039  0.5867 -1.1009
  911MOL0     C22907   9.890   2.689   6.921  0.1390  1.1440 -0.7138
  911MOL0     O22908   9.809   2.591   6.873  0.1022  0.5669  0.3214
  911MOL0     C22909   9.783   2.488   6.967 -0.5285 -0.3999  0.5811
  911MOL0     C22910   9.721   2.375   6.897  0.5967  0.0191  0.0696
  911MOL0     C22911   9.830   2.315   6.804 -0.3928 -0.8467 -0.2075
  911MOL0     C22912   9.816   2.179   6.771  0.0916  0.7657  0.0904
  911MOL0     C22913   9.700   2.170   6.682  0.4153 -0.1542 -0.1521
  911MOL0     C22914   9.591   2.154   6.626  0.6626  0.5681 -0.3206
  911MOL0     C22915   9.887   2.737   7.055  0.4127 -0.3232 -0.1314
  911MOL0     C22916   9.961   2.851   7.089  0.2797 -0.4173 -0.2837
  911MOL0     C22917   9.956   2.898   7.233 -0.4532  0.8133 -0.1241
  911MOL0     H22918  10.431   3.037   6.901 -0.2958  0.3891  1.5307
  911MOL0     H22919  10.614   3.182   6.865  0.2243 -0.6900  0.2311
  911MOL0     H22920  10.764   3.365   6.685  1.2210  0.3752  1.0441
  911MOL0     H22921  10.608   3.381   6.595 -2.3154  1.9063  2.1353
  911MOL0     H22922  10.601   3.591   6.561 -1.0226 -1.5377 -1.0826
  911MOL0     H22923  10.762   3.545   6.508  0.7077  1.0823 -1.1280
  911MOL0     H22924  10.840   3.616   6.745  1.7201 -1.2638 -1.9612
  911MOL0     H22925  10.679   3.668   6.773  3.1494 -1.8102  2.8638
  911MOL0     H22926  10.853   3.785   6.554 -1.7487 -1.0354 -1.9828
  911MOL0     H22927  10.693   3.833   6.582  0.0129 -2.7895 -1.3974
  911MOL0     H22928  10.756   3.874   6.824 -2.0981  0.0647 -2.3069
  911MOL0     H22929  10.921   3.857   6.789  2.0264 -0.2383 -1.3387
  911MOL0     H22930  10.912   4.081   6.770  1.5225 -0.3165 -0.8212
  911MOL0     H22931  10.884   4.046   6.592 -0.5299  1.5591 -1.1604
  911MOL0     H22932  10.705   4.143   6.821 -1.5488  0.8560 -1.1462
  911MOL0     H22933  10.644   4.067   6.665 -1.4528 -0.4674  1.3860
  911MOL0     H22934  10.731   4.244   6.546 -3.7100  0.2401 -1.2018
  911MOL0     H22935  10.640   4.302   6.687  2.3254  1.7836 -2.6527
  911MOL0     H22936  10.905   4.272   6.870  1.7211 -1.0979 -0.5534
  911MOL0     H22937  11.041   4.495   6.975  1.0711  0.7110  1.1181
  911MOL0     H22938  11.113   4.340   6.939 -0.6103  0.8625  0.7244
  911MOL0     H22939  11.255   4.599   6.834  0.7043 -1.3382 -2.3657
  911MOL0     H22940  11.263   4.510   7.001 -1.3718 -1.9439  0.2598
  911MOL0     H22941  11.305   4.399   6.723  2.2779 -0.1767 -0.5963
  911MOL0     H22942  11.337   4.314   6.865 -2.7673  0.6928  1.5654
  911MOL0     H22943  11.532   4.472   6.914  1.0039  1.2001 -0.9538
  911MOL0     H22944  11.480   4.568   6.769 -0.3871 -0.8711 -1.4225
  911MOL0     H22945  11.741   4.278   6.601 -2.7749  0.2588 -1.3602
  911MOL0     H22946  11.981   4.327   6.545  1.5450  0.0596  1.5724
  911MOL0     H22947  12.368   4.239   6.611  0.1637  0.4939  3.3605
  911MOL0     H22948  12.617   4.248   6.542  0.1931 -0.2610  3.4664
  911MOL0     H22949  12.781   4.654   6.499 -1.6571 -0.3489  1.4646
  911MOL0     H22950  12.786   4.550   6.651  1.2929  3.2433  0.6896
  911MOL0     H22951  12.963   4.554   6.417 -1.8196 -2.7032 -1.3747
  911MOL0     H22952  13.023   4.597   6.597 -3.6083  1.3864  2.0763
  911MOL0     H22953  13.007   4.381   6.660 -0.7886  1.7121  0.5163
  911MOL0     H22954  12.937   4.312   6.511  0.1754 -0.3086  1.7810
  911MOL0     H22955  13.212   4.448   6.532 -1.2662  3.8293 -4.4246
  911MOL0     H22956  13.166   4.363   6.396  2.7504  2.5330  1.4562
  911MOL0     H22957  13.101   4.140   6.554 -0.3093  1.3345 -0.3018
  911MOL0     H22958  13.219   4.211   6.660  3.6212 -1.1575 -1.4724
  911MOL0     H22959  13.368   4.235   6.444 -0.2754  1.1529  2.4108
  911MOL0     H22960  13.349   4.081   6.537 -0.3204 -0.6120 -0.4858
  911MOL0     H22961  13.222   4.171   6.268 -2.8780 -0.7712 -0.0343
  911MOL0     H22962  13.159   4.036   6.362  0.6870 -2.6955 -2.1401
  911MOL0     H22963  13.448   4.073   6.257  0.6419 -1.9978 -2.7412
  911MOL0     H22964  13.406   3.929   6.346 -1.6013 -0.7948  0.4298
  911MOL0     H22965  12.580   4.667   6.476  1.1235  0.3797  2.6597
  911MOL0     H22966  12.351   4.655   6.527  1.8711  0.6708 -0.3001
  911MOL0     H22967  11.943   4.674   6.797 -0.5548 -0.9084  0.9710
  911MOL0     H22968  11.720   4.644   6.818  2.2159  1.7214 -1.4722
  911MOL0     H22969  10.353   3.511   6.809 -0.1617 -0.5141 -1.0496
  911MOL0     H22970  10.150   3.363   6.855  1.1179  1.0526 -2.1018
  911MOL0     H22971  10.104   2.904   6.781 -0.4911  1.9203 -0.1110
  911MOL0     H22972   9.960   2.714   6.725 -7.4336  2.2309 -1.9738
  911MOL0     H22973   9.710   2.528   7.037  1.8644  1.9171  1.9416
  911MOL0     H22974   9.868   2.456   7.029 -0.1296  1.1833  0.9037
  911MOL0     H22975   9.636   2.418   6.843 -0.2789  0.8905  2.0498
  911MOL0     H22976   9.678   2.297   6.961  0.4176 -0.4917 -0.6648
  911MOL0     H22977   9.921   2.314   6.865  0.0997  1.3754 -0.8033
  911MOL0     H22978   9.858   2.384   6.724  0.9898  0.3132  1.2183
  911MOL0     H22979   9.907   2.137   6.726  0.0869 -0.9948  1.6116
  911MOL0     H22980   9.798   2.113   6.857 -0.3207  0.4017 -0.2740
  911MOL0     H22981   9.500   2.122   6.580  0.5868 -0.6496  0.6360
  911MOL0     H22982   9.831   2.683   7.130  1.5315 -1.4142 -0.0515
  911MOL0     H22983   9.948   3.007   7.231 -0.5683  0.8614  1.7626
  911MOL0     H22984   9.872   2.852   7.284  1.2464 -2.1719  0.2057
  911MOL0     H22985  10.048   2.866   7.283 -0.6120  0.1385 -0.2606
  912MOL0     O22986   2.641   6.088   1.656 -0.2763 -0.6809 -0.0521
  912MOL0     C22987   2.640   5.967   1.642 -0.9907  0.4406  0.0629
  912MOL0     O22988   2.538   5.887   1.671  0.3088 -0.3909 -0.0893
  912MOL0     C22989   2.427   5.946   1.714  0.2495  0.4823 -1.0102
  912MOL0     C22990   2.404   5.915   1.852  0.0391  0.1551  0.3394
  912MOL0     C22991   2.282   5.976   1.911  0.4012  0.1464  0.9734
  912MOL0     C22992   2.199   6.059   1.832 -0.1410 -0.3462  0.4361
  912MOL0     O22993   2.083   6.113   1.887 -0.9264 -0.1154 -0.0398
  912MOL0     C22994   1.994   6.017   1.948 -1.1474  0.2399  1.1435
  912MOL0     C22995   1.852   6.049   1.903  0.2175 -0.1684  0.3450
  912MOL0     C22996   1.735   5.977   1.970 -0.4081  0.5128 -1.1110
  912MOL0     C22997   1.726   6.030   2.114  0.1026 -0.0442  0.3707
  912MOL0     C22998   1.652   5.937   2.209  0.4344  0.3810 -0.0632
  912MOL0     C22999   1.513   5.886   2.169 -0.8980  0.0827  0.5732
  912MOL0     C23000   1.474   5.774   2.258 -0.8219 -0.2937  0.1748
  912MOL0     C23001   1.436   5.825   2.403  0.3497  1.2850  0.2614
  912MOL0     N23002   1.397   5.704   2.490 -0.0302 -0.4323 -0.2882
  912MOL0     C23003   1.262   5.671   2.512 -0.0949 -0.3463  0.0352
  912MOL0     C23004   1.254   5.596   2.625  0.3309 -1.2437  0.8384
  912MOL0     C23005   1.133   5.549   2.695 -0.2961 -0.9423 -0.1967
  912MOL0     C23006   1.093   5.417   2.642  0.1798  0.1504 -0.2391
  912MOL0     C23007   1.017   5.442   2.514 -0.2736  0.0117  0.9346
  912MOL0     C23008   0.919   5.333   2.477 -0.1186  0.5486  0.4466
  912MOL0     O23009   0.808   5.379   2.397  0.1620 -0.1967  0.9019
  912MOL0     C23010   0.829   5.413   2.271 -0.7385  0.3135  0.6083
  912MOL0     C23011   0.914   5.344   2.182  0.6164 -1.0035  0.8418
  912MOL0     C23012   0.930   5.382   2.054  0.4385  0.4779  0.5081
  912MOL0     C23013   0.850   5.486   2.002  0.6221 -0.5091 -0.2674
  912MOL0     C23014   0.864   5.532   1.861  0.6441  0.2411  0.1891
  912MOL0     O23015   0.931   5.449   1.782  0.1161  0.0290 -0.0715
  912MOL0     C23016   0.937   5.475   1.644 -1.1620  0.4482 -0.6547
  912MOL0     C23017   0.993   5.597   1.595 -0.0231  0.0351 -0.1114
  912MOL0     C23018   0.980   5.618   1.455 -0.1378 -0.7470 -0.3165
  912MOL0     C23019   0.921   5.527   1.366  0.2039  0.0089 -0.4279
  912MOL0     O23020   0.922   5.565   1.230  0.2856 -0.6619  0.0368
  912MOL0     C23021   0.880   5.467   1.134 -0.1336 -0.5656  0.2404
  912MOL0     C23022   0.925   5.515   0.995 -1.9205  0.3181 -0.2920
  912MOL0     C23023   1.075   5.522   0.976 -0.3569  0.1750 -0.2686
  912MOL0     C23024   1.105   5.537   0.828 -0.1045 -0.3229 -0.4692
  912MOL0     C23025   1.082   5.407   0.748 -1.0725 -0.6134 -0.4523
  912MOL0     C23026   1.070   5.443   0.599  0.4119  0.3431 -0.3773
  912MOL0     C23027   0.985   5.333   0.531 -0.3932  0.9665  0.4492
  912MOL0     C23028   0.831   5.369   0.516 -0.1400 -0.0555 -1.5330
  912MOL0    Cl23029   0.740   5.255   0.402  0.5327  0.0141 -0.1000
  912MOL0     C23030   0.867   5.418   1.417 -0.0332 -0.6443  0.1480
  912MOL0     C23031   0.874   5.396   1.557 -0.0942 -0.1469 -0.6127
  912MOL0     O23032   0.829   5.643   1.827  0.0312 -0.8164  0.9818
  912MOL0     C23033   0.766   5.564   2.085 -0.0789  0.1553  0.5889
  912MOL0     C23034   0.759   5.520   2.220  0.3232  0.1984 -0.2882
  912MOL0     N23035   1.381   5.602   2.688  0.0697 -0.6548 -0.4812
  912MOL0     N23036   1.464   5.660   2.607  0.6297 -1.1122  0.1584
  912MOL0     C23037   2.242   6.094   1.709 -0.6381 -1.5915 -0.0618
  912MOL0     C23038   2.353   6.033   1.643 -0.5621 -0.1849 -0.4636
  912MOL0     C23039   2.772   5.902   1.596 -0.4627  0.5557  0.4435
  912MOL0     C23040   2.780   5.758   1.602  0.4599  0.5365  0.7631
  912MOL0     C23041   2.892   5.700   1.550 -0.0612 -0.2162 -0.3623
  912MOL0     C23042   2.994   5.762   1.489 -1.6616  0.1046 -0.1408
  912MOL0     O23043   3.099   5.703   1.427 -0.8693  0.1457 -0.1841
  912MOL0     C23044   3.115   5.569   1.414 -0.3093  0.2144  0.3935
  912MOL0     C23045   3.186   5.495   1.530 -0.0402  0.5742 -0.0372
  912MOL0     C23046   3.328   5.550   1.559  0.9524  0.7334 -0.9334
  912MOL0     C23047   3.405   5.454   1.638 -0.1077  0.7718  0.0333
  912MOL0     C23048   3.373   5.447   1.783  0.1252 -0.2197  0.5904
  912MOL0     C23049   3.339   5.436   1.895  0.0578  0.5546 -0.2602
  912MOL0     C23050   2.988   5.894   1.490 -0.0361 -0.0283  0.0644
  912MOL0     C23051   2.886   5.973   1.547  0.3808 -0.0252 -0.0296
  912MOL0     C23052   2.909   6.110   1.566 -0.3064  0.2277 -0.3610
  912MOL0     H23053   2.464   5.841   1.903 -0.9375  0.6435  2.2664
  912MOL0     H23054   2.258   5.972   2.017 -2.4160  5.2138  0.8790
  912MOL0     H23055   2.022   5.912   1.936 -5.2448 -0.9861  0.7700
  912MOL0     H23056   2.002   6.031   2.056  0.0942 -2.6336  1.5142
  912MOL0     H23057   1.849   6.032   1.795  0.7737  2.1620 -0.0810
  912MOL0     H23058   1.839   6.156   1.886 -1.7590 -0.7190 -2.3467
  912MOL0     H23059   1.749   5.869   1.978 -0.7536  0.5097 -0.4530
  912MOL0     H23060   1.643   5.989   1.911 -0.3796  0.4984 -1.1585
  912MOL0     H23061   1.818   6.061   2.166  3.7611 -2.1200 -4.1191
  912MOL0     H23062   1.658   6.115   2.109 -2.9305 -2.3789 -0.9495
  912MOL0     H23063   1.715   5.849   2.228 -2.6574 -1.8925  0.5227
  912MOL0     H23064   1.651   5.995   2.302  0.9450  2.4588 -1.2881
  912MOL0     H23065   1.446   5.972   2.171  1.0412  1.7033 -0.3851
  912MOL0     H23066   1.521   5.847   2.067 -1.0089 -1.2754  1.0628
  912MOL0     H23067   1.556   5.702   2.259 -0.8139 -0.3091 -0.6928
  912MOL0     H23068   1.389   5.723   2.211  1.4724 -2.2578 -2.1491
  912MOL0     H23069   1.531   5.862   2.443  1.5348 -2.2546  1.0817
  912MOL0     H23070   1.358   5.900   2.416 -1.4774 -0.3728 -0.5763
  912MOL0     H23071   1.184   5.699   2.442  0.8173  1.8444 -0.1754
  912MOL0     H23072   1.151   5.535   2.801  0.0606  2.8577  0.3763
  912MOL0     H23073   1.057   5.628   2.684  0.4164 -0.3019 -0.6458
  912MOL0     H23074   1.172   5.347   2.614  0.1634 -0.3669  0.9273
  912MOL0     H23075   1.023   5.367   2.710 -1.9028 -0.1277 -2.4532
  912MOL0     H23076   1.087   5.449   2.430 -2.3526  1.7801 -0.7683
  912MOL0     H23077   0.976   5.543   2.514 -0.4530 -0.0572 -0.1281
  912MOL0     H23078   0.861   5.293   2.561  0.1492  1.0310  0.8698
  912MOL0     H23079   0.957   5.240   2.435 -1.2404  0.2052  0.1454
  912MOL0     H23080   0.968   5.257   2.218 -4.4894 -5.1853 -0.2765
  912MOL0     H23081   0.994   5.329   1.985 -1.0418  0.1921 -0.7033
  912MOL0     H23082   1.037   5.661   1.671  2.0983 -0.4844 -0.8193
  912MOL0     H23083   1.028   5.705   1.413  2.7671 -0.4477  3.1816
  912MOL0     H23084   0.916   5.366   1.158  0.5484  0.2548  3.0471
  912MOL0     H23085   0.771   5.454   1.128  0.0198 -2.4121  0.7748
  912MOL0     H23086   0.873   5.460   0.915 -0.4890  2.2350 -2.6866
  912MOL0     H23087   0.873   5.611   0.985 -0.6424  0.7662 -4.9321
  912MOL0     H23088   1.121   5.612   1.020  0.0694 -0.2225  0.1061
  912MOL0     H23089   1.106   5.429   1.023  0.4277  0.3178 -0.4900
  912MOL0     H23090   1.210   5.566   0.825 -0.2981  0.7225  1.3839
  912MOL0     H23091   1.048   5.621   0.786 -0.4151 -1.6021 -2.7038
  912MOL0     H23092   0.987   5.360   0.775  0.2695 -2.4338  1.4383
  912MOL0     H23093   1.156   5.328   0.766 -0.9774 -0.3267  0.4368
  912MOL0     H23094   1.032   5.546   0.594 -0.3969  0.0458 -0.4805
  912MOL0     H23095   1.171   5.452   0.560  0.6110  0.6960  0.2015
  912MOL0     H23096   1.009   5.233   0.566 -1.0435 -0.1170 -1.9764
  912MOL0     H23097   1.024   5.320   0.429  0.0569  3.7117  0.1917
  912MOL0     H23098   0.792   5.369   0.618  1.5842  3.9692 -0.7021
  912MOL0     H23099   0.819   5.469   0.474  0.4117  1.4372  1.5954
  912MOL0     H23100   0.809   5.352   1.354  2.0126 -4.5944  2.0031
  912MOL0     H23101   0.829   5.303   1.591 -3.0560  1.4516  0.2383
  912MOL0     H23102   0.715   5.653   2.050 -0.3913  0.5507  1.9957
  912MOL0     H23103   0.683   5.565   2.284 -0.0226 -2.4575  1.3086
  912MOL0     H23104   2.175   6.155   1.648  0.6673  1.1985  1.1116
  912MOL0     H23105   2.381   6.042   1.538 -0.1002 -1.0811 -0.4313
  912MOL0     H23106   2.700   5.697   1.644 -0.4737  1.3817  0.2652
  912MOL0     H23107   2.898   5.592   1.544 -1.5016 -0.3687  0.3650
  912MOL0     H23108   3.169   5.535   1.325 -0.5191  1.0622 -0.0682
  912MOL0     H23109   3.020   5.518   1.394 -0.7575  1.2208 -0.1273
  912MOL0     H23110   3.203   5.391   1.504 -0.9354 -0.4246  2.9182
  912MOL0     H23111   3.133   5.512   1.625  0.9794  2.4775  0.2418
  912MOL0     H23112   3.306   5.633   1.625 -0.9088  0.8974 -1.7017
  912MOL0     H23113   3.384   5.575   1.468  1.9439 -0.9945 -0.8398
  912MOL0     H23114   3.387   5.356   1.593  1.4241  0.3467  0.3154
  912MOL0     H23115   3.509   5.486   1.637  0.3213  0.0082  4.0166
  912MOL0     H23116   3.323   5.441   2.001  1.4800  3.4076 -0.0606
  912MOL0     H23117   3.062   5.950   1.434 -0.3662  3.3293  2.6000
  912MOL0     H23118   2.853   6.173   1.496 -2.2125  0.5637  1.3870
  912MOL0     H23119   2.889   6.140   1.669 -2.3243 -0.6671 -0.4558
  912MOL0     H23120   3.016   6.128   1.547  0.1824  0.5959  2.3374
  913MOL0     O23121   1.657   8.872   4.963 -0.3012  0.0490 -0.0618
  913MOL0     C23122   1.752   8.811   4.921 -1.0247  0.0659  0.1304
  913MOL0     O23123   1.816   8.709   4.986 -0.6503  0.3380 -0.8686
  913MOL0     C23124   1.769   8.691   5.114  0.2943 -0.8072 -0.3502
  913MOL0     C23125   1.688   8.583   5.150  0.1313  0.3833  0.0499
  913MOL0     C23126   1.648   8.563   5.281 -0.8409  0.5620 -1.1793
  913MOL0     C23127   1.687   8.649   5.391  0.1165  0.3004 -0.2265
  913MOL0     O23128   1.634   8.641   5.521  0.3340  0.6127  0.3869
  913MOL0     C23129   1.724   8.618   5.631  0.3088 -0.3885  0.2625
  913MOL0     C23130   1.831   8.507   5.593 -0.7987 -0.8249 -0.4758
  913MOL0     C23131   1.908   8.489   5.717  0.0086  0.0956  0.5458
  913MOL0     C23132   2.009   8.606   5.754 -0.0598  0.3713  0.3404
  913MOL0     C23133   2.078   8.688   5.645 -0.2918 -0.2006 -0.1392
  913MOL0     C23134   2.183   8.609   5.566 -0.6271  0.4249  0.7310
  913MOL0     C23135   2.244   8.681   5.452 -0.0133 -0.5846  0.3698
  913MOL0     C23136   2.143   8.702   5.341  0.7085  0.6694  0.6169
  913MOL0     N23137   2.207   8.738   5.215  0.4383 -0.2898 -0.0372
  913MOL0     C23138   2.311   8.827   5.190 -0.7005  0.5566  0.9027
  913MOL0     C23139   2.349   8.807   5.059 -0.1984 -0.1898 -0.5321
  913MOL0     C23140   2.455   8.882   4.980 -0.1289 -0.1088 -0.7740
  913MOL0     C23141   2.400   8.933   4.852  0.2678 -0.8338 -0.6079
  913MOL0     C23142   2.509   9.007   4.771 -0.1824 -0.2329 -0.9521
  913MOL0     C23143   2.479   9.028   4.622 -0.2314 -0.6369  0.0060
  913MOL0     O23144   2.350   9.081   4.607  0.7814  0.4619  1.2773
  913MOL0     C23145   2.338   9.156   4.495  0.0246 -1.0935 -0.5749
  913MOL0     C23146   2.373   9.292   4.479 -0.2910 -0.0245  0.0842
  913MOL0     C23147   2.337   9.359   4.361  1.0578 -0.7733 -0.0390
  913MOL0     C23148   2.277   9.284   4.254  0.7076  0.0867 -0.1550
  913MOL0     C23149   2.237   9.350   4.133 -0.0637 -0.6731  0.4180
  913MOL0     O23150   2.236   9.489   4.142 -1.1116  0.2374  0.9634
  913MOL0     C23151   2.188   9.577   4.041  0.8542 -0.4786 -0.0585
  913MOL0     C23152   2.105   9.682   4.070 -0.2941 -0.2797  0.9947
  913MOL0     C23153   2.069   9.777   3.970  0.6982 -0.0151 -0.6621
  913MOL0     C23154   2.100   9.755   3.835 -0.1743 -0.2908 -0.1984
  913MOL0     O23155   2.075   9.847   3.736  1.4140 -0.1343  0.7327
  913MOL0     C23156   2.186   9.903   3.678 -0.1046 -0.7381 -0.0806
  913MOL0     C23157   2.212  10.047   3.732  0.2502 -1.1534 -0.5154
  913MOL0     C23158   2.084  10.144   3.702 -0.2189  0.5581  0.4619
  913MOL0     C23159   2.134  10.279   3.749 -0.5681 -0.7765 -0.1750
  913MOL0     C23160   2.051  10.398   3.705 -0.3274 -0.5484  1.3661
  913MOL0     C23161   2.093  10.528   3.774  0.7175  0.0769  0.1896
  913MOL0     C23162   1.991  10.643   3.741  0.1749 -1.3938 -0.7004
  913MOL0     C23163   2.062  10.784   3.726  0.4986  0.1490 -0.6513
  913MOL0    Cl23164   1.943  10.907   3.662 -0.1333  0.0479 -0.4442
  913MOL0     C23165   2.165   9.632   3.805 -0.2969 -0.5290  0.7907
  913MOL0     C23166   2.199   9.549   3.900  0.1464  0.2462 -0.8918
  913MOL0     O23167   2.206   9.280   4.039 -0.1173 -0.2333  0.0260
  913MOL0     C23168   2.249   9.147   4.272 -1.0330 -0.4310 -0.1789
  913MOL0     C23169   2.280   9.086   4.391 -0.7117 -0.8874  0.4004
  913MOL0     N23170   2.257   8.717   5.010  0.3325  0.0667 -0.2873
  913MOL0     N23171   2.179   8.668   5.098  0.2131  0.9668 -0.8654
  913MOL0     C23172   1.771   8.746   5.351 -0.0977 -0.9636  0.5210
  913MOL0     C23173   1.815   8.778   5.219 -0.3800  0.4119 -0.9378
  913MOL0     C23174   1.793   8.841   4.779  0.5322 -0.3292  0.1760
  913MOL0     C23175   1.701   8.808   4.672 -0.1292 -0.0376  0.3679
  913MOL0     C23176   1.745   8.838   4.539  0.6005 -0.0912  0.4458
  913MOL0     C23177   1.867   8.885   4.504  0.5304  0.1070  0.6348
  913MOL0     O23178   1.892   8.909   4.370 -1.1989 -0.3939  0.2007
  913MOL0     C23179   1.930   8.792   4.291  0.3713  0.0215 -0.3459
  913MOL0     C23180   1.979   8.832   4.151  0.0596  0.3324 -0.7207
  913MOL0     C23181   1.862   8.866   4.061  0.0834 -0.0875 -0.8361
  913MOL0     C23182   1.911   8.870   3.909 -0.1940  0.8398 -0.1659
  913MOL0     C23183   1.911   8.727   3.871 -0.5087  0.6524  0.2338
  913MOL0     C23184   1.926   8.614   3.829 -0.6688  0.2793 -0.4947
  913MOL0     C23185   1.949   8.925   4.606  0.4444 -0.2015  0.1490
  913MOL0     C23186   1.914   8.908   4.743  0.1874  0.7726 -0.3432
  913MOL0     C23187   2.024   8.935   4.844 -0.4292  0.6193  0.3953
  913MOL0     H23188   1.650   8.515   5.075 -3.7058 -0.0119  2.1028
  913MOL0     H23189   1.569   8.489   5.285 -0.5930  0.3540  0.3638
  913MOL0     H23190   1.772   8.714   5.649 -0.8030  0.5232 -1.3987
  913MOL0     H23191   1.674   8.604   5.728  1.3453  0.2011  0.9065
  913MOL0     H23192   1.886   8.534   5.503 -2.9977  0.9641 -1.4066
  913MOL0     H23193   1.779   8.411   5.589 -0.8683 -0.8079 -0.0329
  913MOL0     H23194   1.977   8.405   5.705  1.4193  0.7471  3.2761
  913MOL0     H23195   1.846   8.457   5.802  0.0101 -1.7659 -0.1043
  913MOL0     H23196   1.965   8.678   5.823  1.2806  2.3652 -0.7729
  913MOL0     H23197   2.090   8.562   5.814  1.4396 -0.6320 -2.2618
  913MOL0     H23198   2.007   8.736   5.577 -0.4453  3.2247  2.1419
  913MOL0     H23199   2.129   8.772   5.694  0.4169  0.0745 -1.3032
  913MOL0     H23200   2.266   8.595   5.635 -0.2221 -3.4564 -0.3435
  913MOL0     H23201   2.134   8.517   5.534 -2.5172  1.6981 -0.2569
  913MOL0     H23202   2.326   8.617   5.419 -0.9940 -0.6519 -2.1922
  913MOL0     H23203   2.281   8.777   5.491 -1.6818  0.6829 -1.0005
  913MOL0     H23204   2.084   8.610   5.331  0.9293  0.4719  1.1057
  913MOL0     H23205   2.069   8.776   5.373  0.2168  0.3656  0.1984
  913MOL0     H23206   2.365   8.892   5.258 -0.3227  0.8487  0.3413
  913MOL0     H23207   2.492   8.956   5.051 -2.3600  0.3753 -0.0470
  913MOL0     H23208   2.536   8.814   4.952 -0.3037  0.3558 -2.5466
  913MOL0     H23209   2.351   8.856   4.792 -0.7065 -2.0836  1.6678
  913MOL0     H23210   2.321   9.005   4.876  0.0151 -1.9143  2.1590
  913MOL0     H23211   2.599   8.946   4.778  0.6711  1.2111  2.8899
  913MOL0     H23212   2.526   9.108   4.809 -0.0484 -0.8389  0.6711
  913MOL0     H23213   2.480   8.930   4.575 -0.7983 -0.8085  0.3420
  913MOL0     H23214   2.554   9.099   4.585 -1.4142  1.2630  1.0328
  913MOL0     H23215   2.436   9.340   4.554  0.4095  1.7974 -1.5576
  913MOL0     H23216   2.373   9.459   4.335 -0.8847  0.1111  0.5008
  913MOL0     H23217   2.088   9.720   4.171  1.6840 -0.9298  1.6101
  913MOL0     H23218   2.012   9.868   3.989  0.9366  0.1405 -0.6902
  913MOL0     H23219   2.272   9.843   3.706 -1.4452 -2.7578 -0.0850
  913MOL0     H23220   2.170   9.897   3.570  2.0118  0.0767 -0.4908
  913MOL0     H23221   2.234  10.026   3.837  2.9322 -4.5248 -1.5830
  913MOL0     H23222   2.303  10.083   3.684 -1.8197  0.3051 -3.7365
  913MOL0     H23223   2.053  10.166   3.599  0.5949  3.0464  0.6810
  913MOL0     H23224   1.998  10.125   3.766  0.0725  3.2573  1.7650
  913MOL0     H23225   2.242  10.293   3.737 -0.2499 -0.3874  2.4962
  913MOL0     H23226   2.122  10.285   3.857 -3.7456  0.0079 -0.4559
  913MOL0     H23227   1.950  10.363   3.725 -1.7417  0.6562 -2.8164
  913MOL0     H23228   2.054  10.411   3.597 -2.1379 -0.3461  1.3102
  913MOL0     H23229   2.102  10.507   3.881  5.5626 -2.0130 -0.3222
  913MOL0     H23230   2.195  10.550   3.740  0.2390  2.1202  0.0017
  913MOL0     H23231   1.905  10.647   3.808  1.1806 -0.3629  0.5689
  913MOL0     H23232   1.949  10.626   3.641 -3.2268 -1.1878  0.5907
  913MOL0     H23233   2.085  10.819   3.827 -0.5563  2.4320 -1.1469
  913MOL0     H23234   2.146  10.785   3.656  0.6765  1.8143 -0.4537
  913MOL0     H23235   2.183   9.613   3.700 -0.5815  0.4670  0.5476
  913MOL0     H23236   2.237   9.454   3.864 -0.6982 -0.1231 -0.8233
  913MOL0     H23237   2.209   9.085   4.192 -0.2505 -0.7893 -0.3078
  913MOL0     H23238   2.255   8.982   4.403 -0.8572 -0.8057  0.8033
  913MOL0     H23239   1.798   8.827   5.419  1.6378  1.0853 -2.3983
  913MOL0     H23240   1.881   8.863   5.210 -1.7860  1.8203  1.1637
  913MOL0     H23241   1.601   8.772   4.692  0.4943 -1.9054  0.3577
  913MOL0     H23242   1.675   8.813   4.460  1.4451  1.7421 -0.9421
  913MOL0     H23243   1.850   8.718   4.287 -0.3977  0.6564  1.8457
  913MOL0     H23244   2.018   8.744   4.335  3.0564  1.3173 -3.7415
  913MOL0     H23245   2.033   8.748   4.106 -1.8574 -3.4385  3.2864
  913MOL0     H23246   2.051   8.913   4.164 -0.1355  0.4725 -0.5277
  913MOL0     H23247   1.828   8.966   4.090  1.4874  0.7233 -1.8327
  913MOL0     H23248   1.778   8.802   4.087  0.5498 -0.3315  0.0905
  913MOL0     H23249   1.840   8.923   3.844 -0.4645  1.9157  0.9609
  913MOL0     H23250   2.012   8.910   3.904  0.2836 -0.4052 -1.2460
  913MOL0     H23251   1.926   8.522   3.774  0.2116 -1.4842  2.2374
  913MOL0     H23252   2.046   8.962   4.574 -0.0172  2.9496  1.9556
  913MOL0     H23253   2.119   8.966   4.800 -0.2852 -2.6695 -1.9911
  913MOL0     H23254   1.989   9.001   4.923  3.3231  3.0140  0.2895
  913MOL0     H23255   2.049   8.840   4.890  0.5555  0.2117 -0.9140
  914MOL0     O23256  11.122  10.491  11.474  0.0253 -0.1607  1.1175
  914MOL0     C23257  11.219  10.563  11.491 -0.0086 -0.4037  0.4782
  914MOL0     O23258  11.239  10.698  11.460  0.1570  0.3468  0.6130
  914MOL0     C23259  11.130  10.755  11.394 -0.1185 -0.4229 -0.4459
  914MOL0     C23260  11.112  10.711  11.263  0.1535  0.4818  0.4038
  914MOL0     C23261  11.025  10.788  11.183  0.5954  0.0969  0.4758
  914MOL0     C23262  10.958  10.899  11.223  0.5722  0.0280  0.4789
  914MOL0     O23263  10.872  10.957  11.135  0.0416  0.0996  0.8814
  914MOL0     C23264  10.794  11.063  11.183  0.0684 -0.0289  0.2777
  914MOL0     C23265  10.683  11.119  11.090 -0.4904  0.1721  0.7654
  914MOL0     C23266  10.591  11.004  11.029  0.1944 -0.0474 -0.6023
  914MOL0     C23267  10.451  11.058  11.017  0.1977  0.7348 -1.1135
  914MOL0     C23268  10.354  10.957  10.944 -0.4392 -0.1139  0.8285
  914MOL0     C23269  10.212  10.998  10.961  0.1784 -0.5546 -1.2810
  914MOL0     C23270  10.175  11.127  10.894  1.0623  0.6614 -0.1133
  914MOL0     C23271  10.152  11.106  10.735 -0.7576 -0.2172 -0.2112
  914MOL0     N23272  10.122  11.240  10.678  1.0151 -0.5892  0.4709
  914MOL0     C23273  10.002  11.312  10.672 -0.2854  0.6949 -0.1183
  914MOL0     C23274  10.034  11.440  10.631 -0.3119 -0.0551  0.2444
  914MOL0     C23275   9.946  11.559  10.608 -0.9167  0.9625  0.1431
  914MOL0     C23276  10.002  11.698  10.585  1.0986 -0.0398 -0.4788
  914MOL0     C23277   9.890  11.800  10.567 -0.3162 -0.2981 -1.2854
  914MOL0     C23278   9.832  11.850  10.693  0.5872 -0.4250 -0.1294
  914MOL0     O23279   9.877  11.982  10.725  0.5648 -0.1363  0.0552
  914MOL0     C23280   9.779  12.079  10.740  0.0433 -0.5266 -0.1335
  914MOL0     C23281   9.685  12.077  10.847  0.2898  0.1482  0.0866
  914MOL0     C23282   9.571  12.156  10.851 -0.1604 -0.8270 -0.1270
  914MOL0     C23283   9.557  12.242  10.742 -0.3334 -0.3032  0.0991
  914MOL0     C23284   9.434  12.333  10.729  0.0726 -0.4318  0.3401
  914MOL0     O23285   9.316  12.308  10.789 -1.0006 -0.0578 -0.4926
  914MOL0     C23286   9.218  12.403  10.801  0.1566 -0.8103 -0.0448
  914MOL0     C23287   9.176  12.445  10.926 -0.6051  0.0820 -0.0826
  914MOL0     C23288   9.088  12.559  10.941  0.5878  0.6583 -0.3309
  914MOL0     C23289   9.031  12.621  10.832 -0.0016  1.3530 -0.4812
  914MOL0     O23290   8.943  12.724  10.865 -0.2839 -0.0171 -0.6581
  914MOL0     C23291   8.860  12.797  10.762 -0.6564  0.9056 -0.0825
  914MOL0     C23292   8.789  12.926  10.809  0.9214 -0.6042 -0.6504
  914MOL0     C23293   8.893  13.039  10.838  0.2551 -0.6012 -1.0594
  914MOL0     C23294   8.829  13.174  10.882 -0.1586  0.0776  0.7795
  914MOL0     C23295   8.928  13.269  10.946  1.6650 -0.4509 -0.1084
  914MOL0     C23296   9.009  13.331  10.842 -0.2763  0.3544 -0.4747
  914MOL0     C23297   9.080  13.467  10.890 -0.4230 -0.5119  0.1845
  914MOL0     C23298   8.978  13.575  10.862 -0.3088  0.0234 -0.1966
  914MOL0    Cl23299   9.068  13.733  10.869 -0.3330 -0.1396 -0.3266
  914MOL0     C23300   9.068  12.578  10.706  0.0908  0.6414 -0.0526
  914MOL0     C23301   9.161  12.477  10.697  0.1593 -0.3401 -0.2128
  914MOL0     O23302   9.458  12.431  10.658  0.5642  0.5878  0.5553
  914MOL0     C23303   9.656  12.252  10.641  0.1759  0.1722  0.2100
  914MOL0     C23304   9.766  12.170  10.632  0.7375  0.3916 -0.0708
  914MOL0     N23305  10.174  11.446  10.618  0.0509 -0.3753  0.3930
  914MOL0     N23306  10.221  11.330  10.651 -0.4836 -0.2083 -0.2936
  914MOL0     C23307  10.973  10.940  11.359  0.2334  1.0037  0.0794
  914MOL0     C23308  11.071  10.871  11.436 -0.0170 -1.1577  0.4015
  914MOL0     C23309  11.341  10.497  11.530 -0.5995 -0.6324  0.7110
  914MOL0     C23310  11.457  10.522  11.449 -0.3683  0.2182 -0.3273
  914MOL0     C23311  11.575  10.458  11.480  0.0284  0.2292  1.2435
  914MOL0     C23312  11.585  10.365  11.583 -0.3821  0.5536  0.6356
  914MOL0     O23313  11.704  10.295  11.591  0.4729 -0.4389 -0.7186
  914MOL0     C23314  11.691  10.151  11.575 -0.4396 -0.5711  0.6997
  914MOL0     C23315  11.830  10.087  11.563 -0.9016  0.4801  0.7858
  914MOL0     C23316  11.894  10.114  11.425  0.6835 -0.6376  1.1291
  914MOL0     C23317  12.024  10.052  11.397 -0.0096 -0.5117  0.2935
  914MOL0     C23318  12.020   9.912  11.395  0.6864 -0.5501 -0.1019
  914MOL0     C23319  12.000   9.791  11.392 -0.7792 -0.3990  0.1651
  914MOL0     C23320  11.470  10.349  11.670  0.7418 -0.7223  0.8602
  914MOL0     C23321  11.344  10.413  11.642 -0.7141 -0.3888  0.1702
  914MOL0     C23322  11.222  10.387  11.734  0.5889  0.1430  0.4319
  914MOL0     H23323  11.158  10.617  11.236 -1.1581  0.0695 -0.4780
  914MOL0     H23324  11.005  10.741  11.087  4.8464  0.8582 -1.0170
  914MOL0     H23325  10.741  11.027  11.272  0.1116 -1.0614 -0.1007
  914MOL0     H23326  10.867  11.141  11.207  2.2388 -1.7911 -0.2417
  914MOL0     H23327  10.732  11.176  11.010  0.7755  1.6361  2.4900
  914MOL0     H23328  10.632  11.196  11.149  2.5771  1.2243  2.3046
  914MOL0     H23329  10.584  10.910  11.084  0.2719  0.1571 -0.2378
  914MOL0     H23330  10.634  10.980  10.932  3.3427  2.5233 -0.0295
  914MOL0     H23331  10.417  11.073  11.119 -0.9104 -0.4486 -1.2831
  914MOL0     H23332  10.445  11.151  10.961  1.7488 -0.2343 -3.0345
  914MOL0     H23333  10.368  10.953  10.836  0.6533  2.6015  0.8005
  914MOL0     H23334  10.371  10.854  10.976 -1.9113  0.3493  3.4468
  914MOL0     H23335  10.141  10.921  10.928 -1.8498 -0.2592  1.9967
  914MOL0     H23336  10.185  11.018  11.065  1.6476 -2.8067 -0.3789
  914MOL0     H23337  10.247  11.208  10.909 -0.6895  2.2350  0.3164
  914MOL0     H23338  10.080  11.163  10.935  0.7128  2.4313 -2.2936
  914MOL0     H23339  10.233  11.051  10.687 -0.5975  0.4926 -0.7798
  914MOL0     H23340  10.073  11.034  10.713  1.4763 -2.4498 -1.4129
  914MOL0     H23341   9.904  11.271  10.696 -0.9442  3.1527  1.9719
  914MOL0     H23342   9.885  11.530  10.522 -1.9862 -0.9249  1.4658
  914MOL0     H23343   9.879  11.565  10.694  0.1932  1.7210  0.9922
  914MOL0     H23344  10.059  11.733  10.671 -2.0728  0.2450  1.7059
  914MOL0     H23345  10.075  11.695  10.504  2.1933  1.8086  0.3637
  914MOL0     H23346   9.801  11.758  10.519 -2.9298 -0.8847  3.4003
  914MOL0     H23347   9.920  11.888  10.510 -0.9486  1.8402  1.4329
  914MOL0     H23348   9.845  11.777  10.774  1.0992  0.3931  0.5474
  914MOL0     H23349   9.725  11.849  10.669  0.0699  1.2033  1.8035
  914MOL0     H23350   9.707  12.004  10.924 -1.5390 -1.4144 -0.8134
  914MOL0     H23351   9.495  12.152  10.929  0.8020 -0.3675  0.8605
  914MOL0     H23352   9.208  12.401  11.019 -0.8172 -1.2379 -0.6175
  914MOL0     H23353   9.069  12.608  11.036  3.0134  1.7380 -0.3224
  914MOL0     H23354   8.912  12.818  10.668  0.8823  0.0185  0.5305
  914MOL0     H23355   8.783  12.727  10.728 -0.2457  0.8940 -1.0345
  914MOL0     H23356   8.718  12.966  10.735  0.3531  0.8297  0.6099
  914MOL0     H23357   8.724  12.911  10.896 -0.6472  0.7248 -1.5138
  914MOL0     H23358   8.948  13.010  10.928  0.5232  2.2633 -0.2030
  914MOL0     H23359   8.958  13.065  10.755  2.6343  1.9804  1.3675
  914MOL0     H23360   8.769  13.134  10.964  0.4078 -3.6538 -0.4135
  914MOL0     H23361   8.768  13.210  10.798 -1.7745 -1.4303  1.2610
  914MOL0     H23362   8.965  13.202  11.025 -0.3796 -0.2782  1.0773
  914MOL0     H23363   8.867  13.346  10.994  2.7090  1.1989 -1.3547
  914MOL0     H23364   9.091  13.263  10.821  0.1322  1.0357 -1.1291
  914MOL0     H23365   8.950  13.340  10.750 -1.3293  0.3216  0.1824
  914MOL0     H23366   9.161  13.486  10.819 -1.3864 -0.4778 -0.9471
  914MOL0     H23367   9.126  13.469  10.989 -0.0306  1.0159 -0.0089
  914MOL0     H23368   8.934  13.571  10.762  1.4457 -0.0662 -0.9932
  914MOL0     H23369   8.895  13.581  10.934 -1.3719 -0.0225 -1.3919
  914MOL0     H23370   9.024  12.618  10.615 -0.1284 -0.2345 -0.3354
  914MOL0     H23371   9.186  12.461  10.593  1.6816 -0.7784  0.2015
  914MOL0     H23372   9.637  12.313  10.553  0.8389  1.8557  1.2045
  914MOL0     H23373   9.832  12.169  10.546 -0.6862  2.0985 -1.2523
  914MOL0     H23374  10.909  11.016  11.403  2.2890  2.5909  0.5334
  914MOL0     H23375  11.085  10.913  11.534  2.8010 -0.1141 -0.3587
  914MOL0     H23376  11.445  10.594  11.368 -0.5004 -1.7141 -2.1164
  914MOL0     H23377  11.667  10.467  11.424 -0.4882  1.5057  0.5489
  914MOL0     H23378  11.634  10.131  11.484  2.2435  0.4329 -1.3406
  914MOL0     H23379  11.625  10.114  11.654  0.0439  1.8390  2.3770
  914MOL0     H23380  11.815   9.979  11.570 -0.3286  0.4281  1.3470
  914MOL0     H23381  11.909  10.126  11.629  1.6233 -0.9901 -1.1963
  914MOL0     H23382  11.902  10.222  11.409 -1.6377 -0.6090 -0.3737
  914MOL0     H23383  11.833  10.075  11.343  3.3210  0.1264 -1.3475
  914MOL0     H23384  12.048  10.092  11.298 -2.0522  1.8836  0.6808
  914MOL0     H23385  12.087  10.088  11.479 -0.0903 -1.1687  0.6487
  914MOL0     H23386  11.979   9.687  11.407  3.4940 -1.4693  0.0467
  914MOL0     H23387  11.472  10.289  11.760 -0.8528  0.2683  1.5835
  914MOL0     H23388  11.166  10.480  11.747 -0.2288 -0.5630  2.4813
  914MOL0     H23389  11.158  10.307  11.696 -1.4011  1.3897  0.9942
  914MOL0     H23390  11.248  10.354  11.836  0.0638  1.8131  1.1370
  915MOL0     O23391  10.246   9.239   0.084  0.3995 -0.5116 -0.6952
  915MOL0     C23392  10.143   9.257   0.150 -0.2114  0.4771  1.0036
  915MOL0     O23393  10.028   9.284   0.092  0.4431 -0.1632 -0.7164
  915MOL0     C23394  10.008   9.230  -0.031 -0.1837  0.2068 -0.0000
  915MOL0     C23395   9.999   9.309  -0.148  0.3521  0.4757  0.5682
  915MOL0     C23396   9.961   9.249  -0.274 -0.2424  0.2411 -1.0150
  915MOL0     C23397   9.937   9.116  -0.282  0.4348  0.3501  0.4430
  915MOL0     O23398   9.897   9.070  -0.411  0.4005  0.1310 -0.0018
  915MOL0     C23399   9.885   8.930  -0.434 -0.4847 -0.0791  0.4826
  915MOL0     C23400   9.855   8.891  -0.580 -0.1511 -0.1797  0.3362
  915MOL0     C23401   9.965   8.941  -0.677 -0.4399 -0.3510  0.1614
  915MOL0     C23402   9.924   8.917  -0.820 -0.0320 -0.1215 -0.3680
  915MOL0     C23403   9.927   8.769  -0.865  0.1205 -0.0006  0.6399
  915MOL0     C23404   9.893   8.756  -1.011 -0.0637  0.9971  0.1302
  915MOL0     C23405   9.945   8.630  -1.074 -0.2060  0.4119  0.0690
  915MOL0     C23406   9.942   8.632  -1.228 -1.4382 -0.4591 -0.5719
  915MOL0     N23407  10.066   8.574  -1.273 -1.0196 -0.2195 -0.5312
  915MOL0     C23408  10.177   8.647  -1.324 -0.0558 -0.0593 -0.3738
  915MOL0     C23409  10.256   8.554  -1.370  0.4132  0.8053 -0.1190
  915MOL0     C23410  10.394   8.571  -1.424  0.4700 -0.1412 -0.2910
  915MOL0     C23411  10.510   8.505  -1.331  0.5289 -0.7824 -0.3855
  915MOL0     C23412  10.539   8.598  -1.205 -0.6286  0.0932 -0.2256
  915MOL0     C23413  10.672   8.563  -1.128 -0.1596  0.3677 -0.0102
  915MOL0     O23414  10.774   8.584  -1.229  0.4722 -0.2186  0.0498
  915MOL0     C23415  10.834   8.467  -1.277  0.1806  0.0393  0.4650
  915MOL0     C23416  10.781   8.335  -1.273  0.6691 -0.0565 -0.2085
  915MOL0     C23417  10.859   8.232  -1.333  1.6104 -0.4240 -0.6335
  915MOL0     C23418  10.980   8.262  -1.398 -1.2204 -0.7218  0.2078
  915MOL0     C23419  11.049   8.150  -1.460 -0.9430 -0.2906 -0.0529
  915MOL0     O23420  11.182   8.155  -1.445  0.1019 -0.4440  0.5844
  915MOL0     C23421  11.257   8.048  -1.462  0.4735  0.6352 -0.1961
  915MOL0     C23422  11.345   8.001  -1.368 -0.0853 -1.0306 -0.7136
  915MOL0     C23423  11.408   7.877  -1.384  0.4337 -0.0645 -0.2034
  915MOL0     C23424  11.392   7.791  -1.489 -0.4672  0.2962 -0.5179
  915MOL0     O23425  11.460   7.668  -1.489 -0.3548  0.0532 -0.4553
  915MOL0     C23426  11.390   7.558  -1.551 -0.3376 -0.4549 -0.3940
  915MOL0     C23427  11.434   7.425  -1.489 -0.3023  0.6779  0.2696
  915MOL0     C23428  11.579   7.407  -1.461  0.3207 -0.2188  0.4895
  915MOL0     C23429  11.666   7.423  -1.589  0.0687  0.2289  1.0044
  915MOL0     C23430  11.666   7.289  -1.673 -0.2065 -0.7711  0.5235
  915MOL0     C23431  11.627   7.317  -1.822  0.3422 -0.5734 -0.1204
  915MOL0     C23432  11.593   7.189  -1.902  0.5574  0.5451  0.1448
  915MOL0     C23433  11.661   7.196  -2.040 -0.1554 -1.2297  0.4842
  915MOL0    Cl23434  11.833   7.145  -2.019 -0.3644  0.0598 -0.0948
  915MOL0     C23435  11.321   7.844  -1.595 -0.1136 -0.0832 -0.2154
  915MOL0     C23436  11.253   7.968  -1.577  0.1247 -0.5028 -0.7703
  915MOL0     O23437  10.987   8.060  -1.509 -0.0100  0.8503 -0.0639
  915MOL0     C23438  11.033   8.389  -1.399 -0.2408  0.3721  0.2695
  915MOL0     C23439  10.951   8.487  -1.342 -0.7336  0.3639 -0.8956
  915MOL0     N23440  10.197   8.435  -1.351 -0.1586  0.0155  0.1135
  915MOL0     N23441  10.087   8.444  -1.293 -1.1409  0.6015 -0.0136
  915MOL0     C23442   9.951   9.040  -0.172  0.1854  0.1815 -0.8001
  915MOL0     C23443   9.981   9.091  -0.045  0.7402 -0.9498 -1.1294
  915MOL0     C23444  10.135   9.236   0.293 -0.3171 -0.4516  0.2220
  915MOL0     C23445  10.262   9.205   0.368 -0.5145 -0.4232  0.6275
  915MOL0     C23446  10.264   9.193   0.505  0.0685 -0.5404  0.0600
  915MOL0     C23447  10.140   9.198   0.573  0.7044  0.5058 -0.3198
  915MOL0     O23448  10.146   9.197   0.716 -1.1408  0.4274  0.2946
  915MOL0     C23449  10.030   9.186   0.786 -0.3327 -0.7830 -0.3433
  915MOL0     C23450  10.065   9.195   0.931  0.1898 -0.0478  0.1261
  915MOL0     C23451  10.084   9.345   0.980  0.0489  0.5423 -0.4539
  915MOL0     C23452  10.109   9.369   1.136 -0.1848  0.6588 -0.8055
  915MOL0     C23453  10.223   9.287   1.187  1.1947 -0.5845 -0.6810
  915MOL0     C23454  10.321   9.238   1.239  0.5082  0.2150 -0.5752
  915MOL0     C23455  10.022   9.209   0.500 -0.2040 -0.5352  0.3496
  915MOL0     C23456  10.013   9.231   0.364 -0.2551  0.6810 -0.7598
  915MOL0     C23457   9.873   9.243   0.302 -0.1029  0.2164  0.2031
  915MOL0     H23458  10.021   9.415  -0.141  0.1096  0.6981 -1.4293
  915MOL0     H23459   9.971   9.314  -0.360 -0.9407 -0.8225 -1.9186
  915MOL0     H23460   9.967   8.867  -0.397 -2.5213 -2.7610  0.7611
  915MOL0     H23461   9.814   8.881  -0.367  0.6563 -2.1038  0.3050
  915MOL0     H23462   9.762   8.943  -0.605 -0.9573 -0.7652  1.9591
  915MOL0     H23463   9.853   8.783  -0.595  2.1833 -0.1205 -0.7176
  915MOL0     H23464  10.052   8.877  -0.656 -0.6186 -0.6920 -0.1293
  915MOL0     H23465   9.981   9.049  -0.667  0.4033 -0.3147 -1.3021
  915MOL0     H23466   9.822   8.952  -0.835  0.3279 -0.2243 -4.0198
  915MOL0     H23467   9.984   8.984  -0.883  0.2767  0.3859  0.4526
  915MOL0     H23468  10.029   8.731  -0.850  2.2317  4.3987 -0.9829
  915MOL0     H23469   9.852   8.717  -0.804  1.4459 -2.4190  0.3258
  915MOL0     H23470   9.786   8.762  -1.029 -0.2153  1.6809  1.2278
  915MOL0     H23471   9.938   8.842  -1.062  2.8534  0.2138  1.1493
  915MOL0     H23472   9.887   8.545  -1.035  1.9291 -0.8493  0.6945
  915MOL0     H23473  10.048   8.628  -1.036 -0.9095  3.2231  2.4595
  915MOL0     H23474   9.855   8.575  -1.263 -2.0268  2.2897 -4.3284
  915MOL0     H23475   9.936   8.731  -1.274  0.0200 -1.3101 -2.7481
  915MOL0     H23476  10.188   8.755  -1.327  3.0584 -0.3220 -2.4282
  915MOL0     H23477  10.394   8.518  -1.520  1.1599  2.0207 -1.5492
  915MOL0     H23478  10.411   8.679  -1.430 -3.2417  0.5565 -0.2094
  915MOL0     H23479  10.489   8.401  -1.306 -2.3237 -0.0259  0.7607
  915MOL0     H23480  10.596   8.495  -1.398  1.6504  0.6563  0.7772
  915MOL0     H23481  10.464   8.587  -1.126  1.8427  1.1305  2.4610
  915MOL0     H23482  10.558   8.701  -1.238 -1.1271  0.1583 -0.3128
  915MOL0     H23483  10.678   8.472  -1.068 -4.4793 -0.0688  0.0626
  915MOL0     H23484  10.700   8.638  -1.054 -0.7404 -2.0347  2.8447
  915MOL0     H23485  10.687   8.318  -1.221  0.4665  0.5137 -0.3836
  915MOL0     H23486  10.825   8.130  -1.322  3.4323 -0.8751  1.5501
  915MOL0     H23487  11.367   8.052  -1.274 -3.8815  2.7056 -1.5487
  915MOL0     H23488  11.475   7.838  -1.308  2.7857  0.7035 -1.7775
  915MOL0     H23489  11.283   7.575  -1.542 -0.6018 -1.9919 -0.3982
  915MOL0     H23490  11.418   7.563  -1.657  1.5243  1.6506  0.1079
  915MOL0     H23491  11.395   7.416  -1.387  4.1476 -0.9165  2.0923
  915MOL0     H23492  11.394   7.354  -1.561  0.4759  0.8083 -0.3048
  915MOL0     H23493  11.619   7.482  -1.392 -0.0113 -0.7517  1.2777
  915MOL0     H23494  11.598   7.312  -1.410  1.0689 -0.5967 -0.4726
  915MOL0     H23495  11.765   7.455  -1.555 -0.8183  1.9319  2.1360
  915MOL0     H23496  11.641   7.509  -1.652  0.7009 -0.8585 -0.8196
  915MOL0     H23497  11.595   7.218  -1.630  0.6036 -2.8604 -1.4408
  915MOL0     H23498  11.764   7.241  -1.668  1.4379  2.3955  2.1245
  915MOL0     H23499  11.541   7.383  -1.828  0.4394 -0.4806 -0.6090
  915MOL0     H23500  11.709   7.368  -1.874 -1.5840  2.4193 -0.4289
  915MOL0     H23501  11.485   7.174  -1.911  0.6108 -0.5611  1.0963
  915MOL0     H23502  11.639   7.110  -1.841 -1.4559 -1.2160 -0.4955
  915MOL0     H23503  11.614   7.132  -2.116 -1.8777  1.8382 -1.2539
  915MOL0     H23504  11.658   7.301  -2.072  0.4576 -0.6988  2.0756
  915MOL0     H23505  11.314   7.776  -1.679 -3.3609 -2.6053  1.8558
  915MOL0     H23506  11.200   8.010  -1.662  0.6482  0.1668 -0.7696
  915MOL0     H23507  11.134   8.410  -1.432 -0.0751  0.3122  0.7307
  915MOL0     H23508  10.991   8.588  -1.348 -0.9729  0.7784  2.5931
  915MOL0     H23509   9.926   8.934  -0.170 -2.2388  0.6601  1.8536
  915MOL0     H23510   9.977   9.024   0.040 -2.2073 -0.6359 -0.9208
  915MOL0     H23511  10.358   9.201   0.319 -1.7695  1.5895 -2.2378
  915MOL0     H23512  10.351   9.189   0.569 -0.0783 -3.1322  0.2027
  915MOL0     H23513   9.978   9.090   0.774 -3.4695  0.7555  0.0327
  915MOL0     H23514   9.959   9.264   0.758 -2.7372 -1.8848  2.1645
  915MOL0     H23515  10.159   9.143   0.951 -0.5052 -0.7449  1.7333
  915MOL0     H23516   9.985   9.158   0.995 -0.8374 -1.7317 -1.9914
  915MOL0     H23517   9.995   9.404   0.958  1.4052  3.5143  1.3423
  915MOL0     H23518  10.158   9.397   0.917  0.0248 -2.6061 -3.3789
  915MOL0     H23519  10.125   9.476   1.152 -1.7192  0.9715 -1.2160
  915MOL0     H23520  10.019   9.344   1.193  0.9106  0.1571  0.7617
  915MOL0     H23521  10.415   9.202   1.276 -0.6759 -1.3937  1.0620
  915MOL0     H23522   9.927   9.204   0.551  0.0127  0.2137  0.8476
  915MOL0     H23523   9.863   9.171   0.220  0.6214 -0.9630  1.1306
  915MOL0     H23524   9.796   9.215   0.374 -0.6579  2.4757  0.5660
  915MOL0     H23525   9.864   9.349   0.276 -0.2760  0.2606  0.4460
  916MOL0     O23526   7.605   6.729   0.466  0.8278 -0.2924  0.9327
  916MOL0     C23527   7.597   6.824   0.543  0.1886 -0.3517 -0.1774
  916MOL0     O23528   7.495   6.907   0.557  0.2484  0.0461  0.4015
  916MOL0     C23529   7.387   6.879   0.484 -0.8931 -0.0793 -1.3234
  916MOL0     C23530   7.367   6.941   0.360 -0.0778 -0.2684  0.4450
  916MOL0     C23531   7.241   6.920   0.297 -0.2793 -0.6234 -0.4512
  916MOL0     C23532   7.142   6.841   0.356  0.7248 -0.8038  0.3096
  916MOL0     O23533   7.030   6.820   0.280 -0.3443  0.3612  0.5679
  916MOL0     C23534   6.975   6.690   0.274  0.8149  0.2324  1.2761
  916MOL0     C23535   6.881   6.689   0.153  0.3156  0.0610 -0.5882
  916MOL0     C23536   6.961   6.713   0.027 -1.1255 -0.3204 -0.2802
  916MOL0     C23537   6.867   6.730  -0.105 -0.1687  0.1130 -0.0147
  916MOL0     C23538   6.771   6.847  -0.091 -0.2528  0.9977 -0.2903
  916MOL0     C23539   6.840   6.987  -0.068 -0.3199 -0.5917  0.4023
  916MOL0     C23540   6.750   7.105  -0.098  1.0294  0.0890  0.4446
  916MOL0     C23541   6.641   7.111   0.018  0.0213 -0.2843 -0.2492
  916MOL0     N23542   6.556   7.226   0.008  0.4703  0.0104  0.4636
  916MOL0     C23543   6.603   7.359   0.010  0.6775  0.0128 -0.2240
  916MOL0     C23544   6.491   7.437  -0.002 -0.0083  1.0358 -0.3011
  916MOL0     C23545   6.490   7.588   0.011 -0.1252 -0.5274 -1.3528
  916MOL0     C23546   6.462   7.627   0.160  0.0560  0.7092 -0.4135
  916MOL0     C23547   6.487   7.770   0.183 -0.1622 -0.8434 -0.6848
  916MOL0     C23548   6.417   7.860   0.078 -0.3040  0.3595  0.2689
  916MOL0     O23549   6.421   8.003   0.095 -0.0839 -0.2736 -0.0562
  916MOL0     C23550   6.551   8.048   0.091  0.3499 -0.7877  0.1367
  916MOL0     C23551   6.614   8.085   0.208  0.0811  0.2568 -0.0168
  916MOL0     C23552   6.743   8.145   0.214  0.4239 -0.4645  0.4339
  916MOL0     C23553   6.808   8.175   0.092  0.1342  0.1922 -0.7534
  916MOL0     C23554   6.936   8.247   0.103 -0.0061  0.8396  0.5244
  916MOL0     O23555   6.976   8.305   0.220  0.2616 -0.7112  0.3124
  916MOL0     C23556   7.104   8.361   0.216  0.1429  1.1732 -0.8340
  916MOL0     C23557   7.175   8.345   0.340  0.3179  0.1889  0.0860
  916MOL0     C23558   7.308   8.397   0.345  0.4180  0.9387 -0.1141
  916MOL0     C23559   7.362   8.488   0.253 -0.0560 -0.4506  0.5136
  916MOL0     O23560   7.479   8.547   0.276 -0.5161  0.4334  0.0010
  916MOL0     C23561   7.556   8.589   0.161 -0.5778  0.7716  0.0810
  916MOL0     C23562   7.698   8.622   0.205 -0.0713 -0.8826 -0.6445
  916MOL0     C23563   7.775   8.712   0.107 -0.5997 -1.0654  0.6170
  916MOL0     C23564   7.917   8.744   0.171  0.7472 -0.2028 -0.2439
  916MOL0     C23565   8.003   8.819   0.073  0.0699  0.2245  0.1238
  916MOL0     C23566   7.960   8.961   0.022  1.1035  0.3750  0.0177
  916MOL0     C23567   8.087   9.051  -0.007  0.1850 -0.6409  0.4567
  916MOL0     C23568   8.056   9.170  -0.103 -0.6674 -0.1061 -0.5715
  916MOL0    Cl23569   8.092   9.138  -0.279 -0.4239 -0.0740  0.0884
  916MOL0     C23570   7.288   8.508   0.137  0.3356 -0.2488  0.8168
  916MOL0     C23571   7.161   8.442   0.117  0.3747  0.2587 -0.2564
  916MOL0     O23572   6.997   8.248  -0.005 -0.0372 -0.1736  0.2973
  916MOL0     C23573   6.748   8.137  -0.030 -0.4162 -0.1310  0.7921
  916MOL0     C23574   6.617   8.080  -0.030  0.1233 -0.6691  0.5198
  916MOL0     N23575   6.383   7.351  -0.044 -0.8783  0.6691  0.0113
  916MOL0     N23576   6.432   7.231  -0.042 -0.5364  0.0346  0.3309
  916MOL0     C23577   7.170   6.784   0.479  0.2823  0.8240  0.4526
  916MOL0     C23578   7.290   6.806   0.541  0.3758  0.6600  0.0199
  916MOL0     C23579   7.717   6.877   0.629 -0.1994 -0.8233  0.3045
  916MOL0     C23580   7.728   7.015   0.645 -0.0666 -0.3622  0.5520
  916MOL0     C23581   7.832   7.071   0.730  0.8231 -1.2876 -0.6591
  916MOL0     C23582   7.927   6.986   0.787 -0.4605  0.3234  0.0791
  916MOL0     O23583   8.030   7.027   0.863  0.5766  0.3522  0.3910
  916MOL0     C23584   8.111   6.961   0.969  0.0786  0.2758  0.7737
  916MOL0     C23585   8.238   6.907   0.906 -1.1997 -0.0027 -0.1269
  916MOL0     C23586   8.324   6.825   1.006 -0.3814 -0.1038 -0.3970
  916MOL0     C23587   8.411   6.884   1.121  0.2172 -1.2525  0.3196
  916MOL0     C23588   8.339   6.958   1.226 -1.3315 -0.1132  1.0618
  916MOL0     C23589   8.285   7.031   1.308 -0.4672  0.6473 -0.2173
  916MOL0     C23590   7.911   6.849   0.770 -0.1167 -0.2347  0.2015
  916MOL0     C23591   7.807   6.795   0.689  0.1082 -0.0149 -0.1513
  916MOL0     C23592   7.813   6.642   0.660 -0.1477 -0.0340 -0.1599
  916MOL0     H23593   7.438   7.007   0.312 -1.2059  0.8878  0.2995
  916MOL0     H23594   7.221   6.957   0.198  0.6599 -0.7041 -0.6739
  916MOL0     H23595   7.055   6.616   0.263  1.5319  0.7035  2.9727
  916MOL0     H23596   6.918   6.669   0.364 -2.8049  0.9188 -0.6845
  916MOL0     H23597   6.809   6.771   0.160  0.2373  0.1353 -2.0378
  916MOL0     H23598   6.834   6.591   0.160  2.3054 -0.9871 -1.0810
  916MOL0     H23599   7.034   6.633   0.010 -1.7956 -1.2071  0.8644
  916MOL0     H23600   7.013   6.809   0.034 -1.6208 -0.1473  1.7768
  916MOL0     H23601   6.926   6.738  -0.196 -0.5658 -0.5708 -0.3335
  916MOL0     H23602   6.801   6.644  -0.115  0.2773 -0.4074  1.2543
  916MOL0     H23603   6.713   6.847  -0.184 -1.8109 -3.2260  0.4709
  916MOL0     H23604   6.701   6.834  -0.008  1.2465 -1.9453  0.6711
  916MOL0     H23605   6.884   6.987   0.032 -0.2040  2.4691  0.4442
  916MOL0     H23606   6.919   6.999  -0.142 -0.6121 -1.3256 -0.0382
  916MOL0     H23607   6.701   7.089  -0.194  2.1855  2.1708 -0.5660
  916MOL0     H23608   6.810   7.196  -0.087 -1.4905  1.7008  1.9941
  916MOL0     H23609   6.578   7.022   0.021 -3.7217  2.1575  2.1966
  916MOL0     H23610   6.692   7.111   0.115  1.9416 -0.6373 -1.2120
  916MOL0     H23611   6.702   7.399   0.027  0.0410  1.8875 -0.6820
  916MOL0     H23612   6.589   7.633  -0.005 -0.0677  0.0237  0.3664
  916MOL0     H23613   6.412   7.626  -0.056 -1.5821 -1.0670 -0.0192
  916MOL0     H23614   6.360   7.595   0.180  0.4265 -2.4906 -2.7697
  916MOL0     H23615   6.525   7.583   0.238  1.2868  4.1409  0.7052
  916MOL0     H23616   6.594   7.789   0.198 -0.3354  1.6718 -2.0779
  916MOL0     H23617   6.436   7.789   0.278  1.2139 -1.6435  0.2539
  916MOL0     H23618   6.310   7.835   0.076 -0.1868 -0.1288 -0.1418
  916MOL0     H23619   6.455   7.830  -0.020 -0.7980 -0.9395  0.4509
  916MOL0     H23620   6.554   8.074   0.298  0.1143 -2.2236 -0.2211
  916MOL0     H23621   6.771   8.173   0.315 -2.4533 -0.1260  1.2391
  916MOL0     H23622   7.129   8.282   0.414 -0.9201  0.1511 -0.6983
  916MOL0     H23623   7.381   8.372   0.423  3.0834  1.8997 -2.1448
  916MOL0     H23624   7.567   8.517   0.078  2.5005 -0.0174  1.0652
  916MOL0     H23625   7.518   8.682   0.119 -1.0591  0.4202 -0.2846
  916MOL0     H23626   7.689   8.677   0.299  0.0177 -1.9277 -0.0030
  916MOL0     H23627   7.757   8.533   0.226 -0.8743 -1.4706 -0.8308
  916MOL0     H23628   7.796   8.668   0.009  1.5460  1.0567  0.0418
  916MOL0     H23629   7.722   8.805   0.088 -1.4882 -2.1699 -3.2498
  916MOL0     H23630   7.968   8.659   0.216  2.0030  1.2796  1.2673
  916MOL0     H23631   7.904   8.814   0.254  2.2535  0.6537 -0.6880
  916MOL0     H23632   8.019   8.764  -0.020  1.2394  1.5131 -0.4740
  916MOL0     H23633   8.104   8.826   0.115  0.3945 -1.8227 -0.1795
  916MOL0     H23634   7.903   8.955  -0.072  1.9602  1.0200 -0.5642
  916MOL0     H23635   7.892   9.004   0.095  1.7269 -1.0626  1.4908
  916MOL0     H23636   8.169   8.989  -0.043 -0.1466  0.3852 -2.2715
  916MOL0     H23637   8.120   9.110   0.080  0.7219  0.3385 -0.3871
  916MOL0     H23638   7.957   9.216  -0.098 -0.3209  0.6410 -0.4516
  916MOL0     H23639   8.116   9.255  -0.070 -0.8134 -0.6591  1.2315
  916MOL0     H23640   7.329   8.579   0.066 -2.5301 -0.1065 -0.8159
  916MOL0     H23641   7.106   8.471   0.028 -2.8818 -1.9884  0.8249
  916MOL0     H23642   6.787   8.164  -0.128 -2.7481 -1.4147 -0.5886
  916MOL0     H23643   6.563   8.060  -0.122 -3.8673 -0.4963  2.6046
  916MOL0     H23644   7.101   6.716   0.527 -0.4170  1.0334 -0.2289
  916MOL0     H23645   7.308   6.757   0.636 -0.7204  2.5917  1.3044
  916MOL0     H23646   7.663   7.098   0.618 -0.9727 -0.0044  3.4789
  916MOL0     H23647   7.832   7.177   0.754 -2.5687 -1.8026  2.4867
  916MOL0     H23648   8.048   6.885   1.016  1.9479 -3.2301 -1.9185
  916MOL0     H23649   8.142   7.038   1.041  4.0575  0.4929 -0.9602
  916MOL0     H23650   8.305   6.988   0.874 -0.5082  0.0435  1.3332
  916MOL0     H23651   8.209   6.846   0.820 -0.6070 -0.0299 -0.3096
  916MOL0     H23652   8.391   6.766   0.943  0.9513  1.0399 -0.1007
  916MOL0     H23653   8.258   6.750   1.050 -0.5955 -0.3938 -1.1922
  916MOL0     H23654   8.470   6.799   1.158  0.1188 -0.7526  1.6769
  916MOL0     H23655   8.480   6.960   1.082  1.7150 -0.7760  3.5141
  916MOL0     H23656   8.240   7.096   1.380  1.0592  3.4539 -1.5966
  916MOL0     H23657   7.990   6.779   0.797  2.3322  1.0470 -3.0331
  916MOL0     H23658   7.854   6.571   0.732 -2.5615 -4.0456 -2.3466
  916MOL0     H23659   7.712   6.603   0.649 -1.1334  2.5809 -1.4723
  916MOL0     H23660   7.858   6.628   0.561 -1.1085  0.3598 -0.6727
  917MOL0     O23661   8.671   7.010   9.778  0.1611 -0.1727  0.0812
  917MOL0     C23662   8.782   7.043   9.740  0.7229 -0.1809 -0.6400
  917MOL0     O23663   8.901   6.992   9.786  0.0125 -0.1514  0.2077
  917MOL0     C23664   8.895   6.891   9.888 -0.1652 -0.8487 -0.6874
  917MOL0     C23665   8.999   6.893   9.982  0.1409  0.3465 -1.4097
  917MOL0     C23666   8.998   6.798  10.088  0.4335 -0.5473  0.5306
  917MOL0     C23667   8.899   6.704  10.116 -0.2016  0.4749  0.4432
  917MOL0     O23668   8.894   6.641  10.233 -0.4820 -0.5318 -0.4657
  917MOL0     C23669   8.806   6.525  10.250  0.6206 -0.0750  0.2356
  917MOL0     C23670   8.877   6.392  10.204 -0.2334 -0.1060 -0.3330
  917MOL0     C23671   8.824   6.277  10.288  0.0185  0.0939  0.3284
  917MOL0     C23672   8.674   6.246  10.252  0.2958  0.9080  0.5036
  917MOL0     C23673   8.592   6.147  10.352 -0.3132 -0.4865 -0.2203
  917MOL0     C23674   8.547   6.218  10.479 -0.1872 -0.0392 -0.8298
  917MOL0     C23675   8.486   6.120  10.591 -0.6650  0.5473 -0.1599
  917MOL0     C23676   8.344   6.081  10.562  0.3919  0.0373  0.2057
  917MOL0     N23677   8.288   5.987  10.656 -0.9028  0.9297 -0.2964
  917MOL0     C23678   8.320   5.852  10.661  0.3585  0.7075  0.1727
  917MOL0     C23679   8.214   5.804  10.723  0.3674  0.3088 -0.3820
  917MOL0     C23680   8.183   5.655  10.751 -0.4705 -0.7954  0.0762
  917MOL0     C23681   8.195   5.563  10.632  0.2676  0.1936 -0.6815
  917MOL0     C23682   8.091   5.603  10.530 -0.8420 -0.1299  0.4236
  917MOL0     C23683   8.145   5.678  10.408  0.0835 -0.2674  0.2470
  917MOL0     O23684   8.280   5.647  10.386  0.7427  0.1114  0.0529
  917MOL0     C23685   8.323   5.628  10.254  0.2420 -0.5768 -0.5790
  917MOL0     C23686   8.289   5.726  10.152 -0.1975 -0.2799  0.6590
  917MOL0     C23687   8.326   5.709  10.017  0.6881 -0.1011 -0.4639
  917MOL0     C23688   8.410   5.597   9.987 -0.2217 -0.1061  0.6006
  917MOL0     C23689   8.464   5.582   9.852 -0.3867  0.5336  0.6726
  917MOL0     O23690   8.402   5.655   9.752  0.2729  0.5863 -0.8029
  917MOL0     C23691   8.449   5.655   9.616  1.0837  0.0151 -0.4845
  917MOL0     C23692   8.351   5.676   9.511  0.1637 -0.7804  0.1745
  917MOL0     C23693   8.390   5.670   9.375 -0.3789 -0.2829  0.5557
  917MOL0     C23694   8.524   5.647   9.338 -0.2233 -0.7262  0.2511
  917MOL0     O23695   8.571   5.640   9.218  0.9993 -0.8981  0.5110
  917MOL0     C23696   8.540   5.748   9.135  0.2380  0.1364  0.5051
  917MOL0     C23697   8.592   5.719   8.994 -0.1510  0.4002  0.0515
  917MOL0     C23698   8.508   5.797   8.890  0.4959 -0.3246  0.9967
  917MOL0     C23699   8.574   5.941   8.876 -0.5807  0.2995  0.5319
  917MOL0     C23700   8.511   6.012   8.757 -0.0808  0.4919  0.7906
  917MOL0     C23701   8.572   6.155   8.739  0.2204 -0.7198  0.5337
  917MOL0     C23702   8.481   6.240   8.645  0.4654  0.1253  0.0311
  917MOL0     C23703   8.457   6.374   8.721 -0.8138  0.5143 -0.5973
  917MOL0    Cl23704   8.439   6.504   8.603  0.3447  0.1265  0.5147
  917MOL0     C23705   8.623   5.643   9.440 -0.7767 -0.8558  0.5677
  917MOL0     C23706   8.583   5.644   9.569 -0.1820 -0.4345  1.1463
  917MOL0     O23707   8.564   5.509   9.833  0.7284 -0.1847  0.3106
  917MOL0     C23708   8.432   5.501  10.091 -0.6114  0.9024  0.3137
  917MOL0     C23709   8.367   5.504  10.216 -0.9198  0.6639  0.4332
  917MOL0     N23710   8.134   5.908  10.762 -0.1346  0.8851 -0.3966
  917MOL0     N23711   8.179   6.018  10.727  0.0965  0.0541  0.1415
  917MOL0     C23712   8.800   6.707  10.017 -0.3386 -0.0831 -0.4084
  917MOL0     C23713   8.794   6.797   9.911  0.4016  0.1168 -0.0838
  917MOL0     C23714   8.763   7.141   9.627  0.8115 -0.3885 -0.1356
  917MOL0     C23715   8.640   7.191   9.605 -0.2696 -0.1652 -0.4809
  917MOL0     C23716   8.614   7.290   9.502 -0.1104 -0.4952 -0.5822
  917MOL0     C23717   8.722   7.338   9.428  0.3450 -0.3037  0.5756
  917MOL0     O23718   8.715   7.421   9.321 -0.0131  0.8421  0.2858
  917MOL0     C23719   8.588   7.486   9.291  0.6878 -0.1657  0.4411
  917MOL0     C23720   8.615   7.629   9.224  0.2857  0.6390 -0.4317
  917MOL0     C23721   8.663   7.733   9.328 -0.9170 -0.5753 -0.4927
  917MOL0     C23722   8.700   7.866   9.258 -0.0046  0.1755 -0.3132
  917MOL0     C23723   8.590   7.943   9.192  0.0035  0.3725 -0.5352
  917MOL0     C23724   8.503   8.001   9.129 -0.4646 -0.1632  0.0451
  917MOL0     C23725   8.848   7.291   9.454 -0.3115  0.7391 -0.6248
  917MOL0     C23726   8.874   7.199   9.552 -0.9362 -0.0337 -0.5347
  917MOL0     C23727   9.015   7.152   9.575 -0.2423 -0.0836 -0.8499
  917MOL0     H23728   9.077   6.969   9.978 -1.6199  2.2024 -1.8642
  917MOL0     H23729   9.088   6.798  10.149  0.3285  2.1337  0.7696
  917MOL0     H23730   8.780   6.517  10.356  1.1207  1.6494  0.5241
  917MOL0     H23731   8.712   6.547  10.199 -0.0235 -0.8303  1.0511
  917MOL0     H23732   8.985   6.410  10.213  0.0093  0.2523 -3.0829
  917MOL0     H23733   8.858   6.381  10.097  0.0739  0.0266 -0.4029
  917MOL0     H23734   8.842   6.310  10.391  0.5874 -2.8493  1.2808
  917MOL0     H23735   8.886   6.189  10.273  1.8155  0.6913  3.3121
  917MOL0     H23736   8.607   6.329  10.230  0.6424  0.4993 -2.5386
  917MOL0     H23737   8.681   6.203  10.151  1.0059  5.6240 -1.7463
  917MOL0     H23738   8.510   6.089  10.307 -1.3597  0.1487  0.8027
  917MOL0     H23739   8.666   6.075  10.390  0.3147  0.8766  1.2557
  917MOL0     H23740   8.641   6.263  10.514 -1.4605  0.7419  1.8277
  917MOL0     H23741   8.474   6.296  10.456  2.4839  2.0881 -2.9135
  917MOL0     H23742   8.491   6.175  10.685  0.1034  0.6557 -0.2606
  917MOL0     H23743   8.547   6.030  10.595  1.8574  2.1709  0.1214
  917MOL0     H23744   8.287   6.174  10.561 -0.4485 -0.4598  0.8606
  917MOL0     H23745   8.342   6.038  10.461 -0.0252  0.1333  0.1723
  917MOL0     H23746   8.401   5.789  10.625 -0.3494 -0.1794  0.1055
  917MOL0     H23747   8.257   5.626  10.827  0.6120  3.3371  0.8421
  917MOL0     H23748   8.083   5.641  10.793 -1.1284 -2.0659 -1.7848
  917MOL0     H23749   8.298   5.557  10.597  0.7027 -0.6740  0.6493
  917MOL0     H23750   8.174   5.459  10.659  2.4332 -0.2213 -0.4576
  917MOL0     H23751   7.999   5.651  10.562 -0.7866  0.8741 -0.8754
  917MOL0     H23752   8.052   5.509  10.492  1.7306 -1.3645  0.5996
  917MOL0     H23753   8.134   5.786  10.418 -1.5656 -0.1890 -1.9544
  917MOL0     H23754   8.074   5.655  10.329  0.2188 -2.7968  0.7679
  917MOL0     H23755   8.226   5.811  10.177  1.7838  2.6478 -3.2068
  917MOL0     H23756   8.280   5.778   9.947 -1.3322  2.1429  2.7605
  917MOL0     H23757   8.246   5.700   9.526  0.7176  2.9863 -0.7798
  917MOL0     H23758   8.317   5.683   9.296  0.6530  0.2995 -0.3294
  917MOL0     H23759   8.436   5.780   9.127  0.1827  0.0785  0.9613
  917MOL0     H23760   8.593   5.838   9.167  0.2143  0.7138 -0.9664
  917MOL0     H23761   8.696   5.750   8.978 -0.4400  1.8736  0.7988
  917MOL0     H23762   8.595   5.612   8.971 -2.1689  0.3386 -0.1354
  917MOL0     H23763   8.516   5.748   8.793 -2.2650  0.6357  0.1968
  917MOL0     H23764   8.402   5.808   8.916  0.4768  0.0456  0.7755
  917MOL0     H23765   8.682   5.940   8.862 -0.0565  1.7753  3.6428
  917MOL0     H23766   8.552   6.000   8.965 -1.2124  2.2267 -0.8454
  917MOL0     H23767   8.403   6.024   8.772 -0.4821 -2.2397  0.6456
  917MOL0     H23768   8.529   5.952   8.667  3.1663  2.8058 -0.2930
  917MOL0     H23769   8.580   6.200   8.838  0.5006  3.2589 -1.1110
  917MOL0     H23770   8.673   6.152   8.696 -0.1991  2.1815 -0.8627
  917MOL0     H23771   8.382   6.196   8.629  1.1139 -0.9775 -1.1065
  917MOL0     H23772   8.526   6.258   8.546  1.3050 -3.4165 -0.3463
  917MOL0     H23773   8.366   6.371   8.782  0.5136  2.8856  1.6738
  917MOL0     H23774   8.531   6.398   8.797 -0.3126  1.2213 -1.2866
  917MOL0     H23775   8.726   5.645   9.406 -1.7288  2.7208 -2.9275
  917MOL0     H23776   8.661   5.625   9.643 -1.0355 -0.6067  2.0312
  917MOL0     H23777   8.484   5.407  10.072 -3.3327 -0.7534  0.5873
  917MOL0     H23778   8.381   5.424  10.289 -2.7492  0.9154  1.1120
  917MOL0     H23779   8.721   6.633  10.018  0.6726 -1.1947 -0.7310
  917MOL0     H23780   8.724   6.793   9.828  2.9981  0.1867 -2.4387
  917MOL0     H23781   8.556   7.164   9.668  0.6527  2.8227  2.2703
  917MOL0     H23782   8.517   7.339   9.498 -0.8297 -1.6384  1.5159
  917MOL0     H23783   8.521   7.496   9.377  0.9906 -0.9383  0.7765
  917MOL0     H23784   8.524   7.436   9.218 -2.5466  2.4726  1.2426
  917MOL0     H23785   8.518   7.654   9.179  0.2190  0.1735 -0.5544
  917MOL0     H23786   8.687   7.625   9.141  0.8453 -0.9969  0.0922
  917MOL0     H23787   8.756   7.704   9.379 -0.7068  0.9756  0.0641
  917MOL0     H23788   8.589   7.755   9.405  0.7220  0.3619  0.8916
  917MOL0     H23789   8.757   7.933   9.323 -0.5494 -1.6481  2.1849
  917MOL0     H23790   8.772   7.841   9.180 -0.5254 -0.1462 -0.6973
  917MOL0     H23791   8.418   8.041   9.078 -1.2419 -2.6810 -0.8080
  917MOL0     H23792   8.934   7.333   9.402  1.8802  3.9024  4.7744
  917MOL0     H23793   9.083   7.193   9.499 -2.2075  1.1738 -2.0082
  917MOL0     H23794   9.044   7.185   9.676 -3.6234  2.3307 -0.4845
  917MOL0     H23795   9.021   7.043   9.572  1.6685 -0.0111 -1.1030
  918MOL0     O23796   6.537   3.172   2.521 -0.1527  0.1094  0.1826
  918MOL0     C23797   6.510   3.061   2.466 -0.4367 -0.2737  0.4159
  918MOL0     O23798   6.581   2.942   2.469  0.0156 -0.6512 -0.3831
  918MOL0     C23799   6.688   2.930   2.556  0.2317 -1.0228 -1.1697
  918MOL0     C23800   6.695   2.981   2.689 -0.5657 -0.9785  0.1207
  918MOL0     C23801   6.818   2.990   2.756 -0.9007 -0.1159 -0.1193
  918MOL0     C23802   6.931   2.938   2.691 -0.7521  0.6253  0.1687
  918MOL0     O23803   7.042   2.935   2.780 -0.0456 -0.0317  0.0327
  918MOL0     C23804   7.153   2.852   2.739 -0.6172 -0.2867 -0.1264
  918MOL0     C23805   7.265   2.866   2.844 -0.8709  0.3060  0.7265
  918MOL0     C23806   7.223   2.869   2.992  0.4604  0.3422  0.0617
  918MOL0     C23807   7.334   2.867   3.101  0.4744  0.9784 -0.2240
  918MOL0     C23808   7.303   2.758   3.209  0.3010  1.0199 -0.1992
  918MOL0     C23809   7.198   2.790   3.316 -0.0138 -0.2506 -0.8887
  918MOL0     C23810   7.232   2.914   3.403  1.3298 -0.1085 -0.5003
  918MOL0     C23811   7.142   2.930   3.529  0.5102 -0.2502 -0.5166
  918MOL0     N23812   7.202   3.052   3.591 -0.5618  0.4371  1.0820
  918MOL0     C23813   7.230   3.173   3.529 -1.0284 -0.7502  0.4242
  918MOL0     C23814   7.311   3.244   3.615 -0.7689 -0.1834 -0.1607
  918MOL0     C23815   7.381   3.374   3.578  0.1444  0.4792 -0.0426
  918MOL0     C23816   7.393   3.475   3.691 -0.3611 -0.1895  0.0314
  918MOL0     C23817   7.248   3.538   3.709 -0.1244  0.1634  0.9266
  918MOL0     C23818   7.243   3.668   3.794 -0.1215 -0.3219 -0.0129
  918MOL0     O23819   7.151   3.779   3.763  0.0856  0.0808  0.9861
  918MOL0     C23820   7.158   3.891   3.839 -1.1577 -0.1884 -0.4957
  918MOL0     C23821   7.225   3.899   3.965  0.3913  0.3454  0.1476
  918MOL0     C23822   7.238   4.027   4.029  0.5205 -0.1568  0.5255
  918MOL0     C23823   7.168   4.131   3.977 -0.7733 -0.5605 -0.5367
  918MOL0     C23824   7.168   4.264   4.036 -0.1143  0.5210 -0.2176
  918MOL0     O23825   7.088   4.356   3.979 -0.1015  0.1139  0.2778
  918MOL0     C23826   7.110   4.491   3.996 -0.1382  0.2013 -0.8787
  918MOL0     C23827   7.128   4.548   4.125 -0.3774  0.4420 -0.7521
  918MOL0     C23828   7.160   4.685   4.129 -0.3068  0.2896  0.0008
  918MOL0     C23829   7.146   4.767   4.017  0.5373 -0.2604  0.3291
  918MOL0     O23830   7.169   4.896   4.037 -0.4899 -0.5519  1.1666
  918MOL0     C23831   7.193   4.974   3.915  0.8648  0.9257  0.4724
  918MOL0     C23832   7.265   5.107   3.949 -1.0778  0.3895  0.7733
  918MOL0     C23833   7.175   5.204   4.021 -0.2415  0.6868 -0.1642
  918MOL0     C23834   7.235   5.321   4.108  0.5813  0.4131  0.1340
  918MOL0     C23835   7.296   5.445   4.045  0.2282  0.4107  0.5818
  918MOL0     C23836   7.216   5.515   3.941  0.0705  0.3943  0.7125
  918MOL0     C23837   7.293   5.641   3.891 -0.2861  0.9202  0.3788
  918MOL0     C23838   7.247   5.686   3.751  0.5511  0.6828 -0.5096
  918MOL0    Cl23839   7.296   5.563   3.636  0.0699  0.4952 -0.3012
  918MOL0     C23840   7.108   4.706   3.899 -0.6527  0.1705  0.2957
  918MOL0     C23841   7.088   4.570   3.889 -0.0272  0.0986  1.0568
  918MOL0     O23842   7.248   4.280   4.131 -0.7642 -0.0839 -0.8514
  918MOL0     C23843   7.092   4.118   3.858  0.2644 -0.6300 -0.7104
  918MOL0     C23844   7.086   4.002   3.790 -0.4651 -0.4099  0.4552
  918MOL0     N23845   7.323   3.165   3.730 -0.2485 -0.5433  1.1388
  918MOL0     N23846   7.259   3.053   3.713  0.5735 -1.2018 -1.3025
  918MOL0     C23847   6.930   2.891   2.568 -0.0410  0.0472  1.1137
  918MOL0     C23848   6.809   2.895   2.497 -0.3981 -0.4603  0.1681
  918MOL0     C23849   6.412   3.063   2.355 -0.2538  0.8611  0.0285
  918MOL0     C23850   6.449   3.012   2.227 -0.0341 -0.4589  0.1761
  918MOL0     C23851   6.371   3.025   2.117  0.0898  0.6547  0.1579
  918MOL0     C23852   6.254   3.104   2.127  0.3273  0.6159  0.1080
  918MOL0     O23853   6.184   3.119   2.010  0.0654  0.1891  0.0785
  918MOL0     C23854   6.159   3.251   1.951 -0.3960 -0.6381  0.4025
  918MOL0     C23855   6.225   3.266   1.815  1.0883 -0.2829 -0.0128
  918MOL0     C23856   6.128   3.209   1.705 -0.7507 -0.4974 -1.0892
  918MOL0     C23857   6.203   3.201   1.574  0.0877 -0.5682  1.1054
  918MOL0     C23858   6.190   3.328   1.504 -0.8422 -0.2237 -0.2450
  918MOL0     C23859   6.165   3.433   1.441  0.6204 -0.1534 -1.4208
  918MOL0     C23860   6.202   3.124   2.255  0.4282  0.3735  0.2134
  918MOL0     C23861   6.278   3.108   2.374  0.5565  0.4757 -0.0894
  918MOL0     C23862   6.215   3.150   2.503 -0.2761  1.0180  0.7426
  918MOL0     H23863   6.611   3.034   2.734 -0.6291 -0.9347 -0.0485
  918MOL0     H23864   6.830   3.032   2.855  0.4332  1.2141 -0.8079
  918MOL0     H23865   7.116   2.750   2.745  0.2042 -0.5203  1.6656
  918MOL0     H23866   7.185   2.873   2.636  3.5138 -0.9942  0.8278
  918MOL0     H23867   7.326   2.955   2.829  1.1322 -1.1118  0.1407
  918MOL0     H23868   7.343   2.791   2.827  0.4540  1.4059  1.7404
  918MOL0     H23869   7.167   2.775   3.000  2.1240 -0.7771 -1.0000
  918MOL0     H23870   7.154   2.951   3.014 -0.3820 -0.2590 -0.2716
  918MOL0     H23871   7.433   2.850   3.058  0.2098 -0.5733 -0.2998
  918MOL0     H23872   7.354   2.958   3.157  1.9726 -0.4733  1.7759
  918MOL0     H23873   7.281   2.667   3.151  2.3103  0.6536 -0.4553
  918MOL0     H23874   7.399   2.740   3.257  1.2168  4.2239 -0.6124
  918MOL0     H23875   7.100   2.781   3.269 -2.3086  0.2646  3.3093
  918MOL0     H23876   7.203   2.705   3.386  1.0103  0.4780 -0.0417
  918MOL0     H23877   7.213   3.002   3.340  0.7116  0.5390  0.5578
  918MOL0     H23878   7.339   2.924   3.423  1.0922  0.7105  0.4560
  918MOL0     H23879   7.038   2.937   3.498  0.9364 -0.9480 -2.2188
  918MOL0     H23880   7.149   2.839   3.589 -0.3236  1.4784  2.4027
  918MOL0     H23881   7.204   3.198   3.427 -1.0663  1.2140  0.8769
  918MOL0     H23882   7.484   3.356   3.545 -0.5031 -1.8649 -1.0166
  918MOL0     H23883   7.329   3.422   3.495 -1.3101 -1.0644 -0.0839
  918MOL0     H23884   7.438   3.430   3.781 -0.2566 -0.1784 -0.0160
  918MOL0     H23885   7.452   3.560   3.655 -0.9595 -0.4542 -1.6154
  918MOL0     H23886   7.184   3.459   3.750  1.8550 -1.4799  1.0287
  918MOL0     H23887   7.207   3.570   3.613  1.5372 -0.8382 -0.1660
  918MOL0     H23888   7.343   3.705   3.816 -1.6293  3.2317  1.5510
  918MOL0     H23889   7.196   3.627   3.884  2.6551 -1.5169  1.0002
  918MOL0     H23890   7.264   3.815   4.021 -0.2485  0.3454  0.6063
  918MOL0     H23891   7.302   4.032   4.116  0.5164  0.7337  0.4889
  918MOL0     H23892   7.129   4.476   4.206  2.9697  1.2443  0.0780
  918MOL0     H23893   7.191   4.730   4.223  1.8379 -3.2943  1.1969
  918MOL0     H23894   7.257   4.904   3.860 -1.1451 -2.0396  1.6558
  918MOL0     H23895   7.100   4.991   3.861 -0.8414 -1.6462  2.3750
  918MOL0     H23896   7.352   5.080   4.010 -1.3419 -1.3498  0.4366
  918MOL0     H23897   7.289   5.160   3.857 -0.9118 -1.8910 -0.5770
  918MOL0     H23898   7.109   5.260   3.954 -0.6693  2.4232  1.5937
  918MOL0     H23899   7.121   5.144   4.096  1.7092 -1.0475 -0.0684
  918MOL0     H23900   7.309   5.275   4.173  1.1809 -1.6864 -1.8594
  918MOL0     H23901   7.150   5.347   4.171  1.1382  1.3379  0.5056
  918MOL0     H23902   7.397   5.435   4.004  0.7892 -0.9116  2.1424
  918MOL0     H23903   7.318   5.504   4.135  0.6635 -2.2664  2.3421
  918MOL0     H23904   7.197   5.456   3.850 -0.2256  1.0612  0.3291
  918MOL0     H23905   7.119   5.538   3.985  0.0195 -2.4255  2.2721
  918MOL0     H23906   7.402   5.633   3.892 -0.3317 -0.1952 -0.9154
  918MOL0     H23907   7.268   5.724   3.959 -3.6654  1.9073 -1.8132
  918MOL0     H23908   7.138   5.690   3.743  0.2130 -1.7033  1.4816
  918MOL0     H23909   7.289   5.786   3.744  0.8936  0.6604  0.8733
  918MOL0     H23910   7.076   4.763   3.812  0.4375  1.4151  0.6772
  918MOL0     H23911   7.061   4.514   3.800  3.0691 -1.7075  1.0948
  918MOL0     H23912   7.032   4.199   3.818  0.4881  2.4304  4.2656
  918MOL0     H23913   7.022   4.000   3.703 -0.2421 -3.3953  0.2412
  918MOL0     H23914   7.013   2.858   2.507 -1.4438 -2.3022  0.3650
  918MOL0     H23915   6.805   2.867   2.392 -2.1786  1.8045 -0.4256
  918MOL0     H23916   6.543   2.959   2.238  1.0077  1.2152 -0.2699
  918MOL0     H23917   6.393   2.987   2.018 -0.0716  3.5652 -1.1223
  918MOL0     H23918   6.202   3.332   2.010 -0.8661 -1.4030  1.8539
  918MOL0     H23919   6.053   3.261   1.924 -0.3185 -1.8725 -0.4825
  918MOL0     H23920   6.326   3.223   1.821  1.6807  0.5948 -2.4371
  918MOL0     H23921   6.242   3.372   1.795  3.9964 -0.3515  1.5047
  918MOL0     H23922   6.043   3.274   1.681  0.9855  1.9099 -1.0082
  918MOL0     H23923   6.095   3.110   1.738  0.4568  0.1270  2.3283
  918MOL0     H23924   6.309   3.174   1.569  0.5406  1.3084 -2.9365
  918MOL0     H23925   6.154   3.127   1.510  0.5446  0.9390 -1.1064
  918MOL0     H23926   6.165   3.533   1.402  1.3653 -1.1393 -4.2450
  918MOL0     H23927   6.100   3.161   2.264  0.2349 -0.2615  0.6868
  918MOL0     H23928   6.195   3.257   2.505 -0.7775  1.0800 -2.4545
  918MOL0     H23929   6.124   3.092   2.521 -0.1448  0.5805  0.0307
  918MOL0     H23930   6.282   3.132   2.588  0.4336  1.1578  0.2267
  919MOL0     O23931   8.787   8.291   9.607 -0.3757  0.5874  0.5864
  919MOL0     C23932   8.694   8.334   9.683 -1.3302  0.5910 -0.2295
  919MOL0     O23933   8.596   8.426   9.647 -0.6208  0.7505  0.2244
  919MOL0     C23934   8.590   8.452   9.513 -1.0760  0.4829  1.0908
  919MOL0     C23935   8.521   8.368   9.427  0.4429  0.4311  0.0972
  919MOL0     C23936   8.523   8.398   9.291 -0.9663 -0.4981 -0.3825
  919MOL0     C23937   8.586   8.519   9.233 -0.4632  1.0724  0.2537
  919MOL0     O23938   8.565   8.557   9.098  0.2508 -0.6334 -0.5435
  919MOL0     C23939   8.482   8.670   9.060  0.0850  0.3442 -0.3081
  919MOL0     C23940   8.471   8.684   8.907  0.9490  0.4685 -0.1035
  919MOL0     C23941   8.394   8.807   8.872  0.1902 -1.1645  0.9208
  919MOL0     C23942   8.351   8.794   8.720  0.4967 -0.3697  0.4468
  919MOL0     C23943   8.244   8.884   8.670 -0.0105  0.3020 -0.4540
  919MOL0     C23944   8.292   9.030   8.677 -0.7795 -0.0659 -0.5843
  919MOL0     C23945   8.202   9.121   8.612  0.3480  0.4162  0.0764
  919MOL0     C23946   8.244   9.264   8.603  0.6328 -0.0743  0.0185
  919MOL0     N23947   8.226   9.339   8.722 -0.8372  0.0088 -0.2512
  919MOL0     C23948   8.323   9.423   8.784  0.3460 -0.6795 -0.0459
  919MOL0     C23949   8.271   9.471   8.891 -0.5845 -0.3157  0.1003
  919MOL0     C23950   8.336   9.573   8.985  0.1331 -0.5818 -0.6272
  919MOL0     C23951   8.472   9.515   9.030  0.4470  1.1256  0.9942
  919MOL0     C23952   8.550   9.604   9.122  0.6813  0.2669  0.7941
  919MOL0     C23953   8.496   9.599   9.260  0.1535 -0.0667  0.6848
  919MOL0     O23954   8.577   9.693   9.321 -0.3357 -0.5082  0.0456
  919MOL0     C23955   8.564   9.719   9.458  0.6354  0.4702 -0.7032
  919MOL0     C23956   8.664   9.783   9.530  0.2289  0.7262 -0.4548
  919MOL0     C23957   8.656   9.808   9.671 -0.4983  0.3713  0.1865
  919MOL0     C23958   8.547   9.753   9.750 -0.0951 -0.4736  0.4432
  919MOL0     C23959   8.540   9.767   9.894  0.3538 -0.0362  0.1681
  919MOL0     O23960   8.424   9.741   9.955  0.0601  1.0888  0.3102
  919MOL0     C23961   8.396   9.738  10.088  0.0853 -0.0177 -0.2288
  919MOL0     C23962   8.254   9.737  10.125 -0.4750  0.0466 -0.7364
  919MOL0     C23963   8.221   9.727  10.257  0.1032  0.5006  0.8490
  919MOL0     C23964   8.310   9.707  10.365 -0.1728  0.2121 -0.3821
  919MOL0     O23965   8.258   9.678  10.490  0.2122  0.6213  0.0946
  919MOL0     C23966   8.306   9.577  10.591 -0.1611  0.5518 -0.3338
  919MOL0     C23967   8.239   9.442  10.544  0.3460 -1.0173 -0.4323
  919MOL0     C23968   8.259   9.327  10.637 -0.1019 -0.1173  0.1624
  919MOL0     C23969   8.137   9.291  10.718 -0.4540 -0.2125 -0.5389
  919MOL0     C23970   8.116   9.399  10.833 -0.0659 -0.2872  0.0188
  919MOL0     C23971   7.982   9.375  10.899  0.6574  0.1992 -0.6756
  919MOL0     C23972   7.937   9.486  10.986  0.0013 -0.1076 -0.9160
  919MOL0     C23973   8.019   9.504  11.115  0.3067  0.7456  0.0551
  919MOL0    Cl23974   7.923   9.591  11.238  0.1731  0.5941  0.2265
  919MOL0     C23975   8.444   9.724  10.331 -0.6166 -0.5702  0.0424
  919MOL0     C23976   8.485   9.738  10.197 -0.4766  0.0071 -0.2542
  919MOL0     O23977   8.639   9.797   9.953  0.3207 -0.0068  0.6610
  919MOL0     C23978   8.442   9.691   9.685  0.8327 -0.9090  0.2555
  919MOL0     C23979   8.448   9.679   9.540  0.8063  0.5580 -0.2597
  919MOL0     N23980   8.138   9.425   8.885  0.6260 -0.3371  0.2942
  919MOL0     N23981   8.111   9.356   8.779  1.1591  1.0264  0.3579
  919MOL0     C23982   8.651   8.603   9.322  0.1674 -0.4832  0.3234
  919MOL0     C23983   8.658   8.564   9.460  0.4530  0.0766 -0.0069
  919MOL0     C23984   8.651   8.241   9.794  0.2613 -0.1187 -0.7643
  919MOL0     C23985   8.667   8.102   9.782  1.3136  0.0203  0.4381
  919MOL0     C23986   8.617   8.008   9.875 -0.0246 -0.4545  0.1687
  919MOL0     C23987   8.539   8.049   9.982  1.3053  0.9297 -0.3485
  919MOL0     O23988   8.492   7.967  10.075  0.2183  0.2586  0.8381
  919MOL0     C23989   8.479   7.821  10.052 -0.7073  0.6763  0.4688
  919MOL0     C23990   8.465   7.758  10.182  0.4750 -0.3214  0.0590
  919MOL0     C23991   8.429   7.602  10.188 -0.5915 -0.0492 -0.4204
  919MOL0     C23992   8.555   7.513  10.194  0.4093 -0.0671  0.3501
  919MOL0     C23993   8.515   7.372  10.188 -0.2131  0.3083  0.5824
  919MOL0     C23994   8.476   7.258  10.162 -1.1858  0.7551  0.4190
  919MOL0     C23995   8.524   8.180   9.997  0.1313  0.1873  0.9905
  919MOL0     C23996   8.573   8.279   9.911 -0.2572 -0.1113 -0.7793
  919MOL0     C23997   8.541   8.422   9.946  0.1693  0.0434  0.2933
  919MOL0     H23998   8.460   8.287   9.467 -1.6188  0.0434 -3.4147
  919MOL0     H23999   8.462   8.335   9.227 -0.0808 -0.0041 -1.7641
  919MOL0     H24000   8.381   8.645   9.095 -0.1986  2.0719  0.1963
  919MOL0     H24001   8.513   8.763   9.109  1.3998 -0.5111  0.5097
  919MOL0     H24002   8.423   8.596   8.863 -1.4482  2.7376 -2.3758
  919MOL0     H24003   8.568   8.696   8.858  1.4038  0.0624  0.6793
  919MOL0     H24004   8.446   8.903   8.878 -1.7393  0.1866 -1.6718
  919MOL0     H24005   8.301   8.816   8.928 -1.0613 -0.9244 -1.0883
  919MOL0     H24006   8.441   8.804   8.659 -0.9519  1.6390 -1.4990
  919MOL0     H24007   8.311   8.695   8.697  1.0930 -0.0427 -2.3331
  919MOL0     H24008   8.215   8.855   8.569  2.5852 -1.4050 -0.8223
  919MOL0     H24009   8.156   8.876   8.734 -0.6767 -2.7497 -1.6048
  919MOL0     H24010   8.301   9.069   8.779 -2.9566 -0.0264 -0.3593
  919MOL0     H24011   8.390   9.033   8.628  0.1042  0.3009  1.1425
  919MOL0     H24012   8.106   9.107   8.663  1.4087 -0.8445  1.8319
  919MOL0     H24013   8.183   9.083   8.511  1.2649  0.1701 -0.0128
  919MOL0     H24014   8.348   9.279   8.571  1.6860  1.9638  3.8342
  919MOL0     H24015   8.182   9.310   8.525 -2.5862 -1.5489  1.4976
  919MOL0     H24016   8.425   9.429   8.746  0.3473 -1.8602 -0.2901
  919MOL0     H24017   8.358   9.673   8.945 -0.9943 -0.7062 -1.6275
  919MOL0     H24018   8.278   9.589   9.076 -0.9218  1.5758 -1.6003
  919MOL0     H24019   8.441   9.425   9.084 -2.4558  0.6991 -1.1541
  919MOL0     H24020   8.537   9.488   8.947 -0.6874  0.0776  0.4226
  919MOL0     H24021   8.568   9.704   9.082  1.6070 -0.9676 -2.1565
  919MOL0     H24022   8.649   9.557   9.123  1.2111  0.9342 -3.0453
  919MOL0     H24023   8.519   9.499   9.297  1.7716 -0.4923 -1.2869
  919MOL0     H24024   8.391   9.629   9.257  0.4586  1.1547 -2.5375
  919MOL0     H24025   8.753   9.819   9.479  0.9988 -2.1243 -1.2841
  919MOL0     H24026   8.732   9.865   9.723 -2.4977 -0.2664  4.2239
  919MOL0     H24027   8.174   9.758  10.055 -3.8686 -1.5471  2.4075
  919MOL0     H24028   8.120   9.746  10.291 -0.3259 -0.1899 -0.0051
  919MOL0     H24029   8.415   9.566  10.595 -0.3359 -1.6236 -0.1806
  919MOL0     H24030   8.272   9.613  10.688  1.7135 -1.9899  1.4208
  919MOL0     H24031   8.133   9.462  10.527  0.4654  2.3219  1.6222
  919MOL0     H24032   8.266   9.414  10.442 -2.7339 -1.8465 -1.1091
  919MOL0     H24033   8.292   9.241  10.578  2.1092 -0.2335  1.4411
  919MOL0     H24034   8.342   9.355  10.703  1.6598 -1.5263 -1.3256
  919MOL0     H24035   8.137   9.189  10.759  2.4407 -1.1509 -2.5619
  919MOL0     H24036   8.049   9.304  10.656  0.4229  2.9411 -1.3011
  919MOL0     H24037   8.131   9.492  10.778  4.7936 -0.7005  0.1782
  919MOL0     H24038   8.197   9.398  10.906 -0.3590  2.2847  0.4676
  919MOL0     H24039   7.906   9.356  10.822 -1.2249 -1.9833  1.5653
  919MOL0     H24040   7.978   9.279  10.951  1.0901 -0.1553 -1.2920
  919MOL0     H24041   7.833   9.475  11.018  0.4402 -0.9788  0.2878
  919MOL0     H24042   7.944   9.574  10.921  3.9866 -2.2331 -3.8438
  919MOL0     H24043   8.034   9.401  11.149  1.3574  1.3901  1.7210
  919MOL0     H24044   8.117   9.552  11.105 -0.4925  1.9342 -3.2239
  919MOL0     H24045   8.514   9.712  10.413  0.0009  1.2158 -0.1782
  919MOL0     H24046   8.590   9.755  10.172 -0.2478 -0.5189  0.3382
  919MOL0     H24047   8.367   9.636   9.741  1.0302  0.7639  2.2678
  919MOL0     H24048   8.367   9.630   9.488 -0.1184 -1.3427  2.7253
  919MOL0     H24049   8.707   8.695   9.306 -0.4454  0.1151  1.4691
  919MOL0     H24050   8.713   8.622   9.534  0.5219 -0.1009  0.0829
  919MOL0     H24051   8.723   8.060   9.699 -0.0785  1.7485 -1.4822
  919MOL0     H24052   8.628   7.901   9.859  0.3491 -0.2516 -1.0102
  919MOL0     H24053   8.570   7.784  10.005 -1.4617  1.9094 -2.1882
  919MOL0     H24054   8.399   7.799   9.980  0.1835 -0.0689 -0.3207
  919MOL0     H24055   8.391   7.816  10.239  2.7592  3.8018 -0.7691
  919MOL0     H24056   8.563   7.779  10.228 -1.0190  4.6231  1.6651
  919MOL0     H24057   8.367   7.575  10.102 -1.2133  0.4160 -0.1225
  919MOL0     H24058   8.367   7.583  10.276  1.4039 -0.0832  1.0399
  919MOL0     H24059   8.615   7.528  10.104 -0.7010  2.2983 -0.0591
  919MOL0     H24060   8.604   7.534  10.290 -0.1509 -1.0194  0.8664
  919MOL0     H24061   8.463   7.154  10.137 -0.0291  0.6800  0.0595
  919MOL0     H24062   8.464   8.207  10.083  0.0814 -1.4650  1.5056
  919MOL0     H24063   8.447   8.449   9.897 -1.6779 -1.2403  2.8624
  919MOL0     H24064   8.498   8.432  10.047 -1.0434  2.1411 -0.3502
  919MOL0     H24065   8.619   8.498   9.937  1.6516 -1.5508 -0.7763
  920MOL0     O24066   7.182   1.976  11.438 -0.2544 -0.0540  0.0850
  920MOL0     C24067   7.172   1.851  11.425  0.3460 -0.3372  0.6295
  920MOL0     O24068   7.089   1.770  11.497 -0.3105  0.3554  0.5074
  920MOL0     C24069   7.000   1.829  11.580  0.0574 -0.0189  0.0994
  920MOL0     C24070   6.872   1.781  11.576 -0.6044 -0.2814 -0.0840
  920MOL0     C24071   6.787   1.836  11.670 -0.3937 -0.3430 -1.2563
  920MOL0     C24072   6.815   1.939  11.759 -1.0549  0.9534 -0.4060
  920MOL0     O24073   6.705   1.993  11.832  0.0308 -0.5997  0.3867
  920MOL0     C24074   6.727   2.016  11.970  0.2458  0.4757  0.2030
  920MOL0     C24075   6.596   2.032  12.039 -0.0171 -0.6223  0.7318
  920MOL0     C24076   6.604   2.051  12.188 -0.5163  0.1471  0.7257
  920MOL0     C24077   6.633   2.195  12.233 -0.3846  0.3374  0.0442
  920MOL0     C24078   6.602   2.207  12.382 -0.6939 -0.3978 -0.6116
  920MOL0     C24079   6.698   2.133  12.479 -0.1686  0.5562 -0.8613
  920MOL0     C24080   6.691   2.206  12.616 -1.1793 -0.7731  0.4853
  920MOL0     C24081   6.791   2.316  12.631 -0.1500 -0.0428  0.7125
  920MOL0     N24082   6.786   2.380  12.761  0.3425 -0.1482 -0.1186
  920MOL0     C24083   6.854   2.493  12.798 -0.9295 -0.7302 -0.5719
  920MOL0     C24084   6.828   2.498  12.931  0.1092 -0.4212  0.2895
  920MOL0     C24085   6.868   2.617  13.005  0.5905 -0.5013 -0.7574
  920MOL0     C24086   7.018   2.635  13.026  0.7372 -0.6517  0.0909
  920MOL0     C24087   7.098   2.534  13.113 -0.3463 -0.0443 -0.2125
  920MOL0     C24088   7.018   2.420  13.173 -0.5284 -0.3186 -0.1260
  920MOL0     O24089   7.094   2.351  13.274 -0.4914  0.1559  0.1724
  920MOL0     C24090   7.128   2.408  13.389  0.7593  0.5339  0.2123
  920MOL0     C24091   7.222   2.337  13.459 -0.0724 -0.1941 -0.7643
  920MOL0     C24092   7.265   2.373  13.589 -0.1088  0.0679 -0.3785
  920MOL0     C24093   7.199   2.474  13.660  0.4161  0.1141  0.0674
  920MOL0     C24094   7.227   2.517  13.805 -0.5107  1.1010  0.5120
  920MOL0     O24095   7.344   2.451  13.861 -0.6172  0.0291 -1.3303
  920MOL0     C24096   7.372   2.485  13.995 -0.5859 -0.4439  0.3946
  920MOL0     C24097   7.272   2.485  14.090  0.5280 -0.1071  0.3129
  920MOL0     C24098   7.302   2.514  14.220 -0.1676 -0.4947 -0.6231
  920MOL0     C24099   7.433   2.544  14.264  0.8462  0.4598  0.8247
  920MOL0     O24100   7.454   2.550  14.398 -0.4453  0.0926  0.2189
  920MOL0     C24101   7.589   2.529  14.449  0.0131 -0.2640  0.4443
  920MOL0     C24102   7.565   2.497  14.594 -0.0931  0.1440  0.0826
  920MOL0     C24103   7.693   2.466  14.671 -0.4259 -0.2776 -0.8368
  920MOL0     C24104   7.668   2.382  14.795 -0.7562  0.3791  0.3408
  920MOL0     C24105   7.805   2.377  14.862  0.1810 -0.1534  0.1647
  920MOL0     C24106   7.813   2.497  14.962 -0.2165 -0.5111 -0.0055
  920MOL0     C24107   7.955   2.528  15.003  0.6168  0.2737 -0.0929
  920MOL0     C24108   7.987   2.486  15.142  0.8524  0.7050  0.6411
  920MOL0    Cl24109   8.157   2.526  15.177 -0.4323 -0.2944 -0.4900
  920MOL0     C24110   7.538   2.545  14.170 -0.1706  0.3858  0.6086
  920MOL0     C24111   7.502   2.515  14.035  0.0811 -0.2102  0.2538
  920MOL0     O24112   7.154   2.593  13.860 -0.7724 -0.0614 -0.1066
  920MOL0     C24113   7.104   2.547  13.591 -0.0920 -0.2412 -0.4788
  920MOL0     C24114   7.070   2.511  13.460  0.2020  0.4044 -0.0813
  920MOL0     N24115   6.733   2.399  12.967  0.0757 -0.2858  0.0079
  920MOL0     N24116   6.714   2.331  12.863 -0.3257 -0.0298 -0.2809
  920MOL0     C24117   6.949   1.984  11.773 -0.3526  0.7172  0.6809
  920MOL0     C24118   7.040   1.925  11.682 -0.7142 -0.5604 -0.7543
  920MOL0     C24119   7.223   1.785  11.299  0.0323 -0.5516  0.1186
  920MOL0     C24120   7.141   1.684  11.237 -0.5741 -0.1586 -0.1180
  920MOL0     C24121   7.170   1.626  11.111  0.1426 -0.0020 -0.2307
  920MOL0     C24122   7.290   1.679  11.039  0.3141  0.0602 -0.0150
  920MOL0     O24123   7.336   1.642  10.918  0.0032 -0.4872  0.5650
  920MOL0     C24124   7.262   1.550  10.839  0.1248 -0.8647 -0.0431
  920MOL0     C24125   7.311   1.576  10.692 -1.1781  0.0704  0.0310
  920MOL0     C24126   7.219   1.499  10.600 -0.4530 -0.9620  0.4359
  920MOL0     C24127   7.239   1.348  10.594 -0.4491 -0.1635 -0.4708
  920MOL0     C24128   7.125   1.301  10.511  0.6718  0.3505  0.1349
  920MOL0     C24129   7.051   1.247  10.438 -0.3860  1.0520  0.6521
  920MOL0     C24130   7.369   1.776  11.100 -1.1181  0.2444  0.9604
  920MOL0     C24131   7.347   1.824  11.228 -0.7876  0.8247 -0.6527
  920MOL0     C24132   7.437   1.922  11.285  0.1642 -0.8279  0.5981
  920MOL0     H24133   6.837   1.689  11.530 -1.6545 -0.3379  0.7848
  920MOL0     H24134   6.689   1.790  11.674 -0.6336  0.2107  0.7854
  920MOL0     H24135   6.780   1.935  12.020  0.0593  0.4781  0.4024
  920MOL0     H24136   6.766   2.118  11.959 -0.9569  0.7199 -3.1589
  920MOL0     H24137   6.558   1.936  12.002 -2.7439  0.0908  1.4605
  920MOL0     H24138   6.527   2.103  11.994 -0.7590 -0.5631  1.9292
  920MOL0     H24139   6.682   1.985  12.226  1.6923  1.6705 -0.9280
  920MOL0     H24140   6.515   2.020  12.244  0.0016 -0.5505  1.1819
  920MOL0     H24141   6.734   2.236  12.226  1.2256 -1.8908  5.0742
  920MOL0     H24142   6.567   2.265  12.181  0.4070  0.5973 -0.6204
  920MOL0     H24143   6.599   2.315  12.401  1.5913 -0.9314  4.3700
  920MOL0     H24144   6.503   2.166  12.400 -0.4711 -1.0159 -0.7561
  920MOL0     H24145   6.676   2.026  12.491 -1.5558  0.9683  0.5579
  920MOL0     H24146   6.801   2.139  12.443  0.9718  1.9545  2.2368
  920MOL0     H24147   6.725   2.130  12.688  1.8226 -0.5937 -0.5977
  920MOL0     H24148   6.596   2.256  12.635 -1.8831 -0.4348 -3.2220
  920MOL0     H24149   6.889   2.275  12.605  0.0188  1.5312 -1.4563
  920MOL0     H24150   6.773   2.398  12.561  2.4412  0.7800  0.9061
  920MOL0     H24151   6.903   2.577  12.748 -2.6343 -0.0875 -1.2284
  920MOL0     H24152   6.827   2.707  12.958  0.9193 -0.1369 -0.3600
  920MOL0     H24153   6.819   2.620  13.103  1.0955  2.7932 -0.4816
  920MOL0     H24154   7.077   2.658  12.937  0.4439 -6.8078 -2.1994
  920MOL0     H24155   7.017   2.727  13.085 -0.5735 -2.2491  2.7409
  920MOL0     H24156   7.149   2.582  13.197  1.1090 -0.9337 -0.5422
  920MOL0     H24157   7.164   2.472  13.052 -3.9790 -2.8683 -1.6446
  920MOL0     H24158   6.980   2.359  13.091 -0.1515 -1.5128  0.5680
  920MOL0     H24159   6.929   2.470  13.213 -0.3870  1.2980 -1.6629
  920MOL0     H24160   7.279   2.256  13.414 -0.5951 -2.6623  2.6325
  920MOL0     H24161   7.349   2.321  13.634  1.2691  2.5215  0.0119
  920MOL0     H24162   7.169   2.463  14.062 -0.0470 -0.8368  2.7145
  920MOL0     H24163   7.219   2.515  14.290  1.2634 -1.4143  1.1646
  920MOL0     H24164   7.645   2.449  14.401  1.3789  0.8220  0.1912
  920MOL0     H24165   7.642   2.621  14.426  2.2626 -1.9274 -1.5302
  920MOL0     H24166   7.524   2.592  14.631 -1.3933  0.6136 -2.3115
  920MOL0     H24167   7.497   2.411  14.602  2.4187 -1.7821  2.2606
  920MOL0     H24168   7.766   2.426  14.600  0.7345 -1.0461  0.7510
  920MOL0     H24169   7.744   2.557  14.704  2.0502 -1.8546 -0.0640
  920MOL0     H24170   7.635   2.283  14.761  1.8452 -0.6336  0.5619
  920MOL0     H24171   7.591   2.422  14.861 -0.5833  1.7796 -0.2791
  920MOL0     H24172   7.880   2.376  14.782 -1.6267 -3.0897 -1.6834
  920MOL0     H24173   7.822   2.283  14.915 -1.1487 -0.6533 -0.2604
  920MOL0     H24174   7.760   2.585  14.925 -2.6604 -1.7766  0.2744
  920MOL0     H24175   7.764   2.468  15.055  1.0373 -2.4387  0.1203
  920MOL0     H24176   7.981   2.634  14.994 -1.3799  0.8293  0.2055
  920MOL0     H24177   8.030   2.485  14.935 -1.3375 -0.7042 -1.7369
  920MOL0     H24178   7.923   2.519  15.224 -0.3270 -0.1525  0.1041
  920MOL0     H24179   7.991   2.376  15.141 -0.0909  0.6439  1.6158
  920MOL0     H24180   7.638   2.574  14.201  0.0256 -0.4506  0.7947
  920MOL0     H24181   7.587   2.517  13.967  1.5844 -2.1677  1.9117
  920MOL0     H24182   7.036   2.623  13.628 -5.6460 -1.9882 -5.4967
  920MOL0     H24183   6.999   2.572  13.405  0.7980  1.0014 -0.1930
  920MOL0     H24184   6.968   2.064  11.844 -0.7889  1.3668  0.0807
  920MOL0     H24185   7.137   1.974  11.681 -2.4272  3.1453  0.0138
  920MOL0     H24186   7.039   1.664  11.268 -0.8427 -1.5466 -1.7722
  920MOL0     H24187   7.101   1.553  11.071 -1.1972  1.3364 -0.4307
  920MOL0     H24188   7.154   1.568  10.845 -0.0964 -1.7503 -1.0276
  920MOL0     H24189   7.283   1.447  10.871 -0.6488 -0.8750  0.4692
  920MOL0     H24190   7.417   1.549  10.692 -0.8053  1.1938  2.3614
  920MOL0     H24191   7.304   1.684  10.677  1.9709  0.5197  1.0428
  920MOL0     H24192   7.235   1.531  10.496  3.5699 -1.4314  0.7423
  920MOL0     H24193   7.115   1.512  10.629 -0.5227 -0.2623 -0.0985
  920MOL0     H24194   7.336   1.314  10.556 -0.2296  0.5463 -0.5474
  920MOL0     H24195   7.246   1.294  10.689 -2.9670  0.2235 -0.0110
  920MOL0     H24196   6.979   1.197  10.376 -1.0681  0.7654  1.6588
  920MOL0     H24197   7.457   1.811  11.046 -0.1307 -2.8355  0.3216
  920MOL0     H24198   7.539   1.923  11.245 -0.4540  0.5258 -1.0706
  920MOL0     H24199   7.403   2.022  11.259 -0.1313  0.1593  4.1994
  920MOL0     H24200   7.440   1.911  11.394  0.4185  0.2790  0.7076
  921MOL0     O24201   9.584  11.358   0.723  0.7990  0.4593  0.5163
  921MOL0     C24202   9.526  11.365   0.613  0.4043  0.6435  0.6739
  921MOL0     O24203   9.389  11.382   0.602 -0.1040 -0.2531  0.2947
  921MOL0     C24204   9.315  11.391   0.716 -0.4128  0.2225  0.5122
  921MOL0     C24205   9.226  11.489   0.746 -0.3032  0.4955 -0.5271
  921MOL0     C24206   9.144  11.488   0.857 -0.4329  0.4392 -0.2615
  921MOL0     C24207   9.152  11.378   0.940 -0.3499  0.0769 -1.1945
  921MOL0     O24208   9.060  11.373   1.038  0.3407  0.8336 -0.9550
  921MOL0     C24209   9.118  11.334   1.158 -0.3890  0.9362 -0.3123
  921MOL0     C24210   9.014  11.335   1.269  0.3922 -0.9697  0.6709
  921MOL0     C24211   9.079  11.343   1.406  0.1985  0.1790 -0.1777
  921MOL0     C24212   9.009  11.247   1.507  0.2888  0.4137 -0.6919
  921MOL0     C24213   9.099  11.218   1.629 -0.4575 -0.6962  0.4029
  921MOL0     C24214   9.134  11.334   1.714  0.5078  0.1554 -0.0996
  921MOL0     C24215   9.221  11.295   1.829  0.6553 -0.7165 -0.0174
  921MOL0     C24216   9.253  11.410   1.924  0.7295  0.4849 -0.2303
  921MOL0     N24217   9.331  11.390   2.043 -0.3442  0.1965  0.1920
  921MOL0     C24218   9.469  11.372   2.057  0.0113 -0.2883  0.0274
  921MOL0     C24219   9.484  11.345   2.193 -0.2864 -0.0230 -0.4411
  921MOL0     C24220   9.619  11.330   2.256 -0.2501  0.6412  0.1691
  921MOL0     C24221   9.651  11.467   2.314  0.9315  0.0392  0.1359
  921MOL0     C24222   9.788  11.488   2.375  0.8140 -0.2054  0.5169
  921MOL0     C24223   9.801  11.630   2.423  0.2643 -0.7308  0.0131
  921MOL0     O24224   9.812  11.722   2.313 -0.7760 -0.4151 -0.2727
  921MOL0     C24225   9.915  11.716   2.221 -0.5898 -0.3058  0.9226
  921MOL0     C24226  10.050  11.688   2.245  0.9003  0.0983 -0.1543
  921MOL0     C24227  10.137  11.669   2.142  0.2885  0.0789  1.1302
  921MOL0     C24228  10.101  11.674   2.007  0.4974 -0.0152 -0.2272
  921MOL0     C24229  10.187  11.646   1.893 -0.7180  0.6093 -0.3827
  921MOL0     O24230  10.299  11.577   1.913  0.1438 -0.3541  0.0792
  921MOL0     C24231  10.388  11.544   1.813  0.4522 -0.0758 -0.6857
  921MOL0     C24232  10.420  11.410   1.792 -0.1088 -0.3859 -0.4895
  921MOL0     C24233  10.515  11.365   1.689  0.9676  0.4127 -0.4090
  921MOL0     C24234  10.579  11.458   1.608  0.6013  0.8451 -0.7423
  921MOL0     O24235  10.671  11.409   1.517  0.0752  0.7947 -0.5663
  921MOL0     C24236  10.733  11.499   1.424 -1.1927 -0.1648  0.7953
  921MOL0     C24237  10.836  11.406   1.355  0.4358  0.3248  1.9164
  921MOL0     C24238  10.915  11.471   1.242  0.3197  0.2595 -1.3319
  921MOL0     C24239  11.049  11.526   1.281 -0.2144 -0.5923 -0.2894
  921MOL0     C24240  11.131  11.564   1.153  0.2134 -0.7555 -0.0058
  921MOL0     C24241  11.234  11.669   1.179 -0.4639 -1.2217  0.3453
  921MOL0     C24242  11.330  11.682   1.064 -0.1688 -0.4074  0.3993
  921MOL0     C24243  11.290  11.792   0.966 -0.5905  0.7579 -0.0028
  921MOL0    Cl24244  11.310  11.966   1.034  0.2202  0.2172  0.0692
  921MOL0     C24245  10.549  11.590   1.636 -0.0968 -0.5367 -0.5834
  921MOL0     C24246  10.457  11.635   1.733 -0.6565 -0.0647  0.1615
  921MOL0     O24247  10.152  11.697   1.788  0.0055  0.4921 -0.7017
  921MOL0     C24248   9.967  11.711   1.983  0.0125 -0.9289 -0.7692
  921MOL0     C24249   9.874  11.737   2.085 -0.2722  0.1089 -0.2519
  921MOL0     N24250   9.357  11.339   2.253  0.7095 -0.3842  0.0291
  921MOL0     N24251   9.270  11.367   2.163  0.4036 -0.4194  0.1638
  921MOL0     C24252   9.245  11.278   0.918 -0.4907  0.3140 -0.7144
  921MOL0     C24253   9.310  11.278   0.806 -0.5098 -0.3285  0.0536
  921MOL0     C24254   9.604  11.367   0.488  0.5133 -0.4533  0.5414
  921MOL0     C24255   9.532  11.388   0.368  0.3926  0.2939 -0.0001
  921MOL0     C24256   9.599  11.402   0.243  0.2751 -0.7628 -0.2943
  921MOL0     C24257   9.738  11.396   0.237  0.9001 -0.0861  0.6730
  921MOL0     O24258   9.796  11.405   0.118 -0.0994  0.1730  0.2777
  921MOL0     C24259   9.931  11.356   0.100 -0.4774 -0.0613 -0.0543
  921MOL0     C24260   9.976  11.343  -0.046 -0.4225  0.0232  0.4748
  921MOL0     C24261  10.116  11.273  -0.064  0.3580  0.8406 -0.0153
  921MOL0     C24262  10.234  11.332   0.010  0.7048 -0.3574 -0.7161
  921MOL0     C24263  10.359  11.313  -0.073  0.5793  0.3697 -0.3381
  921MOL0     C24264  10.462  11.307  -0.136  0.2906 -0.4729 -0.2879
  921MOL0     C24265   9.808  11.375   0.356 -0.5408  0.9663 -0.6328
  921MOL0     C24266   9.747  11.378   0.479 -0.5456  1.3202 -0.6063
  921MOL0     C24267   9.840  11.362   0.603  0.6791 -0.0531 -0.1805
  921MOL0     H24268   9.231  11.581   0.689 -0.1868  0.7453 -0.1142
  921MOL0     H24269   9.091  11.580   0.878  2.1046  2.8338 -3.1967
  921MOL0     H24270   9.157  11.232   1.161 -0.8364  0.6730 -2.2202
  921MOL0     H24271   9.199  11.407   1.166  0.7731  0.0730 -3.0790
  921MOL0     H24272   8.955  11.243   1.260  0.8560 -1.1100 -1.3975
  921MOL0     H24273   8.946  11.420   1.264  4.3423  2.4906 -0.0214
  921MOL0     H24274   9.060  11.445   1.440  0.9749  0.2871 -0.0592
  921MOL0     H24275   9.184  11.315   1.395  0.2618  0.8971 -1.4956
  921MOL0     H24276   8.907  11.281   1.531 -0.0845 -0.4514 -1.0131
  921MOL0     H24277   8.997  11.145   1.469 -0.8974 -0.3979  1.6721
  921MOL0     H24278   9.049  11.136   1.682 -1.0742 -0.6391 -0.0906
  921MOL0     H24279   9.199  11.191   1.592 -0.2280  3.7070 -3.0411
  921MOL0     H24280   9.179  11.414   1.655 -0.1018  0.1660 -0.5543
  921MOL0     H24281   9.039  11.381   1.738 -0.8577 -1.5399 -1.8508
  921MOL0     H24282   9.313  11.246   1.799  2.3783 -0.0639  3.6148
  921MOL0     H24283   9.169  11.213   1.881  0.8490 -0.6739  0.2484
  921MOL0     H24284   9.313  11.477   1.861 -1.1015 -0.9937 -3.9035
  921MOL0     H24285   9.161  11.465   1.948  0.1521 -0.3612 -0.4479
  921MOL0     H24286   9.553  11.385   1.989 -0.0386  0.6965  0.1461
  921MOL0     H24287   9.619  11.251   2.332 -1.6737  0.9753  0.5646
  921MOL0     H24288   9.696  11.324   2.180 -0.9496  1.0382 -0.5858
  921MOL0     H24289   9.643  11.530   2.225  2.0838  2.2087  1.4538
  921MOL0     H24290   9.568  11.505   2.375  2.2435 -0.1827  2.1517
  921MOL0     H24291   9.866  11.460   2.303  0.6811 -1.7341  0.9370
  921MOL0     H24292   9.793  11.429   2.467  1.9981  0.8161  1.1231
  921MOL0     H24293   9.885  11.639   2.492 -1.0433 -2.6617  1.9746
  921MOL0     H24294   9.713  11.649   2.485  0.9902  1.6093  0.4381
  921MOL0     H24295  10.093  11.679   2.345 -1.0703 -1.1608  0.6369
  921MOL0     H24296  10.244  11.650   2.150  0.3072  0.2192  1.2149
  921MOL0     H24297  10.357  11.339   1.844 -0.3475  0.7966  0.8938
  921MOL0     H24298  10.532  11.263   1.659 -4.6887 -1.4279  1.4514
  921MOL0     H24299  10.650  11.539   1.364 -0.8698  1.9323  1.6549
  921MOL0     H24300  10.784  11.575   1.483  0.1979 -0.1854 -0.3161
  921MOL0     H24301  10.906  11.360   1.426  3.9308 -0.0746 -1.4326
  921MOL0     H24302  10.776  11.332   1.303  1.7205  0.4121  0.2194
  921MOL0     H24303  10.935  11.403   1.159  0.9155 -1.0245 -0.1739
  921MOL0     H24304  10.856  11.550   1.195 -0.3879  1.1490  0.9363
  921MOL0     H24305  11.099  11.450   1.342 -1.5847 -1.8721 -0.6896
  921MOL0     H24306  11.039  11.612   1.347  0.9664  1.6049 -2.8018
  921MOL0     H24307  11.059  11.600   1.079  0.6390  1.4963  0.6190
  921MOL0     H24308  11.170  11.469   1.114  1.7979 -0.4307  0.7522
  921MOL0     H24309  11.184  11.763   1.204 -0.7488 -1.3550  0.2800
  921MOL0     H24310  11.293  11.645   1.268  2.6122  1.6836 -0.7046
  921MOL0     H24311  11.329  11.596   0.997 -0.5761 -1.0081  1.1655
  921MOL0     H24312  11.427  11.712   1.104  0.8387 -2.4598 -0.3727
  921MOL0     H24313  11.360  11.779   0.883 -0.8239  0.9173 -0.2252
  921MOL0     H24314  11.186  11.781   0.935 -0.2194  2.1393 -1.9062
  921MOL0     H24315  10.586  11.671   1.574  3.0489 -1.6900 -0.4318
  921MOL0     H24316  10.438  11.739   1.760 -1.5490 -0.4495  1.0462
  921MOL0     H24317   9.939  11.720   1.879 -1.6395 -1.5600 -0.4077
  921MOL0     H24318   9.773  11.770   2.062 -0.7388  1.3800  3.1308
  921MOL0     H24319   9.266  11.201   0.992 -1.6970 -0.5642 -1.2449
  921MOL0     H24320   9.383  11.199   0.790 -1.1539 -0.5991 -1.8836
  921MOL0     H24321   9.423  11.386   0.367  0.3122 -3.9323  0.3539
  921MOL0     H24322   9.553  11.443   0.154 -0.9578  0.7109  0.9471
  921MOL0     H24323   9.927  11.255   0.144 -1.5426 -0.1494 -0.3209
  921MOL0     H24324  10.005  11.412   0.157  0.7307 -1.7358  0.1133
  921MOL0     H24325   9.994  11.444  -0.084 -1.7646 -0.2658 -1.0040
  921MOL0     H24326   9.907  11.283  -0.106  1.2061 -1.6160  0.1492
  921MOL0     H24327  10.138  11.293  -0.169 -5.9241 -0.1376 -1.9389
  921MOL0     H24328  10.097  11.165  -0.060 -0.2036  0.5841 -4.4147
  921MOL0     H24329  10.228  11.441   0.014  1.1238 -0.2892 -1.6503
  921MOL0     H24330  10.233  11.281   0.107  2.8587  2.0838  0.6913
  921MOL0     H24331  10.553  11.316  -0.191 -0.5700  0.0304 -1.6806
  921MOL0     H24332   9.915  11.359   0.355 -1.0406 -4.0083 -2.6781
  921MOL0     H24333   9.849  11.463   0.645  1.3942  0.5501 -1.6896
  921MOL0     H24334   9.795  11.292   0.674 -3.2610  1.9662 -0.4221
  921MOL0     H24335   9.935  11.327   0.563  1.1662  1.1575 -0.1435
  922MOL0     O24336   6.247   2.792   9.637 -0.2828 -0.0667 -0.1394
  922MOL0     C24337   6.208   2.865   9.732  0.9517 -0.2962 -0.1568
  922MOL0     O24338   6.285   2.921   9.829 -0.2276  0.3777  0.2944
  922MOL0     C24339   6.422   2.911   9.817 -0.5009  1.0858 -0.0259
  922MOL0     C24340   6.490   2.880   9.936  0.5523 -0.1691 -0.9683
  922MOL0     C24341   6.631   2.864   9.946 -0.6294  0.2585  0.3334
  922MOL0     C24342   6.698   2.873   9.828  0.8844  0.5134  0.0197
  922MOL0     O24343   6.831   2.839   9.844  0.8521  0.6567 -0.5228
  922MOL0     C24344   6.925   2.877   9.739 -0.1572  0.0935 -0.6842
  922MOL0     C24345   7.063   2.858   9.788 -1.3462 -0.8447 -0.1288
  922MOL0     C24346   7.093   2.945   9.920  0.3971  0.7600 -0.4711
  922MOL0     C24347   7.241   2.979   9.922  0.1489  0.9688 -0.4654
  922MOL0     C24348   7.300   3.025  10.052 -0.1406 -0.7910 -0.2616
  922MOL0     C24349   7.445   3.067  10.043  0.3282  0.1240 -0.0691
  922MOL0     C24350   7.521   3.087  10.182 -0.3205  0.1291 -0.2417
  922MOL0     C24351   7.672   3.128  10.160  0.0839 -0.3754 -0.5581
  922MOL0     N24352   7.757   3.017  10.110  0.0049  0.6324 -0.0272
  922MOL0     C24353   7.780   2.979   9.975  0.6153  0.7489 -0.4232
  922MOL0     C24354   7.862   2.876   9.979  0.0364  0.4176 -0.3701
  922MOL0     C24355   7.917   2.791   9.865 -0.0404 -0.2938 -0.1797
  922MOL0     C24356   7.837   2.674   9.818 -0.3620 -1.2055 -0.2659
  922MOL0     C24357   7.882   2.626   9.689  0.9850  0.5383  0.0466
  922MOL0     C24358   7.801   2.509   9.632 -0.3508 -0.3547 -0.1508
  922MOL0     O24359   7.866   2.448   9.521 -0.2390 -0.1476  0.1472
  922MOL0     C24360   7.829   2.316   9.490 -0.4433 -0.7067 -0.5887
  922MOL0     C24361   7.902   2.265   9.381  0.7820 -0.1890 -0.8170
  922MOL0     C24362   7.892   2.132   9.339  0.4789 -0.2166  0.0542
  922MOL0     C24363   7.801   2.048   9.400  0.3306 -0.0518  0.3780
  922MOL0     C24364   7.806   1.901   9.362  1.2641 -0.2653 -0.0877
  922MOL0     O24365   7.730   1.812   9.437 -0.7715 -0.6799 -0.0280
  922MOL0     C24366   7.729   1.681   9.418 -0.3830  0.0470  0.1563
  922MOL0     C24367   7.600   1.630   9.394  0.4256  0.2071 -0.2313
  922MOL0     C24368   7.588   1.488   9.400 -1.2614  0.1962  0.5995
  922MOL0     C24369   7.698   1.405   9.439 -0.0971  1.3526  0.9258
  922MOL0     O24370   7.696   1.271   9.469  0.8074  0.4629  0.5803
  922MOL0     C24371   7.576   1.197   9.433  0.6216  0.8436  0.2992
  922MOL0     C24372   7.623   1.059   9.390 -0.0062  0.7171  0.1285
  922MOL0     C24373   7.582   0.951   9.487 -0.5820 -0.0120  0.1366
  922MOL0     C24374   7.657   0.977   9.618 -0.0369  0.0346 -0.7202
  922MOL0     C24375   7.662   0.868   9.725  0.8937  0.1008  0.6050
  922MOL0     C24376   7.776   0.897   9.816 -0.1924  0.5015  0.5854
  922MOL0     C24377   7.783   0.790   9.929 -0.7572 -0.1247  0.0772
  922MOL0     C24378   7.927   0.769   9.994 -0.0540 -0.1488  0.0261
  922MOL0    Cl24379   7.999   0.931  10.043 -0.3984  0.2007 -0.1461
  922MOL0     C24380   7.825   1.460   9.432 -0.1708 -0.1385  0.0576
  922MOL0     C24381   7.838   1.598   9.423 -0.3651 -0.0893 -0.5229
  922MOL0     O24382   7.866   1.871   9.264  0.0156  0.1885  0.0925
  922MOL0     C24383   7.721   2.101   9.504 -0.2694 -0.8523 -0.4816
  922MOL0     C24384   7.738   2.232   9.553  1.4657  0.1967  0.0695
  922MOL0     N24385   7.898   2.846  10.105  0.3878  0.6065 -0.0481
  922MOL0     N24386   7.840   2.944  10.187  0.1293  0.8538  0.0144
  922MOL0     C24387   6.639   2.913   9.710 -0.0133  0.3699 -0.2776
  922MOL0     C24388   6.498   2.933   9.702  0.0198 -0.6966  0.2357
  922MOL0     C24389   6.059   2.905   9.727 -0.2805  0.6481  0.7995
  922MOL0     C24390   5.961   2.902   9.828  0.2627  0.6629  0.1429
  922MOL0     C24391   5.830   2.935   9.809  0.5128 -1.0888 -0.1775
  922MOL0     C24392   5.773   2.974   9.684 -0.2489  0.2206  0.0484
  922MOL0     O24393   5.638   3.007   9.675 -0.4860  0.7512 -0.6769
  922MOL0     C24394   5.555   2.946   9.574 -0.2501 -0.0016 -1.1052
  922MOL0     C24395   5.417   3.005   9.553  0.1302  0.1630 -0.1682
  922MOL0     C24396   5.409   3.156   9.554 -0.1940  0.3955  0.0301
  922MOL0     C24397   5.514   3.222   9.461 -0.8094  0.4759  0.1253
  922MOL0     C24398   5.491   3.183   9.324 -0.7600 -0.1178  0.3413
  922MOL0     C24399   5.453   3.163   9.208  0.2585 -0.0333 -0.5993
  922MOL0     C24400   5.870   2.990   9.583  0.1343 -0.4089 -0.4355
  922MOL0     C24401   6.010   2.956   9.602 -0.8987 -0.6043 -0.0081
  922MOL0     C24402   6.104   2.979   9.478 -0.3818  0.4414 -0.9773
  922MOL0     H24403   6.444   2.839  10.025  2.2718 -1.7305 -0.7297
  922MOL0     H24404   6.689   2.839  10.034 -0.8227 -0.3143  0.3020
  922MOL0     H24405   6.892   2.814   9.656 -0.7551 -2.3480  1.2942
  922MOL0     H24406   6.913   2.984   9.718  1.7855  0.2732 -1.1436
  922MOL0     H24407   7.132   2.902   9.715  1.0014  0.5686  2.7183
  922MOL0     H24408   7.095   2.755   9.804 -0.5465 -0.1951  3.1071
  922MOL0     H24409   7.071   2.889  10.011  2.4499 -2.3031 -1.7035
  922MOL0     H24410   7.031   3.036   9.917  1.0345  1.1763 -1.8075
  922MOL0     H24411   7.300   2.891   9.895 -0.1345 -0.3432  2.7252
  922MOL0     H24412   7.261   3.048   9.839 -0.0970 -0.2906 -1.6172
  922MOL0     H24413   7.245   3.113  10.088  0.7412  0.8755 -2.7021
  922MOL0     H24414   7.295   2.947  10.129  1.3298 -0.2363  0.4228
  922MOL0     H24415   7.500   2.991   9.987  2.7036 -0.5132  2.8655
  922MOL0     H24416   7.436   3.164   9.993 -0.0458 -0.1298 -0.5028
  922MOL0     H24417   7.516   2.990  10.232  0.5720  1.1013  1.8279
  922MOL0     H24418   7.487   3.165  10.251  2.7708  0.8818  0.5797
  922MOL0     H24419   7.672   3.218  10.098 -1.4620  1.6917  2.1965
  922MOL0     H24420   7.715   3.161  10.255 -4.9421  1.0328  1.5904
  922MOL0     H24421   7.740   3.035   9.890 -0.1638  0.1115 -0.4906
  922MOL0     H24422   7.934   2.855   9.777 -0.9818 -0.1906 -0.2975
  922MOL0     H24423   8.018   2.753   9.885  0.9970  1.8913 -0.8859
  922MOL0     H24424   7.858   2.606   9.902  0.9846 -1.1256 -0.5025
  922MOL0     H24425   7.730   2.693   9.809 -0.1829  0.0611  0.0697
  922MOL0     H24426   7.988   2.599   9.682  1.3499  1.9216  0.0222
  922MOL0     H24427   7.876   2.708   9.616  1.3849 -0.5815 -1.3037
  922MOL0     H24428   7.702   2.530   9.592  0.0322 -1.9253 -2.1047
  922MOL0     H24429   7.785   2.434   9.710 -0.2371 -1.6400 -1.3299
  922MOL0     H24430   7.975   2.328   9.330  0.5547  1.9882  1.3511
  922MOL0     H24431   7.967   2.093   9.271  1.4285 -1.0712  1.5525
  922MOL0     H24432   7.513   1.692   9.374 -1.0516 -1.4259  0.8566
  922MOL0     H24433   7.486   1.456   9.381 -1.9539  1.6902  1.6185
  922MOL0     H24434   7.495   1.196   9.507 -1.5711 -0.3834 -1.9438
  922MOL0     H24435   7.549   1.237   9.335  2.5112  3.0035  0.5754
  922MOL0     H24436   7.609   1.030   9.285  2.3095 -0.7660  0.1643
  922MOL0     H24437   7.732   1.063   9.395  0.0458 -0.9879  1.2671
  922MOL0     H24438   7.474   0.960   9.501 -0.1996  1.6059  2.7703
  922MOL0     H24439   7.610   0.851   9.452 -1.1467  0.4548 -1.7589
  922MOL0     H24440   7.608   1.054   9.678  1.8093 -0.1230  1.0965
  922MOL0     H24441   7.760   0.992   9.586  0.4230 -1.2703  0.0797
  922MOL0     H24442   7.681   0.771   9.679  1.8924  0.8693 -0.6793
  922MOL0     H24443   7.569   0.873   9.783  1.5548  0.7543  1.6649
  922MOL0     H24444   7.871   0.891   9.764 -0.5538 -1.4247  0.0667
  922MOL0     H24445   7.769   0.997   9.862 -0.8609  0.7782 -0.1029
  922MOL0     H24446   7.755   0.695   9.883 -0.7463 -0.1100  0.0408
  922MOL0     H24447   7.718   0.809  10.015  1.6827  1.1482  1.7700
  922MOL0     H24448   7.914   0.703  10.081 -1.0548 -1.7298 -1.2640
  922MOL0     H24449   7.990   0.718   9.921 -2.0634  0.1703 -2.0644
  922MOL0     H24450   7.910   1.393   9.446 -1.7101 -1.5557  3.8736
  922MOL0     H24451   7.942   1.627   9.422  0.3275 -2.4314 -1.3431
  922MOL0     H24452   7.654   2.029   9.551 -1.4401 -0.6216 -1.7206
  922MOL0     H24453   7.655   2.267   9.612 -2.7086 -6.1089 -1.0042
  922MOL0     H24454   6.696   2.923   9.618 -0.5010 -0.1605 -0.6485
  922MOL0     H24455   6.452   2.969   9.610  1.5535  1.0486  0.1083
  922MOL0     H24456   5.997   2.853   9.918  0.8578 -1.3174 -1.0977
  922MOL0     H24457   5.757   2.919   9.887  0.2172  0.4552 -0.1044
  922MOL0     H24458   5.536   2.838   9.584  3.0077 -0.4151  3.8705
  922MOL0     H24459   5.606   2.954   9.478  0.8607  3.3111 -0.3649
  922MOL0     H24460   5.344   2.975   9.629 -2.2538  4.6471 -0.3620
  922MOL0     H24461   5.371   2.962   9.464 -3.3663 -0.6555  1.8449
  922MOL0     H24462   5.417   3.187   9.659  2.3810 -0.1926  0.0722
  922MOL0     H24463   5.309   3.179   9.517 -1.1261 -0.6654  1.7540
  922MOL0     H24464   5.499   3.330   9.467 -2.6398  0.1693  2.4981
  922MOL0     H24465   5.618   3.199   9.490 -1.2451 -1.0747  0.5491
  922MOL0     H24466   5.429   3.142   9.106  0.1891 -1.5962 -0.2879
  922MOL0     H24467   5.828   3.028   9.490  1.1178 -1.0075 -1.1483
  922MOL0     H24468   6.054   3.054   9.415 -1.5132  0.5002 -0.0599
  922MOL0     H24469   6.206   3.007   9.505 -1.1762  0.1729  2.9647
  922MOL0     H24470   6.120   2.881   9.432 -1.5927 -0.7125  0.9019
  923MOL0     O24471   4.838  11.342   7.777  0.4791 -0.1234  0.3885
  923MOL0     C24472   4.852  11.389   7.889  0.1486 -0.2775  1.1154
  923MOL0     O24473   4.865  11.314   8.002  0.8290  0.3798  0.8362
  923MOL0     C24474   4.857  11.377   8.124  0.6915 -0.3288 -0.4795
  923MOL0     C24475   4.974  11.415   8.189 -0.0847 -0.3316 -0.6116
  923MOL0     C24476   4.953  11.470   8.318  0.0999  1.1810  0.3029
  923MOL0     C24477   4.838  11.495   8.382  0.2714  0.1740 -1.1036
  923MOL0     O24478   4.830  11.568   8.500  0.1006 -0.4275  0.1728
  923MOL0     C24479   4.733  11.528   8.601  0.8910 -0.1327 -0.0954
  923MOL0     C24480   4.739  11.625   8.715 -1.1548  0.4854  1.0557
  923MOL0     C24481   4.649  11.597   8.837  0.5813  0.1656  0.2735
  923MOL0     C24482   4.657  11.688   8.952  0.8297 -0.4463 -0.3207
  923MOL0     C24483   4.754  11.671   9.072 -0.2975  0.4546 -0.5156
  923MOL0     C24484   4.826  11.538   9.067  0.6440  0.0610  0.1151
  923MOL0     C24485   4.922  11.536   9.177  0.6259  0.0119  0.2431
  923MOL0     C24486   4.930  11.395   9.235  0.1012  0.5383 -0.2468
  923MOL0     N24487   4.825  11.379   9.343  0.2970 -1.0734  0.1662
  923MOL0     C24488   4.693  11.334   9.320  0.3820  0.3757 -0.5931
  923MOL0     C24489   4.633  11.353   9.438  0.0223 -1.2760  0.1231
  923MOL0     C24490   4.494  11.315   9.466  0.5929 -0.0886 -0.2257
  923MOL0     C24491   4.406  11.431   9.506 -0.0997 -0.2132 -0.2212
  923MOL0     C24492   4.321  11.488   9.385 -0.7303 -0.3184  0.2437
  923MOL0     C24493   4.418  11.559   9.284  0.1285  0.4883 -0.0679
  923MOL0     O24494   4.341  11.631   9.189 -0.7154 -0.4074  0.0078
  923MOL0     C24495   4.312  11.570   9.068 -0.7607  0.6655 -0.6634
  923MOL0     C24496   4.327  11.437   9.039  1.4005 -0.5402 -0.1626
  923MOL0     C24497   4.293  11.373   8.911  1.0148 -1.0523 -0.2505
  923MOL0     C24498   4.256  11.468   8.811  0.6230 -0.0514 -0.6123
  923MOL0     C24499   4.215  11.428   8.675  0.0285  0.4186  0.2521
  923MOL0     O24500   4.091  11.460   8.633 -0.2684 -0.2686 -0.0754
  923MOL0     C24501   4.041  11.446   8.502  0.1720 -0.9105  0.9011
  923MOL0     C24502   4.064  11.333   8.425  0.3683 -0.2113  0.4496
  923MOL0     C24503   4.028  11.327   8.285  0.1280  0.2269  0.1992
  923MOL0     C24504   3.957  11.431   8.223 -0.1846 -0.7584 -0.1472
  923MOL0     O24505   3.910  11.426   8.097  0.0432  0.0785  0.3479
  923MOL0     C24506   3.799  11.513   8.067 -0.1548  0.1845 -0.2519
  923MOL0     C24507   3.736  11.462   7.946  0.6203 -0.0968  0.4861
  923MOL0     C24508   3.630  11.558   7.899  0.8105 -1.1764  0.6464
  923MOL0     C24509   3.544  11.513   7.781  0.4319 -0.1827  1.1018
  923MOL0     C24510   3.458  11.624   7.715 -0.3375 -0.4677 -0.3673
  923MOL0     C24511   3.394  11.583   7.578 -0.6239  0.1460 -1.0452
  923MOL0     C24512   3.489  11.548   7.469 -0.1916  0.3387 -0.3513
  923MOL0     C24513   3.571  11.663   7.414 -0.6508 -0.3450 -0.0688
  923MOL0    Cl24514   3.487  11.826   7.419  0.1338  0.5461 -0.4155
  923MOL0     C24515   3.950  11.547   8.307  0.7034 -0.5399 -0.3551
  923MOL0     C24516   3.984  11.553   8.440  0.3535  0.6173 -1.0295
  923MOL0     O24517   4.293  11.366   8.606  0.1042 -0.3881  0.6686
  923MOL0     C24518   4.254  11.609   8.837  0.0107  0.7257 -0.1143
  923MOL0     C24519   4.275  11.650   8.967  0.1074 -1.2601 -0.5936
  923MOL0     N24520   4.725  11.408   9.533 -0.1103  0.0144  0.4771
  923MOL0     N24521   4.838  11.427   9.475 -0.3748 -0.1279  0.7941
  923MOL0     C24522   4.722  11.467   8.308  0.3061 -0.1115  0.6240
  923MOL0     C24523   4.737  11.414   8.179 -0.2915  1.3709 -0.5187
  923MOL0     C24524   4.852  11.531   7.894  0.4881 -0.8602  1.1325
  923MOL0     C24525   4.971  11.584   7.922  0.2667 -0.0805  0.0638
  923MOL0     C24526   4.984  11.725   7.950 -0.3570  0.0332  0.2390
  923MOL0     C24527   4.870  11.808   7.948 -0.0179 -0.1838  0.6616
  923MOL0     O24528   4.879  11.936   7.996 -0.0279 -0.4454  0.5413
  923MOL0     C24529   4.755  12.020   7.999 -0.1158  0.3923 -0.5872
  923MOL0     C24530   4.781  12.152   8.055  0.1524  0.2799  0.4429
  923MOL0     C24531   4.653  12.233   8.089 -0.5358  0.9627  0.3342
  923MOL0     C24532   4.614  12.230   8.242  0.1691 -0.2097  0.3173
  923MOL0     C24533   4.686  12.330   8.311 -0.3857  0.2004 -0.0036
  923MOL0     C24534   4.746  12.432   8.343 -0.0667  0.0339 -0.7049
  923MOL0     C24535   4.746  11.744   7.933 -0.2807 -0.6771  0.4026
  923MOL0     C24536   4.735  11.612   7.897 -0.3119 -0.0955 -0.6584
  923MOL0     C24537   4.599  11.563   7.871 -0.1499  0.3462  0.1035
  923MOL0     H24538   5.075  11.401   8.150  1.5547  2.7872  2.0467
  923MOL0     H24539   5.045  11.502   8.366  0.6341  0.3831 -0.1611
  923MOL0     H24540   4.632  11.526   8.560  0.2605  0.5988  1.3602
  923MOL0     H24541   4.754  11.428   8.642  3.2586  1.7866  3.9889
  923MOL0     H24542   4.706  11.719   8.671 -3.0962 -1.2079 -1.4313
  923MOL0     H24543   4.842  11.617   8.751 -1.2745  1.3768  1.6243
  923MOL0     H24544   4.671  11.492   8.858 -0.8120 -0.7827 -2.4451
  923MOL0     H24545   4.542  11.595   8.815  0.6299 -1.7464  0.0138
  923MOL0     H24546   4.634  11.791   8.923 -0.8227 -0.8141 -0.4512
  923MOL0     H24547   4.559  11.668   8.998  1.5291  1.1721  2.1229
  923MOL0     H24548   4.825  11.754   9.065 -0.1911  0.2258 -2.7263
  923MOL0     H24549   4.704  11.685   9.169  2.6874 -1.2209  1.4210
  923MOL0     H24550   4.743  11.467   9.077  0.0993  0.8853  2.1417
  923MOL0     H24551   4.884  11.525   8.975  1.4480 -0.9863  0.7473
  923MOL0     H24552   4.895  11.609   9.255  1.7018 -0.2212  0.8590
  923MOL0     H24553   5.018  11.566   9.136 -0.0090  1.2055 -0.4334
  923MOL0     H24554   4.918  11.315   9.161  1.2609 -1.2497  1.3863
  923MOL0     H24555   5.032  11.388   9.276  1.5032  0.0794 -3.4914
  923MOL0     H24556   4.662  11.293   9.224 -0.5939  0.4621 -0.3248
  923MOL0     H24557   4.449  11.267   9.379  0.5244  0.4620 -0.5020
  923MOL0     H24558   4.492  11.251   9.555 -0.7912  0.1807 -0.0432
  923MOL0     H24559   4.339  11.391   9.582  0.8060  0.5836  1.0414
  923MOL0     H24560   4.452  11.512   9.564 -3.1486  1.1786  0.4742
  923MOL0     H24561   4.245  11.560   9.416 -0.8833 -0.0917 -0.6352
  923MOL0     H24562   4.257  11.408   9.346 -1.4102  0.0130  0.6725
  923MOL0     H24563   4.488  11.491   9.235 -1.6198  0.6814 -3.0575
  923MOL0     H24564   4.479  11.624   9.348 -1.9281 -0.1150  2.7168
  923MOL0     H24565   4.357  11.369   9.118 -2.6609  0.7257  2.8266
  923MOL0     H24566   4.291  11.265   8.896  1.6847 -1.0415 -0.4534
  923MOL0     H24567   4.104  11.243   8.471 -2.0570  0.1001  3.5100
  923MOL0     H24568   4.044  11.240   8.221  1.1806  0.9831 -0.5938
  923MOL0     H24569   3.723  11.504   8.145 -0.9034 -2.8163 -1.1952
  923MOL0     H24570   3.833  11.617   8.057  1.1903 -0.1144  0.9017
  923MOL0     H24571   3.807  11.450   7.864  2.2961  2.2780  1.4896
  923MOL0     H24572   3.697  11.362   7.966  2.6856 -0.7744  1.3888
  923MOL0     H24573   3.560  11.585   7.978  0.9904 -1.6748  0.9834
  923MOL0     H24574   3.678  11.651   7.869 -0.2960 -0.6214  0.5740
  923MOL0     H24575   3.484  11.430   7.818  0.1152  0.7712  2.8040
  923MOL0     H24576   3.607  11.464   7.705 -1.1287 -1.8794  0.8271
  923MOL0     H24577   3.517  11.715   7.699 -3.4826  1.9446  0.5541
  923MOL0     H24578   3.383  11.650   7.790 -0.7967  1.7654 -1.5060
  923MOL0     H24579   3.342  11.488   7.592  0.3347 -0.1931  0.4737
  923MOL0     H24580   3.324  11.657   7.538 -1.1571  0.2979  0.1310
  923MOL0     H24581   3.432  11.504   7.386 -1.8634  0.2006  0.8077
  923MOL0     H24582   3.562  11.470   7.493  1.9925  2.5600  0.6324
  923MOL0     H24583   3.659  11.676   7.478 -1.2139  2.7772  0.2146
  923MOL0     H24584   3.613  11.654   7.314 -1.6135  2.3219 -0.8060
  923MOL0     H24585   3.908  11.638   8.265 -1.3764 -1.7219 -0.9939
  923MOL0     H24586   3.952  11.637   8.501 -1.2417 -1.5723  1.4045
  923MOL0     H24587   4.207  11.672   8.762  0.7560  1.9496  0.4056
  923MOL0     H24588   4.256  11.754   8.991 -0.2152 -1.5502  0.4813
  923MOL0     H24589   4.623  11.474   8.351  0.4295 -1.4472  1.1814
  923MOL0     H24590   4.646  11.380   8.131 -1.6271 -0.8549  3.1715
  923MOL0     H24591   5.062  11.526   7.913  0.8593  0.7369  0.6747
  923MOL0     H24592   5.081  11.757   7.985  0.7584 -1.1764 -1.5770
  923MOL0     H24593   4.680  11.977   8.065  0.5382 -1.0155 -0.7249
  923MOL0     H24594   4.724  12.029   7.895 -0.8808 -1.3996 -0.5385
  923MOL0     H24595   4.831  12.212   7.978 -3.5128  3.2683  0.1177
  923MOL0     H24596   4.850  12.145   8.139 -1.1173 -0.0115  1.4962
  923MOL0     H24597   4.569  12.184   8.038  0.3536 -0.6830  0.4049
  923MOL0     H24598   4.663  12.339   8.063 -2.7107  1.4911  1.4129
  923MOL0     H24599   4.506  12.220   8.252 -0.1146 -1.6014 -2.7804
  923MOL0     H24600   4.657  12.140   8.287 -1.2436 -1.2317 -0.3113
  923MOL0     H24601   4.795  12.520   8.380 -1.0820 -0.1989  1.3452
  923MOL0     H24602   4.651  11.792   7.954 -0.5498 -0.0797 -1.9845
  923MOL0     H24603   4.591  11.458   7.900 -2.5998  0.6835  0.8159
  923MOL0     H24604   4.518  11.608   7.928 -0.7578  1.9167 -1.8922
  923MOL0     H24605   4.575  11.563   7.764  2.1339 -4.6739 -0.7062
  924MOL0     O24606   0.668   7.653   7.758 -0.2066  0.0724 -0.7665
  924MOL0     C24607   0.753   7.636   7.673 -0.6529  1.2385  0.1542
  924MOL0     O24608   0.882   7.665   7.680  0.0987 -0.3841 -0.7857
  924MOL0     C24609   0.934   7.752   7.774  0.2414  0.5454 -0.0605
  924MOL0     C24610   0.881   7.883   7.805 -0.9567  0.2727  0.6095
  924MOL0     C24611   0.948   7.954   7.905 -1.3156 -0.6929 -0.1164
  924MOL0     C24612   1.060   7.906   7.974 -0.3152  1.1302 -0.3827
  924MOL0     O24613   1.123   7.977   8.061  0.4527  0.2367  0.2744
  924MOL0     C24614   1.244   8.029   8.007  0.3544 -0.9900  0.0118
  924MOL0     C24615   1.370   7.971   8.074  0.0673 -0.2299 -0.8718
  924MOL0     C24616   1.496   8.052   8.033 -0.2078 -0.0451  0.2142
  924MOL0     C24617   1.622   7.996   8.105 -0.8167  0.2558  0.2849
  924MOL0     C24618   1.749   8.049   8.057  0.2144  0.5623  0.9783
  924MOL0     C24619   1.867   8.020   8.150 -0.3651 -0.5288 -0.3854
  924MOL0     C24620   2.009   8.061   8.083  0.1959 -0.4224  0.5624
  924MOL0     C24621   2.118   8.044   8.185  0.5584  0.7870  1.4823
  924MOL0     N24622   2.251   8.056   8.116  0.0548  0.3851 -0.0238
  924MOL0     C24623   2.334   8.160   8.143 -0.3055 -1.2453  0.3128
  924MOL0     C24624   2.459   8.123   8.091  0.4387  0.5192  0.0787
  924MOL0     C24625   2.595   8.189   8.074  0.2371  0.2222  0.6682
  924MOL0     C24626   2.592   8.288   7.952  0.0883 -0.1580  0.7725
  924MOL0     C24627   2.703   8.395   7.966  0.5504  0.1773 -1.2999
  924MOL0     C24628   2.840   8.325   7.982  0.8147  0.1999  0.1433
  924MOL0     O24629   2.854   8.284   8.116 -0.6700 -0.3694 -0.2172
  924MOL0     C24630   2.936   8.176   8.144 -0.0850 -0.3062  0.4634
  924MOL0     C24631   3.047   8.136   8.067 -1.6008  1.0234  0.7285
  924MOL0     C24632   3.129   8.027   8.095 -0.4382  1.2403 -0.5263
  924MOL0     C24633   3.090   7.936   8.194 -0.8427 -0.0428 -0.4013
  924MOL0     C24634   3.173   7.814   8.209  0.3852  0.8223 -0.4664
  924MOL0     O24635   3.256   7.783   8.108 -0.4025 -0.0345  0.0959
  924MOL0     C24636   3.325   7.665   8.102 -0.5312 -0.1864 -0.4189
  924MOL0     C24637   3.433   7.629   8.183  0.1575 -0.4801 -0.1090
  924MOL0     C24638   3.496   7.505   8.154  0.4814  0.0899 -0.0641
  924MOL0     C24639   3.451   7.418   8.057 -1.2060  1.3662  0.6940
  924MOL0     O24640   3.514   7.295   8.049  0.4993  0.6715 -0.5580
  924MOL0     C24641   3.521   7.238   8.178  0.4625 -0.4292  0.2703
  924MOL0     C24642   3.490   7.084   8.168  0.4555 -0.5564  0.3299
  924MOL0     C24643   3.493   7.023   8.306  1.2826 -0.5639 -0.2477
  924MOL0     C24644   3.632   7.049   8.378  0.2817 -0.5227 -0.1006
  924MOL0     C24645   3.670   6.953   8.487  0.5234  0.3064 -0.2806
  924MOL0     C24646   3.735   6.825   8.442  0.4232  0.0736 -1.1834
  924MOL0     C24647   3.814   6.750   8.558  0.0572 -0.5829 -0.8730
  924MOL0     C24648   3.722   6.671   8.662 -0.4038  0.3155 -0.0927
  924MOL0    Cl24649   3.644   6.777   8.785  0.1405  0.2761 -0.0477
  924MOL0     C24650   3.334   7.445   7.987 -0.3092  0.2600  0.0962
  924MOL0     C24651   3.273   7.569   8.013  0.2922  0.0033  0.2654
  924MOL0     O24652   3.151   7.745   8.310  0.2877  0.1542  0.0224
  924MOL0     C24653   2.977   7.963   8.270 -0.3001  0.5815  0.1953
  924MOL0     C24654   2.902   8.080   8.254 -0.7503 -0.0968 -0.1730
  924MOL0     N24655   2.446   7.992   8.049  0.2091  0.4367  0.5135
  924MOL0     N24656   2.329   7.950   8.075  0.1678  0.2897 -0.3892
  924MOL0     C24657   1.113   7.780   7.937  0.5367  0.6479 -0.3628
  924MOL0     C24658   1.045   7.705   7.843  0.3844  0.8855 -0.2986
  924MOL0     C24659   0.712   7.551   7.558 -0.3829  0.4329  0.1076
  924MOL0     C24660   0.816   7.475   7.490  0.1847 -0.8470  0.0596
  924MOL0     C24661   0.793   7.396   7.382  0.1147  0.8163 -0.6065
  924MOL0     C24662   0.667   7.393   7.323 -0.9503 -0.7056 -0.5539
  924MOL0     O24663   0.667   7.323   7.207  0.4996 -0.1366  0.3034
  924MOL0     C24664   0.581   7.364   7.091 -0.7858  0.2165 -0.5604
  924MOL0     C24665   0.632   7.273   6.983 -0.6174 -1.0483  0.0834
  924MOL0     C24666   0.535   7.273   6.857 -0.6994  0.1318 -0.5232
  924MOL0     C24667   0.581   7.383   6.767  0.5075  0.5372 -0.3552
  924MOL0     C24668   0.475   7.407   6.668  0.6898 -0.0250  0.1270
  924MOL0     C24669   0.413   7.451   6.572  0.5028  0.3948 -0.6915
  924MOL0     C24670   0.567   7.474   7.373  0.0780 -0.3211  0.0272
  924MOL0     C24671   0.581   7.544   7.495 -0.9704  0.0051  0.2964
  924MOL0     C24672   0.460   7.628   7.537 -0.5337 -0.8882  0.1473
  924MOL0     H24673   0.797   7.927   7.754 -1.6640 -0.0201  1.4849
  924MOL0     H24674   0.920   8.052   7.945  1.3362  0.3202 -0.5285
  924MOL0     H24675   1.247   8.010   7.899 -1.6371  1.4079 -0.5542
  924MOL0     H24676   1.248   8.138   8.016  0.1283 -0.7854 -1.9246
  924MOL0     H24677   1.377   7.866   8.042  0.7121 -0.2909 -0.5255
  924MOL0     H24678   1.347   7.983   8.180 -2.1298  0.3923 -1.3638
  924MOL0     H24679   1.494   8.161   8.047 -1.5065  0.1467 -1.2007
  924MOL0     H24680   1.520   8.040   7.927  1.1832 -0.4966  0.5706
  924MOL0     H24681   1.613   8.005   8.214 -1.2306 -1.4257  0.4141
  924MOL0     H24682   1.613   7.889   8.087 -4.2390  0.3988  0.6015
  924MOL0     H24683   1.769   8.010   7.957 -1.7178 -1.4583  1.3119
  924MOL0     H24684   1.753   8.158   8.051  1.7043  0.4674 -0.5025
  924MOL0     H24685   1.844   8.078   8.240 -2.8380 -0.5502 -0.9221
  924MOL0     H24686   1.868   7.914   8.178  1.5409 -0.7186 -0.9976
  924MOL0     H24687   2.013   8.163   8.042  3.0942  0.3479  2.4654
  924MOL0     H24688   2.024   7.996   7.996  2.1513  0.8858 -0.1509
  924MOL0     H24689   2.108   8.127   8.257 -0.4325  0.1182  2.1434
  924MOL0     H24690   2.121   7.952   8.244  0.4767  0.3832  0.8603
  924MOL0     H24691   2.305   8.248   8.199 -0.3851 -0.0570 -1.5191
  924MOL0     H24692   2.622   8.237   8.168 -1.9218  4.1812 -0.4859
  924MOL0     H24693   2.660   8.105   8.048 -1.7823 -0.6572 -2.1452
  924MOL0     H24694   2.581   8.240   7.854 -2.5826 -0.7156  1.2461
  924MOL0     H24695   2.495   8.339   7.959  0.2169  0.0277  1.2922
  924MOL0     H24696   2.680   8.455   8.054 -2.5194 -1.1541 -1.0834
  924MOL0     H24697   2.704   8.457   7.875 -0.0582 -0.9969 -2.1342
  924MOL0     H24698   2.914   8.392   7.937  0.7968 -0.4787 -0.9380
  924MOL0     H24699   2.834   8.248   7.905  0.3884  0.8850 -0.5226
  924MOL0     H24700   3.084   8.196   7.984  1.3644 -2.8399 -1.0545
  924MOL0     H24701   3.225   8.011   8.047 -0.5636  0.3803 -0.4989
  924MOL0     H24702   3.478   7.695   8.256  0.1679  0.7296 -1.1798
  924MOL0     H24703   3.592   7.481   8.197  0.6820  0.6636 -0.1866
  924MOL0     H24704   3.618   7.260   8.223  0.8052 -1.4773  0.0657
  924MOL0     H24705   3.447   7.270   8.251 -1.6885 -1.3227 -1.4111
  924MOL0     H24706   3.391   7.075   8.122  0.8979  2.2622 -1.4680
  924MOL0     H24707   3.563   7.037   8.101  2.4361  2.2940  0.3089
  924MOL0     H24708   3.410   7.062   8.366  0.3127 -4.2205  1.0354
  924MOL0     H24709   3.476   6.916   8.292  1.2324 -0.9983  2.5817
  924MOL0     H24710   3.632   7.141   8.436 -0.2247 -0.8020  0.3486
  924MOL0     H24711   3.711   7.044   8.302  0.9216 -1.9601  0.6117
  924MOL0     H24712   3.579   6.920   8.539  0.4713 -0.5164 -0.8759
  924MOL0     H24713   3.742   7.005   8.551 -0.3135 -1.5810  2.3833
  924MOL0     H24714   3.665   6.764   8.385  0.2614 -0.8463 -0.0231
  924MOL0     H24715   3.818   6.851   8.375 -0.6715  2.0329 -1.8773
  924MOL0     H24716   3.874   6.821   8.614 -0.8893  0.4112 -1.0841
  924MOL0     H24717   3.871   6.675   8.501 -0.5283 -0.2590 -1.9165
  924MOL0     H24718   3.660   6.598   8.609 -0.4837 -0.6638  1.2932
  924MOL0     H24719   3.795   6.606   8.711  2.7466  2.7556 -1.2014
  924MOL0     H24720   3.293   7.365   7.927 -1.1825  0.7821 -0.0133
  924MOL0     H24721   3.180   7.593   7.963 -0.1220 -2.1441 -0.0894
  924MOL0     H24722   2.955   7.899   8.355  1.1912  4.8057  4.2057
  924MOL0     H24723   2.824   8.089   8.329 -0.9878 -2.2370 -0.1122
  924MOL0     H24724   1.185   7.731   8.002  1.3232  0.9215 -1.0133
  924MOL0     H24725   1.080   7.611   7.801 -2.7412  1.7246 -5.7035
  924MOL0     H24726   0.907   7.480   7.549 -0.3740  0.7867  0.8543
  924MOL0     H24727   0.871   7.338   7.333 -0.7884 -1.2924  0.3611
  924MOL0     H24728   0.594   7.471   7.073 -4.5928  0.4095 -3.3518
  924MOL0     H24729   0.476   7.342   7.108 -1.2965  0.8573 -2.6215
  924MOL0     H24730   0.648   7.169   7.011 -1.4415 -0.8518  1.3451
  924MOL0     H24731   0.735   7.301   6.960  0.5650 -2.9545  2.6009
  924MOL0     H24732   0.430   7.270   6.887 -0.4207 -0.7360  0.4033
  924MOL0     H24733   0.549   7.186   6.793 -2.7661 -0.8168  0.2173
  924MOL0     H24734   0.596   7.472   6.829  0.1755 -0.4075  1.1352
  924MOL0     H24735   0.669   7.354   6.709 -1.0945 -1.6326 -1.8324
  924MOL0     H24736   0.366   7.491   6.484 -2.2125  0.2352  0.5759
  924MOL0     H24737   0.471   7.468   7.322  0.1486 -4.3020  0.0824
  924MOL0     H24738   0.410   7.661   7.446  2.6703 -1.6089 -2.0219
  924MOL0     H24739   0.381   7.577   7.593 -0.0726 -0.3263  1.3462
  924MOL0     H24740   0.495   7.710   7.601  0.5714 -1.7194  0.6440
  925MOL0     O24741  10.922   9.081   5.421  0.5384 -0.3717  0.0294
  925MOL0     C24742  10.861   9.019   5.508 -0.7649 -0.4470 -0.3326
  925MOL0     O24743  10.732   9.034   5.538  0.2095 -0.3899  0.2236
  925MOL0     C24744  10.641   9.117   5.474  0.1857 -0.0497  0.5585
  925MOL0     C24745  10.657   9.219   5.376 -0.1905  0.7451  0.1046
  925MOL0     C24746  10.550   9.293   5.330  0.0435  0.0003 -0.8278
  925MOL0     C24747  10.418   9.275   5.400 -0.4325 -1.1898 -0.0576
  925MOL0     O24748  10.310   9.367   5.387  1.3740 -0.4658  0.2004
  925MOL0     C24749  10.274   9.409   5.257 -1.1928  0.6202  0.1153
  925MOL0     C24750  10.343   9.537   5.215 -0.1186 -0.1409  0.4445
  925MOL0     C24751  10.323   9.657   5.308  0.8995  0.5122  0.0239
  925MOL0     C24752  10.420   9.774   5.288  0.5879 -0.1994 -0.6908
  925MOL0     C24753  10.357   9.903   5.341 -0.0459  0.8606  0.5240
  925MOL0     C24754  10.447  10.023   5.308  0.3397  0.3003 -0.2301
  925MOL0     C24755  10.386  10.157   5.344 -0.5495 -0.6219 -0.5425
  925MOL0     C24756  10.259  10.188   5.266 -0.0062  0.5184 -0.4585
  925MOL0     N24757  10.285  10.265   5.139  0.5051 -0.0704  0.4644
  925MOL0     C24758  10.179  10.314   5.061  0.9379 -0.5695  0.3290
  925MOL0     C24759  10.243  10.370   4.959  0.2124  0.9226  0.6098
  925MOL0     C24760  10.168  10.433   4.842 -0.0829  1.2761 -0.7444
  925MOL0     C24761  10.053  10.515   4.882  0.0756 -0.2625  0.1190
  925MOL0     C24762   9.991  10.595   4.761 -0.4621 -0.5274  0.2397
  925MOL0     C24763   9.836  10.608   4.770 -0.0099 -0.3022  0.1166
  925MOL0     O24764   9.806  10.665   4.905 -0.3434 -0.5882  0.2259
  925MOL0     C24765   9.688  10.637   4.957 -0.1256  0.3316 -1.1417
  925MOL0     C24766   9.658  10.668   5.093 -0.9525 -0.2180 -0.1143
  925MOL0     C24767   9.526  10.621   5.142 -0.8017 -0.0811  0.8444
  925MOL0     C24768   9.429  10.567   5.054 -0.1227 -0.3275 -0.6608
  925MOL0     C24769   9.288  10.533   5.101 -0.1456  0.0141  0.5735
  925MOL0     O24770   9.207  10.448   5.028 -0.1411 -0.0179  0.0570
  925MOL0     C24771   9.071  10.468   5.051 -0.6851  0.6330 -1.4098
  925MOL0     C24772   8.994  10.390   4.968 -0.8532  0.5989 -0.1954
  925MOL0     C24773   8.852  10.389   4.984  0.6685 -0.9051  0.4630
  925MOL0     C24774   8.785  10.469   5.082 -0.4158 -0.0723  0.0915
  925MOL0     O24775   8.650  10.484   5.085 -0.1120  0.4218 -0.1748
  925MOL0     C24776   8.577  10.364   5.074 -0.1241  0.0902 -0.2194
  925MOL0     C24777   8.448  10.356   5.162  0.0791  0.0219 -1.3044
  925MOL0     C24778   8.403  10.219   5.203 -0.4893 -0.4120 -0.6857
  925MOL0     C24779   8.258  10.219   5.240 -0.3450  0.5484 -0.8685
  925MOL0     C24780   8.219  10.109   5.348  0.1281 -0.2828 -0.0286
  925MOL0     C24781   8.063  10.079   5.334  0.6141 -0.2044  0.7101
  925MOL0     C24782   8.020   9.942   5.347  0.7588  0.7013 -0.3212
  925MOL0     C24783   7.875   9.927   5.341  0.3399 -0.0969 -0.0872
  925MOL0    Cl24784   7.811   9.974   5.176  0.1416 -0.4231  0.3341
  925MOL0     C24785   8.864  10.557   5.154 -0.6965 -0.2580 -0.0609
  925MOL0     C24786   8.998  10.561   5.138 -0.8712 -0.1120  0.5737
  925MOL0     O24787   9.261  10.571   5.215  0.0272  0.0931 -0.0256
  925MOL0     C24788   9.464  10.541   4.925 -0.7587 -0.1684  0.1625
  925MOL0     C24789   9.588  10.579   4.873  0.3707 -0.1817  0.5139
  925MOL0     N24790  10.378  10.364   4.971 -0.1739  0.3214 -0.2768
  925MOL0     N24791  10.405  10.307   5.084  0.4261 -0.7010 -0.2352
  925MOL0     C24792  10.402   9.176   5.484  0.4397 -0.5329 -0.1443
  925MOL0     C24793  10.508   9.098   5.524 -0.4014  0.1465  0.5659
  925MOL0     C24794  10.941   8.929   5.588 -0.0521  0.1359  0.0433
  925MOL0     C24795  10.906   8.913   5.724  0.6989 -0.0845 -0.6741
  925MOL0     C24796  10.970   8.834   5.814  0.5010 -0.4213  0.3070
  925MOL0     C24797  11.071   8.753   5.774 -0.2835 -0.9559  1.1339
  925MOL0     O24798  11.150   8.665   5.841  0.0376 -0.1609 -1.0842
  925MOL0     C24799  11.129   8.663   5.988 -0.0283 -0.5288  0.4826
  925MOL0     C24800  11.228   8.610   6.086 -0.0258  0.5122  0.9119
  925MOL0     C24801  11.193   8.457   6.109  0.8778 -0.4432 -0.6081
  925MOL0     C24802  11.249   8.365   5.998  0.4444  0.2607 -0.5385
  925MOL0     C24803  11.185   8.240   6.006 -0.0724  0.4962  0.2186
  925MOL0     C24804  11.148   8.129   6.006 -0.7276  0.4413 -0.6818
  925MOL0     C24805  11.112   8.766   5.638  0.0565 -0.1693  0.0391
  925MOL0     C24806  11.047   8.840   5.542  0.0755  1.2217 -0.0723
  925MOL0     C24807  11.090   8.856   5.399 -0.3261  0.1791 -0.7841
  925MOL0     H24808  10.755   9.231   5.329 -0.0394 -1.9316 -0.4333
  925MOL0     H24809  10.570   9.368   5.254  1.4336  0.1809 -0.3183
  925MOL0     H24810  10.315   9.334   5.188  0.5290  1.4030  0.2257
  925MOL0     H24811  10.165   9.417   5.262 -1.3843 -0.7265 -1.2588
  925MOL0     H24812  10.321   9.582   5.118  2.4916  0.2642 -0.0311
  925MOL0     H24813  10.451   9.523   5.205 -0.2689 -0.9451 -0.0894
  925MOL0     H24814  10.346   9.613   5.405 -2.1141 -0.7106  0.3046
  925MOL0     H24815  10.217   9.685   5.302  0.8724  0.2154 -1.1172
  925MOL0     H24816  10.520   9.764   5.332 -0.1342  1.8339  1.6860
  925MOL0     H24817  10.440   9.780   5.181 -2.8192 -1.6881 -1.5349
  925MOL0     H24818  10.268   9.906   5.278 -0.7966  1.9414  1.5848
  925MOL0     H24819  10.332   9.899   5.448 -1.1804  0.5189  0.2554
  925MOL0     H24820  10.537  10.005   5.367  0.5547  0.6592 -0.4521
  925MOL0     H24821  10.471  10.023   5.202  2.9352 -0.1454  0.3007
  925MOL0     H24822  10.460  10.235   5.326  1.5707 -1.7454  2.4628
  925MOL0     H24823  10.357  10.153   5.450 -0.2725  0.5642 -0.4065
  925MOL0     H24824  10.206  10.094   5.248  1.8685 -0.1501 -3.3677
  925MOL0     H24825  10.185  10.239   5.328 -0.8931 -1.6860  0.3594
  925MOL0     H24826  10.072  10.303   5.073  0.9712  0.1143  1.3874
  925MOL0     H24827  10.238  10.502   4.795  1.2810  0.2857 -0.2381
  925MOL0     H24828  10.142  10.348   4.778 -0.1486 -0.3558  1.3607
  925MOL0     H24829   9.974  10.447   4.916  1.9757 -1.0505  3.5252
  925MOL0     H24830  10.085  10.573   4.969  2.7989 -1.5659  0.0846
  925MOL0     H24831  10.003  10.549   4.663  1.2763 -2.6541  1.3388
  925MOL0     H24832  10.033  10.695   4.766 -1.7761  0.0057  1.1292
  925MOL0     H24833   9.809  10.502   4.761 -0.8155 -0.1557  0.7364
  925MOL0     H24834   9.799  10.664   4.683 -1.4603 -0.7949  0.3901
  925MOL0     H24835   9.735  10.715   5.154 -1.0995  0.9376 -0.7909
  925MOL0     H24836   9.505  10.604   5.247 -1.6074 -1.7533  0.4483
  925MOL0     H24837   9.028  10.322   4.891 -1.8535  1.4573 -1.4505
  925MOL0     H24838   8.791  10.337   4.911  0.6953  1.5650 -1.4332
  925MOL0     H24839   8.554  10.335   4.971  0.3197  1.0579 -0.5974
  925MOL0     H24840   8.645  10.284   5.104 -0.8115 -0.2578  0.4441
  925MOL0     H24841   8.468  10.408   5.256 -1.8923  0.8814 -1.3090
  925MOL0     H24842   8.360  10.398   5.112 -2.1649 -1.7063  0.9204
  925MOL0     H24843   8.421  10.150   5.120  0.8561 -1.8510  0.7235
  925MOL0     H24844   8.459  10.190   5.293 -2.0703 -0.7305  0.2335
  925MOL0     H24845   8.196  10.198   5.153  1.2448 -4.1949 -1.1158
  925MOL0     H24846   8.233  10.317   5.283  1.2710 -0.3435  2.4822
  925MOL0     H24847   8.237  10.142   5.451 -2.7265  0.2338  0.3889
  925MOL0     H24848   8.274  10.018   5.321 -1.4496 -0.8193 -1.5693
  925MOL0     H24849   8.022  10.146   5.410  2.3980  0.4296  1.1449
  925MOL0     H24850   8.024  10.113   5.238  1.0449  1.6454  1.1512
  925MOL0     H24851   8.050   9.905   5.445  1.8014 -0.8240 -1.1643
  925MOL0     H24852   8.050   9.868   5.272 -3.3944  0.7638 -2.3949
  925MOL0     H24853   7.859   9.822   5.368  1.3955 -1.4798 -4.1539
  925MOL0     H24854   7.820   9.982   5.417  0.8048  0.1600  0.0649
  925MOL0     H24855   8.829  10.642   5.212 -1.5836 -0.6375 -0.0164
  925MOL0     H24856   9.048  10.655   5.162 -3.0105  1.5958 -1.2930
  925MOL0     H24857   9.383  10.498   4.868  0.0667 -0.4123 -0.8491
  925MOL0     H24858   9.599  10.552   4.768  0.6542  0.0915  0.4725
  925MOL0     H24859  10.302   9.178   5.526  0.6682  1.2028  0.3907
  925MOL0     H24860  10.492   9.013   5.590  0.3573 -0.4497  0.0036
  925MOL0     H24861  10.816   8.966   5.755 -1.3365 -0.7296 -4.8143
  925MOL0     H24862  10.925   8.845   5.912 -0.1073 -1.1341  0.1200
  925MOL0     H24863  11.026   8.627   5.999 -1.2079  1.7265 -1.9496
  925MOL0     H24864  11.129   8.766   6.026  1.2676 -0.8810  1.5204
  925MOL0     H24865  11.230   8.664   6.181 -2.2989 -1.0121  1.9355
  925MOL0     H24866  11.333   8.605   6.057  0.1349  0.9258  1.4141
  925MOL0     H24867  11.087   8.436   6.126  0.7638 -0.7878 -1.6743
  925MOL0     H24868  11.242   8.429   6.202 -0.1134 -1.0660 -0.2533
  925MOL0     H24869  11.240   8.412   5.900 -1.0628  0.7555 -0.1979
  925MOL0     H24870  11.355   8.353   6.020  0.3253  1.2759  0.7114
  925MOL0     H24871  11.106   8.032   6.015 -0.9006  0.6776  1.8506
  925MOL0     H24872  11.192   8.699   5.608 -2.3196 -2.5376 -1.4208
  925MOL0     H24873  11.161   8.777   5.375 -0.1372 -0.4455  1.5159
  925MOL0     H24874  10.992   8.853   5.351 -1.0073  0.8768  0.4801
  925MOL0     H24875  11.142   8.951   5.380  2.0602 -1.1708 -1.3811
  926MOL0     O24876   2.943   6.828  10.333 -0.1723 -0.5843 -0.0731
  926MOL0     C24877   2.832   6.844  10.379 -0.4992  0.5223 -0.1380
  926MOL0     O24878   2.805   6.849  10.511  0.3809 -0.3979  0.7028
  926MOL0     C24879   2.899   6.813  10.608 -0.0026 -0.0421  0.5499
  926MOL0     C24880   2.852   6.740  10.719  0.4653 -0.6136 -0.6686
  926MOL0     C24881   2.939   6.717  10.822  0.5267  0.6963 -0.2175
  926MOL0     C24882   3.064   6.759  10.830  0.1782  0.3680 -0.3027
  926MOL0     O24883   3.136   6.750  10.947  0.1176  0.0765 -0.7026
  926MOL0     C24884   3.275   6.717  10.934  0.0543 -0.3227  0.5875
  926MOL0     C24885   3.295   6.577  10.983 -0.3676  0.3801 -0.8715
  926MOL0     C24886   3.261   6.469  10.875  0.2995  0.3300  0.0638
  926MOL0     C24887   3.128   6.407  10.913  0.8961 -0.0597  0.3231
  926MOL0     C24888   3.120   6.276  10.824 -0.1413 -1.0835  0.5561
  926MOL0     C24889   2.994   6.192  10.840 -0.0583  0.3321 -0.0839
  926MOL0     C24890   2.989   6.066  10.740 -0.6270 -0.2157  0.1735
  926MOL0     C24891   3.074   5.949  10.798  0.7788  0.3264  0.9102
  926MOL0     N24892   3.065   5.828  10.708  0.1120 -1.5554  0.2103
  926MOL0     C24893   3.164   5.735  10.688  0.0212  0.0742  0.0140
  926MOL0     C24894   3.102   5.612  10.697  0.1193 -0.7954 -0.3385
  926MOL0     C24895   3.174   5.483  10.662 -0.4635 -0.1460 -0.8001
  926MOL0     C24896   3.263   5.422  10.776 -0.5103 -0.7603  0.0624
  926MOL0     C24897   3.292   5.275  10.746 -0.4111 -0.1940  1.3532
  926MOL0     C24898   3.177   5.175  10.772 -0.9674  0.1895  0.4068
  926MOL0     O24899   3.063   5.159  10.669  0.0181 -0.8083  0.4897
  926MOL0     C24900   2.980   5.054  10.689 -0.1602 -0.6904 -0.0174
  926MOL0     C24901   3.019   4.923  10.664  0.4170  0.8144 -0.4057
  926MOL0     C24902   2.935   4.809  10.691 -0.7524  0.4376  0.3513
  926MOL0     C24903   2.814   4.833  10.756  0.3755 -0.4878 -0.0931
  926MOL0     C24904   2.730   4.719  10.803  0.4374 -0.2753 -0.5976
  926MOL0     O24905   2.762   4.592  10.772 -0.4980  0.8621 -0.4100
  926MOL0     C24906   2.680   4.478  10.789  0.4756 -0.2696  1.2372
  926MOL0     C24907   2.726   4.350  10.819  0.2538  0.2462  1.3554
  926MOL0     C24908   2.637   4.249  10.860  0.6567 -0.4521 -0.2897
  926MOL0     C24909   2.499   4.266  10.862 -1.3103 -0.6421  1.1671
  926MOL0     O24910   2.421   4.163  10.904  0.4797  0.1182  0.0963
  926MOL0     C24911   2.281   4.167  10.920  0.6168 -0.2129 -0.1589
  926MOL0     C24912   2.242   4.199  11.070 -0.7304 -1.1900 -0.0791
  926MOL0     C24913   2.306   4.100  11.162 -0.0125  0.2086 -0.1972
  926MOL0     C24914   2.449   4.141  11.195  0.5523 -0.2402  0.4567
  926MOL0     C24915   2.486   4.103  11.339  0.0851  0.3629 -0.0846
  926MOL0     C24916   2.628   4.127  11.391 -0.1142  0.2420  0.1194
  926MOL0     C24917   2.740   4.061  11.318  0.3706 -0.0858 -0.0779
  926MOL0     C24918   2.863   4.163  11.314 -0.0505 -1.3237 -0.8687
  926MOL0    Cl24919   3.006   4.078  11.284  0.3919  0.4360  0.4110
  926MOL0     C24920   2.455   4.390  10.830  0.0968 -0.0049 -0.0223
  926MOL0     C24921   2.541   4.492  10.795  0.1457  0.4359  0.5032
  926MOL0     O24922   2.643   4.755  10.884 -0.2785  0.6640 -0.2092
  926MOL0     C24923   2.768   4.964  10.772  0.1298 -0.0438 -1.0563
  926MOL0     C24924   2.851   5.080  10.744  0.3370 -0.2196  0.4110
  926MOL0     N24925   2.967   5.638  10.719  0.1570  0.3081 -0.1606
  926MOL0     N24926   2.946   5.764  10.727 -0.7242 -0.2821 -0.3850
  926MOL0     C24927   3.111   6.836  10.725 -0.3219 -0.4567 -0.4275
  926MOL0     C24928   3.027   6.858  10.613  0.1703 -0.6886  0.7684
  926MOL0     C24929   2.716   6.853  10.291 -0.1596 -0.3006 -0.6375
  926MOL0     C24930   2.593   6.825  10.348  0.4697  0.1217  0.2177
  926MOL0     C24931   2.470   6.822  10.280 -0.0259 -0.9079  0.8183
  926MOL0     C24932   2.477   6.843  10.133  0.0034 -0.3938 -1.1323
  926MOL0     O24933   2.361   6.848  10.067  0.2862 -0.3293 -0.1896
  926MOL0     C24934   2.352   6.915   9.940  0.2842  0.1425  0.6442
  926MOL0     C24935   2.358   7.067   9.962  0.4813  0.7328 -0.0381
  926MOL0     C24936   2.254   7.144  10.044 -0.0061  0.2104 -0.1004
  926MOL0     C24937   2.103   7.124  10.025 -0.5746  0.7107  0.0284
  926MOL0     C24938   2.066   7.145   9.890  0.1016  0.1125  0.5391
  926MOL0     C24939   2.017   7.169   9.777  0.9432 -0.8914  0.2286
  926MOL0     C24940   2.592   6.880  10.085 -0.5827  1.2612  0.0854
  926MOL0     C24941   2.716   6.876  10.151  0.1547  0.2316  0.0525
  926MOL0     C24942   2.834   6.909  10.071 -0.1133 -0.0182  0.2156
  926MOL0     H24943   2.750   6.705  10.714 -0.2543  1.1837  0.4678
  926MOL0     H24944   2.902   6.676  10.915 -2.1348  0.4108 -1.3028
  926MOL0     H24945   3.313   6.724  10.831 -1.3355  0.9479  0.1218
  926MOL0     H24946   3.340   6.783  10.992 -1.3931  2.0112 -0.2788
  926MOL0     H24947   3.239   6.558  11.075  0.5758 -2.4456 -0.7862
  926MOL0     H24948   3.401   6.559  11.002 -0.7335 -1.7539 -0.6679
  926MOL0     H24949   3.343   6.398  10.864 -0.1230 -0.0511 -0.7014
  926MOL0     H24950   3.248   6.521  10.780  0.7239  4.0390  1.8565
  926MOL0     H24951   3.133   6.383  11.020  1.5036 -1.5298 -0.0156
  926MOL0     H24952   3.053   6.484  10.894  2.7530  1.9415  0.7970
  926MOL0     H24953   3.116   6.317  10.723 -2.6118  0.1463  1.0736
  926MOL0     H24954   3.207   6.211  10.841  1.4806  0.3473 -1.7438
  926MOL0     H24955   2.991   6.147  10.940  0.8349 -1.0516 -0.6589
  926MOL0     H24956   2.903   6.248  10.814 -0.8931 -1.8709 -2.3637
  926MOL0     H24957   3.028   6.093  10.641 -2.3784 -1.5775 -0.9410
  926MOL0     H24958   2.883   6.043  10.725 -0.6313 -0.6047  0.7615
  926MOL0     H24959   3.179   5.978  10.793  1.6816 -2.6982  0.2697
  926MOL0     H24960   3.049   5.922  10.901  0.4990  3.8961  1.9337
  926MOL0     H24961   3.270   5.747  10.669  0.5798 -3.6904 -0.1032
  926MOL0     H24962   3.087   5.422  10.637 -0.3252 -0.3019 -0.9000
  926MOL0     H24963   3.230   5.483  10.568 -0.7267 -2.2497 -1.0085
  926MOL0     H24964   3.358   5.476  10.776 -1.5907  1.6735  4.5212
  926MOL0     H24965   3.205   5.436  10.868 -3.5644 -1.8422 -1.5553
  926MOL0     H24966   3.380   5.262  10.809  0.1756 -0.3672  0.5108
  926MOL0     H24967   3.325   5.257  10.643 -0.8270 -0.8893  1.3352
  926MOL0     H24968   3.128   5.200  10.867 -0.5179  0.0920  0.6663
  926MOL0     H24969   3.221   5.076  10.788 -0.6085  0.3108  0.1506
  926MOL0     H24970   3.118   4.899  10.626  1.1341 -0.6764  2.1622
  926MOL0     H24971   2.959   4.709  10.658 -0.2435  0.8007 -0.4011
  926MOL0     H24972   2.834   4.342  10.833  0.5729  0.0884 -0.8124
  926MOL0     H24973   2.688   4.156  10.885  1.3453  0.5099  2.1269
  926MOL0     H24974   2.230   4.238  10.856  1.2182  1.1799  0.8545
  926MOL0     H24975   2.255   4.064  10.894 -0.4715 -0.0362  0.1766
  926MOL0     H24976   2.266   4.301  11.102 -2.0785 -1.4159  1.8132
  926MOL0     H24977   2.134   4.189  11.084 -0.6219 -1.4526  0.6309
  926MOL0     H24978   2.239   4.076  11.245 -1.5861 -1.1683 -1.7953
  926MOL0     H24979   2.313   4.003  11.112 -4.2170 -1.7892  2.5521
  926MOL0     H24980   2.461   4.248  11.176 -1.0168 -0.5356 -2.7947
  926MOL0     H24981   2.517   4.081  11.133 -2.2159 -0.8948 -2.1738
  926MOL0     H24982   2.457   4.001  11.366  1.7883  0.3347  1.9123
  926MOL0     H24983   2.428   4.164  11.409  2.8978  1.3094  1.6327
  926MOL0     H24984   2.644   4.235  11.389  0.6778  0.2695  2.9580
  926MOL0     H24985   2.617   4.098  11.496 -0.8306  2.0267  0.5671
  926MOL0     H24986   2.714   4.017  11.221 -1.2428 -0.0651  0.3190
  926MOL0     H24987   2.778   3.977  11.377  0.9634  1.1424  1.3682
  926MOL0     H24988   2.842   4.239  11.238  2.7667  0.6929  0.2311
  926MOL0     H24989   2.876   4.196  11.418  2.1642 -2.1431 -0.8371
  926MOL0     H24990   2.348   4.402  10.842 -0.7687 -2.1329 -3.8849
  926MOL0     H24991   2.500   4.586  10.760  2.7335  0.4630 -3.0601
  926MOL0     H24992   2.678   4.993  10.826  0.2736  0.9225 -1.3021
  926MOL0     H24993   2.799   5.174  10.753 -2.7186 -1.6295 -1.1318
  926MOL0     H24994   3.212   6.873  10.732 -0.8548  0.8368  0.8143
  926MOL0     H24995   3.064   6.930  10.541 -0.9895 -0.3319  0.5016
  926MOL0     H24996   2.586   6.813  10.455  0.4971  2.9091  0.6193
  926MOL0     H24997   2.368   6.806  10.315 -1.3992 -1.0188 -2.8717
  926MOL0     H24998   2.253   6.894   9.897  0.5136  0.5117 -0.0933
  926MOL0     H24999   2.428   6.879   9.870  1.7923  0.5116  2.0286
  926MOL0     H25000   2.363   7.107   9.860 -2.9932 -0.2404 -0.6999
  926MOL0     H25001   2.457   7.088  10.003  0.4788 -1.2592  1.0814
  926MOL0     H25002   2.269   7.252  10.046 -4.0316  0.9713  2.8204
  926MOL0     H25003   2.275   7.110  10.146  0.5270  0.4459 -0.1322
  926MOL0     H25004   2.094   7.015  10.037  4.7316 -0.2067 -1.5144
  926MOL0     H25005   2.053   7.176  10.107  0.9750  0.9123  0.8896
  926MOL0     H25006   1.983   7.168   9.675 -1.9539  0.6650  1.0538
  926MOL0     H25007   2.602   6.901   9.979 -3.1149 -0.5378 -0.6051
  926MOL0     H25008   2.885   6.819  10.038  1.8705  0.1876  2.4915
  926MOL0     H25009   2.795   6.958   9.980  0.7283  3.6746  1.6446
  926MOL0     H25010   2.897   6.986  10.117  0.1885  0.3816 -0.8346
  927MOL0     O25011   6.589   0.107  10.251 -0.8425  0.2831 -1.2576
  927MOL0     C25012   6.577   0.222  10.219  0.5077 -0.3917 -0.4795
  927MOL0     O25013   6.468   0.300  10.234 -0.2459  0.2244 -0.0057
  927MOL0     C25014   6.350   0.261  10.293 -0.0763  0.2869 -0.4214
  927MOL0     C25015   6.348   0.200  10.420 -0.2095  0.0863 -0.4975
  927MOL0     C25016   6.220   0.162  10.472 -0.1143  0.2633 -0.8917
  927MOL0     C25017   6.102   0.170  10.387  0.3787  0.4103 -0.0422
  927MOL0     O25018   5.971   0.132  10.425  0.6654  0.3167 -0.5723
  927MOL0     C25019   5.967   0.045  10.539  0.2413 -1.3506  0.1271
  927MOL0     C25020   5.836  -0.024  10.528  0.9893  0.0936  0.1055
  927MOL0     C25021   5.818  -0.136  10.426 -1.2047  0.3358 -0.5541
  927MOL0     C25022   5.670  -0.189  10.433 -0.4194 -0.0699 -0.6708
  927MOL0     C25023   5.659  -0.289  10.312 -0.2401  0.7445  0.3247
  927MOL0     C25024   5.516  -0.351  10.307  0.9729 -0.4015  0.3661
  927MOL0     C25025   5.502  -0.436  10.183 -0.3648 -0.0667 -0.2837
  927MOL0     C25026   5.473  -0.368  10.055 -1.5375  0.0885  0.5666
  927MOL0     N25027   5.468  -0.463   9.948  0.6306  0.4100  0.4604
  927MOL0     C25028   5.373  -0.563   9.926 -0.8037 -1.0279  0.2086
  927MOL0     C25029   5.431  -0.648   9.844  0.0951  0.1007 -0.1474
  927MOL0     C25030   5.376  -0.784   9.822  0.3249 -0.8202 -0.5924
  927MOL0     C25031   5.369  -0.794   9.664  0.2905  0.2258  0.0521
  927MOL0     C25032   5.288  -0.692   9.583 -0.4976 -0.7537 -0.5097
  927MOL0     C25033   5.257  -0.744   9.445  0.3482  0.2913 -0.6164
  927MOL0     O25034   5.375  -0.736   9.358  0.0557 -0.5123 -0.4303
  927MOL0     C25035   5.355  -0.782   9.229  0.9552 -0.4148  0.1125
  927MOL0     C25036   5.467  -0.804   9.154  0.4689  0.2765 -0.3211
  927MOL0     C25037   5.446  -0.866   9.024 -1.0240 -0.1417  0.0812
  927MOL0     C25038   5.325  -0.908   8.974 -0.2096  0.3303 -0.4847
  927MOL0     C25039   5.309  -0.991   8.848 -0.0240  1.0454 -0.3907
  927MOL0     O25040   5.413  -0.991   8.765 -0.2059 -0.4933  0.6284
  927MOL0     C25041   5.397  -0.998   8.632 -0.2271  1.0077 -0.3769
  927MOL0     C25042   5.508  -1.023   8.546  0.4836  0.8088 -0.2159
  927MOL0     C25043   5.507  -1.014   8.403  0.5798 -0.2303  0.4501
  927MOL0     C25044   5.385  -0.992   8.333  0.2536 -1.3498 -0.1710
  927MOL0     O25045   5.367  -0.990   8.199 -0.0418  0.1608 -0.8929
  927MOL0     C25046   5.432  -1.085   8.114  0.3924 -0.1643 -0.7336
  927MOL0     C25047   5.430  -1.232   8.149  0.3122  1.0241  0.0167
  927MOL0     C25048   5.545  -1.325   8.102  0.3104 -0.5690  0.1923
  927MOL0     C25049   5.535  -1.350   7.946 -0.5901  0.5702 -0.4996
  927MOL0     C25050   5.661  -1.419   7.892  0.5038 -0.9198 -0.8370
  927MOL0     C25051   5.648  -1.448   7.733  0.5107  0.1004  0.2471
  927MOL0     C25052   5.788  -1.476   7.672  0.5110 -0.0331  1.2338
  927MOL0     C25053   5.801  -1.435   7.530  0.3107  0.0201  1.1535
  927MOL0    Cl25054   5.682  -1.527   7.434  0.1213  0.2178  0.2789
  927MOL0     C25055   5.274  -0.958   8.416  0.5673  0.0223  0.7080
  927MOL0     C25056   5.278  -0.970   8.557  0.8782  0.2320 -0.4868
  927MOL0     O25057   5.205  -1.062   8.839  0.4265 -0.2846 -0.2069
  927MOL0     C25058   5.218  -0.875   9.047 -0.1064 -0.0124 -0.3338
  927MOL0     C25059   5.228  -0.816   9.172  1.2780 -0.1375 -0.1736
  927MOL0     N25060   5.531  -0.585   9.780  0.3573 -0.5637  0.4245
  927MOL0     N25061   5.555  -0.470   9.837  0.2615  0.2899 -0.0881
  927MOL0     C25062   6.110   0.220  10.259  0.0636  0.1975 -0.3706
  927MOL0     C25063   6.230   0.273  10.221  0.0075  0.4363 -0.7330
  927MOL0     C25064   6.685   0.279  10.135  0.9460 -0.1602 -0.5610
  927MOL0     C25065   6.662   0.332  10.005  0.4575 -0.8455  0.2916
  927MOL0     C25066   6.760   0.396   9.934  0.0662 -0.8121  0.3176
  927MOL0     C25067   6.886   0.406   9.983 -0.1245  0.5026  0.2189
  927MOL0     O25068   6.996   0.454   9.915  0.7757 -0.2375 -0.1967
  927MOL0     C25069   6.973   0.555   9.821 -0.2179 -0.0192 -0.2160
  927MOL0     C25070   7.112   0.609   9.766 -0.4268  0.0086 -0.1058
  927MOL0     C25071   7.204   0.500   9.700  0.3827  0.1740 -0.6433
  927MOL0     C25072   7.323   0.566   9.632 -0.2685 -0.1850  0.2478
  927MOL0     C25073   7.275   0.655   9.511 -0.3263 -0.2657 -0.3937
  927MOL0     C25074   7.235   0.711   9.410  0.2544  0.6405 -0.5652
  927MOL0     C25075   6.909   0.358  10.114  0.2076 -0.4548  0.2687
  927MOL0     C25076   6.812   0.297  10.192  0.5420 -0.7899 -0.9758
  927MOL0     C25077   6.845   0.258  10.336 -0.3463  0.5419  0.2710
  927MOL0     H25078   6.437   0.191  10.481 -1.7448  1.2871  2.0951
  927MOL0     H25079   6.212   0.119  10.571 -1.3267 -0.4243 -1.2616
  927MOL0     H25080   6.037  -0.039  10.538  0.3586 -1.3013  1.5714
  927MOL0     H25081   5.962   0.101  10.633  1.1086  3.2797 -2.2879
  927MOL0     H25082   5.759   0.051  10.506  2.2587  1.3703 -0.1765
  927MOL0     H25083   5.802  -0.062  10.625 -0.8559  0.0102 -0.5306
  927MOL0     H25084   5.888  -0.218  10.443 -0.1963  1.1101 -0.8632
  927MOL0     H25085   5.842  -0.105  10.323  0.7631  0.4288 -0.1084
  927MOL0     H25086   5.650  -0.235  10.530 -0.4852 -0.9117 -1.0801
  927MOL0     H25087   5.598  -0.107  10.423 -2.0592 -1.5395 -1.3827
  927MOL0     H25088   5.691  -0.234  10.224  4.6571 -1.3816  0.4686
  927MOL0     H25089   5.728  -0.373  10.311 -0.8833  0.2055 -0.8009
  927MOL0     H25090   5.490  -0.401  10.400  1.5129  0.8547  1.2260
  927MOL0     H25091   5.449  -0.265  10.311  0.1283 -1.0492  0.2818
  927MOL0     H25092   5.433  -0.515  10.213  0.2627 -1.1510 -1.5877
  927MOL0     H25093   5.596  -0.490  10.168  1.1873  1.7919  2.0669
  927MOL0     H25094   5.381  -0.308  10.060  0.1762  3.0269 -0.5174
  927MOL0     H25095   5.553  -0.300  10.026 -1.6610 -1.8447 -5.7036
  927MOL0     H25096   5.281  -0.571   9.984 -1.2877  2.3429  0.1207
  927MOL0     H25097   5.454  -0.850   9.860  0.3533 -0.0621  0.6939
  927MOL0     H25098   5.284  -0.807   9.877  1.3459 -2.1386  0.6294
  927MOL0     H25099   5.470  -0.793   9.623  0.2619  0.1343 -0.0205
  927MOL0     H25100   5.335  -0.896   9.642 -0.3321  0.7662 -1.6536
  927MOL0     H25101   5.360  -0.610   9.571  1.9201 -2.7785 -0.7389
  927MOL0     H25102   5.188  -0.674   9.624 -0.5790 -2.5278  0.1444
  927MOL0     H25103   5.172  -0.693   9.399  1.6079  2.3970 -0.7493
  927MOL0     H25104   5.240  -0.852   9.449  1.1295  0.1674 -0.3831
  927MOL0     H25105   5.565  -0.786   9.197  1.0550 -0.0659 -1.4963
  927MOL0     H25106   5.534  -0.893   8.966 -0.8612  1.4957 -0.4717
  927MOL0     H25107   5.603  -1.040   8.596 -1.3691  1.0044  3.8208
  927MOL0     H25108   5.599  -1.030   8.349  2.0886  1.1814  2.4590
  927MOL0     H25109   5.388  -1.080   8.014  0.3904 -0.2971 -0.7387
  927MOL0     H25110   5.539  -1.065   8.119  1.2312 -4.1583  0.6056
  927MOL0     H25111   5.427  -1.244   8.258  1.5421  3.1481  0.3605
  927MOL0     H25112   5.340  -1.280   8.111  0.4424  0.1958  0.7219
  927MOL0     H25113   5.640  -1.277   8.122  0.4741 -0.4989 -0.6866
  927MOL0     H25114   5.534  -1.421   8.153 -1.9105 -0.9550 -0.8526
  927MOL0     H25115   5.508  -1.257   7.894 -4.1086 -0.0577 -0.0799
  927MOL0     H25116   5.443  -1.408   7.935 -1.6086  1.4539  2.4039
  927MOL0     H25117   5.678  -1.502   7.962 -1.3014  0.7873  1.8246
  927MOL0     H25118   5.734  -1.340   7.910 -0.7950 -0.5025  4.6421
  927MOL0     H25119   5.583  -1.533   7.709 -0.0411  1.0484 -1.8755
  927MOL0     H25120   5.605  -1.358   7.688  2.3273  0.5619 -0.6707
  927MOL0     H25121   5.815  -1.577   7.703  0.8995 -0.6581 -0.9500
  927MOL0     H25122   5.856  -1.407   7.722 -0.4209  2.9402 -1.2763
  927MOL0     H25123   5.766  -1.332   7.520 -0.7085 -0.2224  2.0537
  927MOL0     H25124   5.901  -1.440   7.486  1.1279  0.6421  2.8501
  927MOL0     H25125   5.175  -0.950   8.373  0.5779 -3.6821 -0.3588
  927MOL0     H25126   5.185  -0.956   8.612  1.3443 -0.6856  0.5699
  927MOL0     H25127   5.119  -0.904   9.011 -0.7055  2.6583 -1.0510
  927MOL0     H25128   5.135  -0.800   9.225  0.0497 -3.4499 -1.1159
  927MOL0     H25129   6.022   0.221  10.196 -0.6597 -0.9528  0.5731
  927MOL0     H25130   6.228   0.311  10.119  0.7663 -0.7306 -1.1966
  927MOL0     H25131   6.564   0.328   9.958  1.7418 -0.4955 -2.6474
  927MOL0     H25132   6.741   0.433   9.834 -0.7264 -1.6625  0.1456
  927MOL0     H25133   6.925   0.642   9.866 -0.1795  0.6246 -1.3692
  927MOL0     H25134   6.912   0.512   9.740 -0.4262  0.5302 -0.3556
  927MOL0     H25135   7.174   0.662   9.839  2.1405 -0.5321 -1.7349
  927MOL0     H25136   7.084   0.690   9.698 -1.0310 -0.3807 -0.3326
  927MOL0     H25137   7.145   0.443   9.627 -1.3526 -1.4939  1.9259
  927MOL0     H25138   7.244   0.426   9.769 -0.3056  1.5057  1.2698
  927MOL0     H25139   7.379   0.626   9.704  0.5241  0.1389 -0.6216
  927MOL0     H25140   7.385   0.482   9.598 -1.3827 -1.1629  0.5475
  927MOL0     H25141   7.191   0.747   9.319 -2.3502  1.4477  0.9168
  927MOL0     H25142   7.002   0.386  10.164 -0.8870 -1.0543  2.8385
  927MOL0     H25143   6.918   0.326  10.382 -1.5054  1.8261  0.2784
  927MOL0     H25144   6.761   0.284  10.400 -4.9767 -0.1517 -4.7582
  927MOL0     H25145   6.874   0.153  10.348 -0.6179  0.5070  0.6290
  928MOL0     O25146   9.744   5.003   2.046 -0.3050 -0.2550  0.5183
  928MOL0     C25147   9.747   4.928   2.146 -0.2525 -0.2694  0.5322
  928MOL0     O25148   9.854   4.873   2.205 -0.1090  0.3887 -0.1060
  928MOL0     C25149   9.980   4.885   2.139  0.5091  0.1732 -0.6834
  928MOL0     C25150  10.038   4.766   2.104  1.3376 -0.2553 -0.0774
  928MOL0     C25151  10.144   4.761   2.019  0.1275 -0.2529  0.4848
  928MOL0     C25152  10.207   4.879   1.980  0.3227  0.3214  0.9348
  928MOL0     O25153  10.329   4.869   1.913  0.5959 -0.3069  0.7713
  928MOL0     C25154  10.402   4.991   1.866 -0.0515  0.7738  0.6801
  928MOL0     C25155  10.494   4.932   1.764 -0.2935 -0.4505  0.0305
  928MOL0     C25156  10.433   4.891   1.628 -0.3292  1.0244  0.0940
  928MOL0     C25157  10.324   4.973   1.565  0.0839 -0.4432  0.9294
  928MOL0     C25158  10.197   4.908   1.518 -0.3517  0.4423  0.3760
  928MOL0     C25159  10.226   4.789   1.428 -0.1837  0.7056  0.1671
  928MOL0     C25160  10.302   4.843   1.297 -0.1963  0.0106 -0.0873
  928MOL0     C25161  10.218   4.942   1.219  0.7662 -0.0255  0.2818
  928MOL0     N25162  10.073   4.900   1.202  0.8843 -0.5749  0.4384
  928MOL0     C25163  10.021   4.795   1.134  0.2885  1.2119  0.1393
  928MOL0     C25164   9.887   4.791   1.153 -0.9771 -0.2643 -0.0910
  928MOL0     C25165   9.803   4.700   1.077 -0.8122 -0.1235  0.5974
  928MOL0     C25166   9.688   4.650   1.173 -0.6731  0.2356 -0.3297
  928MOL0     C25167   9.582   4.750   1.207  0.5330 -0.1797  1.1128
  928MOL0     C25168   9.513   4.821   1.084 -0.4023  0.5892 -0.6408
  928MOL0     O25169   9.478   4.723   0.985 -0.2233 -0.0749 -0.3152
  928MOL0     C25170   9.443   4.770   0.862  0.1768  0.0168 -0.0197
  928MOL0     C25171   9.393   4.897   0.837 -0.0862  0.2772  0.0599
  928MOL0     C25172   9.347   4.926   0.708  0.2523  0.6524  0.0536
  928MOL0     C25173   9.370   4.841   0.602  0.6486  0.0312  0.2344
  928MOL0     C25174   9.332   4.876   0.465 -0.0329 -0.1518 -0.1294
  928MOL0     O25175   9.402   4.820   0.366 -0.3286 -0.2945  0.5864
  928MOL0     C25176   9.371   4.855   0.233 -0.4043  0.0033 -0.4004
  928MOL0     C25177   9.435   4.773   0.131 -0.3495  0.0304 -0.6667
  928MOL0     C25178   9.416   4.782  -0.005 -0.3195 -1.2035  0.4874
  928MOL0     C25179   9.334   4.881  -0.049 -0.4085 -0.0558  0.7784
  928MOL0     O25180   9.334   4.893  -0.187  0.3206  0.0317 -0.0613
  928MOL0     C25181   9.209   4.888  -0.256 -0.1465 -0.5008  0.1089
  928MOL0     C25182   9.235   4.964  -0.380  0.6360  0.1257 -0.3219
  928MOL0     C25183   9.239   5.117  -0.380  0.8127 -0.1730  0.5937
  928MOL0     C25184   9.251   5.179  -0.533 -0.8093 -0.3377 -0.3308
  928MOL0     C25185   9.314   5.318  -0.534 -0.5566  0.9144  0.7560
  928MOL0     C25186   9.424   5.340  -0.642 -0.2671 -0.6228 -0.5909
  928MOL0     C25187   9.510   5.467  -0.620  0.1777 -0.1711  0.2153
  928MOL0     C25188   9.585   5.519  -0.748  0.1389  1.2052 -1.3984
  928MOL0    Cl25189   9.483   5.590  -0.877 -0.2070 -0.1458 -0.1164
  928MOL0     C25190   9.269   4.974   0.037  1.1390 -0.3608  0.7908
  928MOL0     C25191   9.289   4.962   0.174 -0.1268 -1.0575 -1.0329
  928MOL0     O25192   9.236   4.948   0.456  0.2966  0.5077  0.7481
  928MOL0     C25193   9.442   4.720   0.622  0.2851  0.0533 -0.4956
  928MOL0     C25194   9.478   4.686   0.752  0.5164 -0.1351  0.3556
  928MOL0     N25195   9.858   4.898   1.237 -0.4800 -0.4146  1.1369
  928MOL0     N25196   9.970   4.961   1.267 -0.4700  0.9520 -0.2411
  928MOL0     C25197  10.147   5.001   2.025 -1.1149 -0.9291  0.6764
  928MOL0     C25198  10.041   5.006   2.110  0.3383  0.1339  0.5541
  928MOL0     C25199   9.612   4.886   2.208  0.1257 -0.1420  0.2701
  928MOL0     C25200   9.613   4.839   2.341 -0.5159  0.2238  0.6976
  928MOL0     C25201   9.500   4.790   2.408 -0.3577  0.3005  0.3254
  928MOL0     C25202   9.382   4.783   2.340  1.0839 -0.1153  0.2909
  928MOL0     O25203   9.261   4.749   2.405 -0.3660 -0.1122 -0.5683
  928MOL0     C25204   9.273   4.654   2.510 -0.0099 -0.5669  0.2549
  928MOL0     C25205   9.147   4.575   2.512  0.2978  0.4349 -0.1788
  928MOL0     C25206   9.026   4.666   2.527  0.6528  0.4980  0.1478
  928MOL0     C25207   8.889   4.586   2.539 -0.1885  0.3789 -0.6687
  928MOL0     C25208   8.774   4.677   2.499 -0.0574  1.0797 -0.4039
  928MOL0     C25209   8.674   4.739   2.463  0.4184 -0.0857  0.0709
  928MOL0     C25210   9.371   4.843   2.220 -0.2876  0.4938 -0.0172
  928MOL0     C25211   9.484   4.889   2.148  0.0195  0.1251  0.2921
  928MOL0     C25212   9.448   4.963   2.020  1.1373 -0.2983  0.0790
  928MOL0     H25213   9.989   4.671   2.124 -0.4099  0.4630 -0.7438
  928MOL0     H25214  10.168   4.677   1.954 -1.7367  0.7553 -1.6621
  928MOL0     H25215  10.333   5.061   1.818  0.0158 -0.2870 -1.0405
  928MOL0     H25216  10.455   5.039   1.949  2.2035 -1.2071  0.4906
  928MOL0     H25217  10.558   4.856   1.810  1.0585  0.9272  0.5142
  928MOL0     H25218  10.567   5.008   1.735  0.1487 -1.0132 -0.3596
  928MOL0     H25219  10.404   4.787   1.647  2.1100  0.4753  1.1548
  928MOL0     H25220  10.511   4.888   1.551 -2.5121 -1.4414 -2.2782
  928MOL0     H25221  10.281   5.042   1.639  0.7835 -0.5806  1.4759
  928MOL0     H25222  10.357   5.036   1.483  0.8606 -1.0142  0.7993
  928MOL0     H25223  10.140   4.876   1.606 -1.8916  4.6122  1.1155
  928MOL0     H25224  10.136   4.983   1.467  0.0671  0.7284  0.2940
  928MOL0     H25225  10.281   4.710   1.479 -1.8875 -1.1064 -0.6857
  928MOL0     H25226  10.136   4.739   1.392  0.7115 -2.5375  2.0940
  928MOL0     H25227  10.335   4.767   1.225  1.8045  2.3234 -1.8031
  928MOL0     H25228  10.400   4.884   1.324 -0.1422 -0.2071  0.0482
  928MOL0     H25229  10.218   5.047   1.250  0.6222  1.5305 -4.1970
  928MOL0     H25230  10.256   4.949   1.116 -2.6377  2.6028 -0.9896
  928MOL0     H25231  10.070   4.718   1.074 -1.0278 -0.5621  1.2226
  928MOL0     H25232   9.754   4.757   0.997  0.7856 -0.3587 -0.6079
  928MOL0     H25233   9.863   4.618   1.039 -0.0968  0.7540 -0.2358
  928MOL0     H25234   9.639   4.564   1.126  2.1158  0.0346 -3.1771
  928MOL0     H25235   9.743   4.624   1.264  0.3395 -1.7213 -1.4187
  928MOL0     H25236   9.622   4.817   1.283  2.3990 -1.5520  1.4199
  928MOL0     H25237   9.498   4.700   1.256 -3.9601  1.2473 -4.1404
  928MOL0     H25238   9.566   4.905   1.038  0.7769 -0.9970 -2.3328
  928MOL0     H25239   9.421   4.851   1.134 -1.9337 -2.0715 -1.6642
  928MOL0     H25240   9.401   4.971   0.915 -2.1425 -1.7447  2.3653
  928MOL0     H25241   9.296   5.021   0.697 -0.9797 -0.3518 -5.5908
  928MOL0     H25242   9.491   4.685   0.160 -1.5477 -0.4616  0.2747
  928MOL0     H25243   9.457   4.706  -0.071  0.6276 -0.6628  0.4446
  928MOL0     H25244   9.192   4.783  -0.283  2.2278 -0.1398 -3.2921
  928MOL0     H25245   9.126   4.930  -0.197  1.4440  3.4830 -0.1658
  928MOL0     H25246   9.325   4.920  -0.423 -0.1623  0.5613 -2.6040
  928MOL0     H25247   9.154   4.934  -0.448  0.6419 -1.0014  0.1351
  928MOL0     H25248   9.142   5.152  -0.343 -1.1754 -1.3455 -2.9471
  928MOL0     H25249   9.326   5.145  -0.320  0.9419 -2.1640  1.4061
  928MOL0     H25250   9.160   5.177  -0.594 -0.2223 -0.2892 -1.2387
  928MOL0     H25251   9.317   5.115  -0.593  0.3086 -0.2471  0.7586
  928MOL0     H25252   9.374   5.325  -0.443 -0.2596 -2.7625  1.0026
  928MOL0     H25253   9.243   5.401  -0.530 -0.7512  0.6995  2.4277
  928MOL0     H25254   9.493   5.255  -0.652 -0.7963 -1.4629  2.1650
  928MOL0     H25255   9.369   5.354  -0.735 -0.4479 -0.9468 -0.5337
  928MOL0     H25256   9.583   5.443  -0.542 -0.6116  0.9759  1.3481
  928MOL0     H25257   9.443   5.542  -0.577  1.6615  1.7395 -0.6711
  928MOL0     H25258   9.660   5.596  -0.726  0.7974  0.4184 -0.8296
  928MOL0     H25259   9.655   5.441  -0.778  1.8202  0.8054  2.8278
  928MOL0     H25260   9.222   5.056  -0.015  0.2524 -1.8382 -0.8762
  928MOL0     H25261   9.235   5.036   0.232  0.1277 -0.9877 -0.8850
  928MOL0     H25262   9.474   4.659   0.539  0.8308  0.6649 -0.7495
  928MOL0     H25263   9.535   4.598   0.779  0.8168 -0.1241 -0.2235
  928MOL0     H25264  10.201   5.094   2.008  2.3233 -2.9806 -0.8216
  928MOL0     H25265  10.018   5.102   2.155  0.7571  1.1451 -1.2754
  928MOL0     H25266   9.709   4.825   2.389 -0.2643  1.8476  0.7307
  928MOL0     H25267   9.507   4.756   2.511 -0.0676 -1.3125 -0.2043
  928MOL0     H25268   9.295   4.716   2.598 -0.5109  0.3585 -0.2583
  928MOL0     H25269   9.360   4.596   2.476 -0.6019  0.9735 -4.7349
  928MOL0     H25270   9.143   4.501   2.593 -1.4548 -0.7901 -1.2948
  928MOL0     H25271   9.144   4.522   2.416 -0.1512 -0.2410  0.2025
  928MOL0     H25272   9.005   4.739   2.448 -4.6413  2.4743  2.8829
  928MOL0     H25273   9.034   4.708   2.627  1.6681 -1.4930  0.9673
  928MOL0     H25274   8.896   4.500   2.471  0.1103  1.2135 -1.7247
  928MOL0     H25275   8.873   4.540   2.637 -1.1395  0.3423 -0.8267
  928MOL0     H25276   8.590   4.794   2.427  1.5313  1.3744 -0.4011
  928MOL0     H25277   9.272   4.844   2.175 -0.0707 -2.1915 -0.7333
  928MOL0     H25278   9.362   4.920   1.968  0.7146 -1.7695  1.8954
  928MOL0     H25279   9.414   5.062   2.052 -0.9061 -1.6908  2.6234
  928MOL0     H25280   9.530   4.976   1.949  0.8898  1.7981  0.1184
  929MOL0     O25281   6.204   3.312   0.432  0.4628 -0.1779 -0.0096
  929MOL0     C25282   6.142   3.206   0.462 -0.1284 -0.5628  0.2620
  929MOL0     O25283   6.090   3.121   0.374  0.0036  0.5053  0.2474
  929MOL0     C25284   6.073   3.171   0.247 -0.5107  0.1840 -0.3360
  929MOL0     C25285   6.182   3.171   0.155 -0.0243 -0.2113 -0.4371
  929MOL0     C25286   6.168   3.228   0.030  0.3966  0.1634 -0.3338
  929MOL0     C25287   6.043   3.262  -0.016 -0.3815  0.0569 -0.0645
  929MOL0     O25288   6.040   3.298  -0.150  0.2810  0.0648  0.0726
  929MOL0     C25289   5.912   3.289  -0.216 -0.2551 -0.8954 -0.7073
  929MOL0     C25290   5.926   3.309  -0.368  0.0056  0.0008  0.0183
  929MOL0     C25291   5.966   3.454  -0.418 -0.5617 -0.6146 -0.4726
  929MOL0     C25292   5.886   3.562  -0.344  0.0609  0.4955 -0.1384
  929MOL0     C25293   5.923   3.700  -0.405 -0.4833  0.1868 -0.5968
  929MOL0     C25294   5.841   3.745  -0.523  0.4488  0.6119  0.2838
  929MOL0     C25295   5.916   3.845  -0.607  0.6514  0.1909 -0.4531
  929MOL0     C25296   5.830   3.956  -0.672  0.0981  0.0378 -0.5940
  929MOL0     N25297   5.904   4.028  -0.772 -0.1659  0.1997 -0.4630
  929MOL0     C25298   5.973   3.968  -0.877  1.1189  0.3258  0.2899
  929MOL0     C25299   6.013   4.068  -0.953  0.4509  0.7719 -0.1021
  929MOL0     C25300   6.075   4.052  -1.088 -0.3649 -0.8217  0.1041
  929MOL0     C25301   5.974   4.067  -1.205 -0.5460  0.0960  0.1804
  929MOL0     C25302   5.934   4.206  -1.237 -0.2314 -0.7054 -0.1783
  929MOL0     C25303   6.039   4.282  -1.318  0.5204  0.6173 -0.0796
  929MOL0     O25304   5.993   4.418  -1.354 -0.1540  0.5315  0.4930
  929MOL0     C25305   6.051   4.477  -1.468  0.1862  0.5036 -1.5754
  929MOL0     C25306   5.974   4.583  -1.529 -0.0944  0.2939  0.5452
  929MOL0     C25307   6.008   4.641  -1.651 -0.0078 -0.2025 -0.4033
  929MOL0     C25308   6.139   4.606  -1.705 -1.2026 -1.0692  0.8987
  929MOL0     C25309   6.200   4.667  -1.823  0.5064 -0.1036  1.1381
  929MOL0     O25310   6.165   4.797  -1.848 -0.5596 -0.0389 -0.5362
  929MOL0     C25311   6.222   4.841  -1.966  0.7930  0.5454  0.4213
  929MOL0     C25312   6.353   4.887  -1.972  0.0669 -0.5580  0.5263
  929MOL0     C25313   6.412   4.946  -2.094 -0.0147  0.7681 -0.4503
  929MOL0     C25314   6.330   4.986  -2.192  0.2276 -0.8865 -0.5383
  929MOL0     O25315   6.369   5.059  -2.301 -0.2362  0.2777  0.3147
  929MOL0     C25316   6.434   5.188  -2.270 -0.1923  0.3041  0.4501
  929MOL0     C25317   6.357   5.308  -2.314  0.4066 -0.6770  0.4698
  929MOL0     C25318   6.426   5.438  -2.309  0.2943  0.0246 -0.0746
  929MOL0     C25319   6.411   5.501  -2.171 -0.3854 -0.2766  0.1154
  929MOL0     C25320   6.514   5.618  -2.150  0.0200 -0.0475 -0.1399
  929MOL0     C25321   6.483   5.704  -2.025  0.5501 -0.6409  0.4240
  929MOL0     C25322   6.511   5.632  -1.888  0.7293  0.9796 -0.0528
  929MOL0     C25323   6.505   5.725  -1.768 -0.0084 -0.3417  0.2468
  929MOL0    Cl25324   6.562   5.652  -1.617 -0.0627 -0.1147  0.0821
  929MOL0     C25325   6.197   4.935  -2.194  0.4582  0.3398  0.4616
  929MOL0     C25326   6.147   4.854  -2.087 -0.4010 -0.3769 -0.1048
  929MOL0     O25327   6.273   4.596  -1.895  0.1278 -0.4062  0.2821
  929MOL0     C25328   6.219   4.507  -1.643  0.5174  0.4680 -0.9311
  929MOL0     C25329   6.164   4.435  -1.528  0.1649  0.0117  0.0280
  929MOL0     N25330   5.972   4.193  -0.901 -0.7605  0.5088 -1.2309
  929MOL0     N25331   5.907   4.158  -0.789 -0.5004  0.1133  0.9203
  929MOL0     C25332   5.934   3.256   0.070  0.0556 -0.4265 -1.1766
  929MOL0     C25333   5.945   3.211   0.206  0.0382  0.1447 -0.0636
  929MOL0     C25334   6.119   3.154   0.600 -0.7793 -0.6341 -0.2584
  929MOL0     C25335   6.104   3.015   0.618 -0.5217 -1.0133 -0.5209
  929MOL0     C25336   6.080   2.971   0.751 -0.0577  0.3552 -0.0993
  929MOL0     C25337   6.047   3.056   0.860 -0.1863 -0.1040  1.2344
  929MOL0     O25338   6.001   3.003   0.979  0.6586  0.1259  0.0197
  929MOL0     C25339   6.100   2.940   1.054  0.2332 -0.4608  0.1108
  929MOL0     C25340   6.048   2.907   1.192 -0.0462  0.2465  0.4177
  929MOL0     C25341   6.021   2.752   1.224 -0.3213  0.5231  0.5594
  929MOL0     C25342   5.992   2.744   1.378 -0.8602  0.0605  0.6116
  929MOL0     C25343   5.946   2.606   1.413 -0.3687  0.8744  0.4237
  929MOL0     C25344   5.906   2.492   1.431  0.5308  0.1343 -0.5584
  929MOL0     C25345   6.062   3.192   0.833 -0.7072 -0.0043  0.5936
  929MOL0     C25346   6.090   3.249   0.706 -0.4509  0.4610 -0.9598
  929MOL0     C25347   6.090   3.399   0.686  0.3524 -0.4362 -1.2386
  929MOL0     H25348   6.270   3.118   0.187  0.3510  0.0179 -1.0741
  929MOL0     H25349   6.254   3.234  -0.037  0.8029  2.3254  0.3301
  929MOL0     H25350   5.864   3.194  -0.190  0.4528 -0.6311  1.8457
  929MOL0     H25351   5.846   3.368  -0.180 -2.2624 -0.1591 -5.2817
  929MOL0     H25352   5.838   3.270  -0.418 -0.3819 -0.4054  0.9807
  929MOL0     H25353   6.016   3.247  -0.383 -1.3638 -1.5589 -2.3427
  929MOL0     H25354   5.951   3.459  -0.526 -0.5306  1.5878 -0.4276
  929MOL0     H25355   6.074   3.466  -0.403 -0.9302  1.4062  0.8916
  929MOL0     H25356   5.779   3.539  -0.351  0.6736 -2.2982 -3.6755
  929MOL0     H25357   5.918   3.563  -0.240 -1.5594  0.1876  0.3795
  929MOL0     H25358   5.917   3.770  -0.322 -1.6551 -1.6037  0.9230
  929MOL0     H25359   6.025   3.701  -0.443 -0.3657 -0.7149 -0.3455
  929MOL0     H25360   5.797   3.671  -0.590 -2.2849  3.4688 -1.3385
  929MOL0     H25361   5.751   3.791  -0.480 -0.3013 -0.0914 -0.4872
  929MOL0     H25362   5.959   3.785  -0.687 -0.8947 -0.2253 -1.0105
  929MOL0     H25363   5.995   3.895  -0.550 -0.1390  0.5046  0.3982
  929MOL0     H25364   5.748   3.908  -0.727 -1.8533  2.7018 -0.2638
  929MOL0     H25365   5.796   4.022  -0.591 -1.7225 -0.7570 -0.6457
  929MOL0     H25366   5.982   3.862  -0.895  0.5346  0.2517  0.3927
  929MOL0     H25367   6.147   4.134  -1.094  0.4063 -1.5541 -0.8584
  929MOL0     H25368   6.143   3.967  -1.094  2.9365  1.7313 -2.2483
  929MOL0     H25369   6.021   4.017  -1.290 -2.1279 -0.5975 -0.3304
  929MOL0     H25370   5.888   4.006  -1.176 -1.1073  0.3177 -0.9876
  929MOL0     H25371   5.919   4.256  -1.140 -1.4556  0.0018 -0.7049
  929MOL0     H25372   5.836   4.207  -1.285 -0.0561  0.8795 -0.5654
  929MOL0     H25373   6.057   4.228  -1.412 -1.8497  2.1689 -1.5214
  929MOL0     H25374   6.136   4.278  -1.268  0.5854 -3.3815 -0.1280
  929MOL0     H25375   5.880   4.601  -1.478 -0.4251 -0.2835  0.1596
  929MOL0     H25376   5.934   4.698  -1.706  0.5017 -1.7572 -2.8751
  929MOL0     H25377   6.411   4.871  -1.882 -0.5260 -4.2911  0.4003
  929MOL0     H25378   6.514   4.982  -2.094 -1.4153  5.7520 -3.8254
  929MOL0     H25379   6.471   5.191  -2.167  2.9538 -1.5328 -0.4876
  929MOL0     H25380   6.519   5.179  -2.339 -2.3461 -0.8285 -2.1934
  929MOL0     H25381   6.321   5.287  -2.415  2.3593 -2.4211  0.0801
  929MOL0     H25382   6.268   5.314  -2.250  0.3145  0.7714  0.2377
  929MOL0     H25383   6.533   5.429  -2.332  0.6385  0.8247  1.0786
  929MOL0     H25384   6.392   5.519  -2.373  3.1025  3.5784  2.4932
  929MOL0     H25385   6.442   5.429  -2.094 -0.8348 -0.0955  0.4654
  929MOL0     H25386   6.316   5.548  -2.143 -0.9319  0.0194 -2.0435
  929MOL0     H25387   6.518   5.685  -2.236 -0.5560  1.0631  0.6771
  929MOL0     H25388   6.618   5.584  -2.141  0.2201  1.0557  2.9301
  929MOL0     H25389   6.542   5.796  -2.026 -3.6043  2.2627  0.1531
  929MOL0     H25390   6.381   5.741  -2.032  1.0007  0.4761 -0.8303
  929MOL0     H25391   6.608   5.582  -1.894 -0.6503 -1.9507  0.1950
  929MOL0     H25392   6.433   5.559  -1.866 -0.6192  1.5275 -2.6160
  929MOL0     H25393   6.564   5.815  -1.791 -1.4074  0.9009  1.3164
  929MOL0     H25394   6.400   5.750  -1.752 -0.4339 -2.6824  1.5232
  929MOL0     H25395   6.133   4.964  -2.276  1.3063  0.6169 -0.1180
  929MOL0     H25396   6.039   4.837  -2.087 -0.6201  0.0235 -4.1777
  929MOL0     H25397   6.323   4.488  -1.666  1.0120  2.5668 -0.6754
  929MOL0     H25398   6.241   4.372  -1.484 -0.3588 -2.9053 -2.8561
  929MOL0     H25399   5.836   3.287   0.035  0.0986 -0.4492 -1.3185
  929MOL0     H25400   5.863   3.213   0.277  0.4719 -3.1469  0.6742
  929MOL0     H25401   6.129   2.940   0.544  1.8087  0.3675 -1.2474
  929MOL0     H25402   6.062   2.865   0.767  0.1856  0.2792 -0.3229
  929MOL0     H25403   6.181   3.014   1.055 -0.2186  0.0775 -1.0772
  929MOL0     H25404   6.126   2.850   0.998 -1.0011  0.5339 -2.2059
  929MOL0     H25405   5.961   2.971   1.212 -1.9583 -1.7032 -1.1733
  929MOL0     H25406   6.131   2.923   1.261 -0.5949 -1.2485  1.4653
  929MOL0     H25407   6.119   2.713   1.196 -0.8187 -1.9465  1.9800
  929MOL0     H25408   5.945   2.700   1.164  0.4060  0.3899 -0.2651
  929MOL0     H25409   6.081   2.764   1.438 -0.8871  0.0679  0.6488
  929MOL0     H25410   5.920   2.823   1.398 -0.7832  0.6159 -1.1110
  929MOL0     H25411   5.882   2.390   1.454  0.4019  0.8426  3.1605
  929MOL0     H25412   6.027   3.250   0.918 -1.1537 -2.8991  2.5207
  929MOL0     H25413   6.036   3.443   0.771  2.2424 -1.1114  0.3823
  929MOL0     H25414   6.185   3.452   0.678 -0.4942  0.8244 -4.3327
  929MOL0     H25415   6.030   3.422   0.597 -1.7341 -0.6244  0.0364
  930MOL0     O25416  10.610   6.562  11.317  0.0254 -0.8198 -0.0905
  930MOL0     C25417  10.515   6.625  11.370 -0.3799  0.7921  0.6685
  930MOL0     O25418  10.447   6.593  11.485 -0.1984  0.0594 -0.3187
  930MOL0     C25419  10.517   6.496  11.561  0.2115 -0.6918  0.9723
  930MOL0     C25420  10.472   6.363  11.573 -0.8262  0.2601  0.9166
  930MOL0     C25421  10.547   6.267  11.646  0.2633 -0.0940 -0.0427
  930MOL0     C25422  10.667   6.303  11.709 -0.5057 -0.4763  0.0609
  930MOL0     O25423  10.738   6.214  11.777 -0.0664  0.7737 -0.5383
  930MOL0     C25424  10.819   6.124  11.703  0.0190  0.6513 -0.0110
  930MOL0     C25425  10.868   6.009  11.797  0.1401  0.3003 -0.7968
  930MOL0     C25426  10.937   6.053  11.925 -0.6321 -0.6049  0.1256
  930MOL0     C25427  10.967   5.932  12.013  0.7297 -0.2596  0.0303
  930MOL0     C25428  11.070   5.970  12.109  0.4104  0.3494 -0.3445
  930MOL0     C25429  11.032   6.069  12.215  0.8159  0.1830 -0.6557
  930MOL0     C25430  11.140   6.100  12.324  0.2575  0.0536 -0.7118
  930MOL0     C25431  11.280   6.109  12.266 -0.0716  0.0741 -0.5522
  930MOL0     N25432  11.295   6.194  12.144 -0.3841  0.5999 -0.0773
  930MOL0     C25433  11.238   6.308  12.117  0.2160 -0.0121 -0.3139
  930MOL0     C25434  11.305   6.371  12.019  0.0152  1.4200  0.9441
  930MOL0     C25435  11.296   6.509  11.982  0.9122  0.3680  0.3155
  930MOL0     C25436  11.430   6.576  11.954 -0.6297 -0.0633  0.7253
  930MOL0     C25437  11.400   6.715  11.896 -0.0802  0.0107 -0.5226
  930MOL0     C25438  11.521   6.788  11.863  0.1564  0.0781 -0.6250
  930MOL0     O25439  11.607   6.783  11.986  1.1964 -0.7666  1.3627
  930MOL0     C25440  11.743   6.825  11.968  0.0045  0.7334  0.0550
  930MOL0     C25441  11.805   6.824  11.838  0.0885 -0.6835  0.0216
  930MOL0     C25442  11.939   6.858  11.822 -0.4380  0.2460 -0.1882
  930MOL0     C25443  12.016   6.903  11.931 -0.5655  0.7758 -0.0326
  930MOL0     C25444  12.154   6.944  11.914 -0.6618  0.3057  0.3076
  930MOL0     O25445  12.227   6.929  12.018 -0.2425  0.5245  0.4873
  930MOL0     C25446  12.362   6.925  12.021 -0.3932  0.1088 -1.0456
  930MOL0     C25447  12.410   6.897  12.155 -0.1487 -0.8256  0.3229
  930MOL0     C25448  12.544   6.879  12.191  0.7740  1.0913 -1.1344
  930MOL0     C25449  12.640   6.900  12.083  0.7739  0.6968 -0.7885
  930MOL0     O25450  12.774   6.891  12.119  0.8052  0.0208 -0.6230
  930MOL0     C25451  12.843   6.808  12.028  0.0560 -0.3836 -1.0608
  930MOL0     C25452  12.936   6.719  12.102 -0.1319  0.0919 -0.9670
  930MOL0     C25453  13.069   6.787  12.127  0.3994 -0.7623  0.6906
  930MOL0     C25454  13.157   6.790  12.251 -1.0061  0.0331 -0.7336
  930MOL0     C25455  13.177   6.654  12.295 -0.2881  0.1950  0.6355
  930MOL0     C25456  13.308   6.637  12.373 -0.5164  0.1934 -0.9958
  930MOL0     C25457  13.338   6.489  12.412  0.4756  0.0318  0.0964
  930MOL0     C25458  13.453   6.482  12.520  0.1458  0.4352 -1.0180
  930MOL0    Cl25459  13.605   6.528  12.424 -0.0147  0.2080  0.1656
  930MOL0     C25460  12.591   6.920  11.949  0.0622 -0.4656  0.1625
  930MOL0     C25461  12.456   6.938  11.921  0.6789  0.5004 -0.0323
  930MOL0     O25462  12.181   6.988  11.798 -0.6540 -0.3323  1.1919
  930MOL0     C25463  11.944   6.907  12.053  0.3499 -0.1486 -0.0069
  930MOL0     C25464  11.820   6.868  12.073  1.6163  0.8960  0.0207
  930MOL0     N25465  11.390   6.271  11.968 -0.8042 -0.6176 -0.3843
  930MOL0     N25466  11.375   6.161  12.040 -0.1198 -0.0093 -0.3039
  930MOL0     C25467  10.709   6.441  11.702  0.4845  0.2518 -0.0608
  930MOL0     C25468  10.624   6.530  11.632  0.2273  0.5175 -0.3744
  930MOL0     C25469  10.461   6.736  11.290  0.3257 -0.4078 -0.0144
  930MOL0     C25470  10.321   6.739  11.287 -0.4125  0.0456 -0.1424
  930MOL0     C25471  10.259   6.844  11.210 -0.4968  0.2002 -0.6707
  930MOL0     C25472  10.333   6.944  11.157  0.6711  0.4558 -0.1026
  930MOL0     O25473  10.280   7.054  11.091 -0.7510  0.0905  0.1517
  930MOL0     C25474  10.167   7.027  11.013 -0.6385 -0.8691 -0.4000
  930MOL0     C25475  10.171   7.106  10.881 -0.7813  0.2454 -0.1065
  930MOL0     C25476  10.272   7.086  10.778  0.3042  0.4886  0.0832
  930MOL0     C25477  10.421   7.119  10.822 -0.5013  1.0921 -0.1183
  930MOL0     C25478  10.526   7.091  10.717 -0.4158  0.3272  0.4415
  930MOL0     C25479  10.620   7.065  10.643 -0.2098 -0.5065 -0.8061
  930MOL0     C25480  10.475   6.940  11.165 -0.5120  0.2906 -0.3094
  930MOL0     C25481  10.542   6.837  11.243 -1.3724 -1.4092 -0.2475
  930MOL0     C25482  10.692   6.860  11.261  0.4022 -0.1350  0.3201
  930MOL0     H25483  10.376   6.340  11.527 -0.8013 -0.2283  1.1027
  930MOL0     H25484  10.497   6.171  11.656 -2.8915  1.0100 -3.2566
  930MOL0     H25485  10.770   6.077  11.618  2.9900 -0.9476 -0.9659
  930MOL0     H25486  10.905   6.174  11.657 -0.9176  0.4142 -2.1390
  930MOL0     H25487  10.931   5.938  11.742  0.9601  0.8558 -0.5887
  930MOL0     H25488  10.778   5.950  11.818 -1.3068  3.4614  3.0358
  930MOL0     H25489  10.881   6.128  11.983 -1.1916 -1.2699  0.4549
  930MOL0     H25490  11.033   6.101  11.906  1.0110 -2.7187  2.3808
  930MOL0     H25491  10.875   5.910  12.068  0.5245 -0.3995 -0.3671
  930MOL0     H25492  10.990   5.844  11.952 -4.3929 -0.2731 -2.4215
  930MOL0     H25493  11.098   5.886  12.174  1.0202  1.5539  1.0000
  930MOL0     H25494  11.161   5.995  12.054  0.7190  0.4685  0.2054
  930MOL0     H25495  11.008   6.164  12.167  2.7821  2.5754  2.6588
  930MOL0     H25496  10.945   6.042  12.276  1.8362 -1.8155 -0.0076
  930MOL0     H25497  11.143   6.016  12.395  0.4182 -0.3831 -1.2241
  930MOL0     H25498  11.111   6.195  12.368 -1.4229 -0.6768 -0.1750
  930MOL0     H25499  11.347   6.156  12.338  0.3835  1.4913 -1.8281
  930MOL0     H25500  11.317   6.008  12.251  0.7301  0.5126 -1.6296
  930MOL0     H25501  11.164   6.361  12.176  0.4853  1.0514 -0.9155
  930MOL0     H25502  11.229   6.523  11.897  1.3370  2.1930  0.2179
  930MOL0     H25503  11.248   6.558  12.067 -2.1061 -0.1077 -0.9664
  930MOL0     H25504  11.479   6.563  12.051 -1.4815 -2.9172  0.8583
  930MOL0     H25505  11.480   6.512  11.880 -0.1242  3.4278 -2.2530
  930MOL0     H25506  11.327   6.777  11.948 -0.4127  0.7031 -1.7711
  930MOL0     H25507  11.358   6.690  11.798 -0.2906  2.9120 -1.2573
  930MOL0     H25508  11.514   6.890  11.826  0.7601 -0.1678 -1.4648
  930MOL0     H25509  11.562   6.735  11.776 -2.4535 -1.6845 -0.8895
  930MOL0     H25510  11.761   6.770  11.755 -1.8682 -0.8533  1.1196
  930MOL0     H25511  11.995   6.854  11.729 -0.7450 -2.9596 -0.3391
  930MOL0     H25512  12.344   6.903  12.242 -0.8714 -1.3452 -0.1725
  930MOL0     H25513  12.578   6.878  12.294 -0.4017  3.8770 -0.6240
  930MOL0     H25514  12.772   6.738  11.983 -1.0510  0.1174 -0.1367
  930MOL0     H25515  12.903   6.868  11.959 -1.1116  1.8778 -0.2280
  930MOL0     H25516  12.895   6.688  12.199  1.4635  0.1809 -0.2362
  930MOL0     H25517  12.946   6.625  12.046 -3.0446  1.2134 -3.6970
  930MOL0     H25518  13.131   6.751  12.045 -1.8198 -2.1065 -0.5073
  930MOL0     H25519  13.056   6.892  12.101 -1.4074 -1.2679 -0.6395
  930MOL0     H25520  13.116   6.850  12.333  5.1039  2.5334  1.0968
  930MOL0     H25521  13.257   6.831  12.235 -0.6445 -0.5390  0.0260
  930MOL0     H25522  13.186   6.588  12.209 -1.4333 -0.2150  0.8044
  930MOL0     H25523  13.097   6.618  12.360  1.0079 -1.6083  1.3105
  930MOL0     H25524  13.399   6.692  12.345 -0.3152  1.5768  1.9664
  930MOL0     H25525  13.299   6.679  12.473  1.0209 -3.8963  1.0899
  930MOL0     H25526  13.354   6.433  12.319 -1.3519  1.3667 -1.1038
  930MOL0     H25527  13.250   6.443  12.459  0.5945  1.5692  1.9066
  930MOL0     H25528  13.432   6.545  12.607  1.9079 -1.9587  1.2907
  930MOL0     H25529  13.461   6.381  12.560 -0.0357  1.2206  1.1540
  930MOL0     H25530  12.659   6.925  11.865 -1.1433 -0.1670 -0.8365
  930MOL0     H25531  12.429   6.955  11.818 -0.3365  0.9159  0.2970
  930MOL0     H25532  11.994   6.935  12.146 -1.7315  1.6113  0.6552
  930MOL0     H25533  11.787   6.874  12.176 -1.8272  0.1732 -0.9137
  930MOL0     H25534  10.798   6.481  11.750  1.0400  3.0206 -3.0365
  930MOL0     H25535  10.642   6.635  11.615 -0.2140  0.7474  0.5168
  930MOL0     H25536  10.256   6.668  11.337 -0.6945  0.5020  0.1526
  930MOL0     H25537  10.150   6.851  11.205 -0.6673  0.4416  1.8641
  930MOL0     H25538  10.081   7.078  11.058  0.1380  1.1922 -1.1804
  930MOL0     H25539  10.150   6.921  10.990  1.2550 -1.1151 -0.8337
  930MOL0     H25540  10.168   7.214  10.903 -1.1882 -0.1525  1.9756
  930MOL0     H25541  10.073   7.082  10.839 -1.4347  1.3559  0.7105
  930MOL0     H25542  10.252   7.154  10.696 -1.7110 -0.4713 -0.2653
  930MOL0     H25543  10.264   6.987  10.732 -1.5930  1.2476 -1.2918
  930MOL0     H25544  10.432   7.224  10.852 -0.9239  1.1703 -0.2329
  930MOL0     H25545  10.452   7.040  10.891  2.0958  1.4919 -0.7180
  930MOL0     H25546  10.707   7.047  10.584 -0.3940 -3.7109 -0.3183
  930MOL0     H25547  10.529   7.025  11.124 -1.1352  0.9193  0.1659
  930MOL0     H25548  10.731   6.854  11.159 -0.7415  1.4160 -0.2507
  930MOL0     H25549  10.719   6.955  11.308  0.0206  0.2470 -0.2139
  930MOL0     H25550  10.720   6.772  11.319 -0.0914  0.1991  1.0760
  931MOL0     O25551  10.037   5.326   2.706  0.0979  1.1791  0.1032
  931MOL0     C25552   9.997   5.424   2.652 -0.1219 -0.1700 -0.1950
  931MOL0     O25553  10.002   5.547   2.699 -0.1784 -0.4015 -0.2930
  931MOL0     C25554  10.023   5.567   2.837  0.8746 -0.3588 -0.1849
  931MOL0     C25555  10.009   5.485   2.943 -0.0603  0.9780  0.8494
  931MOL0     C25556  10.014   5.531   3.073  0.3141 -0.5359 -0.7448
  931MOL0     C25557  10.064   5.661   3.101 -0.9756 -0.1474  0.6175
  931MOL0     O25558  10.096   5.679   3.233 -0.1789  0.0878 -0.4572
  931MOL0     C25559  10.163   5.799   3.262 -0.0836  0.3996  0.2050
  931MOL0     C25560  10.226   5.800   3.399  1.4066  0.2302  0.5867
  931MOL0     C25561  10.291   5.935   3.443  0.1295 -0.2789 -0.5251
  931MOL0     C25562  10.385   5.900   3.572 -0.3852  0.1035  0.1534
  931MOL0     C25563  10.292   5.921   3.692 -0.5003  0.0742 -0.2967
  931MOL0     C25564  10.366   5.928   3.825 -0.7795  0.5601  0.2297
  931MOL0     C25565  10.279   5.973   3.947  0.6984  0.6071 -0.0319
  931MOL0     C25566  10.166   5.875   3.985 -0.5554  0.3807 -0.2824
  931MOL0     N25567  10.044   5.891   3.904 -0.7226 -0.8326 -0.2408
  931MOL0     C25568   9.958   5.983   3.926 -0.1339 -0.0103  0.0950
  931MOL0     C25569   9.852   5.962   3.841  0.8302  0.7308  0.4198
  931MOL0     C25570   9.727   6.048   3.831 -0.0351  0.0905 -0.4219
  931MOL0     C25571   9.730   6.140   3.715 -0.0360 -0.4382  0.6400
  931MOL0     C25572   9.679   6.065   3.590 -0.4358  0.4229  0.5122
  931MOL0     C25573   9.532   6.012   3.602 -0.9952 -0.0085  0.6640
  931MOL0     O25574   9.477   5.968   3.471  0.5086 -0.6292 -0.0298
  931MOL0     C25575   9.433   6.058   3.383  0.6562 -0.0067  0.1360
  931MOL0     C25576   9.446   6.195   3.386 -0.9379 -0.3318  0.3613
  931MOL0     C25577   9.403   6.270   3.271 -0.9128 -1.3145  0.5321
  931MOL0     C25578   9.359   6.203   3.157  0.3470 -0.2244 -0.2878
  931MOL0     C25579   9.330   6.275   3.032 -0.6196 -0.3178 -0.6585
  931MOL0     O25580   9.244   6.224   2.948  0.2100  0.3333  0.4409
  931MOL0     C25581   9.225   6.301   2.836 -0.7135  0.1091  0.1026
  931MOL0     C25582   9.138   6.410   2.839  0.4197  0.6307  0.7574
  931MOL0     C25583   9.100   6.472   2.721 -0.0497 -0.2665  0.4358
  931MOL0     C25584   9.164   6.443   2.595  0.5881  0.4892 -1.2429
  931MOL0     O25585   9.110   6.501   2.487  0.4089  0.0322  1.1502
  931MOL0     C25586   9.167   6.448   2.364 -1.3046 -0.0337 -0.1332
  931MOL0     C25587   9.096   6.516   2.252  0.1466  0.1229  0.3808
  931MOL0     C25588   9.135   6.452   2.116  0.4986  0.6570  0.9186
  931MOL0     C25589   9.040   6.343   2.062  0.6338 -0.6424  0.8002
  931MOL0     C25590   9.084   6.293   1.921  0.4021 -0.0024 -0.0952
  931MOL0     C25591   9.038   6.150   1.881  0.3698  0.0064  0.1945
  931MOL0     C25592   8.887   6.131   1.894 -0.2794 -0.2008 -0.5482
  931MOL0     C25593   8.840   6.069   2.027  0.0657 -0.0853  1.0967
  931MOL0    Cl25594   8.665   6.068   2.039  0.0993 -0.3929  0.2026
  931MOL0     C25595   9.256   6.341   2.599 -0.1303 -1.1534  0.1460
  931MOL0     C25596   9.283   6.263   2.713 -0.4707  0.7866  0.7887
  931MOL0     O25597   9.385   6.382   3.025 -0.6555  0.3055  0.1622
  931MOL0     C25598   9.346   6.067   3.164  0.6822  0.0090  0.3942
  931MOL0     C25599   9.384   5.996   3.280  0.3497  0.6949  0.6790
  931MOL0     N25600   9.882   5.857   3.760 -0.0945  0.1697 -0.5836
  931MOL0     N25601   9.998   5.807   3.803  0.5667 -1.3795 -0.8856
  931MOL0     C25602  10.074   5.752   2.995  0.6382  0.6110  0.3356
  931MOL0     C25603  10.051   5.705   2.868 -0.3434  0.1136 -0.4446
  931MOL0     C25604   9.918   5.396   2.522  0.1559  0.0215  0.3100
  931MOL0     C25605   9.861   5.511   2.460  0.1605  0.3852 -0.1618
  931MOL0     C25606   9.797   5.514   2.342  0.3721  0.6230  0.2588
  931MOL0     C25607   9.796   5.393   2.270 -0.3868  0.0657 -0.0409
  931MOL0     O25608   9.736   5.397   2.147 -0.2045  0.3125  0.3903
  931MOL0     C25609   9.599   5.383   2.138  0.4198 -0.5998 -0.4313
  931MOL0     C25610   9.538   5.294   2.252  0.2821  0.3710 -0.3394
  931MOL0     C25611   9.384   5.283   2.257 -0.6164 -0.7593  0.7943
  931MOL0     C25612   9.304   5.416   2.275  0.0556 -0.2880  0.0158
  931MOL0     C25613   9.353   5.508   2.373 -0.2555  0.5935 -0.6711
  931MOL0     C25614   9.397   5.603   2.430  0.5366 -0.6409 -0.9358
  931MOL0     C25615   9.859   5.279   2.317 -0.2432 -0.5893 -0.4288
  931MOL0     C25616   9.909   5.274   2.453  0.5815 -0.0571 -0.5534
  931MOL0     C25617   9.961   5.141   2.498 -0.4305 -0.5711  0.0848
  931MOL0     H25618   9.986   5.380   2.934  2.6149  0.2595  1.3867
  931MOL0     H25619  10.014   5.466   3.159  2.1257  2.3150  1.6337
  931MOL0     H25620  10.245   5.795   3.190  0.1076 -0.3915  0.4584
  931MOL0     H25621  10.097   5.885   3.249 -0.6599 -0.2728 -1.6973
  931MOL0     H25622  10.299   5.719   3.409 -0.5196 -1.2960  4.4024
  931MOL0     H25623  10.150   5.776   3.473  0.1602 -1.1196 -1.0567
  931MOL0     H25624  10.228   6.019   3.472  4.0597  1.8399  3.0574
  931MOL0     H25625  10.361   5.969   3.366  1.2245 -0.2661  0.4490
  931MOL0     H25626  10.405   5.793   3.561  1.4801  0.2825  1.3869
  931MOL0     H25627  10.471   5.967   3.566 -0.4270  0.0300 -1.7867
  931MOL0     H25628  10.239   6.016   3.695  1.1487  1.0173  0.9054
  931MOL0     H25629  10.215   5.846   3.706 -2.2106  1.9438  0.7930
  931MOL0     H25630  10.421   5.838   3.855  0.2591  1.0322 -0.2293
  931MOL0     H25631  10.441   6.005   3.810 -0.1115 -0.1796 -0.3143
  931MOL0     H25632  10.233   6.069   3.922  1.8942  1.5655  1.3153
  931MOL0     H25633  10.349   5.978   4.030  3.0421  0.3949 -1.8825
  931MOL0     H25634  10.200   5.772   3.973 -0.6437  0.4638 -1.2611
  931MOL0     H25635  10.138   5.894   4.090 -0.6919 -1.6386  0.0810
  931MOL0     H25636   9.975   6.064   3.996 -1.6450 -0.3322  0.8882
  931MOL0     H25637   9.640   5.982   3.822 -0.8445  1.1117 -0.4034
  931MOL0     H25638   9.719   6.095   3.930 -2.0775 -2.1030  0.5658
  931MOL0     H25639   9.670   6.232   3.718  1.8253  0.8103  1.2722
  931MOL0     H25640   9.831   6.178   3.704 -0.1478 -0.3383 -0.1250
  931MOL0     H25641   9.743   5.980   3.567 -0.7773  0.1965  0.3895
  931MOL0     H25642   9.690   6.123   3.498  2.8381  0.9736  1.1459
  931MOL0     H25643   9.477   6.095   3.648  2.1773  0.9191  3.1180
  931MOL0     H25644   9.522   5.924   3.666  0.2663 -1.5244 -1.1288
  931MOL0     H25645   9.477   6.250   3.475  0.4026 -4.4007  2.7034
  931MOL0     H25646   9.401   6.378   3.264 -1.1748 -1.4122 -4.5586
  931MOL0     H25647   9.087   6.418   2.935 -0.4306 -0.1606  0.3828
  931MOL0     H25648   9.024   6.548   2.735  2.4446  2.0306  2.6810
  931MOL0     H25649   9.271   6.478   2.352 -0.6936 -2.6241 -2.2989
  931MOL0     H25650   9.153   6.339   2.361  3.6451 -0.9325  0.9889
  931MOL0     H25651   8.987   6.508   2.262 -0.1445  2.8132 -0.0273
  931MOL0     H25652   9.113   6.624   2.247  0.2925  0.0970  0.3118
  931MOL0     H25653   9.139   6.532   2.041 -0.3203 -0.8116 -0.7830
  931MOL0     H25654   9.233   6.404   2.127  0.0470  0.0227  2.3443
  931MOL0     H25655   8.940   6.387   2.055  0.8381 -0.3444 -4.3328
  931MOL0     H25656   9.044   6.264   2.137  1.1620  0.3310  1.8125
  931MOL0     H25657   9.194   6.288   1.923  0.5029 -0.5863 -3.0709
  931MOL0     H25658   9.047   6.363   1.846  0.2799  0.6111  0.5283
  931MOL0     H25659   9.066   6.136   1.776  0.5383 -0.8747  0.3447
  931MOL0     H25660   9.098   6.070   1.927 -3.6219 -1.8050  2.8222
  931MOL0     H25661   8.855   6.067   1.812  2.7683 -1.1190 -1.1357
  931MOL0     H25662   8.840   6.228   1.873  0.3710  0.0058 -1.1016
  931MOL0     H25663   8.873   5.965   2.035  0.4050 -0.1669 -0.9586
  931MOL0     H25664   8.886   6.131   2.105 -0.7784  1.1343  0.6567
  931MOL0     H25665   9.317   6.312   2.514  1.3335  0.9586  0.3969
  931MOL0     H25666   9.365   6.192   2.707 -0.7556  0.3874  1.4804
  931MOL0     H25667   9.332   6.009   3.073 -2.7920 -0.0682  0.8523
  931MOL0     H25668   9.379   5.889   3.261  1.9781  0.4508  1.4382
  931MOL0     H25669  10.109   5.853   3.015  1.6908  0.3879 -0.3452
  931MOL0     H25670  10.067   5.783   2.795 -0.8415  1.5825  0.9690
  931MOL0     H25671   9.857   5.605   2.512  3.0218  1.1771 -1.1538
  931MOL0     H25672   9.735   5.590   2.294 -0.7989 -0.0843  0.5996
  931MOL0     H25673   9.569   5.336   2.044 -1.8241 -0.3388  0.0986
  931MOL0     H25674   9.557   5.484   2.142 -3.8113 -2.0857 -2.1371
  931MOL0     H25675   9.565   5.329   2.352  1.9854 -1.7802  0.0078
  931MOL0     H25676   9.584   5.195   2.250 -0.4172  0.0150  0.6014
  931MOL0     H25677   9.351   5.199   2.320 -1.0441 -0.8828  0.4155
  931MOL0     H25678   9.365   5.241   2.158  1.1649  1.5063 -0.6139
  931MOL0     H25679   9.311   5.472   2.181  0.7328  1.6852  1.1940
  931MOL0     H25680   9.200   5.397   2.303  0.1543  0.1849  0.7371
  931MOL0     H25681   9.432   5.681   2.495 -1.0733  0.5053 -1.4032
  931MOL0     H25682   9.856   5.200   2.243 -4.4401  0.5361 -1.7524
  931MOL0     H25683  10.069   5.139   2.481 -0.3088 -0.1208  0.7737
  931MOL0     H25684   9.954   5.111   2.603  3.4743 -4.9909 -0.5488
  931MOL0     H25685   9.916   5.067   2.432 -0.0472  2.3236 -3.7292
  932MOL0     O25686  10.976   2.082   8.541 -0.5125  0.1261  0.2821
  932MOL0     C25687  10.954   2.197   8.521 -0.3955  0.2292  0.3186
  932MOL0     O25688  10.924   2.290   8.614  0.1477  0.5118  0.1728
  932MOL0     C25689  10.890   2.232   8.731 -0.1561  0.4622  0.7312
  932MOL0     C25690  10.763   2.192   8.750 -0.6928  0.2929 -1.5107
  932MOL0     C25691  10.730   2.152   8.881  0.3809  0.4240 -0.0738
  932MOL0     C25692  10.826   2.135   8.982  1.2476 -0.5037 -0.0850
  932MOL0     O25693  10.801   2.090   9.112 -0.7229 -0.1639 -0.1649
  932MOL0     C25694  10.669   2.073   9.156 -1.1912  0.5262 -1.6586
  932MOL0     C25695  10.674   2.088   9.303 -0.0235 -0.8129  0.6236
  932MOL0     C25696  10.750   1.966   9.356  0.5810  0.3037  0.7121
  932MOL0     C25697  10.735   1.965   9.508  0.1692 -0.2021 -1.0616
  932MOL0     C25698  10.632   1.865   9.557  0.3670  1.2104 -0.4204
  932MOL0     C25699  10.667   1.714   9.547 -0.4849 -0.0062  0.4584
  932MOL0     C25700  10.553   1.620   9.564  0.5446  0.0357 -0.2249
  932MOL0     C25701  10.447   1.632   9.447  0.7038  1.5378 -0.0149
  932MOL0     N25702  10.466   1.566   9.317  0.1483  0.3288  0.5659
  932MOL0     C25703  10.413   1.441   9.278  0.3456 -0.1272  0.3884
  932MOL0     C25704  10.440   1.434   9.146  1.0431  0.1878 -0.4636
  932MOL0     C25705  10.383   1.328   9.047  0.4666 -0.1126  1.1183
  932MOL0     C25706  10.371   1.190   9.105  0.7430  0.3990  0.2988
  932MOL0     C25707  10.510   1.121   9.125 -0.3713  0.4612  0.0032
  932MOL0     C25708  10.516   1.043   9.254 -0.5766  0.1233  0.4484
  932MOL0     O25709  10.495   1.132   9.372  0.0855  0.2124 -0.4456
  932MOL0     C25710  10.495   1.077   9.497  0.0250 -0.4130 -0.2156
  932MOL0     C25711  10.529   1.164   9.605  1.0625 -0.6826  0.1728
  932MOL0     C25712  10.542   1.123   9.735 -1.0672  0.5635 -0.3887
  932MOL0     C25713  10.534   0.988   9.769 -0.3543  0.0008  0.9206
  932MOL0     C25714  10.567   0.937   9.906 -0.2914  0.4791 -0.3016
  932MOL0     O25715  10.566   0.802   9.924 -0.4043 -1.3956 -0.2921
  932MOL0     C25716  10.640   0.752  10.029  0.4026  0.0626  0.6476
  932MOL0     C25717  10.592   0.630  10.079 -0.5566  0.8692 -0.6440
  932MOL0     C25718  10.673   0.552  10.173  0.2685 -0.4058 -0.2930
  932MOL0     C25719  10.802   0.601  10.202 -0.0135  0.8260 -0.4153
  932MOL0     O25720  10.897   0.543  10.292 -0.3036  0.1168  0.8291
  932MOL0     C25721  10.883   0.406  10.333 -0.1588 -0.0031 -0.9954
  932MOL0     C25722  10.947   0.319  10.231  0.3268  0.5810  0.7947
  932MOL0     C25723  10.907   0.167  10.262 -0.5934 -0.2820 -0.0439
  932MOL0     C25724  10.973   0.068  10.158  0.0678 -0.2677  0.0880
  932MOL0     C25725  11.005  -0.072  10.208 -0.5801  0.7296 -0.2256
  932MOL0     C25726  10.890  -0.156  10.255  0.7711 -0.6683 -0.4051
  932MOL0     C25727  10.944  -0.301  10.278 -0.7119 -0.9753  0.1257
  932MOL0     C25728  10.834  -0.393  10.287 -0.0532 -0.0133 -0.1354
  932MOL0    Cl25729  10.901  -0.555  10.302 -0.1306  0.8429 -0.0929
  932MOL0     C25730  10.842   0.725  10.152 -0.4589 -0.1763 -0.2896
  932MOL0     C25731  10.765   0.796  10.057 -0.0593  0.7810  0.4451
  932MOL0     O25732  10.597   1.024   9.990  0.6166 -0.3542 -0.8764
  932MOL0     C25733  10.498   0.908   9.656  0.6601  0.0633  0.4290
  932MOL0     C25734  10.488   0.945   9.522 -0.4982  0.0234  0.0581
  932MOL0     N25735  10.510   1.555   9.109 -0.6866  0.0203 -0.8565
  932MOL0     N25736  10.525   1.628   9.215  0.5715 -0.3719 -0.7169
  932MOL0     C25737  10.960   2.151   8.941 -0.2474  0.0912 -0.9593
  932MOL0     C25738  10.995   2.209   8.815  0.9202 -0.0663 -0.2312
  932MOL0     C25739  10.983   2.246   8.384 -0.0833 -0.1398 -0.0465
  932MOL0     C25740  11.001   2.388   8.366  0.7356  0.1551 -0.7060
  932MOL0     C25741  11.020   2.436   8.239 -0.6130 -0.2386  0.3886
  932MOL0     C25742  11.028   2.365   8.128 -0.0637 -0.1429 -0.3878
  932MOL0     O25743  11.037   2.439   8.014 -0.8253  0.3664  0.1656
  932MOL0     C25744  10.965   2.383   7.899 -0.4335 -0.1985  0.6939
  932MOL0     C25745  10.818   2.429   7.902 -0.2046  0.5275  0.9085
  932MOL0     C25746  10.751   2.410   7.770 -0.1391  0.0361  0.0227
  932MOL0     C25747  10.605   2.458   7.770 -0.6574  0.0617 -0.2692
  932MOL0     C25748  10.524   2.368   7.687  0.1554 -0.5521 -1.3118
  932MOL0     C25749  10.457   2.304   7.603 -1.0449 -0.2283  0.3364
  932MOL0     C25750  11.018   2.226   8.138  0.1503 -0.5051 -0.6422
  932MOL0     C25751  10.984   2.165   8.261 -0.2864 -0.0290  0.3859
  932MOL0     C25752  10.984   2.015   8.270 -1.4908 -1.0423 -0.9982
  932MOL0     H25753  10.696   2.191   8.665  0.3751  0.2603 -2.3807
  932MOL0     H25754  10.624   2.139   8.901  0.3649  0.6397 -0.0194
  932MOL0     H25755  10.601   2.151   9.120  0.0310  1.4639 -2.0209
  932MOL0     H25756  10.631   1.976   9.123  1.1056 -1.8439  2.0645
  932MOL0     H25757  10.576   2.077   9.349 -0.3820 -0.5559 -0.0657
  932MOL0     H25758  10.711   2.185   9.336 -3.0856  1.2212 -1.3775
  932MOL0     H25759  10.851   1.974   9.314 -0.6256  2.9066 -2.1742
  932MOL0     H25760  10.702   1.880   9.310  1.5666 -0.3273  0.8398
  932MOL0     H25761  10.835   1.964   9.553 -0.6954  3.1392  1.2982
  932MOL0     H25762  10.694   2.056   9.553 -2.8464 -2.3956  1.0161
  932MOL0     H25763  10.617   1.878   9.665 -2.1453 -3.0995 -0.0097
  932MOL0     H25764  10.535   1.876   9.508 -0.2884  2.1756  1.0277
  932MOL0     H25765  10.710   1.696   9.448  3.2289  0.5481  1.8250
  932MOL0     H25766  10.748   1.696   9.619  1.1352  1.2909 -0.9681
  932MOL0     H25767  10.507   1.635   9.663 -0.2818 -0.6990 -0.4856
  932MOL0     H25768  10.588   1.517   9.564 -0.4397 -0.3187  0.3201
  932MOL0     H25769  10.362   1.587   9.499  1.6443  1.9292  1.9720
  932MOL0     H25770  10.416   1.733   9.419  0.0110  0.1560 -5.4077
  932MOL0     H25771  10.379   1.355   9.335  3.7111 -2.3493 -0.6541
  932MOL0     H25772  10.295   1.357   8.989  1.3414 -0.3888 -0.4098
  932MOL0     H25773  10.464   1.325   8.973  0.0091  2.9079  0.3904
  932MOL0     H25774  10.311   1.213   9.193 -0.1298  1.3811 -0.5136
  932MOL0     H25775  10.318   1.125   9.034 -0.8270 -1.6394  3.1207
  932MOL0     H25776  10.591   1.194   9.133 -0.0788  0.0097  1.5851
  932MOL0     H25777  10.530   1.048   9.046  0.3696  0.5185  0.1386
  932MOL0     H25778  10.613   0.994   9.269 -0.1123  1.1413  0.8797
  932MOL0     H25779  10.437   0.968   9.253 -1.9368  1.4813 -1.5837
  932MOL0     H25780  10.539   1.269   9.578 -1.4909 -0.2799  0.4853
  932MOL0     H25781  10.594   1.190   9.802  1.6542 -1.7889  0.0367
  932MOL0     H25782  10.493   0.592  10.057  0.8967 -4.7972  0.8176
  932MOL0     H25783  10.633   0.465  10.223 -0.5898  1.4386  2.4829
  932MOL0     H25784  10.936   0.393  10.428  0.0273 -0.9902 -1.2172
  932MOL0     H25785  10.778   0.391  10.360 -0.2649  0.9686 -0.8174
  932MOL0     H25786  10.916   0.351  10.131  1.0181 -1.2435 -0.0527
  932MOL0     H25787  11.056   0.318  10.233  0.3705 -1.4524 -0.1450
  932MOL0     H25788  10.945   0.149  10.363 -1.8294  0.2105  0.5412
  932MOL0     H25789  10.798   0.154  10.271 -0.6222  0.9078  1.9354
  932MOL0     H25790  11.075   0.105  10.144 -0.2118  0.4885  0.0096
  932MOL0     H25791  10.925   0.080  10.060  1.3702 -1.1650 -0.6935
  932MOL0     H25792  11.085  -0.074  10.282 -1.6631 -1.9370  1.0122
  932MOL0     H25793  11.045  -0.114  10.115  3.2153 -3.7399  2.9879
  932MOL0     H25794  10.854  -0.124  10.354  0.1252 -5.0570  0.9729
  932MOL0     H25795  10.799  -0.148  10.194 -0.2556  0.3560  1.1740
  932MOL0     H25796  11.008  -0.305  10.367 -0.1087 -0.9307 -0.3035
  932MOL0     H25797  11.014  -0.331  10.200  1.3256 -2.2934  2.3426
  932MOL0     H25798  10.778  -0.386  10.380  0.2381 -1.5156  0.1808
  932MOL0     H25799  10.765  -0.392  10.202  1.1235  0.7022 -1.1216
  932MOL0     H25800  10.937   0.766  10.185 -1.2737  1.0460  0.6137
  932MOL0     H25801  10.809   0.889  10.024  0.9143 -0.5489 -2.2664
  932MOL0     H25802  10.484   0.802   9.679 -3.6728  0.1901 -0.7078
  932MOL0     H25803  10.478   0.873   9.441  1.9227  2.3798 -2.5123
  932MOL0     H25804  11.036   2.123   9.013  0.2260 -1.7917 -2.1165
  932MOL0     H25805  11.097   2.232   8.788  0.3375  1.4433 -1.2965
  932MOL0     H25806  11.005   2.460   8.448 -0.4081 -0.6801  0.1038
  932MOL0     H25807  11.046   2.541   8.235 -1.2772 -0.1147 -2.6923
  932MOL0     H25808  10.970   2.275   7.882 -0.7014  0.3984 -5.0408
  932MOL0     H25809  11.006   2.430   7.810 -0.9773 -2.2496 -0.7169
  932MOL0     H25810  10.808   2.532   7.937  0.8030  0.9291  0.0772
  932MOL0     H25811  10.776   2.350   7.964 -0.5982 -1.5188 -1.7576
  932MOL0     H25812  10.745   2.304   7.741 -4.3663  0.3102 -0.7400
  932MOL0     H25813  10.808   2.449   7.686 -1.5552  0.8917 -0.5809
  932MOL0     H25814  10.567   2.461   7.872  2.5399  0.8102  1.0124
  932MOL0     H25815  10.600   2.553   7.716  2.1835  0.7375  0.4927
  932MOL0     H25816  10.416   2.257   7.516  1.3658 -0.5741 -0.6807
  932MOL0     H25817  11.038   2.167   8.049 -0.4038 -0.4912 -0.7815
  932MOL0     H25818  11.087   1.994   8.302 -1.3137  0.0832 -0.7935
  932MOL0     H25819  10.921   1.971   8.348  0.9317 -1.2789  0.9877
  932MOL0     H25820  10.950   1.966   8.178  0.3038 -2.8313 -0.7853
  933MOL0     O25821   5.126   4.088  10.043 -0.3780  0.2343 -0.6285
  933MOL0     C25822   5.057   4.054   9.949  0.1568  0.2222 -0.6814
  933MOL0     O25823   4.925   3.999   9.959  0.5583 -0.0770  0.2457
  933MOL0     C25824   4.850   4.030  10.068 -0.8013 -0.1886  0.3496
  933MOL0     C25825   4.771   4.146  10.069 -1.1412 -0.6070 -0.0056
  933MOL0     C25826   4.709   4.187  10.188 -0.0607 -0.0516 -0.4897
  933MOL0     C25827   4.699   4.098  10.293  0.1860 -0.3458 -0.1151
  933MOL0     O25828   4.621   4.110  10.401  0.2481  1.1269  0.3353
  933MOL0     C25829   4.534   4.225  10.399 -0.4456 -0.3074  0.5256
  933MOL0     C25830   4.442   4.239  10.524  0.0447  0.1240  0.1351
  933MOL0     C25831   4.354   4.113  10.531  0.4705  0.4574  0.3094
  933MOL0     C25832   4.314   4.097  10.682 -0.6222 -0.2391  0.2219
  933MOL0     C25833   4.200   4.002  10.703  1.0490 -0.4870 -0.2204
  933MOL0     C25834   4.240   3.858  10.678 -1.2293  0.0062  0.2492
  933MOL0     C25835   4.119   3.765  10.709 -0.2095 -0.1303 -0.9470
  933MOL0     C25836   4.141   3.616  10.665  0.0372  0.3353  0.3811
  933MOL0     N25837   4.219   3.530  10.765  0.2562 -1.1045 -0.2829
  933MOL0     C25838   4.173   3.415  10.836 -0.6639  0.7645  0.2307
  933MOL0     C25839   4.297   3.346  10.847  0.1661 -0.0118 -0.7525
  933MOL0     C25840   4.309   3.218  10.930  0.3951 -0.6686 -0.1173
  933MOL0     C25841   4.245   3.106  10.843  0.1172 -0.6842 -0.0640
  933MOL0     C25842   4.256   2.959  10.901 -0.1222 -0.2550 -0.4264
  933MOL0     C25843   4.111   2.921  10.963 -0.7380 -0.2018 -0.9968
  933MOL0     O25844   4.099   2.784  10.993  0.4489 -0.5229 -0.4700
  933MOL0     C25845   3.978   2.744  11.041  0.0132  1.0112  1.0215
  933MOL0     C25846   3.862   2.824  11.041 -0.0213  0.8416 -0.0684
  933MOL0     C25847   3.743   2.782  11.105  0.5191  0.3059 -0.3861
  933MOL0     C25848   3.739   2.657  11.158  0.0542  0.2535  0.2752
  933MOL0     C25849   3.620   2.608  11.228 -0.1338 -1.2196  0.1940
  933MOL0     O25850   3.609   2.475  11.260  0.3350 -0.4246 -0.2284
  933MOL0     C25851   3.514   2.462  11.361  0.4008 -0.0816 -0.5914
  933MOL0     C25852   3.553   2.472  11.491 -0.4175 -0.0151  0.8785
  933MOL0     C25853   3.465   2.444  11.594 -0.0944  0.3106  0.1306
  933MOL0     C25854   3.331   2.423  11.570  0.3066 -0.2127 -0.1239
  933MOL0     O25855   3.223   2.398  11.660 -0.2771  0.7200 -0.1786
  933MOL0     C25856   3.262   2.378  11.794 -0.0603  0.4567  0.8645
  933MOL0     C25857   3.156   2.362  11.893 -0.9165  0.3100 -0.7472
  933MOL0     C25858   3.068   2.243  11.879 -0.0389  0.0220 -0.0843
  933MOL0     C25859   2.938   2.245  11.983 -0.7712  0.3288  0.9016
  933MOL0     C25860   2.878   2.105  12.005  0.5999 -0.5766 -0.2159
  933MOL0     C25861   2.723   2.127  12.025 -0.3743 -0.6764 -0.0066
  933MOL0     C25862   2.644   1.996  12.034  0.4686 -0.0857 -0.0362
  933MOL0     C25863   2.663   1.920  11.912 -0.7025 -0.0903 -0.0349
  933MOL0    Cl25864   2.587   1.759  11.920 -0.0611 -0.4674  0.1174
  933MOL0     C25865   3.287   2.410  11.443  0.6703 -0.0052  0.0091
  933MOL0     C25866   3.378   2.437  11.340  0.7517  0.0576 -0.1816
  933MOL0     O25867   3.546   2.698  11.271 -0.1967  0.3360 -0.1076
  933MOL0     C25868   3.856   2.569  11.144 -0.3731  0.3620 -0.3772
  933MOL0     C25869   3.971   2.612  11.086 -0.2351  0.4054 -0.1969
  933MOL0     N25870   4.408   3.408  10.795 -0.8896  0.0786  0.1523
  933MOL0     N25871   4.353   3.515  10.748 -0.2823 -0.1023  0.5023
  933MOL0     C25872   4.774   3.976  10.293 -0.5916  0.3468  0.4904
  933MOL0     C25873   4.852   3.946  10.180  0.1895  0.3140  0.5250
  933MOL0     C25874   5.120   4.043   9.814  0.7805 -0.1597 -0.4295
  933MOL0     C25875   5.073   3.941   9.738  0.7299 -0.4502 -0.8453
  933MOL0     C25876   5.134   3.923   9.618 -0.3069 -0.0834 -0.0169
  933MOL0     C25877   5.240   4.008   9.566  1.6581  0.6932 -0.4400
  933MOL0     O25878   5.295   3.983   9.450  0.2493 -0.0188 -0.2507
  933MOL0     C25879   5.244   3.890   9.353 -0.2864 -0.2881  0.0233
  933MOL0     C25880   5.312   3.933   9.214 -0.2754  0.9655 -0.2353
  933MOL0     C25881   5.265   3.823   9.119  0.0589  0.2826 -0.4270
  933MOL0     C25882   5.318   3.856   8.968  0.3860  1.1039 -0.6041
  933MOL0     C25883   5.263   3.973   8.915 -0.6866  0.2609  0.5919
  933MOL0     C25884   5.226   4.072   8.852 -0.4289 -0.4661 -0.0104
  933MOL0     C25885   5.274   4.118   9.644  0.0685  0.3653 -0.0894
  933MOL0     C25886   5.213   4.139   9.769 -0.3463 -1.0778  0.4546
  933MOL0     C25887   5.257   4.263   9.845 -0.4832  0.1264 -0.2456
  933MOL0     H25888   4.783   4.226   9.997  1.5327 -2.1271 -1.4380
  933MOL0     H25889   4.660   4.283  10.196 -1.5698 -0.9363  2.1318
  933MOL0     H25890   4.589   4.318  10.411 -1.3524  0.3822 -0.4441
  933MOL0     H25891   4.463   4.227  10.316 -1.3865 -0.5686  1.2941
  933MOL0     H25892   4.384   4.332  10.532 -1.2879 -0.4995 -1.7190
  933MOL0     H25893   4.508   4.236  10.612 -0.8187  1.9303  0.8917
  933MOL0     H25894   4.401   4.020  10.499 -0.8605 -0.6250  1.3302
  933MOL0     H25895   4.260   4.123  10.476 -0.9050 -0.2288  2.3830
  933MOL0     H25896   4.401   4.060  10.737 -1.4814 -1.5750  0.7262
  933MOL0     H25897   4.282   4.195  10.719 -0.8435 -1.0113  2.2019
  933MOL0     H25898   4.161   4.023  10.803  0.0206 -0.4678 -0.6117
  933MOL0     H25899   4.122   4.028  10.631  2.7999  1.8634 -1.4406
  933MOL0     H25900   4.278   3.862  10.576 -1.9804  4.3370 -0.0401
  933MOL0     H25901   4.325   3.823  10.737 -0.0353 -0.2361 -1.5529
  933MOL0     H25902   4.030   3.804  10.659 -1.7178  0.9205  2.3241
  933MOL0     H25903   4.101   3.758  10.817 -0.1172  0.8766 -0.8624
  933MOL0     H25904   4.041   3.574  10.650 -0.2379  1.1305 -0.0955
  933MOL0     H25905   4.181   3.616  10.563 -1.3650  1.9743 -0.2127
  933MOL0     H25906   4.077   3.389  10.879  0.4223  1.4553  3.2995
  933MOL0     H25907   4.415   3.200  10.952  0.3451 -0.1605  0.5777
  933MOL0     H25908   4.268   3.227  11.032  1.2019  1.0646  0.0921
  933MOL0     H25909   4.145   3.136  10.813  0.5223 -1.0804 -1.9889
  933MOL0     H25910   4.304   3.106  10.750 -0.7291 -2.4697 -0.6651
  933MOL0     H25911   4.328   2.954  10.982  0.7601 -1.1837 -1.2441
  933MOL0     H25912   4.287   2.882  10.831 -1.7639  0.2577 -1.8198
  933MOL0     H25913   4.045   2.946  10.879  0.5708  2.8487 -1.2554
  933MOL0     H25914   4.077   2.988  11.042 -1.1907  0.6186 -1.8633
  933MOL0     H25915   3.858   2.920  10.991  0.7858  0.4512 -0.9230
  933MOL0     H25916   3.669   2.860  11.119  1.2043  1.5099 -2.7877
  933MOL0     H25917   3.654   2.510  11.502 -0.3488  1.3170 -2.9160
  933MOL0     H25918   3.490   2.452  11.699 -0.7701 -2.3712  0.5691
  933MOL0     H25919   3.332   2.293  11.789  2.4100  2.4023 -3.0253
  933MOL0     H25920   3.325   2.464  11.821 -1.5804  1.9182 -0.0792
  933MOL0     H25921   3.214   2.351  11.985  0.4544  2.3198 -1.3199
  933MOL0     H25922   3.089   2.448  11.899 -3.5464 -1.5482 -1.5943
  933MOL0     H25923   3.045   2.205  11.779 -1.7925  0.6838  0.0346
  933MOL0     H25924   3.131   2.161  11.914  1.2777  1.1789  0.3234
  933MOL0     H25925   2.867   2.311  11.932 -2.3313 -1.5861  0.4832
  933MOL0     H25926   2.952   2.301  12.076  0.8533 -0.1033  0.9371
  933MOL0     H25927   2.921   2.070  12.098  0.3257  2.2641  1.1012
  933MOL0     H25928   2.898   2.037  11.921 -0.9532  2.5587 -3.4190
  933MOL0     H25929   2.714   2.184  12.118 -0.6006  3.1911 -2.1850
  933MOL0     H25930   2.682   2.190  11.945 -1.2871 -1.4377 -0.1567
  933MOL0     H25931   2.537   2.009  12.050  0.0663 -0.7536 -1.8923
  933MOL0     H25932   2.694   1.948  12.119 -4.4633 -0.3066  3.1455
  933MOL0     H25933   2.636   1.993  11.835  2.1144  0.9046 -0.2211
  933MOL0     H25934   2.767   1.887  11.905 -0.1725  1.6885 -1.3673
  933MOL0     H25935   3.186   2.391  11.409  2.1189  0.4702 -5.6090
  933MOL0     H25936   3.344   2.427  11.238 -0.4553  1.3708  0.0679
  933MOL0     H25937   3.827   2.471  11.182 -2.0096  0.6515 -0.8147
  933MOL0     H25938   4.053   2.543  11.072  0.1492  0.7338  0.3859
  933MOL0     H25939   4.784   3.909  10.378  1.5151  1.2890  1.0747
  933MOL0     H25940   4.897   3.847  10.179  0.5019  0.4423  1.3434
  933MOL0     H25941   5.004   3.866   9.776 -0.9636  1.0555 -0.7706
  933MOL0     H25942   5.105   3.827   9.574  2.6954 -1.6020  1.0789
  933MOL0     H25943   5.135   3.883   9.352 -0.2664 -2.5717  2.4281
  933MOL0     H25944   5.276   3.788   9.376 -1.2738 -0.0494  2.8450
  933MOL0     H25945   5.420   3.931   9.229 -0.3821  0.1288  0.5313
  933MOL0     H25946   5.274   4.033   9.191 -4.2632  0.5045  3.1501
  933MOL0     H25947   5.156   3.818   9.115 -0.2666  3.5355  1.2185
  933MOL0     H25948   5.297   3.726   9.158 -1.8490  0.0608  0.7162
  933MOL0     H25949   5.427   3.860   8.969  0.3948  0.8553 -0.5189
  933MOL0     H25950   5.281   3.772   8.909  0.3504  0.8575 -0.2327
  933MOL0     H25951   5.199   4.167   8.809  1.2147 -0.3482 -0.8644
  933MOL0     H25952   5.351   4.189   9.614  0.2763  0.1435 -0.0862
  933MOL0     H25953   5.308   4.337   9.782  0.8371 -0.5167  0.0234
  933MOL0     H25954   5.179   4.319   9.898  1.7328  2.1474  1.1153
  933MOL0     H25955   5.343   4.235   9.906  0.1092  0.6088 -0.8443
  934MOL0     O25956  10.741   0.712   5.886 -0.6742 -0.6768  0.4187
  934MOL0     C25957  10.754   0.623   5.966 -0.2075  0.1878 -0.8452
  934MOL0     O25958  10.676   0.597   6.072  0.5410 -0.1250  0.3423
  934MOL0     C25959  10.561   0.660   6.090  0.3402 -0.4250 -0.1121
  934MOL0     C25960  10.443   0.643   6.008 -0.7319  0.3084 -0.1467
  934MOL0     C25961  10.330   0.730   6.028 -0.1717 -0.1648  0.0722
  934MOL0     C25962  10.330   0.824   6.134  0.6218 -0.0444 -1.0597
  934MOL0     O25963  10.218   0.903   6.151  0.6456  0.9785 -0.5324
  934MOL0     C25964  10.254   1.037   6.197  0.2432  0.5196  0.4899
  934MOL0     C25965  10.141   1.143   6.165 -0.2878  0.5900  0.2531
  934MOL0     C25966  10.132   1.200   6.028 -0.5554  0.1813 -0.9995
  934MOL0     C25967  10.174   1.351   6.032 -0.8990  1.0449  0.6899
  934MOL0     C25968  10.201   1.416   5.900 -0.0898 -0.8754 -0.9424
  934MOL0     C25969  10.316   1.370   5.812 -0.0316  0.1607 -0.1505
  934MOL0     C25970  10.307   1.435   5.673  0.2322  0.7276  0.3388
  934MOL0     C25971  10.432   1.432   5.586 -0.9129  0.0416  0.0442
  934MOL0     N25972  10.544   1.498   5.657 -0.4577  0.4105 -0.4970
  934MOL0     C25973  10.577   1.631   5.637 -0.0834  0.3325 -0.0671
  934MOL0     C25974  10.697   1.649   5.702  0.2842  0.3212 -0.6151
  934MOL0     C25975  10.773   1.777   5.675  0.1941  0.9450  0.3772
  934MOL0     C25976  10.803   1.856   5.794 -0.4025 -0.1739 -0.1267
  934MOL0     C25977  10.695   1.961   5.821  0.3130  0.3530  0.5716
  934MOL0     C25978  10.707   2.086   5.736  0.1756  1.6548  0.8727
  934MOL0     O25979  10.825   2.154   5.758  0.2460  0.0283 -0.1499
  934MOL0     C25980  10.848   2.241   5.861 -0.8324  0.0733  0.6198
  934MOL0     C25981  10.754   2.309   5.946 -0.4068  0.0555 -0.1734
  934MOL0     C25982  10.810   2.403   6.035  0.0685 -0.3685 -1.6258
  934MOL0     C25983  10.946   2.436   6.029  0.6663  0.4800  0.0050
  934MOL0     C25984  10.998   2.544   6.119  0.0119  0.0234  0.1480
  934MOL0     O25985  11.137   2.574   6.118 -0.0179  0.5195 -0.5382
  934MOL0     C25986  11.193   2.667   6.198  0.4330  0.4144  0.7035
  934MOL0     C25987  11.154   2.684   6.334  0.2631  0.4390  0.0331
  934MOL0     C25988  11.210   2.773   6.423 -0.6603  0.3479 -0.6305
  934MOL0     C25989  11.329   2.847   6.380  0.5150 -0.1095 -0.1814
  934MOL0     O25990  11.370   2.947   6.466  0.2607  0.3504 -0.2743
  934MOL0     C25991  11.506   3.003   6.452  0.2749  0.0810  0.3533
  934MOL0     C25992  11.569   3.033   6.586  0.0860  0.5956  0.0060
  934MOL0     C25993  11.519   3.161   6.648 -1.2959  0.3262 -0.9314
  934MOL0     C25994  11.608   3.200   6.767  0.3652  0.4833  0.8396
  934MOL0     C25995  11.570   3.336   6.839  0.0783  0.3483  0.6222
  934MOL0     C25996  11.594   3.463   6.749  0.0326 -0.2312 -0.8037
  934MOL0     C25997  11.551   3.585   6.831 -0.1532  0.8266 -0.0086
  934MOL0     C25998  11.603   3.709   6.760  1.2208  0.5456  0.4856
  934MOL0    Cl25999  11.519   3.843   6.838  0.1483 -0.0791 -0.2358
  934MOL0     C26000  11.378   2.817   6.248  0.4570 -0.2919 -0.6941
  934MOL0     C26001  11.310   2.736   6.160 -0.0444  0.0885 -0.5070
  934MOL0     O26002  10.914   2.608   6.179  0.2437 -0.1302  0.2435
  934MOL0     C26003  11.034   2.373   5.940  0.4911  0.0623 -0.3029
  934MOL0     C26004  10.978   2.278   5.858  0.4696  0.4003 -0.6634
  934MOL0     N26005  10.730   1.521   5.759 -0.6280  0.0148  0.5580
  934MOL0     N26006  10.643   1.431   5.726  0.1756  0.1970  0.2082
  934MOL0     C26007  10.445   0.840   6.220  0.6192 -0.3285 -0.3441
  934MOL0     C26008  10.552   0.752   6.198 -0.4428 -1.1178 -0.4186
  934MOL0     C26009  10.875   0.538   5.968 -0.7901  0.0618 -0.2822
  934MOL0     C26010  10.999   0.605   5.984 -0.7551 -0.1996  1.2008
  934MOL0     C26011  11.125   0.533   5.992  0.1236  0.2670  0.3441
  934MOL0     C26012  11.114   0.400   5.958  0.4533 -0.8583 -0.3244
  934MOL0     O26013  11.223   0.326   5.950 -0.5167 -0.6399  0.0944
  934MOL0     C26014  11.251   0.239   6.060  0.3182 -0.1502  0.4119
  934MOL0     C26015  11.399   0.201   6.062 -0.7770  0.6716 -0.4223
  934MOL0     C26016  11.465   0.303   6.149 -0.0203 -0.3226 -0.6508
  934MOL0     C26017  11.592   0.244   6.223  0.2770 -0.0776  0.0207
  934MOL0     C26018  11.683   0.342   6.272  0.0887 -0.5734  0.1264
  934MOL0     C26019  11.768   0.428   6.317  0.0063  0.4421  0.0176
  934MOL0     C26020  10.990   0.337   5.946  1.6055  0.9088  0.7069
  934MOL0     C26021  10.868   0.403   5.951 -1.0389  0.5803  0.8118
  934MOL0     C26022  10.743   0.314   5.931 -0.1899 -0.1164 -0.5227
  934MOL0     H26023  10.451   0.576   5.923 -0.3855  1.8093 -1.3430
  934MOL0     H26024  10.248   0.746   5.958 -0.3500  0.3001  0.3872
  934MOL0     H26025  10.273   1.037   6.305  2.2819 -0.7324  0.1820
  934MOL0     H26026  10.349   1.060   6.149  0.5449 -0.6051  0.5099
  934MOL0     H26027  10.141   1.216   6.247  1.0042  1.0356 -0.1175
  934MOL0     H26028  10.052   1.080   6.175  1.4735 -1.6346  4.3294
  934MOL0     H26029  10.034   1.182   5.981 -2.1868 -2.4406  2.8286
  934MOL0     H26030  10.208   1.160   5.961 -0.0932 -1.4787  0.4189
  934MOL0     H26031  10.110   1.416   6.093 -0.6135  0.5767  1.5076
  934MOL0     H26032  10.274   1.350   6.076  0.0708  1.8257 -1.3686
  934MOL0     H26033  10.103   1.423   5.852 -0.2454  1.0675 -0.4261
  934MOL0     H26034  10.223   1.521   5.921  0.1692 -1.1108  0.0277
  934MOL0     H26035  10.408   1.398   5.864 -0.7661  1.1990  0.6410
  934MOL0     H26036  10.320   1.262   5.798  2.8943  0.4225 -2.0606
  934MOL0     H26037  10.279   1.539   5.693  0.5395  1.1149 -1.1675
  934MOL0     H26038  10.227   1.382   5.620 -1.4097  0.1365  3.2024
  934MOL0     H26039  10.452   1.331   5.548 -0.2870  0.7853 -1.6794
  934MOL0     H26040  10.408   1.489   5.496 -0.4582  4.9710  2.6721
  934MOL0     H26041  10.518   1.712   5.595  1.6650  2.1555  0.8250
  934MOL0     H26042  10.868   1.746   5.630  1.5225  1.6064  2.5504
  934MOL0     H26043  10.728   1.843   5.601 -2.5285 -3.2030 -2.0556
  934MOL0     H26044  10.817   1.793   5.883 -2.3452  1.1261  1.1933
  934MOL0     H26045  10.899   1.904   5.779 -1.5583  1.1311 -4.8303
  934MOL0     H26046  10.694   1.978   5.929 -1.1739 -0.0888  0.6523
  934MOL0     H26047  10.597   1.917   5.804  0.6013  0.7574 -2.7580
  934MOL0     H26048  10.628   2.161   5.744 -0.3783  0.9577  2.3133
  934MOL0     H26049  10.698   2.051   5.633 -1.1973 -2.5039  2.2150
  934MOL0     H26050  10.650   2.279   5.954 -0.1528 -0.7865  0.0783
  934MOL0     H26051  10.746   2.434   6.117  3.3127 -0.3856  1.1427
  934MOL0     H26052  11.074   2.626   6.377  0.0404  0.9639  0.3302
  934MOL0     H26053  11.177   2.777   6.527  0.6476 -0.9593 -0.1167
  934MOL0     H26054  11.573   2.945   6.388  0.8468  2.4806 -1.3950
  934MOL0     H26055  11.494   3.105   6.414 -3.0127  0.7510  2.7769
  934MOL0     H26056  11.548   2.958   6.662  0.1847 -0.0335 -0.5764
  934MOL0     H26057  11.675   3.045   6.564 -0.4160 -2.2624 -6.0651
  934MOL0     H26058  11.528   3.236   6.569  1.5181  0.2978 -0.7373
  934MOL0     H26059  11.414   3.152   6.676 -0.9828 -1.7080 -0.1998
  934MOL0     H26060  11.707   3.218   6.722 -1.6581 -2.4337 -6.0739
  934MOL0     H26061  11.615   3.115   6.835  1.4405  0.7120  1.0500
  934MOL0     H26062  11.633   3.344   6.929  0.9769 -0.4114  0.0724
  934MOL0     H26063  11.464   3.332   6.865 -1.0903  1.5163 -3.2901
  934MOL0     H26064  11.703   3.462   6.738  0.2826 -1.4054  1.3070
  934MOL0     H26065  11.549   3.445   6.651  2.2970  0.7745 -2.1031
  934MOL0     H26066  11.591   3.569   6.932  0.5622  0.6406 -0.3130
  934MOL0     H26067  11.445   3.596   6.855 -0.0874  0.9769  0.2258
  934MOL0     H26068  11.711   3.720   6.770  1.2083  2.9974 -1.2317
  934MOL0     H26069  11.577   3.698   6.654  2.4698 -1.3695  0.3213
  934MOL0     H26070  11.464   2.875   6.213 -0.3334  1.8690  0.7195
  934MOL0     H26071  11.350   2.734   6.059 -0.1360  1.8385 -0.6023
  934MOL0     H26072  11.135   2.409   5.926  1.3387 -2.8226 -2.5386
  934MOL0     H26073  11.044   2.230   5.786 -1.1509 -3.6302  0.3231
  934MOL0     H26074  10.450   0.918   6.295  3.8071 -3.1791  2.7674
  934MOL0     H26075  10.635   0.757   6.268 -0.5144  1.2972 -0.4074
  934MOL0     H26076  11.012   0.712   5.998  4.0923  0.1394 -2.8053
  934MOL0     H26077  11.216   0.591   6.006 -2.0874  3.4123  3.3419
  934MOL0     H26078  11.190   0.149   6.049  1.6875 -1.0540 -0.0450
  934MOL0     H26079  11.218   0.288   6.151 -0.3656 -0.5064  0.3631
  934MOL0     H26080  11.434   0.195   5.959 -1.5496 -0.0609 -0.6571
  934MOL0     H26081  11.402   0.096   6.093  0.7797  0.8227  0.0091
  934MOL0     H26082  11.395   0.333   6.227  0.2372 -3.9771  1.2197
  934MOL0     H26083  11.495   0.395   6.098 -1.1383  1.2454  1.3672
  934MOL0     H26084  11.551   0.180   6.302 -0.3818  1.8418  1.3421
  934MOL0     H26085  11.650   0.179   6.157 -3.1402 -1.1461 -2.1844
  934MOL0     H26086  11.836   0.502   6.352  2.9096 -1.4157 -1.2312
  934MOL0     H26087  10.989   0.232   5.918 -0.4420  2.1097 -4.9272
  934MOL0     H26088  10.758   0.211   5.896 -1.2611 -0.4963  0.0937
  934MOL0     H26089  10.681   0.297   6.019  0.8453  0.4409  0.3433
  934MOL0     H26090  10.672   0.364   5.866 -1.4804 -0.9218  0.2200
  935MOL0     O26091   4.996   3.874   8.332  0.1292 -0.1288  0.5285
  935MOL0     C26092   5.071   3.921   8.418  0.2803  0.5201 -0.8700
  935MOL0     O26093   5.056   3.880   8.546 -0.5834 -0.0072  0.7284
  935MOL0     C26094   4.978   3.761   8.572  0.3514  0.5220  0.3757
  935MOL0     C26095   5.034   3.629   8.561 -0.6227 -0.3700  0.2977
  935MOL0     C26096   4.949   3.522   8.566 -0.3024 -0.7568 -0.1850
  935MOL0     C26097   4.811   3.537   8.595 -0.3233 -0.1588 -0.2218
  935MOL0     O26098   4.734   3.419   8.608  0.7062 -0.3002 -0.3000
  935MOL0     C26099   4.602   3.423   8.663  0.0810 -0.4525 -0.0194
  935MOL0     C26100   4.616   3.395   8.813  0.8869  0.3165 -1.4884
  935MOL0     C26101   4.679   3.260   8.841  0.2095 -0.1707  0.7433
  935MOL0     C26102   4.708   3.237   8.996 -1.7163 -0.1506  0.7186
  935MOL0     C26103   4.782   3.099   9.030  0.7679 -0.0653 -0.4473
  935MOL0     C26104   4.785   3.077   9.185 -0.5127  0.6954 -0.5462
  935MOL0     C26105   4.865   2.940   9.217 -0.1709  0.2399 -0.7310
  935MOL0     C26106   4.779   2.819   9.183  0.4391 -0.4100 -0.0393
  935MOL0     N26107   4.843   2.699   9.233 -0.8122 -0.0592  0.1230
  935MOL0     C26108   4.938   2.631   9.163  0.3461  1.2897 -0.1210
  935MOL0     C26109   4.962   2.511   9.231  0.6336  0.0584  0.6720
  935MOL0     C26110   5.061   2.406   9.170  0.1937  0.7906 -0.3588
  935MOL0     C26111   5.008   2.262   9.163 -0.5422 -0.5951 -0.5962
  935MOL0     C26112   5.115   2.149   9.132 -0.3751 -0.2859 -0.1487
  935MOL0     C26113   5.043   2.013   9.153  0.1947 -0.4841  0.5576
  935MOL0     O26114   5.141   1.910   9.150 -0.0431 -0.1261  0.1138
  935MOL0     C26115   5.093   1.788   9.131  0.8301  1.0772 -0.1046
  935MOL0     C26116   4.983   1.732   9.214 -0.6052 -1.1772 -0.7068
  935MOL0     C26117   4.939   1.602   9.188 -0.3160  0.5694 -0.4708
  935MOL0     C26118   5.000   1.514   9.094  0.4100 -0.4338 -0.6395
  935MOL0     C26119   4.955   1.374   9.078  0.4585 -0.1685  0.0611
  935MOL0     O26120   5.024   1.303   8.984  0.0742 -0.4533 -0.5278
  935MOL0     C26121   4.975   1.189   8.925 -0.6238 -0.2767 -0.0880
  935MOL0     C26122   4.847   1.159   8.885 -0.8644 -0.1124  0.4632
  935MOL0     C26123   4.820   1.039   8.818  0.6346  0.3347 -0.4580
  935MOL0     C26124   4.922   0.946   8.776 -1.6883 -0.4237  0.2943
  935MOL0     O26125   4.903   0.838   8.699  0.6974  0.4654 -0.3254
  935MOL0     C26126   4.790   0.754   8.732  0.0621  0.7345 -0.1409
  935MOL0     C26127   4.794   0.622   8.648  0.1574 -0.8698  0.0557
  935MOL0     C26128   4.937   0.563   8.652  0.4227  0.6508  0.1650
  935MOL0     C26129   4.958   0.463   8.535 -0.1081 -0.7696 -0.3459
  935MOL0     C26130   5.073   0.380   8.579 -0.3659 -0.4611 -1.0985
  935MOL0     C26131   5.173   0.344   8.475 -0.1310 -0.4651 -0.4821
  935MOL0     C26132   5.247   0.461   8.426  0.2918 -0.1022  0.1365
  935MOL0     C26133   5.368   0.418   8.339 -0.6124 -0.6245  0.5293
  935MOL0    Cl26134   5.315   0.351   8.180 -0.6056 -0.0427 -0.2165
  935MOL0     C26135   5.050   0.975   8.824  0.3778  0.1274  0.4884
  935MOL0     C26136   5.075   1.096   8.898 -0.4883  0.5605  0.7030
  935MOL0     O26137   4.855   1.330   9.138  0.2315 -0.0787 -0.0790
  935MOL0     C26138   5.110   1.571   9.018 -0.3815  0.4937 -0.5629
  935MOL0     C26139   5.139   1.706   9.033  0.0975 -0.0128  0.4868
  935MOL0     N26140   4.875   2.510   9.333  0.3179 -0.0064 -0.3805
  935MOL0     N26141   4.805   2.617   9.337  0.1719 -0.0499  0.1097
  935MOL0     C26142   4.765   3.663   8.626 -0.2028  0.4982  0.1398
  935MOL0     C26143   4.845   3.772   8.616  1.0830 -0.1501 -0.1215
  935MOL0     C26144   5.156   4.046   8.394 -1.1848  0.3754 -0.5355
  935MOL0     C26145   5.184   4.148   8.492 -0.1587  0.1288  0.5267
  935MOL0     C26146   5.278   4.253   8.474  0.5507  0.7647  0.0186
  935MOL0     C26147   5.339   4.273   8.348  0.7931  0.8059  0.2080
  935MOL0     O26148   5.414   4.387   8.340 -0.2003 -0.0149  0.1769
  935MOL0     C26149   5.528   4.374   8.249 -0.3554 -0.1441 -0.3118
  935MOL0     C26150   5.637   4.466   8.309 -0.7185 -0.0330  0.0729
  935MOL0     C26151   5.782   4.443   8.252 -0.3994  1.0832  0.3447
  935MOL0     C26152   5.867   4.354   8.348  0.1623  1.0903 -0.2936
  935MOL0     C26153   6.010   4.344   8.308  0.5303  0.1392  0.4095
  935MOL0     C26154   6.128   4.325   8.285 -0.6222  0.1759 -0.5844
  935MOL0     C26155   5.316   4.179   8.252 -0.2818 -0.5922 -0.1766
  935MOL0     C26156   5.219   4.068   8.265  0.2092  0.4326  0.1309
  935MOL0     C26157   5.196   3.965   8.158 -0.0564  0.1768 -0.5862
  935MOL0     H26158   5.138   3.609   8.539 -0.3922  0.2341  0.8192
  935MOL0     H26159   4.989   3.421   8.553 -1.8889 -1.4057 -0.2027
  935MOL0     H26160   4.544   3.513   8.640 -3.0188 -2.6846 -1.5863
  935MOL0     H26161   4.551   3.339   8.616  0.0484 -1.3423  1.5265
  935MOL0     H26162   4.517   3.402   8.859  0.1031 -3.4264 -2.3182
  935MOL0     H26163   4.672   3.467   8.873 -0.0779 -0.1194 -0.0194
  935MOL0     H26164   4.769   3.259   8.780 -1.5687  1.3492 -2.1164
  935MOL0     H26165   4.617   3.176   8.807  0.8132 -0.7104  0.9583
  935MOL0     H26166   4.769   3.322   9.027 -0.5402 -0.4647 -0.6197
  935MOL0     H26167   4.613   3.242   9.049 -1.6367  1.2046  0.7780
  935MOL0     H26168   4.719   3.021   8.985 -0.9380  1.4860 -0.8447
  935MOL0     H26169   4.875   3.100   8.972  0.6380  0.3741 -0.6441
  935MOL0     H26170   4.845   3.157   9.230 -0.7410  1.6782 -1.9211
  935MOL0     H26171   4.684   3.077   9.227 -0.5588 -3.7035 -0.2178
  935MOL0     H26172   4.894   2.924   9.321  1.0845 -1.4525 -1.2856
  935MOL0     H26173   4.958   2.938   9.159  2.2142  3.1003  2.5612
  935MOL0     H26174   4.676   2.830   9.218 -0.5817 -1.8428 -2.3618
  935MOL0     H26175   4.769   2.810   9.075 -0.6819  0.5684 -0.0329
  935MOL0     H26176   4.995   2.664   9.076  3.7039  0.9228  1.7801
  935MOL0     H26177   5.085   2.417   9.064  1.4698 -3.0563 -0.6447
  935MOL0     H26178   5.161   2.419   9.213 -0.9202  2.1904  1.9856
  935MOL0     H26179   4.960   2.258   9.261  1.0945  2.6405  0.4759
  935MOL0     H26180   4.936   2.260   9.080  0.1728 -1.2437 -1.2108
  935MOL0     H26181   5.210   2.154   9.186  0.0806  1.0104 -1.0340
  935MOL0     H26182   5.138   2.169   9.027 -2.4360 -2.2440 -1.0895
  935MOL0     H26183   4.981   2.012   9.063  1.8998  1.5978 -0.7408
  935MOL0     H26184   4.984   2.003   9.245  0.4819  0.2559  0.8339
  935MOL0     H26185   4.935   1.794   9.290  0.4388  0.3583 -1.2625
  935MOL0     H26186   4.850   1.570   9.242 -0.4270  0.3905 -0.7545
  935MOL0     H26187   4.763   1.224   8.906 -2.2257 -0.4591 -3.1552
  935MOL0     H26188   4.717   1.018   8.792 -0.7957  2.4809  2.7469
  935MOL0     H26189   4.806   0.738   8.839 -0.0088 -0.5011 -0.2932
  935MOL0     H26190   4.695   0.807   8.718 -0.4525 -0.0629  0.2546
  935MOL0     H26191   4.718   0.549   8.678  0.1536 -0.2391  1.7438
  935MOL0     H26192   4.779   0.655   8.545  2.2903 -2.4769 -0.8320
  935MOL0     H26193   5.020   0.634   8.649  3.0082 -2.2028 -2.1146
  935MOL0     H26194   4.943   0.504   8.743 -0.6814 -0.7780 -0.6502
  935MOL0     H26195   4.978   0.516   8.441 -2.1047 -0.5702 -0.7048
  935MOL0     H26196   4.866   0.410   8.507 -0.2015  0.7129 -3.2318
  935MOL0     H26197   5.036   0.286   8.622 -1.2465  0.7155  0.8725
  935MOL0     H26198   5.135   0.425   8.657 -0.5005  1.2316 -1.9170
  935MOL0     H26199   5.248   0.277   8.520  1.1350  0.6424 -0.8813
  935MOL0     H26200   5.114   0.293   8.399 -0.9512  0.1670 -0.2828
  935MOL0     H26201   5.281   0.522   8.510  1.5896 -1.3311  0.5527
  935MOL0     H26202   5.178   0.518   8.363 -0.9576 -0.6272  0.9961
  935MOL0     H26203   5.443   0.494   8.315 -0.8478 -0.9802 -1.5955
  935MOL0     H26204   5.436   0.351   8.392  0.7675 -0.3605 -0.8248
  935MOL0     H26205   5.134   0.913   8.795 -0.8288 -0.3090 -2.4351
  935MOL0     H26206   5.181   1.106   8.921  0.2869 -0.8459 -1.8122
  935MOL0     H26207   5.171   1.530   8.939 -0.0456  0.0668 -0.0847
  935MOL0     H26208   5.223   1.736   8.971 -1.0627 -1.0653 -1.7327
  935MOL0     H26209   4.664   3.665   8.667 -0.3744  0.0485 -0.2575
  935MOL0     H26210   4.804   3.868   8.647  1.4904  0.0004 -0.0428
  935MOL0     H26211   5.135   4.151   8.589  2.7504  0.5501  2.1144
  935MOL0     H26212   5.297   4.314   8.562  1.4706  2.8302 -1.5177
  935MOL0     H26213   5.503   4.406   8.148 -0.0107  1.0344 -0.0302
  935MOL0     H26214   5.570   4.273   8.244  2.9080  0.9668  1.6406
  935MOL0     H26215   5.639   4.463   8.418  0.0409  1.5302  0.1323
  935MOL0     H26216   5.596   4.565   8.284 -1.5522 -0.0837  1.1371
  935MOL0     H26217   5.830   4.541   8.236  0.2591  0.7474  0.2299
  935MOL0     H26218   5.784   4.391   8.156  1.0163 -0.1188  0.9797
  935MOL0     H26219   5.864   4.409   8.443 -0.9244 -0.4106  0.5757
  935MOL0     H26220   5.825   4.253   8.345  2.8227 -0.0950 -3.3175
  935MOL0     H26221   6.231   4.303   8.261  0.1392  4.4121 -2.0221
  935MOL0     H26222   5.354   4.205   8.154 -0.5267  1.2646  0.1853
  935MOL0     H26223   5.225   3.866   8.195 -1.3507  0.1940  0.5467
  935MOL0     H26224   5.088   3.967   8.142 -0.4514  1.9712  1.7816
  935MOL0     H26225   5.255   3.972   8.065  0.0310  1.3640 -0.4547
  936MOL0     O26226   7.692  10.849  10.884 -0.3784 -0.5301 -0.8668
  936MOL0     C26227   7.605  10.771  10.847 -0.5708  0.6183 -0.2588
  936MOL0     O26228   7.505  10.805  10.757 -0.8408 -0.2826  0.7110
  936MOL0     C26229   7.532  10.895  10.657 -0.5467  0.4269 -0.3833
  936MOL0     C26230   7.473  11.020  10.663 -0.5077  0.2628  0.0150
  936MOL0     C26231   7.499  11.115  10.560 -0.2523 -0.9623 -0.2221
  936MOL0     C26232   7.599  11.094  10.460  0.6200 -0.1691 -0.1648
  936MOL0     O26233   7.628  11.203  10.380  0.3519  0.1135  0.1985
  936MOL0     C26234   7.752  11.199  10.298  0.1285 -0.7201  1.4197
  936MOL0     C26235   7.759  11.333  10.212  0.3127  0.0234  0.3172
  936MOL0     C26236   7.630  11.366  10.129 -0.3657  0.1159 -0.2585
  936MOL0     C26237   7.591  11.248  10.035  0.1563  0.0169  0.4535
  936MOL0     C26238   7.496  11.297   9.928  0.0896 -0.1773  0.4284
  936MOL0     C26239   7.463  11.180   9.834 -0.8782 -0.0093 -0.4001
  936MOL0     C26240   7.382  11.225   9.708  0.7410 -0.8470  0.0433
  936MOL0     C26241   7.474  11.284   9.593 -0.1474  0.9155 -0.6145
  936MOL0     N26242   7.389  11.311   9.477 -0.4120 -0.0002  0.1480
  936MOL0     C26243   7.376  11.229   9.366  0.1295  0.6113  0.3995
  936MOL0     C26244   7.292  11.288   9.285  0.0059 -1.1653 -0.0348
  936MOL0     C26245   7.275  11.248   9.140  0.7046  0.4854  0.4138
  936MOL0     C26246   7.207  11.105   9.132 -0.8314  0.0578 -0.7202
  936MOL0     C26247   7.075  11.086   9.196  0.4427  0.6312 -0.0129
  936MOL0     C26248   6.986  11.211   9.180  0.2180  0.3475  0.4901
  936MOL0     O26249   6.850  11.174   9.198  1.1575 -0.6172 -0.1131
  936MOL0     C26250   6.755  11.246   9.132 -0.2667  0.3059 -1.2184
  936MOL0     C26251   6.766  11.388   9.109  0.7073  0.1464 -0.5428
  936MOL0     C26252   6.663  11.461   9.053  0.5450 -0.2680  0.1530
  936MOL0     C26253   6.544  11.393   9.019 -0.5716  1.1285 -0.3284
  936MOL0     C26254   6.436  11.456   8.943 -0.2753 -0.3364 -0.9735
  936MOL0     O26255   6.460  11.582   8.889  0.4708 -0.1859 -0.6943
  936MOL0     C26256   6.368  11.638   8.800  0.1461 -0.1590 -0.4339
  936MOL0     C26257   6.283  11.566   8.716 -0.1842 -0.7566 -0.0473
  936MOL0     C26258   6.196  11.632   8.630  0.1454 -0.5059 -0.3786
  936MOL0     C26259   6.175  11.774   8.636  0.8523 -0.4392  0.2553
  936MOL0     O26260   6.089  11.858   8.560  0.3259  0.0275 -0.1344
  936MOL0     C26261   5.970  11.789   8.527  0.3531 -0.6786 -0.4408
  936MOL0     C26262   5.879  11.732   8.640 -0.0360  0.0715  0.1597
  936MOL0     C26263   5.768  11.655   8.572 -0.4116 -0.1416 -0.4579
  936MOL0     C26264   5.809  11.506   8.540  0.0415  0.0761  0.5532
  936MOL0     C26265   5.693  11.428   8.460  0.0959 -0.6927  0.2479
  936MOL0     C26266   5.571  11.392   8.561 -0.0581 -0.6380 -1.1830
  936MOL0     C26267   5.453  11.329   8.485 -0.6878  0.0031 -0.2360
  936MOL0     C26268   5.340  11.421   8.450  0.3394  0.1333 -0.5384
  936MOL0    Cl26269   5.388  11.520   8.321 -0.1649 -0.5274  0.0977
  936MOL0     C26270   6.255  11.842   8.729  0.5278 -0.0429 -0.3573
  936MOL0     C26271   6.354  11.777   8.809 -0.1363 -0.3973  0.3777
  936MOL0     O26272   6.340  11.382   8.930  0.2435 -0.2313  0.2523
  936MOL0     C26273   6.525  11.257   9.052  0.6267 -1.0921  0.0819
  936MOL0     C26274   6.635  11.183   9.110  0.1555 -0.9313  0.5386
  936MOL0     N26275   7.238  11.401   9.344 -0.7671 -0.3385 -0.5131
  936MOL0     N26276   7.300  11.410   9.469 -0.1621 -0.2834  0.0542
  936MOL0     C26277   7.673  10.970  10.467 -0.2280 -0.1697 -0.0195
  936MOL0     C26278   7.630  10.868  10.563 -0.2667 -1.0320 -0.0696
  936MOL0     C26279   7.604  10.642  10.920 -0.0079  0.1366  0.3319
  936MOL0     C26280   7.508  10.540  10.883  0.0962 -0.3463 -0.0636
  936MOL0     C26281   7.493  10.417  10.943 -0.4218  0.1010 -0.3573
  936MOL0     C26282   7.577  10.377  11.047  0.0304  0.6813 -0.8304
  936MOL0     O26283   7.577  10.242  11.089 -0.3037 -0.4787  0.0157
  936MOL0     C26284   7.667  10.209  11.197 -0.4270 -0.2632  0.7094
  936MOL0     C26285   7.645  10.064  11.220  0.6424  1.1484 -0.3042
  936MOL0     C26286   7.654   9.975  11.093 -0.3788  0.1390 -0.7886
  936MOL0     C26287   7.731   9.846  11.116 -0.0193 -0.0091 -0.2581
  936MOL0     C26288   7.636   9.744  11.162  0.9426 -0.3874  0.2900
  936MOL0     C26289   7.543   9.678  11.196 -0.3753  0.1330 -0.3419
  936MOL0     C26290   7.668  10.481  11.097  1.0577  0.3089 -0.8536
  936MOL0     C26291   7.681  10.608  11.038  0.3539  0.0908 -0.1917
  936MOL0     C26292   7.780  10.693  11.108 -0.1358 -0.8587 -0.3902
  936MOL0     H26293   7.403  11.048  10.741  0.2449  2.5301 -0.0573
  936MOL0     H26294   7.446  11.210  10.568 -0.7486 -1.2284 -0.3501
  936MOL0     H26295   7.844  11.191  10.357  0.8411  1.8227  0.7565
  936MOL0     H26296   7.754  11.114  10.229 -0.2067 -0.9702  1.7123
  936MOL0     H26297   7.837  11.331  10.136 -1.5590  0.7666 -1.7355
  936MOL0     H26298   7.799  11.403  10.286 -0.0912 -0.4881  1.0318
  936MOL0     H26299   7.649  11.458  10.073  0.6641  0.7236  1.0341
  936MOL0     H26300   7.554  11.390  10.203  0.4034 -1.1009  0.9916
  936MOL0     H26301   7.678  11.198   9.991  1.2414 -0.7874  3.2832
  936MOL0     H26302   7.547  11.168  10.095  0.9631 -0.8237 -0.0522
  936MOL0     H26303   7.405  11.335   9.976  0.7614 -0.5172  2.0032
  936MOL0     H26304   7.546  11.379   9.875 -1.9072 -0.1233 -1.5194
  936MOL0     H26305   7.553  11.125   9.806  0.9040  2.5617 -0.0821
  936MOL0     H26306   7.403  11.121   9.904  0.4931  0.3690  1.1537
  936MOL0     H26307   7.293  11.282   9.735  1.2343 -0.5005  0.9666
  936MOL0     H26308   7.352  11.140   9.646  1.9121  0.0642 -1.8882
  936MOL0     H26309   7.531  11.372   9.624 -1.8142  1.8084  0.0588
  936MOL0     H26310   7.547  11.209   9.562  0.8801  1.8750 -0.5607
  936MOL0     H26311   7.441  11.149   9.332  2.8770  3.1093 -0.6982
  936MOL0     H26312   7.216  11.325   9.089  1.6087 -0.6353 -2.5252
  936MOL0     H26313   7.368  11.239   9.083 -0.7467 -0.1473 -1.9963
  936MOL0     H26314   7.192  11.068   9.030  1.4099 -0.9132 -0.7595
  936MOL0     H26315   7.285  11.038   9.169  0.0371  0.0696 -2.4607
  936MOL0     H26316   7.097  11.076   9.302 -0.6988  2.3687  0.4191
  936MOL0     H26317   7.025  10.999   9.150 -1.2256  1.6564 -0.2231
  936MOL0     H26318   6.999  11.254   9.080  2.5922 -1.3622 -0.0004
  936MOL0     H26319   6.994  11.285   9.260 -1.3776 -0.6393  1.6292
  936MOL0     H26320   6.863  11.435   9.120  0.3175  0.4010  3.5553
  936MOL0     H26321   6.669  11.567   9.035 -1.3446  0.2948  2.4212
  936MOL0     H26322   6.293  11.459   8.701 -2.7123 -0.7436 -2.6660
  936MOL0     H26323   6.174  11.583   8.536 -1.3155  3.2690 -2.2082
  936MOL0     H26324   5.932  11.883   8.485  0.2286  0.6066  2.3168
  936MOL0     H26325   5.985  11.719   8.444  0.2635 -0.4193 -0.6783
  936MOL0     H26326   5.932  11.655   8.696  1.5032  0.0520 -1.2438
  936MOL0     H26327   5.843  11.813   8.704  1.2063 -0.0312  1.0262
  936MOL0     H26328   5.690  11.651   8.649 -0.8538  5.5183 -0.2421
  936MOL0     H26329   5.727  11.704   8.483  0.9452  2.6195  0.3475
  936MOL0     H26330   5.831  11.454   8.634  3.6494 -2.5540 -1.4903
  936MOL0     H26331   5.903  11.507   8.484  0.6312 -1.0517  1.4797
  936MOL0     H26332   5.723  11.329   8.424  0.0893  0.5056 -3.3951
  936MOL0     H26333   5.663  11.485   8.372  1.7001  0.2485  0.2679
  936MOL0     H26334   5.617  11.334   8.642 -1.7391 -2.4675 -1.4666
  936MOL0     H26335   5.542  11.488   8.605  0.4744 -0.4814 -1.1635
  936MOL0     H26336   5.417  11.254   8.556  0.6212 -0.0414  0.4252
  936MOL0     H26337   5.487  11.279   8.394  0.0663 -0.7152  0.4331
  936MOL0     H26338   5.255  11.364   8.412 -0.6528  0.2091  1.4380
  936MOL0     H26339   5.294  11.479   8.531 -0.7272 -1.4563  0.0550
  936MOL0     H26340   6.227  11.946   8.725 -0.1915 -0.2038  0.3160
  936MOL0     H26341   6.400  11.836   8.887 -1.4258  0.9362  0.1627
  936MOL0     H26342   6.434  11.201   9.032 -0.4544  1.4448 -2.8745
  936MOL0     H26343   6.622  11.079   9.139 -2.4760 -0.3357  1.8425
  936MOL0     H26344   7.761  10.948  10.408  2.0414  2.9699  1.9225
  936MOL0     H26345   7.679  10.771  10.554 -0.1513 -0.8074 -2.2705
  936MOL0     H26346   7.434  10.557  10.805 -2.1840  1.0950  2.2411
  936MOL0     H26347   7.401  10.364  10.922 -1.5212  1.3729  1.0273
  936MOL0     H26348   7.640  10.273  11.282 -1.0655  2.1204 -1.1670
  936MOL0     H26349   7.765  10.232  11.156 -1.7542  1.6593 -1.6262
  936MOL0     H26350   7.548  10.059  11.270  1.0871 -0.2371  0.4559
  936MOL0     H26351   7.713  10.029  11.299 -0.4029  1.7245  0.8905
  936MOL0     H26352   7.707  10.034  11.016 -1.2999  0.7978 -0.9367
  936MOL0     H26353   7.557   9.954  11.046 -0.7405  3.2167 -1.6935
  936MOL0     H26354   7.771   9.811  11.021 -0.1436  0.6416 -0.5526
  936MOL0     H26355   7.815   9.857  11.186 -1.3574  1.9293  1.1711
  936MOL0     H26356   7.456   9.619  11.219  0.2946  0.1174  2.6171
  936MOL0     H26357   7.718  10.465  11.192 -1.0047 -0.1410  0.2200
  936MOL0     H26358   7.860  10.729  11.043  1.0194 -1.5783  0.6047
  936MOL0     H26359   7.725  10.777  11.150 -1.1852 -1.3540 -0.7253
  936MOL0     H26360   7.844  10.652  11.186  4.4603  0.9958 -2.8110
  937MOL0     O26361   9.735  10.598   7.851 -0.7301 -0.7365  0.7858
  937MOL0     C26362   9.620  10.553   7.840  0.1487 -0.4125 -0.1178
  937MOL0     O26363   9.518  10.602   7.920 -0.3296  0.1977  0.8357
  937MOL0     C26364   9.542  10.698   8.017 -0.2306  0.3049  0.3930
  937MOL0     C26365   9.619  10.675   8.134 -0.3878 -0.8853  0.2236
  937MOL0     C26366   9.608  10.765   8.246  0.2205 -0.5198 -0.3015
  937MOL0     C26367   9.531  10.879   8.232 -0.3232 -0.9090  0.4125
  937MOL0     O26368   9.529  10.972   8.330  0.2579  0.1232  0.8765
  937MOL0     C26369   9.530  10.943   8.467 -0.3177  1.1701 -0.4843
  937MOL0     C26370   9.654  10.997   8.531  0.1185  0.3236  0.8794
  937MOL0     C26371   9.669  11.144   8.494 -0.0478 -0.2624  0.2074
  937MOL0     C26372   9.822  11.179   8.503 -0.0639  0.3530 -0.5535
  937MOL0     C26373   9.846  11.319   8.440 -0.5192  0.1592  0.4278
  937MOL0     C26374  10.000  11.358   8.433  0.3283 -0.0541  0.2949
  937MOL0     C26375  10.024  11.487   8.345 -0.1655  0.1510  0.7238
  937MOL0     C26376  10.011  11.461   8.191  0.2885  0.5964 -0.1695
  937MOL0     N26377  10.045  11.575   8.108  0.2469 -0.5693  0.3928
  937MOL0     C26378  10.033  11.588   7.976 -0.2056  0.3447  0.9494
  937MOL0     C26379  10.039  11.725   7.954 -0.5665 -0.5696  1.3503
  937MOL0     C26380   9.994  11.787   7.823  0.1351  0.5005  1.4870
  937MOL0     C26381   9.841  11.758   7.798 -0.2334  0.4875  0.1655
  937MOL0     C26382   9.745  11.841   7.880 -0.0962  0.2951  0.0027
  937MOL0     C26383   9.739  11.786   8.020  0.4057 -0.0236  0.6603
  937MOL0     O26384   9.608  11.812   8.080 -0.0772  0.7922 -0.1786
  937MOL0     C26385   9.593  11.775   8.210  0.2875 -0.7525  0.3717
  937MOL0     C26386   9.473  11.808   8.274  1.0506  0.0889 -0.3441
  937MOL0     C26387   9.440  11.761   8.401 -0.1461  0.4152  0.2748
  937MOL0     C26388   9.541  11.708   8.476 -0.6819  0.3106 -0.0379
  937MOL0     C26389   9.518  11.672   8.621  0.7115 -0.1585 -0.3188
  937MOL0     O26390   9.417  11.744   8.675  0.2620  0.1449  0.3625
  937MOL0     C26391   9.400  11.757   8.810  0.4710 -0.9555 -0.2050
  937MOL0     C26392   9.484  11.713   8.911 -0.5252 -0.0546 -0.4623
  937MOL0     C26393   9.495  11.767   9.035  0.4847  0.1595  0.6528
  937MOL0     C26394   9.409  11.871   9.064  0.4141 -0.2675 -0.4018
  937MOL0     O26395   9.406  11.930   9.191 -0.2050 -1.0299 -0.0301
  937MOL0     C26396   9.525  11.979   9.236  0.2164 -0.0456  0.3420
  937MOL0     C26397   9.493  12.067   9.356 -0.8049  0.5374 -0.3134
  937MOL0     C26398   9.614  12.098   9.441  0.4463  0.4008 -0.1342
  937MOL0     C26399   9.546  12.173   9.560  0.2441  0.9176 -0.3021
  937MOL0     C26400   9.497  12.076   9.670  0.2611  0.5020  0.6424
  937MOL0     C26401   9.491  12.143   9.806  0.3584  0.4790  0.0208
  937MOL0     C26402   9.384  12.254   9.815  0.1331  0.4006  0.8628
  937MOL0     C26403   9.237  12.202   9.788  1.1039  0.0960  0.2010
  937MOL0    Cl26404   9.113  12.328   9.839  0.0362  0.2518  0.2253
  937MOL0     C26405   9.324  11.924   8.968 -0.1155 -0.3428 -0.3101
  937MOL0     C26406   9.325  11.867   8.843  0.3063  0.4681 -0.7954
  937MOL0     O26407   9.591  11.594   8.675 -0.8091 -1.0807  0.2369
  937MOL0     C26408   9.667  11.670   8.418  1.6366 -0.7681  0.6309
  937MOL0     C26409   9.690  11.711   8.285 -0.4350  0.4706  0.0288
  937MOL0     N26410  10.074  11.791   8.068 -0.0437 -0.5302  0.4562
  937MOL0     N26411  10.078  11.698   8.157 -0.1894 -0.1118  0.2675
  937MOL0     C26412   9.463  10.901   8.117  0.3457  0.1265  0.4893
  937MOL0     C26413   9.467  10.813   8.008  0.0103 -0.5807  0.1736
  937MOL0     C26414   9.595  10.462   7.723 -0.0767 -0.3070  0.2505
  937MOL0     C26415   9.462  10.440   7.693  0.2400  0.8595 -0.7600
  937MOL0     C26416   9.413  10.379   7.572 -1.1664 -0.0204 -0.1556
  937MOL0     C26417   9.506  10.332   7.480 -0.1597  0.4882 -0.1832
  937MOL0     O26418   9.468  10.266   7.366 -0.0062  0.5882  0.8805
  937MOL0     C26419   9.338  10.205   7.348 -0.3079  0.0821  0.8494
  937MOL0     C26420   9.367  10.098   7.252 -0.1576  0.0697 -0.2982
  937MOL0     C26421   9.449   9.983   7.322 -0.0910  0.1384 -0.2181
  937MOL0     C26422   9.366   9.862   7.352 -0.0298  0.3475  0.1735
  937MOL0     C26423   9.329   9.783   7.228 -0.7301 -0.6381 -0.0776
  937MOL0     C26424   9.300   9.737   7.124  0.5110  0.2329 -0.0632
  937MOL0     C26425   9.645  10.337   7.517 -0.2444 -0.0688 -1.0087
  937MOL0     C26426   9.686  10.400   7.631 -0.8607 -0.3478  0.3143
  937MOL0     C26427   9.837  10.394   7.660  1.0357 -1.1959  0.4017
  937MOL0     H26428   9.685  10.589   8.138 -0.6657 -1.0526  2.4476
  937MOL0     H26429   9.662  10.757   8.340 -0.7379  0.0639  0.3089
  937MOL0     H26430   9.443  10.992   8.513 -0.0761  1.6213 -0.5032
  937MOL0     H26431   9.533  10.835   8.484  0.5783  1.0550 -1.2963
  937MOL0     H26432   9.731  10.928   8.495 -2.3276 -2.1783  0.0741
  937MOL0     H26433   9.647  10.994   8.640  0.9811  0.1755  0.9378
  937MOL0     H26434   9.623  11.211   8.567 -2.7289 -1.4746 -0.2777
  937MOL0     H26435   9.641  11.159   8.390  1.0360 -2.4091 -0.4707
  937MOL0     H26436   9.848  11.189   8.608 -1.7368  0.5936 -0.1338
  937MOL0     H26437   9.875  11.101   8.447 -0.2325 -0.7884  0.8122
  937MOL0     H26438   9.804  11.325   8.339  0.1850  1.7308  0.2024
  937MOL0     H26439   9.802  11.389   8.512  3.3707  1.0148  2.2512
  937MOL0     H26440  10.032  11.372   8.537  1.3832 -2.2945  0.3322
  937MOL0     H26441  10.061  11.275   8.397  0.3829 -0.4307  1.2054
  937MOL0     H26442  10.129  11.516   8.347  0.0189 -0.3758 -0.4129
  937MOL0     H26443   9.975  11.577   8.385  1.8922  0.6899  2.1409
  937MOL0     H26444  10.085  11.383   8.172 -0.4184  0.0405 -0.7683
  937MOL0     H26445   9.914  11.417   8.164  0.2005  0.2475  0.6958
  937MOL0     H26446   9.992  11.509   7.913 -1.4040  2.5826 -1.2803
  937MOL0     H26447  10.013  11.894   7.806 -0.6066  0.1921 -1.9224
  937MOL0     H26448  10.057  11.734   7.752 -1.6743 -0.3137  0.4210
  937MOL0     H26449   9.816  11.776   7.693  0.0106  1.8262  0.3215
  937MOL0     H26450   9.827  11.651   7.814  0.6484  0.2168 -0.7850
  937MOL0     H26451   9.647  11.824   7.835  0.2986 -3.1187  0.1602
  937MOL0     H26452   9.767  11.948   7.881 -3.5782  1.1108  0.0672
  937MOL0     H26453   9.818  11.835   8.078 -0.3372  1.4894  0.4360
  937MOL0     H26454   9.765  11.680   8.009  2.5783  0.3861  1.4478
  937MOL0     H26455   9.396  11.864   8.223 -0.6130 -2.1099 -0.4386
  937MOL0     H26456   9.340  11.780   8.440  0.2661  1.8336  0.6999
  937MOL0     H26457   9.552  11.629   8.912 -1.6787 -1.0177  0.9871
  937MOL0     H26458   9.561  11.719   9.106  0.5569  1.1419  1.2684
  937MOL0     H26459   9.592  11.896   9.259 -0.0083  0.4081  2.9972
  937MOL0     H26460   9.559  12.046   9.156 -1.8050  1.9836  1.0689
  937MOL0     H26461   9.448  12.162   9.327  3.5179  3.4745  1.4504
  937MOL0     H26462   9.415  12.010   9.407 -0.0596  1.5946  2.1251
  937MOL0     H26463   9.660  12.008   9.481 -0.2112 -0.2284 -0.7718
  937MOL0     H26464   9.689  12.160   9.390 -0.7983  0.7647 -1.5767
  937MOL0     H26465   9.473  12.245   9.521 -1.3311  0.7466  2.0893
  937MOL0     H26466   9.621  12.241   9.601 -0.5336  0.7920  1.4329
  937MOL0     H26467   9.564  11.989   9.672 -1.9609 -1.3596 -0.7677
  937MOL0     H26468   9.398  12.037   9.644  1.4515 -1.6237 -0.9841
  937MOL0     H26469   9.476  12.070   9.886  3.3499  0.5191  0.7492
  937MOL0     H26470   9.591  12.182   9.829  1.1006 -1.2801 -0.0757
  937MOL0     H26471   9.405  12.336   9.745  0.2866  0.6800  1.2318
  937MOL0     H26472   9.386  12.305   9.912  1.2806 -4.1506  3.5283
  937MOL0     H26473   9.219  12.180   9.683 -1.1925  0.1238  0.5277
  937MOL0     H26474   9.230  12.103   9.834 -2.7154 -2.3168 -4.6318
  937MOL0     H26475   9.261  12.012   8.982  0.9967  0.3969  0.2065
  937MOL0     H26476   9.262  11.905   8.764 -3.0023 -3.5568 -0.4541
  937MOL0     H26477   9.741  11.618   8.478  0.9329 -1.4983  0.8771
  937MOL0     H26478   9.789  11.678   8.257 -0.3751  0.5003  0.2050
  937MOL0     H26479   9.399  10.982   8.084 -0.1839 -1.3775 -2.5256
  937MOL0     H26480   9.404  10.825   7.920  2.5392  2.4687 -1.4083
  937MOL0     H26481   9.387  10.462   7.769  0.5977  0.6946 -0.3538
  937MOL0     H26482   9.306  10.367   7.559 -1.4931  0.6395  1.6473
  937MOL0     H26483   9.281  10.275   7.286 -0.9267  1.4784  2.9113
  937MOL0     H26484   9.277  10.177   7.433  0.4321  0.8404  1.6584
  937MOL0     H26485   9.421  10.138   7.165  0.4720 -0.7139 -0.2763
  937MOL0     H26486   9.268  10.064   7.222 -1.3339  2.1034  1.0077
  937MOL0     H26487   9.499  10.024   7.410 -1.7944  0.2056  0.7739
  937MOL0     H26488   9.522   9.943   7.252  0.0985  1.3232 -0.7232
  937MOL0     H26489   9.421   9.792   7.416  0.6930 -0.3039 -1.1389
  937MOL0     H26490   9.279   9.901   7.406 -1.7026 -1.9920 -0.6771
  937MOL0     H26491   9.277   9.683   7.034 -2.0970  4.5023 -2.2786
  937MOL0     H26492   9.727  10.304   7.455 -0.4529 -0.7129 -0.9524
  937MOL0     H26493   9.892  10.470   7.604 -2.5633  0.7390 -0.8041
  937MOL0     H26494   9.865  10.408   7.765  1.5301  0.9398  0.0347
  937MOL0     H26495   9.884  10.296   7.644  0.6142 -0.9949 -2.5924
  938MOL0     O26496   7.520   7.408   3.867 -0.1546  0.4496  0.8051
  938MOL0     C26497   7.638   7.382   3.900  0.5384  0.3322  0.7978
  938MOL0     O26498   7.670   7.267   3.964 -0.3745  0.6978 -0.6332
  938MOL0     C26499   7.581   7.163   3.988 -0.2513 -0.0157  0.6509
  938MOL0     C26500   7.454   7.136   3.936  0.2362  0.6624  0.1401
  938MOL0     C26501   7.367   7.023   3.983 -0.2100  0.0609 -0.2089
  938MOL0     C26502   7.430   6.933   4.067 -0.0434  1.1895 -0.1252
  938MOL0     O26503   7.357   6.835   4.124  0.0574 -1.0076 -1.6671
  938MOL0     C26504   7.411   6.708   4.112 -0.1193 -0.7783 -0.7308
  938MOL0     C26505   7.304   6.613   4.161  0.1501  0.0460  0.1778
  938MOL0     C26506   7.175   6.638   4.075  0.0180  0.0128  0.3813
  938MOL0     C26507   7.046   6.559   4.133 -0.0447 -0.1103  0.2589
  938MOL0     C26508   6.922   6.597   4.042 -0.1212  0.5763 -0.0239
  938MOL0     C26509   6.821   6.480   4.019  0.1207 -0.6284 -0.0760
  938MOL0     C26510   6.754   6.420   4.152 -0.0719 -0.6448  0.8182
  938MOL0     C26511   6.753   6.268   4.146  0.6260  0.1675 -0.6052
  938MOL0     N26512   6.873   6.192   4.178 -1.0935 -0.5114  1.1822
  938MOL0     C26513   6.974   6.211   4.269  0.6434  0.7734 -0.4365
  938MOL0     C26514   7.053   6.106   4.244  0.1492  0.0218  0.5303
  938MOL0     C26515   7.180   6.096   4.324  0.5801 -1.1914  0.9248
  938MOL0     C26516   7.269   6.221   4.376  0.3005 -0.6099  0.2119
  938MOL0     C26517   7.392   6.186   4.463 -0.0876 -0.1629 -0.2771
  938MOL0     C26518   7.437   6.301   4.542 -0.1671 -0.3787 -0.9909
  938MOL0     O26519   7.523   6.391   4.461 -0.4530 -0.1609  0.3369
  938MOL0     C26520   7.593   6.481   4.536 -0.2909  0.0764  0.5148
  938MOL0     C26521   7.590   6.500   4.674  0.0779  0.3827 -0.5516
  938MOL0     C26522   7.676   6.589   4.739  0.4827  0.1317 -0.8178
  938MOL0     C26523   7.753   6.678   4.670 -0.9614  0.5147  0.3740
  938MOL0     C26524   7.831   6.788   4.734 -1.5409 -0.2312 -0.5033
  938MOL0     O26525   7.832   6.904   4.667  0.1559 -0.6019 -0.1667
  938MOL0     C26526   7.883   7.013   4.720  0.1975 -0.1065 -0.0154
  938MOL0     C26527   8.004   7.028   4.794 -0.2959  0.2640  0.2361
  938MOL0     C26528   8.046   7.154   4.839  0.1898 -0.3870 -0.7080
  938MOL0     C26529   7.956   7.265   4.836 -0.1660 -0.3366 -0.3124
  938MOL0     O26530   7.990   7.384   4.887  0.6358 -0.1016 -0.1285
  938MOL0     C26531   8.128   7.424   4.925 -0.6962  1.2032 -0.4228
  938MOL0     C26532   8.151   7.360   5.067 -0.3851 -0.5651 -0.5291
  938MOL0     C26533   8.300   7.339   5.067  0.2022  0.0808 -1.2396
  938MOL0     C26534   8.389   7.465   5.053  0.1213 -0.6911 -0.1614
  938MOL0     C26535   8.531   7.419   5.059  0.4396  0.6851  1.0275
  938MOL0     C26536   8.625   7.537   5.035 -0.3685  0.3085 -0.3038
  938MOL0     C26537   8.765   7.475   5.030 -0.1819  0.3729  0.5016
  938MOL0     C26538   8.857   7.587   5.010  0.2970  0.1555  0.1029
  938MOL0    Cl26539   9.021   7.548   4.959  0.0993 -0.0095 -0.3630
  938MOL0     C26540   7.833   7.246   4.776 -0.6334  0.7713  0.0948
  938MOL0     C26541   7.795   7.125   4.716  0.6541 -0.1595 -0.3679
  938MOL0     O26542   7.881   6.765   4.848  0.0809 -0.2079  0.5525
  938MOL0     C26543   7.755   6.659   4.530  0.8195 -0.8649  0.4337
  938MOL0     C26544   7.680   6.563   4.466 -0.3304  0.3179  0.1349
  938MOL0     N26545   7.023   6.028   4.131  0.4209 -0.1349  0.4871
  938MOL0     N26546   6.909   6.081   4.099 -1.1680  1.0801 -0.6738
  938MOL0     C26547   7.573   6.953   4.099  0.9973 -0.7000  0.0856
  938MOL0     C26548   7.648   7.068   4.061  0.3463 -0.1299 -0.6849
  938MOL0     C26549   7.749   7.484   3.899  0.4894  0.9735 -0.5499
  938MOL0     C26550   7.855   7.468   3.986 -0.0041 -0.1545 -0.8334
  938MOL0     C26551   7.969   7.558   3.990 -0.1937  0.1185 -0.2364
  938MOL0     C26552   7.964   7.676   3.908 -0.5897 -0.7676  0.4197
  938MOL0     O26553   8.072   7.762   3.919 -0.3425 -0.2749 -0.0647
  938MOL0     C26554   8.080   7.886   3.841  0.0444  0.2883  0.5805
  938MOL0     C26555   8.209   7.972   3.891  2.0014  1.0392  0.2984
  938MOL0     C26556   8.343   7.883   3.899  0.8389  0.4447 -0.4505
  938MOL0     C26557   8.447   7.944   3.997 -0.0341 -0.6180 -0.0977
  938MOL0     C26558   8.462   8.088   3.980 -0.4432  0.0380  0.6631
  938MOL0     C26559   8.471   8.204   3.974  0.1649 -0.5819  0.3986
  938MOL0     C26560   7.864   7.681   3.808  0.3735  0.3814  0.3609
  938MOL0     C26561   7.756   7.588   3.808 -0.1345 -1.1855 -0.5466
  938MOL0     C26562   7.651   7.604   3.697 -0.5384  0.0102  0.4222
  938MOL0     H26563   7.411   7.180   3.847  0.4429 -0.4606 -0.5433
  938MOL0     H26564   7.260   7.006   3.974 -0.1734 -0.4458  0.3113
  938MOL0     H26565   7.440   6.674   4.012  0.7858  1.5385 -1.3150
  938MOL0     H26566   7.498   6.718   4.177  0.0233  5.2775 -1.3053
  938MOL0     H26567   7.291   6.634   4.267  1.2000 -0.0093  0.3247
  938MOL0     H26568   7.332   6.509   4.144 -1.9693 -0.5054 -0.2521
  938MOL0     H26569   7.195   6.598   3.976 -1.5917 -0.0356  0.0496
  938MOL0     H26570   7.150   6.744   4.074  1.0169  0.3396  2.7775
  938MOL0     H26571   7.065   6.452   4.139 -0.7250 -0.2006  0.9481
  938MOL0     H26572   7.019   6.591   4.234 -2.1862 -0.7324 -0.0551
  938MOL0     H26573   6.870   6.683   4.085 -3.8231 -0.8247 -1.2982
  938MOL0     H26574   6.958   6.627   3.943 -1.0928  1.9083  0.0031
  938MOL0     H26575   6.749   6.506   3.940 -2.2757  1.1839  2.5098
  938MOL0     H26576   6.881   6.400   3.976  0.9069  0.7320 -1.6528
  938MOL0     H26577   6.650   6.451   4.165 -0.4193 -1.4581  0.1045
  938MOL0     H26578   6.808   6.449   4.242 -0.1366  0.5477  0.4905
  938MOL0     H26579   6.687   6.219   4.218  0.4317  0.8849 -0.2899
  938MOL0     H26580   6.719   6.235   4.047 -2.8480 -2.8272  1.3399
  938MOL0     H26581   6.986   6.289   4.343 -0.0235  0.6537 -0.1922
  938MOL0     H26582   7.141   6.039   4.409 -4.3283 -2.5058 -1.8163
  938MOL0     H26583   7.242   6.033   4.258 -3.3295 -0.5280 -3.9701
  938MOL0     H26584   7.305   6.277   4.289  0.4620 -1.2223 -0.1203
  938MOL0     H26585   7.203   6.280   4.440  0.0143  0.9647 -1.4588
  938MOL0     H26586   7.479   6.158   4.404 -0.3730 -1.5019 -0.0788
  938MOL0     H26587   7.362   6.101   4.525 -0.9443 -1.3471 -2.2602
  938MOL0     H26588   7.497   6.270   4.627  0.6782  0.9410 -1.0655
  938MOL0     H26589   7.351   6.360   4.574 -1.6189 -2.8799 -0.0213
  938MOL0     H26590   7.514   6.451   4.734  0.9081 -0.4186 -0.1226
  938MOL0     H26591   7.656   6.600   4.845  1.8331 -2.6156 -0.1865
  938MOL0     H26592   8.076   6.948   4.808 -0.6094 -0.0309  0.1814
  938MOL0     H26593   8.134   7.145   4.902  0.0958  0.0623 -0.5124
  938MOL0     H26594   8.199   7.386   4.851 -0.4307 -1.7434  1.1700
  938MOL0     H26595   8.137   7.532   4.935  1.6244  0.9519  1.0823
  938MOL0     H26596   8.120   7.438   5.136  0.5689 -1.3718  0.8551
  938MOL0     H26597   8.099   7.266   5.086  2.2849 -2.0296  0.0807
  938MOL0     H26598   8.329   7.278   5.153  1.9424  0.3681 -1.5749
  938MOL0     H26599   8.327   7.279   4.979  0.5461  0.0641 -1.1253
  938MOL0     H26600   8.381   7.537   5.135  1.8864 -1.9154  1.1454
  938MOL0     H26601   8.367   7.520   4.960 -0.2400 -1.5461 -0.6010
  938MOL0     H26602   8.534   7.350   4.974 -1.8594  1.5543  0.1257
  938MOL0     H26603   8.549   7.355   5.145 -0.6756 -2.0114 -0.5972
  938MOL0     H26604   8.597   7.576   4.936  1.5688  0.5160 -0.8102
  938MOL0     H26605   8.616   7.617   5.109 -3.2315  0.8183 -1.0811
  938MOL0     H26606   8.775   7.401   4.950  4.8850  1.4522 -0.2181
  938MOL0     H26607   8.784   7.424   5.125 -0.8366 -0.5029  0.1755
  938MOL0     H26608   8.817   7.647   4.927 -2.6808 -2.5892 -0.6344
  938MOL0     H26609   8.862   7.657   5.094 -1.6724  1.0155 -0.4483
  938MOL0     H26610   7.767   7.332   4.768 -0.2593  0.9244 -1.7331
  938MOL0     H26611   7.703   7.122   4.660 -0.2141  1.3192  0.8932
  938MOL0     H26612   7.829   6.720   4.479 -0.6290 -0.3939 -1.2130
  938MOL0     H26613   7.678   6.551   4.358  0.9408  1.2170 -0.0014
  938MOL0     H26614   7.619   6.870   4.152  0.5067 -2.2083 -1.7328
  938MOL0     H26615   7.750   7.084   4.094 -0.3055  1.8293  0.5648
  938MOL0     H26616   7.845   7.387   4.057 -2.7217 -0.5195 -1.5047
  938MOL0     H26617   8.050   7.543   4.060 -0.6616 -2.4861 -0.1689
  938MOL0     H26618   7.996   7.955   3.831 -0.3228 -0.4336 -2.7149
  938MOL0     H26619   8.111   7.865   3.738  1.3818  0.2511  0.9760
  938MOL0     H26620   8.184   8.030   3.979  3.2300  1.1713  0.5820
  938MOL0     H26621   8.232   8.047   3.815  0.2423  0.5828 -0.7433
  938MOL0     H26622   8.387   7.870   3.800  4.9244  1.2975  1.0445
  938MOL0     H26623   8.325   7.781   3.932  2.0590 -0.0890 -1.3510
  938MOL0     H26624   8.415   7.912   4.097  1.0870  0.7558  0.7338
  938MOL0     H26625   8.547   7.902   3.979  0.1433  0.2448 -1.1751
  938MOL0     H26626   8.462   8.311   3.967 -2.1927 -0.7865 -0.7832
  938MOL0     H26627   7.858   7.764   3.738  2.8216 -2.0468 -3.1351
  938MOL0     H26628   7.613   7.510   3.658 -0.0987  1.0324 -2.7946
  938MOL0     H26629   7.565   7.656   3.742  0.1256  1.1977  0.3586
  938MOL0     H26630   7.682   7.661   3.609 -3.7132 -1.0033 -1.5051
  939MOL0     O26631  10.859   9.856   7.548  0.1689  0.2910 -0.3156
  939MOL0     C26632  10.822   9.870   7.672 -0.4692  0.8037  0.5140
  939MOL0     O26633  10.854   9.799   7.776  0.0898 -0.2725 -0.1171
  939MOL0     C26634  10.967   9.725   7.766  0.3117 -1.4563  0.2604
  939MOL0     C26635  10.971   9.599   7.812 -0.4697  0.2444 -0.2154
  939MOL0     C26636  11.086   9.521   7.793  0.8543  0.1322  0.1037
  939MOL0     C26637  11.202   9.571   7.731  0.0653  0.0901 -0.3362
  939MOL0     O26638  11.308   9.484   7.721  0.3410 -0.3066 -0.5695
  939MOL0     C26639  11.300   9.378   7.621  0.1088 -0.4477 -0.5196
  939MOL0     C26640  11.382   9.426   7.502 -0.2739  0.2047  1.4635
  939MOL0     C26641  11.302   9.521   7.392  0.0818 -0.1007  0.4077
  939MOL0     C26642  11.225   9.450   7.279 -0.2221 -0.6249  0.1545
  939MOL0     C26643  11.145   9.548   7.190 -0.2258 -0.3064 -1.2792
  939MOL0     C26644  11.060   9.480   7.088 -0.3575  0.5135  0.3020
  939MOL0     C26645  11.001   9.568   6.979 -0.2742  1.4176 -0.7634
  939MOL0     C26646  10.921   9.689   7.044  0.1973 -0.1076 -0.3797
  939MOL0     N26647  11.006   9.801   7.104 -0.4044 -0.2637  0.0623
  939MOL0     C26648  10.983   9.865   7.226  0.8835 -0.1534  0.4344
  939MOL0     C26649  11.054   9.978   7.223  0.2937 -0.7929  0.0659
  939MOL0     C26650  11.079  10.065   7.343 -0.2379 -0.8469 -0.0375
  939MOL0     C26651  10.939  10.140   7.370  0.2804 -0.4980  0.0507
  939MOL0     C26652  10.932  10.286   7.317 -0.7703  0.6342 -0.6589
  939MOL0     C26653  10.967  10.297   7.166  0.6191  0.3831  0.4853
  939MOL0     O26654  10.948  10.430   7.120  0.2831 -0.2183  1.4691
  939MOL0     C26655  10.966  10.456   6.989 -0.4430  0.1645 -0.1362
  939MOL0     C26656  10.960  10.588   6.947  0.7898 -0.9059  0.4864
  939MOL0     C26657  10.963  10.617   6.808 -0.1498  1.2988  0.9570
  939MOL0     C26658  10.964  10.506   6.716  0.7016  0.5266  0.4965
  939MOL0     C26659  10.943  10.526   6.574  0.1103  1.0478  0.8243
  939MOL0     O26660  10.888  10.641   6.542  0.4829 -0.2637 -0.2248
  939MOL0     C26661  10.854  10.678   6.416  0.0314  0.2467  0.1570
  939MOL0     C26662  10.841  10.809   6.382 -0.8177 -0.5631  0.4734
  939MOL0     C26663  10.795  10.848   6.254  0.1318 -0.0239 -1.3271
  939MOL0     C26664  10.752  10.759   6.159  0.1669 -0.2905  0.4512
  939MOL0     O26665  10.697  10.805   6.045 -0.0675 -0.6582 -0.0251
  939MOL0     C26666  10.702  10.725   5.926 -0.4315  0.3672 -0.1678
  939MOL0     C26667  10.740  10.810   5.809 -1.0123  0.2851  0.6540
  939MOL0     C26668  10.882  10.872   5.824 -1.2473  0.7133  0.1818
  939MOL0     C26669  10.880  11.017   5.781 -0.3724  0.6081  0.4152
  939MOL0     C26670  11.037  11.055   5.779  1.1672  0.2330 -0.9103
  939MOL0     C26671  11.057  11.189   5.713 -0.4284 -0.1399 -0.1232
  939MOL0     C26672  11.206  11.224   5.724  0.4847 -0.3606  0.6274
  939MOL0     C26673  11.238  11.365   5.684  0.2033 -0.2288  1.1425
  939MOL0    Cl26674  11.177  11.472   5.797 -0.2143  0.3249  0.3557
  939MOL0     C26675  10.765  10.621   6.189  0.8383 -1.1122  0.3287
  939MOL0     C26676  10.814  10.582   6.313  0.0521 -0.3681  0.0715
  939MOL0     O26677  10.985  10.449   6.485  0.9470 -0.2166 -0.4037
  939MOL0     C26678  10.970  10.371   6.761 -0.0068 -0.2762  0.2090
  939MOL0     C26679  10.968  10.350   6.893  0.2408  0.0479  0.8209
  939MOL0     N26680  11.115   9.985   7.099 -0.5089 -0.0602 -0.3465
  939MOL0     N26681  11.097   9.886   7.036  0.0499  0.2536 -0.4926
  939MOL0     C26682  11.198   9.707   7.698 -0.5960  0.3008 -0.5656
  939MOL0     C26683  11.082   9.779   7.709  0.2462  0.3045 -0.7688
  939MOL0     C26684  10.731   9.990   7.690 -0.8325  0.1665 -0.2986
  939MOL0     C26685  10.778  10.075   7.787  0.4587  0.2180  0.2955
  939MOL0     C26686  10.725  10.204   7.799  0.4752 -0.3512 -0.6676
  939MOL0     C26687  10.611  10.243   7.726 -0.3712 -0.3675  0.5274
  939MOL0     O26688  10.550  10.362   7.758  0.1109  0.5947  0.3526
  939MOL0     C26689  10.452  10.417   7.678  0.0212  0.1252  0.6586
  939MOL0     C26690  10.385  10.543   7.741  0.1373  0.5782  0.7297
  939MOL0     C26691  10.309  10.623   7.633 -0.6794  0.6636  0.4707
  939MOL0     C26692  10.250  10.758   7.683  0.4116  1.0150  0.8060
  939MOL0     C26693  10.336  10.839   7.763 -1.5529 -0.1769 -0.0511
  939MOL0     C26694  10.382  10.927   7.827 -0.6881  0.3018  0.7817
  939MOL0     C26695  10.553  10.147   7.640 -0.7193 -0.1895 -0.9718
  939MOL0     C26696  10.616  10.019   7.617 -0.4811 -0.4481 -1.3182
  939MOL0     C26697  10.576   9.934   7.509 -0.3640  0.0904 -0.2309
  939MOL0     H26698  10.880   9.561   7.857 -2.0514  4.6677  0.8269
  939MOL0     H26699  11.078   9.417   7.824 -1.1211 -0.2675 -1.5166
  939MOL0     H26700  11.350   9.289   7.659  0.2461 -0.0108  0.3525
  939MOL0     H26701  11.197   9.353   7.595 -0.1528  0.0635 -0.0158
  939MOL0     H26702  11.428   9.347   7.441 -1.3566  1.0341 -0.5154
  939MOL0     H26703  11.473   9.475   7.536  0.4674 -0.5834  0.6724
  939MOL0     H26704  11.381   9.587   7.354 -0.0315  2.7389  4.5158
  939MOL0     H26705  11.217   9.573   7.438 -2.3519  0.0841 -3.7709
  939MOL0     H26706  11.297   9.385   7.228  2.1046  1.8424  0.0633
  939MOL0     H26707  11.160   9.378   7.331 -2.1188  0.0486 -1.1939
  939MOL0     H26708  11.081   9.606   7.258  2.9529  0.6469  1.1773
  939MOL0     H26709  11.211   9.623   7.145  2.5289 -0.3346  2.2010
  939MOL0     H26710  11.115   9.398   7.041 -1.2333  1.6296 -2.9065
  939MOL0     H26711  10.973   9.435   7.135 -1.0094  1.0090 -0.4077
  939MOL0     H26712  10.932   9.502   6.925  0.0313  1.3555 -1.0770
  939MOL0     H26713  11.071   9.601   6.903  1.5413  1.1113  0.7054
  939MOL0     H26714  10.842   9.730   6.981 -0.3996 -0.5460  0.0774
  939MOL0     H26715  10.864   9.652   7.129  1.2329  1.8034  1.2585
  939MOL0     H26716  10.903   9.834   7.293  1.9992 -0.7978  1.4946
  939MOL0     H26717  11.089   9.989   7.421 -1.6245  0.1067  1.1368
  939MOL0     H26718  11.170  10.125   7.336  0.4271 -1.5226  1.9270
  939MOL0     H26719  10.852  10.081   7.338 -1.0884  2.3566 -1.9708
  939MOL0     H26720  10.915  10.148   7.477 -1.1780  1.4322 -0.3662
  939MOL0     H26721  11.000  10.346   7.378  0.1306 -1.1598  0.1779
  939MOL0     H26722  10.830  10.324   7.330 -0.3621  1.6842 -0.4224
  939MOL0     H26723  10.906  10.223   7.114  0.1696  0.1150  1.3726
  939MOL0     H26724  11.069  10.260   7.161  0.6289  0.4967 -0.4524
  939MOL0     H26725  10.955  10.663   7.026  0.5771 -1.6365  1.1799
  939MOL0     H26726  10.955  10.722   6.780  0.0307  1.5708  1.8838
  939MOL0     H26727  10.861  10.898   6.441 -3.9286 -0.9749  2.3644
  939MOL0     H26728  10.784  10.956   6.249  1.8894  0.4757  2.2273
  939MOL0     H26729  10.765  10.638   5.948 -1.4062  0.3155  2.7721
  939MOL0     H26730  10.610  10.666   5.918  0.2114 -0.9255  1.3462
  939MOL0     H26731  10.730  10.744   5.722  0.0228 -1.0200  1.4776
  939MOL0     H26732  10.658  10.881   5.803 -1.5851 -0.4597 -0.7960
  939MOL0     H26733  10.915  10.856   5.927  0.9938 -5.7590 -1.0509
  939MOL0     H26734  10.956  10.820   5.762 -0.4471  1.5572  0.4082
  939MOL0     H26735  10.819  11.074   5.852 -1.5434  1.3963 -1.1745
  939MOL0     H26736  10.837  11.037   5.683  1.7869  1.4013 -0.4312
  939MOL0     H26737  11.092  10.980   5.721  0.2859  0.1064 -1.6240
  939MOL0     H26738  11.072  11.046   5.882  0.8082  3.4734 -0.4218
  939MOL0     H26739  11.034  11.173   5.608 -1.6592 -0.6907  0.2145
  939MOL0     H26740  10.991  11.261   5.763 -2.0588 -0.6342 -1.4972
  939MOL0     H26741  11.255  11.150   5.660 -0.2290  0.4277 -0.9018
  939MOL0     H26742  11.239  11.200   5.825  1.9876 -3.3300 -0.4395
  939MOL0     H26743  11.346  11.382   5.684  0.1108  0.3764  0.7054
  939MOL0     H26744  11.201  11.388   5.585  0.2824  0.1655  1.2056
  939MOL0     H26745  10.714  10.551   6.123  1.0578 -1.2491  0.3057
  939MOL0     H26746  10.815  10.474   6.327  1.7013 -0.9048 -3.1348
  939MOL0     H26747  10.965  10.290   6.689  2.3136  0.3134 -0.7028
  939MOL0     H26748  10.977  10.244   6.913 -2.0242 -0.2817  0.2801
  939MOL0     H26749  11.282   9.762   7.656  0.1899 -0.1852  0.3216
  939MOL0     H26750  11.084   9.879   7.668 -1.9600  0.6764 -0.1118
  939MOL0     H26751  10.874  10.060   7.836  0.6339  3.5139  1.2316
  939MOL0     H26752  10.779  10.273   7.865  0.9488 -0.3279 -1.0734
  939MOL0     H26753  10.367  10.352   7.657 -3.9027  4.8624  0.0618
  939MOL0     H26754  10.497  10.446   7.583  2.0492 -0.1239  1.4991
  939MOL0     H26755  10.456  10.617   7.778  2.5133 -0.9958 -0.4146
  939MOL0     H26756  10.325  10.510   7.826 -3.3134 -0.0072 -1.7024
  939MOL0     H26757  10.236  10.560   7.582  1.3352 -2.9213  1.6915
  939MOL0     H26758  10.370  10.658   7.549 -1.4126  2.6254  0.6846
  939MOL0     H26759  10.231  10.814   7.590  1.6456 -0.3470 -0.3159
  939MOL0     H26760  10.157  10.736   7.735  0.0134  1.2002  0.1831
  939MOL0     H26761  10.440  10.991   7.890  4.5375 -0.2655 -2.8222
  939MOL0     H26762  10.466  10.182   7.585 -1.6478  3.4942  2.4131
  939MOL0     H26763  10.541   9.836   7.544  0.5514 -0.2133 -0.1576
  939MOL0     H26764  10.491   9.986   7.464  0.1209  2.4940  1.4140
  939MOL0     H26765  10.654   9.929   7.433 -0.5769 -0.4198 -0.4247
  940MOL0     O26766   5.234   8.856   7.729  0.1388  0.1409 -0.5498
  940MOL0     C26767   5.185   8.906   7.623 -0.5944 -0.2838 -0.7397
  940MOL0     O26768   5.047   8.938   7.613  0.0599  0.4456  0.2819
  940MOL0     C26769   4.947   8.865   7.672 -1.0293  0.9503  0.3631
  940MOL0     C26770   4.830   8.917   7.730  0.5540 -0.1288  0.9128
  940MOL0     C26771   4.739   8.836   7.796 -0.3261 -0.6047  0.3550
  940MOL0     C26772   4.756   8.697   7.793  0.6398 -0.1944  0.0669
  940MOL0     O26773   4.681   8.606   7.862 -0.0016 -0.6597  0.6311
  940MOL0     C26774   4.673   8.632   8.005  0.0938 -0.3285  0.3044
  940MOL0     C26775   4.602   8.524   8.090 -0.3356 -0.0973 -0.3938
  940MOL0     C26776   4.494   8.445   8.003 -0.2469 -0.2758 -0.7050
  940MOL0     C26777   4.387   8.536   7.944 -0.4474  0.7979  0.8634
  940MOL0     C26778   4.264   8.454   7.907  0.2741 -0.1910  0.0687
  940MOL0     C26779   4.171   8.545   7.825 -0.1904  0.5449 -0.0758
  940MOL0     C26780   4.214   8.566   7.688  0.1931 -0.8903 -0.2790
  940MOL0     C26781   4.142   8.683   7.617 -1.1260 -0.7031  0.5142
  940MOL0     N26782   3.994   8.683   7.636 -0.2622  0.1165 -1.0985
  940MOL0     C26783   3.916   8.571   7.627 -0.8247 -0.0714  0.1717
  940MOL0     C26784   3.791   8.609   7.667 -0.2861 -0.4584 -0.2809
  940MOL0     C26785   3.671   8.521   7.670 -0.4733 -0.3939  0.7803
  940MOL0     C26786   3.593   8.513   7.533  0.8093  0.3335 -0.2388
  940MOL0     C26787   3.501   8.637   7.499 -0.4445  0.4126  0.8696
  940MOL0     C26788   3.577   8.748   7.424 -0.4945 -0.3688  0.6164
  940MOL0     O26789   3.581   8.701   7.291  0.7101  0.1946  0.1859
  940MOL0     C26790   3.569   8.784   7.186 -0.7111  0.7900  0.8974
  940MOL0     C26791   3.544   8.921   7.199  0.9355  0.0501 -0.2958
  940MOL0     C26792   3.550   9.007   7.087 -0.1415 -0.5835  0.4420
  940MOL0     C26793   3.560   8.955   6.953 -0.2659 -0.4323  0.1954
  940MOL0     C26794   3.576   9.051   6.839 -1.4402  0.1245  0.6924
  940MOL0     O26795   3.589   9.183   6.864 -0.7318  0.0100 -0.4263
  940MOL0     C26796   3.632   9.284   6.779 -0.3047  0.0332  0.4047
  940MOL0     C26797   3.615   9.277   6.644  0.1234  0.1155 -0.0960
  940MOL0     C26798   3.673   9.369   6.555 -0.0722 -0.1821  0.2038
  940MOL0     C26799   3.726   9.488   6.604 -0.2595 -0.8097  0.2464
  940MOL0     O26800   3.756   9.576   6.509  0.6051 -0.2411  0.2954
  940MOL0     C26801   3.856   9.684   6.526  0.0263  0.2090 -0.1017
  940MOL0     C26802   3.921   9.731   6.394  1.0726  0.4548  0.6603
  940MOL0     C26803   3.812   9.786   6.307 -0.4639 -0.4364  0.3434
  940MOL0     C26804   3.865   9.837   6.169  0.3358 -0.2237  1.1343
  940MOL0     C26805   3.757   9.855   6.061  0.4223  0.6703 -0.4240
  940MOL0     C26806   3.818   9.852   5.927 -0.3792 -0.1147  0.1698
  940MOL0     C26807   3.730   9.841   5.806  0.7536  0.1239 -0.1490
  940MOL0     C26808   3.617   9.946   5.816  0.5675 -0.0146  0.3276
  940MOL0    Cl26809   3.529   9.964   5.660  0.3625 -0.0211  0.3976
  940MOL0     C26810   3.752   9.495   6.739  0.7977  0.4568  0.5009
  940MOL0     C26811   3.709   9.397   6.823  0.8262 -0.7805  0.5165
  940MOL0     O26812   3.576   8.997   6.728  0.5708  0.0295  0.4092
  940MOL0     C26813   3.558   8.813   6.942  0.2340 -0.3795 -0.1159
  940MOL0     C26814   3.580   8.727   7.057  0.2339  0.1158  0.8681
  940MOL0     N26815   3.796   8.745   7.687  0.8562 -0.2279 -1.1022
  940MOL0     N26816   3.920   8.784   7.688  0.1757  0.0936  0.2043
  940MOL0     C26817   4.874   8.645   7.744 -0.7498  0.3884 -0.3434
  940MOL0     C26818   4.965   8.727   7.675  0.5029  0.1215 -0.9114
  940MOL0     C26819   5.281   8.964   7.524  0.2310 -0.4787  0.6368
  940MOL0     C26820   5.224   8.983   7.395  0.2524 -0.6932 -0.4226
  940MOL0     C26821   5.293   9.037   7.287 -1.3567  0.1495  0.4498
  940MOL0     C26822   5.435   9.061   7.307 -0.0027 -0.8660  0.2768
  940MOL0     O26823   5.504   9.103   7.196 -0.0704 -0.4186  0.1198
  940MOL0     C26824   5.648   9.121   7.190  0.3997 -0.0974 -0.0665
  940MOL0     C26825   5.744   8.997   7.197 -0.1195 -0.0554  0.3679
  940MOL0     C26826   5.740   8.912   7.070 -0.8563 -0.2135  0.7064
  940MOL0     C26827   5.793   8.978   6.937 -0.0121 -0.3786 -0.4325
  940MOL0     C26828   5.935   9.011   6.940 -0.6930 -0.6076 -0.1909
  940MOL0     C26829   6.047   9.052   6.944 -0.2887  0.3991 -0.0754
  940MOL0     C26830   5.480   9.063   7.432 -0.4811  0.0111  0.4539
  940MOL0     C26831   5.412   9.021   7.539 -0.6671  0.0081 -0.6975
  940MOL0     C26832   5.502   9.008   7.668 -0.0669  0.1078  0.0678
  940MOL0     H26833   4.827   9.026   7.729  1.1459 -0.1091  0.5477
  940MOL0     H26834   4.665   8.887   7.856 -0.4542  1.4571 -1.4205
  940MOL0     H26835   4.770   8.652   8.051 -1.1069 -0.8534  3.2849
  940MOL0     H26836   4.608   8.719   8.014  0.0451 -0.5302  2.3768
  940MOL0     H26837   4.544   8.578   8.166 -1.6514 -0.3677 -1.1697
  940MOL0     H26838   4.672   8.458   8.141  2.3644  2.5532 -0.3685
  940MOL0     H26839   4.457   8.362   8.063 -1.0930  0.3013 -0.4069
  940MOL0     H26840   4.548   8.392   7.924 -1.2366 -1.3510 -0.6899
  940MOL0     H26841   4.370   8.618   8.015 -1.1596  0.5079  1.0388
  940MOL0     H26842   4.433   8.582   7.856 -1.0207  0.3196  0.3081
  940MOL0     H26843   4.287   8.364   7.851 -2.0513  0.2298 -1.6906
  940MOL0     H26844   4.193   8.433   7.988 -1.6093  1.2703 -1.1206
  940MOL0     H26845   4.073   8.497   7.827 -0.3633  0.8979  0.1188
  940MOL0     H26846   4.148   8.636   7.881 -2.9213  1.2371 -2.0934
  940MOL0     H26847   4.199   8.474   7.631  0.4633 -0.6968 -0.6640
  940MOL0     H26848   4.321   8.583   7.678  0.2926 -2.2593 -2.0442
  940MOL0     H26849   4.199   8.771   7.647 -0.2170 -0.8646 -0.6555
  940MOL0     H26850   4.159   8.679   7.509  1.4172  1.0698  0.7653
  940MOL0     H26851   3.951   8.481   7.578  1.3676  0.0614  1.3535
  940MOL0     H26852   3.685   8.422   7.713  0.9294 -0.7428 -0.4016
  940MOL0     H26853   3.599   8.576   7.732 -0.7279  0.3269 -0.1152
  940MOL0     H26854   3.658   8.492   7.447  1.0125  0.0435 -0.0191
  940MOL0     H26855   3.526   8.427   7.543 -1.8540  2.2965 -0.1479
  940MOL0     H26856   3.461   8.672   7.595  0.7920 -2.1234  2.4197
  940MOL0     H26857   3.420   8.602   7.435  0.2089 -1.2450  0.8883
  940MOL0     H26858   3.677   8.778   7.458 -0.7871 -1.0713  2.1645
  940MOL0     H26859   3.508   8.830   7.450  3.1057  2.6420  1.5535
  940MOL0     H26860   3.554   8.972   7.294 -0.2103  0.8212 -0.5726
  940MOL0     H26861   3.541   9.114   7.102 -1.4996 -0.7307  0.8870
  940MOL0     H26862   3.568   9.195   6.590  0.0243  0.7429 -0.9835
  940MOL0     H26863   3.649   9.349   6.451 -0.0812 -1.7268  0.4721
  940MOL0     H26864   3.811   9.775   6.568  0.0654 -0.1416  0.7040
  940MOL0     H26865   3.942   9.646   6.583  0.4775  0.6570 -0.4690
  940MOL0     H26866   3.997   9.809   6.412 -1.1990  3.0687 -0.4189
  940MOL0     H26867   3.975   9.647   6.348  0.2522  0.9770 -1.3509
  940MOL0     H26868   3.738   9.709   6.283 -0.4375 -0.1184 -0.8169
  940MOL0     H26869   3.770   9.867   6.368  0.6726 -0.4370  1.1670
  940MOL0     H26870   3.943   9.763   6.146 -0.2187 -0.9997  1.7106
  940MOL0     H26871   3.921   9.930   6.182  0.6391 -0.4590  1.5549
  940MOL0     H26872   3.693   9.942   6.077 -1.3634 -0.9105  1.5675
  940MOL0     H26873   3.688   9.773   6.079 -1.0743  1.9482 -0.1595
  940MOL0     H26874   3.875   9.944   5.910  0.4887 -0.3118  1.7786
  940MOL0     H26875   3.882   9.764   5.918  0.6989  0.8959 -3.7792
  940MOL0     H26876   3.681   9.744   5.811  1.0204 -0.0079 -0.0636
  940MOL0     H26877   3.798   9.846   5.720  3.6216 -0.2772  1.9594
  940MOL0     H26878   3.533   9.915   5.879 -0.5751  2.9299  0.4181
  940MOL0     H26879   3.642  10.041   5.863 -3.7407  0.7822  1.4021
  940MOL0     H26880   3.774   9.590   6.787  0.2582  0.5278  0.6134
  940MOL0     H26881   3.730   9.412   6.928  0.4808 -0.4625  0.5462
  940MOL0     H26882   3.563   8.778   6.840  1.2203  0.8943 -0.5458
  940MOL0     H26883   3.596   8.620   7.044 -0.6993  0.1914 -1.3590
  940MOL0     H26884   4.887   8.537   7.753  0.0323  0.6510  4.0660
  940MOL0     H26885   5.051   8.677   7.633 -0.7799 -2.4629 -0.6372
  940MOL0     H26886   5.121   8.957   7.376 -0.8436  1.5169  1.9565
  940MOL0     H26887   5.243   9.040   7.191 -3.7733  2.4718  1.6652
  940MOL0     H26888   5.676   9.190   7.270  2.7959 -0.1119 -0.8146
  940MOL0     H26889   5.669   9.171   7.096  4.2403 -1.9216 -0.3996
  940MOL0     H26890   5.713   8.948   7.290  1.1923 -1.4614  0.0978
  940MOL0     H26891   5.847   9.026   7.216 -0.3570  0.2708  1.1982
  940MOL0     H26892   5.640   8.870   7.059 -2.0384  2.7336 -0.8661
  940MOL0     H26893   5.793   8.818   7.083  0.3864  0.3858  0.1440
  940MOL0     H26894   5.767   8.913   6.853 -2.7248 -1.7897  1.3660
  940MOL0     H26895   5.737   9.072   6.929  1.4525  0.7136  1.3424
  940MOL0     H26896   6.146   9.090   6.927  1.2392 -3.0304  0.2424
  940MOL0     H26897   5.583   9.098   7.440 -0.6913  0.4865  1.3026
  940MOL0     H26898   5.458   9.055   7.757 -2.2225 -2.6181  0.5835
  940MOL0     H26899   5.523   8.905   7.697 -1.0786  0.3040  1.6042
  940MOL0     H26900   5.600   9.052   7.651  1.0911 -1.2492  2.7364
  941MOL0     O26901  10.781  11.068  10.728  0.4156  0.0105  0.2490
  941MOL0     C26902  10.834  11.171  10.697  0.1622 -0.3011 -0.5959
  941MOL0     O26903  10.968  11.200  10.718 -0.1129 -1.0285  0.7290
  941MOL0     C26904  11.035  11.105  10.782  0.3159 -0.2209  0.6154
  941MOL0     C26905  11.076  10.988  10.708  0.5991 -0.5160  0.5273
  941MOL0     C26906  11.153  10.886  10.764  0.7839 -0.3393 -0.8606
  941MOL0     C26907  11.207  10.919  10.894  0.0096  0.9645  0.1172
  941MOL0     O26908  11.308  10.834  10.937 -0.2787  0.0197  0.0776
  941MOL0     C26909  11.375  10.856  11.060  0.1371 -0.3253  0.4651
  941MOL0     C26910  11.472  10.745  11.096  0.4071  0.0911 -0.3250
  941MOL0     C26911  11.432  10.609  11.056 -0.1897  0.0111  0.1663
  941MOL0     C26912  11.542  10.505  11.070  0.0471 -0.5961  0.3766
  941MOL0     C26913  11.483  10.359  11.064 -0.5523 -1.5450  0.3269
  941MOL0     C26914  11.597  10.254  11.097  0.8236 -0.7662  0.4993
  941MOL0     C26915  11.690  10.232  10.977  1.0960  0.4347 -0.2471
  941MOL0     C26916  11.633  10.134  10.870  0.1151  0.8940 -0.0039
  941MOL0     N26917  11.639   9.989  10.910 -0.2198 -0.3421  0.4462
  941MOL0     C26918  11.533   9.911  10.932  0.7824 -0.4960 -0.3180
  941MOL0     C26919  11.566   9.784  10.904 -0.7392 -0.6153  0.1009
  941MOL0     C26920  11.498   9.651  10.910  0.4631  0.0918  0.1809
  941MOL0     C26921  11.573   9.557  10.992 -0.2221 -0.5371 -0.1453
  941MOL0     C26922  11.486   9.429  11.005 -0.1945  0.0104  1.1846
  941MOL0     C26923  11.511   9.361  11.130  1.2462  0.9138 -0.0561
  941MOL0     O26924  11.451   9.222  11.126 -0.0149 -1.2392  0.6354
  941MOL0     C26925  11.532   9.112  11.109  0.2744 -0.0640  0.0879
  941MOL0     C26926  11.486   8.995  11.169 -0.7844  0.0450  0.3712
  941MOL0     C26927  11.573   8.886  11.148 -0.1091  0.6998 -0.5385
  941MOL0     C26928  11.683   8.888  11.064  0.6766 -0.2820 -0.2155
  941MOL0     C26929  11.761   8.758  11.051 -0.4231 -0.4925 -0.0026
  941MOL0     O26930  11.879   8.782  10.991 -0.1492 -1.1073  0.1743
  941MOL0     C26931  11.952   8.690  10.917  0.2364 -0.7914 -0.5819
  941MOL0     C26932  11.985   8.732  10.785 -0.5780  0.0120 -0.0648
  941MOL0     C26933  12.036   8.641  10.689 -0.8920  0.3009 -0.9015
  941MOL0     C26934  12.044   8.506  10.730  0.4349 -0.2906 -1.0290
  941MOL0     O26935  12.061   8.416  10.631 -0.5471  0.4449 -0.2114
  941MOL0     C26936  12.093   8.281  10.664 -0.2997 -0.1791  0.6655
  941MOL0     C26937  12.143   8.216  10.535 -1.0642 -1.0948  0.2089
  941MOL0     C26938  12.186   8.059  10.536 -0.5341  0.0555 -0.8232
  941MOL0     C26939  12.269   8.018  10.416 -0.0380  0.0719 -0.3175
  941MOL0     C26940  12.284   7.866  10.427  1.1955  0.1571  0.0459
  941MOL0     C26941  12.374   7.812  10.312  0.2815  0.2908 -0.5378
  941MOL0     C26942  12.522   7.843  10.338  0.0848 -1.1947 -1.1132
  941MOL0     C26943  12.610   7.813  10.221  0.3997  0.7100 -0.0657
  941MOL0    Cl26944  12.682   7.657  10.252  0.4011  0.2085 -0.0037
  941MOL0     C26945  12.023   8.471  10.863  0.4657  0.5123 -0.3410
  941MOL0     C26946  11.984   8.563  10.959  0.6758  0.7229  0.0870
  941MOL0     O26947  11.717   8.653  11.094  0.4649  0.7831  0.3954
  941MOL0     C26948  11.704   9.001  10.990  0.8625  0.1083  0.5173
  941MOL0     C26949  11.639   9.116  11.011  0.4476 -0.1005 -0.7757
  941MOL0     N26950  11.699   9.791  10.860  0.5958 -0.3660 -0.1326
  941MOL0     N26951  11.742   9.908  10.852  0.3091 -0.1305 -0.0961
  941MOL0     C26952  11.168  11.030  10.972  1.0456 -0.8829  0.3096
  941MOL0     C26953  11.076  11.123  10.918 -0.5157 -0.0461 -0.3069
  941MOL0     C26954  10.751  11.284  10.635  0.2016  0.1549  0.1359
  941MOL0     C26955  10.805  11.406  10.611  0.5726 -0.3313 -0.2861
  941MOL0     C26956  10.733  11.517  10.576  0.0384  0.4940 -0.9001
  941MOL0     C26957  10.594  11.505  10.547  0.0884 -0.1901  0.3951
  941MOL0     O26958  10.523  11.607  10.485 -0.1580 -0.1245 -0.9773
  941MOL0     C26959  10.438  11.677  10.575  0.2486  0.2720 -0.4550
  941MOL0     C26960  10.521  11.769  10.662  0.4973  0.7582 -0.6058
  941MOL0     C26961  10.428  11.876  10.731 -0.0962 -0.3888 -0.2494
  941MOL0     C26962  10.427  12.001  10.634  0.6422 -0.5752  0.3053
  941MOL0     C26963  10.287  12.053  10.619 -0.3144  0.7157  0.0235
  941MOL0     C26964  10.169  12.088  10.611  0.0266 -1.0296 -0.0841
  941MOL0     C26965  10.537  11.382  10.551 -0.2518  0.0656  0.3355
  941MOL0     C26966  10.609  11.268  10.602  0.5635  0.5637  0.1774
  941MOL0     C26967  10.535  11.141  10.613  1.1164  0.1133 -0.3834
  941MOL0     H26968  11.059  10.997  10.601  2.8825 -0.9385  0.0832
  941MOL0     H26969  11.183  10.796  10.712 -2.5124  0.0735 -3.8748
  941MOL0     H26970  11.436  10.946  11.054  0.9944 -0.9903 -1.3267
  941MOL0     H26971  11.310  10.855  11.149  3.8021 -3.3507  3.4254
  941MOL0     H26972  11.490  10.745  11.204 -0.7038  1.6083 -0.1156
  941MOL0     H26973  11.566  10.761  11.042 -0.9970 -1.1281 -3.3281
  941MOL0     H26974  11.418  10.616  10.948  2.8923 -1.8745 -0.4817
  941MOL0     H26975  11.342  10.577  11.108 -1.6284  2.1706 -0.8437
  941MOL0     H26976  11.612  10.516  10.987  0.9450  2.0619  1.3785
  941MOL0     H26977  11.595  10.524  11.164 -2.6938 -0.9642  2.1045
  941MOL0     H26978  11.406  10.338  11.140  1.7236 -1.3742  2.8445
  941MOL0     H26979  11.449  10.327  10.965  3.3001 -1.6441 -1.1238
  941MOL0     H26980  11.652  10.289  11.185  0.1258  2.6962 -0.2746
  941MOL0     H26981  11.559  10.158  11.133 -0.9820 -0.1193  0.3907
  941MOL0     H26982  11.789  10.196  11.007 -0.6730 -2.9776  2.0862
  941MOL0     H26983  11.705  10.328  10.925 -2.0945  0.8819 -0.5562
  941MOL0     H26984  11.527  10.157  10.856  0.1860  0.5255 -1.2595
  941MOL0     H26985  11.701  10.148  10.785 -0.0736  0.1121 -0.2940
  941MOL0     H26986  11.435   9.950  10.959 -0.5377 -4.3632  1.0802
  941MOL0     H26987  11.402   9.666  10.960 -0.6942  0.0859 -1.9576
  941MOL0     H26988  11.471   9.607  10.814 -1.0752  1.1252  0.1191
  941MOL0     H26989  11.667   9.528  10.944 -1.9844 -1.5373 -3.1960
  941MOL0     H26990  11.585   9.595  11.094 -1.7655  0.6195 -0.3581
  941MOL0     H26991  11.503   9.364  10.919  0.7741  0.8025  0.7534
  941MOL0     H26992  11.380   9.455  11.007  0.2950  2.1660  1.7380
  941MOL0     H26993  11.462   9.407  11.217 -4.0025  0.6566 -2.5132
  941MOL0     H26994  11.618   9.356  11.153  1.8145  7.0998  0.4086
  941MOL0     H26995  11.399   8.994  11.234  0.5077  0.5376  2.1812
  941MOL0     H26996  11.562   8.798  11.211 -0.9704  2.1914  1.5423
  941MOL0     H26997  11.962   8.837  10.770  1.0129  0.5085  0.7835
  941MOL0     H26998  12.058   8.667  10.586  1.9299 -1.7009 -0.9139
  941MOL0     H26999  12.180   8.275  10.731  1.5355 -0.9843 -1.6590
  941MOL0     H27000  12.010   8.223  10.706 -2.3184  2.6974  0.8707
  941MOL0     H27001  12.064   8.220  10.459 -1.1053  0.4462  0.3067
  941MOL0     H27002  12.229   8.274  10.500  0.2876 -2.1661  1.6705
  941MOL0     H27003  12.236   8.041  10.632 -1.2559 -0.4243 -0.5267
  941MOL0     H27004  12.095   7.998  10.533  0.5026 -1.4993 -2.2639
  941MOL0     H27005  12.366   8.069  10.422  0.6354 -1.3188  1.1259
  941MOL0     H27006  12.225   8.051  10.321  1.7573 -0.2982 -1.3340
  941MOL0     H27007  12.187   7.815  10.423  0.4425  1.6299 -1.3717
  941MOL0     H27008  12.324   7.835  10.524 -1.7278 -3.0755  0.4543
  941MOL0     H27009  12.363   7.703  10.305  2.0873 -0.2397  3.0747
  941MOL0     H27010  12.338   7.847  10.214  1.3954 -0.6033 -1.2976
  941MOL0     H27011  12.546   7.790  10.431 -0.4405 -3.0857 -2.0074
  941MOL0     H27012  12.538   7.950  10.354 -2.6370 -1.0048  1.1645
  941MOL0     H27013  12.563   7.824  10.123 -0.0771  2.8127  0.3611
  941MOL0     H27014  12.694   7.882  10.218 -0.2901  1.6693  1.4295
  941MOL0     H27015  12.026   8.364  10.883 -0.3020  0.6811  0.8099
  941MOL0     H27016  11.962   8.555  11.065 -1.2135  2.0352 -0.1506
  941MOL0     H27017  11.787   9.006  10.920 -0.1039  1.5669 -0.5939
  941MOL0     H27018  11.665   9.200  10.947  0.2396 -0.3230 -1.1542
  941MOL0     H27019  11.200  11.044  11.075 -0.5916 -3.3725  1.2506
  941MOL0     H27020  11.039  11.215  10.963  1.1810  1.3364 -1.5928
  941MOL0     H27021  10.910  11.426  10.627  0.3386  0.6654  0.0710
  941MOL0     H27022  10.799  11.600  10.552  2.5270 -1.4714 -1.2988
  941MOL0     H27023  10.374  11.616  10.640  0.9034 -0.4778 -0.4944
  941MOL0     H27024  10.376  11.738  10.509 -2.1512 -0.9808  0.5195
  941MOL0     H27025  10.602  11.805  10.598  0.2264 -1.5654 -2.4348
  941MOL0     H27026  10.569  11.705  10.737 -1.0311  0.1959 -0.0600
  941MOL0     H27027  10.462  11.904  10.832 -1.5716 -1.8274  0.6985
  941MOL0     H27028  10.330  11.830  10.748  0.7811 -2.0438  0.5940
  941MOL0     H27029  10.499  12.081  10.653  0.5623 -0.4223 -0.0403
  941MOL0     H27030  10.447  11.967  10.532 -1.8555 -1.4008  0.0156
  941MOL0     H27031  10.069  12.121  10.590 -0.1618 -3.2555 -3.5944
  941MOL0     H27032  10.431  11.376  10.527 -0.3800 -0.2981  0.9948
  941MOL0     H27033  10.581  11.075  10.539 -0.5097 -0.0320 -1.3026
  941MOL0     H27034  10.530  11.099  10.714 -2.2570 -2.1103 -1.3120
  941MOL0     H27035  10.435  11.166  10.577  0.6520  2.3453  2.1311
  942MOL0     O27036   2.097   4.623   4.302 -0.1269 -0.3935 -0.6215
  942MOL0     C27037   2.114   4.551   4.201  0.5244 -0.0100  0.5310
  942MOL0     O27038   2.015   4.487   4.134 -0.7520  0.0367  0.3074
  942MOL0     C27039   1.885   4.488   4.180  0.2669 -0.2568  0.1014
  942MOL0     C27040   1.813   4.611   4.168  0.0723  0.3727 -0.5159
  942MOL0     C27041   1.675   4.622   4.207 -0.7789  0.3653  0.1040
  942MOL0     C27042   1.615   4.511   4.258 -0.1216 -0.5642 -0.1219
  942MOL0     O27043   1.487   4.534   4.292  0.9339  0.7584  0.2233
  942MOL0     C27044   1.387   4.441   4.251  0.1690  0.0857  0.0519
  942MOL0     C27045   1.263   4.506   4.183 -0.0929  0.3604 -0.0097
  942MOL0     C27046   1.255   4.514   4.024 -0.3085 -0.6577 -0.5886
  942MOL0     C27047   1.322   4.646   3.982  0.4627  0.6291  0.2327
  942MOL0     C27048   1.287   4.683   3.836  0.0949  0.7187  0.7302
  942MOL0     C27049   1.352   4.591   3.732  0.1160 -0.3153  1.2121
  942MOL0     C27050   1.340   4.643   3.588 -0.8602  0.7106  0.2758
  942MOL0     C27051   1.447   4.566   3.503  0.5764 -0.8554 -0.3710
  942MOL0     N27052   1.422   4.586   3.360 -0.5265  0.2725 -0.4815
  942MOL0     C27053   1.490   4.681   3.285  0.2682  0.7010 -0.5384
  942MOL0     C27054   1.432   4.668   3.161  0.5180 -0.1378 -0.1839
  942MOL0     C27055   1.467   4.773   3.055  0.0797 -0.3304  0.2250
  942MOL0     C27056   1.475   4.713   2.909  0.8117  0.6599  0.5310
  942MOL0     C27057   1.373   4.777   2.812  0.1777 -0.1239 -0.5123
  942MOL0     C27058   1.392   4.928   2.789  0.6660 -0.6056 -0.7480
  942MOL0     O27059   1.304   4.965   2.686 -0.7343 -0.4409 -0.0707
  942MOL0     C27060   1.329   5.074   2.609  0.7074 -0.2135 -0.0554
  942MOL0     C27061   1.401   5.188   2.640 -0.2203  0.3259 -0.0196
  942MOL0     C27062   1.430   5.279   2.536 -0.2506  0.4835  0.1999
  942MOL0     C27063   1.368   5.278   2.413  0.0246 -0.1580  1.4418
  942MOL0     C27064   1.380   5.389   2.308  0.6276  0.2394  0.1322
  942MOL0     O27065   1.281   5.411   2.219 -0.1443  0.5269 -0.0067
  942MOL0     C27066   1.322   5.479   2.106  0.5471  0.3442 -0.1163
  942MOL0     C27067   1.440   5.469   2.033  0.0650  0.8660 -0.7371
  942MOL0     C27068   1.460   5.531   1.910 -0.4887  0.1767  0.0311
  942MOL0     C27069   1.358   5.615   1.856 -0.2618  0.2001  0.1271
  942MOL0     O27070   1.370   5.688   1.738  0.9771 -0.5381 -0.1795
  942MOL0     C27071   1.494   5.695   1.665 -0.0569 -0.0732 -0.5136
  942MOL0     C27072   1.602   5.781   1.732  0.0004 -0.6871  1.0836
  942MOL0     C27073   1.725   5.772   1.633  0.4919  0.9336  0.0402
  942MOL0     C27074   1.714   5.883   1.528  0.4123  0.2901 -1.0195
  942MOL0     C27075   1.843   5.893   1.446  0.4673 -0.6026  0.2025
  942MOL0     C27076   1.818   6.012   1.343 -0.2625  0.1434 -0.3800
  942MOL0     C27077   1.952   6.033   1.277 -0.4192 -0.7504 -0.0030
  942MOL0     C27078   1.996   5.931   1.170  0.0392 -0.0042 -0.8132
  942MOL0    Cl27079   2.156   5.971   1.098  0.0533 -0.2022 -0.1975
  942MOL0     C27080   1.244   5.622   1.926  0.8685  0.2910  0.2376
  942MOL0     C27081   1.226   5.567   2.054 -0.9971 -0.8778  0.4171
  942MOL0     O27082   1.489   5.440   2.305 -0.9088  0.7485  0.1080
  942MOL0     C27083   1.271   5.178   2.396 -0.3655 -0.1941 -0.6656
  942MOL0     C27084   1.251   5.079   2.491  0.7383  0.0287 -0.1489
  942MOL0     N27085   1.323   4.576   3.170 -0.4131  0.4156 -0.8963
  942MOL0     N27086   1.327   4.530   3.291  0.2909  0.6061  0.0501
  942MOL0     C27087   1.676   4.392   4.257  0.3103  0.4450 -0.4371
  942MOL0     C27088   1.809   4.377   4.223 -0.7270  0.1057  0.5053
  942MOL0     C27089   2.240   4.548   4.137 -1.0942 -0.5472  0.5301
  942MOL0     C27090   2.252   4.563   3.999  1.1576 -0.6482 -0.1849
  942MOL0     C27091   2.375   4.563   3.933 -0.0906 -0.1728  0.0589
  942MOL0     C27092   2.502   4.560   4.010  0.2053 -0.3276  0.2253
  942MOL0     O27093   2.622   4.563   3.952  0.0524  0.5638 -0.4180
  942MOL0     C27094   2.658   4.655   3.844  0.2315  0.5977 -1.2676
  942MOL0     C27095   2.808   4.674   3.843  0.0278 -0.3470  0.4425
  942MOL0     C27096   2.882   4.545   3.858  0.5554  0.3446  0.1065
  942MOL0     C27097   3.037   4.562   3.822  0.0373  0.2401  0.4501
  942MOL0     C27098   3.044   4.575   3.672 -0.1429  0.0794  0.1635
  942MOL0     C27099   3.048   4.561   3.552 -0.2625  0.4627 -0.1980
  942MOL0     C27100   2.489   4.568   4.148  0.0486 -0.2370  0.0649
  942MOL0     C27101   2.364   4.549   4.209  0.0329  0.1069 -0.2069
  942MOL0     C27102   2.376   4.534   4.362 -0.2786  0.7738  0.5223
  942MOL0     H27103   1.881   4.694   4.153 -0.3610  1.2034  1.6891
  942MOL0     H27104   1.619   4.711   4.181  0.6804  1.0261 -0.9391
  942MOL0     H27105   1.431   4.371   4.179  2.8333  0.3396  1.3166
  942MOL0     H27106   1.345   4.387   4.337  0.7695  1.0368  0.9621
  942MOL0     H27107   1.251   4.607   4.223 -0.3598  0.7979 -1.1456
  942MOL0     H27108   1.176   4.444   4.209 -1.2106  1.7879 -0.2033
  942MOL0     H27109   1.148   4.521   4.002 -0.6053  2.2478  1.2961
  942MOL0     H27110   1.299   4.428   3.972  1.1498 -0.0223 -0.4477
  942MOL0     H27111   1.295   4.726   4.052  2.6839  1.2682  0.4449
  942MOL0     H27112   1.430   4.640   4.001  0.1538  0.1555  2.0806
  942MOL0     H27113   1.179   4.695   3.821 -0.0299 -1.1511 -0.2827
  942MOL0     H27114   1.322   4.786   3.828 -0.1798  0.7857  0.3402
  942MOL0     H27115   1.460   4.579   3.750  0.3056 -4.8274 -1.3663
  942MOL0     H27116   1.305   4.492   3.728 -1.9682  0.6466  0.8499
  942MOL0     H27117   1.364   4.750   3.586  1.2636  0.3007  1.0905
  942MOL0     H27118   1.240   4.625   3.547 -1.4647 -1.9335  2.5991
  942MOL0     H27119   1.548   4.597   3.530  0.6992  1.1499 -2.7750
  942MOL0     H27120   1.427   4.459   3.514 -2.1333 -0.7580 -2.8142
  942MOL0     H27121   1.578   4.738   3.310 -0.8706  2.5050 -0.4701
  942MOL0     H27122   1.393   4.852   3.068 -0.4256 -0.8066  0.3031
  942MOL0     H27123   1.566   4.812   3.079  0.2647 -0.3162 -0.5237
  942MOL0     H27124   1.572   4.725   2.860  0.7543 -3.4219 -0.9523
  942MOL0     H27125   1.455   4.606   2.920  0.4598  0.7921  1.2565
  942MOL0     H27126   1.277   4.774   2.864  0.2125  3.1219 -0.0185
  942MOL0     H27127   1.374   4.714   2.722 -0.3144 -3.2686  1.5332
  942MOL0     H27128   1.496   4.948   2.762  0.8088 -0.4138 -0.0822
  942MOL0     H27129   1.365   4.973   2.885 -0.1259  0.5537 -1.4867
  942MOL0     H27130   1.455   5.187   2.734 -1.9192  1.5565  1.0199
  942MOL0     H27131   1.492   5.360   2.573 -0.5733  0.1440  1.5597
  942MOL0     H27132   1.517   5.403   2.071  0.2083  1.1548 -0.5193
  942MOL0     H27133   1.556   5.524   1.860  0.3384  1.7312  1.3373
  942MOL0     H27134   1.526   5.591   1.662  0.3413  0.0532 -0.6162
  942MOL0     H27135   1.474   5.721   1.561  0.3672 -2.9723 -1.3891
  942MOL0     H27136   1.562   5.883   1.735  1.3802 -0.1094  0.4690
  942MOL0     H27137   1.631   5.743   1.830  4.5463  3.1122  1.5631
  942MOL0     H27138   1.814   5.784   1.695  1.1217  1.8510 -1.0020
  942MOL0     H27139   1.723   5.674   1.585 -2.0763  0.4319  1.0006
  942MOL0     H27140   1.702   5.980   1.578 -0.8460  0.4130 -1.5127
  942MOL0     H27141   1.626   5.874   1.463  0.5416  1.4146 -1.3768
  942MOL0     H27142   1.862   5.799   1.395 -1.0515 -0.6474 -0.3202
  942MOL0     H27143   1.925   5.915   1.516  1.0269  0.2862 -0.7068
  942MOL0     H27144   1.740   5.985   1.271  1.1970 -1.1983 -1.5418
  942MOL0     H27145   1.803   6.105   1.399 -2.1300 -0.1168 -0.3747
  942MOL0     H27146   2.034   6.017   1.347  2.5665 -2.7043 -3.6199
  942MOL0     H27147   1.971   6.134   1.241  0.8550 -2.0226 -3.2345
  942MOL0     H27148   1.995   5.835   1.222  0.6343  0.9595  1.0586
  942MOL0     H27149   1.928   5.942   1.085 -0.5602  0.4378 -0.2850
  942MOL0     H27150   1.157   5.676   1.888  0.2587 -1.9016 -1.7349
  942MOL0     H27151   1.132   5.587   2.105 -1.5988  0.1378 -1.0269
  942MOL0     H27152   1.209   5.186   2.307 -0.9434  0.9630 -0.1698
  942MOL0     H27153   1.179   4.998   2.487  1.5032 -0.6247 -2.3060
  942MOL0     H27154   1.639   4.293   4.282  1.1488  0.2387  0.0418
  942MOL0     H27155   1.851   4.277   4.234  1.7696  1.1331  1.0481
  942MOL0     H27156   2.157   4.570   3.947 -0.0517 -0.8622  1.9092
  942MOL0     H27157   2.381   4.571   3.825  1.7078  2.4732  0.2411
  942MOL0     H27158   2.600   4.744   3.869  2.9630  2.6133 -1.6253
  942MOL0     H27159   2.619   4.622   3.747 -3.4447 -0.6497  0.4385
  942MOL0     H27160   2.834   4.736   3.930 -0.2442  2.6585 -1.4660
  942MOL0     H27161   2.823   4.728   3.749  0.6470  0.5534  1.0411
  942MOL0     H27162   2.853   4.472   3.782  1.1463 -2.4726  2.4237
  942MOL0     H27163   2.887   4.487   3.950  2.4905  2.7900  1.6668
  942MOL0     H27164   3.070   4.657   3.865  1.0994 -0.1296  0.4977
  942MOL0     H27165   3.099   4.480   3.860 -0.3014  0.3614  1.2937
  942MOL0     H27166   3.067   4.552   3.447 -2.6803  3.8966 -1.0967
  942MOL0     H27167   2.578   4.587   4.207  1.0864 -3.2141 -0.3820
  942MOL0     H27168   2.329   4.439   4.386  0.9072  0.0906  0.2496
  942MOL0     H27169   2.479   4.510   4.390 -0.5378  1.1940  1.8844
  942MOL0     H27170   2.327   4.614   4.418 -3.7743 -1.1407  0.4397
  943MOL0     O27171   2.003   6.651   7.497  1.0051  0.2350  0.2971
  943MOL0     C27172   2.075   6.568   7.443  0.4238  0.6744 -0.5830
  943MOL0     O27173   2.118   6.450   7.497 -0.8318  0.0353 -0.1363
  943MOL0     C27174   2.033   6.402   7.597 -0.0683  0.6088  0.1443
  943MOL0     C27175   1.903   6.354   7.583 -0.0063 -0.6963  1.4333
  943MOL0     C27176   1.819   6.338   7.701  0.0916  0.2088 -0.3838
  943MOL0     C27177   1.868   6.353   7.833 -0.5588 -0.2470  0.7894
  943MOL0     O27178   1.800   6.303   7.938  0.2559 -0.5048  0.3252
  943MOL0     C27179   1.800   6.373   8.057  0.1361  0.1645 -0.1598
  943MOL0     C27180   1.667   6.374   8.137  0.4747 -0.5384  0.4199
  943MOL0     C27181   1.651   6.237   8.195  0.6392  1.4084  0.1719
  943MOL0     C27182   1.733   6.194   8.312 -0.3528  0.4702 -0.5418
  943MOL0     C27183   1.714   6.050   8.359  0.6666 -0.0878  0.5865
  943MOL0     C27184   1.826   6.005   8.450 -0.5340  0.6226  0.3024
  943MOL0     C27185   1.822   6.063   8.593  0.4145 -0.7220  0.2910
  943MOL0     C27186   1.965   6.053   8.645 -0.4344  0.5432  0.2301
  943MOL0     N27187   1.991   6.051   8.785  1.2067 -0.5096  0.1196
  943MOL0     C27188   2.004   6.163   8.868 -0.1031  0.2149 -0.5762
  943MOL0     C27189   1.992   6.101   8.983 -0.1131 -0.1852  0.3232
  943MOL0     C27190   2.010   6.171   9.122  1.3061  1.1306  0.5003
  943MOL0     C27191   2.146   6.232   9.153  0.2098  0.1759 -0.8581
  943MOL0     C27192   2.265   6.134   9.162 -0.5200  1.0815  0.0618
  943MOL0     C27193   2.222   5.994   9.216  0.3869  0.5911  0.0140
  943MOL0     O27194   2.342   5.914   9.206  0.0714 -0.5145 -0.2758
  943MOL0     C27195   2.334   5.787   9.165  0.5450  1.1708 -0.7676
  943MOL0     C27196   2.256   5.731   9.070  0.2662 -0.9157 -0.1210
  943MOL0     C27197   2.253   5.604   9.035 -0.1901 -0.2429 -0.4616
  943MOL0     C27198   2.319   5.508   9.119  0.5238  0.7262  0.3138
  943MOL0     C27199   2.308   5.358   9.086  0.7430  0.1791 -0.5651
  943MOL0     O27200   2.381   5.269   9.168 -0.7364  0.6333  0.7854
  943MOL0     C27201   2.393   5.130   9.141 -0.0453  0.4937  0.6117
  943MOL0     C27202   2.466   5.058   9.235 -0.7857 -0.3702 -2.0343
  943MOL0     C27203   2.508   4.927   9.211 -0.3035 -0.7247 -0.3083
  943MOL0     C27204   2.465   4.852   9.104  1.2199  0.6537  0.3922
  943MOL0     O27205   2.509   4.722   9.090  0.5238  0.4409 -0.1524
  943MOL0     C27206   2.564   4.688   8.961 -0.5765 -0.5997  0.7627
  943MOL0     C27207   2.703   4.756   8.953  0.3553 -0.4575  0.3754
  943MOL0     C27208   2.793   4.729   9.068  0.3581 -0.0687  0.3188
  943MOL0     C27209   2.926   4.789   9.039  0.2547 -0.2783 -0.4998
  943MOL0     C27210   3.016   4.778   9.159 -0.3626  0.4215 -0.0634
  943MOL0     C27211   3.133   4.884   9.135 -0.1712  0.5022 -1.3238
  943MOL0     C27212   3.219   4.851   9.007 -0.4397  0.2200  0.3520
  943MOL0     C27213   3.348   4.934   8.973  1.0049  0.1358  0.5721
  943MOL0    Cl27214   3.332   5.111   8.967  0.2005  0.2014 -0.2258
  943MOL0     C27215   2.403   4.927   9.014  0.3380  0.0346  0.8126
  943MOL0     C27216   2.362   5.058   9.026  0.0768  0.1105  0.2371
  943MOL0     O27217   2.230   5.320   9.000  0.0369 -0.3339 -0.2366
  943MOL0     C27218   2.399   5.556   9.231  0.7927  0.3156  0.5455
  943MOL0     C27219   2.404   5.697   9.248 -0.0846 -0.3253  0.6177
  943MOL0     N27220   1.981   5.963   8.976 -0.2095  0.3181 -0.0025
  943MOL0     N27221   1.983   5.932   8.855  0.1208  0.0222  0.0531
  943MOL0     C27222   1.996   6.407   7.844 -0.1320 -0.8502  0.2569
  943MOL0     C27223   2.075   6.436   7.724 -0.0872  1.0975 -0.1513
  943MOL0     C27224   2.153   6.605   7.321  0.6292  0.2168 -0.5293
  943MOL0     C27225   2.287   6.659   7.349 -0.2995  0.1705 -0.2316
  943MOL0     C27226   2.359   6.731   7.259  0.2737  0.0990  1.5225
  943MOL0     C27227   2.298   6.747   7.126 -0.2700  1.1051 -0.2037
  943MOL0     O27228   2.351   6.817   7.020 -0.1803  0.1679  0.6654
  943MOL0     C27229   2.462   6.909   7.049  0.1018  0.6075  0.9777
  943MOL0     C27230   2.488   6.984   6.924  0.3385 -0.1079  0.3157
  943MOL0     C27231   2.592   7.090   6.949 -0.8908 -0.2663 -0.2827
  943MOL0     C27232   2.598   7.204   6.854  0.7659  0.3141  0.7782
  943MOL0     C27233   2.626   7.159   6.718  0.8497  0.1500  0.4062
  943MOL0     C27234   2.641   7.120   6.607  0.0864  0.0494  0.4626
  943MOL0     C27235   2.177   6.679   7.094 -1.2957  0.1122 -0.2455
  943MOL0     C27236   2.096   6.615   7.191 -0.1110 -0.6344  0.1528
  943MOL0     C27237   1.968   6.546   7.153 -0.7510 -0.1331  0.3590
  943MOL0     H27238   1.859   6.342   7.485  2.6655  0.5156 -0.0076
  943MOL0     H27239   1.720   6.298   7.682  0.4816 -0.6362 -0.6865
  943MOL0     H27240   1.882   6.339   8.121  0.7484 -2.8329 -2.2901
  943MOL0     H27241   1.818   6.477   8.029  0.3584  1.8162  5.0599
  943MOL0     H27242   1.595   6.412   8.063  0.6788 -1.3575 -0.2160
  943MOL0     H27243   1.662   6.452   8.214  1.1651  0.9690 -0.9889
  943MOL0     H27244   1.678   6.162   8.121  1.1420  2.0448 -0.2958
  943MOL0     H27245   1.550   6.201   8.220  2.1661 -4.1730 -0.3302
  943MOL0     H27246   1.838   6.204   8.283  0.1473  1.2360  1.3751
  943MOL0     H27247   1.705   6.265   8.390 -3.8652 -2.3992  1.0441
  943MOL0     H27248   1.617   6.036   8.408 -0.9398 -0.5712 -2.4770
  943MOL0     H27249   1.708   5.979   8.276 -1.1279  1.0397 -0.3223
  943MOL0     H27250   1.824   5.895   8.443 -2.1495  0.7258 -2.7516
  943MOL0     H27251   1.922   6.032   8.406 -0.0732 -0.6465  0.4804
  943MOL0     H27252   1.770   5.994   8.660  3.3424 -2.3915  1.0155
  943MOL0     H27253   1.790   6.167   8.583  2.3814  0.0001  1.0099
  943MOL0     H27254   2.008   5.960   8.609  1.1929  1.9967 -1.7924
  943MOL0     H27255   2.024   6.130   8.596 -0.2248  0.6385  0.6277
  943MOL0     H27256   2.012   6.268   8.844 -0.2791  0.6343  1.0931
  943MOL0     H27257   1.925   6.239   9.123 -0.7417 -1.1360 -2.7964
  943MOL0     H27258   1.992   6.088   9.191 -2.8402  0.3714 -1.2562
  943MOL0     H27259   2.174   6.297   9.069  2.7945  0.5153  0.1740
  943MOL0     H27260   2.138   6.278   9.252 -1.3223 -2.3088  0.2735
  943MOL0     H27261   2.350   6.161   9.225  0.2974 -0.6391 -0.2477
  943MOL0     H27262   2.306   6.120   9.062 -0.3984  3.3003 -0.2451
  943MOL0     H27263   2.146   5.946   9.154 -0.3219 -0.2747  1.4984
  943MOL0     H27264   2.198   6.004   9.323 -1.8403 -0.8600 -0.2864
  943MOL0     H27265   2.204   5.812   9.019  0.9436  2.7937  4.3801
  943MOL0     H27266   2.194   5.582   8.946  0.0429  5.1103 -2.3352
  943MOL0     H27267   2.510   5.115   9.315 -0.3710 -0.7705 -1.9695
  943MOL0     H27268   2.568   4.874   9.284 -3.0580 -1.5576  1.5243
  943MOL0     H27269   2.574   4.579   8.959  0.5490 -0.5222 -1.8647
  943MOL0     H27270   2.507   4.717   8.872  1.8404  0.7188 -0.4655
  943MOL0     H27271   2.752   4.707   8.868  0.4847  1.9284 -0.9926
  943MOL0     H27272   2.692   4.861   8.924 -1.0500 -0.9684 -1.1187
  943MOL0     H27273   2.749   4.762   9.163  1.7503 -0.5290  1.1404
  943MOL0     H27274   2.795   4.620   9.076 -2.2053 -0.2562 -0.5654
  943MOL0     H27275   2.921   4.895   9.012  0.4320  0.5530  2.4032
  943MOL0     H27276   2.963   4.751   8.944 -1.7201  3.1744 -2.8810
  943MOL0     H27277   3.053   4.675   9.168 -1.3834  0.1272  0.9964
  943MOL0     H27278   2.961   4.797   9.252  0.0432 -3.9585  1.3225
  943MOL0     H27279   3.078   4.977   9.120  0.2307  0.8329 -0.8034
  943MOL0     H27280   3.206   4.882   9.217 -0.7900 -4.2172 -0.6317
  943MOL0     H27281   3.172   4.860   8.909  3.2382  0.0874 -1.6188
  943MOL0     H27282   3.254   4.748   9.022 -0.9930  0.4199  3.8191
  943MOL0     H27283   3.420   4.900   9.049 -1.5699 -1.3207  2.5088
  943MOL0     H27284   3.380   4.893   8.876 -0.6051  1.9047 -0.7882
  943MOL0     H27285   2.382   4.892   8.913 -0.6371  1.5050  0.4744
  943MOL0     H27286   2.323   5.105   8.936  1.0581  1.5393  0.5300
  943MOL0     H27287   2.456   5.490   9.296  2.0068 -1.2677 -1.9449
  943MOL0     H27288   2.455   5.728   9.339  0.3181 -2.9292  1.3727
  943MOL0     H27289   2.035   6.405   7.945 -0.6886 -2.0541  0.4629
  943MOL0     H27290   2.176   6.472   7.742 -0.1765  1.4926 -0.4188
  943MOL0     H27291   2.329   6.646   7.448 -1.0966  4.0034  0.7779
  943MOL0     H27292   2.455   6.776   7.282  1.0603 -0.5422 -0.3140
  943MOL0     H27293   2.549   6.855   7.088 -0.9832 -1.0636  1.1781
  943MOL0     H27294   2.429   6.986   7.119  4.1522  1.8400  1.8104
  943MOL0     H27295   2.388   7.024   6.903 -0.5529 -0.9192  2.6648
  943MOL0     H27296   2.516   6.909   6.850  1.1032  0.8128 -0.3347
  943MOL0     H27297   2.684   7.031   6.942 -0.9761 -0.3344 -0.9097
  943MOL0     H27298   2.590   7.131   7.051  2.6942  2.3601 -1.0420
  943MOL0     H27299   2.501   7.255   6.856  0.1728 -0.7907  2.3721
  943MOL0     H27300   2.663   7.281   6.895  0.0495  0.4917  1.6197
  943MOL0     H27301   2.683   7.081   6.516 -3.5399 -0.3581 -1.2049
  943MOL0     H27302   2.139   6.703   6.995 -2.3190 -0.5150 -0.0210
  943MOL0     H27303   1.918   6.578   7.061 -1.0654  1.2802  0.9919
  943MOL0     H27304   1.988   6.439   7.148  0.4677  0.1410 -1.2432
  943MOL0     H27305   1.890   6.556   7.230 -1.4836 -1.6944 -0.1449
  944MOL0     O27306   3.774   5.055  10.820  0.7259  0.1989  0.0640
  944MOL0     C27307   3.695   5.092  10.905 -0.1426  1.0380  0.0558
  944MOL0     O27308   3.650   5.224  10.916 -0.5701 -0.3233 -0.1395
  944MOL0     C27309   3.658   5.304  10.804  0.3610 -0.5449 -0.1450
  944MOL0     C27310   3.699   5.438  10.812  0.1719  0.2206 -0.5527
  944MOL0     C27311   3.697   5.523  10.696  0.2810 -0.3410  0.1782
  944MOL0     C27312   3.630   5.476  10.582  0.2597  0.7368  0.1945
  944MOL0     O27313   3.594   5.554  10.482  0.8125  0.5816  0.0215
  944MOL0     C27314   3.564   5.690  10.518 -0.4906 -0.0799 -0.2615
  944MOL0     C27315   3.454   5.749  10.428  0.0627  0.2942 -0.1060
  944MOL0     C27316   3.485   5.895  10.404  1.3367  0.3123  1.2105
  944MOL0     C27317   3.482   5.984  10.525 -0.5624  0.0125  0.0098
  944MOL0     C27318   3.456   6.126  10.495 -0.0318  0.4433  0.1213
  944MOL0     C27319   3.496   6.215  10.616 -0.6962  0.4154  0.9931
  944MOL0     C27320   3.480   6.358  10.575 -0.1661  0.3489 -0.9082
  944MOL0     C27321   3.599   6.407  10.490  0.1045 -0.4085  0.8112
  944MOL0     N27322   3.724   6.398  10.561  0.6062 -0.2431 -0.0954
  944MOL0     C27323   3.758   6.459  10.679 -0.4152  0.2550  0.4950
  944MOL0     C27324   3.893   6.457  10.679  0.4947  0.7183 -0.3926
  944MOL0     C27325   3.978   6.534  10.773  0.1535  0.5207  0.6297
  944MOL0     C27326   3.944   6.492  10.919  0.2713 -0.6711 -0.2799
  944MOL0     C27327   3.980   6.347  10.952  0.1543  0.7868 -0.0763
  944MOL0     C27328   3.881   6.239  10.898 -0.0836 -0.0854  0.0173
  944MOL0     O27329   3.905   6.124  10.969  1.2917  0.4508 -0.4379
  944MOL0     C27330   3.807   6.021  10.962 -1.6627  0.2280  0.3021
  944MOL0     C27331   3.823   5.922  11.056 -0.1126  0.8062  0.1612
  944MOL0     C27332   3.726   5.820  11.063 -0.0906  0.4971 -0.2487
  944MOL0     C27333   3.623   5.811  10.977 -0.6806  0.9929  0.0311
  944MOL0     C27334   3.524   5.707  10.996  0.0753  0.1660  0.3129
  944MOL0     O27335   3.520   5.628  11.104 -0.2606  0.2199  0.0960
  944MOL0     C27336   3.407   5.557  11.132 -0.4550  0.8523 -0.4554
  944MOL0     C27337   3.272   5.608  11.143 -0.4375 -0.8054 -0.0793
  944MOL0     C27338   3.172   5.515  11.164 -0.2164  0.3174  0.2456
  944MOL0     C27339   3.199   5.381  11.183 -0.0114 -0.0010  0.6664
  944MOL0     O27340   3.113   5.279  11.209 -0.1778 -0.1248 -0.2905
  944MOL0     C27341   2.974   5.298  11.193 -0.2980 -0.3537 -0.2959
  944MOL0     C27342   2.924   5.264  11.053  0.4068 -0.8094  0.6547
  944MOL0     C27343   2.776   5.279  11.055  0.1596  0.0739  0.2254
  944MOL0     C27344   2.733   5.424  11.022 -0.1110  0.0588  0.0380
  944MOL0     C27345   2.580   5.437  11.002  0.1140 -0.1867  0.0274
  944MOL0     C27346   2.492   5.431  11.133 -1.0911  0.7741 -0.5459
  944MOL0     C27347   2.355   5.476  11.097  0.4022  0.5384  0.3411
  944MOL0     C27348   2.256   5.416  11.199 -0.4386  0.0578 -0.2522
  944MOL0    Cl27349   2.272   5.480  11.361  0.1404  0.4288  0.0085
  944MOL0     C27350   3.331   5.340  11.167 -0.0837 -0.1025 -0.4565
  944MOL0     C27351   3.434   5.421  11.135  0.6779  0.2439 -0.1989
  944MOL0     O27352   3.428   5.714  10.915 -0.4409 -0.0674 -0.5102
  944MOL0     C27353   3.618   5.892  10.863  0.0779  0.3490  0.2100
  944MOL0     C27354   3.708   5.999  10.855  0.2397 -0.7648 -1.0719
  944MOL0     N27355   3.936   6.370  10.569 -0.3772 -0.0711 -0.2139
  944MOL0     N27356   3.829   6.339  10.504  0.8806 -0.0596  0.2782
  944MOL0     C27357   3.593   5.339  10.567 -0.2667 -1.4372 -0.6802
  944MOL0     C27358   3.616   5.257  10.673  0.6658  1.6265 -1.3430
  944MOL0     C27359   3.651   5.004  11.017  0.5211 -0.1555  0.2598
  944MOL0     C27360   3.563   5.050  11.115 -0.4754  0.1666  0.1546
  944MOL0     C27361   3.484   4.967  11.196  0.0286  0.6430  0.2147
  944MOL0     C27362   3.528   4.833  11.203 -0.1695 -0.8646 -0.2898
  944MOL0     O27363   3.453   4.752  11.283 -0.0657 -0.7883  0.9813
  944MOL0     C27364   3.463   4.615  11.279  0.2545 -0.3541 -0.6247
  944MOL0     C27365   3.338   4.550  11.348 -0.3844  0.5822  0.8776
  944MOL0     C27366   3.353   4.547  11.502 -0.6238  0.4176  0.3006
  944MOL0     C27367   3.443   4.451  11.567 -0.0983  0.1633 -0.8723
  944MOL0     C27368   3.391   4.314  11.565  0.7739 -0.1251  0.5370
  944MOL0     C27369   3.342   4.203  11.579  0.4056 -0.1925  0.0620
  944MOL0     C27370   3.639   4.792  11.126 -0.9680  0.3481  0.2152
  944MOL0     C27371   3.696   4.870  11.029  0.4593 -0.1770 -0.5931
  944MOL0     C27372   3.808   4.805  10.961 -0.1258  0.9053 -0.6101
  944MOL0     H27373   3.745   5.475  10.903  0.8734  0.0673 -0.8395
  944MOL0     H27374   3.719   5.628  10.706 -2.2658  0.0373  4.0153
  944MOL0     H27375   3.530   5.709  10.620  0.8162  1.8460 -0.1460
  944MOL0     H27376   3.662   5.738  10.517 -1.0388  1.1234  0.6697
  944MOL0     H27377   3.356   5.754  10.475 -1.4836  2.9438 -3.1843
  944MOL0     H27378   3.446   5.690  10.336 -1.4559 -1.5981  1.1895
  944MOL0     H27379   3.407   5.931  10.336 -0.4899 -1.9567  1.9631
  944MOL0     H27380   3.576   5.906  10.344 -0.4094 -2.2923 -2.2794
  944MOL0     H27381   3.401   5.958  10.594 -0.8537  2.6471  0.7832
  944MOL0     H27382   3.573   5.975  10.585 -0.1612 -1.1669 -0.7509
  944MOL0     H27383   3.520   6.146  10.409 -0.2202  2.4991  0.4040
  944MOL0     H27384   3.347   6.137  10.488 -0.0695  1.5539  1.8246
  944MOL0     H27385   3.427   6.196  10.699 -0.8681 -0.8544  0.5776
  944MOL0     H27386   3.599   6.200  10.650 -0.4474  1.6595  0.8543
  944MOL0     H27387   3.486   6.422  10.664 -2.3440  1.1503 -1.2780
  944MOL0     H27388   3.386   6.372  10.521  0.3366 -0.3596 -2.0039
  944MOL0     H27389   3.611   6.362  10.391 -3.5822  1.4715 -0.6801
  944MOL0     H27390   3.583   6.514  10.471  1.9767 -0.5535 -2.2160
  944MOL0     H27391   3.699   6.524  10.743 -0.7090  1.0368 -0.5286
  944MOL0     H27392   4.084   6.512  10.755 -0.1758  0.4991 -1.6702
  944MOL0     H27393   3.958   6.640  10.759  0.9833  0.5781 -0.2517
  944MOL0     H27394   4.014   6.552  10.978  2.3818 -1.1041 -2.2222
  944MOL0     H27395   3.846   6.527  10.954  0.0617 -1.1532 -0.3758
  944MOL0     H27396   3.983   6.339  11.061 -0.6648 -2.4574 -0.2114
  944MOL0     H27397   4.081   6.322  10.918 -0.6288 -0.0836 -1.9208
  944MOL0     H27398   3.902   6.206  10.796 -0.4949 -0.3517  0.0175
  944MOL0     H27399   3.776   6.267  10.907 -0.3819  0.6917 -3.9666
  944MOL0     H27400   3.898   5.933  11.133  2.1677 -2.4876 -1.3550
  944MOL0     H27401   3.740   5.757  11.149  1.3366  1.4029  0.2166
  944MOL0     H27402   3.249   5.713  11.129  2.0475  0.2789  2.7911
  944MOL0     H27403   3.069   5.550  11.164 -1.3445 -2.7179  1.0065
  944MOL0     H27404   2.940   5.222  11.264  1.8596 -0.6386  0.5048
  944MOL0     H27405   2.937   5.395  11.224  0.2597 -0.8874  2.2473
  944MOL0     H27406   2.965   5.332  10.977 -1.2762  0.6172  0.9587
  944MOL0     H27407   2.951   5.166  11.012 -5.4468 -2.2455 -0.5953
  944MOL0     H27408   2.745   5.207  10.980  5.3136 -0.2088 -2.0831
  944MOL0     H27409   2.729   5.238  11.145 -0.6260  1.8735  0.6826
  944MOL0     H27410   2.780   5.457  10.928 -0.5635 -0.3159 -0.3277
  944MOL0     H27411   2.766   5.501  11.092 -2.4856 -0.1491  1.4801
  944MOL0     H27412   2.553   5.358  10.931 -0.2618  0.6496 -0.7890
  944MOL0     H27413   2.561   5.534  10.954 -2.6359  0.1771  1.6666
  944MOL0     H27414   2.494   5.332  11.179 -2.4323  1.4164  1.0161
  944MOL0     H27415   2.519   5.502  11.211 -0.0100  0.9339 -1.0535
  944MOL0     H27416   2.325   5.441  10.998 -2.3604 -0.3489  1.3702
  944MOL0     H27417   2.334   5.583  11.106 -0.3048  0.4392  0.0058
  944MOL0     H27418   2.151   5.437  11.174 -0.4193  2.7454  1.5088
  944MOL0     H27419   2.270   5.308  11.203  0.0485  0.1568  2.4117
  944MOL0     H27420   3.342   5.232  11.170 -2.5222 -0.5232 -2.4756
  944MOL0     H27421   3.534   5.382  11.121 -0.0009 -1.8953  0.5525
  944MOL0     H27422   3.549   5.884  10.779  2.7041 -1.9416 -1.9225
  944MOL0     H27423   3.690   6.059  10.767 -2.6279  1.2622  0.7146
  944MOL0     H27424   3.552   5.311  10.470  1.8206  2.1575 -2.8626
  944MOL0     H27425   3.589   5.153  10.657  1.6719  0.9811  0.7679
  944MOL0     H27426   3.539   5.156  11.127  3.6798  1.2652  0.5398
  944MOL0     H27427   3.397   4.990  11.257 -2.2107 -2.3165 -1.5802
  944MOL0     H27428   3.554   4.600  11.337  1.0916 -0.5806 -1.9541
  944MOL0     H27429   3.484   4.568  11.182  1.3726 -4.4141  1.3904
  944MOL0     H27430   3.328   4.449  11.306  0.7941  0.3861  1.0474
  944MOL0     H27431   3.247   4.609  11.330 -0.2982 -0.1401 -2.6275
  944MOL0     H27432   3.255   4.554  11.550  0.8302  0.3945  3.5413
  944MOL0     H27433   3.394   4.645  11.529  0.7426 -0.3621  1.1947
  944MOL0     H27434   3.531   4.444  11.502 -0.4324 -0.1421 -1.2967
  944MOL0     H27435   3.464   4.486  11.669 -0.9761 -1.2503 -0.1847
  944MOL0     H27436   3.299   4.105  11.580  0.5808 -0.2678  0.2157
  944MOL0     H27437   3.677   4.691  11.140 -0.7216  0.4490  0.2777
  944MOL0     H27438   3.843   4.710  11.002 -1.4133  1.1343  1.1144
  944MOL0     H27439   3.793   4.787  10.854 -2.7428 -1.3341  0.0128
  944MOL0     H27440   3.889   4.879  10.959  0.3019  0.4379 -2.2042
  945MOL0     O27441   4.863  10.446   6.302 -0.2606 -0.1386 -0.5881
  945MOL0     C27442   4.822  10.384   6.199  0.9727  0.7205 -0.4718
  945MOL0     O27443   4.890  10.299   6.113  0.4270 -0.6005 -0.4093
  945MOL0     C27444   5.037  10.291   6.116 -0.5919 -0.1921  0.1855
  945MOL0     C27445   5.113  10.308   6.004 -0.0752  0.3400  1.2472
  945MOL0     C27446   5.252  10.301   6.018  0.1705 -1.1877  0.0540
  945MOL0     C27447   5.324  10.269   6.145  0.2138  0.6802  0.2753
  945MOL0     O27448   5.468  10.258   6.157  0.0767  0.0822 -0.4995
  945MOL0     C27449   5.552  10.255   6.041 -1.0988 -0.7101 -0.6440
  945MOL0     C27450   5.699  10.222   6.081  0.7984  0.3702  0.1712
  945MOL0     C27451   5.699  10.084   6.150 -1.0854  0.5097 -0.9392
  945MOL0     C27452   5.823  10.059   6.237 -0.2397  0.9848 -0.1342
  945MOL0     C27453   5.834  10.138   6.365  1.8018 -0.2432 -0.7404
  945MOL0     C27454   5.913  10.088   6.470 -0.3252  0.4878  1.0856
  945MOL0     C27455   5.883  10.150   6.615  0.3585  0.5306 -0.1604
  945MOL0     C27456   5.950  10.295   6.650  0.3058  0.6980  0.7972
  945MOL0     N27457   6.092  10.272   6.669  0.0305 -0.2065 -0.7614
  945MOL0     C27458   6.142  10.228   6.784 -1.1499  0.3520 -0.7517
  945MOL0     C27459   6.267  10.188   6.754  0.9165  0.3281 -1.0935
  945MOL0     C27460   6.380  10.145   6.846  0.1441  0.2629 -0.1408
  945MOL0     C27461   6.447  10.013   6.809  0.4225  0.2552  0.2501
  945MOL0     C27462   6.465   9.925   6.943  0.4686 -0.6574  1.4609
  945MOL0     C27463   6.611   9.893   6.964 -0.2749  0.2157 -0.3619
  945MOL0     O27464   6.655   9.799   6.862 -0.3421  0.0025  0.0876
  945MOL0     C27465   6.607   9.669   6.848 -0.2640 -0.5839  0.4455
  945MOL0     C27466   6.584   9.608   6.731 -0.1273 -0.7436 -0.3533
  945MOL0     C27467   6.522   9.486   6.731  0.5968  0.8150  0.2417
  945MOL0     C27468   6.477   9.418   6.842 -0.2098  0.6207 -0.4480
  945MOL0     C27469   6.403   9.289   6.826 -0.4460  0.4050 -0.2492
  945MOL0     O27470   6.348   9.261   6.703  0.3290  0.4361  0.6345
  945MOL0     C27471   6.282   9.140   6.686  0.1002 -0.7252 -0.4892
  945MOL0     C27472   6.315   9.020   6.743  0.4956 -1.0963  0.6139
  945MOL0     C27473   6.241   8.902   6.709 -0.0199 -0.5925  0.4559
  945MOL0     C27474   6.126   8.913   6.633 -0.3455  0.0800 -0.0883
  945MOL0     O27475   6.077   8.783   6.601  1.1806  0.0745  0.2792
  945MOL0     C27476   5.971   8.780   6.517  0.3318 -0.1788  0.3616
  945MOL0     C27477   5.927   8.623   6.500  0.1684 -1.0659 -1.0331
  945MOL0     C27478   5.806   8.592   6.411  0.3155 -0.8805  0.0947
  945MOL0     C27479   5.831   8.633   6.264  0.1182 -0.4432 -0.5395
  945MOL0     C27480   5.746   8.553   6.165  0.3183 -0.7879  0.1459
  945MOL0     C27481   5.825   8.521   6.034 -0.7860  0.4470 -0.1116
  945MOL0     C27482   5.746   8.497   5.905  0.5979 -0.0543  0.3367
  945MOL0     C27483   5.692   8.359   5.899  0.2284  0.3555  0.0713
  945MOL0    Cl27484   5.572   8.340   6.043 -0.3266  0.1546  0.6708
  945MOL0     C27485   6.077   9.040   6.596  0.2642  0.0564 -0.3924
  945MOL0     C27486   6.161   9.149   6.618 -0.5813 -1.0472 -0.5595
  945MOL0     O27487   6.396   9.220   6.927 -0.2833 -0.0667  0.1065
  945MOL0     C27488   6.503   9.473   6.966 -0.8626 -0.4535 -0.2742
  945MOL0     C27489   6.576   9.590   6.964 -0.6728 -0.6307 -0.0893
  945MOL0     N27490   6.284  10.210   6.617 -0.3373 -0.1792  0.2537
  945MOL0     N27491   6.180  10.269   6.566 -0.0849  0.1642  0.0184
  945MOL0     C27492   5.240  10.256   6.253 -0.8631 -0.4573 -1.2944
  945MOL0     C27493   5.101  10.264   6.236  0.9495  0.1303 -0.5265
  945MOL0     C27494   4.672  10.389   6.183 -0.9815  0.4951  0.9046
  945MOL0     C27495   4.601  10.459   6.282  0.1161 -0.3857 -0.1090
  945MOL0     C27496   4.460  10.460   6.289 -1.3835  0.1776  0.0933
  945MOL0     C27497   4.399  10.415   6.172  0.2719 -0.8134  0.4937
  945MOL0     O27498   4.265  10.419   6.157  0.0574  0.2475 -0.6236
  945MOL0     C27499   4.172  10.475   6.251  0.7395 -0.4377 -1.0963
  945MOL0     C27500   4.129  10.369   6.349 -0.4842  0.4679  0.5603
  945MOL0     C27501   3.982  10.342   6.333 -0.3112  0.3048 -0.3880
  945MOL0     C27502   3.944  10.269   6.200  0.1872 -0.4161 -0.6745
  945MOL0     C27503   3.808  10.222   6.229  0.9629  0.3772  0.0251
  945MOL0     C27504   3.697  10.177   6.251  0.1755 -0.0463  0.1967
  945MOL0     C27505   4.470  10.351   6.067  0.6046  0.0135  0.6997
  945MOL0     C27506   4.607  10.332   6.066 -0.0938 -0.7862  0.0077
  945MOL0     C27507   4.674  10.254   5.953  0.0991 -0.3917  0.7454
  945MOL0     H27508   5.056  10.335   5.915 -1.9125 -3.5636  1.0164
  945MOL0     H27509   5.324  10.316   5.938  3.3597  0.2269  2.9514
  945MOL0     H27510   5.519  10.178   5.971 -1.9791  1.0065 -2.1712
  945MOL0     H27511   5.544  10.349   5.986 -0.8433  0.2568  0.9010
  945MOL0     H27512   5.750  10.295   6.144  1.1897 -1.8217  2.5632
  945MOL0     H27513   5.761  10.211   5.992 -0.7897  4.0557 -1.6113
  945MOL0     H27514   5.706   9.997   6.084  1.5757 -1.1404  1.3102
  945MOL0     H27515   5.612  10.079   6.217 -0.1393 -1.2188  0.2245
  945MOL0     H27516   5.802   9.958   6.273 -1.4342  0.3768 -2.3416
  945MOL0     H27517   5.918  10.072   6.184 -0.0703  1.3399  0.2559
  945MOL0     H27518   5.847  10.245   6.350  1.1412  0.4711  2.8773
  945MOL0     H27519   5.733  10.147   6.406  3.1894  0.2755  2.9815
  945MOL0     H27520   5.903   9.979   6.469 -0.4820  0.4869  1.9907
  945MOL0     H27521   6.011  10.109   6.427 -0.4834 -1.7768 -0.5915
  945MOL0     H27522   5.910  10.079   6.693 -0.3443  0.3498 -0.0779
  945MOL0     H27523   5.776  10.161   6.633  0.2466 -0.2507 -0.2954
  945MOL0     H27524   5.921  10.361   6.568  2.3241 -0.1460 -0.6731
  945MOL0     H27525   5.902  10.330   6.742 -1.9852  3.1775 -1.1839
  945MOL0     H27526   6.105  10.226   6.886  2.2548  1.0489  0.6179
  945MOL0     H27527   6.452  10.227   6.854  1.1746 -0.7084  0.8476
  945MOL0     H27528   6.339  10.148   6.947 -0.3697  1.7068 -0.3612
  945MOL0     H27529   6.384   9.942   6.754  0.3828  1.7935 -1.8090
  945MOL0     H27530   6.537  10.037   6.751  2.4106  0.5189  3.2339
  945MOL0     H27531   6.406   9.833   6.946  0.3788 -0.6264  0.6993
  945MOL0     H27532   6.436   9.985   7.030  0.9311 -0.1774  1.2877
  945MOL0     H27533   6.622   9.851   7.065 -0.6269 -3.7875 -1.8032
  945MOL0     H27534   6.667   9.987   6.966  0.5816 -0.1973 -2.4793
  945MOL0     H27535   6.598   9.663   6.639 -1.7100  2.2685  1.0870
  945MOL0     H27536   6.513   9.461   6.625  1.1679  4.8456 -0.9403
  945MOL0     H27537   6.409   9.018   6.798  0.2270  0.7651  1.2310
  945MOL0     H27538   6.276   8.804   6.739 -2.7177 -1.2211  1.9135
  945MOL0     H27539   5.885   8.831   6.561  1.5380 -0.3043  3.0565
  945MOL0     H27540   5.992   8.826   6.420  2.4570 -1.7068  0.0217
  945MOL0     H27541   6.017   8.569   6.468  3.0149  2.0052  1.1570
  945MOL0     H27542   5.904   8.597   6.604  0.2780  0.9490 -0.4673
  945MOL0     H27543   5.782   8.486   6.420 -1.1317 -0.8193 -2.1756
  945MOL0     H27544   5.718   8.635   6.460  0.1594  0.4611 -1.2773
  945MOL0     H27545   5.935   8.612   6.239  0.1355 -0.9434 -0.0767
  945MOL0     H27546   5.818   8.740   6.246 -0.4763 -0.5977 -1.0716
  945MOL0     H27547   5.666   8.627   6.153  0.4312  0.0438  3.4668
  945MOL0     H27548   5.701   8.463   6.208  0.3861 -0.1824  1.5344
  945MOL0     H27549   5.892   8.606   6.021  0.3121 -0.1853  1.2283
  945MOL0     H27550   5.879   8.428   6.055 -2.3256 -0.6719 -0.8755
  945MOL0     H27551   5.816   8.497   5.821 -0.1904  1.3655 -0.3605
  945MOL0     H27552   5.660   8.564   5.895  2.0860  2.1133  1.3598
  945MOL0     H27553   5.646   8.337   5.802 -0.4808  1.6254  0.0968
  945MOL0     H27554   5.773   8.286   5.903 -0.3576 -0.2828  0.5193
  945MOL0     H27555   5.980   9.056   6.550  1.0697 -0.0217 -2.2104
  945MOL0     H27556   6.127   9.251   6.602  4.6390  1.3681  1.1705
  945MOL0     H27557   6.480   9.423   7.059  0.1586  2.0619  1.4315
  945MOL0     H27558   6.613   9.622   7.061  2.8393 -1.3519 -1.0405
  945MOL0     H27559   5.279  10.229   6.351 -3.5438 -2.1542 -0.5747
  945MOL0     H27560   5.034  10.250   6.320 -1.6786  0.4915 -2.4228
  945MOL0     H27561   4.652  10.504   6.367  1.3391 -4.1401  1.3430
  945MOL0     H27562   4.397  10.500   6.367  0.6287  1.3424  1.1878
  945MOL0     H27563   4.080  10.502   6.198  1.3030 -2.4629 -3.2837
  945MOL0     H27564   4.208  10.570   6.292  0.2740 -0.7312  0.0131
  945MOL0     H27565   4.151  10.391   6.454 -0.0012 -1.8123  0.9661
  945MOL0     H27566   4.183  10.280   6.318 -3.1866 -0.4579 -1.9080
  945MOL0     H27567   3.928  10.437   6.336 -1.9335 -0.6159  1.3780
  945MOL0     H27568   3.949  10.284   6.419  1.0803  1.5864  1.0671
  945MOL0     H27569   3.961  10.341   6.119 -3.1329  0.1823 -0.9538
  945MOL0     H27570   4.010  10.185   6.176  1.1178  0.8425 -2.7337
  945MOL0     H27571   3.602  10.136   6.279  0.5706  0.3534  2.3261
  945MOL0     H27572   4.406  10.320   5.985 -1.1438 -1.3947  2.4826
  945MOL0     H27573   4.742  10.176   5.988  2.2962  1.6118  1.2211
  945MOL0     H27574   4.597  10.213   5.887  0.8943  1.1248 -1.2362
  945MOL0     H27575   4.742  10.313   5.892  1.5287  0.3915  2.9649
  946MOL0     O27576   5.324   1.165   3.762 -0.2558  0.5985 -0.8891
  946MOL0     C27577   5.431   1.134   3.816  0.2265 -0.4092  0.2066
  946MOL0     O27578   5.512   1.038   3.768  0.4632  0.6538  0.4211
  946MOL0     C27579   5.465   0.948   3.678 -0.5524  0.2461  0.2765
  946MOL0     C27580   5.454   0.959   3.545 -1.0489 -0.5561  0.1149
  946MOL0     C27581   5.388   0.859   3.464 -0.3914 -0.5208  1.0678
  946MOL0     C27582   5.344   0.738   3.514  0.5251 -0.3055 -0.4721
  946MOL0     O27583   5.285   0.652   3.432 -0.0780  0.5191 -0.7864
  946MOL0     C27584   5.211   0.537   3.480  1.4100 -0.3359 -0.8271
  946MOL0     C27585   5.077   0.555   3.562 -0.1714 -0.3233  0.4381
  946MOL0     C27586   4.980   0.663   3.510 -0.0394 -0.1700 -0.4618
  946MOL0     C27587   4.994   0.793   3.591  0.4910 -0.3476 -0.7492
  946MOL0     C27588   4.928   0.916   3.527  1.0197  0.2811 -0.4035
  946MOL0     C27589   5.004   0.957   3.403 -0.6545 -0.0445 -0.2108
  946MOL0     C27590   4.955   1.090   3.344 -0.3566  0.1376 -1.2076
  946MOL0     C27591   5.020   1.122   3.204 -0.2337  0.0352  0.5278
  946MOL0     N27592   5.163   1.156   3.213  0.4546  0.0076  0.4544
  946MOL0     C27593   5.199   1.288   3.205  1.2054  1.1110 -1.3231
  946MOL0     C27594   5.328   1.279   3.212 -0.5360  0.1965  0.1421
  946MOL0     C27595   5.443   1.389   3.219  0.4435  0.2672 -0.8246
  946MOL0     C27596   5.456   1.446   3.360 -0.4735 -0.3057 -0.1375
  946MOL0     C27597   5.522   1.338   3.444  0.2008 -0.2159 -0.4053
  946MOL0     C27598   5.563   1.402   3.576  0.3130  0.2268 -1.0215
  946MOL0     O27599   5.684   1.476   3.569 -0.0543 -0.4261  0.2469
  946MOL0     C27600   5.749   1.486   3.698  0.1330 -0.9521  0.2095
  946MOL0     C27601   5.685   1.521   3.816 -0.4197  0.0961  0.0860
  946MOL0     C27602   5.755   1.543   3.933  1.0478  0.0680  0.2925
  946MOL0     C27603   5.896   1.518   3.936  0.5944  0.0941 -1.0840
  946MOL0     C27604   5.970   1.547   4.059 -0.4839  0.4559  0.1331
  946MOL0     O27605   6.104   1.540   4.056 -0.3610  0.1568 -0.5787
  946MOL0     C27606   6.162   1.582   4.169 -0.0424 -1.1867  0.2842
  946MOL0     C27607   6.243   1.698   4.163  0.6992 -0.7579 -0.7981
  946MOL0     C27608   6.301   1.739   4.282  1.1926  0.3174  0.3343
  946MOL0     C27609   6.307   1.663   4.398 -0.0185 -0.5551 -0.0661
  946MOL0     O27610   6.385   1.695   4.506 -0.1412  0.0076 -0.2233
  946MOL0     C27611   6.354   1.635   4.644 -0.4305  0.3290  0.8890
  946MOL0     C27612   6.430   1.707   4.756  0.1601  0.5729  0.5757
  946MOL0     C27613   6.417   1.641   4.902 -0.2625  0.1381 -0.2898
  946MOL0     C27614   6.514   1.542   4.937  0.6701  0.4991  0.6751
  946MOL0     C27615   6.513   1.492   5.075 -0.9073  0.3028 -0.0878
  946MOL0     C27616   6.385   1.435   5.112 -0.2460 -0.3689  0.0884
  946MOL0     C27617   6.411   1.337   5.232  0.2194 -0.7982  0.1088
  946MOL0     C27618   6.297   1.242   5.258  0.3601  0.4203  0.0144
  946MOL0    Cl27619   6.278   1.121   5.141  0.0836 -0.1937  0.2201
  946MOL0     C27620   6.226   1.548   4.400  0.0152  1.0101  0.9574
  946MOL0     C27621   6.154   1.515   4.288 -0.4456  0.2161 -0.5741
  946MOL0     O27622   5.903   1.582   4.157  0.0760 -0.6737 -0.8144
  946MOL0     C27623   5.956   1.477   3.821 -0.1718 -0.4235  0.6787
  946MOL0     C27624   5.884   1.465   3.700 -0.4942  0.1021 -0.2264
  946MOL0     N27625   5.376   1.145   3.224  0.6610 -0.8502 -0.7044
  946MOL0     N27626   5.268   1.073   3.232  0.2322 -0.1475  0.5049
  946MOL0     C27627   5.350   0.729   3.659  0.0171 -0.1402 -0.5707
  946MOL0     C27628   5.403   0.834   3.734  0.3507  0.4573  0.2238
  946MOL0     C27629   5.473   1.185   3.954 -0.4501  0.1497  1.5697
  946MOL0     C27630   5.367   1.245   4.029  0.7717  0.2463 -0.4298
  946MOL0     C27631   5.391   1.302   4.149 -0.5600 -0.2915 -0.9680
  946MOL0     C27632   5.518   1.302   4.210 -0.5616 -0.6346 -0.0404
  946MOL0     O27633   5.527   1.368   4.328  0.3556  0.2667  0.0551
  946MOL0     C27634   5.651   1.399   4.386 -0.5029  0.5134  0.1112
  946MOL0     C27635   5.624   1.498   4.488  0.3517  0.3008 -0.2856
  946MOL0     C27636   5.748   1.510   4.576  0.1446 -0.8764 -0.7615
  946MOL0     C27637   5.745   1.642   4.667 -0.9659 -0.3197  0.9764
  946MOL0     C27638   5.656   1.630   4.784  0.0798 -1.2009  1.0541
  946MOL0     C27639   5.583   1.622   4.884 -0.1067 -0.3589  0.6001
  946MOL0     C27640   5.627   1.243   4.141  0.9902 -0.2724  0.2579
  946MOL0     C27641   5.605   1.187   4.016  0.7362 -0.5544 -0.1945
  946MOL0     C27642   5.734   1.158   3.939  0.6043  0.1364 -0.1122
  946MOL0     H27643   5.488   1.041   3.484 -0.0019 -0.9691  0.1105
  946MOL0     H27644   5.381   0.878   3.357  2.3790 -2.4611  0.4246
  946MOL0     H27645   5.166   0.497   3.388  0.3308  1.7702 -1.2758
  946MOL0     H27646   5.283   0.470   3.527  2.3381 -0.1442 -1.9093
  946MOL0     H27647   5.098   0.571   3.668  0.7369 -1.9852  0.5500
  946MOL0     H27648   5.027   0.458   3.562 -0.1377 -0.3419  0.3078
  946MOL0     H27649   4.875   0.634   3.506  0.5426 -2.7339  0.8020
  946MOL0     H27650   4.995   0.672   3.402 -1.8018 -3.2235 -1.0673
  946MOL0     H27651   4.945   0.783   3.689  1.2213 -1.9873 -0.5194
  946MOL0     H27652   5.098   0.819   3.611 -0.6505  3.9501  0.7556
  946MOL0     H27653   4.828   0.883   3.498 -0.0662  0.8109  2.4657
  946MOL0     H27654   4.912   1.000   3.594  2.8944  2.4353 -2.4633
  946MOL0     H27655   5.111   0.961   3.424 -0.6890 -0.8588  0.1775
  946MOL0     H27656   4.976   0.877   3.333 -0.9354 -0.1789  0.0500
  946MOL0     H27657   4.993   1.158   3.421  2.2207  0.0301 -2.2883
  946MOL0     H27658   4.845   1.088   3.347 -0.4006 -3.1918 -1.5831
  946MOL0     H27659   5.014   1.045   3.127  1.1997 -2.6737  2.9406
  946MOL0     H27660   4.961   1.208   3.170 -3.0374 -2.3199 -1.0281
  946MOL0     H27661   5.126   1.369   3.204  1.8934  1.7781  0.2631
  946MOL0     H27662   5.533   1.341   3.180  0.0312 -1.7422  0.5780
  946MOL0     H27663   5.434   1.471   3.146 -1.1466 -0.8448 -1.9506
  946MOL0     H27664   5.519   1.535   3.352 -0.0503 -0.7165 -1.7269
  946MOL0     H27665   5.354   1.469   3.393 -1.2528 -1.7699 -1.4011
  946MOL0     H27666   5.611   1.292   3.400 -1.2252 -3.4390 -0.1817
  946MOL0     H27667   5.444   1.263   3.458 -0.0608  0.1917  0.3661
  946MOL0     H27668   5.575   1.334   3.660 -2.9826 -0.8396 -1.2611
  946MOL0     H27669   5.481   1.470   3.602 -0.8408 -0.9582 -1.4270
  946MOL0     H27670   5.581   1.550   3.824 -0.4594 -0.1258  0.3565
  946MOL0     H27671   5.708   1.579   4.024  2.4873  1.3358  0.5954
  946MOL0     H27672   6.245   1.766   4.078  3.5451  0.3213  0.0416
  946MOL0     H27673   6.358   1.831   4.274  3.3790 -0.9259  0.6607
  946MOL0     H27674   6.247   1.645   4.659 -0.7116  0.2370 -0.8276
  946MOL0     H27675   6.379   1.528   4.640 -2.9176 -0.3437  1.5213
  946MOL0     H27676   6.530   1.709   4.711  0.0040 -0.0493  0.1824
  946MOL0     H27677   6.385   1.807   4.760 -2.5901 -0.4496 -1.3155
  946MOL0     H27678   6.414   1.715   4.982  0.4253 -0.5284  0.3711
  946MOL0     H27679   6.316   1.598   4.907 -0.8229  1.4776  0.9309
  946MOL0     H27680   6.614   1.584   4.920  0.1281  2.4573  2.0234
  946MOL0     H27681   6.502   1.449   4.882 -2.7298 -0.5404  2.8514
  946MOL0     H27682   6.539   1.567   5.150 -1.0709  1.3582 -1.0603
  946MOL0     H27683   6.599   1.425   5.082 -0.8652  0.4949  2.0193
  946MOL0     H27684   6.311   1.512   5.134 -0.1805  0.6081 -2.6912
  946MOL0     H27685   6.340   1.383   5.026  0.5278  1.8809 -1.7905
  946MOL0     H27686   6.436   1.400   5.318  4.0737 -1.2726 -0.4653
  946MOL0     H27687   6.499   1.274   5.212  0.2597 -0.0721 -2.3447
  946MOL0     H27688   6.321   1.191   5.352  2.1217 -0.4184 -0.8619
  946MOL0     H27689   6.202   1.292   5.280  0.0992  0.2663 -0.7422
  946MOL0     H27690   6.211   1.472   4.475 -1.1630  1.6333  1.3820
  946MOL0     H27691   6.100   1.421   4.290  1.0554 -0.6677  0.3959
  946MOL0     H27692   6.063   1.465   3.808 -0.0608 -0.6947  1.7989
  946MOL0     H27693   5.928   1.442   3.603 -0.2788 -0.8946  0.0977
  946MOL0     H27694   5.321   0.640   3.714 -1.0385 -0.3287 -1.3973
  946MOL0     H27695   5.402   0.825   3.842 -0.6269  0.3027  0.2095
  946MOL0     H27696   5.262   1.246   4.000  0.2957 -0.2151  1.1569
  946MOL0     H27697   5.313   1.333   4.218  1.0221 -1.5801  1.5427
  946MOL0     H27698   5.704   1.443   4.301 -0.0953 -1.3539 -0.6680
  946MOL0     H27699   5.707   1.318   4.434  1.2214  2.4872  1.6269
  946MOL0     H27700   5.541   1.469   4.553  2.2257 -4.9372  0.2772
  946MOL0     H27701   5.596   1.590   4.436 -0.9817 -0.8673 -1.7415
  946MOL0     H27702   5.837   1.529   4.514 -0.6473  1.4335 -1.2824
  946MOL0     H27703   5.768   1.429   4.646 -0.1968  0.3659  0.8139
  946MOL0     H27704   5.844   1.659   4.710  0.3642 -2.0713 -1.1495
  946MOL0     H27705   5.726   1.728   4.603 -0.8447 -1.7039 -1.0476
  946MOL0     H27706   5.509   1.613   4.962  0.8837 -0.7195  1.5184
  946MOL0     H27707   5.732   1.252   4.169  1.4316  3.3407 -1.9846
  946MOL0     H27708   5.718   1.183   3.833  0.0197 -0.3493 -0.1483
  946MOL0     H27709   5.820   1.211   3.981 -0.4204  1.2433  0.6173
  946MOL0     H27710   5.772   1.056   3.951  1.5792  0.4589 -0.3331
  947MOL0     O27711   8.714   0.936   1.926 -0.2967 -0.3820  0.3456
  947MOL0     C27712   8.774   0.845   1.872 -0.0741  1.0834  0.2156
  947MOL0     O27713   8.793   0.721   1.924  0.9439  0.5007 -0.1763
  947MOL0     C27714   8.732   0.686   2.040 -0.8484  0.9396 -0.7158
  947MOL0     C27715   8.768   0.746   2.164  0.2362 -0.7952  0.1548
  947MOL0     C27716   8.707   0.704   2.282 -0.4979  0.1625  0.2768
  947MOL0     C27717   8.621   0.592   2.269  0.7993  0.1363  0.4118
  947MOL0     O27718   8.575   0.532   2.384  0.2334 -0.8583  0.0535
  947MOL0     C27719   8.541   0.607   2.506 -0.3365 -0.2702  0.3635
  947MOL0     C27720   8.424   0.530   2.571  1.0258 -0.7784 -0.1301
  947MOL0     C27721   8.389   0.589   2.707 -0.0910 -0.5690 -0.0095
  947MOL0     C27722   8.357   0.736   2.704 -0.6842 -0.7048  0.9720
  947MOL0     C27723   8.301   0.787   2.827 -0.4861 -0.3419  0.9819
  947MOL0     C27724   8.343   0.932   2.850 -1.1178 -0.5619  0.2597
  947MOL0     C27725   8.251   0.996   2.950 -0.9324 -0.5550 -0.5204
  947MOL0     C27726   8.258   1.145   2.972 -0.1154 -0.3971  1.1933
  947MOL0     N27727   8.162   1.209   2.887  0.7040  0.2200  0.3746
  947MOL0     C27728   8.041   1.258   2.939  0.0302  0.4272  0.3293
  947MOL0     C27729   7.966   1.266   2.818 -0.1803 -0.0499  0.4216
  947MOL0     C27730   7.815   1.308   2.815 -0.6025  0.5292  0.0177
  947MOL0     C27731   7.776   1.397   2.690  0.5896  0.6724  0.1510
  947MOL0     C27732   7.694   1.317   2.585 -0.2481  0.4080  1.2152
  947MOL0     C27733   7.551   1.272   2.623  1.4321  0.9247 -0.2151
  947MOL0     O27734   7.449   1.369   2.598  0.0349  0.1830 -0.2723
  947MOL0     C27735   7.320   1.338   2.576 -0.6119  0.1515 -0.0069
  947MOL0     C27736   7.254   1.220   2.615  0.1761  0.5840  0.3978
  947MOL0     C27737   7.121   1.200   2.568  0.3200 -0.2840 -0.1802
  947MOL0     C27738   7.040   1.296   2.508 -0.2379 -0.4295  0.6654
  947MOL0     C27739   6.904   1.258   2.469  0.5828  0.6295  0.0720
  947MOL0     O27740   6.874   1.124   2.497 -0.1369 -0.0629 -0.3167
  947MOL0     C27741   6.747   1.076   2.459 -0.3454 -0.3144  0.8636
  947MOL0     C27742   6.651   1.039   2.545  0.4293 -0.3901 -0.5263
  947MOL0     C27743   6.526   0.980   2.509 -0.1380 -0.3182 -0.8808
  947MOL0     C27744   6.510   0.940   2.372 -0.2070 -0.4785  0.0600
  947MOL0     O27745   6.403   0.873   2.314 -0.3335 -0.6292 -0.4062
  947MOL0     C27746   6.275   0.873   2.387 -0.2150 -0.0401 -0.4084
  947MOL0     C27747   6.191   0.753   2.364  0.7542  0.2550  0.0672
  947MOL0     C27748   6.072   0.756   2.463  0.0742  1.0421 -0.4663
  947MOL0     C27749   5.970   0.647   2.439  0.4235  0.4545  0.2580
  947MOL0     C27750   5.869   0.626   2.551  0.2030 -1.0483  0.9981
  947MOL0     C27751   5.769   0.522   2.504  0.1567 -0.5318  0.2517
  947MOL0     C27752   5.679   0.506   2.625  0.5929  0.5960  0.0105
  947MOL0     C27753   5.569   0.405   2.620  0.2719  1.0102 -0.0842
  947MOL0    Cl27754   5.638   0.240   2.615  0.3799 -0.5403  0.2751
  947MOL0     C27755   6.619   0.966   2.290 -0.7130  0.1624  0.4679
  947MOL0     C27756   6.734   1.047   2.317  0.8520  0.4692  0.5415
  947MOL0     O27757   6.830   1.333   2.397 -0.0036  0.2709 -0.8306
  947MOL0     C27758   7.108   1.416   2.483 -0.2766 -0.4888 -0.8169
  947MOL0     C27759   7.243   1.437   2.505  0.3246 -0.9043 -0.0136
  947MOL0     N27760   8.048   1.246   2.703 -0.0994  0.7293  0.6321
  947MOL0     N27761   8.168   1.208   2.750  1.0015 -0.2991 -0.3732
  947MOL0     C27762   8.590   0.524   2.155 -0.4793  0.4229  0.0828
  947MOL0     C27763   8.656   0.569   2.039 -0.8177 -0.6088 -0.7767
  947MOL0     C27764   8.853   0.872   1.747 -0.0663 -0.1534 -0.4127
  947MOL0     C27765   8.967   0.792   1.720  1.0953  0.4094 -0.3486
  947MOL0     C27766   9.026   0.788   1.598 -0.1304  0.3533  0.4306
  947MOL0     C27767   8.997   0.882   1.505  0.0080 -0.8949  0.2484
  947MOL0     O27768   9.065   0.908   1.385 -0.1609 -0.1285 -0.1528
  947MOL0     C27769   9.189   0.844   1.375 -0.7146  0.0235  0.1825
  947MOL0     C27770   9.279   0.913   1.261  0.4768 -0.1109  0.7987
  947MOL0     C27771   9.204   0.926   1.131  0.2667 -0.6572 -0.0531
  947MOL0     C27772   9.282   0.945   1.011  0.3830 -0.1234 -0.6456
  947MOL0     C27773   9.379   1.054   1.007  1.1981  0.1211 -0.4454
  947MOL0     C27774   9.454   1.148   0.990 -0.1496  0.0014  0.6144
  947MOL0     C27775   8.880   0.955   1.524 -0.2483  0.5664  0.1315
  947MOL0     C27776   8.804   0.955   1.649 -0.0009 -0.0185  0.4261
  947MOL0     C27777   8.698   1.065   1.658 -0.0782 -0.4583 -0.3119
  947MOL0     H27778   8.832   0.833   2.174  2.1752 -2.1644  0.0406
  947MOL0     H27779   8.739   0.739   2.379 -4.1029  1.1198  1.2636
  947MOL0     H27780   8.622   0.624   2.578 -0.7016 -2.0172  1.2356
  947MOL0     H27781   8.494   0.702   2.480 -2.4335 -1.3422  0.0354
  947MOL0     H27782   8.452   0.428   2.596 -1.7370 -2.2681 -2.5484
  947MOL0     H27783   8.329   0.527   2.517  1.3756 -3.1519 -0.7129
  947MOL0     H27784   8.470   0.560   2.774 -0.3497  1.5664  1.2999
  947MOL0     H27785   8.301   0.535   2.743 -0.0523 -1.1061 -0.6887
  947MOL0     H27786   8.448   0.791   2.681 -0.3974 -1.1734  0.9787
  947MOL0     H27787   8.298   0.757   2.614  0.0121 -0.3549  0.5960
  947MOL0     H27788   8.192   0.794   2.822 -0.4178 -0.2401 -2.8182
  947MOL0     H27789   8.318   0.725   2.916 -1.2193  2.1047  2.9391
  947MOL0     H27790   8.443   0.935   2.895 -0.8216  0.6754 -0.4484
  947MOL0     H27791   8.332   0.981   2.753  2.8316  1.5108  0.6537
  947MOL0     H27792   8.288   0.965   3.048 -0.5645  0.7400 -0.2195
  947MOL0     H27793   8.151   0.955   2.936 -1.3880  0.2733  0.1948
  947MOL0     H27794   8.238   1.161   3.078  1.8163  1.8230  1.2879
  947MOL0     H27795   8.355   1.186   2.942 -1.8395  2.0264 -1.5388
  947MOL0     H27796   8.018   1.271   3.044  0.8231 -0.6072  0.6511
  947MOL0     H27797   7.754   1.217   2.829  3.0543 -1.8893  1.8874
  947MOL0     H27798   7.798   1.363   2.908 -1.3414  1.5188 -0.6793
  947MOL0     H27799   7.704   1.474   2.720  0.1608  1.1854 -2.0598
  947MOL0     H27800   7.862   1.444   2.641  1.5625 -0.7255  0.4559
  947MOL0     H27801   7.756   1.229   2.565 -1.9177 -0.1991 -1.7939
  947MOL0     H27802   7.678   1.373   2.493 -0.5580 -1.4926  0.0743
  947MOL0     H27803   7.543   1.222   2.720  4.0969 -4.6918 -2.4593
  947MOL0     H27804   7.532   1.181   2.565  1.6298 -0.2988  1.5516
  947MOL0     H27805   7.321   1.146   2.657  1.0736  2.0217  1.5898
  947MOL0     H27806   7.072   1.108   2.601 -1.8276  0.4398 -1.2174
  947MOL0     H27807   6.684   1.050   2.647  3.2580 -0.3697 -1.3672
  947MOL0     H27808   6.448   0.950   2.578  1.8059 -0.2289  1.4784
  947MOL0     H27809   6.293   0.872   2.494 -0.7802 -0.1513 -0.3095
  947MOL0     H27810   6.230   0.972   2.371  3.5926  2.5335  3.0099
  947MOL0     H27811   6.155   0.759   2.261  0.8051  0.2251  0.0476
  947MOL0     H27812   6.255   0.666   2.381 -1.1915 -1.9334 -2.7965
  947MOL0     H27813   6.124   0.741   2.558  1.3327 -0.8243 -1.4023
  947MOL0     H27814   6.008   0.845   2.463  1.0220  1.7651 -2.1927
  947MOL0     H27815   6.025   0.554   2.426 -1.3286 -0.8724  1.7798
  947MOL0     H27816   5.920   0.669   2.344 -1.1441 -1.6393  0.5312
  947MOL0     H27817   5.812   0.718   2.572  0.0524 -1.1414  1.0019
  947MOL0     H27818   5.924   0.596   2.640  0.8210 -0.0927  0.9460
  947MOL0     H27819   5.712   0.543   2.413 -1.3067  2.6287  1.7422
  947MOL0     H27820   5.819   0.427   2.484 -1.7449 -1.8734  1.6095
  947MOL0     H27821   5.638   0.607   2.641 -0.7214  0.2451 -0.9052
  947MOL0     H27822   5.743   0.474   2.707  2.3501 -1.3803 -2.0071
  947MOL0     H27823   5.497   0.427   2.700 -1.4335  4.5813 -2.3424
  947MOL0     H27824   5.509   0.419   2.529 -0.5421 -2.3973 -0.1998
  947MOL0     H27825   6.612   0.926   2.189  2.6895 -2.0238  0.9240
  947MOL0     H27826   6.812   1.068   2.245 -0.8927  0.3500 -1.4524
  947MOL0     H27827   7.067   1.491   2.415  2.0153 -1.0079 -2.9127
  947MOL0     H27828   7.285   1.532   2.473 -1.9617 -0.8533 -3.3464
  947MOL0     H27829   8.514   0.448   2.172 -1.2610  1.5379  1.8902
  947MOL0     H27830   8.650   0.502   1.954  1.4438 -2.0179  0.0782
  947MOL0     H27831   9.002   0.733   1.804 -1.7069  0.9847  1.3449
  947MOL0     H27832   9.104   0.714   1.581 -0.7945 -0.5649  1.2315
  947MOL0     H27833   9.182   0.738   1.353 -1.7010  0.1568 -0.2101
  947MOL0     H27834   9.239   0.848   1.472 -0.2474 -4.0322  0.2538
  947MOL0     H27835   9.365   0.847   1.247  1.7827  1.1406  2.3899
  947MOL0     H27836   9.309   1.012   1.297 -0.9679 -0.7089  3.9713
  947MOL0     H27837   9.137   1.009   1.156 -1.3702 -2.2132  0.9532
  947MOL0     H27838   9.133   0.845   1.110 -1.4261  1.0106 -1.0934
  947MOL0     H27839   9.327   0.848   0.989 -1.8056 -1.2413 -0.4898
  947MOL0     H27840   9.213   0.960   0.927 -1.9248  1.2916  1.3780
  947MOL0     H27841   9.536   1.214   0.969  1.0334 -2.2927 -2.8334
  947MOL0     H27842   8.843   1.009   1.437  0.7236 -1.1774 -1.4539
  947MOL0     H27843   8.730   1.149   1.721 -4.5940  1.6361 -0.4346
  947MOL0     H27844   8.675   1.116   1.564 -0.1795 -1.0910 -0.6403
  947MOL0     H27845   8.608   1.020   1.701 -0.9588  0.0435 -1.5845
  948MOL0     O27846   5.535   8.149   2.252 -0.5048 -0.2118  0.2198
  948MOL0     C27847   5.472   8.255   2.246  0.0599  0.7049  0.2560
  948MOL0     O27848   5.476   8.350   2.144 -0.3073  0.7221  0.2025
  948MOL0     C27849   5.564   8.320   2.049 -0.8689  0.8006 -0.6280
  948MOL0     C27850   5.707   8.316   2.073 -0.3677 -0.4846  0.8158
  948MOL0     C27851   5.782   8.280   1.965 -0.1124 -0.5055  0.6142
  948MOL0     C27852   5.733   8.263   1.829  0.5012 -0.9384 -0.0150
  948MOL0     O27853   5.825   8.239   1.736 -0.8300  0.8617  0.1960
  948MOL0     C27854   5.771   8.208   1.602 -0.6163  0.5579  0.2768
  948MOL0     C27855   5.890   8.200   1.505 -0.0880 -0.4130 -0.4756
  948MOL0     C27856   5.943   8.339   1.483  0.0762 -0.0905  0.0222
  948MOL0     C27857   6.069   8.331   1.391 -0.1626 -0.9599 -0.8664
  948MOL0     C27858   6.195   8.267   1.452 -0.3214  0.3641 -1.1775
  948MOL0     C27859   6.308   8.288   1.351 -0.0488 -0.7319  0.1734
  948MOL0     C27860   6.450   8.269   1.409 -0.5454 -0.1610 -0.8858
  948MOL0     C27861   6.491   8.363   1.523  0.0686 -0.0596  1.0614
  948MOL0     N27862   6.491   8.515   1.493 -0.1817 -0.5643 -0.0540
  948MOL0     C27863   6.561   8.580   1.395  0.7327  0.6481  0.0733
  948MOL0     C27864   6.525   8.706   1.411  0.4214 -0.1427  0.0809
  948MOL0     C27865   6.583   8.821   1.330  1.0333  0.2981 -0.1297
  948MOL0     C27866   6.638   8.928   1.417  0.3336 -0.8381 -0.3098
  948MOL0     C27867   6.771   8.882   1.474 -0.1178  0.5410 -0.4886
  948MOL0     C27868   6.832   8.998   1.555  1.5652  0.3319  0.3504
  948MOL0     O27869   6.947   8.949   1.624 -0.4125 -0.4082 -0.4523
  948MOL0     C27870   7.006   9.039   1.699  0.5478  0.5788 -0.4625
  948MOL0     C27871   7.128   8.987   1.747  1.0229  0.0997 -0.5888
  948MOL0     C27872   7.217   9.055   1.830  1.1076  0.3917  0.1915
  948MOL0     C27873   7.177   9.188   1.867 -0.6282 -0.4823 -0.5434
  948MOL0     C27874   7.267   9.259   1.972  0.4126  0.7228  0.3490
  948MOL0     O27875   7.394   9.196   1.999  0.2597  0.4312  0.6370
  948MOL0     C27876   7.476   9.261   2.090  1.0115 -0.9836 -0.1718
  948MOL0     C27877   7.466   9.231   2.221 -0.3726 -0.0920  0.0573
  948MOL0     C27878   7.535   9.304   2.322  0.1088  0.5675 -0.0398
  948MOL0     C27879   7.624   9.410   2.285  0.3843 -0.0213  1.1627
  948MOL0     O27880   7.700   9.472   2.369 -0.5453 -0.1704  0.6199
  948MOL0     C27881   7.837   9.425   2.362 -0.3902  0.0223 -0.7019
  948MOL0     C27882   7.913   9.479   2.488  1.7388  0.8457  0.0854
  948MOL0     C27883   7.911   9.630   2.513  0.2995 -0.0756  0.0510
  948MOL0     C27884   7.973   9.714   2.406  0.5908  0.4864 -0.1349
  948MOL0     C27885   7.970   9.864   2.433 -0.4130  0.3840 -0.1668
  948MOL0     C27886   8.028   9.923   2.296  0.7896  0.2786  0.5158
  948MOL0     C27887   8.009  10.075   2.270 -0.0238  1.0087 -0.5283
  948MOL0     C27888   8.104  10.157   2.365 -0.2657 -1.4416 -0.6506
  948MOL0    Cl27889   8.272  10.107   2.335  0.3027 -0.5491  0.3650
  948MOL0     C27890   7.639   9.443   2.149  0.0421 -0.2679  1.0159
  948MOL0     C27891   7.557   9.368   2.052 -0.9198 -0.5351 -0.1116
  948MOL0     O27892   7.218   9.358   2.028 -0.3126 -0.2783  0.2794
  948MOL0     C27893   7.068   9.256   1.816  0.3305  0.0765  0.1751
  948MOL0     C27894   6.982   9.176   1.731  0.3013  0.4787  0.3104
  948MOL0     N27895   6.430   8.709   1.506  0.4219 -0.4162  0.1437
  948MOL0     N27896   6.404   8.594   1.541 -0.1139  0.4335  0.1558
  948MOL0     C27897   5.594   8.263   1.821  0.9639  0.3764  0.1680
  948MOL0     C27898   5.509   8.297   1.929 -0.5889 -1.3907  0.4788
  948MOL0     C27899   5.405   8.282   2.369 -0.3500 -0.7120 -0.8161
  948MOL0     C27900   5.436   8.214   2.488  0.0928 -1.0997 -0.4521
  948MOL0     C27901   5.366   8.244   2.604 -0.4052  0.3923  0.1401
  948MOL0     C27902   5.265   8.333   2.603  0.7182 -0.6206  0.5959
  948MOL0     O27903   5.184   8.356   2.711  0.1767 -0.0371  0.7750
  948MOL0     C27904   5.231   8.328   2.838 -0.1465  0.2651 -0.7359
  948MOL0     C27905   5.168   8.189   2.879  0.4643  0.0195 -0.1962
  948MOL0     C27906   5.181   8.177   3.032  1.4507  0.4028  0.5295
  948MOL0     C27907   5.088   8.063   3.076 -0.4158  0.8785  0.1737
  948MOL0     C27908   5.046   8.094   3.216  1.0600  0.7121  0.2771
  948MOL0     C27909   5.023   8.114   3.336 -0.0116  0.5446  0.5670
  948MOL0     C27910   5.229   8.396   2.486 -0.2813  0.0966 -0.2679
  948MOL0     C27911   5.296   8.372   2.364 -0.3499 -0.1333 -0.6099
  948MOL0     C27912   5.219   8.419   2.238  0.4615  0.2301  0.0033
  948MOL0     H27913   5.753   8.327   2.171 -0.4761  1.6824  0.6752
  948MOL0     H27914   5.887   8.256   1.981  0.3587 -2.3939 -3.8089
  948MOL0     H27915   5.723   8.110   1.598  2.0248 -0.8680  0.6992
  948MOL0     H27916   5.699   8.283   1.568 -1.1322  0.4966  1.2006
  948MOL0     H27917   5.851   8.169   1.407 -2.4695  1.2382 -0.1531
  948MOL0     H27918   5.959   8.124   1.543  1.6555  1.3689  0.0492
  948MOL0     H27919   5.985   8.378   1.577  1.6356 -0.8619 -0.3186
  948MOL0     H27920   5.871   8.404   1.432  0.6355 -0.5049 -1.3403
  948MOL0     H27921   6.045   8.292   1.292  3.6439 -3.2071 -1.0876
  948MOL0     H27922   6.088   8.438   1.384 -2.8586 -0.2288  1.1172
  948MOL0     H27923   6.210   8.311   1.551  0.0987  0.2452 -1.1851
  948MOL0     H27924   6.176   8.161   1.468  0.7795  0.2727 -0.3248
  948MOL0     H27925   6.291   8.211   1.275  1.4451 -0.5480 -0.3790
  948MOL0     H27926   6.296   8.387   1.305  0.2533 -1.9684 -2.8158
  948MOL0     H27927   6.523   8.285   1.328 -1.3481  1.8819 -1.2782
  948MOL0     H27928   6.465   8.166   1.439 -4.8834 -0.9856 -0.9717
  948MOL0     H27929   6.413   8.348   1.598 -1.3244 -1.0713 -0.5301
  948MOL0     H27930   6.588   8.329   1.560  0.8687  0.9253 -0.0412
  948MOL0     H27931   6.627   8.548   1.315 -1.4834  0.0100 -1.6059
  948MOL0     H27932   6.662   8.790   1.260 -1.4788 -0.8666 -2.6377
  948MOL0     H27933   6.502   8.848   1.262  0.2381 -0.6007  0.4361
  948MOL0     H27934   6.649   9.020   1.358 -2.6321 -0.6532 -0.7155
  948MOL0     H27935   6.577   8.952   1.504  1.6496 -0.9546  0.6812
  948MOL0     H27936   6.842   8.871   1.391 -0.8656  1.0872 -1.2080
  948MOL0     H27937   6.762   8.792   1.535  3.3686  2.0571  2.7008
  948MOL0     H27938   6.755   9.014   1.630  2.2648 -1.7196  1.5754
  948MOL0     H27939   6.852   9.099   1.516  2.1984  1.5022  3.3907
  948MOL0     H27940   7.164   8.887   1.726  0.8522  0.2399 -1.6111
  948MOL0     H27941   7.302   9.007   1.877  1.6160  0.7860 -0.3131
  948MOL0     H27942   7.395   9.152   2.244  0.4883 -1.2769 -1.2016
  948MOL0     H27943   7.520   9.265   2.422  5.8892 -1.1767  0.4978
  948MOL0     H27944   7.839   9.315   2.361 -1.7247 -0.0956  1.6082
  948MOL0     H27945   7.888   9.458   2.271  4.5004 -0.8076  1.3873
  948MOL0     H27946   7.863   9.424   2.569 -0.3796  3.1474  0.4675
  948MOL0     H27947   8.019   9.454   2.479  1.4590 -0.3973  0.0047
  948MOL0     H27948   7.812   9.667   2.537 -1.1633 -2.0611 -2.3664
  948MOL0     H27949   7.973   9.637   2.603 -0.2372 -0.6199  0.4700
  948MOL0     H27950   7.920   9.692   2.313  2.0456  1.1687 -1.1720
  948MOL0     H27951   8.081   9.694   2.404  1.0034  2.4889 -1.4004
  948MOL0     H27952   8.037   9.889   2.516  0.8618  0.0935 -1.0852
  948MOL0     H27953   7.869   9.902   2.453 -0.7120 -0.6044  0.2549
  948MOL0     H27954   8.137   9.910   2.294  1.1071  2.5834 -0.4405
  948MOL0     H27955   7.978   9.878   2.209  0.0116 -0.1577  1.1789
  948MOL0     H27956   7.902  10.095   2.276 -0.1683  0.1933 -0.3708
  948MOL0     H27957   8.049  10.109   2.173 -1.1977 -2.0089 -2.2154
  948MOL0     H27958   8.091  10.266   2.358  1.0463 -0.9531  2.6320
  948MOL0     H27959   8.087  10.136   2.471  0.6424  2.2775  0.3656
  948MOL0     H27960   7.706   9.526   2.128 -4.8418  3.6935 -1.1066
  948MOL0     H27961   7.559   9.395   1.947 -0.9064  2.0534  0.4988
  948MOL0     H27962   7.041   9.357   1.844 -1.9888 -0.3152 -0.4487
  948MOL0     H27963   6.896   9.218   1.680  2.4190  0.1075 -4.1134
  948MOL0     H27964   5.548   8.236   1.727  0.6820 -0.4909  0.5444
  948MOL0     H27965   5.403   8.292   1.906  0.0361 -2.6091 -2.7869
  948MOL0     H27966   5.521   8.148   2.503 -0.2306 -0.8958  2.8741
  948MOL0     H27967   5.391   8.186   2.692 -3.9835  0.5907  1.4642
  948MOL0     H27968   5.186   8.403   2.903  1.3105  1.1874 -0.7348
  948MOL0     H27969   5.338   8.345   2.855 -0.7516  2.7491  1.2401
  948MOL0     H27970   5.215   8.110   2.820 -2.3421 -2.3712  0.5318
  948MOL0     H27971   5.062   8.187   2.852  0.1084  1.4640  0.9264
  948MOL0     H27972   5.142   8.268   3.078 -0.7905 -0.4131  0.3757
  948MOL0     H27973   5.282   8.167   3.075  1.3508  1.3953  1.0081
  948MOL0     H27974   4.999   8.049   3.014 -0.5557  0.5805  0.4382
  948MOL0     H27975   5.152   7.975   3.064 -0.7193  0.9040 -2.0592
  948MOL0     H27976   5.009   8.134   3.440 -1.3189 -4.0422  1.5354
  948MOL0     H27977   5.140   8.456   2.504 -0.5674 -0.1811 -0.7379
  948MOL0     H27978   5.239   8.526   2.229 -0.8917  0.3261 -3.5386
  948MOL0     H27979   5.240   8.367   2.144  1.3655 -0.6002  0.6470
  948MOL0     H27980   5.113   8.413   2.266  0.4280  3.0499  0.7591
  949MOL0     O27981   6.658   4.872   8.763 -1.1220 -0.0127  1.2699
  949MOL0     C27982   6.639   4.984   8.803 -0.4796 -0.7665  0.0698
  949MOL0     O27983   6.627   5.016   8.933  0.5612  0.7553 -0.0562
  949MOL0     C27984   6.663   4.920   9.030 -0.7564  0.8557  1.4485
  949MOL0     C27985   6.790   4.919   9.084 -0.4406  1.0668  0.6385
  949MOL0     C27986   6.828   4.832   9.181 -1.0219 -0.1571 -0.4478
  949MOL0     C27987   6.747   4.727   9.223 -0.1911  0.7652 -0.1801
  949MOL0     O27988   6.798   4.643   9.320  1.1404 -0.1182 -0.3722
  949MOL0     C27989   6.712   4.587   9.421  0.5825  0.8367 -0.6351
  949MOL0     C27990   6.665   4.690   9.526  0.0940  0.3895  0.4145
  949MOL0     C27991   6.599   4.619   9.646 -1.5159  0.6997 -0.1015
  949MOL0     C27992   6.676   4.634   9.777  0.3151 -0.0752  0.8925
  949MOL0     C27993   6.586   4.631   9.905  0.1106 -0.9096  0.1285
  949MOL0     C27994   6.526   4.769   9.922 -0.0129  0.2976 -1.1279
  949MOL0     C27995   6.429   4.772  10.045 -0.1849 -0.4514  0.8667
  949MOL0     C27996   6.490   4.780  10.180  0.1792  0.2332 -0.4772
  949MOL0     N27997   6.598   4.880  10.208 -0.0773 -0.3673  0.3753
  949MOL0     C27998   6.731   4.859  10.174  0.2096  0.1584 -0.5221
  949MOL0     C27999   6.792   4.938  10.259  0.0718 -0.6096 -0.1295
  949MOL0     C28000   6.939   4.959  10.283  0.0701 -0.0391  0.1298
  949MOL0     C28001   6.986   4.861  10.390  0.8813 -0.3978 -0.7627
  949MOL0     C28002   7.131   4.894  10.424  0.7884  0.3690 -0.7376
  949MOL0     C28003   7.231   4.843  10.319 -0.2664 -0.0973 -0.4074
  949MOL0     O28004   7.350   4.923  10.335  0.3175  0.4662 -0.1248
  949MOL0     C28005   7.466   4.863  10.378  0.9212 -0.1849  0.2357
  949MOL0     C28006   7.492   4.721  10.366  0.8731 -0.1532  0.6161
  949MOL0     C28007   7.617   4.674  10.394 -0.4507 -0.0085 -0.7982
  949MOL0     C28008   7.717   4.751  10.448 -0.7493 -0.0960 -0.6666
  949MOL0     C28009   7.851   4.694  10.472 -0.0499 -0.3334 -0.0439
  949MOL0     O28010   7.951   4.780  10.454 -0.4866 -0.1345  0.1824
  949MOL0     C28011   8.081   4.747  10.491  0.4391 -0.2211 -0.2584
  949MOL0     C28012   8.146   4.849  10.569 -0.6723  0.3433 -0.4221
  949MOL0     C28013   8.287   4.831  10.580 -0.1343  0.0867 -0.6143
  949MOL0     C28014   8.351   4.720  10.531  0.1352 -0.8217  0.2100
  949MOL0     O28015   8.487   4.707  10.549  0.4791 -0.6530 -0.1629
  949MOL0     C28016   8.574   4.735  10.436  0.2652 -0.3905 -0.1665
  949MOL0     C28017   8.682   4.640  10.426 -0.8469 -0.8153 -0.2202
  949MOL0     C28018   8.737   4.635  10.283 -0.0529 -2.0056  0.1178
  949MOL0     C28019   8.647   4.547  10.193  0.0057 -0.4470 -0.3319
  949MOL0     C28020   8.697   4.513  10.056 -0.1384 -0.0193 -1.0184
  949MOL0     C28021   8.701   4.624   9.954 -0.3593  1.1180  0.3298
  949MOL0     C28022   8.782   4.572   9.834  0.8717 -0.6203  0.3878
  949MOL0     C28023   8.823   4.692   9.757 -0.2878 -0.0351 -0.6908
  949MOL0    Cl28024   8.936   4.642   9.634 -0.3310 -0.0264 -0.6505
  949MOL0     C28025   8.282   4.624  10.463 -0.6338 -0.5287  0.1862
  949MOL0     C28026   8.146   4.639  10.435  0.6927 -0.3087 -0.3870
  949MOL0     O28027   7.848   4.581  10.511  0.5397  0.0728 -0.2460
  949MOL0     C28028   7.690   4.890  10.464 -0.0259 -0.3136  0.0305
  949MOL0     C28029   7.563   4.942  10.431  0.1860 -0.4225  1.0220
  949MOL0     N28030   6.701   5.006  10.332  0.4842 -0.2239  0.1544
  949MOL0     N28031   6.586   4.981  10.297  0.0925  0.3314 -0.2306
  949MOL0     C28032   6.617   4.724   9.174  0.9924 -0.8586  0.3084
  949MOL0     C28033   6.572   4.820   9.080  0.1432  0.0989 -0.2363
  949MOL0     C28034   6.619   5.090   8.702  0.1548 -0.3124 -0.3601
  949MOL0     C28035   6.577   5.218   8.749  0.2548  0.5064 -0.2154
  949MOL0     C28036   6.578   5.331   8.672 -0.0217 -0.0229 -0.5473
  949MOL0     C28037   6.609   5.327   8.538  0.3238 -0.3190 -0.6946
  949MOL0     O28038   6.604   5.432   8.452 -1.1021 -0.0814 -0.4942
  949MOL0     C28039   6.666   5.555   8.495  0.6084 -0.2814 -0.8563
  949MOL0     C28040   6.817   5.541   8.511  0.8286  0.4710 -0.7493
  949MOL0     C28041   6.880   5.462   8.408 -1.1101 -0.1611  1.2413
  949MOL0     C28042   7.035   5.473   8.427 -0.3201  0.5240  0.2313
  949MOL0     C28043   7.084   5.419   8.297  0.1700 -0.1779 -0.3723
  949MOL0     C28044   7.104   5.394   8.184  0.0708 -0.6692  0.4629
  949MOL0     C28045   6.630   5.202   8.492  1.0512 -0.2254  1.3663
  949MOL0     C28046   6.643   5.086   8.568  0.1883  0.1693 -0.3136
  949MOL0     C28047   6.677   4.953   8.501  0.1952  1.0766 -0.4261
  949MOL0     H28048   6.860   4.997   9.054 -0.6223  1.1505  0.4333
  949MOL0     H28049   6.923   4.852   9.230 -2.9153 -1.6755  4.4291
  949MOL0     H28050   6.631   4.525   9.381  0.2627  0.2751  0.7820
  949MOL0     H28051   6.774   4.513   9.472  1.2502  1.4718 -0.5068
  949MOL0     H28052   6.600   4.772   9.491 -0.6499 -0.1466  0.5064
  949MOL0     H28053   6.751   4.740   9.571 -0.1790 -1.6025  3.4324
  949MOL0     H28054   6.584   4.513   9.624  0.2324  0.3007  0.4481
  949MOL0     H28055   6.501   4.665   9.660 -1.1137  1.7050 -0.4953
  949MOL0     H28056   6.740   4.546   9.766  0.4323  0.3082 -2.0650
  949MOL0     H28057   6.745   4.718   9.780  0.7964 -0.3281 -1.6618
  949MOL0     H28058   6.497   4.567   9.899  0.6793 -1.7711  0.7862
  949MOL0     H28059   6.649   4.607   9.990  0.6828  1.2043  0.3549
  949MOL0     H28060   6.605   4.843   9.937  0.5232  0.0643 -2.6023
  949MOL0     H28061   6.471   4.807   9.835 -0.7704  2.8397  0.3493
  949MOL0     H28062   6.350   4.697  10.036 -1.6164  0.8985  1.5138
  949MOL0     H28063   6.381   4.870  10.031  0.7501  0.2907  2.5165
  949MOL0     H28064   6.425   4.795  10.266  1.4367  2.4088  0.1614
  949MOL0     H28065   6.527   4.677  10.189 -2.6891 -1.0238 -1.7556
  949MOL0     H28066   6.778   4.778  10.121  1.2212  0.1218  0.4041
  949MOL0     H28067   6.986   4.941  10.186  0.1150  4.4360 -0.9011
  949MOL0     H28068   6.955   5.066  10.300 -2.5100  0.2301  1.3255
  949MOL0     H28069   6.922   4.863  10.479  1.8211 -4.2558  0.2000
  949MOL0     H28070   6.955   4.767  10.344 -1.6292  2.1075 -4.7929
  949MOL0     H28071   7.141   4.849  10.523 -1.5122  3.6075  1.1620
  949MOL0     H28072   7.133   5.003  10.434  1.2096  0.3321 -0.4234
  949MOL0     H28073   7.186   4.843  10.219  0.5895 -0.5742 -0.8059
  949MOL0     H28074   7.248   4.739  10.348  1.5797  0.1724 -0.4095
  949MOL0     H28075   7.428   4.649  10.316 -1.4687  1.5818  0.9297
  949MOL0     H28076   7.641   4.570  10.372  2.6569  0.6529 -0.9851
  949MOL0     H28077   8.085   4.932  10.605 -1.8353 -0.2145 -1.0560
  949MOL0     H28078   8.334   4.907  10.641 -0.6556  0.3926 -0.5888
  949MOL0     H28079   8.519   4.740  10.342  0.0019 -1.5487 -0.0899
  949MOL0     H28080   8.604   4.839  10.451  0.7766 -0.1692 -2.4060
  949MOL0     H28081   8.747   4.666  10.510 -0.1627 -4.2507  0.4515
  949MOL0     H28082   8.652   4.537  10.446 -1.5277 -0.5117  0.3773
  949MOL0     H28083   8.736   4.740  10.253  0.9847 -1.0219  3.1395
  949MOL0     H28084   8.842   4.603  10.275  2.0767  4.0829 -1.7511
  949MOL0     H28085   8.551   4.596  10.175  0.0596 -0.0061  0.5262
  949MOL0     H28086   8.609   4.464  10.253  0.3084 -0.0144  0.4849
  949MOL0     H28087   8.629   4.434  10.021  1.1086 -0.6473 -2.0932
  949MOL0     H28088   8.798   4.474  10.069  0.5256  2.1567  1.1937
  949MOL0     H28089   8.604   4.655   9.915  1.3154  2.3393 -3.2583
  949MOL0     H28090   8.751   4.712   9.995  1.3675  0.2893  0.1030
  949MOL0     H28091   8.720   4.505   9.775 -0.1717 -0.4976  1.3085
  949MOL0     H28092   8.870   4.514   9.866  1.3805 -0.4566 -0.6670
  949MOL0     H28093   8.732   4.723   9.704  1.4196  0.1368 -3.7888
  949MOL0     H28094   8.875   4.773   9.809  0.2625 -1.2936  0.7942
  949MOL0     H28095   8.316   4.527  10.429  0.8207  0.4529 -1.2670
  949MOL0     H28096   8.089   4.571  10.372 -0.7212  0.7368 -0.3006
  949MOL0     H28097   7.767   4.962  10.488 -0.8980  0.6443 -0.0123
  949MOL0     H28098   7.549   5.049  10.440  3.2776  0.5914 -3.1470
  949MOL0     H28099   6.551   4.642   9.203  2.8005 -2.0872  1.1366
  949MOL0     H28100   6.471   4.823   9.040 -0.3017 -6.5655 -0.5899
  949MOL0     H28101   6.547   5.225   8.853 -0.4074 -2.6795 -0.1014
  949MOL0     H28102   6.559   5.421   8.730 -4.2391 -1.6909  1.1069
  949MOL0     H28103   6.629   5.584   8.594  0.0716  1.6157 -1.5625
  949MOL0     H28104   6.648   5.628   8.416  0.7412  2.0306  1.1281
  949MOL0     H28105   6.833   5.480   8.601  1.8089  1.5446 -0.1781
  949MOL0     H28106   6.862   5.640   8.524  1.9357 -0.0816 -0.2499
  949MOL0     H28107   6.855   5.477   8.302  2.4480 -0.5882  0.2085
  949MOL0     H28108   6.855   5.356   8.421 -1.1175 -0.2741  0.3749
  949MOL0     H28109   7.073   5.572   8.453 -3.2627  0.9063  3.9256
  949MOL0     H28110   7.070   5.409   8.508 -0.6646  1.2405  0.9526
  949MOL0     H28111   7.108   5.372   8.079  1.1488 -0.3299  0.4145
  949MOL0     H28112   6.647   5.206   8.384  0.7929  0.8554  1.3631
  949MOL0     H28113   6.769   4.905   8.537 -1.2477 -0.4200  1.4535
  949MOL0     H28114   6.587   4.891   8.499  0.4874  0.6568 -1.8517
  949MOL0     H28115   6.688   4.968   8.393 -0.6228  3.6021 -0.2228
  950MOL0     O28116   0.067   5.507   8.556  1.3108  0.1748  0.5412
  950MOL0     C28117   0.021   5.419   8.477 -0.3946  0.2691 -0.3664
  950MOL0     O28118  -0.100   5.418   8.433  0.6357 -0.7055  0.6693
  950MOL0     C28119  -0.184   5.513   8.469  0.8918  0.1605 -0.2820
  950MOL0     C28120  -0.201   5.629   8.396  0.1711 -0.2896  0.4237
  950MOL0     C28121  -0.293   5.716   8.435  0.5771 -0.9372 -0.5425
  950MOL0     C28122  -0.395   5.681   8.525  0.1113 -0.3041  1.1842
  950MOL0     O28123  -0.486   5.772   8.571  0.3742 -0.1566 -0.3641
  950MOL0     C28124  -0.430   5.862   8.664 -0.6642  0.4983 -0.4266
  950MOL0     C28125  -0.535   5.972   8.674 -0.2002  0.5401 -0.0343
  950MOL0     C28126  -0.542   6.046   8.531  0.5718 -0.0455 -0.1682
  950MOL0     C28127  -0.582   6.199   8.545  0.7024  0.6883  0.5829
  950MOL0     C28128  -0.621   6.241   8.409  0.8124 -0.6210  0.1052
  950MOL0     C28129  -0.668   6.392   8.392  0.7635  1.2450  0.4290
  950MOL0     C28130  -0.556   6.493   8.377 -0.3585 -0.0511 -0.0740
  950MOL0     C28131  -0.572   6.639   8.353  0.5133  0.9464  0.0468
  950MOL0     N28132  -0.445   6.708   8.361  0.3218  0.1677 -0.5011
  950MOL0     C28133  -0.419   6.795   8.456  0.2495 -0.0074 -0.6196
  950MOL0     C28134  -0.297   6.835   8.416  0.5602  0.0195 -0.3093
  950MOL0     C28135  -0.202   6.923   8.498 -0.2310  0.6746  0.2645
  950MOL0     C28136  -0.240   7.074   8.478 -0.5753  0.0924 -0.2049
  950MOL0     C28137  -0.162   7.173   8.568 -0.0451  0.4487  0.3047
  950MOL0     C28138  -0.133   7.305   8.496 -0.9543 -0.4540  0.8286
  950MOL0     O28139  -0.257   7.355   8.426  0.1264  0.1618  0.6056
  950MOL0     C28140  -0.296   7.476   8.473 -0.3011  0.8616 -0.8599
  950MOL0     C28141  -0.426   7.487   8.525  0.1863 -0.2693 -0.0864
  950MOL0     C28142  -0.470   7.614   8.564  0.3280  0.2110  0.0007
  950MOL0     C28143  -0.390   7.728   8.565 -0.0803  0.8638  0.1156
  950MOL0     C28144  -0.433   7.857   8.618 -0.0240  0.3547  0.4754
  950MOL0     O28145  -0.348   7.966   8.629 -0.0869 -0.6950  0.0925
  950MOL0     C28146  -0.381   8.078   8.706  0.3992 -0.6137  1.0601
  950MOL0     C28147  -0.279   8.138   8.776  0.2186 -0.7639 -0.2926
  950MOL0     C28148  -0.303   8.249   8.858  0.9718 -0.7917 -0.6719
  950MOL0     C28149  -0.433   8.312   8.850  0.5212 -0.4262  0.6562
  950MOL0     O28150  -0.476   8.418   8.921 -0.4687 -0.6845  0.1024
  950MOL0     C28151  -0.390   8.534   8.902 -0.0732  0.3003  0.5584
  950MOL0     C28152  -0.474   8.660   8.881 -0.1532  1.3423  0.6093
  950MOL0     C28153  -0.385   8.787   8.870  0.8759  0.3992 -0.5795
  950MOL0     C28154  -0.280   8.804   8.978  0.6569 -0.2255 -0.7947
  950MOL0     C28155  -0.140   8.766   8.931  1.1536 -0.0474 -1.2957
  950MOL0     C28156  -0.083   8.898   8.871 -0.4384  0.6073 -0.2568
  950MOL0     C28157   0.046   8.854   8.787  0.1401  0.3554 -0.5958
  950MOL0     C28158   0.112   8.976   8.728 -1.3837 -0.4709  1.2655
  950MOL0    Cl28159   0.265   8.922   8.653 -0.2189  0.5500  0.5391
  950MOL0     C28160  -0.526   8.262   8.762  0.7223  1.0164 -0.4959
  950MOL0     C28161  -0.501   8.143   8.694  0.9434  0.5483 -0.6690
  950MOL0     O28162  -0.544   7.855   8.673 -0.1567  0.5226 -0.3378
  950MOL0     C28163  -0.259   7.712   8.515  0.2492  0.6406 -0.1351
  950MOL0     C28164  -0.211   7.585   8.472 -1.0831 -0.4663 -0.5536
  950MOL0     N28165  -0.253   6.775   8.292  0.0068  0.4510 -0.2113
  950MOL0     N28166  -0.351   6.699   8.261  0.1073  0.6594  0.5335
  950MOL0     C28167  -0.388   5.563   8.596 -0.5399  0.0479 -0.0612
  950MOL0     C28168  -0.277   5.481   8.566  0.3264  0.2013 -0.4292
  950MOL0     C28169   0.106   5.297   8.455  1.7025 -0.4227  0.0158
  950MOL0     C28170   0.240   5.318   8.448 -0.0714  0.3685 -0.5408
  950MOL0     C28171   0.335   5.209   8.451 -0.3890 -0.0637 -0.2595
  950MOL0     C28172   0.293   5.078   8.429 -0.4037 -0.0019  0.0471
  950MOL0     O28173   0.390   4.979   8.442  0.4315  0.1875 -0.1988
  950MOL0     C28174   0.375   4.865   8.357 -0.1847 -0.0234 -0.4362
  950MOL0     C28175   0.488   4.760   8.400  0.1188  0.8783 -0.1720
  950MOL0     C28176   0.634   4.827   8.397 -1.1880  0.8480 -0.5711
  950MOL0     C28177   0.747   4.724   8.405 -0.1658 -0.1540 -0.1913
  950MOL0     C28178   0.753   4.644   8.284  0.5506 -0.8001 -0.0435
  950MOL0     C28179   0.764   4.593   8.171 -1.0938 -1.0951  0.1817
  950MOL0     C28180   0.148   5.058   8.415 -0.2335 -0.2428 -0.1817
  950MOL0     C28181   0.056   5.166   8.443  1.2210  0.7214 -0.2602
  950MOL0     C28182  -0.087   5.133   8.459  0.1694 -0.9863 -0.0700
  950MOL0     H28183  -0.114   5.652   8.336  1.7592  3.4769  3.7608
  950MOL0     H28184  -0.276   5.820   8.408 -0.4818 -0.4811  0.5098
  950MOL0     H28185  -0.403   5.820   8.762  0.8798  2.3782  0.0463
  950MOL0     H28186  -0.340   5.914   8.627  0.6901 -2.4085 -1.5019
  950MOL0     H28187  -0.530   6.034   8.764 -0.9915 -0.0120  0.4087
  950MOL0     H28188  -0.631   5.922   8.692  0.3663 -0.4482  0.3507
  950MOL0     H28189  -0.611   5.993   8.465 -2.6993  4.8086 -1.1884
  950MOL0     H28190  -0.444   6.050   8.484  0.3269  0.2594 -0.6529
  950MOL0     H28191  -0.665   6.208   8.617 -2.2665 -2.3904 -2.1233
  950MOL0     H28192  -0.496   6.257   8.581 -0.4087  1.7884  1.5989
  950MOL0     H28193  -0.534   6.239   8.344  0.6557  0.4531 -0.1478
  950MOL0     H28194  -0.697   6.173   8.368 -1.2977  1.5862  0.1553
  950MOL0     H28195  -0.739   6.396   8.309  0.5058  0.3946  0.5989
  950MOL0     H28196  -0.725   6.428   8.478 -0.5633  1.0223 -0.3399
  950MOL0     H28197  -0.490   6.452   8.300 -0.6297 -2.4588  0.8946
  950MOL0     H28198  -0.502   6.495   8.472 -1.9794  2.9216  0.9314
  950MOL0     H28199  -0.606   6.652   8.250 -2.2798 -2.8260  0.3031
  950MOL0     H28200  -0.640   6.683   8.426  2.6717  1.0757  2.0895
  950MOL0     H28201  -0.476   6.829   8.542  0.4462 -2.5264  0.6038
  950MOL0     H28202  -0.193   6.894   8.603 -1.7043  3.0443  1.1499
  950MOL0     H28203  -0.101   6.904   8.462  0.9830  1.6448  2.9215
  950MOL0     H28204  -0.232   7.103   8.373 -1.5314 -0.4169 -0.4375
  950MOL0     H28205  -0.347   7.073   8.501 -0.3962  1.1824  0.7546
  950MOL0     H28206  -0.060   7.138   8.588 -0.6944 -0.0461  3.1419
  950MOL0     H28207  -0.206   7.188   8.666 -1.5296  2.6611 -0.6228
  950MOL0     H28208  -0.067   7.286   8.410  0.6045  0.0248  1.8764
  950MOL0     H28209  -0.086   7.377   8.563  2.6055 -0.7427 -1.0947
  950MOL0     H28210  -0.497   7.405   8.524 -0.5548  0.3135  1.3313
  950MOL0     H28211  -0.562   7.622   8.622  1.3669  0.1903  1.7267
  950MOL0     H28212  -0.179   8.095   8.780  0.2741 -0.5443  2.1722
  950MOL0     H28213  -0.241   8.295   8.934 -1.5062 -0.0327  1.0081
  950MOL0     H28214  -0.340   8.540   8.999 -0.9904 -2.2235  1.2616
  950MOL0     H28215  -0.317   8.518   8.822  2.0226  2.3990  1.9128
  950MOL0     H28216  -0.531   8.664   8.788 -0.4211 -0.9834  0.6311
  950MOL0     H28217  -0.559   8.663   8.950 -2.4294  1.2773 -2.0701
  950MOL0     H28218  -0.320   8.789   8.782  2.6244 -0.1529  0.6263
  950MOL0     H28219  -0.451   8.873   8.868  0.0793 -0.2053 -1.3722
  950MOL0     H28220  -0.316   8.756   9.070  0.4026  1.8925  0.2940
  950MOL0     H28221  -0.278   8.911   9.000 -0.8185 -0.6595  1.9653
  950MOL0     H28222  -0.140   8.684   8.859 -2.8190 -1.0693 -0.3294
  950MOL0     H28223  -0.084   8.748   9.023  0.5773  2.8829 -0.2509
  950MOL0     H28224  -0.146   8.944   8.794  1.2871  0.9977 -1.4860
  950MOL0     H28225  -0.064   8.967   8.954  1.0886 -2.8618  2.5280
  950MOL0     H28226   0.019   8.776   8.715  0.4895  1.5915 -2.1133
  950MOL0     H28227   0.117   8.808   8.856 -0.3699  2.8599  1.7824
  950MOL0     H28228   0.044   9.014   8.650 -0.6131 -0.5497  0.5405
  950MOL0     H28229   0.127   9.055   8.802 -2.1208  1.4050 -0.4677
  950MOL0     H28230  -0.612   8.325   8.742  1.3976  1.8747 -0.7210
  950MOL0     H28231  -0.556   8.095   8.614  1.7826 -0.2550 -0.7827
  950MOL0     H28232  -0.185   7.791   8.510  1.1005 -0.0986  0.4369
  950MOL0     H28233  -0.106   7.580   8.445 -0.6532  1.2294  0.6293
  950MOL0     H28234  -0.457   5.554   8.679 -0.0460  0.0588  0.3499
  950MOL0     H28235  -0.273   5.388   8.622 -0.5017  0.3085 -0.1760
  950MOL0     H28236   0.298   5.409   8.460  0.5127 -0.3226  3.0791
  950MOL0     H28237   0.442   5.222   8.462 -0.4213 -1.0180  1.6516
  950MOL0     H28238   0.374   4.904   8.255 -3.0086  0.5356 -0.2618
  950MOL0     H28239   0.274   4.829   8.377 -0.4650  0.9782 -0.0421
  950MOL0     H28240   0.483   4.673   8.333 -0.7628  2.0866 -1.7421
  950MOL0     H28241   0.462   4.728   8.501  2.8672  3.2387  1.4283
  950MOL0     H28242   0.647   4.897   8.480 -0.4383 -0.6396  0.6073
  950MOL0     H28243   0.650   4.885   8.306 -1.2125  1.4411 -0.1991
  950MOL0     H28244   0.844   4.774   8.409 -0.8387  1.3591 -1.5777
  950MOL0     H28245   0.730   4.648   8.482  1.7581 -1.1022 -0.6335
  950MOL0     H28246   0.756   4.556   8.071 -5.8759  1.4381 -0.6684
  950MOL0     H28247   0.100   4.963   8.393 -0.7414  0.0948 -0.5562
  950MOL0     H28248  -0.101   5.025   8.469 -1.7158 -0.8821 -1.0973
  950MOL0     H28249  -0.117   5.178   8.555 -1.8047  3.2507 -2.3625
  950MOL0     H28250  -0.153   5.181   8.386  0.2139 -1.6258 -0.5300
  951MOL0     O28251   8.517  11.411   6.046  0.6660 -0.9942 -0.0285
  951MOL0     C28252   8.597  11.407   5.956 -0.3922  0.5290 -0.1371
  951MOL0     O28253   8.647  11.514   5.894 -1.2654 -0.1697  0.2966
  951MOL0     C28254   8.604  11.637   5.924  0.0706 -0.4282 -0.8931
  951MOL0     C28255   8.468  11.684   5.920 -0.2368  0.1254  0.2762
  951MOL0     C28256   8.426  11.813   5.972 -0.0151 -0.5007  0.8609
  951MOL0     C28257   8.531  11.896   6.018 -0.2345  0.6692  0.0978
  951MOL0     O28258   8.519  12.021   6.071 -0.3684  0.3365 -0.3581
  951MOL0     C28259   8.397  12.059   6.137  0.0643 -0.4201 -0.3672
  951MOL0     C28260   8.411  12.173   6.233 -0.6045 -0.1018  0.7714
  951MOL0     C28261   8.461  12.306   6.177  0.1166 -0.1195  1.0425
  951MOL0     C28262   8.437  12.426   6.261 -1.3648  0.1532  0.8040
  951MOL0     C28263   8.450  12.554   6.186 -0.1052 -0.0934 -0.9195
  951MOL0     C28264   8.579  12.622   6.189 -0.1348  0.0637 -0.6661
  951MOL0     C28265   8.555  12.769   6.164  0.1910  0.1634 -0.2989
  951MOL0     C28266   8.692  12.848   6.152  0.0915  0.2041  0.1706
  951MOL0     N28267   8.650  12.987   6.128  1.1299  0.1187 -0.3101
  951MOL0     C28268   8.575  13.031   6.022 -0.0477 -0.3810  0.5921
  951MOL0     C28269   8.547  13.157   6.059  0.0891 -0.7962  0.0332
  951MOL0     C28270   8.461  13.252   5.974  0.6516 -0.1639 -0.3803
  951MOL0     C28271   8.538  13.339   5.881  0.4867 -1.0780  0.1432
  951MOL0     C28272   8.593  13.462   5.974  0.5208  0.4716 -0.7031
  951MOL0     C28273   8.662  13.569   5.889 -0.2403  0.2168  0.4066
  951MOL0     O28274   8.566  13.637   5.803 -0.1917 -0.4085  0.3218
  951MOL0     C28275   8.602  13.765   5.781  0.3133 -0.7443  0.1951
  951MOL0     C28276   8.512  13.860   5.820 -0.2741  0.0257 -0.0634
  951MOL0     C28277   8.557  13.995   5.815  1.0029 -0.0918  0.4997
  951MOL0     C28278   8.684  14.025   5.775 -0.4411 -0.3796  0.1218
  951MOL0     C28279   8.729  14.172   5.757 -0.6379 -0.1977 -0.0155
  951MOL0     O28280   8.642  14.259   5.807  0.1221 -0.1699  0.3638
  951MOL0     C28281   8.684  14.390   5.833  0.0771 -0.4886  0.2749
  951MOL0     C28282   8.799  14.419   5.905  0.4469 -0.1033 -0.2662
  951MOL0     C28283   8.818  14.556   5.936  0.0220  0.5390  0.5031
  951MOL0     C28284   8.734  14.668   5.893 -0.1805 -0.4894  0.3773
  951MOL0     O28285   8.760  14.799   5.907 -0.5574  0.0662 -0.3174
  951MOL0     C28286   8.889  14.844   5.957  0.3101  0.5714 -0.7933
  951MOL0     C28287   8.859  14.872   6.112  0.3888  0.0239 -0.3207
  951MOL0     C28288   8.766  14.985   6.129  0.1698 -0.0831  0.2451
  951MOL0     C28289   8.710  14.994   6.267 -0.4360 -0.4011 -0.4608
  951MOL0     C28290   8.799  15.083   6.362  0.1867 -0.0095  0.0577
  951MOL0     C28291   8.767  15.045   6.513 -0.4760 -0.6756  1.0180
  951MOL0     C28292   8.858  15.131   6.609  0.2430  0.6144 -0.3011
  951MOL0     C28293   8.870  15.092   6.752 -1.6271 -0.4894 -0.2301
  951MOL0    Cl28294   8.706  15.051   6.804 -0.0716 -0.4582 -0.2237
  951MOL0     C28295   8.622  14.638   5.817 -0.9034 -1.3146  0.2856
  951MOL0     C28296   8.601  14.505   5.784  0.0938  0.5851 -0.0392
  951MOL0     O28297   8.841  14.194   5.713 -0.5147  0.0534  0.6780
  951MOL0     C28298   8.774  13.926   5.740 -0.3327 -0.5517 -0.4381
  951MOL0     C28299   8.734  13.798   5.737  0.6458  0.1103 -0.1290
  951MOL0     N28300   8.613  13.195   6.178 -0.2868  0.8063  0.5778
  951MOL0     N28301   8.677  13.090   6.214  0.9311 -0.3969 -0.2146
  951MOL0     C28302   8.665  11.856   6.003  0.5036 -0.7429 -0.2673
  951MOL0     C28303   8.695  11.732   5.960  1.1157 -0.2847  0.0559
  951MOL0     C28304   8.654  11.277   5.910 -0.2876 -0.1586 -0.1265
  951MOL0     C28305   8.794  11.269   5.884  0.7778  0.0619  0.5714
  951MOL0     C28306   8.850  11.147   5.835  0.4241 -0.8272 -0.5625
  951MOL0     C28307   8.774  11.029   5.815  0.5010  1.4762  0.6873
  951MOL0     O28308   8.843  10.918   5.770 -0.1985  0.4591  0.4866
  951MOL0     C28309   8.770  10.793   5.755  0.1572  0.0747  0.0708
  951MOL0     C28310   8.864  10.696   5.692 -1.0186  0.7152  0.5503
  951MOL0     C28311   8.791  10.596   5.607  0.6331  0.1768  0.1930
  951MOL0     C28312   8.888  10.480   5.568  0.2207  0.3197  0.4575
  951MOL0     C28313   8.819  10.389   5.477 -0.1973  0.0981  0.7281
  951MOL0     C28314   8.769  10.299   5.416 -0.6435  0.0435  0.0973
  951MOL0     C28315   8.642  11.035   5.860 -0.7347  0.7996 -0.0474
  951MOL0     C28316   8.580  11.156   5.905 -0.5701  0.5383  0.6091
  951MOL0     C28317   8.433  11.140   5.932 -0.2227 -0.2908  0.0843
  951MOL0     H28318   8.408  11.605   5.878 -1.1977  0.3893  1.1156
  951MOL0     H28319   8.325  11.852   5.982 -0.2663 -0.6123 -0.8056
  951MOL0     H28320   8.328  12.089   6.058 -0.2956 -1.2904 -0.3987
  951MOL0     H28321   8.349  11.974   6.187  0.0202 -0.7382 -0.9445
  951MOL0     H28322   8.483  12.136   6.306  2.8546  0.6594 -1.9794
  951MOL0     H28323   8.314  12.178   6.284 -0.5102 -3.3351  1.4879
  951MOL0     H28324   8.415  12.325   6.080  1.0448  4.4432  1.2674
  951MOL0     H28325   8.569  12.304   6.156 -0.1906 -0.2698 -0.6963
  951MOL0     H28326   8.338  12.410   6.305  0.1759 -2.4056  3.8343
  951MOL0     H28327   8.509  12.434   6.344  0.6061  0.4740 -0.8646
  951MOL0     H28328   8.415  12.533   6.084 -0.5495 -1.3218 -0.5354
  951MOL0     H28329   8.385  12.623   6.239  2.9319 -0.3088  3.6438
  951MOL0     H28330   8.615  12.619   6.292  0.3876 -1.7669 -0.8661
  951MOL0     H28331   8.640  12.579   6.109  2.6164  0.3301  1.1759
  951MOL0     H28332   8.497  12.817   6.243  1.5358 -1.0756  1.5138
  951MOL0     H28333   8.495  12.777   6.073  1.9802 -0.3592 -1.5791
  951MOL0     H28334   8.755  12.843   6.241 -1.5473 -0.3107  1.3332
  951MOL0     H28335   8.754  12.811   6.069 -2.7984 -0.4363 -1.8715
  951MOL0     H28336   8.549  12.967   5.939 -2.7765  0.0620  0.9994
  951MOL0     H28337   8.390  13.185   5.925  0.4625 -1.5315  1.6502
  951MOL0     H28338   8.407  13.315   6.045  0.7628 -1.8591  1.2870
  951MOL0     H28339   8.628  13.293   5.838 -0.3308 -0.5835 -2.2213
  951MOL0     H28340   8.468  13.380   5.808 -2.0068 -1.8105  1.9734
  951MOL0     H28341   8.661  13.422   6.050  1.1407 -0.1453 -1.5640
  951MOL0     H28342   8.510  13.514   6.022 -0.5944  1.1651 -3.2048
  951MOL0     H28343   8.747  13.519   5.839 -0.5667  1.4774 -1.5227
  951MOL0     H28344   8.714  13.640   5.953 -0.6885  1.8393 -0.9489
  951MOL0     H28345   8.415  13.834   5.861 -1.3806  1.8913 -1.3157
  951MOL0     H28346   8.476  14.067   5.821 -0.4804 -1.0260 -4.3308
  951MOL0     H28347   8.863  14.336   5.931  1.9551  0.3239 -2.3801
  951MOL0     H28348   8.898  14.578   6.006  0.6224 -0.0664  0.0177
  951MOL0     H28349   8.971  14.772   5.959 -0.7973 -0.7124  0.3667
  951MOL0     H28350   8.925  14.935   5.909 -1.1945  1.4506 -0.3241
  951MOL0     H28351   8.824  14.778   6.157 -0.2116  0.8052  0.9000
  951MOL0     H28352   8.949  14.896   6.169  1.5752 -1.6966 -1.3684
  951MOL0     H28353   8.828  15.072   6.103  0.9712 -1.7431 -4.2636
  951MOL0     H28354   8.689  14.989   6.052  1.0549  2.9658 -0.6234
  951MOL0     H28355   8.697  14.893   6.306  0.0508 -1.0526 -1.9342
  951MOL0     H28356   8.605  15.024   6.266 -0.3011  0.0847 -0.8252
  951MOL0     H28357   8.769  15.187   6.345 -0.5830 -0.1571  0.4634
  951MOL0     H28358   8.905  15.076   6.338 -0.1236  3.5315 -3.3989
  951MOL0     H28359   8.660  15.063   6.529 -0.3811  0.4592  0.5164
  951MOL0     H28360   8.783  14.940   6.536  1.2362 -1.4293 -2.8096
  951MOL0     H28361   8.831  15.237   6.611  0.1506  0.6008 -0.6490
  951MOL0     H28362   8.963  15.126   6.580  0.2395 -0.7958 -0.1418
  951MOL0     H28363   8.928  15.000   6.759  0.7178  0.2935 -5.0509
  951MOL0     H28364   8.921  15.175   6.801 -0.5508 -0.7238 -0.9201
  951MOL0     H28365   8.570  14.722   5.771  2.9000  0.0807 -1.9714
  951MOL0     H28366   8.515  14.483   5.722 -0.1998  0.8727  0.2611
  951MOL0     H28367   8.878  13.939   5.711  0.1184 -1.6636  0.6111
  951MOL0     H28368   8.809  13.724   5.709  0.9002 -1.4667  4.0244
  951MOL0     H28369   8.747  11.925   6.024 -1.8690  1.7134  1.6535
  951MOL0     H28370   8.797  11.722   5.926  1.1307  3.4285 -1.4661
  951MOL0     H28371   8.861  11.351   5.907  1.5861 -0.8003  1.3737
  951MOL0     H28372   8.954  11.153   5.806  0.4048 -0.6358 -0.5943
  951MOL0     H28373   8.686  10.813   5.689  1.4563  2.1526 -1.0652
  951MOL0     H28374   8.734  10.759   5.853  0.1695  3.0511  1.2016
  951MOL0     H28375   8.918  10.647   5.774  0.9569  1.4304 -0.2591
  951MOL0     H28376   8.943  10.738   5.629  1.1518  2.7639  4.2458
  951MOL0     H28377   8.765  10.654   5.517  3.8410 -1.4857 -2.0086
  951MOL0     H28378   8.690  10.562   5.633 -1.1776  1.9460 -3.6201
  951MOL0     H28379   8.971  10.527   5.514 -2.0734  1.9083 -1.9084
  951MOL0     H28380   8.925  10.421   5.653  0.4304 -1.9240 -1.1157
  951MOL0     H28381   8.725  10.214   5.367 -0.4608 -2.5880  4.1151
  951MOL0     H28382   8.587  10.944   5.883  1.9594 -0.5363  1.5569
  951MOL0     H28383   8.394  11.045   5.896 -3.0421 -0.4868  3.1982
  951MOL0     H28384   8.421  11.141   6.041  3.2100  1.0837  0.5759
  951MOL0     H28385   8.381  11.226   5.889 -2.1634 -1.7759 -0.6499
  952MOL0     O28386   4.360   1.549   2.046 -0.4532  0.5091 -0.7374
  952MOL0     C28387   4.331   1.477   1.953 -1.2612  0.5784  0.0003
  952MOL0     O28388   4.422   1.412   1.882  0.2384  0.2529 -0.2445
  952MOL0     C28389   4.556   1.418   1.912  1.3035 -0.0426  0.3518
  952MOL0     C28390   4.657   1.501   1.841 -1.3454  0.5629  0.5505
  952MOL0     C28391   4.792   1.481   1.861 -0.8130 -0.8643 -0.7984
  952MOL0     C28392   4.835   1.395   1.963  0.3866  0.0838  0.7429
  952MOL0     O28393   4.964   1.373   2.010  0.2957 -0.1457  0.5796
  952MOL0     C28394   5.055   1.447   1.933 -0.3930 -0.7851  0.2982
  952MOL0     C28395   5.114   1.363   1.805  0.9685  0.5632 -0.6529
  952MOL0     C28396   5.236   1.433   1.757 -0.7451  0.0201  0.3584
  952MOL0     C28397   5.284   1.380   1.621 -0.2320  0.3188 -0.5106
  952MOL0     C28398   5.208   1.415   1.498 -0.1800 -0.1382 -0.6832
  952MOL0     C28399   5.257   1.332   1.377 -0.5641  0.3638  0.4717
  952MOL0     C28400   5.159   1.325   1.265 -0.0800  0.1430 -0.1480
  952MOL0     C28401   5.071   1.203   1.274 -0.0495  0.8992  0.0919
  952MOL0     N28402   5.139   1.081   1.219  0.1786  0.4886  0.4728
  952MOL0     C28403   5.173   1.060   1.085 -0.2698  0.6278 -0.1533
  952MOL0     C28404   5.224   0.928   1.097 -0.0329  0.4662 -0.4627
  952MOL0     C28405   5.253   0.837   0.978  0.4979 -1.0760 -0.0308
  952MOL0     C28406   5.128   0.817   0.892 -0.3711  0.3376  0.1723
  952MOL0     C28407   5.144   0.737   0.763 -0.6369  0.1784  0.8692
  952MOL0     C28408   5.207   0.800   0.644 -0.3502 -0.2476  0.9663
  952MOL0     O28409   5.141   0.912   0.605 -0.0853 -0.0367  0.2280
  952MOL0     C28410   5.177   0.973   0.485  0.0186  0.2857  0.0088
  952MOL0     C28411   5.081   1.045   0.425  0.4680  0.2378  0.3064
  952MOL0     C28412   5.104   1.126   0.320 -1.0561  0.3666  0.4072
  952MOL0     C28413   5.238   1.132   0.267 -0.2038  0.6986 -0.1355
  952MOL0     C28414   5.261   1.235   0.163  0.1266 -1.2676 -0.8978
  952MOL0     O28415   5.144   1.298   0.110 -0.3710 -0.2711 -0.0116
  952MOL0     C28416   5.149   1.343  -0.015  1.0803 -0.0996  0.4083
  952MOL0     C28417   5.078   1.460  -0.047  0.2844 -0.5086 -0.4526
  952MOL0     C28418   5.064   1.511  -0.180  0.4496  0.3434  0.0821
  952MOL0     C28419   5.116   1.434  -0.288 -0.4002  0.3402 -0.7978
  952MOL0     O28420   5.097   1.470  -0.422 -0.3178  0.2228  0.8065
  952MOL0     C28421   5.037   1.599  -0.450 -0.2853  0.2299 -0.3990
  952MOL0     C28422   5.030   1.628  -0.607  0.2380  0.7028 -0.4211
  952MOL0     C28423   5.160   1.575  -0.674 -0.0247  0.3017  0.5428
  952MOL0     C28424   5.182   1.638  -0.814  0.4470  0.5201 -0.0333
  952MOL0     C28425   5.323   1.619  -0.872 -0.1302  1.1697  0.2391
  952MOL0     C28426   5.337   1.468  -0.911  0.9079  0.1216  0.2881
  952MOL0     C28427   5.470   1.438  -0.982  0.6343  0.8611 -0.8965
  952MOL0     C28428   5.475   1.484  -1.122 -0.0602 -0.3479 -0.7583
  952MOL0    Cl28429   5.633   1.463  -1.206 -0.3559 -0.1236  0.2121
  952MOL0     C28430   5.177   1.309  -0.259 -0.8002 -0.2469 -0.4500
  952MOL0     C28431   5.195   1.268  -0.128 -0.1275  0.0064  0.2990
  952MOL0     O28432   5.376   1.269   0.139  0.3679  1.0472  0.0154
  952MOL0     C28433   5.339   1.051   0.314  1.1682 -0.1252 -0.5784
  952MOL0     C28434   5.315   0.976   0.428 -0.2723  0.0203 -0.1957
  952MOL0     N28435   5.236   0.884   1.232  0.6883  0.4659  0.2534
  952MOL0     N28436   5.189   0.980   1.300 -0.0257  0.7043 -0.4722
  952MOL0     C28437   4.734   1.332   2.041 -0.1176 -0.2339  0.1638
  952MOL0     C28438   4.598   1.337   2.013 -0.1151  0.0393  0.1289
  952MOL0     C28439   4.194   1.451   1.937 -0.4637  0.9097  0.0825
  952MOL0     C28440   4.140   1.325   1.932  0.8331 -0.3865 -0.1193
  952MOL0     C28441   3.999   1.304   1.934  0.4243 -0.1983  0.1736
  952MOL0     C28442   3.912   1.408   1.942 -0.7485 -0.6919 -0.2626
  952MOL0     O28443   3.780   1.421   1.943  0.5480  0.5218  0.2894
  952MOL0     C28444   3.707   1.296   1.903 -0.5998 -0.7425 -0.2401
  952MOL0     C28445   3.563   1.327   1.850 -1.1480 -0.8083 -0.1438
  952MOL0     C28446   3.466   1.383   1.954 -0.5551 -0.2793 -0.2283
  952MOL0     C28447   3.342   1.440   1.888 -0.5036  0.0167  0.1851
  952MOL0     C28448   3.268   1.520   1.975 -0.6682  0.1815 -0.1627
  952MOL0     C28449   3.208   1.588   2.053  0.1685 -0.6699  0.2199
  952MOL0     C28450   3.961   1.539   1.929 -0.7870 -0.1160 -0.4224
  952MOL0     C28451   4.105   1.564   1.927 -0.6915 -0.2604 -0.4389
  952MOL0     C28452   4.157   1.700   1.923  0.3070 -0.8629  0.7401
  952MOL0     H28453   4.619   1.569   1.765 -1.8622  0.4599  0.7130
  952MOL0     H28454   4.857   1.526   1.787 -2.2918 -0.2751 -1.8078
  952MOL0     H28455   5.038   1.548   1.893  1.3861 -0.7596 -0.5202
  952MOL0     H28456   5.138   1.461   2.003 -0.7282 -2.5317  1.1063
  952MOL0     H28457   5.044   1.373   1.722 -2.0976 -0.5378  1.6290
  952MOL0     H28458   5.130   1.256   1.823  0.5876  0.8742  2.0584
  952MOL0     H28459   5.314   1.415   1.832 -1.4170  2.1531  1.6507
  952MOL0     H28460   5.215   1.539   1.744 -1.8005 -0.2775 -0.4640
  952MOL0     H28461   5.391   1.399   1.608 -0.4926  1.1484 -1.6808
  952MOL0     H28462   5.278   1.271   1.626 -0.5748  0.3884  1.8462
  952MOL0     H28463   5.101   1.394   1.513 -0.1154  0.2938  0.4880
  952MOL0     H28464   5.231   1.521   1.483  1.4442 -0.1218  1.3857
  952MOL0     H28465   5.357   1.361   1.344  0.0649 -1.4407  0.6907
  952MOL0     H28466   5.271   1.228   1.407  1.7425 -0.4687 -3.0156
  952MOL0     H28467   5.226   1.315   1.179  1.3202  0.7157  0.8417
  952MOL0     H28468   5.104   1.418   1.249 -0.0610  0.1260 -0.3084
  952MOL0     H28469   5.041   1.185   1.378 -0.7088 -0.5479 -0.3387
  952MOL0     H28470   4.978   1.234   1.225 -0.2136 -0.3353 -0.3976
  952MOL0     H28471   5.158   1.131   1.004 -3.1458  1.0070  0.5878
  952MOL0     H28472   5.333   0.883   0.920  0.2708 -2.4091 -1.4509
  952MOL0     H28473   5.284   0.737   1.010  0.7903 -0.6027  1.2397
  952MOL0     H28474   5.061   0.770   0.964 -0.4428  1.7256  1.0370
  952MOL0     H28475   5.079   0.912   0.868 -0.0574  1.3873  3.2422
  952MOL0     H28476   5.052   0.683   0.738  0.7176 -1.0555 -1.8618
  952MOL0     H28477   5.218   0.660   0.788 -0.2506  0.1863 -0.2014
  952MOL0     H28478   5.197   0.714   0.577 -2.7391 -0.6661  1.7469
  952MOL0     H28479   5.315   0.808   0.662  0.4692 -2.5148 -2.0576
  952MOL0     H28480   4.984   1.059   0.472  1.0549 -0.8753  1.9354
  952MOL0     H28481   5.035   1.203   0.288 -1.2950 -0.4448 -1.0768
  952MOL0     H28482   5.063   1.529   0.035  1.1516 -0.4698 -0.3154
  952MOL0     H28483   5.004   1.601  -0.186 -4.1451 -2.2875  1.2937
  952MOL0     H28484   4.933   1.607  -0.419 -0.2540 -1.9744  0.4089
  952MOL0     H28485   5.102   1.672  -0.400  1.8463 -2.0748  0.4473
  952MOL0     H28486   4.943   1.571  -0.640  1.5113 -1.8371  0.3474
  952MOL0     H28487   5.014   1.734  -0.629  1.5580  1.1048  0.4306
  952MOL0     H28488   5.239   1.615  -0.611 -0.3338 -1.4096  2.1032
  952MOL0     H28489   5.149   1.466  -0.676 -1.1663  0.4098  0.2606
  952MOL0     H28490   5.180   1.748  -0.816 -1.8618  0.5187 -0.9165
  952MOL0     H28491   5.096   1.610  -0.876 -0.4885  0.9998  0.9991
  952MOL0     H28492   5.404   1.641  -0.803  0.2665 -0.8207  0.4854
  952MOL0     H28493   5.339   1.676  -0.964  0.8704 -0.2901 -0.5348
  952MOL0     H28494   5.329   1.404  -0.823 -0.8290  1.2347  0.9874
  952MOL0     H28495   5.254   1.441  -0.978  1.1186 -0.2064  0.1569
  952MOL0     H28496   5.470   1.330  -0.997  1.7994  1.0344 -2.4518
  952MOL0     H28497   5.553   1.452  -0.912 -1.5405  0.3497  1.9396
  952MOL0     H28498   5.389   1.446  -1.178  0.2817 -4.5382  1.1879
  952MOL0     H28499   5.467   1.593  -1.114 -0.0979 -0.4255  0.4160
  952MOL0     H28500   5.201   1.238  -0.337  0.7432 -0.1236 -0.1152
  952MOL0     H28501   5.246   1.175  -0.105  0.7119  0.4821  0.4382
  952MOL0     H28502   5.437   1.065   0.270  2.8812 -1.2708  2.5131
  952MOL0     H28503   5.396   0.918   0.471  1.4783  0.3516 -2.8220
  952MOL0     H28504   4.762   1.273   2.127  1.7930 -1.1314 -0.9938
  952MOL0     H28505   4.523   1.269   2.054  1.2465 -0.8490  1.2421
  952MOL0     H28506   4.200   1.236   1.943  1.3346  0.0197  0.5128
  952MOL0     H28507   3.972   1.199   1.943  2.0567 -0.5226  2.1413
  952MOL0     H28508   3.718   1.233   1.991 -0.1836 -2.2325 -1.3050
  952MOL0     H28509   3.758   1.254   1.815 -2.4730 -0.2485 -1.6207
  952MOL0     H28510   3.536   1.222   1.839  0.5209 -1.4646  1.4415
  952MOL0     H28511   3.572   1.387   1.759  2.2759 -3.1466 -1.5351
  952MOL0     H28512   3.529   1.465   1.991 -0.6752  1.2676 -3.1496
  952MOL0     H28513   3.438   1.310   2.030 -0.0483  1.4993  1.7515
  952MOL0     H28514   3.380   1.500   1.805 -3.3802 -0.1308 -1.3442
  952MOL0     H28515   3.289   1.360   1.835  0.6812  0.0584 -1.1255
  952MOL0     H28516   3.158   1.652   2.123  1.8628  0.7649  0.2067
  952MOL0     H28517   3.897   1.625   1.907  1.3779  1.2360 -1.8065
  952MOL0     H28518   4.249   1.713   1.865  1.9201  0.9096  3.4210
  952MOL0     H28519   4.086   1.769   1.878  0.1361 -2.1667 -1.0742
  952MOL0     H28520   4.178   1.741   2.022  0.1481 -1.6980  1.1289
  953MOL0     O28521   2.993   6.471   7.265  0.3546 -0.2284 -0.2934
  953MOL0     C28522   3.087   6.474   7.348  0.0866  0.2913  0.0328
  953MOL0     O28523   3.077   6.408   7.473 -0.7523 -0.5409 -0.2127
  953MOL0     C28524   2.960   6.323   7.487  0.0602 -0.5347 -0.2865
  953MOL0     C28525   2.840   6.390   7.542  0.0654  0.2152 -0.5200
  953MOL0     C28526   2.733   6.301   7.555 -0.0624  0.4628  0.4885
  953MOL0     C28527   2.730   6.158   7.521  0.1140 -0.4810  0.5841
  953MOL0     O28528   2.610   6.091   7.527  0.4780  0.3524 -0.3275
  953MOL0     C28529   2.590   5.964   7.447 -0.9120 -0.1248 -0.1899
  953MOL0     C28530   2.592   5.843   7.540  0.2568  0.1202  0.5183
  953MOL0     C28531   2.571   5.718   7.455  1.8643 -0.2058  0.2593
  953MOL0     C28532   2.433   5.732   7.376  0.1323  0.5518  0.1935
  953MOL0     C28533   2.383   5.589   7.362 -0.2064  0.3159  0.1993
  953MOL0     C28534   2.272   5.570   7.262  0.0885  0.0859 -0.5511
  953MOL0     C28535   2.268   5.430   7.200  0.0214 -0.1128  0.0121
  953MOL0     C28536   2.366   5.439   7.077  0.5560 -0.2397  0.5369
  953MOL0     N28537   2.329   5.538   6.976  0.3356 -1.2040 -0.2433
  953MOL0     C28538   2.408   5.637   6.905  1.2727 -0.9725 -0.1323
  953MOL0     C28539   2.328   5.704   6.818  0.4679 -0.2498  0.5957
  953MOL0     C28540   2.369   5.791   6.707 -0.7986  0.0856 -0.2267
  953MOL0     C28541   2.470   5.897   6.758  0.3051  0.5418  0.3606
  953MOL0     C28542   2.433   6.038   6.713 -0.2406 -0.7571 -0.5687
  953MOL0     C28543   2.559   6.128   6.733 -0.5619  0.4436 -0.6550
  953MOL0     O28544   2.593   6.138   6.870  0.2363 -0.4123  1.3548
  953MOL0     C28545   2.723   6.138   6.897 -0.2866 -0.0156 -0.8619
  953MOL0     C28546   2.827   6.167   6.809 -0.2156 -0.2247  0.0449
  953MOL0     C28547   2.959   6.157   6.849 -1.4543 -0.4395  0.7606
  953MOL0     C28548   2.998   6.141   6.985  0.3864 -0.4856 -0.8221
  953MOL0     C28549   3.134   6.136   7.021  0.4890  0.1137 -0.5312
  953MOL0     O28550   3.164   6.092   7.150  0.4002 -0.3660 -0.2612
  953MOL0     C28551   3.294   6.118   7.191  0.1597  0.8429  0.0727
  953MOL0     C28552   3.399   6.050   7.134  0.1153 -0.0175  1.0319
  953MOL0     C28553   3.533   6.080   7.180  0.7939  0.7065 -0.3116
  953MOL0     C28554   3.559   6.176   7.265  0.9738 -0.3896 -0.1112
  953MOL0     O28555   3.689   6.220   7.267  0.5512  0.0448 -0.2881
  953MOL0     C28556   3.709   6.361   7.243  0.8096 -0.1290 -0.0422
  953MOL0     C28557   3.650   6.432   7.109 -0.6810  0.2746 -0.4631
  953MOL0     C28558   3.719   6.374   6.984  0.7910 -1.2077  0.3590
  953MOL0     C28559   3.652   6.417   6.855 -0.2293 -0.6919 -0.4537
  953MOL0     C28560   3.722   6.390   6.711 -0.1512 -0.4163 -0.2616
  953MOL0     C28561   3.855   6.471   6.703  0.1899 -0.3341 -0.1158
  953MOL0     C28562   3.821   6.615   6.672  0.2414 -0.1187  0.8308
  953MOL0     C28563   3.923   6.686   6.573 -0.4586 -0.3629  0.2702
  953MOL0    Cl28564   3.871   6.850   6.521  0.4353  0.2088  0.1803
  953MOL0     C28565   3.450   6.241   7.326 -0.0639 -0.0069  0.0709
  953MOL0     C28566   3.319   6.212   7.298  0.7277 -0.0379  0.1079
  953MOL0     O28567   3.220   6.162   6.935  0.7096  0.0485 -0.7491
  953MOL0     C28568   2.891   6.121   7.078 -0.2884 -0.2550 -0.1962
  953MOL0     C28569   2.761   6.131   7.035 -0.3771  0.2851 -0.3742
  953MOL0     N28570   2.193   5.658   6.836  0.1998 -0.3119  0.3234
  953MOL0     N28571   2.205   5.559   6.917  0.3860 -0.3087  0.5125
  953MOL0     C28572   2.849   6.104   7.483 -0.1170 -0.3468 -0.6131
  953MOL0     C28573   2.964   6.184   7.464  0.7041 -0.1781  0.0766
  953MOL0     C28574   3.206   6.556   7.329 -0.6179 -0.0475 -0.4255
  953MOL0     C28575   3.282   6.590   7.442  0.2799 -0.7492  0.2042
  953MOL0     C28576   3.399   6.672   7.436  0.3979 -0.8426 -0.1999
  953MOL0     C28577   3.436   6.726   7.317  0.9540  0.1427  0.5403
  953MOL0     O28578   3.539   6.801   7.288  0.3206  0.4702 -0.5583
  953MOL0     C28579   3.598   6.874   7.400 -0.0161  0.6878 -0.6083
  953MOL0     C28580   3.685   6.981   7.344  0.6982  0.0975 -0.0057
  953MOL0     C28581   3.748   7.059   7.456 -0.2182 -0.4235  0.6932
  953MOL0     C28582   3.666   7.161   7.543  1.1958  0.6168  0.6884
  953MOL0     C28583   3.743   7.246   7.636 -1.3941 -0.4781  0.1309
  953MOL0     C28584   3.818   7.308   7.708 -0.6715  0.2853  0.1556
  953MOL0     C28585   3.375   6.677   7.200 -0.0278  1.0211 -0.1869
  953MOL0     C28586   3.257   6.595   7.203  0.6759  0.3957 -0.4298
  953MOL0     C28587   3.194   6.552   7.071 -0.6838 -0.6923  0.2161
  953MOL0     H28588   2.838   6.495   7.568  0.8359  0.1157 -0.0146
  953MOL0     H28589   2.635   6.334   7.591 -1.0624 -2.7565  1.0441
  953MOL0     H28590   2.502   5.979   7.384  0.8284 -0.3477 -2.8324
  953MOL0     H28591   2.672   5.968   7.375  0.0750  1.2323  0.9644
  953MOL0     H28592   2.504   5.851   7.605  0.0666 -0.7436  0.3750
  953MOL0     H28593   2.685   5.836   7.596 -0.5080 -0.2904  1.7629
  953MOL0     H28594   2.571   5.628   7.518 -1.8125 -1.8246 -1.7223
  953MOL0     H28595   2.643   5.704   7.374  0.7850 -1.2996 -0.5436
  953MOL0     H28596   2.365   5.787   7.441 -0.2122  1.9484 -1.3070
  953MOL0     H28597   2.454   5.781   7.281  2.4990 -2.6229 -1.1315
  953MOL0     H28598   2.460   5.512   7.349  0.4120 -0.1156  4.8323
  953MOL0     H28599   2.353   5.556   7.462 -1.2409 -0.2671 -0.2892
  953MOL0     H28600   2.188   5.576   7.332  2.5298 -0.2449  2.5994
  953MOL0     H28601   2.263   5.654   7.192 -3.3592  2.5915  2.5006
  953MOL0     H28602   2.170   5.402   7.162  0.3736 -2.7573  0.8862
  953MOL0     H28603   2.287   5.353   7.275  0.3533  3.2539  3.7520
  953MOL0     H28604   2.465   5.481   7.094  0.9232 -0.7764 -0.2305
  953MOL0     H28605   2.386   5.344   7.027  2.1875  0.8055 -0.8948
  953MOL0     H28606   2.514   5.658   6.914  1.1052 -0.5808  1.1815
  953MOL0     H28607   2.416   5.730   6.629 -0.9229  2.6743 -2.5076
  953MOL0     H28608   2.278   5.838   6.668 -1.1615 -0.2585  0.1942
  953MOL0     H28609   2.473   5.890   6.868  4.0068  3.0669  0.6124
  953MOL0     H28610   2.568   5.865   6.724  0.1079  0.3329 -0.0175
  953MOL0     H28611   2.351   6.077   6.775 -0.7276 -1.8597 -0.4948
  953MOL0     H28612   2.408   6.041   6.607  0.4524  1.4189 -0.7259
  953MOL0     H28613   2.540   6.228   6.693 -3.2749  0.2916  0.0784
  953MOL0     H28614   2.633   6.077   6.670 -0.6610  1.0679 -1.2830
  953MOL0     H28615   2.804   6.211   6.712 -0.4470 -0.0103  0.1955
  953MOL0     H28616   3.047   6.175   6.788  1.3873 -1.9174  4.0536
  953MOL0     H28617   3.391   5.980   7.051  0.1126  0.6027  0.5052
  953MOL0     H28618   3.623   6.038   7.135  1.6725  1.0948  1.0349
  953MOL0     H28619   3.664   6.419   7.325  0.4214  2.6433 -2.0651
  953MOL0     H28620   3.816   6.381   7.232  1.1141 -2.3803 -1.7820
  953MOL0     H28621   3.541   6.421   7.105 -0.5304 -1.0344 -2.0064
  953MOL0     H28622   3.665   6.540   7.107  0.3582  0.1455 -0.0810
  953MOL0     H28623   3.826   6.396   6.988  0.3421  1.0322  2.0200
  953MOL0     H28624   3.714   6.264   6.984  1.5799 -1.3746 -2.9631
  953MOL0     H28625   3.650   6.526   6.863 -1.6095 -0.7164 -0.1018
  953MOL0     H28626   3.552   6.372   6.859  0.1662 -1.5110  0.9046
  953MOL0     H28627   3.656   6.423   6.631  0.0171 -1.9915 -1.0808
  953MOL0     H28628   3.745   6.284   6.703  0.3883 -0.4288  1.1742
  953MOL0     H28629   3.896   6.465   6.805 -0.3636  0.5050  0.1591
  953MOL0     H28630   3.915   6.427   6.623 -0.3077 -0.7185 -0.2830
  953MOL0     H28631   3.808   6.672   6.765 -1.4842  2.7103 -0.9928
  953MOL0     H28632   3.723   6.637   6.630  1.1537  1.3090 -0.6707
  953MOL0     H28633   4.016   6.699   6.629 -0.3675  0.0460  0.0263
  953MOL0     H28634   3.946   6.620   6.489 -0.7145  0.0587 -0.1299
  953MOL0     H28635   3.474   6.313   7.404 -2.5693  0.2538  0.7002
  953MOL0     H28636   3.234   6.265   7.340 -0.2694  0.7951 -2.7629
  953MOL0     H28637   2.909   6.101   7.183  2.0221  0.9177 -0.2995
  953MOL0     H28638   2.691   6.143   7.116  0.8737  4.7946  0.3245
  953MOL0     H28639   2.871   5.999   7.470  0.2821 -0.0094 -3.4290
  953MOL0     H28640   3.058   6.140   7.434  1.6602  0.3084  2.1893
  953MOL0     H28641   3.253   6.550   7.539  1.2479  0.3596  0.9795
  953MOL0     H28642   3.464   6.684   7.522 -1.1775  1.0164  0.8356
  953MOL0     H28643   3.661   6.799   7.450  0.3075  0.9685 -0.5903
  953MOL0     H28644   3.525   6.910   7.474  0.7162 -0.7738  0.8984
  953MOL0     H28645   3.625   7.041   7.274  0.4443 -1.2660 -0.9993
  953MOL0     H28646   3.767   6.932   7.292  0.5328 -2.2582  1.7970
  953MOL0     H28647   3.810   7.129   7.398 -1.2168 -0.4307 -0.4176
  953MOL0     H28648   3.806   6.992   7.520  1.3366 -0.3122 -0.5365
  953MOL0     H28649   3.619   7.227   7.470  1.7192 -0.2757 -0.4820
  953MOL0     H28650   3.586   7.114   7.602 -1.0141  1.1670 -1.6897
  953MOL0     H28651   3.881   7.359   7.778 -1.0182  2.7049 -1.1754
  953MOL0     H28652   3.421   6.706   7.106  0.9559 -0.9670 -0.3600
  953MOL0     H28653   3.094   6.596   7.064 -0.7858 -1.0127 -0.4657
  953MOL0     H28654   3.254   6.593   6.989 -2.0045  0.2942 -0.2921
  953MOL0     H28655   3.187   6.445   7.047 -0.3599 -0.0007 -3.4336
  954MOL0     O28656   3.400   7.061   2.122  0.3423  0.5922  0.5463
  954MOL0     C28657   3.383   7.174   2.081 -0.2990  0.5120  0.1221
  954MOL0     O28658   3.303   7.210   1.979 -0.1524  0.6221  0.1779
  954MOL0     C28659   3.231   7.100   1.925 -0.4156 -0.5967 -0.3986
  954MOL0     C28660   3.254   7.074   1.791 -0.3695 -0.8367  0.8792
  954MOL0     C28661   3.192   6.973   1.727 -0.4522 -0.0519 -0.4396
  954MOL0     C28662   3.103   6.884   1.790 -0.0983  0.7982 -0.6646
  954MOL0     O28663   3.037   6.781   1.730  0.1455 -0.1677  1.0833
  954MOL0     C28664   3.046   6.651   1.795  0.5314 -0.9071 -0.6059
  954MOL0     C28665   2.990   6.547   1.704 -0.3400  0.8619  1.1679
  954MOL0     C28666   3.079   6.496   1.594 -1.1011 -0.2807  0.3019
  954MOL0     C28667   3.199   6.420   1.647  0.1368  0.1653  0.3909
  954MOL0     C28668   3.268   6.341   1.533  0.4302  0.4741  0.4977
  954MOL0     C28669   3.296   6.424   1.397 -0.5756  0.5884 -0.2597
  954MOL0     C28670   3.377   6.359   1.282 -0.7504  0.2937  0.1112
  954MOL0     C28671   3.333   6.221   1.242  0.3228 -0.2884  0.7530
  954MOL0     N28672   3.200   6.221   1.184  0.3041  0.0017 -0.1195
  954MOL0     C28673   3.165   6.198   1.053 -0.1717  0.4010 -1.1557
  954MOL0     C28674   3.033   6.176   1.058  0.6172 -0.2218 -0.0289
  954MOL0     C28675   2.954   6.157   0.933 -0.7188 -0.0812  0.7965
  954MOL0     C28676   2.931   6.286   0.848  0.2393 -0.2497 -0.6476
  954MOL0     C28677   2.820   6.263   0.737  0.1615  0.5229  0.1253
  954MOL0     C28678   2.783   6.405   0.679 -0.3035 -0.3265  0.5064
  954MOL0     O28679   2.896   6.466   0.619 -0.1366 -0.6256 -1.1467
  954MOL0     C28680   2.905   6.599   0.604  0.0390  0.1415 -0.1397
  954MOL0     C28681   2.798   6.669   0.562  0.0256  0.1144  1.2266
  954MOL0     C28682   2.794   6.807   0.553  0.3068 -0.5138 -2.1074
  954MOL0     C28683   2.912   6.882   0.577  0.0151  0.4146  0.4260
  954MOL0     C28684   2.911   7.026   0.548  0.1756  0.8624  0.0359
  954MOL0     O28685   2.800   7.091   0.578  0.7765 -0.6802  0.2560
  954MOL0     C28686   2.810   7.228   0.572 -0.1622  0.5752 -1.1989
  954MOL0     C28687   2.864   7.293   0.683  0.8501 -1.0314  0.7158
  954MOL0     C28688   2.895   7.427   0.669  0.3865 -0.3453  0.2436
  954MOL0     C28689   2.856   7.497   0.555  0.1442  0.6434  0.8189
  954MOL0     O28690   2.885   7.630   0.537 -0.0972 -0.1884  0.2918
  954MOL0     C28691   2.891   7.711   0.652 -0.8848 -0.4905 -0.4761
  954MOL0     C28692   2.863   7.848   0.610  0.3749 -0.1856 -0.6981
  954MOL0     C28693   2.792   7.941   0.715  0.3896 -0.1590  0.7096
  954MOL0     C28694   2.657   7.890   0.763 -0.7967 -0.6380 -0.5628
  954MOL0     C28695   2.587   8.004   0.837 -0.0177 -0.3757 -0.9431
  954MOL0     C28696   2.434   7.972   0.874 -0.6958 -0.2055 -0.9655
  954MOL0     C28697   2.431   7.895   1.011 -0.3698 -0.8225  0.5576
  954MOL0     C28698   2.293   7.837   1.035  0.0440  0.0347  0.4255
  954MOL0    Cl28699   2.167   7.970   1.049 -0.5276  0.2002 -0.1340
  954MOL0     C28700   2.794   7.424   0.447  0.3819 -0.4076 -0.3228
  954MOL0     C28701   2.767   7.293   0.458  0.4324  0.6662 -0.4643
  954MOL0     O28702   3.018   7.069   0.512 -0.0002  0.0659 -0.6174
  954MOL0     C28703   3.032   6.808   0.613  0.5795  0.9809 -0.1161
  954MOL0     C28704   3.024   6.665   0.627  0.6279 -0.5480 -0.1328
  954MOL0     N28705   2.978   6.187   1.186 -0.3034  0.4433  0.6037
  954MOL0     N28706   3.085   6.205   1.262  0.3621  0.7612  0.4829
  954MOL0     C28707   3.073   6.916   1.926 -0.5340  0.9834  0.0718
  954MOL0     C28708   3.130   7.027   1.988 -0.2569  0.5445 -0.0958
  954MOL0     C28709   3.432   7.287   2.155 -0.0437 -0.0440  0.0892
  954MOL0     C28710   3.399   7.417   2.109 -0.5026  0.5775  0.7384
  954MOL0     C28711   3.451   7.529   2.168 -0.0557 -0.1109 -0.2232
  954MOL0     C28712   3.521   7.524   2.289 -0.7144 -0.0897 -0.1956
  954MOL0     O28713   3.557   7.643   2.357  0.7955  0.0310 -0.8971
  954MOL0     C28714   3.693   7.657   2.390 -1.3007 -0.2277  1.2450
  954MOL0     C28715   3.740   7.796   2.340 -0.1621 -0.6222  0.1132
  954MOL0     C28716   3.887   7.823   2.323 -0.8602 -1.1013  0.8762
  954MOL0     C28717   3.977   7.749   2.424 -1.0661 -1.1251  0.5613
  954MOL0     C28718   3.962   7.776   2.565  0.2142 -0.1058 -0.1108
  954MOL0     C28719   3.952   7.783   2.685  0.4416  0.1105 -0.3706
  954MOL0     C28720   3.552   7.395   2.339 -0.2175  0.7266  0.0648
  954MOL0     C28721   3.516   7.275   2.275  0.6511 -0.3983 -0.5968
  954MOL0     C28722   3.562   7.152   2.341  0.5586  0.4196  0.3989
  954MOL0     H28723   3.322   7.136   1.733 -0.2561  0.4790  2.3662
  954MOL0     H28724   3.205   6.960   1.620  0.3873  0.2288 -0.3825
  954MOL0     H28725   3.149   6.631   1.824  0.0473  1.2428  3.2207
  954MOL0     H28726   2.980   6.662   1.882 -0.0383  0.0892 -1.1489
  954MOL0     H28727   2.904   6.588   1.650  2.2361  2.4222 -2.0868
  954MOL0     H28728   2.956   6.463   1.765  1.9203 -2.1053 -1.3142
  954MOL0     H28729   3.112   6.581   1.532  3.3236 -0.3901  2.1246
  954MOL0     H28730   3.016   6.427   1.538  1.7853 -1.9614 -1.1162
  954MOL0     H28731   3.263   6.486   1.705 -2.7090  3.5776  0.0233
  954MOL0     H28732   3.158   6.351   1.722 -0.4417 -0.2049 -0.2542
  954MOL0     H28733   3.368   6.308   1.564 -0.7279 -0.9747  3.0038
  954MOL0     H28734   3.210   6.251   1.511  0.1087  1.0575 -1.1892
  954MOL0     H28735   3.205   6.462   1.351  0.1123 -0.3248 -2.5382
  954MOL0     H28736   3.360   6.507   1.430  0.2617  0.2158 -0.9209
  954MOL0     H28737   3.477   6.357   1.328 -1.6706  2.2530  2.4827
  954MOL0     H28738   3.383   6.420   1.191 -2.2296  1.1419  0.5470
  954MOL0     H28739   3.401   6.170   1.172  0.5459  1.0603 -0.0651
  954MOL0     H28740   3.323   6.163   1.333  0.8396 -0.6391  0.5955
  954MOL0     H28741   3.233   6.202   0.969 -0.8657  0.7974 -1.7122
  954MOL0     H28742   2.998   6.072   0.881  3.5829  2.8607 -0.9865
  954MOL0     H28743   2.849   6.132   0.949 -0.6931 -1.0735 -0.4791
  954MOL0     H28744   2.895   6.362   0.918  0.2571  0.1531 -1.0722
  954MOL0     H28745   3.025   6.316   0.801 -0.0604  1.5857 -0.1581
  954MOL0     H28746   2.727   6.217   0.769 -0.2078  0.3594 -1.1321
  954MOL0     H28747   2.865   6.206   0.656  1.7933  0.1563  1.2410
  954MOL0     H28748   2.745   6.466   0.761 -3.0499  1.3474 -1.8318
  954MOL0     H28749   2.699   6.385   0.612 -0.6445  0.8228  0.5761
  954MOL0     H28750   2.710   6.609   0.542  0.5150 -0.6095  1.2059
  954MOL0     H28751   2.702   6.858   0.528  1.0316 -0.2839 -4.5560
  954MOL0     H28752   2.884   7.238   0.774  0.7608 -1.2340  0.6141
  954MOL0     H28753   2.952   7.467   0.752 -0.2386  1.3039 -0.0897
  954MOL0     H28754   2.823   7.680   0.731 -0.7496 -1.1094 -0.5966
  954MOL0     H28755   2.994   7.706   0.689 -1.0581 -1.1932 -0.0800
  954MOL0     H28756   2.958   7.891   0.576  0.3089 -0.1144 -0.7955
  954MOL0     H28757   2.796   7.845   0.523 -1.6239  0.9282  0.7222
  954MOL0     H28758   2.858   7.960   0.800 -1.0994  0.1808  1.8293
  954MOL0     H28759   2.776   8.041   0.673 -0.8658 -1.0986 -1.2158
  954MOL0     H28760   2.665   7.812   0.840  0.9573 -0.0099 -0.0460
  954MOL0     H28761   2.607   7.856   0.672 -1.9290 -0.9452  0.1576
  954MOL0     H28762   2.583   8.093   0.773  3.3433  0.5882 -0.0154
  954MOL0     H28763   2.638   8.040   0.926  0.7934  0.9014 -1.8897
  954MOL0     H28764   2.385   8.070   0.886  1.1760  1.4966 -5.2662
  954MOL0     H28765   2.375   7.924   0.796 -0.7425 -0.6533 -0.6533
  954MOL0     H28766   2.445   7.966   1.093  2.3511 -0.9432  0.2948
  954MOL0     H28767   2.510   7.819   1.011  1.6216  1.1593  0.1853
  954MOL0     H28768   2.266   7.771   0.953  0.7742 -2.7848  2.3068
  954MOL0     H28769   2.307   7.781   1.128  3.9476  1.6604  1.0145
  954MOL0     H28770   2.778   7.479   0.355  0.7275 -2.3308 -1.5916
  954MOL0     H28771   2.721   7.240   0.375  1.6605  0.5339 -1.0894
  954MOL0     H28772   3.125   6.859   0.636  3.1969 -1.9007 -3.2708
  954MOL0     H28773   3.104   6.604   0.668 -0.8434 -3.1314 -0.8593
  954MOL0     H28774   3.015   6.847   1.985 -2.9985  1.5006 -1.5845
  954MOL0     H28775   3.103   7.030   2.093 -2.8131 -2.6614 -0.4880
  954MOL0     H28776   3.352   7.431   2.012  1.6156  0.1762 -0.4260
  954MOL0     H28777   3.420   7.628   2.137  0.1172  0.0368  0.0742
  954MOL0     H28778   3.753   7.583   2.336  0.8088  2.7718 -0.8309
  954MOL0     H28779   3.722   7.644   2.495  0.4080  1.0411  0.9651
  954MOL0     H28780   3.712   7.870   2.416 -2.7894  0.3152 -1.6344
  954MOL0     H28781   3.681   7.817   2.250  2.3881  1.4438 -1.2107
  954MOL0     H28782   3.916   7.928   2.318  0.2534 -1.4489 -0.4042
  954MOL0     H28783   3.912   7.772   2.230  2.2488  0.3743  0.8052
  954MOL0     H28784   3.960   7.642   2.409  0.6454 -1.5263  1.2860
  954MOL0     H28785   4.080   7.771   2.395 -2.1054 -0.0655 -2.8142
  954MOL0     H28786   3.925   7.794   2.788 -1.0372 -1.6656 -0.4987
  954MOL0     H28787   3.580   7.372   2.442 -1.6229 -2.3312 -0.1472
  954MOL0     H28788   3.661   7.174   2.383  0.7560  2.6114 -1.0819
  954MOL0     H28789   3.483   7.134   2.415  0.5208 -2.3435 -0.1781
  954MOL0     H28790   3.576   7.063   2.279 -1.7995  0.9348 -0.9982
  955MOL0     O28791  11.336   1.723   2.363  0.3234  0.2294  0.0016
  955MOL0     C28792  11.270   1.798   2.280  0.2605  0.4001 -1.0225
  955MOL0     O28793  11.330   1.876   2.189 -0.0258  0.1787 -0.2053
  955MOL0     C28794  11.472   1.889   2.186 -0.1389  0.7460  1.0001
  955MOL0     C28795  11.554   1.956   2.277  0.2058  0.4227  0.0156
  955MOL0     C28796  11.694   1.972   2.252  0.2680  0.6201  0.0019
  955MOL0     C28797  11.762   1.925   2.136 -0.1881  0.6758 -0.2954
  955MOL0     O28798  11.894   1.913   2.108  0.1451  0.1981  0.5083
  955MOL0     C28799  11.991   1.948   2.208 -0.3569 -0.2188 -0.2889
  955MOL0     C28800  12.120   1.868   2.208 -0.4569 -0.0341  0.4078
  955MOL0     C28801  12.214   1.904   2.328  0.9180 -0.2651  0.3202
  955MOL0     C28802  12.334   1.807   2.334  0.1337 -0.1201 -0.4832
  955MOL0     C28803  12.306   1.662   2.381  0.1233  0.2545  0.5717
  955MOL0     C28804  12.434   1.580   2.404 -0.4655 -0.2644  0.2354
  955MOL0     C28805  12.408   1.425   2.401 -0.1187  0.7664 -0.0739
  955MOL0     C28806  12.539   1.340   2.426  0.0507  0.3060 -0.2254
  955MOL0     N28807  12.626   1.359   2.311  0.8776 -0.0246  0.1267
  955MOL0     C28808  12.762   1.370   2.325  0.6308 -0.0440  0.1044
  955MOL0     C28809  12.807   1.383   2.200  0.6148 -0.3798 -0.0848
  955MOL0     C28810  12.938   1.427   2.168 -0.4813  0.1313  0.3839
  955MOL0     C28811  12.938   1.460   2.013  0.2938  0.0764  0.0350
  955MOL0     C28812  13.073   1.468   1.960  0.3648  0.2585 -0.0797
  955MOL0     C28813  13.151   1.587   2.004  0.4014 -0.5557 -0.4535
  955MOL0     O28814  13.284   1.570   1.952  0.4850  0.1124  1.2203
  955MOL0     C28815  13.371   1.675   1.963 -0.5625 -0.0797 -0.2005
  955MOL0     C28816  13.506   1.635   1.946  0.4722  0.0451 -0.4088
  955MOL0     C28817  13.607   1.728   1.948 -1.1784  1.0062 -0.0328
  955MOL0     C28818  13.585   1.866   1.978 -0.4107  0.5106  0.2763
  955MOL0     C28819  13.696   1.963   1.992 -0.6125  0.0003  0.9352
  955MOL0     O28820  13.822   1.918   1.968 -0.5286 -0.0370  0.1158
  955MOL0     C28821  13.930   1.993   1.994 -0.1132 -0.9809  0.1096
  955MOL0     C28822  13.974   1.999   2.124 -0.9686  0.6414  0.2415
  955MOL0     C28823  14.082   2.077   2.156 -0.2556 -0.6901 -0.2025
  955MOL0     C28824  14.149   2.152   2.059 -0.6924  0.3875 -0.2489
  955MOL0     O28825  14.264   2.235   2.091 -0.3874  0.0880 -0.0740
  955MOL0     C28826  14.326   2.313   2.000  0.0859 -0.3809  0.1929
  955MOL0     C28827  14.424   2.394   2.075 -0.5937  0.1591 -0.4920
  955MOL0     C28828  14.494   2.510   1.988  0.5770  0.0317 -0.7093
  955MOL0     C28829  14.640   2.542   2.031 -0.9726  0.4136  0.4591
  955MOL0     C28830  14.697   2.650   1.946 -0.3840 -0.0898  0.3233
  955MOL0     C28831  14.838   2.692   1.993  0.2009 -0.0303 -0.6652
  955MOL0     C28832  14.937   2.573   1.998  0.1021  0.3852  0.6815
  955MOL0     C28833  14.971   2.516   1.863 -0.7455 -0.2370  0.5298
  955MOL0    Cl28834  15.064   2.359   1.876  0.0526 -0.1643  0.5177
  955MOL0     C28835  14.124   2.119   1.928 -0.4002  0.0034 -0.1106
  955MOL0     C28836  14.014   2.041   1.891  0.1094  0.6238  0.0511
  955MOL0     O28837  13.669   2.080   2.023 -0.6355  0.4406  0.4872
  955MOL0     C28838  13.450   1.902   1.999 -0.4728  0.6262  0.9549
  955MOL0     C28839  13.345   1.813   1.994  1.2392  1.1686 -0.0863
  955MOL0     N28840  12.707   1.350   2.107  0.1776 -0.1479 -0.4383
  955MOL0     N28841  12.599   1.333   2.176  0.4977  0.1626 -0.1348
  955MOL0     C28842  11.677   1.874   2.029  0.2037  0.0839 -0.4073
  955MOL0     C28843  11.538   1.848   2.056 -0.5273 -0.3484 -0.1928
  955MOL0     C28844  11.121   1.812   2.279 -0.4501  0.2114  0.3672
  955MOL0     C28845  11.062   1.924   2.206 -0.3310 -0.2170  0.3196
  955MOL0     C28846  10.927   1.947   2.202 -0.4796 -0.1330 -0.2468
  955MOL0     C28847  10.843   1.866   2.276  0.0817 -0.8597  0.0484
  955MOL0     O28848  10.713   1.903   2.267  0.3392  0.0220  0.4111
  955MOL0     C28849  10.617   1.824   2.339 -0.4973  0.2568  0.6779
  955MOL0     C28850  10.472   1.874   2.312  0.0589  0.3000 -0.0305
  955MOL0     C28851  10.415   1.829   2.179 -0.3699  0.1165 -0.6842
  955MOL0     C28852  10.269   1.866   2.161 -0.9750  0.4203 -0.4302
  955MOL0     C28853  10.219   1.839   2.032  0.0908  0.1290 -0.5671
  955MOL0     C28854  10.156   1.814   1.928  0.1303  0.1701  0.6574
  955MOL0     C28855  10.893   1.753   2.343 -0.5503  0.7270  1.0294
  955MOL0     C28856  11.033   1.728   2.343  0.8269 -0.1760 -0.6508
  955MOL0     C28857  11.075   1.613   2.429 -0.7383  0.6655 -0.1374
  955MOL0     H28858  11.526   2.012   2.365 -1.3399  0.8591 -0.7193
  955MOL0     H28859  11.757   2.019   2.326 -0.5929  4.0166 -1.2385
  955MOL0     H28860  12.007   2.053   2.183  0.0143 -0.0806  0.4881
  955MOL0     H28861  11.947   1.960   2.308 -0.9160  1.4577 -0.6886
  955MOL0     H28862  12.171   1.876   2.112 -1.1750  1.5788  0.1268
  955MOL0     H28863  12.090   1.763   2.218  2.9061 -1.0803  0.6974
  955MOL0     H28864  12.164   1.921   2.424  0.9146 -2.4625  0.7470
  955MOL0     H28865  12.251   2.006   2.309  2.8290 -0.3771  2.9751
  955MOL0     H28866  12.379   1.796   2.235 -2.7358 -1.8810 -1.7504
  955MOL0     H28867  12.408   1.847   2.404 -0.5646  1.3163 -0.5371
  955MOL0     H28868  12.236   1.674   2.464  0.5060 -3.7610  1.6883
  955MOL0     H28869  12.237   1.610   2.315 -0.9060  1.3441  0.7487
  955MOL0     H28870  12.502   1.601   2.321 -1.0639 -1.6330 -0.6399
  955MOL0     H28871  12.485   1.606   2.497  1.0800  1.4413 -1.0133
  955MOL0     H28872  12.363   1.392   2.307 -1.1353  1.3702  0.1851
  955MOL0     H28873  12.333   1.412   2.480  0.9162 -0.5315  0.7481
  955MOL0     H28874  12.591   1.372   2.517 -0.0237  2.7513 -0.9736
  955MOL0     H28875  12.519   1.234   2.442  3.3683 -0.2074  1.4911
  955MOL0     H28876  12.808   1.384   2.423 -1.8614 -0.3092  1.3762
  955MOL0     H28877  12.978   1.507   2.231  0.1404  0.1425 -0.0114
  955MOL0     H28878  13.001   1.338   2.174 -1.4659 -0.7914 -1.8363
  955MOL0     H28879  12.876   1.382   1.968  0.3449 -1.4783  2.5166
  955MOL0     H28880  12.890   1.554   1.982  0.6193 -0.3960 -2.0770
  955MOL0     H28881  13.068   1.468   1.851  1.6271 -1.4077 -0.1792
  955MOL0     H28882  13.122   1.371   1.975  0.0651  0.2756  1.0780
  955MOL0     H28883  13.152   1.580   2.113  0.2546  1.0105 -0.3264
  955MOL0     H28884  13.107   1.681   1.969 -1.5426 -0.5786  1.6783
  955MOL0     H28885  13.532   1.532   1.928  2.7480  1.0497 -3.8806
  955MOL0     H28886  13.710   1.699   1.928 -2.0090 -1.3619 -1.3075
  955MOL0     H28887  13.933   1.921   2.188  1.7487 -2.8088 -1.8686
  955MOL0     H28888  14.104   2.081   2.262 -0.9857  0.2192 -0.0671
  955MOL0     H28889  14.376   2.265   1.915 -1.6375 -0.5049 -0.8044
  955MOL0     H28890  14.241   2.379   1.977 -0.4299 -0.0583  2.6759
  955MOL0     H28891  14.376   2.424   2.168 -2.8443 -4.7957  0.2659
  955MOL0     H28892  14.505   2.328   2.107 -1.9687  0.4019  4.2288
  955MOL0     H28893  14.503   2.473   1.886 -0.6887 -0.5702 -0.6315
  955MOL0     H28894  14.440   2.605   1.984  2.3687  1.0557 -1.2132
  955MOL0     H28895  14.692   2.446   2.028 -2.2255 -0.3060 -3.0840
  955MOL0     H28896  14.654   2.570   2.136 -1.7155  0.7686  0.4740
  955MOL0     H28897  14.635   2.740   1.944  1.5571  1.3121 -1.7296
  955MOL0     H28898  14.700   2.615   1.843  1.2356  0.4180  0.1716
  955MOL0     H28899  14.864   2.769   1.920  1.0589 -0.1290 -0.4799
  955MOL0     H28900  14.817   2.749   2.084 -2.0579  0.7558 -1.6016
  955MOL0     H28901  14.894   2.485   2.047  1.2172 -0.4774  0.1612
  955MOL0     H28902  15.021   2.615   2.055  1.4504  0.6138 -1.3978
  955MOL0     H28903  14.879   2.501   1.807 -0.2182  1.0598 -0.7235
  955MOL0     H28904  15.033   2.594   1.817  0.1782 -1.9774 -1.3139
  955MOL0     H28905  14.161   2.174   1.841 -1.8082 -0.9685 -1.3835
  955MOL0     H28906  13.980   2.016   1.791 -1.8163  3.0352 -0.0145
  955MOL0     H28907  13.429   2.002   2.032  0.0170  0.2479  2.4830
  955MOL0     H28908  13.240   1.839   1.994  1.2827  1.6949 -2.6456
  955MOL0     H28909  11.723   1.838   1.937  0.1517  0.4846 -0.5969
  955MOL0     H28910  11.471   1.810   1.980 -1.2441 -0.5283  0.5108
  955MOL0     H28911  11.118   2.009   2.169 -1.3779  1.5540  2.6024
  955MOL0     H28912  10.881   2.031   2.151 -0.5831 -0.5952 -0.9278
  955MOL0     H28913  10.624   1.825   2.448 -4.7236 -2.3040  1.1965
  955MOL0     H28914  10.627   1.723   2.300  0.8148  1.5120 -2.5746
  955MOL0     H28915  10.472   1.984   2.312 -2.4659  0.3587 -1.9444
  955MOL0     H28916  10.410   1.832   2.392 -0.1015  2.2796  0.9571
  955MOL0     H28917  10.425   1.720   2.192 -2.6704 -0.1079 -0.2984
  955MOL0     H28918  10.471   1.868   2.094  1.0494 -0.1423  0.0966
  955MOL0     H28919  10.205   1.810   2.230  2.1271 -0.8948  1.5789
  955MOL0     H28920  10.253   1.973   2.181 -4.7771 -0.2368  1.0901
  955MOL0     H28921  10.091   1.787   1.848  1.4408 -2.9082  0.4870
  955MOL0     H28922  10.824   1.692   2.400 -3.0525  1.8861 -0.5741
  955MOL0     H28923  11.111   1.647   2.527 -0.1802 -0.3862  0.0318
  955MOL0     H28924  10.990   1.546   2.447  1.8281 -4.0590 -3.2901
  955MOL0     H28925  11.135   1.551   2.363 -2.0745  1.9637 -2.7038
  956MOL0     O28926   2.948  10.499   3.276 -0.0731 -0.3270 -0.1083
  956MOL0     C28927   2.875  10.470   3.375  1.5165 -0.5352 -0.2030
  956MOL0     O28928   2.741  10.493   3.375 -0.2587  0.5790  0.4669
  956MOL0     C28929   2.686  10.544   3.266  0.1457 -0.2514  0.2355
  956MOL0     C28930   2.665  10.679   3.264  0.2026  0.3240 -0.5264
  956MOL0     C28931   2.565  10.727   3.168 -0.1970  0.2148  0.6264
  956MOL0     C28932   2.501  10.641   3.084 -0.2145 -0.2557 -0.5022
  956MOL0     O28933   2.395  10.677   3.000 -0.7573  0.8628 -0.5113
  956MOL0     C28934   2.411  10.798   2.929  0.3459  0.4597 -0.3991
  956MOL0     C28935   2.283  10.823   2.850  0.1164 -0.2713  0.7431
  956MOL0     C28936   2.231  10.706   2.775 -0.0530  0.1310 -0.2317
  956MOL0     C28937   2.310  10.655   2.650  0.3831 -0.3249  0.0308
  956MOL0     C28938   2.253  10.523   2.584 -0.1287  0.4040 -0.9274
  956MOL0     C28939   2.253  10.405   2.684  0.3455  0.0868 -0.4112
  956MOL0     C28940   2.263  10.272   2.605  0.1591 -1.0878 -0.6086
  956MOL0     C28941   2.135  10.248   2.522 -0.1576  0.2523  0.1667
  956MOL0     N28942   2.138  10.115   2.468  0.1251 -0.9670 -1.6363
  956MOL0     C28943   2.184  10.088   2.344 -0.4895 -0.1239 -0.4429
  956MOL0     C28944   2.180   9.951   2.328  0.6288 -1.1880 -1.0665
  956MOL0     C28945   2.211   9.881   2.199  0.2714 -0.0193  0.3097
  956MOL0     C28946   2.095   9.796   2.159  0.4461  0.7514 -0.0025
  956MOL0     C28947   2.114   9.700   2.040 -0.8421 -0.6549 -0.1847
  956MOL0     C28948   1.990   9.616   2.003 -0.0838 -0.0317  0.3561
  956MOL0     O28949   1.927   9.538   2.103  0.4241  0.0329 -0.4540
  956MOL0     C28950   1.980   9.417   2.131 -0.9735 -0.4353 -0.9122
  956MOL0     C28951   1.926   9.358   2.249  0.5635  0.4419  0.3533
  956MOL0     C28952   1.961   9.239   2.295  0.8287  0.3430  0.1154
  956MOL0     C28953   2.069   9.167   2.235 -0.4440  0.3796  0.1310
  956MOL0     C28954   2.103   9.033   2.278 -0.8035 -0.0413  0.1150
  956MOL0     O28955   2.029   8.983   2.378 -0.7379  0.0176  0.2392
  956MOL0     C28956   2.030   8.850   2.401 -0.4769  0.1461 -0.5913
  956MOL0     C28957   1.914   8.792   2.446  0.2828 -0.6034  0.7788
  956MOL0     C28958   1.905   8.655   2.460 -0.2732  0.2631 -0.3481
  956MOL0     C28959   2.024   8.572   2.438 -0.4692 -0.3103  0.0589
  956MOL0     O28960   2.024   8.438   2.447 -0.2212 -0.3929 -0.1080
  956MOL0     C28961   1.899   8.378   2.435  0.3812 -0.4965  0.2619
  956MOL0     C28962   1.910   8.239   2.376 -0.3355  0.1700  0.6662
  956MOL0     C28963   1.813   8.133   2.442 -0.0710 -0.2781 -0.2773
  956MOL0     C28964   1.828   7.993   2.379 -0.3637  0.5562 -0.9161
  956MOL0     C28965   1.747   7.864   2.433  0.5279  0.4381 -1.2759
  956MOL0     C28966   1.785   7.817   2.578  0.0796 -0.7664  1.0444
  956MOL0     C28967   1.719   7.903   2.686 -0.2978 -0.5624  0.4149
  956MOL0     C28968   1.746   7.877   2.831  0.3608  0.2275 -0.9649
  956MOL0    Cl28969   1.739   7.705   2.867 -0.0933  0.5188  0.2392
  956MOL0     C28970   2.144   8.634   2.407 -0.2376  0.0567  0.2315
  956MOL0     C28971   2.154   8.775   2.399 -0.3167  0.4960 -0.4051
  956MOL0     O28972   2.183   8.967   2.208  0.2804 -0.9093  0.5145
  956MOL0     C28973   2.150   9.229   2.140  0.3450 -1.4867  0.0995
  956MOL0     C28974   2.102   9.351   2.083 -0.5114  0.3757 -0.4987
  956MOL0     N28975   2.117   9.904   2.447 -0.4556  0.0035  0.0968
  956MOL0     N28976   2.086  10.004   2.523  0.4476  0.0759  0.3878
  956MOL0     C28977   2.545  10.509   3.075  0.8705  0.3539 -0.4552
  956MOL0     C28978   2.628  10.458   3.167 -0.7559 -0.4585 -0.2492
  956MOL0     C28979   2.932  10.415   3.505  0.3004 -0.8671 -0.4590
  956MOL0     C28980   2.835  10.354   3.594 -0.5540 -0.4928  0.5024
  956MOL0     C28981   2.866  10.309   3.725 -0.1985  0.9603  0.9296
  956MOL0     C28982   3.002  10.307   3.762  0.0874 -0.8153 -0.7728
  956MOL0     O28983   3.052  10.282   3.889 -0.3319 -0.5783 -0.3059
  956MOL0     C28984   2.953  10.268   4.001 -0.7536 -0.5806  0.3672
  956MOL0     C28985   2.889  10.137   4.030  0.1567  0.6416  0.5677
  956MOL0     C28986   2.988  10.024   3.993  0.2129  0.0851  0.1696
  956MOL0     C28987   2.922   9.891   4.011 -0.1338  0.4419 -1.0479
  956MOL0     C28988   3.045   9.807   4.014  0.1578 -0.6714 -0.8030
  956MOL0     C28989   3.144   9.730   4.033 -0.4785  0.6196  0.0133
  956MOL0     C28990   3.097  10.355   3.670  0.1036 -0.3615 -0.2363
  956MOL0     C28991   3.062  10.413   3.550  0.3212 -0.1115 -0.0608
  956MOL0     C28992   3.170  10.484   3.467  0.5143  0.0143  0.8325
  956MOL0     H28993   2.715  10.740   3.338  0.1872  1.7235 -1.6353
  956MOL0     H28994   2.548  10.834   3.165  2.1738  0.6350  0.1851
  956MOL0     H28995   2.428  10.889   2.988 -2.0681 -0.1108  1.3152
  956MOL0     H28996   2.503  10.778   2.874  1.9678 -0.0232  2.2763
  956MOL0     H28997   2.301  10.909   2.784  2.8101 -1.9948 -0.9760
  956MOL0     H28998   2.213  10.850   2.929 -0.4653  1.4100 -0.2775
  956MOL0     H28999   2.128  10.728   2.748 -0.7584 -0.3773  1.8512
  956MOL0     H29000   2.215  10.626   2.848  0.2602  1.9645  1.9301
  956MOL0     H29001   2.322  10.738   2.579  5.4634  0.6755  1.6776
  956MOL0     H29002   2.410  10.623   2.679 -0.1111 -4.0020 -1.7969
  956MOL0     H29003   2.155  10.534   2.537 -2.1664  2.9830  3.3260
  956MOL0     H29004   2.328  10.506   2.506  2.5580 -0.4846  1.6343
  956MOL0     H29005   2.340  10.414   2.751 -0.7808  0.4266  1.0537
  956MOL0     H29006   2.157  10.399   2.736  0.9655  0.2665  0.7935
  956MOL0     H29007   2.259  10.204   2.690 -0.4160 -2.0161 -1.3610
  956MOL0     H29008   2.361  10.260   2.556  1.5554 -1.2028  2.0519
  956MOL0     H29009   2.048  10.247   2.588 -0.4821  0.7086 -0.2477
  956MOL0     H29010   2.107  10.314   2.440 -0.4456 -1.2083 -0.9495
  956MOL0     H29011   2.222  10.159   2.272  0.7257 -0.7061 -0.3917
  956MOL0     H29012   2.228   9.945   2.112 -1.2463 -1.2953 -0.9872
  956MOL0     H29013   2.298   9.816   2.213 -0.1567 -1.0007 -1.3998
  956MOL0     H29014   2.078   9.734   2.248  3.4430 -1.5873 -0.8884
  956MOL0     H29015   2.005   9.857   2.145 -1.1686 -1.4460  0.1807
  956MOL0     H29016   2.202   9.636   2.050  0.1618  0.7910  0.6132
  956MOL0     H29017   2.143   9.769   1.960  2.1170  1.1750  2.2459
  956MOL0     H29018   2.026   9.560   1.916  0.5850 -0.1592  0.7112
  956MOL0     H29019   1.917   9.685   1.959 -1.0584 -2.5867 -2.3701
  956MOL0     H29020   1.847   9.416   2.296 -1.0729  2.0109 -3.8332
  956MOL0     H29021   1.911   9.191   2.379  1.5815 -3.4356 -1.3802
  956MOL0     H29022   1.828   8.856   2.462 -1.4218 -1.9354 -2.1352
  956MOL0     H29023   1.805   8.619   2.483  0.0766 -0.7749 -0.3956
  956MOL0     H29024   1.866   8.376   2.539  0.1275  0.7866  0.2319
  956MOL0     H29025   1.825   8.445   2.389  1.0334  0.3083  0.3450
  956MOL0     H29026   1.889   8.253   2.269  0.4001 -0.5554  0.4181
  956MOL0     H29027   2.012   8.201   2.387 -1.1058 -2.2736 -0.1218
  956MOL0     H29028   1.846   8.128   2.546  0.7664 -2.3380 -0.5973
  956MOL0     H29029   1.711   8.174   2.437 -0.6274 -1.6211 -0.5962
  956MOL0     H29030   1.935   7.972   2.380  0.0593  2.5606 -0.0382
  956MOL0     H29031   1.794   7.997   2.275 -1.2072  1.6575 -0.6162
  956MOL0     H29032   1.752   7.777   2.367 -5.1526 -0.2987 -1.1652
  956MOL0     H29033   1.643   7.896   2.423 -0.1816 -1.7405 -1.4566
  956MOL0     H29034   1.742   7.716   2.588  0.8406 -1.4111 -1.4607
  956MOL0     H29035   1.893   7.807   2.591  0.5467  0.9531 -1.0532
  956MOL0     H29036   1.612   7.897   2.662 -0.2535  4.4970 -2.4589
  956MOL0     H29037   1.744   8.009   2.674 -0.8167 -0.3331  1.2354
  956MOL0     H29038   1.838   7.934   2.853  1.4635 -0.3531 -3.7090
  956MOL0     H29039   1.668   7.928   2.888 -0.8272 -0.5747 -1.8429
  956MOL0     H29040   2.221   8.557   2.410 -0.9070 -0.6629  4.0725
  956MOL0     H29041   2.251   8.819   2.377  1.0113 -2.1613 -0.2725
  956MOL0     H29042   2.238   9.177   2.102  1.2017 -1.3294  1.8011
  956MOL0     H29043   2.151   9.399   1.999  0.2667  0.5544  0.0459
  956MOL0     H29044   2.490  10.443   3.009  0.1880  0.4630 -0.0105
  956MOL0     H29045   2.662  10.355   3.170 -0.9858 -0.7053 -3.2038
  956MOL0     H29046   2.731  10.343   3.567 -0.6888  0.8550  0.3748
  956MOL0     H29047   2.786  10.264   3.783 -2.4746 -1.3855 -3.5386
  956MOL0     H29048   2.865  10.333   3.991  0.3430  0.8899 -0.1096
  956MOL0     H29049   3.012  10.288   4.090  0.2226 -3.4914  0.4807
  956MOL0     H29050   2.798  10.137   3.970  1.1408 -1.1837 -0.9999
  956MOL0     H29051   2.871  10.132   4.138  2.4666  1.9128  1.0682
  956MOL0     H29052   3.067  10.050   4.065 -2.1441  3.9807  1.7124
  956MOL0     H29053   3.015  10.027   3.887 -4.2729 -0.5978 -1.1986
  956MOL0     H29054   2.859   9.875   4.099  2.1526  0.0045  0.6100
  956MOL0     H29055   2.851   9.866   3.932 -0.3895 -1.2044 -0.3471
  956MOL0     H29056   3.229   9.665   4.045 -0.2348  1.0039  0.3927
  956MOL0     H29057   3.199  10.340   3.705  0.9827  2.9799 -1.0373
  956MOL0     H29058   3.195  10.420   3.383  2.0756  0.0387  1.2462
  956MOL0     H29059   3.127  10.575   3.424  1.4250 -0.4188 -1.0558
  956MOL0     H29060   3.256  10.520   3.526  0.0756 -1.4637  2.4510
  957MOL0     O29061   7.267   4.168   5.128  1.0788 -0.0485  0.3690
  957MOL0     C29062   7.162   4.224   5.141  0.1514 -0.3750  1.1159
  957MOL0     O29063   7.066   4.204   5.237 -0.2962 -0.4023  0.2583
  957MOL0     C29064   7.085   4.100   5.321  0.2140 -0.6876 -0.2324
  957MOL0     C29065   7.119   3.969   5.278  1.7975 -0.6493 -0.6603
  957MOL0     C29066   7.131   3.875   5.380 -0.1466  0.0766  0.1394
  957MOL0     C29067   7.112   3.895   5.517 -0.3313  0.0290 -0.6792
  957MOL0     O29068   7.131   3.801   5.619 -0.0198 -0.1600  0.4577
  957MOL0     C29069   7.096   3.670   5.578  0.1790 -0.4030  0.1435
  957MOL0     C29070   7.111   3.573   5.697  0.3195 -0.0970  0.0982
  957MOL0     C29071   7.256   3.579   5.759  0.4568 -1.0447  0.6915
  957MOL0     C29072   7.278   3.474   5.860 -0.0071 -0.1534  0.0199
  957MOL0     C29073   7.411   3.476   5.929  0.0851  0.3381  1.0260
  957MOL0     C29074   7.432   3.339   6.008  0.0872  1.5101 -0.0373
  957MOL0     C29075   7.545   3.358   6.103 -1.3047  0.0727  0.3329
  957MOL0     C29076   7.675   3.291   6.042  0.4688  0.5991 -0.3483
  957MOL0     N29077   7.771   3.248   6.143  0.9606 -1.0008 -1.0035
  957MOL0     C29078   7.822   3.338   6.236  0.0168 -0.1731 -0.3770
  957MOL0     C29079   7.920   3.273   6.296 -0.0575 -0.3800  0.8740
  957MOL0     C29080   8.003   3.338   6.396 -0.0047 -0.4586 -0.4959
  957MOL0     C29081   7.991   3.269   6.535  0.7693  0.0376  1.1291
  957MOL0     C29082   7.846   3.262   6.581 -0.0916  0.1169  0.5181
  957MOL0     C29083   7.794   3.405   6.623  0.1155  0.1093  0.1600
  957MOL0     O29084   7.658   3.383   6.663  0.1350 -0.6412 -0.2140
  957MOL0     C29085   7.547   3.463   6.625  0.0430 -0.1251 -0.8782
  957MOL0     C29086   7.456   3.517   6.715  0.9769  0.1793  0.1594
  957MOL0     C29087   7.334   3.576   6.675 -0.1497  0.3953  0.3095
  957MOL0     C29088   7.310   3.600   6.543  0.7844  0.7007  0.2172
  957MOL0     C29089   7.192   3.683   6.503 -0.5026  0.9779  0.3922
  957MOL0     O29090   7.135   3.775   6.588 -0.4805  0.2208  0.6172
  957MOL0     C29091   7.072   3.892   6.549  0.3970  0.4409  0.1932
  957MOL0     C29092   7.000   3.968   6.650 -0.1163 -0.2484  0.3245
  957MOL0     C29093   6.919   4.086   6.623  0.0070 -0.2394 -0.2280
  957MOL0     C29094   6.925   4.128   6.492  0.9587  0.5017 -0.2355
  957MOL0     O29095   6.862   4.245   6.462 -1.6563 -0.0586 -0.0121
  957MOL0     C29096   6.949   4.337   6.401  0.2826  0.6999 -0.6039
  957MOL0     C29097   6.865   4.454   6.326  0.1889 -0.0478  0.0416
  957MOL0     C29098   6.800   4.419   6.191 -0.2140  0.0836  0.7010
  957MOL0     C29099   6.896   4.377   6.081  0.5178 -0.0134 -0.0494
  957MOL0     C29100   6.831   4.421   5.953  1.0667  0.9088 -0.1948
  957MOL0     C29101   6.916   4.375   5.832  0.2590 -0.5739 -0.5723
  957MOL0     C29102   6.850   4.411   5.704  0.0537 -0.7132 -0.1875
  957MOL0     C29103   6.759   4.315   5.619  0.0349 -0.2140 -0.3296
  957MOL0    Cl29104   6.614   4.276   5.704  0.3958  0.0851 -0.3051
  957MOL0     C29105   6.975   4.052   6.390 -0.0966  0.3318  0.2023
  957MOL0     C29106   7.051   3.938   6.417  0.6651 -0.3176 -1.2953
  957MOL0     O29107   7.174   3.678   6.383  0.4462  0.3654  0.2246
  957MOL0     C29108   7.394   3.549   6.444  0.4842 -0.6218  0.1236
  957MOL0     C29109   7.509   3.479   6.491  0.1740 -0.4951 -0.4714
  957MOL0     N29110   7.907   3.141   6.262 -0.5779 -0.6575  0.2660
  957MOL0     N29111   7.829   3.128   6.162  1.4491 -0.6869 -0.2597
  957MOL0     C29112   7.069   4.023   5.557 -0.3962 -1.4143  0.2864
  957MOL0     C29113   7.061   4.121   5.456 -0.1942  0.1589 -0.4497
  957MOL0     C29114   7.153   4.349   5.062  0.3108 -0.0795  0.4094
  957MOL0     C29115   7.153   4.465   5.135 -0.5257 -0.0848  0.1951
  957MOL0     C29116   7.129   4.587   5.076  0.2502  0.2882  0.4057
  957MOL0     C29117   7.115   4.600   4.936 -0.3250 -0.8007 -0.0704
  957MOL0     O29118   7.112   4.730   4.883 -0.0634 -0.6654 -0.8574
  957MOL0     C29119   7.165   4.739   4.748 -0.3423  0.1484  0.8346
  957MOL0     C29120   7.201   4.890   4.710  0.0938  0.8939 -0.4506
  957MOL0     C29121   7.242   4.896   4.564  0.1770  0.2619  0.0404
  957MOL0     C29122   7.357   4.982   4.532  0.5423 -0.1212 -0.0061
  957MOL0     C29123   7.413   4.950   4.407  1.0239 -1.2938  0.4399
  957MOL0     C29124   7.463   4.924   4.299 -0.3080 -0.2899 -0.4050
  957MOL0     C29125   7.112   4.486   4.862 -0.1727  0.4429 -0.2812
  957MOL0     C29126   7.140   4.360   4.921 -0.4478  0.0387 -0.7747
  957MOL0     C29127   7.151   4.228   4.836 -0.2550 -0.4859  0.5154
  957MOL0     H29128   7.150   3.948   5.176  1.4287  0.0659 -0.9217
  957MOL0     H29129   7.159   3.775   5.349 -0.3243  0.0567  0.0470
  957MOL0     H29130   6.996   3.668   5.534  0.4903  1.9829 -0.8371
  957MOL0     H29131   7.165   3.628   5.504  0.2799 -2.6102  1.3921
  957MOL0     H29132   7.082   3.471   5.669 -0.8127  0.4324 -0.7303
  957MOL0     H29133   7.034   3.616   5.762 -0.4477  0.6361 -1.2529
  957MOL0     H29134   7.253   3.671   5.818 -1.5384 -1.6374  1.5904
  957MOL0     H29135   7.331   3.592   5.680  0.1493 -0.5811  0.4683
  957MOL0     H29136   7.200   3.465   5.937 -2.3566 -0.3478 -2.2367
  957MOL0     H29137   7.263   3.384   5.801 -2.3499 -1.3669  2.2522
  957MOL0     H29138   7.495   3.499   5.863 -1.0723  1.4834 -0.1204
  957MOL0     H29139   7.404   3.556   6.003  1.4862  1.2947  0.1688
  957MOL0     H29140   7.334   3.324   6.055 -1.0401 -1.2821 -2.9924
  957MOL0     H29141   7.448   3.260   5.935 -1.6429 -1.3900  2.4604
  957MOL0     H29142   7.525   3.317   6.202  0.2391  2.3440  1.6633
  957MOL0     H29143   7.578   3.461   6.117  5.1713 -1.6488  0.7746
  957MOL0     H29144   7.654   3.196   5.992 -0.1839 -1.3068  3.2200
  957MOL0     H29145   7.722   3.344   5.958 -1.8181 -1.3175 -3.0391
  957MOL0     H29146   7.804   3.445   6.245 -1.2150 -0.4449  0.7379
  957MOL0     H29147   8.103   3.344   6.351 -0.9283 -5.5332 -3.9710
  957MOL0     H29148   7.968   3.442   6.404  2.4942  0.4587 -0.1984
  957MOL0     H29149   8.022   3.165   6.523 -0.9397 -0.4898  1.0678
  957MOL0     H29150   8.052   3.314   6.614  0.1566  0.0366  1.6090
  957MOL0     H29151   7.846   3.196   6.669  2.2940 -1.4844 -0.5681
  957MOL0     H29152   7.772   3.224   6.510 -0.2452  0.7236  0.3538
  957MOL0     H29153   7.792   3.480   6.544  1.9415  2.7082  2.3724
  957MOL0     H29154   7.855   3.453   6.700 -0.9450 -1.4547  2.0779
  957MOL0     H29155   7.483   3.508   6.820  1.6733  2.3394  0.2196
  957MOL0     H29156   7.253   3.595   6.745 -0.8362 -0.0425 -0.3517
  957MOL0     H29157   7.006   3.932   6.752 -1.2529 -1.8394 -0.1228
  957MOL0     H29158   6.856   4.142   6.693  0.5256 -0.1720  0.1892
  957MOL0     H29159   7.015   4.397   6.464  1.2672  0.1176 -1.0612
  957MOL0     H29160   7.009   4.297   6.318 -0.4576  1.1210 -1.3547
  957MOL0     H29161   6.781   4.482   6.390 -0.4834 -0.4514 -0.6605
  957MOL0     H29162   6.926   4.544   6.313  0.6439 -0.6141 -2.0948
  957MOL0     H29163   6.729   4.337   6.209  1.1970 -1.3497 -0.0617
  957MOL0     H29164   6.740   4.506   6.163 -0.3467 -0.0462  0.5811
  957MOL0     H29165   6.931   4.273   6.087  0.4454 -0.0680 -0.5607
  957MOL0     H29166   6.988   4.436   6.071  0.5687 -0.3302 -1.8545
  957MOL0     H29167   6.818   4.530   5.944  1.3848  0.7709 -3.9651
  957MOL0     H29168   6.729   4.383   5.957  1.5335 -0.3553 -0.1173
  957MOL0     H29169   7.008   4.435   5.832  0.1047 -0.3297 -1.1985
  957MOL0     H29170   6.934   4.267   5.828 -0.1375 -0.5975 -2.1908
  957MOL0     H29171   6.933   4.448   5.642  0.8981 -3.3014 -0.7723
  957MOL0     H29172   6.788   4.497   5.727  0.6831 -0.3680  0.2618
  957MOL0     H29173   6.716   4.364   5.531  0.9158  1.4395  0.1199
  957MOL0     H29174   6.818   4.226   5.596  2.1975  1.6702 -2.8462
  957MOL0     H29175   6.969   4.080   6.286 -1.4897  1.8166  0.6304
  957MOL0     H29176   7.083   3.876   6.334  2.8953 -2.4159  0.9399
  957MOL0     H29177   7.380   3.583   6.342  0.8796  0.1560  0.3120
  957MOL0     H29178   7.572   3.434   6.415  3.5030 -0.7158  2.1564
  957MOL0     H29179   7.061   4.044   5.663  0.2550  1.5417 -0.1533
  957MOL0     H29180   7.026   4.219   5.485  1.4176  1.3941 -2.3984
  957MOL0     H29181   7.164   4.459   5.243 -0.5394  0.5229  0.2333
  957MOL0     H29182   7.136   4.673   5.141  4.7951 -0.6392  1.4635
  957MOL0     H29183   7.100   4.696   4.672  2.9814 -2.0365 -0.9921
  957MOL0     H29184   7.247   4.671   4.726  0.2584  0.9661  0.5126
  957MOL0     H29185   7.279   4.923   4.781  0.0536  0.7075 -0.3185
  957MOL0     H29186   7.115   4.956   4.724  0.1511  0.9886 -0.5460
  957MOL0     H29187   7.147   4.928   4.521 -0.2574  1.3871  1.7172
  957MOL0     H29188   7.275   4.795   4.538 -0.5553 -0.1345  0.5835
  957MOL0     H29189   7.316   5.083   4.532 -0.7677 -0.5942 -1.5495
  957MOL0     H29190   7.433   4.976   4.610  1.4911  2.9884 -0.5561
  957MOL0     H29191   7.531   4.891   4.223 -1.1304 -0.5576 -1.0381
  957MOL0     H29192   7.107   4.495   4.754  0.9937  0.8025 -0.3150
  957MOL0     H29193   7.220   4.159   4.885  1.3624  1.0330  0.4509
  957MOL0     H29194   7.049   4.192   4.818 -0.2685 -0.1207 -0.1868
  957MOL0     H29195   7.190   4.249   4.736  2.3055  4.6204  2.2577
  958MOL0     O29196   6.635   8.228   7.383  1.1218  0.0463  0.5584
  958MOL0     C29197   6.613   8.126   7.320 -0.2809 -0.0873  0.5459
  958MOL0     O29198   6.609   7.996   7.376  1.0695  0.8524  0.3760
  958MOL0     C29199   6.627   7.988   7.510 -0.7001  1.0147 -0.0405
  958MOL0     C29200   6.752   7.987   7.560  0.4554 -0.5710  0.3903
  958MOL0     C29201   6.764   7.976   7.702 -0.1959 -1.1175  0.6298
  958MOL0     C29202   6.648   7.966   7.783  0.7578 -0.4155 -0.5867
  958MOL0     O29203   6.665   7.971   7.913  0.6634 -0.0441 -0.0509
  958MOL0     C29204   6.548   7.958   8.000  0.0953  0.0537 -0.1051
  958MOL0     C29205   6.574   7.967   8.153 -0.2029 -0.5352  0.2760
  958MOL0     C29206   6.702   8.043   8.195 -1.7254 -1.1080 -1.1612
  958MOL0     C29207   6.680   8.092   8.335 -0.0812 -0.3585  0.5108
  958MOL0     C29208   6.815   8.160   8.386  0.3280  0.6719  0.7751
  958MOL0     C29209   6.826   8.304   8.342  0.8769 -0.1141 -0.2942
  958MOL0     C29210   6.728   8.403   8.409 -0.0348 -0.1815 -0.0544
  958MOL0     C29211   6.785   8.551   8.380 -0.1443  0.4199 -0.7042
  958MOL0     N29212   6.730   8.655   8.480  0.0152 -0.4203 -0.5892
  958MOL0     C29213   6.723   8.787   8.456 -0.5283  1.2095  0.1877
  958MOL0     C29214   6.655   8.844   8.553 -0.2159 -0.0208  0.6128
  958MOL0     C29215   6.617   8.992   8.549 -0.6364 -0.5103  0.3940
  958MOL0     C29216   6.741   9.072   8.583  0.5180  0.6800  0.5874
  958MOL0     C29217   6.691   9.213   8.610 -0.4897 -0.8244 -0.3205
  958MOL0     C29218   6.805   9.294   8.638 -0.8714  0.8235  0.4200
  958MOL0     O29219   6.758   9.411   8.706  0.3990  0.0265  0.0185
  958MOL0     C29220   6.853   9.467   8.794  0.4210 -0.4287 -0.1276
  958MOL0     C29221   6.798   9.514   8.919  0.2026  0.2836 -0.2365
  958MOL0     C29222   6.871   9.579   9.017  0.0506 -0.0544 -0.1088
  958MOL0     C29223   7.015   9.596   9.013  0.2667  0.1477 -0.6453
  958MOL0     C29224   7.098   9.644   9.122  0.2465  0.4853  0.2216
  958MOL0     O29225   7.036   9.680   9.241 -0.4547 -0.5279  0.6522
  958MOL0     C29226   7.099   9.717   9.354 -0.1108 -0.2761 -0.1241
  958MOL0     C29227   7.135   9.619   9.456  0.3228 -0.3255  0.4858
  958MOL0     C29228   7.200   9.654   9.569 -0.7308 -0.2711 -0.3701
  958MOL0     C29229   7.226   9.789   9.599 -0.5206 -0.2182 -0.2546
  958MOL0     O29230   7.281   9.813   9.726 -0.6138  0.4956  0.3314
  958MOL0     C29231   7.331   9.946   9.763 -0.0528 -0.1566 -0.4311
  958MOL0     C29232   7.455   9.973   9.673  0.5693  0.5596 -1.3309
  958MOL0     C29233   7.493  10.119   9.667  0.5163 -0.1271 -0.3773
  958MOL0     C29234   7.622  10.130   9.598  0.2256 -0.1723 -0.8124
  958MOL0     C29235   7.660  10.282   9.559  0.5201  0.3499  0.3159
  958MOL0     C29236   7.617  10.338   9.413  0.5305 -0.3910 -0.1963
  958MOL0     C29237   7.678  10.249   9.312 -0.3628 -0.2988  0.0937
  958MOL0     C29238   7.829  10.237   9.323 -0.5570 -0.1661  0.2217
  958MOL0    Cl29239   7.884  10.126   9.198  0.0163 -0.1404  0.5050
  958MOL0     C29240   7.194   9.887   9.503  1.2004  0.6120  0.4061
  958MOL0     C29241   7.123   9.854   9.385  0.5081  0.1478  1.2889
  958MOL0     O29242   7.220   9.654   9.099 -1.3255 -0.1878  0.6285
  958MOL0     C29243   7.067   9.559   8.887 -0.3538 -0.3132 -0.6031
  958MOL0     C29244   6.987   9.497   8.790  0.0217  0.7549  0.3531
  958MOL0     N29245   6.615   8.751   8.642 -0.5108  0.4442  0.7759
  958MOL0     N29246   6.669   8.634   8.601  0.7745  0.0069  0.5820
  958MOL0     C29247   6.521   7.958   7.723 -0.6341 -1.0688 -0.8853
  958MOL0     C29248   6.514   7.973   7.585 -0.4593  0.3619  0.5443
  958MOL0     C29249   6.579   8.141   7.179 -0.3101 -0.3558 -0.2048
  958MOL0     C29250   6.481   8.050   7.140  0.7323 -0.1086  0.5866
  958MOL0     C29251   6.441   8.040   7.009  0.0263  0.2678  0.2292
  958MOL0     C29252   6.510   8.121   6.914  0.1879  0.2399 -0.4726
  958MOL0     O29253   6.468   8.121   6.783  0.0575  0.8071  0.2844
  958MOL0     C29254   6.525   8.023   6.688 -0.4512  0.2952 -0.3055
  958MOL0     C29255   6.400   7.984   6.600 -0.3649  0.1617  0.3273
  958MOL0     C29256   6.458   7.939   6.459  0.0392 -0.5905 -0.0053
  958MOL0     C29257   6.476   7.787   6.448 -0.0661 -0.0123  0.8442
  958MOL0     C29258   6.348   7.719   6.446 -0.1359 -0.0881 -0.4408
  958MOL0     C29259   6.250   7.653   6.452  0.2707  0.8504  0.1080
  958MOL0     C29260   6.601   8.216   6.955 -0.0706 -0.6708  0.1978
  958MOL0     C29261   6.633   8.238   7.090  0.2257  0.3215  0.3555
  958MOL0     C29262   6.735   8.343   7.133 -0.3733  0.1564  0.7519
  958MOL0     H29263   6.831   8.004   7.488 -0.8197  0.2446 -0.8714
  958MOL0     H29264   6.863   7.997   7.741  0.4304 -2.5808 -0.1059
  958MOL0     H29265   6.473   8.034   7.978  0.7169  0.8420  0.4424
  958MOL0     H29266   6.514   7.854   7.995  2.6653 -0.9455  1.3862
  958MOL0     H29267   6.580   7.866   8.194 -0.2401 -0.2490  1.0054
  958MOL0     H29268   6.482   8.008   8.195  0.7575  2.3806 -0.2039
  958MOL0     H29269   6.717   8.126   8.126  2.5739  0.1575  0.9663
  958MOL0     H29270   6.792   7.981   8.194 -0.6797  0.0730  2.9920
  958MOL0     H29271   6.587   8.149   8.343  0.3213  0.2532  0.9261
  958MOL0     H29272   6.653   8.009   8.401 -2.1229  0.3615  0.6450
  958MOL0     H29273   6.813   8.158   8.495  2.9831  1.1199  0.8995
  958MOL0     H29274   6.904   8.105   8.355 -0.0672  0.2863  0.3148
  958MOL0     H29275   6.925   8.343   8.367 -0.0010  2.3246 -0.3462
  958MOL0     H29276   6.816   8.316   8.234  0.5506 -2.4244 -0.5613
  958MOL0     H29277   6.726   8.394   8.518 -0.9605  1.0092  0.0492
  958MOL0     H29278   6.629   8.378   8.369 -1.0695 -1.6833  3.0935
  958MOL0     H29279   6.892   8.554   8.403 -0.0584  1.3233 -1.2057
  958MOL0     H29280   6.776   8.572   8.274  0.7275  0.6944 -0.7310
  958MOL0     H29281   6.764   8.830   8.365  1.4035 -0.6286  0.1192
  958MOL0     H29282   6.583   9.013   8.447 -2.1369  1.0465  1.1666
  958MOL0     H29283   6.539   9.018   8.621  0.0189  4.3561 -0.2889
  958MOL0     H29284   6.783   9.021   8.670  2.6625 -0.1551 -0.8249
  958MOL0     H29285   6.812   9.065   8.500 -1.2618 -0.0266 -0.9516
  958MOL0     H29286   6.624   9.228   8.696 -0.0571  1.6348 -0.3227
  958MOL0     H29287   6.627   9.251   8.531  0.1549  3.9658  1.1157
  958MOL0     H29288   6.871   9.311   8.552  0.7243  0.4759  1.5317
  958MOL0     H29289   6.866   9.223   8.695  1.9525  1.8285 -1.1118
  958MOL0     H29290   6.693   9.506   8.947  0.6539 -2.1203  1.0810
  958MOL0     H29291   6.807   9.610   9.099  0.7144 -0.0116  0.4083
  958MOL0     H29292   7.096   9.518   9.447 -2.5893  0.6315  1.0393
  958MOL0     H29293   7.237   9.570   9.627  1.0581  0.6223 -0.1390
  958MOL0     H29294   7.256  10.024   9.778 -1.2132 -1.6290  2.3779
  958MOL0     H29295   7.371   9.932   9.864  1.5244  0.1238 -1.0052
  958MOL0     H29296   7.545   9.929   9.716  1.4421  2.5741 -0.9769
  958MOL0     H29297   7.449   9.929   9.573  0.4030  0.6734 -1.3718
  958MOL0     H29298   7.412  10.167   9.612  1.9987  2.5369 -0.4155
  958MOL0     H29299   7.498  10.162   9.768  1.9708  1.2323 -0.9741
  958MOL0     H29300   7.622  10.059   9.515 -1.2592 -1.7324  0.4482
  958MOL0     H29301   7.705  10.104   9.664 -0.8233  2.5179  1.8379
  958MOL0     H29302   7.769  10.298   9.566  0.5003  0.5720  0.1571
  958MOL0     H29303   7.605  10.347   9.628 -0.6259  2.8091 -2.6802
  958MOL0     H29304   7.509  10.321   9.408  0.7260 -2.6640  1.2945
  958MOL0     H29305   7.641  10.444   9.402 -1.4018  0.3001  1.5823
  958MOL0     H29306   7.654  10.286   9.212 -0.5846  4.0916  1.5535
  958MOL0     H29307   7.632  10.151   9.325 -0.8395 -0.1783 -0.6185
  958MOL0     H29308   7.881  10.333   9.318  1.4851 -1.2166  0.0234
  958MOL0     H29309   7.860  10.200   9.421  2.3334  4.2721  1.2716
  958MOL0     H29310   7.202   9.992   9.528  0.0778  0.4513  1.5824
  958MOL0     H29311   7.079   9.929   9.319 -1.8164 -2.5493 -0.4939
  958MOL0     H29312   7.171   9.570   8.858  0.2231  0.7568  1.6122
  958MOL0     H29313   7.020   9.478   8.688 -3.3468  3.5275 -1.4663
  958MOL0     H29314   6.431   7.948   7.784 -0.4641 -0.8074 -0.5921
  958MOL0     H29315   6.416   7.967   7.538  0.0898 -1.3473 -0.4586
  958MOL0     H29316   6.429   7.989   7.213 -1.0948  0.6918  0.0118
  958MOL0     H29317   6.363   7.971   6.977  0.9619 -0.2732 -0.9410
  958MOL0     H29318   6.578   7.932   6.716  1.1227 -1.0503 -6.2630
  958MOL0     H29319   6.598   8.083   6.632  0.3747 -1.6024 -1.3369
  958MOL0     H29320   6.346   8.074   6.570 -1.4680 -0.5606  0.0869
  958MOL0     H29321   6.342   7.906   6.649 -1.4227  0.2639 -0.7099
  958MOL0     H29322   6.546   7.993   6.425 -1.4992  0.8826 -1.8826
  958MOL0     H29323   6.389   7.957   6.375  0.7340  1.1420 -0.2481
  958MOL0     H29324   6.538   7.758   6.363  0.3834  3.2456 -0.1112
  958MOL0     H29325   6.540   7.763   6.533  2.1589  2.8617  0.1511
  958MOL0     H29326   6.160   7.595   6.453  1.1460 -0.5565 -0.0809
  958MOL0     H29327   6.647   8.276   6.877  2.0678  0.7301  2.4098
  958MOL0     H29328   6.707   8.403   7.219  3.4987  0.1067  2.2579
  958MOL0     H29329   6.826   8.282   7.139 -0.4880 -0.1208 -0.1196
  958MOL0     H29330   6.755   8.409   7.048 -0.1325 -0.6400  0.1736
  959MOL0     O29331   9.595   3.848   4.507  0.8333 -0.4914  0.3658
  959MOL0     C29332   9.714   3.843   4.494 -0.5208  0.2244  0.4643
  959MOL0     O29333   9.784   3.831   4.377 -0.3329  0.4865 -0.0545
  959MOL0     C29334   9.715   3.833   4.262 -0.2570  0.0812 -0.0772
  959MOL0     C29335   9.707   3.951   4.193 -0.0415  0.1205 -0.2462
  959MOL0     C29336   9.628   3.957   4.074 -0.0541  0.2953  0.0594
  959MOL0     C29337   9.538   3.857   4.039  0.2032  0.6770  0.4816
  959MOL0     O29338   9.451   3.849   3.940 -0.1993  0.3150 -0.3432
  959MOL0     C29339   9.377   3.962   3.917 -0.2590 -1.3477  1.0822
  959MOL0     C29340   9.231   3.924   3.883 -1.1917 -0.0143 -0.8302
  959MOL0     C29341   9.174   4.012   3.779  0.1187 -0.1836 -0.0753
  959MOL0     C29342   9.027   4.012   3.757 -0.4978  0.5157 -0.4797
  959MOL0     C29343   8.993   4.121   3.653 -0.6723  0.5631 -0.0551
  959MOL0     C29344   8.843   4.136   3.621 -0.0134  0.1192 -0.2479
  959MOL0     C29345   8.798   4.254   3.534  0.5614 -0.4429 -0.1628
  959MOL0     C29346   8.813   4.383   3.604  0.3749 -0.5075 -0.5747
  959MOL0     N29347   8.804   4.499   3.507 -0.2949 -0.0402  0.2864
  959MOL0     C29348   8.691   4.532   3.428  0.1390 -0.6227 -0.6982
  959MOL0     C29349   8.742   4.599   3.325 -0.0971 -0.7924  0.5597
  959MOL0     C29350   8.662   4.668   3.210 -0.0873  0.0518 -0.3281
  959MOL0     C29351   8.720   4.669   3.064  0.7333 -0.1935 -0.1472
  959MOL0     C29352   8.635   4.776   2.978 -0.7725  0.1805 -0.3135
  959MOL0     C29353   8.688   4.793   2.841  0.3241  0.3594  0.5616
  959MOL0     O29354   8.810   4.865   2.843 -0.2088  0.1620 -0.5137
  959MOL0     C29355   8.815   4.999   2.817 -0.3332  0.4602  0.0415
  959MOL0     C29356   8.799   5.057   2.687 -0.5380 -0.8896 -0.0266
  959MOL0     C29357   8.821   5.193   2.672 -0.3143 -0.7201 -0.6432
  959MOL0     C29358   8.867   5.277   2.781  0.2791  0.0458 -0.7191
  959MOL0     C29359   8.896   5.417   2.767  0.0006 -0.2240 -0.6741
  959MOL0     O29360   8.904   5.467   2.639 -0.5164  0.2017  0.1528
  959MOL0     C29361   8.938   5.597   2.631 -0.1063 -0.1893 -0.7621
  959MOL0     C29362   8.837   5.687   2.585 -1.3559  0.6972 -0.2616
  959MOL0     C29363   8.871   5.821   2.582  0.0152  0.2520  0.1310
  959MOL0     C29364   9.004   5.860   2.613  0.2991  0.0103 -0.1046
  959MOL0     O29365   9.058   5.990   2.598 -0.7330  0.1668 -0.4505
  959MOL0     C29366   8.962   6.101   2.598  0.2715  1.5180  0.1596
  959MOL0     C29367   8.927   6.161   2.470 -0.0117  0.4778  0.5912
  959MOL0     C29368   8.815   6.266   2.465  0.3127  0.4650  0.5668
  959MOL0     C29369   8.815   6.371   2.583 -1.8832  0.4366  0.0180
  959MOL0     C29370   8.691   6.455   2.598  0.0211 -0.7580 -0.5201
  959MOL0     C29371   8.653   6.558   2.487  0.3034 -0.0421 -1.0108
  959MOL0     C29372   8.505   6.612   2.497  0.6222  0.2164 -0.6561
  959MOL0     C29373   8.472   6.676   2.629  0.3494 -0.4528 -1.1769
  959MOL0    Cl29374   8.568   6.816   2.658 -0.2060  0.0871  0.1269
  959MOL0     C29375   9.105   5.768   2.638  0.6333 -0.3650  0.5567
  959MOL0     C29376   9.072   5.633   2.639  0.5541  0.0156  0.1108
  959MOL0     O29377   8.935   5.472   2.867  0.3935 -0.6939 -0.4135
  959MOL0     C29378   8.868   5.213   2.903 -0.6701  0.8339 -0.3888
  959MOL0     C29379   8.856   5.076   2.916 -0.5685  0.6465 -0.2689
  959MOL0     N29380   8.881   4.615   3.344 -0.2175 -0.2831 -0.6599
  959MOL0     N29381   8.917   4.557   3.451  0.8505  0.4946 -0.0186
  959MOL0     C29382   9.555   3.734   4.104  0.4273  0.4991 -0.1151
  959MOL0     C29383   9.638   3.726   4.213  0.4580 -0.9249 -0.0261
  959MOL0     C29384   9.800   3.847   4.612  0.1315  0.1926 -0.3363
  959MOL0     C29385   9.747   3.905   4.735 -0.0973 -0.0765 -0.5360
  959MOL0     C29386   9.836   3.920   4.842  0.6089  0.1581  0.1098
  959MOL0     C29387   9.962   3.861   4.847  0.3064 -0.0015  0.0582
  959MOL0     O29388  10.038   3.865   4.963 -0.6601 -0.0372 -0.7051
  959MOL0     C29389   9.958   3.837   5.081  0.3621  0.1463  0.4856
  959MOL0     C29390  10.050   3.770   5.179 -0.6666 -0.5650  0.5643
  959MOL0     C29391  10.141   3.877   5.248 -0.3658  0.1019  0.0538
  959MOL0     C29392  10.257   3.809   5.321  0.0774 -0.5349 -0.7741
  959MOL0     C29393  10.338   3.902   5.395  0.0639 -0.2041 -0.4058
  959MOL0     C29394  10.384   3.993   5.462 -0.4642 -0.3145  0.0688
  959MOL0     C29395  10.006   3.792   4.730  0.2440  0.0340  0.3760
  959MOL0     C29396   9.929   3.785   4.617 -0.1303 -0.3627  0.2263
  959MOL0     C29397  10.009   3.713   4.504  0.6763  0.1408  0.7998
  959MOL0     H29398   9.760   4.042   4.221 -1.7994  0.7596  1.1664
  959MOL0     H29399   9.639   4.047   4.014 -0.2623 -0.4680 -1.1409
  959MOL0     H29400   9.377   4.020   4.010 -0.3737 -0.0151  0.2846
  959MOL0     H29401   9.418   4.019   3.833 -0.1659 -2.8617  0.0500
  959MOL0     H29402   9.184   3.925   3.982  1.7920  1.9142  0.7025
  959MOL0     H29403   9.232   3.821   3.845  1.9464  0.1019 -1.3431
  959MOL0     H29404   9.220   3.984   3.684  1.2905 -1.3397  0.7910
  959MOL0     H29405   9.203   4.113   3.808  0.2156 -0.6630  1.6076
  959MOL0     H29406   8.992   3.915   3.722  5.2025 -2.2289  0.2294
  959MOL0     H29407   8.977   4.045   3.848  0.0316  0.6962 -0.2490
  959MOL0     H29408   9.029   4.214   3.698 -1.6738  1.4087 -0.9615
  959MOL0     H29409   9.046   4.116   3.558 -1.3410  0.1360 -0.4106
  959MOL0     H29410   8.801   4.054   3.561  0.3137 -0.5303  0.4043
  959MOL0     H29411   8.787   4.143   3.714 -1.0164  0.0346 -0.8259
  959MOL0     H29412   8.699   4.244   3.489  0.9397  0.1333 -1.1560
  959MOL0     H29413   8.873   4.266   3.455  0.4732  0.2089 -0.1471
  959MOL0     H29414   8.739   4.396   3.683  0.2060 -2.9353 -0.2707
  959MOL0     H29415   8.912   4.383   3.649  0.0447 -1.7946  0.2009
  959MOL0     H29416   8.592   4.489   3.419  1.6033 -4.4336 -0.6953
  959MOL0     H29417   8.562   4.627   3.217 -0.6777  1.1675 -1.7069
  959MOL0     H29418   8.651   4.774   3.236 -1.8531 -0.4715  1.3231
  959MOL0     H29419   8.821   4.707   3.081 -0.3439  2.4651  0.7266
  959MOL0     H29420   8.723   4.570   3.016  0.7594  0.2830 -1.1598
  959MOL0     H29421   8.623   4.868   3.035  1.1482  0.0376  0.3978
  959MOL0     H29422   8.533   4.738   2.972 -1.3552  1.2048  1.8705
  959MOL0     H29423   8.612   4.842   2.779  0.0113 -2.4525 -1.4501
  959MOL0     H29424   8.702   4.697   2.790  3.0691  2.1324 -2.3964
  959MOL0     H29425   8.783   4.990   2.603  0.3259 -0.4962 -0.5188
  959MOL0     H29426   8.805   5.225   2.570  0.1676  1.0609 -0.2006
  959MOL0     H29427   8.747   5.638   2.550  0.4850 -1.8248 -1.8169
  959MOL0     H29428   8.794   5.887   2.545  1.3614  0.4460 -2.6039
  959MOL0     H29429   8.870   6.067   2.645  1.7994  1.0894  3.0996
  959MOL0     H29430   9.005   6.181   2.659  2.0389  3.3698 -3.2246
  959MOL0     H29431   9.017   6.206   2.428  1.3706 -2.6613 -0.1334
  959MOL0     H29432   8.892   6.083   2.401 -1.4205 -0.0046  1.7964
  959MOL0     H29433   8.820   6.316   2.368 -0.9544 -1.1696 -0.4093
  959MOL0     H29434   8.732   6.195   2.472  2.3894 -1.9342  3.8433
  959MOL0     H29435   8.894   6.445   2.567  0.4444 -2.0029 -0.4348
  959MOL0     H29436   8.825   6.312   2.675 -3.5617 -2.2391 -1.3889
  959MOL0     H29437   8.699   6.518   2.687  0.7623 -0.5426 -0.7278
  959MOL0     H29438   8.609   6.391   2.631 -1.0941  0.5369 -0.6948
  959MOL0     H29439   8.721   6.643   2.488 -2.7053  2.5842  0.6988
  959MOL0     H29440   8.662   6.503   2.394 -1.3508 -2.3950  0.1056
  959MOL0     H29441   8.444   6.522   2.487  1.4313 -0.6023  1.2795
  959MOL0     H29442   8.490   6.683   2.415  0.6566  1.0371  0.0364
  959MOL0     H29443   8.369   6.709   2.623 -0.7454 -2.8661  1.7011
  959MOL0     H29444   8.482   6.598   2.705 -2.7272 -0.3592 -0.5681
  959MOL0     H29445   9.209   5.797   2.650  0.9755  0.2089 -2.7901
  959MOL0     H29446   9.138   5.550   2.660  0.9995  0.3066 -0.1386
  959MOL0     H29447   8.914   5.265   2.987  1.3929 -0.2085 -0.8157
  959MOL0     H29448   8.866   5.033   3.015 -0.6794  0.1802 -0.4558
  959MOL0     H29449   9.508   3.642   4.071 -2.6062  2.5512 -1.9743
  959MOL0     H29450   9.644   3.632   4.266 -0.2410  0.4258  2.5787
  959MOL0     H29451   9.657   3.963   4.716  0.5327  1.7597  1.6254
  959MOL0     H29452   9.791   3.985   4.917 -1.0790 -0.2492 -0.5060
  959MOL0     H29453   9.885   3.762   5.051  0.9804  0.1579 -1.1113
  959MOL0     H29454   9.914   3.929   5.122 -0.2574 -0.4670  1.2177
  959MOL0     H29455  10.108   3.694   5.125 -0.7437 -0.6448  0.5934
  959MOL0     H29456  10.004   3.716   5.262  2.3226  0.0133  2.7761
  959MOL0     H29457  10.085   3.931   5.325  1.0862 -0.4867  1.5880
  959MOL0     H29458  10.171   3.941   5.165 -1.2198  3.1806  1.9590
  959MOL0     H29459  10.222   3.738   5.397 -0.5318 -0.0901 -0.6276
  959MOL0     H29460  10.318   3.752   5.251  0.1330 -1.5124  0.0409
  959MOL0     H29461  10.422   4.076   5.518 -0.2840  0.6941 -1.4797
  959MOL0     H29462  10.109   3.758   4.742 -0.0423  0.0564  4.0308
  959MOL0     H29463  10.028   3.785   4.423  0.3383 -1.3459 -0.6460
  959MOL0     H29464  10.103   3.672   4.543  1.1457 -0.2743 -0.6972
  959MOL0     H29465   9.950   3.633   4.459  3.1630 -1.7786  0.7463
  960MOL0     O29466   6.899   1.949  10.039  0.3694 -0.6526  0.0487
  960MOL0     C29467   6.991   1.872  10.066  0.6898  0.1746  0.5620
  960MOL0     O29468   7.051   1.785   9.985  0.4242 -0.0237  0.4708
  960MOL0     C29469   6.992   1.760   9.857 -0.3227 -0.0322  0.2441
  960MOL0     C29470   6.933   1.635   9.835 -0.5377  0.0322 -0.2533
  960MOL0     C29471   6.883   1.609   9.712  0.5270  0.7538 -0.7927
  960MOL0     C29472   6.889   1.696   9.605  1.2995 -0.3912 -0.0199
  960MOL0     O29473   6.856   1.653   9.485 -0.3843  0.1987  0.6980
  960MOL0     C29474   6.835   1.751   9.396 -0.7959 -0.0301  0.5534
  960MOL0     C29475   6.754   1.714   9.268 -0.3125  0.1114 -0.0502
  960MOL0     C29476   6.804   1.599   9.185 -1.0154 -0.6017  0.0432
  960MOL0     C29477   6.808   1.620   9.026 -0.0405 -0.2003  0.4809
  960MOL0     C29478   6.895   1.516   8.957  0.7934 -0.1482 -1.0743
  960MOL0     C29479   6.949   1.577   8.836 -0.0139 -0.1020 -0.0124
  960MOL0     C29480   7.013   1.472   8.743  0.5130 -0.4333 -0.1639
  960MOL0     C29481   7.114   1.538   8.648 -0.1986 -0.7955 -0.0355
  960MOL0     N29482   7.213   1.435   8.603  0.5461 -0.9441  0.0485
  960MOL0     C29483   7.292   1.352   8.680  0.8216 -0.2075  0.8036
  960MOL0     C29484   7.384   1.299   8.593  0.1259 -0.2614  0.3926
  960MOL0     C29485   7.498   1.205   8.649 -0.6447 -0.5173 -0.2709
  960MOL0     C29486   7.596   1.180   8.538  0.9739  1.1004  0.0890
  960MOL0     C29487   7.680   1.301   8.495  1.2379  0.2727 -0.5017
  960MOL0     C29488   7.735   1.273   8.357  0.1804 -0.4788 -0.5706
  960MOL0     O29489   7.765   1.404   8.304  0.4438  0.4587 -0.5462
  960MOL0     C29490   7.889   1.447   8.288  0.7477  0.2295 -0.0184
  960MOL0     C29491   7.894   1.586   8.258 -0.5773 -0.3131  0.4169
  960MOL0     C29492   8.014   1.658   8.229  0.6059  0.7002  0.0016
  960MOL0     C29493   8.132   1.592   8.241 -0.9738  0.7511  0.5290
  960MOL0     C29494   8.265   1.666   8.231  0.2910  1.0322 -0.7254
  960MOL0     O29495   8.248   1.802   8.215  1.0231 -0.1891 -0.3013
  960MOL0     C29496   8.353   1.888   8.212  0.6630  0.6179  0.8217
  960MOL0     C29497   8.370   1.997   8.121 -0.0457 -0.3621  0.2695
  960MOL0     C29498   8.481   2.084   8.137 -0.0695  0.7946  1.2244
  960MOL0     C29499   8.577   2.062   8.233  0.2425  0.3119  0.3041
  960MOL0     O29500   8.690   2.127   8.257 -0.0784  0.0221 -0.7186
  960MOL0     C29501   8.732   2.234   8.173  0.5951  0.0662  0.5887
  960MOL0     C29502   8.843   2.312   8.232  0.7493  0.9466 -0.0584
  960MOL0     C29503   8.852   2.452   8.158 -0.6709 -0.1637  0.1597
  960MOL0     C29504   8.959   2.549   8.214 -0.6359 -0.2775 -0.1237
  960MOL0     C29505   8.954   2.580   8.364  0.0942  0.2007 -0.3238
  960MOL0     C29506   9.056   2.696   8.399 -0.3083 -0.1196 -0.3985
  960MOL0     C29507   9.201   2.667   8.388  0.6268  0.2302 -0.3920
  960MOL0     C29508   9.295   2.772   8.454 -0.5687  0.7007  0.7113
  960MOL0    Cl29509   9.474   2.721   8.404  0.2224  0.0104  0.2301
  960MOL0     C29510   8.556   1.957   8.325  0.1147  0.2691 -0.9093
  960MOL0     C29511   8.445   1.889   8.319  0.2051  1.1285 -0.2845
  960MOL0     O29512   8.369   1.602   8.211  0.5242 -0.0365 -0.2557
  960MOL0     C29513   8.129   1.461   8.285 -0.2706 -0.7208  0.2156
  960MOL0     C29514   8.009   1.395   8.319  0.4382 -0.7084  0.2248
  960MOL0     N29515   7.358   1.348   8.464 -0.5551  0.1059 -0.7264
  960MOL0     N29516   7.262   1.429   8.468  0.3279 -0.8066 -0.1469
  960MOL0     C29517   6.936   1.832   9.635 -0.2711  0.6378  0.1271
  960MOL0     C29518   6.980   1.860   9.764 -0.3329  0.1281  0.5140
  960MOL0     C29519   7.034   1.882  10.198  0.4303  0.0536  0.2453
  960MOL0     C29520   7.105   2.000  10.239 -0.5230  0.4448 -0.5249
  960MOL0     C29521   7.142   2.019  10.377  1.2061 -1.0245 -0.0074
  960MOL0     C29522   7.127   1.922  10.479  0.5734 -1.0187  0.1563
  960MOL0     O29523   7.177   1.959  10.602  0.4476  0.4227 -0.1351
  960MOL0     C29524   7.110   1.906  10.717  0.2247  0.3391 -0.7865
  960MOL0     C29525   7.170   1.951  10.850  0.3834 -0.2682  0.9491
  960MOL0     C29526   7.137   2.103  10.882 -0.0728  0.4990 -0.8243
  960MOL0     C29527   7.185   2.140  11.030  0.6951  0.2475  0.8439
  960MOL0     C29528   7.123   2.267  11.071  0.0340 -0.4879  0.1863
  960MOL0     C29529   7.070   2.365  11.119  0.0189  0.2893  0.0280
  960MOL0     C29530   7.069   1.809  10.439  0.0041  0.9660  0.6988
  960MOL0     C29531   7.024   1.778  10.299 -0.2363 -0.2109 -0.4981
  960MOL0     C29532   6.982   1.645  10.258 -0.3241 -0.1532  0.1845
  960MOL0     H29533   6.930   1.559   9.913  3.4441 -0.5078 -0.4435
  960MOL0     H29534   6.850   1.506   9.703 -1.9435  1.3955  0.2012
  960MOL0     H29535   6.792   1.843   9.438 -0.2115  0.5865 -0.1779
  960MOL0     H29536   6.939   1.770   9.370 -0.9125  2.4540  1.5880
  960MOL0     H29537   6.737   1.806   9.212  0.7525  1.8505  2.3030
  960MOL0     H29538   6.649   1.709   9.297 -0.2446  1.9832  0.6594
  960MOL0     H29539   6.754   1.504   9.206  0.6592 -1.9993 -1.8739
  960MOL0     H29540   6.907   1.584   9.217 -1.8824 -1.0301  2.9150
  960MOL0     H29541   6.701   1.613   9.003 -0.8722  0.7241  3.5636
  960MOL0     H29542   6.832   1.719   8.988 -0.5791  0.9219  2.8378
  960MOL0     H29543   6.976   1.473   9.016  0.6334 -1.5878 -1.8646
  960MOL0     H29544   6.824   1.435   8.940  0.6538 -0.0260 -1.0771
  960MOL0     H29545   6.880   1.636   8.775  1.1092 -0.9539 -2.2237
  960MOL0     H29546   7.027   1.648   8.865 -2.6607  2.0849  2.1931
  960MOL0     H29547   6.941   1.416   8.683 -0.6536  0.9506 -0.1278
  960MOL0     H29548   7.064   1.398   8.805 -1.2251 -0.6196  1.1264
  960MOL0     H29549   7.068   1.590   8.563 -0.4613  0.4664  0.8505
  960MOL0     H29550   7.173   1.618   8.692  1.4520  0.3724 -3.8864
  960MOL0     H29551   7.290   1.347   8.789  1.1855 -1.7008  0.7610
  960MOL0     H29552   7.549   1.269   8.721  3.0234 -1.9407 -1.3969
  960MOL0     H29553   7.465   1.114   8.700 -1.2941 -1.1810 -1.7955
  960MOL0     H29554   7.666   1.099   8.562  1.3831  1.5667  0.5166
  960MOL0     H29555   7.541   1.156   8.447  0.5794  3.8681 -0.4953
  960MOL0     H29556   7.761   1.314   8.567 -1.8930 -2.2970  4.0068
  960MOL0     H29557   7.621   1.393   8.491  0.9785  0.0952 -0.8233
  960MOL0     H29558   7.650   1.235   8.300 -1.3003  1.3535  0.3182
  960MOL0     H29559   7.812   1.195   8.363  2.0885  1.4095  2.1001
  960MOL0     H29560   7.804   1.642   8.237 -0.2619  0.3694  0.8647
  960MOL0     H29561   8.006   1.761   8.196 -0.1966  1.7814  3.1980
  960MOL0     H29562   8.301   2.035   8.046  0.4581 -2.9692 -1.6558
  960MOL0     H29563   8.478   2.152   8.053  1.4523 -2.5852 -1.8373
  960MOL0     H29564   8.762   2.193   8.076 -2.0792  1.4782 -0.9666
  960MOL0     H29565   8.643   2.294   8.151  1.3571  0.3834 -1.9614
  960MOL0     H29566   8.806   2.325   8.334  1.5429  0.1873  0.3394
  960MOL0     H29567   8.934   2.253   8.221  0.0859 -0.3284  1.0115
  960MOL0     H29568   8.868   2.432   8.052  0.7462  0.0904  0.3105
  960MOL0     H29569   8.757   2.503   8.179 -0.7648 -0.1896 -0.1955
  960MOL0     H29570   8.967   2.647   8.165  1.3295  0.2667  1.1667
  960MOL0     H29571   9.058   2.503   8.203  0.1557  1.8817 -3.7503
  960MOL0     H29572   8.967   2.493   8.429  3.5940  1.0449  0.2983
  960MOL0     H29573   8.851   2.617   8.375  0.6887  1.5026  1.1956
  960MOL0     H29574   9.051   2.776   8.325  0.4150 -0.2857 -0.6379
  960MOL0     H29575   9.041   2.730   8.502  3.5350 -2.2406  1.0797
  960MOL0     H29576   9.216   2.653   8.280  0.8290 -0.0015 -0.3351
  960MOL0     H29577   9.210   2.571   8.439 -2.0548 -0.6616 -1.3995
  960MOL0     H29578   9.269   2.871   8.417 -0.7457  0.2699 -0.3558
  960MOL0     H29579   9.278   2.773   8.562 -0.5807  0.2822  0.7172
  960MOL0     H29580   8.632   1.949   8.402  0.7524  1.3395 -1.4005
  960MOL0     H29581   8.431   1.816   8.399  0.3971  2.1664  0.7277
  960MOL0     H29582   8.226   1.412   8.296 -0.3761 -1.6353 -2.2273
  960MOL0     H29583   8.013   1.298   8.367 -2.1080 -0.0921  1.8449
  960MOL0     H29584   6.946   1.910   9.560  4.2205  3.0275  2.8126
  960MOL0     H29585   7.020   1.954   9.799  1.5697 -0.2086 -0.6070
  960MOL0     H29586   7.107   2.076  10.163  0.5179  1.0803  0.1248
  960MOL0     H29587   7.186   2.116  10.398 -0.9436  0.1186 -0.5393
  960MOL0     H29588   7.119   1.797  10.710  1.6592  0.2520  1.4394
  960MOL0     H29589   7.007   1.945  10.715  0.7122  1.7717  0.2820
  960MOL0     H29590   7.279   1.950  10.837  0.2402  0.8841 -0.6704
  960MOL0     H29591   7.131   1.893  10.934 -3.7183 -1.2585 -1.3781
  960MOL0     H29592   7.031   2.127  10.877 -0.2617 -0.1395  0.0742
  960MOL0     H29593   7.199   2.165  10.816  1.7485  1.3258  1.5410
  960MOL0     H29594   7.149   2.063  11.099  0.0142  0.9467  1.2844
  960MOL0     H29595   7.294   2.144  11.035  0.7450  1.0193 -0.4639
  960MOL0     H29596   7.044   2.463  11.153 -0.3575  0.5293 -0.9289
  960MOL0     H29597   7.056   1.720  10.501  1.0770  0.2755 -0.0420
  960MOL0     H29598   6.976   1.570  10.337  3.0516 -1.6999 -0.8375
  960MOL0     H29599   6.890   1.669  10.204  0.0711  1.2001  0.0620
  960MOL0     H29600   7.054   1.617  10.180  1.2603  0.3744  1.3974
  961MOL0     O29601   3.331   1.408   1.562 -0.5365  1.9986  0.8088
  961MOL0     C29602   3.290   1.412   1.450  0.3498  0.5411  0.0716
  961MOL0     O29603   3.314   1.316   1.350  0.7536 -0.2917 -1.0916
  961MOL0     C29604   3.395   1.214   1.395  1.0913  0.7186 -0.3934
  961MOL0     C29605   3.531   1.210   1.372  0.3899 -0.3490 -0.8832
  961MOL0     C29606   3.602   1.101   1.411 -0.2622  0.1702  0.0662
  961MOL0     C29607   3.550   0.985   1.474  0.6317 -0.7545 -0.0926
  961MOL0     O29608   3.615   0.879   1.521 -0.0314  0.0205  0.2469
  961MOL0     C29609   3.746   0.837   1.462  0.5255 -0.5235 -1.0096
  961MOL0     C29610   3.732   0.797   1.318 -0.0440 -0.9272 -0.3926
  961MOL0     C29611   3.662   0.665   1.276 -0.5126  0.1006 -0.2232
  961MOL0     C29612   3.669   0.651   1.121 -0.5690 -1.6408  0.0801
  961MOL0     C29613   3.614   0.522   1.089  0.9486 -0.6088 -0.4921
  961MOL0     C29614   3.465   0.520   1.122  0.2684  0.1140 -0.3223
  961MOL0     C29615   3.395   0.400   1.054  0.2518  0.3765 -0.1849
  961MOL0     C29616   3.430   0.272   1.120  0.0154  0.1735  0.0865
  961MOL0     N29617   3.369   0.158   1.052  0.0209  1.0853  0.1232
  961MOL0     C29618   3.419   0.103   0.931  0.1150 -0.3759  0.6064
  961MOL0     C29619   3.325   0.005   0.895 -0.4567 -0.8928  0.1526
  961MOL0     C29620   3.317  -0.080   0.771 -0.3561  0.0428 -0.2355
  961MOL0     C29621   3.440  -0.066   0.685 -0.3942  0.8766 -0.2017
  961MOL0     C29622   3.455  -0.158   0.569 -0.2615  0.0812 -1.5077
  961MOL0     C29623   3.348  -0.169   0.464 -0.3715 -0.0618  0.1822
  961MOL0     O29624   3.325  -0.050   0.392 -0.7162 -1.1337 -0.2033
  961MOL0     C29625   3.384  -0.026   0.269  0.4080 -0.1654 -1.2632
  961MOL0     C29626   3.491  -0.093   0.212  0.1415 -0.2886 -0.9184
  961MOL0     C29627   3.540  -0.053   0.084 -0.3772 -0.6047  0.1167
  961MOL0     C29628   3.474   0.050   0.012  0.0951  0.6938 -0.5153
  961MOL0     C29629   3.514   0.095  -0.126  0.8950  0.7304  0.3652
  961MOL0     O29630   3.434   0.191  -0.193 -0.7512 -0.7264 -0.3431
  961MOL0     C29631   3.443   0.207  -0.329 -0.2218 -0.2408 -0.4743
  961MOL0     C29632   3.390   0.110  -0.413 -0.3193  0.1218  0.3276
  961MOL0     C29633   3.407   0.118  -0.549 -0.6717 -0.4827 -0.0551
  961MOL0     C29634   3.468   0.230  -0.603 -0.2986 -1.0807  1.3362
  961MOL0     O29635   3.468   0.235  -0.743 -0.4214 -0.3244 -0.2416
  961MOL0     C29636   3.433   0.366  -0.795  0.2418 -1.4464 -1.2510
  961MOL0     C29637   3.369   0.346  -0.926  0.0545 -0.0898  0.3537
  961MOL0     C29638   3.404   0.454  -1.020 -0.5649  0.1496 -0.3979
  961MOL0     C29639   3.336   0.452  -1.153 -0.5607 -0.5828 -1.0352
  961MOL0     C29640   3.394   0.553  -1.252 -0.1441  0.7480  0.2597
  961MOL0     C29641   3.326   0.527  -1.385 -1.1956  0.0308 -0.4031
  961MOL0     C29642   3.394   0.599  -1.510 -0.0937  0.5899  0.2923
  961MOL0     C29643   3.414   0.740  -1.481  0.1752 -0.2985 -0.2626
  961MOL0    Cl29644   3.539   0.790  -1.606 -0.0225  0.2272  0.0319
  961MOL0     C29645   3.526   0.325  -0.516  0.0670  0.0027 -0.1505
  961MOL0     C29646   3.514   0.310  -0.378  0.5315 -0.6049 -0.3440
  961MOL0     O29647   3.603   0.030  -0.182 -0.0955 -0.2556  0.3058
  961MOL0     C29648   3.364   0.114   0.076 -1.4035 -0.0683 -0.1888
  961MOL0     C29649   3.321   0.080   0.207 -0.8079 -0.1790  1.0547
  961MOL0     N29650   3.223   0.010   0.994  0.9957 -0.3921 -0.1839
  961MOL0     N29651   3.250   0.096   1.083 -0.3110 -0.3613 -0.2011
  961MOL0     C29652   3.409   0.993   1.493  0.4385  0.8483  0.1260
  961MOL0     C29653   3.333   1.104   1.452 -0.4493 -0.4029  0.3111
  961MOL0     C29654   3.202   1.521   1.408  0.5136  1.0638  0.1979
  961MOL0     C29655   3.205   1.558   1.273 -0.6651  0.1259  0.2898
  961MOL0     C29656   3.148   1.680   1.233  0.7827 -0.5020 -0.2888
  961MOL0     C29657   3.077   1.759   1.324 -0.6383  0.8930 -0.8683
  961MOL0     O29658   3.029   1.879   1.270 -0.1951  0.1273  0.9068
  961MOL0     C29659   2.994   1.979   1.360 -0.3640 -0.7612 -0.0565
  961MOL0     C29660   3.065   2.109   1.321 -0.9097  0.0873 -1.4634
  961MOL0     C29661   3.206   2.090   1.275  0.2564 -0.0454 -0.2690
  961MOL0     C29662   3.306   2.199   1.258  0.6381  0.0469 -0.0963
  961MOL0     C29663   3.348   2.260   1.380 -0.1341 -0.5918  0.2888
  961MOL0     C29664   3.366   2.315   1.488  0.4712 -0.2297 -0.5860
  961MOL0     C29665   3.062   1.715   1.462  0.0363  0.2469  1.0486
  961MOL0     C29666   3.134   1.602   1.505 -0.0985 -0.8191  0.2122
  961MOL0     C29667   3.101   1.549   1.644  0.1653 -0.0501 -0.3074
  961MOL0     H29668   3.588   1.298   1.346  2.0473 -0.9702  0.4610
  961MOL0     H29669   3.709   1.116   1.410 -0.1942 -0.1541 -1.8111
  961MOL0     H29670   3.822   0.915   1.469 -0.6001  0.7344 -2.0991
  961MOL0     H29671   3.772   0.759   1.533 -0.3748  0.2458  0.2066
  961MOL0     H29672   3.836   0.793   1.285  0.0418  0.1662 -0.2955
  961MOL0     H29673   3.691   0.883   1.265 -0.5449  0.1686  1.6830
  961MOL0     H29674   3.560   0.655   1.314 -0.9848 -1.0463 -1.6795
  961MOL0     H29675   3.724   0.589   1.323 -2.9016 -1.3656  0.7272
  961MOL0     H29676   3.614   0.728   1.066 -0.3215 -0.7373  1.0536
  961MOL0     H29677   3.772   0.650   1.086 -0.9090 -2.9117 -0.9616
  961MOL0     H29678   3.629   0.510   0.981 -0.9051 -0.8584 -0.7547
  961MOL0     H29679   3.673   0.442   1.134 -0.2455 -0.4187  1.5304
  961MOL0     H29680   3.446   0.510   1.229 -2.3769 -2.0076 -0.8844
  961MOL0     H29681   3.422   0.617   1.094  2.0818  0.8085 -0.8744
  961MOL0     H29682   3.418   0.392   0.948  0.9882 -1.1300  0.0640
  961MOL0     H29683   3.286   0.409   1.065 -0.0733 -0.8400 -1.9603
  961MOL0     H29684   3.538   0.257   1.128  0.2736  2.5631  4.9864
  961MOL0     H29685   3.393   0.267   1.223  2.2852 -1.8827  0.9201
  961MOL0     H29686   3.516   0.129   0.888  0.6370 -0.4652  1.6791
  961MOL0     H29687   3.305  -0.186   0.795  1.2928  0.2317  1.7524
  961MOL0     H29688   3.231  -0.058   0.707  0.6474  1.9775 -0.9870
  961MOL0     H29689   3.431   0.033   0.639  1.1637  0.6893 -0.9862
  961MOL0     H29690   3.525  -0.091   0.749 -0.3314 -1.1513 -0.9952
  961MOL0     H29691   3.465  -0.263   0.599  1.6456  0.0713 -2.0930
  961MOL0     H29692   3.548  -0.121   0.526 -0.0452  2.7829  0.9418
  961MOL0     H29693   3.252  -0.194   0.509 -1.1928 -0.2465 -1.5891
  961MOL0     H29694   3.372  -0.247   0.391 -5.0981 -2.8840  1.2333
  961MOL0     H29695   3.552  -0.172   0.254  1.8078  0.8100 -1.1704
  961MOL0     H29696   3.627  -0.104   0.044 -0.1306 -1.3896  1.5704
  961MOL0     H29697   3.340   0.024  -0.370  1.0994 -0.2481  1.3236
  961MOL0     H29698   3.373   0.035  -0.609 -1.6505  0.9678 -1.5813
  961MOL0     H29699   3.364   0.426  -0.735 -0.0754  0.8635 -3.7414
  961MOL0     H29700   3.525   0.423  -0.801 -0.3132 -0.3318  0.2971
  961MOL0     H29701   3.408   0.256  -0.976  2.9459  1.4095 -0.3374
  961MOL0     H29702   3.261   0.344  -0.912 -0.3764  0.2504 -2.3744
  961MOL0     H29703   3.373   0.551  -0.979 -0.2942  1.4975 -3.1524
  961MOL0     H29704   3.510   0.443  -1.045 -0.6386 -0.0576 -0.6185
  961MOL0     H29705   3.228   0.464  -1.144 -0.6484 -2.1766  0.5566
  961MOL0     H29706   3.361   0.355  -1.196 -3.3450 -1.1941 -1.4267
  961MOL0     H29707   3.502   0.539  -1.257  0.2766  2.5237  2.6010
  961MOL0     H29708   3.376   0.657  -1.222 -1.3784  0.6685 -0.1403
  961MOL0     H29709   3.341   0.420  -1.403 -0.1477  0.4199 -2.1028
  961MOL0     H29710   3.224   0.564  -1.373 -0.8347  0.7805  0.4726
  961MOL0     H29711   3.320   0.589  -1.589 -0.5221  1.2635  0.6000
  961MOL0     H29712   3.486   0.547  -1.539 -0.4611  0.2150 -0.2212
  961MOL0     H29713   3.314   0.783  -1.481 -1.2445 -3.3969 -0.5551
  961MOL0     H29714   3.469   0.765  -1.390  1.1533 -0.6446 -0.7311
  961MOL0     H29715   3.582   0.408  -0.559  0.4193  1.1104  2.2545
  961MOL0     H29716   3.561   0.377  -0.308  0.1992  1.8011 -2.2809
  961MOL0     H29717   3.310   0.195   0.029 -0.4589 -1.1459 -3.4350
  961MOL0     H29718   3.242   0.132   0.261  0.7717 -1.5389  5.0784
  961MOL0     H29719   3.368   0.904   1.539  2.1814 -0.2250 -0.3554
  961MOL0     H29720   3.225   1.109   1.446 -0.3132  2.2272 -4.1492
  961MOL0     H29721   3.260   1.511   1.192 -2.9444  1.1804 -2.0154
  961MOL0     H29722   3.165   1.695   1.127  0.2566 -1.0099 -0.4482
  961MOL0     H29723   3.027   1.961   1.462  2.0042  1.6972 -0.2515
  961MOL0     H29724   2.888   2.002   1.363 -0.2295 -0.2161  1.2486
  961MOL0     H29725   3.072   2.182   1.402  0.8111 -0.8319 -0.7366
  961MOL0     H29726   2.997   2.147   1.244  0.2134 -0.2520 -2.6542
  961MOL0     H29727   3.211   2.029   1.184  2.3701  0.4144 -0.5152
  961MOL0     H29728   3.248   2.027   1.354 -0.5283 -1.7379 -1.1366
  961MOL0     H29729   3.394   2.173   1.198 -0.5526 -0.7639 -1.5796
  961MOL0     H29730   3.242   2.262   1.197 -1.5830 -2.5778 -0.6723
  961MOL0     H29731   3.382   2.364   1.581 -0.4846 -1.2353  0.1364
  961MOL0     H29732   3.005   1.773   1.534 -1.4160 -1.2091  1.1446
  961MOL0     H29733   3.147   1.615   1.718  0.4283 -1.8210  1.1777
  961MOL0     H29734   2.992   1.561   1.654  0.2899  0.0967  1.1432
  961MOL0     H29735   3.130   1.446   1.668  0.7377  0.2932  0.4872
  962MOL0     O29736   3.543   3.523   7.807  0.0927  0.6997  0.3897
  962MOL0     C29737   3.551   3.427   7.884  0.0827  0.9280 -0.0788
  962MOL0     O29738   3.639   3.328   7.863 -0.2834  0.0815  0.5004
  962MOL0     C29739   3.738   3.344   7.762 -0.4911  0.3303 -0.2634
  962MOL0     C29740   3.725   3.266   7.649 -0.3290 -0.7433 -0.2081
  962MOL0     C29741   3.824   3.273   7.549  0.5658 -0.1921 -0.1968
  962MOL0     C29742   3.934   3.352   7.559  0.0838 -0.3354  0.5684
  962MOL0     O29743   4.028   3.373   7.457  0.4953 -0.3001  1.1729
  962MOL0     C29744   4.001   3.333   7.323  0.3341  0.5213  0.4723
  962MOL0     C29745   4.124   3.354   7.230  0.0359 -0.5525 -0.9369
  962MOL0     C29746   4.247   3.266   7.275  0.1111  0.0006 -0.3970
  962MOL0     C29747   4.370   3.313   7.188  0.5268  0.3478 -0.2292
  962MOL0     C29748   4.490   3.255   7.248 -0.0963 -0.2790 -0.2605
  962MOL0     C29749   4.606   3.250   7.147 -0.8866 -0.5461 -0.3411
  962MOL0     C29750   4.725   3.172   7.209  0.4289  0.5457 -0.1219
  962MOL0     C29751   4.810   3.113   7.092  0.2210  0.1002 -0.1766
  962MOL0     N29752   4.939   3.074   7.141  0.7648  0.3470  0.2993
  962MOL0     C29753   5.024   3.150   7.211  0.1956 -0.6875  0.3436
  962MOL0     C29754   5.132   3.072   7.257  0.5744  0.3822 -0.1968
  962MOL0     C29755   5.243   3.118   7.353 -0.5156  0.4470  0.0530
  962MOL0     C29756   5.384   3.152   7.313  0.2374  0.0213 -0.3260
  962MOL0     C29757   5.489   3.167   7.426  0.7437 -0.2751 -0.6065
  962MOL0     C29758   5.630   3.189   7.377  0.4022 -0.5868 -0.1665
  962MOL0     O29759   5.705   3.070   7.383 -0.2285 -1.1893  0.5648
  962MOL0     C29760   5.792   3.040   7.482 -0.2063 -0.8401 -0.7026
  962MOL0     C29761   5.824   3.124   7.590 -0.1719  0.3386  0.3204
  962MOL0     C29762   5.909   3.084   7.694  0.1441  0.3308 -0.6458
  962MOL0     C29763   5.969   2.958   7.687  0.6190 -0.8732 -0.9268
  962MOL0     C29764   6.087   2.919   7.777  0.0627  0.1617 -1.1004
  962MOL0     O29765   6.091   2.783   7.805 -0.5489 -0.1326  0.6909
  962MOL0     C29766   6.199   2.734   7.881  1.6207 -0.2987  1.1063
  962MOL0     C29767   6.269   2.777   7.997  0.9247  0.3687  0.1220
  962MOL0     C29768   6.377   2.704   8.052 -0.9025 -0.1070 -0.2220
  962MOL0     C29769   6.426   2.585   7.995 -0.0439  0.1115  0.3589
  962MOL0     O29770   6.531   2.525   8.057 -1.0287  0.0454 -0.0818
  962MOL0     C29771   6.586   2.415   7.979  0.2362 -0.4749 -1.7560
  962MOL0     C29772   6.720   2.384   8.062  0.1878  0.4039 -0.3428
  962MOL0     C29773   6.823   2.498   8.040  1.3601 -0.7121 -0.9607
  962MOL0     C29774   6.957   2.472   8.109  0.7518  0.4535  0.0781
  962MOL0     C29775   7.041   2.599   8.141  0.0062 -0.1621 -1.0732
  962MOL0     C29776   7.132   2.645   8.028  0.8763 -0.6651  0.1529
  962MOL0     C29777   7.178   2.797   8.030 -0.4355 -0.2942  0.3798
  962MOL0     C29778   7.218   2.852   8.169  0.1545 -0.5810  0.0912
  962MOL0    Cl29779   7.346   2.750   8.231  0.6862  0.4513  0.3800
  962MOL0     C29780   6.352   2.540   7.886  1.1210  0.3634  0.0422
  962MOL0     C29781   6.242   2.610   7.835 -0.0666 -0.0767  1.2652
  962MOL0     O29782   6.172   3.007   7.805  0.3237  0.0904 -0.5986
  962MOL0     C29783   5.928   2.869   7.580  0.1815 -0.4271  0.1296
  962MOL0     C29784   5.849   2.914   7.479  0.5503  0.8626  0.1321
  962MOL0     N29785   5.109   2.946   7.210  0.3451  0.1133 -0.3725
  962MOL0     N29786   4.989   2.949   7.158  0.6898 -0.1465 -0.1562
  962MOL0     C29787   3.948   3.433   7.668  0.2544 -0.1085  0.5597
  962MOL0     C29788   3.857   3.424   7.770  0.1894  1.5835 -0.2770
  962MOL0     C29789   3.453   3.409   7.995 -0.1496  0.0500  0.4061
  962MOL0     C29790   3.475   3.302   8.078  0.4222 -0.7149 -0.2557
  962MOL0     C29791   3.396   3.284   8.190  0.8846 -0.4145  0.2231
  962MOL0     C29792   3.277   3.356   8.224  0.6529  0.0205 -0.0240
  962MOL0     O29793   3.185   3.321   8.322 -0.3860  0.0011 -0.1443
  962MOL0     C29794   3.193   3.190   8.376 -0.0072  0.2561  0.6351
  962MOL0     C29795   3.266   3.173   8.500 -0.3449 -1.2051  0.3075
  962MOL0     C29796   3.221   3.267   8.616 -0.1653  0.4101 -0.2633
  962MOL0     C29797   3.226   3.194   8.756  0.3065 -0.6782 -1.0082
  962MOL0     C29798   3.109   3.104   8.765 -0.4433 -0.6291 -0.7599
  962MOL0     C29799   3.014   3.034   8.773  0.0113  0.1210  0.8863
  962MOL0     C29800   3.267   3.468   8.145  0.0786  0.1234 -0.1345
  962MOL0     C29801   3.360   3.502   8.040  0.0088  0.0609  0.4026
  962MOL0     C29802   3.350   3.643   7.975 -0.0560  0.1395 -0.7192
  962MOL0     H29803   3.629   3.214   7.640  0.6230 -2.6538  0.0908
  962MOL0     H29804   3.812   3.217   7.457  2.0871  0.7538 -1.0121
  962MOL0     H29805   3.965   3.230   7.319 -3.3508  1.6831  0.2260
  962MOL0     H29806   3.919   3.391   7.281  2.8420  1.3815 -3.8612
  962MOL0     H29807   4.148   3.461   7.231 -0.6243 -0.3956  0.2841
  962MOL0     H29808   4.088   3.322   7.132 -1.4260 -1.2068 -0.2086
  962MOL0     H29809   4.222   3.160   7.264  1.7529 -0.4396 -0.0458
  962MOL0     H29810   4.277   3.290   7.377  0.4888 -1.3556 -0.1728
  962MOL0     H29811   4.372   3.288   7.082  0.7690 -0.3677 -0.0611
  962MOL0     H29812   4.378   3.422   7.191  0.1331  0.3912 -0.6048
  962MOL0     H29813   4.521   3.303   7.342 -1.6300  0.9017 -0.3177
  962MOL0     H29814   4.461   3.152   7.269 -0.2779 -0.2709 -0.4642
  962MOL0     H29815   4.566   3.213   7.052 -3.8625 -0.2624  0.6881
  962MOL0     H29816   4.648   3.350   7.140  0.5952 -1.1865 -0.9377
  962MOL0     H29817   4.701   3.092   7.280 -1.4239  0.0569 -1.2454
  962MOL0     H29818   4.791   3.246   7.257  1.8167 -0.5013 -0.3566
  962MOL0     H29819   4.765   3.035   7.029 -0.0353  0.2965 -0.2358
  962MOL0     H29820   4.845   3.191   7.025  0.7442 -0.6655 -0.8204
  962MOL0     H29821   5.001   3.255   7.228  0.3847 -0.4347 -0.8835
  962MOL0     H29822   5.199   3.208   7.398 -2.5507 -0.7809  0.6578
  962MOL0     H29823   5.252   3.040   7.429 -5.1830  0.8033  1.3088
  962MOL0     H29824   5.415   3.060   7.262 -2.3112 -0.6362 -0.8574
  962MOL0     H29825   5.375   3.243   7.253  1.4909 -0.2147 -0.8936
  962MOL0     H29826   5.491   3.083   7.496  1.2828  2.1619  2.5367
  962MOL0     H29827   5.449   3.239   7.497 -1.3588 -0.8307 -1.1401
  962MOL0     H29828   5.683   3.273   7.424 -3.3926  3.1994 -1.8598
  962MOL0     H29829   5.617   3.211   7.271 -0.6768  2.3248  0.4703
  962MOL0     H29830   5.788   3.226   7.595 -2.2974 -0.1257 -2.5883
  962MOL0     H29831   5.940   3.142   7.781  1.8631  1.6954 -2.0980
  962MOL0     H29832   6.236   2.864   8.052 -0.6147 -1.1372  1.7098
  962MOL0     H29833   6.440   2.739   8.133  3.2067 -1.3778 -2.5496
  962MOL0     H29834   6.523   2.327   7.996 -0.0903 -0.3159 -2.1315
  962MOL0     H29835   6.598   2.420   7.870 -4.5898 -0.4693 -2.5097
  962MOL0     H29836   6.694   2.390   8.169  1.6500  3.6762 -0.0485
  962MOL0     H29837   6.764   2.290   8.030  0.6010 -0.0559  1.4724
  962MOL0     H29838   6.838   2.489   7.932  0.6614 -3.6808 -0.8726
  962MOL0     H29839   6.783   2.597   8.064  1.4709 -1.1313  1.1045
  962MOL0     H29840   7.012   2.399   8.049  0.4565  0.4278 -0.1570
  962MOL0     H29841   6.946   2.418   8.204 -0.3469 -1.0462 -0.8689
  962MOL0     H29842   7.105   2.586   8.229 -2.5677  0.0374  0.9568
  962MOL0     H29843   6.973   2.679   8.171 -1.0531 -0.9520 -1.3238
  962MOL0     H29844   7.221   2.583   8.032  0.5392 -1.1211  0.8005
  962MOL0     H29845   7.077   2.629   7.935  3.3288 -3.0759 -1.0167
  962MOL0     H29846   7.096   2.858   7.991  0.6429  0.5553 -0.6128
  962MOL0     H29847   7.261   2.820   7.963 -0.2945  2.0466  1.2566
  962MOL0     H29848   7.245   2.958   8.162  0.8794 -0.8425 -1.5010
  962MOL0     H29849   7.134   2.841   8.238 -0.7214  3.5660 -0.0996
  962MOL0     H29850   6.389   2.451   7.837  4.1128  1.5011 -0.0094
  962MOL0     H29851   6.186   2.574   7.749  0.9540  3.6492 -1.2358
  962MOL0     H29852   5.956   2.764   7.580  0.7801 -0.2878  1.4424
  962MOL0     H29853   5.818   2.868   7.386  0.4439  1.9487 -0.3764
  962MOL0     H29854   4.027   3.508   7.661 -1.7964  2.2283  0.7770
  962MOL0     H29855   3.876   3.477   7.862 -0.7961  1.5719 -0.0558
  962MOL0     H29856   3.550   3.230   8.050  1.9669  2.2278 -4.9932
  962MOL0     H29857   3.419   3.196   8.248 -1.1410 -1.4336 -0.4238
  962MOL0     H29858   3.220   3.122   8.295 -2.2150 -2.2291  1.8232
  962MOL0     H29859   3.089   3.162   8.398 -0.2274 -0.4368 -1.0894
  962MOL0     H29860   3.372   3.190   8.482 -0.5323 -0.5792 -0.2157
  962MOL0     H29861   3.258   3.066   8.521 -0.9683 -1.3556 -0.6320
  962MOL0     H29862   3.119   3.301   8.596 -1.0724 -1.4898  0.8059
  962MOL0     H29863   3.285   3.355   8.617 -2.9371  2.5708  0.5798
  962MOL0     H29864   3.320   3.143   8.781 -1.3485 -2.9586  1.1581
  962MOL0     H29865   3.208   3.271   8.833  2.2532  0.1887 -1.3665
  962MOL0     H29866   2.937   2.960   8.782  0.9264 -1.4322 -2.4731
  962MOL0     H29867   3.171   3.518   8.155  0.6208  1.0918  0.3660
  962MOL0     H29868   3.300   3.714   8.042 -0.3832  0.2441 -1.0726
  962MOL0     H29869   3.446   3.685   7.942 -0.5632  2.0352  0.0656
  962MOL0     H29870   3.276   3.627   7.896 -1.6521  0.9178  0.5525
  963MOL0     O29871   4.582   0.817   9.891  0.1920 -0.5410  0.1601
  963MOL0     C29872   4.516   0.864   9.802 -0.1079  0.6944 -0.0990
  963MOL0     O29873   4.535   0.853   9.665  0.2845 -0.5954 -0.2840
  963MOL0     C29874   4.625   0.786   9.606  0.0854 -0.5983  0.6049
  963MOL0     C29875   4.585   0.762   9.474 -0.0436 -0.1980 -1.0204
  963MOL0     C29876   4.671   0.701   9.383 -0.2374 -0.3177 -0.5275
  963MOL0     C29877   4.803   0.660   9.426  0.3295  0.1131  0.9517
  963MOL0     O29878   4.890   0.599   9.339 -0.6900 -0.1406  0.0465
  963MOL0     C29879   4.968   0.491   9.395  0.6427 -0.7433  0.1245
  963MOL0     C29880   5.075   0.436   9.308 -0.9290 -0.3245 -0.1538
  963MOL0     C29881   5.195   0.530   9.269  0.5327 -0.8707 -0.0116
  963MOL0     C29882   5.281   0.569   9.394  0.3464 -0.8538  0.3918
  963MOL0     C29883   5.396   0.662   9.342  0.4892 -0.1749 -0.4207
  963MOL0     C29884   5.473   0.710   9.466 -0.1307 -0.5054 -0.4878
  963MOL0     C29885   5.593   0.813   9.446 -0.2581 -0.0787  0.1218
  963MOL0     C29886   5.542   0.957   9.473 -0.6777  1.6078 -0.0962
  963MOL0     N29887   5.638   1.051   9.523 -0.2383 -0.8326  0.8185
  963MOL0     C29888   5.753   1.090   9.457 -0.4843 -0.4477  0.6182
  963MOL0     C29889   5.787   1.202   9.522 -0.8782 -1.1515 -0.5836
  963MOL0     C29890   5.896   1.294   9.481 -0.9433 -0.5990  0.0194
  963MOL0     C29891   5.832   1.393   9.386  0.2557 -0.5101  0.3477
  963MOL0     C29892   5.710   1.478   9.433 -0.6142 -0.5495 -0.4720
  963MOL0     C29893   5.759   1.581   9.538  0.8936 -0.7833 -0.0652
  963MOL0     O29894   5.690   1.708   9.537  0.0541 -0.1487  0.4924
  963MOL0     C29895   5.553   1.709   9.550  0.3612 -0.9569 -0.9909
  963MOL0     C29896   5.474   1.606   9.609  0.2346 -0.0960 -0.4402
  963MOL0     C29897   5.340   1.624   9.633 -0.1933 -0.2121 -0.5035
  963MOL0     C29898   5.274   1.745   9.586 -0.3079 -0.6290 -0.2419
  963MOL0     C29899   5.132   1.773   9.620  0.7871  0.8482 -0.8690
  963MOL0     O29900   5.066   1.889   9.563 -0.2094  0.2774  0.2032
  963MOL0     C29901   4.947   1.936   9.609  0.4774  0.0706 -0.7943
  963MOL0     C29902   4.848   1.869   9.694 -0.6356  0.1218 -0.0924
  963MOL0     C29903   4.716   1.914   9.709 -1.0432  0.3779 -0.3613
  963MOL0     C29904   4.676   2.035   9.647  0.4638  0.5433 -0.0766
  963MOL0     O29905   4.544   2.066   9.649 -0.2316  0.4593 -0.4336
  963MOL0     C29906   4.516   2.207   9.636 -0.0222  0.2347  0.3256
  963MOL0     C29907   4.581   2.279   9.766 -0.6054  0.8903  0.2590
  963MOL0     C29908   4.512   2.409   9.814 -1.0519  0.1665  0.4923
  963MOL0     C29909   4.417   2.389   9.929  0.0848  0.1281  0.7175
  963MOL0     C29910   4.473   2.333  10.067  0.1549  0.6205 -0.3555
  963MOL0     C29911   4.363   2.342  10.182 -0.0521  0.5270  0.1615
  963MOL0     C29912   4.242   2.256  10.140 -0.7466  0.1065 -0.2366
  963MOL0     C29913   4.183   2.177  10.256  0.6517 -0.3822 -0.7502
  963MOL0    Cl29914   4.295   2.047  10.302  0.0038  0.2663 -0.0625
  963MOL0     C29915   4.764   2.095   9.553 -0.3342  0.2505 -0.4782
  963MOL0     C29916   4.893   2.039   9.536  1.6112 -0.9169  0.4314
  963MOL0     O29917   5.083   1.692   9.687 -0.0557  0.2572 -0.5718
  963MOL0     C29918   5.343   1.841   9.516 -0.0795  0.4258 -0.2169
  963MOL0     C29919   5.488   1.825   9.509  0.0270  0.3065  1.1738
  963MOL0     N29920   5.728   1.212   9.652 -1.1532 -0.3290  1.0778
  963MOL0     N29921   5.636   1.121   9.642  0.1826 -0.3917 -0.2920
  963MOL0     C29922   4.838   0.685   9.559 -0.8398  0.2240  0.4075
  963MOL0     C29923   4.750   0.744   9.651  0.4097  0.3127 -0.2756
  963MOL0     C29924   4.379   0.915   9.849 -0.4146 -0.5378 -0.4978
  963MOL0     C29925   4.281   0.832   9.899  0.1402 -0.3142 -0.5292
  963MOL0     C29926   4.150   0.876   9.925  0.4118 -0.3477  0.0351
  963MOL0     C29927   4.110   1.016   9.918  0.1381 -0.0317  0.1107
  963MOL0     O29928   3.996   1.071   9.955 -0.2444 -0.4926 -0.1852
  963MOL0     C29929   3.887   0.985   9.989  0.3099  0.3673  0.5454
  963MOL0     C29930   3.757   1.058   9.982 -0.2973  0.1906 -0.3152
  963MOL0     C29931   3.759   1.171  10.097  0.5702 -0.4666  1.4558
  963MOL0     C29932   3.622   1.181  10.159 -0.3575 -0.2313 -0.1125
  963MOL0     C29933   3.613   1.302  10.247  0.1701  0.7509 -0.0742
  963MOL0     C29934   3.611   1.390  10.326  0.2685 -0.5419 -0.2309
  963MOL0     C29935   4.204   1.096   9.855 -0.5672 -0.8274 -0.1475
  963MOL0     C29936   4.333   1.049   9.810  0.4088  0.1890 -0.0078
  963MOL0     C29937   4.410   1.149   9.735  0.2039  0.2872 -0.3452
  963MOL0     H29938   4.483   0.793   9.453 -0.3507 -0.1519  0.4462
  963MOL0     H29939   4.636   0.672   9.284 -0.8268  1.2338 -0.7888
  963MOL0     H29940   5.008   0.517   9.494 -4.1796  0.4125  2.0873
  963MOL0     H29941   4.902   0.409   9.424 -0.4699 -0.4462 -1.4175
  963MOL0     H29942   5.043   0.395   9.212  1.5785  1.4221 -1.8854
  963MOL0     H29943   5.110   0.345   9.356  1.3261  0.3406 -0.4115
  963MOL0     H29944   5.168   0.627   9.226 -0.2337 -0.0632  2.1325
  963MOL0     H29945   5.255   0.480   9.193  0.8222 -0.1228 -0.2862
  963MOL0     H29946   5.224   0.612   9.477 -1.4265 -1.6843 -0.3292
  963MOL0     H29947   5.319   0.482   9.447 -3.0611 -0.8915  3.0948
  963MOL0     H29948   5.462   0.620   9.266 -2.1918 -0.0202 -3.0532
  963MOL0     H29949   5.349   0.746   9.289 -0.6065  0.1140  0.9393
  963MOL0     H29950   5.411   0.748   9.547 -0.2681 -3.0085  0.6580
  963MOL0     H29951   5.509   0.620   9.517 -1.5718 -0.2182  1.1166
  963MOL0     H29952   5.625   0.808   9.341 -0.1732 -0.4607  0.1653
  963MOL0     H29953   5.675   0.782   9.512 -1.0353 -2.7686 -0.0504
  963MOL0     H29954   5.483   1.004   9.394 -2.4209  0.9621  0.7730
  963MOL0     H29955   5.471   0.948   9.556  0.2229 -3.0925  0.4398
  963MOL0     H29956   5.789   1.049   9.363 -0.3879  1.2199 -0.0983
  963MOL0     H29957   5.938   1.342   9.570  3.6992 -2.5715 -0.8008
  963MOL0     H29958   5.977   1.245   9.426 -3.5450 -2.6158 -2.2369
  963MOL0     H29959   5.893   1.462   9.327 -0.9860  1.7889  1.6050
  963MOL0     H29960   5.790   1.337   9.302  0.3403  0.1520 -0.1492
  963MOL0     H29961   5.626   1.419   9.470 -1.0961  0.7553  0.6106
  963MOL0     H29962   5.667   1.519   9.341  0.4721 -0.3727 -0.9149
  963MOL0     H29963   5.865   1.605   9.527  0.4279  1.0282 -0.9087
  963MOL0     H29964   5.738   1.523   9.629 -1.4432 -1.6914 -1.1079
  963MOL0     H29965   5.513   1.519   9.661  3.2833  1.6985  0.5339
  963MOL0     H29966   5.277   1.550   9.682 -0.9327  0.5890 -0.2175
  963MOL0     H29967   4.879   1.782   9.750 -1.2810  0.7873  1.3341
  963MOL0     H29968   4.647   1.863   9.776 -0.8709  0.3658 -0.1917
  963MOL0     H29969   4.559   2.258   9.550  1.5473 -1.7778 -0.1530
  963MOL0     H29970   4.410   2.225   9.619 -0.0950 -0.1702  0.3611
  963MOL0     H29971   4.571   2.208   9.849 -2.3601  1.2483  0.3982
  963MOL0     H29972   4.685   2.301   9.740  0.2216 -1.3554  1.3656
  963MOL0     H29973   4.587   2.481   9.847  0.5583 -2.4710  3.0181
  963MOL0     H29974   4.455   2.455   9.732 -1.5540 -0.8370  0.2638
  963MOL0     H29975   4.335   2.332   9.883 -1.5837  1.8213  1.4315
  963MOL0     H29976   4.370   2.485   9.952 -2.2090 -0.0001 -2.5783
  963MOL0     H29977   4.556   2.400  10.092 -1.6387  2.6692  0.4019
  963MOL0     H29978   4.513   2.231  10.069  0.4612  0.7375  1.6688
  963MOL0     H29979   4.393   2.318  10.284  0.6840  1.6082  0.2130
  963MOL0     H29980   4.324   2.443  10.189 -0.6006  0.2944  0.5021
  963MOL0     H29981   4.265   2.188  10.058  1.2216  0.2779  0.1190
  963MOL0     H29982   4.168   2.326  10.100  2.9788  4.4299 -0.4348
  963MOL0     H29983   4.162   2.253  10.331  2.6286  0.7090 -1.2454
  963MOL0     H29984   4.088   2.133  10.223  1.0845 -0.5960 -1.7375
  963MOL0     H29985   4.723   2.162   9.479 -2.9900 -0.3887  0.3114
  963MOL0     H29986   4.946   2.073   9.447 -1.0308 -0.1718 -0.9786
  963MOL0     H29987   5.293   1.927   9.472  1.0589  0.9641 -0.5095
  963MOL0     H29988   5.552   1.899   9.460  0.4947 -2.2396 -2.4604
  963MOL0     H29989   4.931   0.649   9.601  0.1374 -1.4301 -2.8773
  963MOL0     H29990   4.782   0.762   9.753  1.7953 -3.1003  0.0300
  963MOL0     H29991   4.302   0.726   9.902 -0.6381 -0.4521  0.5887
  963MOL0     H29992   4.080   0.803   9.966 -0.6114  0.8921  0.5855
  963MOL0     H29993   3.905   0.931  10.082 -1.8363 -0.2281  0.6691
  963MOL0     H29994   3.882   0.909   9.910  0.2806  1.4281 -0.5130
  963MOL0     H29995   3.675   0.988   9.996  2.3980 -3.5761 -1.6981
  963MOL0     H29996   3.751   1.115   9.888  2.2860  2.6952  0.8664
  963MOL0     H29997   3.783   1.266  10.047  0.2161 -1.4541 -0.7388
  963MOL0     H29998   3.832   1.141  10.173 -0.3964 -2.7240  1.5677
  963MOL0     H29999   3.548   1.174  10.078 -0.1526  0.4168 -0.3604
  963MOL0     H30000   3.595   1.089  10.212 -0.0103  1.7347  3.8648
  963MOL0     H30001   3.609   1.468  10.399  2.2762 -1.7158  1.1961
  963MOL0     H30002   4.181   1.201   9.837  0.0104 -0.2014  2.3956
  963MOL0     H30003   4.445   1.214   9.816  0.6583 -1.7912  1.2007
  963MOL0     H30004   4.489   1.098   9.680  0.3145  1.2855 -1.1536
  963MOL0     H30005   4.350   1.212   9.668 -2.5003  0.4281  1.9864
  964MOL0     O30006  10.698   7.753   8.890 -1.1424  0.2346 -0.2583
  964MOL0     C30007  10.745   7.646   8.854  0.7065  0.2123 -0.0950
  964MOL0     O30008  10.666   7.540   8.801  0.0253  0.5133 -0.3923
  964MOL0     C30009  10.524   7.559   8.804 -0.0737  0.0182 -0.7704
  964MOL0     C30010  10.468   7.568   8.927  0.7442 -0.2511 -0.3320
  964MOL0     C30011  10.328   7.587   8.928  0.4284 -0.8575 -0.3444
  964MOL0     C30012  10.247   7.615   8.812 -0.4543 -0.8945  0.3436
  964MOL0     O30013  10.122   7.671   8.795 -0.4626 -0.0766 -0.0691
  964MOL0     C30014  10.054   7.732   8.911 -0.0768 -0.1245  0.1804
  964MOL0     C30015   9.919   7.757   8.868  0.1298  0.7464 -0.4188
  964MOL0     C30016   9.861   7.632   8.806  0.3163  0.2366  0.3456
  964MOL0     C30017   9.705   7.653   8.777 -0.2898 -0.0898  0.9799
  964MOL0     C30018   9.644   7.511   8.733 -0.1729 -0.8920 -0.4861
  964MOL0     C30019   9.501   7.507   8.679 -0.3488  0.4142 -0.1794
  964MOL0     C30020   9.403   7.565   8.779  0.7336 -0.4274  0.3070
  964MOL0     C30021   9.256   7.547   8.732 -0.6650  0.4025 -0.4619
  964MOL0     N30022   9.234   7.602   8.598  0.0204  0.1606  1.1267
  964MOL0     C30023   9.222   7.737   8.567  1.5183  0.6585 -0.4936
  964MOL0     C30024   9.225   7.738   8.433 -0.1062 -1.0570  1.2402
  964MOL0     C30025   9.218   7.875   8.354 -0.4467  0.2098 -0.7868
  964MOL0     C30026   9.358   7.938   8.347 -0.3525  0.4724  0.6827
  964MOL0     C30027   9.430   7.964   8.481 -0.1825  0.7370  0.1372
  964MOL0     C30028   9.573   8.019   8.455 -0.3274 -0.7521  0.0049
  964MOL0     O30029   9.662   7.906   8.438 -0.2613 -0.0752  0.4025
  964MOL0     C30030   9.794   7.936   8.401 -0.7102  0.5047 -0.2562
  964MOL0     C30031   9.888   7.867   8.479 -1.5629  0.3084  0.9379
  964MOL0     C30032  10.025   7.882   8.452 -0.3489  1.3521  0.1750
  964MOL0     C30033  10.075   7.977   8.367 -0.5265  0.4711 -0.0681
  964MOL0     C30034  10.221   8.001   8.340 -0.2077 -0.9011 -0.9033
  964MOL0     O30035  10.314   7.920   8.392 -0.4670 -0.3538 -0.9174
  964MOL0     C30036  10.455   7.935   8.361  0.3171  0.6347  0.5229
  964MOL0     C30037  10.538   7.854   8.446  1.2550  1.1159  0.3831
  964MOL0     C30038  10.671   7.817   8.417  0.1446  0.9543  0.5797
  964MOL0     C30039  10.736   7.884   8.316 -0.4801 -0.5485  0.6014
  964MOL0     O30040  10.865   7.861   8.292 -0.3173 -0.0956  0.0504
  964MOL0     C30041  10.944   7.966   8.229  0.3897  0.4828 -0.0395
  964MOL0     C30042  11.082   7.963   8.281 -0.4088 -0.4618 -0.7943
  964MOL0     C30043  11.175   8.069   8.225  1.3908 -0.0096  0.2206
  964MOL0     C30044  11.112   8.215   8.222 -0.0279  0.8705 -0.2451
  964MOL0     C30045  11.092   8.269   8.355 -0.8865  0.5306 -1.1333
  964MOL0     C30046  11.032   8.412   8.341  0.5951 -0.2993  0.2518
  964MOL0     C30047  11.000   8.465   8.484  0.7326  0.7159  0.6123
  964MOL0     C30048  10.920   8.593   8.480  0.5997  0.1957  0.4793
  964MOL0    Cl30049  11.056   8.706   8.454  0.0317 -0.2790  0.0503
  964MOL0     C30050  10.657   7.960   8.225 -0.8320  0.1329 -0.4288
  964MOL0     C30051  10.515   7.980   8.244 -0.3345  0.1752  0.1455
  964MOL0     O30052  10.243   8.108   8.281 -0.0989 -0.0369  0.8902
  964MOL0     C30053   9.979   8.059   8.301  0.8385 -0.1547 -0.3510
  964MOL0     C30054   9.839   8.040   8.322 -0.9850 -0.4229  0.5120
  964MOL0     N30055   9.222   7.608   8.388  0.3064 -0.2540 -0.9003
  964MOL0     N30056   9.227   7.528   8.485 -0.1558  0.1922 -0.4361
  964MOL0     C30057  10.314   7.598   8.694  0.3096  0.1591 -0.9726
  964MOL0     C30058  10.452   7.570   8.686 -0.5447 -0.4521  0.6938
  964MOL0     C30059  10.890   7.611   8.886  0.7609 -0.2426 -0.3118
  964MOL0     C30060  10.928   7.478   8.868 -0.0368 -0.0271 -0.3486
  964MOL0     C30061  11.062   7.441   8.882  0.0329 -0.1381  0.1658
  964MOL0     C30062  11.158   7.541   8.920  0.2827 -0.8319  0.8441
  964MOL0     O30063  11.283   7.516   8.943 -0.8666  0.0909 -0.5969
  964MOL0     C30064  11.368   7.507   8.821 -0.4083  0.0144  0.5223
  964MOL0     C30065  11.475   7.612   8.787  0.1545  0.5921 -0.0846
  964MOL0     C30066  11.441   7.752   8.822 -0.6962 -0.1753 -0.5573
  964MOL0     C30067  11.558   7.850   8.769  0.3193  0.0652  0.5812
  964MOL0     C30068  11.558   7.864   8.622  0.0229 -0.0766 -0.3001
  964MOL0     C30069  11.549   7.883   8.508 -0.0889 -0.5644  0.5253
  964MOL0     C30070  11.120   7.670   8.957  0.4450  0.3450 -0.4118
  964MOL0     C30071  10.989   7.708   8.929  0.2727 -0.2259 -0.7024
  964MOL0     C30072  10.948   7.847   8.987  0.0583  1.2041 -0.2877
  964MOL0     H30073  10.523   7.516   9.004 -0.1776 -3.0010 -1.4113
  964MOL0     H30074  10.278   7.560   9.021  3.1104 -0.8188  1.2092
  964MOL0     H30075  10.042   7.667   8.998 -0.8541 -2.8966 -1.8188
  964MOL0     H30076  10.094   7.830   8.935 -1.7852  0.2639  1.7072
  964MOL0     H30077   9.916   7.836   8.792  1.8816  0.5041 -0.8061
  964MOL0     H30078   9.864   7.784   8.958 -0.8776  0.4656 -0.9409
  964MOL0     H30079   9.875   7.541   8.865 -2.1785 -0.9574 -0.7395
  964MOL0     H30080   9.903   7.613   8.707  0.4263  2.4975 -0.0812
  964MOL0     H30081   9.650   7.690   8.864 -1.8418  1.0731 -0.4427
  964MOL0     H30082   9.687   7.719   8.692  0.3324 -0.5668  0.4710
  964MOL0     H30083   9.702   7.472   8.649 -2.4381 -2.1900 -1.5477
  964MOL0     H30084   9.660   7.433   8.809 -2.4722 -0.1022  0.9115
  964MOL0     H30085   9.489   7.572   8.591  0.0453  0.9843  0.1836
  964MOL0     H30086   9.479   7.402   8.656 -0.1309 -0.5457  3.4066
  964MOL0     H30087   9.423   7.671   8.767 -1.3677 -0.2060 -2.3185
  964MOL0     H30088   9.422   7.532   8.881 -1.4620  1.7601  1.5414
  964MOL0     H30089   9.230   7.441   8.726  0.7006  0.0435 -0.3081
  964MOL0     H30090   9.193   7.595   8.807 -0.1397 -2.3337  1.9136
  964MOL0     H30091   9.213   7.830   8.624 -1.4741 -1.3131  2.6783
  964MOL0     H30092   9.181   7.865   8.252 -0.8099 -1.4198 -0.5235
  964MOL0     H30093   9.148   7.949   8.395 -1.1786 -0.4713 -0.7961
  964MOL0     H30094   9.418   7.869   8.287 -2.8679  0.4758 -2.0636
  964MOL0     H30095   9.343   8.029   8.289 -1.6788 -0.7429 -1.0167
  964MOL0     H30096   9.436   7.871   8.538 -0.3091 -0.8493 -2.2692
  964MOL0     H30097   9.376   8.040   8.538 -4.0500 -3.1502  2.2680
  964MOL0     H30098   9.608   8.083   8.536 -0.4236  1.6843 -1.7753
  964MOL0     H30099   9.573   8.079   8.363 -1.0557 -0.5739  0.1102
  964MOL0     H30100   9.846   7.805   8.557 -0.3107 -2.0749 -0.1650
  964MOL0     H30101  10.091   7.817   8.509 -0.8409 -2.3030 -2.9648
  964MOL0     H30102  10.480   7.817   8.529  0.4127 -0.5078 -0.8595
  964MOL0     H30103  10.729   7.754   8.483  0.8275  0.4036 -0.5267
  964MOL0     H30104  10.935   7.953   8.121  0.9165 -0.9657  0.0685
  964MOL0     H30105  10.891   8.060   8.249 -0.2000  0.5480 -1.7442
  964MOL0     H30106  11.077   7.992   8.386 -0.8150 -1.1067 -0.6275
  964MOL0     H30107  11.116   7.863   8.252 -0.6426 -0.2219 -1.9203
  964MOL0     H30108  11.263   8.069   8.289  0.2406  1.7727  1.9362
  964MOL0     H30109  11.197   8.032   8.124  1.8001 -2.4545  1.1600
  964MOL0     H30110  11.021   8.220   8.161 -0.7436 -1.4742  0.5383
  964MOL0     H30111  11.193   8.271   8.175  0.7583  0.7592  0.9551
  964MOL0     H30112  11.189   8.275   8.404  0.0828  1.0314 -2.9972
  964MOL0     H30113  11.029   8.209   8.422 -1.8587  1.5663 -1.0915
  964MOL0     H30114  11.090   8.487   8.286  1.2839 -1.1220 -0.1682
  964MOL0     H30115  10.938   8.411   8.284  0.6396  0.6182  0.1565
  964MOL0     H30116  11.081   8.475   8.557  0.9466  0.2734  0.4354
  964MOL0     H30117  10.920   8.398   8.517 -0.2918  1.1576 -0.8670
  964MOL0     H30118  10.840   8.601   8.405 -0.4468  0.7869  1.6163
  964MOL0     H30119  10.870   8.598   8.577  0.0593  2.3142  0.1518
  964MOL0     H30120  10.691   8.006   8.133  0.3468  0.2864  0.0671
  964MOL0     H30121  10.446   8.041   8.186 -0.2327 -0.1597 -0.3273
  964MOL0     H30122  10.023   8.131   8.233  0.1995  1.2297  0.6382
  964MOL0     H30123   9.776   8.104   8.261  0.9301  2.2295  1.1554
  964MOL0     H30124  10.248   7.613   8.608  2.4599  1.2179 -2.5269
  964MOL0     H30125  10.506   7.557   8.592 -1.4139  1.2772 -0.0920
  964MOL0     H30126  10.855   7.404   8.836 -1.5266  0.8479  0.8759
  964MOL0     H30127  11.093   7.338   8.864  0.0682  0.2265 -2.2746
  964MOL0     H30128  11.301   7.510   8.735 -0.8061  3.8995  0.7978
  964MOL0     H30129  11.420   7.410   8.823  1.5296  0.7394 -3.6047
  964MOL0     H30130  11.498   7.608   8.680 -0.5096  3.3622 -0.4171
  964MOL0     H30131  11.569   7.591   8.838  1.0072 -1.2305 -2.2826
  964MOL0     H30132  11.442   7.756   8.931  0.1453 -0.8972 -0.5311
  964MOL0     H30133  11.341   7.771   8.783 -2.2760 -1.5921  2.4488
  964MOL0     H30134  11.531   7.941   8.823 -4.4097  0.3630 -1.7200
  964MOL0     H30135  11.655   7.816   8.806  0.6807  0.1234 -0.2889
  964MOL0     H30136  11.559   7.912   8.405  1.0853  2.2033  1.3367
  964MOL0     H30137  11.187   7.728   9.020  2.2159 -0.8996 -1.0436
  964MOL0     H30138  10.891   7.902   8.911  0.9138  2.5320 -0.0101
  964MOL0     H30139  10.894   7.826   9.079  2.4472 -0.0750  0.9107
  964MOL0     H30140  11.037   7.909   9.006  1.6988 -1.7043  2.3571
  965MOL0     O30141   8.712   5.438   7.905 -0.6276 -0.0382 -0.0564
  965MOL0     C30142   8.809   5.505   7.866 -0.0606  0.0074 -0.0891
  965MOL0     O30143   8.800   5.618   7.776  0.4875  0.3572 -0.2391
  965MOL0     C30144   8.689   5.634   7.700  0.5639  0.3164 -0.6587
  965MOL0     C30145   8.559   5.653   7.751  0.6930  0.1813  0.8337
  965MOL0     C30146   8.456   5.667   7.657  0.3697  0.1676  0.0670
  965MOL0     C30147   8.484   5.659   7.518 -1.0779 -0.3547 -0.8034
  965MOL0     O30148   8.374   5.672   7.442  0.9064 -0.5901  0.1657
  965MOL0     C30149   8.375   5.702   7.303  0.5776 -0.1435 -0.0010
  965MOL0     C30150   8.237   5.747   7.267  0.5305 -1.0447 -0.3586
  965MOL0     C30151   8.141   5.826   7.363 -0.1107 -0.7555 -0.1538
  965MOL0     C30152   8.207   5.951   7.420 -0.5536 -0.1343  0.2283
  965MOL0     C30153   8.110   6.022   7.517 -0.5988  0.6888  0.0980
  965MOL0     C30154   8.173   6.147   7.567  0.4448 -0.4130 -0.7765
  965MOL0     C30155   8.082   6.221   7.667 -0.3125  0.1653  0.7116
  965MOL0     C30156   8.152   6.334   7.740  0.2779 -0.5501 -0.7768
  965MOL0     N30157   8.044   6.401   7.817 -0.0447  0.1708 -0.3215
  965MOL0     C30158   8.007   6.380   7.951  0.1510 -0.3711  0.4614
  965MOL0     C30159   7.909   6.465   7.975  0.5554 -0.7480  0.3943
  965MOL0     C30160   7.844   6.474   8.110 -0.3061  0.4165 -0.1725
  965MOL0     C30161   7.830   6.624   8.156 -0.7967  0.1777  0.3151
  965MOL0     C30162   7.740   6.624   8.274  0.1758  1.2038 -0.3596
  965MOL0     C30163   7.717   6.769   8.331 -0.7622  0.0844 -0.2875
  965MOL0     O30164   7.600   6.757   8.415 -0.3959  0.2708 -0.2668
  965MOL0     C30165   7.548   6.878   8.460  1.2072 -0.4489 -0.8821
  965MOL0     C30166   7.435   6.865   8.545 -0.0486  0.7752  0.1879
  965MOL0     C30167   7.377   6.968   8.606  0.8000  0.0903  0.7833
  965MOL0     C30168   7.412   7.099   8.580  0.1665  0.3778 -0.8860
  965MOL0     C30169   7.332   7.212   8.633 -0.2953  0.1924 -0.3713
  965MOL0     O30170   7.266   7.178   8.744  0.0461  0.4851  0.3056
  965MOL0     C30171   7.179   7.267   8.802 -0.6600  0.5050 -0.1312
  965MOL0     C30172   7.056   7.283   8.736  0.4508 -0.1787 -0.4944
  965MOL0     C30173   6.956   7.360   8.790 -0.0314 -0.5803 -1.0133
  965MOL0     C30174   6.963   7.423   8.912 -0.6427 -0.9046  0.0726
  965MOL0     O30175   6.848   7.478   8.974 -0.0815 -0.3560  0.5788
  965MOL0     C30176   6.745   7.380   8.996 -0.2972  0.0222 -0.1052
  965MOL0     C30177   6.612   7.454   8.992 -0.8011  0.4567 -0.1327
  965MOL0     C30178   6.582   7.518   8.852 -0.0998 -0.1227 -0.4265
  965MOL0     C30179   6.574   7.414   8.734 -0.0245 -0.4172 -0.6054
  965MOL0     C30180   6.541   7.482   8.601  0.1613 -0.1326 -0.1179
  965MOL0     C30181   6.667   7.548   8.546  0.0991  0.2535 -0.3552
  965MOL0     C30182   6.650   7.596   8.400  0.7359 -0.6219  0.1394
  965MOL0     C30183   6.782   7.676   8.370  0.1205  0.9490  1.0238
  965MOL0    Cl30184   6.934   7.582   8.373 -0.2027  0.0589  0.0121
  965MOL0     C30185   7.085   7.420   8.980  0.4127  0.2367 -0.8475
  965MOL0     C30186   7.186   7.334   8.927 -0.8403 -0.0109 -0.4351
  965MOL0     O30187   7.336   7.316   8.577 -0.2345 -0.2694  1.0472
  965MOL0     C30188   7.523   7.122   8.500 -0.2991 -0.5839  0.8733
  965MOL0     C30189   7.585   7.013   8.437  0.0736 -1.0226  0.1122
  965MOL0     N30190   7.885   6.530   7.854 -0.0723 -0.5117  0.7671
  965MOL0     N30191   7.958   6.494   7.762  0.6275 -0.2675  0.0715
  965MOL0     C30192   8.611   5.645   7.472  0.1037  0.9587  0.9328
  965MOL0     C30193   8.713   5.624   7.558  0.2186  0.5491 -0.1195
  965MOL0     C30194   8.946   5.466   7.924  0.0020 -0.0312 -0.3038
  965MOL0     C30195   9.043   5.411   7.833  0.4829  0.0179  0.0821
  965MOL0     C30196   9.172   5.384   7.870 -0.4623  0.2409 -0.2724
  965MOL0     C30197   9.214   5.409   8.004  0.9755  0.0108 -0.0737
  965MOL0     O30198   9.335   5.359   8.035 -0.9908 -0.6560 -0.7017
  965MOL0     C30199   9.402   5.420   8.148 -0.4771  0.9889  0.1634
  965MOL0     C30200   9.543   5.355   8.155  0.3701 -0.3946  0.4718
  965MOL0     C30201   9.555   5.206   8.178  0.6253 -0.2783 -0.0557
  965MOL0     C30202   9.705   5.170   8.198 -0.1409 -0.4902  0.0567
  965MOL0     C30203   9.705   5.022   8.224  0.1510 -0.2501  0.1716
  965MOL0     C30204   9.720   4.905   8.231 -0.2931 -0.0307  0.3404
  965MOL0     C30205   9.114   5.470   8.090 -0.3411  0.6227 -0.5488
  965MOL0     C30206   8.987   5.502   8.056  0.8396  0.6390  0.3664
  965MOL0     C30207   8.901   5.579   8.148  0.0546  0.2439 -0.5041
  965MOL0     H30208   8.535   5.657   7.856  1.4582  1.8332  0.9765
  965MOL0     H30209   8.357   5.687   7.696  1.6010 -0.1150  3.7146
  965MOL0     H30210   8.450   5.781   7.291 -0.1173  0.4487 -0.5569
  965MOL0     H30211   8.399   5.619   7.235 -1.0643 -0.2637 -0.4611
  965MOL0     H30212   8.171   5.667   7.232  1.0719  0.7051 -6.4944
  965MOL0     H30213   8.242   5.796   7.170  0.2683 -0.8390 -0.2711
  965MOL0     H30214   8.113   5.761   7.446 -0.3538 -1.5149 -0.8246
  965MOL0     H30215   8.053   5.858   7.305  2.3272  2.2957 -2.5170
  965MOL0     H30216   8.301   5.930   7.471  1.0460  2.2926 -1.5638
  965MOL0     H30217   8.232   6.014   7.335  3.1848 -0.0364  1.2475
  965MOL0     H30218   8.014   6.039   7.468 -2.8414  0.4808  4.0733
  965MOL0     H30219   8.100   5.951   7.600 -1.9942 -0.1568 -0.7465
  965MOL0     H30220   8.273   6.123   7.602  0.0164 -0.5770  0.3641
  965MOL0     H30221   8.183   6.214   7.481 -0.6644  2.7025  1.3346
  965MOL0     H30222   8.037   6.153   7.740 -1.7139  0.2288 -0.0400
  965MOL0     H30223   8.004   6.267   7.604  1.1080  1.0890 -0.4431
  965MOL0     H30224   8.228   6.295   7.808  2.5190  0.9418 -2.3204
  965MOL0     H30225   8.200   6.397   7.665 -1.0196  0.7590 -0.5629
  965MOL0     H30226   8.055   6.304   8.011 -0.0293 -2.4836 -1.8992
  965MOL0     H30227   7.742   6.437   8.103  0.1654 -1.0809  0.4704
  965MOL0     H30228   7.910   6.427   8.183  1.9260  2.2619 -0.8586
  965MOL0     H30229   7.923   6.677   8.178  0.4957  1.6562 -6.3692
  965MOL0     H30230   7.782   6.682   8.076  0.8644 -1.4944 -2.0151
  965MOL0     H30231   7.794   6.576   8.356 -0.0277  3.4285  1.1835
  965MOL0     H30232   7.642   6.580   8.250 -0.5434  2.1586  0.6950
  965MOL0     H30233   7.702   6.844   8.252  0.3123  0.2343 -0.3555
  965MOL0     H30234   7.802   6.805   8.390 -0.9560  1.4878 -0.8197
  965MOL0     H30235   7.405   6.762   8.564  3.3526 -0.7615 -1.7441
  965MOL0     H30236   7.297   6.931   8.669  0.1886 -0.5475 -0.3366
  965MOL0     H30237   7.053   7.246   8.634  1.2895 -0.9494 -0.2593
  965MOL0     H30238   6.865   7.370   8.732 -1.1518 -1.0006  0.5934
  965MOL0     H30239   6.756   7.299   8.923 -0.6365  1.0370 -1.3358
  965MOL0     H30240   6.756   7.325   9.089  0.6037 -0.9087 -0.7348
  965MOL0     H30241   6.530   7.382   9.007  0.1161 -0.3463  1.2829
  965MOL0     H30242   6.600   7.535   9.065  1.4871  0.3427  0.4497
  965MOL0     H30243   6.484   7.567   8.861 -0.2509 -0.1578 -1.6567
  965MOL0     H30244   6.656   7.592   8.821 -1.4880 -0.0166 -4.0331
  965MOL0     H30245   6.503   7.338   8.767  1.0237 -0.6077  1.3719
  965MOL0     H30246   6.667   7.357   8.724 -0.8607 -1.9001 -0.2097
  965MOL0     H30247   6.470   7.559   8.632 -0.0650 -1.3422  2.7401
  965MOL0     H30248   6.483   7.421   8.531 -3.4522  1.9990  0.7557
  965MOL0     H30249   6.690   7.639   8.603  1.8358  0.5731 -1.4955
  965MOL0     H30250   6.753   7.480   8.552 -0.6684 -0.6495  1.1855
  965MOL0     H30251   6.560   7.652   8.371  0.8458 -1.0129 -1.0293
  965MOL0     H30252   6.656   7.502   8.343 -0.6781 -0.7168  0.1101
  965MOL0     H30253   6.764   7.732   8.277  0.3143 -2.7577 -1.4709
  965MOL0     H30254   6.788   7.754   8.446 -1.5731  0.9438  1.2069
  965MOL0     H30255   7.099   7.476   9.071 -1.6534 -0.4485 -0.0447
  965MOL0     H30256   7.277   7.334   8.986 -1.4556 -0.7741  0.5669
  965MOL0     H30257   7.556   7.222   8.474 -1.2117  0.1776  2.5333
  965MOL0     H30258   7.656   7.047   8.363 -0.8438  3.2038  0.9462
  965MOL0     H30259   8.632   5.643   7.365  0.2413 -1.3251  0.9573
  965MOL0     H30260   8.816   5.609   7.528 -0.0175  1.7777 -1.6576
  965MOL0     H30261   9.000   5.390   7.736 -1.2069 -0.6925  0.9391
  965MOL0     H30262   9.239   5.334   7.801  0.7736 -0.6920  1.5298
  965MOL0     H30263   9.343   5.387   8.234 -1.7577 -0.2168 -1.0964
  965MOL0     H30264   9.407   5.529   8.146 -0.0135  1.1062  3.1770
  965MOL0     H30265   9.596   5.397   8.242  0.0773 -1.1956  1.0443
  965MOL0     H30266   9.593   5.383   8.062  0.4399 -2.6824 -0.2257
  965MOL0     H30267   9.509   5.146   8.099  0.7809 -0.6838  0.1610
  965MOL0     H30268   9.499   5.182   8.269 -2.5616 -1.3229 -2.0866
  965MOL0     H30269   9.769   5.194   8.113  1.0630  0.3660  1.1748
  965MOL0     H30270   9.754   5.223   8.280  1.2051  0.6646 -1.4425
  965MOL0     H30271   9.736   4.799   8.234 -0.2428 -0.0234  2.4681
  965MOL0     H30272   9.145   5.490   8.192  2.8982 -0.6440 -1.1802
  965MOL0     H30273   8.935   5.678   8.179 -0.9034 -0.2109  2.3280
  965MOL0     H30274   8.799   5.588   8.108 -0.2276 -2.7190 -0.6592
  965MOL0     H30275   8.890   5.530   8.246  0.4903  1.5545  0.2226
  966MOL0     O30276   3.834  10.719   9.306 -0.5777  0.4921  0.1038
  966MOL0     C30277   3.905  10.621   9.313  1.0832 -0.0392  0.5582
  966MOL0     O30278   3.903  10.531   9.416 -0.6169  0.1537  0.7457
  966MOL0     C30279   3.811  10.522   9.521  0.0760  0.6112 -0.0370
  966MOL0     C30280   3.820  10.406   9.604 -0.2722 -0.1593  0.2972
  966MOL0     C30281   3.746  10.387   9.715  0.2405 -0.2093  0.1235
  966MOL0     C30282   3.670  10.496   9.770  0.0993 -0.5035  0.7034
  966MOL0     O30283   3.610  10.497   9.888 -0.2682  0.2641  0.4487
  966MOL0     C30284   3.504  10.406   9.922 -0.4189 -0.0385  1.0982
  966MOL0     C30285   3.424  10.475  10.015 -0.2061  0.3732  0.1258
  966MOL0     C30286   3.366  10.612   9.960  0.9256  0.0431  0.8266
  966MOL0     C30287   3.223  10.650  10.011 -0.3768  0.2602 -0.9390
  966MOL0     C30288   3.214  10.659  10.173 -0.2736 -0.5542  0.1639
  966MOL0     C30289   3.087  10.712  10.225 -0.0342  0.1195 -0.2376
  966MOL0     C30290   3.086  10.720  10.382  0.2789  0.5962 -0.4422
  966MOL0     C30291   2.950  10.773  10.431 -0.1465 -0.8179 -0.4894
  966MOL0     N30292   2.945  10.918  10.441 -0.2668  0.1796  1.2865
  966MOL0     C30293   2.976  11.013  10.345  0.0870 -1.0976 -0.1294
  966MOL0     C30294   2.936  11.128  10.401 -0.0012  0.4311  0.9701
  966MOL0     C30295   2.964  11.252  10.335  0.6879 -1.1206  0.3307
  966MOL0     C30296   2.827  11.329  10.303  1.0219 -0.4617  0.0558
  966MOL0     C30297   2.751  11.268  10.186 -0.5776 -0.8871 -0.2693
  966MOL0     C30298   2.787  11.338  10.055 -0.0889  0.4196 -0.3337
  966MOL0     O30299   2.921  11.316  10.010 -0.0246 -0.6589 -0.6041
  966MOL0     C30300   2.966  11.364   9.895 -0.1099  0.9217  0.5531
  966MOL0     C30301   2.894  11.435   9.795 -0.0869  0.2619 -0.0730
  966MOL0     C30302   2.951  11.490   9.680  0.0723 -0.1328  0.2623
  966MOL0     C30303   3.086  11.464   9.653 -0.7159  0.4585 -0.0330
  966MOL0     C30304   3.148  11.529   9.535 -0.5026  0.5609  0.1485
  966MOL0     O30305   3.071  11.596   9.447  0.2376 -0.5275 -0.1941
  966MOL0     C30306   3.143  11.670   9.354 -0.3525 -0.3123 -0.1732
  966MOL0     C30307   3.235  11.603   9.267 -0.6135 -0.0278 -0.2725
  966MOL0     C30308   3.292  11.668   9.158  0.0102  0.2755  0.0499
  966MOL0     C30309   3.256  11.809   9.137 -0.0530 -0.1695  1.3447
  966MOL0     O30310   3.317  11.887   9.035 -0.4877 -0.2243 -0.7735
  966MOL0     C30311   3.451  11.842   8.982 -0.1149 -0.1924 -0.5762
  966MOL0     C30312   3.548  11.873   9.104  0.3334 -0.4709 -0.0181
  966MOL0     C30313   3.690  11.855   9.064 -0.4506  0.3583  0.3080
  966MOL0     C30314   3.801  11.885   9.159  0.0446  0.2623 -0.7907
  966MOL0     C30315   3.936  11.875   9.092 -0.0509  0.5597 -0.1305
  966MOL0     C30316   4.055  11.935   9.182 -0.6278 -0.4879  0.6055
  966MOL0     C30317   4.073  12.084   9.146 -0.8369 -0.0003  0.0855
  966MOL0     C30318   4.127  12.162   9.263  0.3191  0.9784  0.2626
  966MOL0    Cl30319   4.303  12.110   9.283  0.1697 -0.8941  0.6729
  966MOL0     C30320   3.163  11.869   9.225  1.0414 -0.3010 -0.1267
  966MOL0     C30321   3.095  11.796   9.326 -0.6681 -0.4946 -0.6514
  966MOL0     O30322   3.266  11.499   9.518 -1.5943  0.2363 -0.4232
  966MOL0     C30323   3.163  11.399   9.754  0.1257  0.0519 -0.4093
  966MOL0     C30324   3.101  11.337   9.870  0.2763 -0.8014 -0.1597
  966MOL0     N30325   2.901  11.113  10.533 -0.3625  0.0152  0.1942
  966MOL0     N30326   2.903  10.987  10.550 -0.2432 -0.2462  0.9141
  966MOL0     C30327   3.655  10.604   9.689  0.1131  0.4580 -0.6255
  966MOL0     C30328   3.730  10.630   9.568 -0.3364  0.2989 -0.2308
  966MOL0     C30329   4.012  10.598   9.215  0.5117  0.2774 -0.0295
  966MOL0     C30330   4.128  10.531   9.262 -0.3313 -0.8732  0.4896
  966MOL0     C30331   4.233  10.504   9.169 -0.0068  0.5670 -0.2850
  966MOL0     C30332   4.226  10.545   9.042 -0.2820 -0.3356 -0.5616
  966MOL0     O30333   4.340  10.548   8.963 -0.0522 -0.3362 -0.3289
  966MOL0     C30334   4.473  10.520   9.020  0.3155 -0.7576 -0.6018
  966MOL0     C30335   4.586  10.550   8.921 -0.0503 -0.2181  0.2493
  966MOL0     C30336   4.723  10.579   8.988 -0.4778 -0.2234  0.4300
  966MOL0     C30337   4.728  10.665   9.112  0.1128 -0.3871  0.2699
  966MOL0     C30338   4.670  10.796   9.082  0.5691  0.4412  0.3497
  966MOL0     C30339   4.624  10.905   9.052 -0.1481  0.1453 -0.1691
  966MOL0     C30340   4.112  10.612   9.000 -0.3176 -0.7742  0.4267
  966MOL0     C30341   4.001  10.635   9.079  0.2075  0.6726 -0.4356
  966MOL0     C30342   3.866  10.684   9.023 -0.5438  0.5806 -0.1820
  966MOL0     H30343   3.873  10.323   9.557  0.6573  0.3644  0.3851
  966MOL0     H30344   3.749  10.295   9.773  0.8455 -1.2787 -1.5290
  966MOL0     H30345   3.451  10.382   9.829  0.2210  2.3169  0.0489
  966MOL0     H30346   3.550  10.326   9.981  0.3936  0.0972  0.6643
  966MOL0     H30347   3.490  10.479  10.102 -0.7585 -1.4496  0.6772
  966MOL0     H30348   3.340  10.417  10.054  1.5055  0.1690  3.8803
  966MOL0     H30349   3.373  10.621   9.851  2.0546  2.1212  1.0169
  966MOL0     H30350   3.423  10.687  10.015  1.7727  0.1856 -0.2111
  966MOL0     H30351   3.198  10.753   9.981 -0.5106  2.1562  4.5993
  966MOL0     H30352   3.147  10.582   9.970 -1.0127  1.8518 -2.5455
  966MOL0     H30353   3.225  10.560  10.217 -1.5453 -0.5577  0.5065
  966MOL0     H30354   3.297  10.724  10.203  0.7438 -1.1949 -1.1712
  966MOL0     H30355   3.079  10.813  10.183  0.2061 -0.3846 -1.5587
  966MOL0     H30356   3.003  10.650  10.192  0.1346 -1.6515  2.4093
  966MOL0     H30357   3.173  10.767  10.427  0.1336  0.0396  0.4350
  966MOL0     H30358   3.081  10.619  10.423 -1.2482  0.2902 -1.2978
  966MOL0     H30359   2.862  10.731  10.381 -0.0760  0.1813 -1.4833
  966MOL0     H30360   2.945  10.742  10.536  1.3276  1.2547  0.2524
  966MOL0     H30361   3.012  11.003  10.243  1.7118 -1.2007  0.4330
  966MOL0     H30362   3.014  11.312  10.412  0.6189 -1.3408  0.5469
  966MOL0     H30363   3.020  11.244  10.241  3.0851 -0.8722  1.6559
  966MOL0     H30364   2.766  11.333  10.393  2.8809 -0.3247  1.3677
  966MOL0     H30365   2.850  11.435  10.289 -1.3873  0.1273  0.1563
  966MOL0     H30366   2.642  11.271  10.199 -0.5013 -2.1188  0.7859
  966MOL0     H30367   2.778  11.163  10.182  3.9441  0.0411  0.6635
  966MOL0     H30368   2.771  11.444  10.076 -1.5279  0.3046 -0.7486
  966MOL0     H30369   2.710  11.313   9.981 -0.7498  2.5428 -0.4255
  966MOL0     H30370   2.788  11.451   9.815  0.1596 -1.5096  3.2190
  966MOL0     H30371   2.890  11.533   9.602 -0.4780 -2.5374 -0.7363
  966MOL0     H30372   3.243  11.496   9.284 -2.9097  0.1336  2.6576
  966MOL0     H30373   3.358  11.605   9.099 -0.5199  1.6567 -2.1499
  966MOL0     H30374   3.439  11.736   8.957 -0.0599 -1.3884  3.5844
  966MOL0     H30375   3.494  11.890   8.894  3.1546 -1.7598  0.0371
  966MOL0     H30376   3.539  11.981   9.121  0.9904 -0.0140 -2.2240
  966MOL0     H30377   3.515  11.814   9.190 -1.0358 -1.4552 -1.1826
  966MOL0     H30378   3.705  11.751   9.033 -3.3415  0.5605 -2.3296
  966MOL0     H30379   3.703  11.909   8.969  0.6301  1.5332  1.0934
  966MOL0     H30380   3.804  11.823   9.249  0.6034 -0.5462 -1.3476
  966MOL0     H30381   3.791  11.990   9.185  1.1546  0.5306 -1.3877
  966MOL0     H30382   3.934  11.925   8.995  1.4681  2.3785  0.7030
  966MOL0     H30383   3.966  11.775   9.061  0.6894  0.5179  0.6652
  966MOL0     H30384   4.023  11.917   9.285  2.8945 -2.3778  1.5243
  966MOL0     H30385   4.144  11.875   9.165 -0.6029  0.0170 -1.3374
  966MOL0     H30386   3.979  12.130   9.117 -1.3609 -1.6129 -0.8930
  966MOL0     H30387   4.139  12.090   9.059  0.3599 -1.0394  0.8793
  966MOL0     H30388   4.126  12.269   9.238  3.5714  1.5955  2.1882
  966MOL0     H30389   4.054  12.142   9.343 -3.8296  1.8817 -2.9360
  966MOL0     H30390   3.145  11.976   9.225 -1.1889 -0.6009  1.3135
  966MOL0     H30391   3.016  11.844   9.384 -1.5291 -0.1458 -2.0737
  966MOL0     H30392   3.267  11.369   9.741 -0.0603 -1.5371  1.2788
  966MOL0     H30393   3.151  11.294   9.956 -3.1620  0.0278  2.4371
  966MOL0     H30394   3.577  10.669   9.726 -0.4728 -1.1647  1.1558
  966MOL0     H30395   3.724  10.725   9.515  0.9915 -0.1867 -1.3125
  966MOL0     H30396   4.140  10.507   9.367 -0.6924  0.6135  0.8995
  966MOL0     H30397   4.317  10.447   9.207  1.6164  1.3823 -2.4412
  966MOL0     H30398   4.488  10.419   9.059  0.0692 -0.9014 -0.8698
  966MOL0     H30399   4.477  10.570   9.117 -2.7472 -5.7012  2.4893
  966MOL0     H30400   4.558  10.635   8.857 -1.0241  3.0523  4.5615
  966MOL0     H30401   4.588  10.464   8.854  1.9931  0.3005 -0.4160
  966MOL0     H30402   4.792  10.628   8.918  2.3355 -1.9847  1.7989
  966MOL0     H30403   4.763  10.478   9.004 -0.1158 -0.3159 -0.9221
  966MOL0     H30404   4.677  10.612   9.193  1.6131 -0.4702  1.2172
  966MOL0     H30405   4.833  10.671   9.145 -0.0676 -0.7157  0.9201
  966MOL0     H30406   4.583  11.003   9.055  0.1010  0.2425  0.3420
  966MOL0     H30407   4.113  10.664   8.905 -0.2586  0.5170  1.1149
  966MOL0     H30408   3.830  10.776   9.070 -2.0384  0.0500 -0.2492
  966MOL0     H30409   3.863  10.705   8.915  1.0163  3.4172  0.2181
  966MOL0     H30410   3.798  10.601   9.042  0.4322 -0.5647 -1.4389
  967MOL0     O30411   4.989   4.898   0.549 -0.0989 -0.9171 -0.1491
  967MOL0     C30412   5.066   4.975   0.478 -0.5272  0.4420  0.1015
  967MOL0     O30413   5.068   5.108   0.485  0.3859 -0.2719 -0.1304
  967MOL0     C30414   4.994   5.157   0.588  0.3748  0.2638  0.2990
  967MOL0     C30415   5.056   5.171   0.714  0.1429  0.1482 -0.1927
  967MOL0     C30416   4.981   5.216   0.822 -0.4034 -0.0877  0.5799
  967MOL0     C30417   4.837   5.259   0.806  0.3296 -0.4296  1.2455
  967MOL0     O30418   4.781   5.308   0.916 -0.5938 -0.3138 -0.5700
  967MOL0     C30419   4.633   5.316   0.926 -0.7910  0.3815 -0.2327
  967MOL0     C30420   4.593   5.337   1.075  0.2800  0.3041 -0.1981
  967MOL0     C30421   4.629   5.478   1.131 -1.1962  0.6139 -0.1312
  967MOL0     C30422   4.536   5.585   1.086  0.7852 -1.2980 -0.6551
  967MOL0     C30423   4.576   5.719   1.157  0.6203  0.1500 -0.0106
  967MOL0     C30424   4.516   5.740   1.303 -0.1235 -0.6321  0.7624
  967MOL0     C30425   4.572   5.858   1.380  0.7985 -0.0917 -0.0989
  967MOL0     C30426   4.722   5.837   1.418 -0.1052 -0.0882 -0.4220
  967MOL0     N30427   4.792   5.966   1.440 -0.1127  0.4430 -0.9643
  967MOL0     C30428   4.784   6.036   1.557 -0.7687  0.4887  0.4986
  967MOL0     C30429   4.851   6.151   1.527  1.8955  0.0243 -0.6288
  967MOL0     C30430   4.851   6.278   1.610  1.2417 -0.4726  0.5083
  967MOL0     C30431   4.730   6.372   1.602  0.2648  0.7602 -0.4461
  967MOL0     C30432   4.736   6.460   1.470 -0.6936  0.4833 -0.2738
  967MOL0     C30433   4.627   6.558   1.468 -0.3663 -0.7053  0.2191
  967MOL0     O30434   4.642   6.657   1.573 -0.4066 -0.4718 -0.0463
  967MOL0     C30435   4.712   6.777   1.557  0.4679 -0.1565 -0.4582
  967MOL0     C30436   4.769   6.825   1.440  0.9042  0.0362 -0.0020
  967MOL0     C30437   4.834   6.947   1.431 -0.0680  0.2631  0.2222
  967MOL0     C30438   4.851   7.023   1.540  0.8414 -0.0527 -0.4310
  967MOL0     C30439   4.909   7.162   1.527  0.3077 -0.6256 -0.3805
  967MOL0     O30440   4.930   7.219   1.405 -0.6943  0.0148  0.2094
  967MOL0     C30441   4.992   7.346   1.404 -0.2627 -0.0088 -1.5824
  967MOL0     C30442   4.936   7.433   1.316 -0.1390 -0.4086 -0.0779
  967MOL0     C30443   4.998   7.554   1.288 -1.0160 -0.5767  0.6243
  967MOL0     C30444   5.110   7.599   1.363  0.0356 -0.6237 -0.3296
  967MOL0     O30445   5.166   7.720   1.328  0.2449  0.9764  0.5573
  967MOL0     C30446   5.277   7.771   1.395 -0.1219  0.0512  0.5233
  967MOL0     C30447   5.230   7.832   1.535  0.1156 -0.3578  0.1161
  967MOL0     C30448   5.315   7.946   1.585  0.0871 -0.1339 -1.2354
  967MOL0     C30449   5.263   8.005   1.714 -0.7674  0.9218  0.6857
  967MOL0     C30450   5.337   7.952   1.838 -0.0715  0.3155 -0.1827
  967MOL0     C30451   5.276   7.999   1.974 -0.0690 -0.2337  0.0461
  967MOL0     C30452   5.134   7.934   1.997  0.3298  0.8947  0.6688
  967MOL0     C30453   5.121   7.778   2.005  0.5328 -0.0093  0.1915
  967MOL0    Cl30454   4.987   7.731   2.108 -0.2660 -0.3353  0.0578
  967MOL0     C30455   5.160   7.505   1.455 -0.5919 -0.1590  0.0896
  967MOL0     C30456   5.111   7.379   1.482  0.7917 -0.2438  0.1191
  967MOL0     O30457   4.932   7.216   1.634  0.2061  0.7389 -0.1180
  967MOL0     C30458   4.787   6.985   1.661 -1.1043  0.2692  0.6337
  967MOL0     C30459   4.732   6.857   1.667  0.4182  0.7982 -0.1957
  967MOL0     N30460   4.883   6.154   1.395  0.6409  0.1510 -0.2055
  967MOL0     N30461   4.851   6.044   1.345 -0.0144  0.0557  0.6767
  967MOL0     C30462   4.783   5.243   0.682 -0.2071 -0.7172  0.0576
  967MOL0     C30463   4.858   5.198   0.572 -0.8704  0.6074 -0.5842
  967MOL0     C30464   5.184   4.908   0.405  0.1684 -0.7335  0.5194
  967MOL0     C30465   5.277   4.995   0.341 -0.8540  0.0275  0.5220
  967MOL0     C30466   5.392   4.946   0.270  0.2498 -0.1298 -0.7051
  967MOL0     C30467   5.415   4.810   0.273 -0.2770 -0.1892 -1.2931
  967MOL0     O30468   5.537   4.754   0.223 -0.1095 -0.2857 -0.2767
  967MOL0     C30469   5.575   4.798   0.095 -1.0253  0.7637 -0.0588
  967MOL0     C30470   5.676   4.716   0.022  0.3220  0.2996 -0.4236
  967MOL0     C30471   5.707   4.762  -0.114 -0.9976  0.6282 -0.0581
  967MOL0     C30472   5.845   4.695  -0.154 -0.2690 -0.8908 -0.6526
  967MOL0     C30473   5.830   4.557  -0.192  0.1636 -0.4928 -0.3800
  967MOL0     C30474   5.789   4.442  -0.204 -0.5251 -0.2808  0.2890
  967MOL0     C30475   5.320   4.730   0.333 -0.3632  0.7432 -0.1457
  967MOL0     C30476   5.206   4.770   0.393  0.9625  0.7226  1.2623
  967MOL0     C30477   5.107   4.664   0.439 -0.2717 -0.5874  1.0574
  967MOL0     H30478   5.162   5.150   0.727  1.0459  4.0119 -0.0817
  967MOL0     H30479   5.025   5.242   0.917  2.2959 -3.1543  0.3159
  967MOL0     H30480   4.586   5.402   0.878  0.3746  2.8551  2.7283
  967MOL0     H30481   4.591   5.220   0.895 -1.1356  0.1182  0.9884
  967MOL0     H30482   4.641   5.260   1.137  0.2083  1.1233  0.9169
  967MOL0     H30483   4.484   5.328   1.084 -0.2899  1.0262 -4.4367
  967MOL0     H30484   4.728   5.491   1.087  0.4788 -4.5869  1.3218
  967MOL0     H30485   4.633   5.483   1.240  0.4043  1.5400 -0.2077
  967MOL0     H30486   4.539   5.604   0.979  3.1013  3.8654  0.0059
  967MOL0     H30487   4.430   5.567   1.102 -0.0319  2.2023 -1.3113
  967MOL0     H30488   4.685   5.730   1.151  0.9934 -2.4575  0.6771
  967MOL0     H30489   4.541   5.799   1.091  1.3881  1.0320  0.6300
  967MOL0     H30490   4.408   5.753   1.293  0.2660  2.0721 -0.8815
  967MOL0     H30491   4.535   5.651   1.363  0.3759 -2.4668 -1.9155
  967MOL0     H30492   4.507   5.866   1.467  1.8021 -2.2636  0.9297
  967MOL0     H30493   4.562   5.951   1.322  1.2410 -0.3470 -0.6032
  967MOL0     H30494   4.739   5.764   1.498  1.8871 -2.1185 -2.5541
  967MOL0     H30495   4.786   5.792   1.341 -0.3828 -1.0891 -0.0910
  967MOL0     H30496   4.738   6.008   1.651 -1.0926 -0.2365  0.1386
  967MOL0     H30497   4.882   6.249   1.711  2.3063  1.5061  0.7877
  967MOL0     H30498   4.937   6.335   1.574  0.1634  0.9487  0.0912
  967MOL0     H30499   4.635   6.316   1.604 -0.0712  1.3323 -0.2295
  967MOL0     H30500   4.728   6.440   1.687  1.0378 -0.1031  0.2742
  967MOL0     H30501   4.735   6.404   1.376 -0.9313  0.7616 -0.4359
  967MOL0     H30502   4.836   6.504   1.461  0.9538 -3.0543 -1.5885
  967MOL0     H30503   4.533   6.508   1.493 -1.2051 -0.0157 -1.3832
  967MOL0     H30504   4.610   6.614   1.375 -1.0053 -0.3904  0.5172
  967MOL0     H30505   4.756   6.767   1.350 -0.3592  1.7151 -0.9558
  967MOL0     H30506   4.869   6.964   1.330  0.1407 -0.7970  0.1057
  967MOL0     H30507   4.842   7.396   1.277 -1.5395  2.5863  0.2392
  967MOL0     H30508   4.959   7.606   1.201  2.7202 -0.8742 -1.4402
  967MOL0     H30509   5.363   7.705   1.406  2.4312  3.0449 -0.1802
  967MOL0     H30510   5.321   7.843   1.325 -1.6791 -0.3829 -0.9861
  967MOL0     H30511   5.133   7.880   1.518  1.1471  1.2356 -1.6851
  967MOL0     H30512   5.216   7.755   1.612  1.0433  0.8746  1.5703
  967MOL0     H30513   5.412   7.898   1.599 -0.7086 -1.2791  0.8041
  967MOL0     H30514   5.322   8.029   1.514  0.3034  2.0754  1.2047
  967MOL0     H30515   5.156   7.988   1.723 -1.0012  1.6767 -0.4349
  967MOL0     H30516   5.282   8.113   1.712  0.6644  0.6816 -0.9648
  967MOL0     H30517   5.437   7.990   1.816  0.7632 -2.5718 -1.9589
  967MOL0     H30518   5.344   7.843   1.823  0.6474  0.3765 -0.3297
  967MOL0     H30519   5.344   7.967   2.054 -2.6759 -3.0110  1.3166
  967MOL0     H30520   5.286   8.108   1.984  1.0319 -0.3821  0.6677
  967MOL0     H30521   5.063   7.979   1.928  1.9684  0.7213 -1.2237
  967MOL0     H30522   5.100   7.974   2.093  0.7029  2.8614  0.0407
  967MOL0     H30523   5.113   7.728   1.908  2.4772 -0.1235  0.0388
  967MOL0     H30524   5.212   7.734   2.048  1.4918 -1.1950 -2.7530
  967MOL0     H30525   5.235   7.539   1.526 -1.9802  1.5180  0.8405
  967MOL0     H30526   5.164   7.323   1.558 -0.4291  1.6830  2.5517
  967MOL0     H30527   4.781   7.045   1.751 -3.9203 -0.3789  0.9545
  967MOL0     H30528   4.694   6.826   1.764  2.1246 -0.6029  0.0809
  967MOL0     H30529   4.681   5.276   0.666 -1.0943 -2.3278  1.9350
  967MOL0     H30530   4.808   5.189   0.476 -1.7985 -1.2811  0.0314
  967MOL0     H30531   5.261   5.102   0.333  1.0948  0.3732  0.7414
  967MOL0     H30532   5.464   5.002   0.211  0.7185 -2.9080 -3.0183
  967MOL0     H30533   5.629   4.892   0.102  1.2766 -0.3992 -1.1038
  967MOL0     H30534   5.495   4.791   0.020  0.8493 -0.5659 -2.0476
  967MOL0     H30535   5.648   4.611   0.026  2.6357 -0.3835 -0.7986
  967MOL0     H30536   5.764   4.729   0.086 -0.8769  0.8064  1.1921
  967MOL0     H30537   5.727   4.869  -0.104  3.4855 -0.1475  1.9288
  967MOL0     H30538   5.639   4.739  -0.197  2.7212 -1.3740 -2.8985
  967MOL0     H30539   5.890   4.754  -0.234  0.8279  0.2298  0.7435
  967MOL0     H30540   5.915   4.716  -0.073 -0.4009 -1.8305 -0.2869
  967MOL0     H30541   5.759   4.339  -0.200 -0.2831 -0.3455  0.4499
  967MOL0     H30542   5.330   4.622   0.332 -2.9675  0.4126  0.5963
  967MOL0     H30543   5.147   4.566   0.411 -1.4991 -1.6770  2.8969
  967MOL0     H30544   5.103   4.663   0.548 -4.7539  3.0995  1.2128
  967MOL0     H30545   5.008   4.675   0.395  0.4255  0.5199 -0.2945
  968MOL0     O30546   2.635   9.985   4.939  0.1999 -0.0037  0.7558
  968MOL0     C30547   2.584   9.875   4.924 -0.1169  0.3669  0.5072
  968MOL0     O30548   2.605   9.792   4.818 -0.0473 -0.4693 -0.3737
  968MOL0     C30549   2.718   9.823   4.750  0.1995  0.8379 -0.2877
  968MOL0     C30550   2.841   9.772   4.793 -0.2042 -0.1955  0.4009
  968MOL0     C30551   2.960   9.798   4.721  0.6587 -0.6491  0.5805
  968MOL0     C30552   2.950   9.879   4.607 -0.0837  0.6583  0.6757
  968MOL0     O30553   3.059   9.903   4.528  0.1625  0.3000 -0.5857
  968MOL0     C30554   3.126   9.789   4.473  0.3904 -0.3087  0.1838
  968MOL0     C30555   3.235   9.840   4.376 -0.2630 -0.9247  0.4060
  968MOL0     C30556   3.366   9.765   4.389  0.5018  0.5145 -0.3365
  968MOL0     C30557   3.465   9.790   4.275 -0.2695  0.1617  0.2206
  968MOL0     C30558   3.564   9.662   4.246  0.3163 -0.6743 -0.2790
  968MOL0     C30559   3.498   9.559   4.152 -0.4868 -0.5617 -0.0423
  968MOL0     C30560   3.600   9.445   4.127  0.2593 -0.8676 -0.2056
  968MOL0     C30561   3.599   9.328   4.229 -0.2636  0.4793 -0.7759
  968MOL0     N30562   3.677   9.206   4.198 -0.2388 -0.5481 -0.7184
  968MOL0     C30563   3.816   9.197   4.205  1.3632  0.7535  0.9693
  968MOL0     C30564   3.834   9.078   4.142  0.1136 -0.3457  0.1369
  968MOL0     C30565   3.964   9.006   4.119  0.4341  0.1499  0.3233
  968MOL0     C30566   4.003   8.886   4.209  0.2997 -0.4474  0.5692
  968MOL0     C30567   4.002   8.928   4.352 -1.0135  0.2181 -0.7051
  968MOL0     C30568   4.066   8.824   4.438  0.4550  0.2368  0.7949
  968MOL0     O30569   4.199   8.830   4.428 -0.5045 -0.3021 -0.4218
  968MOL0     C30570   4.280   8.748   4.509  1.1162 -0.6497  0.0284
  968MOL0     C30571   4.415   8.748   4.482  0.8224  0.4002  0.0777
  968MOL0     C30572   4.500   8.651   4.524  0.0818 -0.0450 -0.3154
  968MOL0     C30573   4.466   8.553   4.624  0.3835 -0.2372  0.3769
  968MOL0     C30574   4.556   8.463   4.691 -0.0442  1.2860  0.3612
  968MOL0     O30575   4.505   8.344   4.754  0.9961  0.0964  0.1909
  968MOL0     C30576   4.593   8.238   4.795  0.0311  0.0986  0.0208
  968MOL0     C30577   4.559   8.143   4.895  0.0539 -0.6719 -1.0652
  968MOL0     C30578   4.628   8.025   4.913  0.8340 -0.2863  0.0923
  968MOL0     C30579   4.748   8.005   4.858  0.7100 -0.6192 -0.4837
  968MOL0     O30580   4.804   7.883   4.893 -0.7694 -0.4240  0.4133
  968MOL0     C30581   4.917   7.837   4.806 -0.4905  0.9627  0.5821
  968MOL0     C30582   4.869   7.767   4.681  0.1220 -0.0398 -0.2862
  968MOL0     C30583   4.977   7.722   4.584 -0.3074  0.6532 -0.0169
  968MOL0     C30584   4.914   7.623   4.481  0.7392  0.3373  0.3540
  968MOL0     C30585   5.000   7.545   4.386 -0.2966 -0.4548  0.1700
  968MOL0     C30586   5.115   7.617   4.306 -0.3562 -0.4689  0.8188
  968MOL0     C30587   5.060   7.735   4.224 -0.4010 -1.0652 -0.2304
  968MOL0     C30588   5.174   7.774   4.121 -1.5715  0.1498 -0.0075
  968MOL0    Cl30589   5.326   7.838   4.219  0.2980  0.0190  0.3144
  968MOL0     C30590   4.802   8.108   4.776  0.1276 -0.1255  0.0656
  968MOL0     C30591   4.714   8.211   4.728  0.4711 -0.2701 -0.5143
  968MOL0     O30592   4.673   8.489   4.688  0.0224  0.1049  0.1307
  968MOL0     C30593   4.324   8.559   4.659  0.1615 -0.0562 -0.7185
  968MOL0     C30594   4.231   8.649   4.604 -0.2572  0.2578  0.5197
  968MOL0     N30595   3.713   9.027   4.093  0.5843  0.2507 -0.0022
  968MOL0     N30596   3.623   9.105   4.130  0.9783 -0.1073 -0.1927
  968MOL0     C30597   2.831   9.907   4.559  0.6620 -0.2350  0.3506
  968MOL0     C30598   2.705   9.886   4.623 -0.1705  0.8758 -0.2492
  968MOL0     C30599   2.493   9.818   5.025  0.4862  0.0769  0.8893
  968MOL0     C30600   2.405   9.711   4.984 -1.1721  0.7242  0.3684
  968MOL0     C30601   2.313   9.664   5.077  0.3428 -0.4523  0.5865
  968MOL0     C30602   2.307   9.699   5.206 -0.1236  0.0131  1.0620
  968MOL0     O30603   2.213   9.638   5.279  0.0449 -0.0682  0.3643
  968MOL0     C30604   2.247   9.523   5.355 -1.1957 -0.1719  0.3345
  968MOL0     C30605   2.120   9.464   5.420 -0.2916 -0.2122  0.2461
  968MOL0     C30606   2.020   9.569   5.472  0.3718 -0.5520  0.0216
  968MOL0     C30607   1.918   9.498   5.564  0.0587  0.7105  0.3507
  968MOL0     C30608   1.812   9.571   5.637  0.0099  0.3159  0.5257
  968MOL0     C30609   1.734   9.656   5.674  0.3164 -0.0513  0.4236
  968MOL0     C30610   2.386   9.809   5.241  1.4021  0.6651  0.5626
  968MOL0     C30611   2.483   9.864   5.155  0.6253  0.4351 -0.7157
  968MOL0     C30612   2.564   9.970   5.206 -0.3279  0.0875 -1.2923
  968MOL0     H30613   2.851   9.713   4.883  0.8237 -0.5478  0.0700
  968MOL0     H30614   3.047   9.749   4.764  1.0330 -1.4258 -1.0159
  968MOL0     H30615   3.173   9.731   4.553  0.9166 -0.0215  0.0834
  968MOL0     H30616   3.064   9.719   4.415  0.0190 -1.0699  1.4603
  968MOL0     H30617   3.263   9.940   4.407 -0.9013 -0.2799 -1.0054
  968MOL0     H30618   3.201   9.849   4.273 -2.1412 -1.1304  0.9690
  968MOL0     H30619   3.341   9.659   4.386 -0.0987  0.4791  2.6447
  968MOL0     H30620   3.413   9.777   4.487  0.5176  2.7435 -0.5645
  968MOL0     H30621   3.419   9.804   4.177  1.6153 -1.3877 -0.9537
  968MOL0     H30622   3.520   9.882   4.299 -0.7587  0.2982  0.8550
  968MOL0     H30623   3.654   9.711   4.209  0.9694 -2.6536 -1.5062
  968MOL0     H30624   3.593   9.614   4.340  1.4565  0.2730 -0.1291
  968MOL0     H30625   3.407   9.513   4.189 -1.0683  1.7716  1.5953
  968MOL0     H30626   3.478   9.611   4.057  1.3564 -0.6999 -0.5564
  968MOL0     H30627   3.696   9.488   4.101 -1.0059  1.3653 -1.4738
  968MOL0     H30628   3.562   9.394   4.038 -0.5991 -1.1826  0.3233
  968MOL0     H30629   3.640   9.382   4.315  1.0114  0.4493 -1.3478
  968MOL0     H30630   3.494   9.299   4.241 -0.0625  0.7706  2.3913
  968MOL0     H30631   3.880   9.269   4.255  1.7171 -0.0682  1.7167
  968MOL0     H30632   3.949   8.973   4.015 -2.8359  1.7967  0.1365
  968MOL0     H30633   4.051   9.073   4.125  1.4167 -1.0819  0.1849
  968MOL0     H30634   3.934   8.803   4.192 -0.6692  0.1711  1.3693
  968MOL0     H30635   4.107   8.863   4.183  0.2641  1.6997 -1.8101
  968MOL0     H30636   3.900   8.937   4.391 -0.7230 -0.1249  0.1682
  968MOL0     H30637   4.056   9.018   4.382 -1.3614 -1.1628  5.3049
  968MOL0     H30638   4.018   8.726   4.429 -0.1586  0.5062  1.0858
  968MOL0     H30639   4.051   8.851   4.543  0.0817  3.6549 -0.0455
  968MOL0     H30640   4.445   8.827   4.414  2.1507  0.0404  0.2345
  968MOL0     H30641   4.605   8.656   4.497  0.1656  1.6919  0.2392
  968MOL0     H30642   4.473   8.164   4.958  0.1822  1.3452 -1.4907
  968MOL0     H30643   4.582   7.944   4.969  0.7970  0.7350  1.6109
  968MOL0     H30644   4.994   7.907   4.773  0.7614 -1.2675 -1.5924
  968MOL0     H30645   4.967   7.766   4.872 -1.5849  1.9009  2.4927
  968MOL0     H30646   4.793   7.690   4.696  0.9124 -1.0156 -1.1300
  968MOL0     H30647   4.815   7.846   4.628  0.2366  0.5544  0.4612
  968MOL0     H30648   5.019   7.806   4.528  2.2034 -1.2639 -1.1753
  968MOL0     H30649   5.052   7.665   4.640 -1.5428  0.4293  1.4889
  968MOL0     H30650   4.828   7.667   4.431 -0.3101 -0.0794  1.7197
  968MOL0     H30651   4.870   7.546   4.544 -1.5081  1.7840  0.6745
  968MOL0     H30652   4.930   7.491   4.322 -2.6325 -1.1466  3.0657
  968MOL0     H30653   5.058   7.474   4.445 -0.0826  0.3219  0.9167
  968MOL0     H30654   5.203   7.651   4.361  0.9691 -0.5347 -1.1597
  968MOL0     H30655   5.166   7.547   4.240 -1.8817  1.6032 -2.8870
  968MOL0     H30656   5.028   7.807   4.299  1.1662 -3.3450  2.8568
  968MOL0     H30657   4.972   7.702   4.168  0.0386 -1.2329 -0.8418
  968MOL0     H30658   5.194   7.685   4.061 -1.4233 -1.4498  2.2930
  968MOL0     H30659   5.142   7.851   4.050 -2.0582  0.2556  0.3189
  968MOL0     H30660   4.902   8.105   4.733  0.3938 -2.1305  0.7028
  968MOL0     H30661   4.758   8.268   4.647 -1.1367 -1.0215 -1.9956
  968MOL0     H30662   4.290   8.487   4.732 -1.0227  1.7162  0.5710
  968MOL0     H30663   4.125   8.653   4.627 -1.1135  2.1454 -2.9876
  968MOL0     H30664   2.848   9.958   4.465  1.9737  1.6135  1.5100
  968MOL0     H30665   2.618   9.917   4.565  1.1631  0.6574 -2.4822
  968MOL0     H30666   2.421   9.665   4.887 -1.6231 -1.4076  1.2612
  968MOL0     H30667   2.248   9.580   5.054 -0.6854  0.2070  1.0133
  968MOL0     H30668   2.314   9.541   5.439 -0.3494 -0.1440 -0.3308
  968MOL0     H30669   2.279   9.443   5.287 -1.2274 -0.8003  1.0533
  968MOL0     H30670   2.150   9.397   5.501  3.3506  1.8611  0.8345
  968MOL0     H30671   2.072   9.397   5.347  1.9261 -1.7178  0.0644
  968MOL0     H30672   1.958   9.611   5.392  0.8731  0.3800  0.1123
  968MOL0     H30673   2.079   9.648   5.519  3.1855 -1.6793 -1.3777
  968MOL0     H30674   1.866   9.421   5.507  1.3118 -1.3142  1.7794
  968MOL0     H30675   1.973   9.432   5.633  0.1644  0.0959 -0.3145
  968MOL0     H30676   1.663   9.724   5.718 -2.0034 -3.0939  1.7031
  968MOL0     H30677   2.366   9.841   5.342 -1.8148  1.5580 -0.2475
  968MOL0     H30678   2.671   9.952   5.193  0.0794  2.6169 -2.1290
  968MOL0     H30679   2.547  10.057   5.141  1.0003  0.0612 -1.7070
  968MOL0     H30680   2.552   9.996   5.311  1.0695 -0.1032 -1.0610
  969MOL0     O30681   1.493   7.262   9.325 -0.2351  0.8878  0.6194
  969MOL0     C30682   1.591   7.335   9.299 -0.6036  1.0171 -0.4045
  969MOL0     O30683   1.681   7.370   9.399  0.2221  0.3181  0.0259
  969MOL0     C30684   1.670   7.290   9.510  0.1250  0.4725 -0.4296
  969MOL0     C30685   1.700   7.147   9.513 -0.2690  0.1970 -0.0567
  969MOL0     C30686   1.692   7.071   9.639  0.1525 -0.5133 -0.5980
  969MOL0     C30687   1.648   7.141   9.748 -0.3875 -0.4838 -0.0971
  969MOL0     O30688   1.654   7.062   9.860  0.4965 -0.2242  0.8715
  969MOL0     C30689   1.594   7.110   9.988  0.7533 -0.2565 -0.2594
  969MOL0     C30690   1.629   6.997  10.088 -0.5149  0.0971 -0.2155
  969MOL0     C30691   1.786   6.963  10.094  0.9927  0.0380  0.2938
  969MOL0     C30692   1.797   6.823  10.155  0.0848 -0.4953  1.5161
  969MOL0     C30693   1.928   6.804  10.235 -0.0553 -0.0984  0.6496
  969MOL0     C30694   1.961   6.914  10.337 -0.0608 -0.3477  0.3042
  969MOL0     C30695   2.020   6.848  10.463 -0.2956 -0.0045 -0.7438
  969MOL0     C30696   2.071   6.956  10.554  0.0099 -0.5476  0.1453
  969MOL0     N30697   1.969   7.048  10.608  0.6850  0.1892  0.2243
  969MOL0     C30698   1.913   7.146  10.538 -0.5322  0.1911 -0.3747
  969MOL0     C30699   1.832   7.206  10.625  0.2288 -0.5749 -0.6597
  969MOL0     C30700   1.770   7.342  10.609 -0.6135  0.0222  0.4190
  969MOL0     C30701   1.729   7.382  10.466 -0.3864  0.3481  1.3782
  969MOL0     C30702   1.615   7.316  10.401  0.2593  0.9353 -0.0516
  969MOL0     C30703   1.542   7.404  10.304  0.3324 -0.4266  1.3510
  969MOL0     O30704   1.636   7.450  10.209  0.0475  0.8236  0.1645
  969MOL0     C30705   1.582   7.520  10.101 -0.8175  0.4571 -0.0720
  969MOL0     C30706   1.446   7.534  10.075  0.9534 -1.0063  1.0044
  969MOL0     C30707   1.403   7.582   9.945 -0.2852 -0.6919  0.0300
  969MOL0     C30708   1.497   7.629   9.854 -0.3415  0.0825 -0.3754
  969MOL0     C30709   1.454   7.680   9.717  0.4665  0.6749 -0.4973
  969MOL0     O30710   1.552   7.719   9.639  0.0608 -0.2955 -0.7231
  969MOL0     C30711   1.528   7.755   9.507 -0.3318  0.1079 -0.3528
  969MOL0     C30712   1.618   7.855   9.449 -0.1047  0.6277 -0.4429
  969MOL0     C30713   1.599   7.881   9.319  0.3131 -0.0238  0.3167
  969MOL0     C30714   1.506   7.818   9.234 -0.6063  0.5005  0.2590
  969MOL0     O30715   1.508   7.828   9.093  0.0731 -0.3458 -0.2301
  969MOL0     C30716   1.436   7.944   9.046 -0.2795  0.7856  0.4787
  969MOL0     C30717   1.286   7.951   9.037 -0.6198  0.0402 -0.7093
  969MOL0     C30718   1.220   7.829   8.970 -0.1234  0.1748  0.7907
  969MOL0     C30719   1.192   7.863   8.815  0.4881  0.3415  0.5244
  969MOL0     C30720   1.154   7.740   8.732  0.0321 -0.5296  0.0747
  969MOL0     C30721   1.140   7.763   8.577 -0.6958  0.8114 -0.1169
  969MOL0     C30722   1.012   7.834   8.542 -0.3900  0.0262  0.7802
  969MOL0     C30723   1.014   7.890   8.399  1.1406 -0.3880  0.2742
  969MOL0    Cl30724   1.095   8.056   8.397 -0.0157 -0.0382  0.7237
  969MOL0     C30725   1.425   7.723   9.294  0.5047 -0.5199  0.0144
  969MOL0     C30726   1.434   7.685   9.425 -0.7901  0.4507  0.7025
  969MOL0     O30727   1.336   7.706   9.698  1.0663 -0.2563 -0.7365
  969MOL0     C30728   1.638   7.605   9.886  0.9223 -1.1424  0.3318
  969MOL0     C30729   1.675   7.556  10.004 -0.7244  1.2478  0.2629
  969MOL0     N30730   1.834   7.134  10.745 -0.6651  0.5192  1.0577
  969MOL0     N30731   1.918   7.036  10.729 -0.4458  0.3136 -0.2178
  969MOL0     C30732   1.613   7.279   9.748 -0.2614  0.6394 -0.0312
  969MOL0     C30733   1.633   7.355   9.634  0.4134 -0.1248  0.3630
  969MOL0     C30734   1.594   7.405   9.173  0.7256 -0.4762  0.3685
  969MOL0     C30735   1.487   7.373   9.081  0.2905 -1.6336  0.4815
  969MOL0     C30736   1.487   7.431   8.955 -0.7773  0.1193 -0.1590
  969MOL0     C30737   1.574   7.536   8.921  0.3833 -0.1441 -0.5301
  969MOL0     O30738   1.540   7.585   8.794 -0.2539  0.3615  0.3443
  969MOL0     C30739   1.601   7.692   8.735 -0.1108  0.6667  0.1938
  969MOL0     C30740   1.592   7.691   8.579  0.1825 -0.6908 -0.6423
  969MOL0     C30741   1.706   7.787   8.520  0.3476  0.7277  0.2234
  969MOL0     C30742   1.672   7.931   8.573  0.3864  0.7897  0.4958
  969MOL0     C30743   1.792   8.024   8.550  0.7309 -0.7885 -0.4176
  969MOL0     C30744   1.892   8.082   8.542 -0.9845 -0.5822 -0.1311
  969MOL0     C30745   1.694   7.539   8.989 -0.3871 -0.2189  0.8034
  969MOL0     C30746   1.701   7.485   9.124 -0.3941  0.1581  0.1113
  969MOL0     C30747   1.833   7.499   9.202  0.8362 -0.4614  0.7109
  969MOL0     H30748   1.736   7.098   9.423  0.7090 -0.0988  0.4734
  969MOL0     H30749   1.718   6.966   9.646 -1.6606 -1.0176 -0.9912
  969MOL0     H30750   1.634   7.208  10.016 -2.2312  0.2181  2.9733
  969MOL0     H30751   1.485   7.119   9.980  0.6673 -0.3424  0.7372
  969MOL0     H30752   1.563   6.912  10.071 -1.0647  0.3968  0.4048
  969MOL0     H30753   1.610   7.033  10.189  2.7592 -2.2315  1.4148
  969MOL0     H30754   1.848   7.040  10.140  1.6015  0.5061 -1.2656
  969MOL0     H30755   1.827   6.953   9.993  0.2255 -0.9338  0.0649
  969MOL0     H30756   1.722   6.808  10.233 -0.6814 -0.1695  0.8576
  969MOL0     H30757   1.791   6.744  10.080  1.3047  1.2922 -0.5853
  969MOL0     H30758   1.929   6.701  10.270 -2.4126 -0.8495 -1.2092
  969MOL0     H30759   2.010   6.808  10.163 -1.5813  1.4666 -1.0984
  969MOL0     H30760   2.019   6.997  10.295  0.0580  0.2394  1.5911
  969MOL0     H30761   1.863   6.950  10.368  0.0673 -0.4286  0.8220
  969MOL0     H30762   2.111   6.795  10.434  0.2017 -0.9776  2.2526
  969MOL0     H30763   1.948   6.787  10.518  0.0996 -2.3315 -2.6504
  969MOL0     H30764   2.131   6.912  10.634 -1.5640 -0.2972  1.5244
  969MOL0     H30765   2.130   7.022  10.489 -2.8671 -0.3244 -2.4963
  969MOL0     H30766   1.932   7.167  10.433  1.2856  0.7648  0.0310
  969MOL0     H30767   1.677   7.324  10.664 -2.5854 -2.9026 -3.3670
  969MOL0     H30768   1.832   7.419  10.655  0.1275 -0.2503 -0.0995
  969MOL0     H30769   1.703   7.488  10.464 -0.3592  0.3379  0.4237
  969MOL0     H30770   1.820   7.376  10.406  0.2316 -1.1125  2.3900
  969MOL0     H30771   1.546   7.281  10.479 -2.5880  1.7052 -2.0792
  969MOL0     H30772   1.662   7.228  10.357  1.3997  0.9623  1.0362
  969MOL0     H30773   1.479   7.482  10.348 -0.3805 -0.7208  0.8638
  969MOL0     H30774   1.471   7.333  10.260 -0.4372 -0.6371  2.8316
  969MOL0     H30775   1.370   7.489  10.138 -0.2377 -1.7414 -0.8606
  969MOL0     H30776   1.298   7.585   9.919 -0.3128 -3.8003 -0.6305
  969MOL0     H30777   1.695   7.915   9.497  1.7488 -0.5498 -1.7752
  969MOL0     H30778   1.674   7.952   9.287  0.0123 -0.6645 -1.9971
  969MOL0     H30779   1.474   8.029   9.104  0.2468 -0.9472  2.8061
  969MOL0     H30780   1.458   7.958   8.940  1.3436  5.0861  1.1596
  969MOL0     H30781   1.236   7.957   9.134  0.1719 -0.8197 -0.2425
  969MOL0     H30782   1.262   8.047   8.989 -1.7904  1.2618  2.0909
  969MOL0     H30783   1.291   7.746   8.975  2.1727  1.9809  0.3236
  969MOL0     H30784   1.124   7.824   9.021  0.0868  0.6860  1.2570
  969MOL0     H30785   1.290   7.892   8.774  0.7463  2.2666  2.3322
  969MOL0     H30786   1.112   7.936   8.803 -2.3186 -2.9230 -3.2088
  969MOL0     H30787   1.062   7.700   8.774  0.9877  0.0624  2.9538
  969MOL0     H30788   1.238   7.673   8.751  1.9757  1.8111  0.2593
  969MOL0     H30789   1.236   7.803   8.542  0.1930 -1.5075 -0.4670
  969MOL0     H30790   1.140   7.667   8.526 -0.2867  1.5981 -1.6653
  969MOL0     H30791   0.997   7.919   8.610  2.3671  1.7072 -0.5293
  969MOL0     H30792   0.930   7.761   8.545  0.2950 -0.7376  2.7113
  969MOL0     H30793   1.076   7.828   8.334  0.6416 -0.8338  0.2120
  969MOL0     H30794   0.914   7.896   8.355  1.0628 -2.1486  0.1349
  969MOL0     H30795   1.350   7.666   9.240 -1.3237  0.4109  1.4721
  969MOL0     H30796   1.370   7.605   9.460  1.2161 -1.5337  0.1259
  969MOL0     H30797   1.729   7.625   9.829  1.5187  1.3905  1.9765
  969MOL0     H30798   1.781   7.539  10.019 -1.0819  0.7390  2.5876
  969MOL0     H30799   1.578   7.326   9.839 -1.2619 -4.5899  2.6170
  969MOL0     H30800   1.592   7.455   9.625  2.2585  0.6553  0.2065
  969MOL0     H30801   1.405   7.308   9.110 -1.1724  1.1159  3.0460
  969MOL0     H30802   1.407   7.399   8.890 -1.4143  1.8500 -0.2877
  969MOL0     H30803   1.701   7.711   8.775 -1.0661  0.9317  2.6609
  969MOL0     H30804   1.535   7.771   8.773  1.3811  2.1773 -0.2173
  969MOL0     H30805   1.489   7.712   8.552 -0.8499 -1.6787  2.2160
  969MOL0     H30806   1.621   7.589   8.552 -0.9209 -0.7623 -1.6506
  969MOL0     H30807   1.707   7.797   8.411  1.3894  2.0010  0.3330
  969MOL0     H30808   1.805   7.750   8.548  0.1596 -2.3520 -2.6077
  969MOL0     H30809   1.585   7.965   8.517  2.2762  1.5601 -2.1894
  969MOL0     H30810   1.645   7.947   8.678  1.6134  1.3243  0.7523
  969MOL0     H30811   1.979   8.145   8.543 -1.6452  0.3610  0.6875
  969MOL0     H30812   1.777   7.584   8.935 -0.7757 -1.2872 -0.7380
  969MOL0     H30813   1.870   7.400   9.230 -4.5300 -2.1072  3.5760
  969MOL0     H30814   1.913   7.535   9.137  1.1178 -1.6363  0.3825
  969MOL0     H30815   1.829   7.558   9.294 -1.6523 -0.9050  0.9550
  970MOL0     O30816   3.921   5.469   3.343  0.5773 -0.8236  0.5741
  970MOL0     C30817   4.028   5.442   3.286 -0.0690  0.3189 -0.0557
  970MOL0     O30818   4.097   5.323   3.294  0.3202 -0.0059 -0.6993
  970MOL0     C30819   4.041   5.223   3.369  0.1800 -0.2601 -0.1089
  970MOL0     C30820   4.018   5.226   3.506  0.1999  0.1588 -0.0501
  970MOL0     C30821   3.951   5.124   3.570 -0.3905 -0.9094 -0.1882
  970MOL0     C30822   3.910   5.015   3.500 -0.4721  0.4770  0.0253
  970MOL0     O30823   3.830   4.922   3.567 -0.3922  0.2098 -0.1280
  970MOL0     C30824   3.759   4.815   3.497 -0.7682 -1.3295  0.0320
  970MOL0     C30825   3.691   4.723   3.604  0.0955 -0.0431 -0.1854
  970MOL0     C30826   3.790   4.622   3.665 -0.5441 -0.2262  0.2847
  970MOL0     C30827   3.873   4.669   3.785  0.0260 -0.4440 -0.8806
  970MOL0     C30828   3.966   4.553   3.832 -0.3908 -0.1418  0.1413
  970MOL0     C30829   4.022   4.609   3.962 -0.4749 -0.1473 -0.1481
  970MOL0     C30830   4.131   4.518   4.019  0.4431  0.2022 -0.1785
  970MOL0     C30831   4.237   4.587   4.108  0.1089  0.4748  0.8050
  970MOL0     N30832   4.189   4.616   4.243  1.0173  0.3878 -0.8916
  970MOL0     C30833   4.277   4.597   4.346 -0.2830  0.5258 -0.7366
  970MOL0     C30834   4.202   4.600   4.458  0.0831  0.0713 -0.1251
  970MOL0     C30835   4.261   4.561   4.593 -0.0590 -0.2293  0.0978
  970MOL0     C30836   4.268   4.406   4.599 -0.1766  0.4294 -0.1490
  970MOL0     C30837   4.363   4.360   4.716 -0.6706 -0.0386  0.2947
  970MOL0     C30838   4.380   4.201   4.730 -0.5518  0.9048 -0.2838
  970MOL0     O30839   4.510   4.185   4.781  0.2535  0.0969 -0.5747
  970MOL0     C30840   4.621   4.189   4.696 -0.0715  0.6743 -0.1613
  970MOL0     C30841   4.746   4.192   4.760  0.6675  0.0643 -0.1772
  970MOL0     C30842   4.868   4.172   4.690  0.1988 -0.1323 -0.4783
  970MOL0     C30843   4.864   4.178   4.547  0.6118 -0.0817 -0.6920
  970MOL0     C30844   4.990   4.158   4.462 -0.2083  0.3881  0.1453
  970MOL0     O30845   5.114   4.184   4.516 -0.4269  0.7954  0.0384
  970MOL0     C30846   5.224   4.105   4.498 -0.0698  0.7732  0.1007
  970MOL0     C30847   5.212   3.963   4.533  0.5510  0.7548 -0.2357
  970MOL0     C30848   5.320   3.873   4.519 -0.5148 -0.2182  0.0155
  970MOL0     C30849   5.436   3.923   4.476 -0.2372 -0.0274  0.2973
  970MOL0     O30850   5.554   3.855   4.451 -0.0554 -0.5477  0.7700
  970MOL0     C30851   5.554   3.722   4.446 -0.5915  1.8781 -0.4918
  970MOL0     C30852   5.700   3.668   4.412  0.6359 -0.5313 -0.6982
  970MOL0     C30853   5.702   3.516   4.422  0.6695  0.2356 -0.4459
  970MOL0     C30854   5.836   3.449   4.378  0.4687  0.0307 -1.1885
  970MOL0     C30855   5.834   3.295   4.395  0.4392 -0.5685 -0.9104
  970MOL0     C30856   5.973   3.242   4.370  0.4056 -0.3691 -0.8923
  970MOL0     C30857   6.019   3.253   4.220 -0.6731  1.0342 -0.5613
  970MOL0     C30858   5.927   3.188   4.119 -0.5345  0.4365 -0.3282
  970MOL0    Cl30859   5.896   3.004   4.139  0.2793 -0.5978  0.0972
  970MOL0     C30860   5.451   4.057   4.447 -0.8862 -0.5320 -0.4196
  970MOL0     C30861   5.346   4.150   4.449 -0.7107 -1.1548 -0.5100
  970MOL0     O30862   4.975   4.103   4.357  0.2511 -0.1600 -0.2353
  970MOL0     C30863   4.735   4.190   4.485 -0.5156  1.4173 -0.5862
  970MOL0     C30864   4.617   4.179   4.552  0.0082  0.6737  0.1753
  970MOL0     N30865   4.066   4.626   4.423  0.1919 -0.8684 -0.0146
  970MOL0     N30866   4.061   4.637   4.295  0.6251 -0.3135  0.2950
  970MOL0     C30867   3.943   5.000   3.360 -0.1932 -0.1912  1.3256
  970MOL0     C30868   4.018   5.109   3.295 -0.3825  0.4859 -0.3765
  970MOL0     C30869   4.101   5.553   3.219 -0.2309  0.1843  1.4211
  970MOL0     C30870   4.236   5.565   3.253  1.2463  0.0388 -0.3842
  970MOL0     C30871   4.319   5.653   3.184 -0.1593 -0.1366 -0.4609
  970MOL0     C30872   4.261   5.754   3.100  0.3436  0.6716 -0.6229
  970MOL0     O30873   4.351   5.854   3.052 -0.8468  0.0839  0.4080
  970MOL0     C30874   4.319   5.908   2.921  0.2179 -0.3372 -0.2399
  970MOL0     C30875   4.230   6.039   2.929 -0.1795  0.2421 -0.2422
  970MOL0     C30876   4.277   6.155   2.839  1.1645 -0.4972  0.0518
  970MOL0     C30877   4.163   6.260   2.823 -0.3696  0.0860  0.3468
  970MOL0     C30878   4.174   6.351   2.705  0.5756 -0.1903 -0.6219
  970MOL0     C30879   4.196   6.429   2.612 -0.3486  0.2048 -0.4242
  970MOL0     C30880   4.122   5.742   3.063  1.3915 -0.0260 -0.0477
  970MOL0     C30881   4.046   5.643   3.120  0.4518  0.4827 -0.3015
  970MOL0     C30882   3.903   5.645   3.063  0.8407 -0.6109  0.4327
  970MOL0     H30883   4.037   5.309   3.573 -0.4628 -0.9227  1.5420
  970MOL0     H30884   3.938   5.123   3.678  1.4433 -1.6041  0.0700
  970MOL0     H30885   3.685   4.856   3.428 -1.3100 -2.2803  0.0244
  970MOL0     H30886   3.827   4.751   3.439 -0.2542 -0.8380  0.0844
  970MOL0     H30887   3.612   4.667   3.553 -0.8045  2.5512 -1.8814
  970MOL0     H30888   3.641   4.784   3.680 -0.0530 -0.8008  0.3350
  970MOL0     H30889   3.873   4.595   3.599  1.5966  1.1285  2.2805
  970MOL0     H30890   3.727   4.540   3.700 -1.9914  0.7480  0.0412
  970MOL0     H30891   3.925   4.765   3.778 -0.3235  0.0999  2.4706
  970MOL0     H30892   3.804   4.696   3.865 -1.2200  0.1627 -2.1175
  970MOL0     H30893   3.925   4.452   3.844 -0.1381 -0.2113  0.4474
  970MOL0     H30894   4.050   4.541   3.764 -0.3663 -2.0395  0.4403
  970MOL0     H30895   4.043   4.717   3.957  0.3899 -0.3227 -0.5097
  970MOL0     H30896   3.941   4.596   4.035  1.0458 -1.7497  1.3319
  970MOL0     H30897   4.194   4.475   3.941 -0.8572 -2.1408 -0.0154
  970MOL0     H30898   4.089   4.433   4.074 -0.1529 -0.1572 -1.1621
  970MOL0     H30899   4.319   4.514   4.107 -0.9569 -0.8263 -1.7498
  970MOL0     H30900   4.285   4.673   4.061  0.1704  0.3589  0.6536
  970MOL0     H30901   4.378   4.557   4.341 -1.0619 -1.4407 -2.1066
  970MOL0     H30902   4.367   4.588   4.603  0.3857 -1.6166 -0.5954
  970MOL0     H30903   4.206   4.607   4.676  0.9911 -2.5285  2.1962
  970MOL0     H30904   4.175   4.349   4.599 -0.5975  1.0754  1.0926
  970MOL0     H30905   4.322   4.376   4.509  1.6594  0.7385  0.7993
  970MOL0     H30906   4.329   4.395   4.814 -1.4348 -1.6305  0.6222
  970MOL0     H30907   4.463   4.399   4.696 -0.9693 -0.9451 -3.8358
  970MOL0     H30908   4.374   4.155   4.631  3.6353 -2.2522  0.6526
  970MOL0     H30909   4.305   4.158   4.797 -0.4518 -0.2837 -0.9164
  970MOL0     H30910   4.744   4.184   4.868  0.6372 -0.3936 -0.2064
  970MOL0     H30911   4.957   4.156   4.750 -2.1086  0.9563  3.6674
  970MOL0     H30912   5.127   3.912   4.577  0.9962  1.8116  1.9885
  970MOL0     H30913   5.309   3.767   4.534  2.6051 -0.2975  2.8481
  970MOL0     H30914   5.523   3.683   4.543  2.3428 -0.8094 -0.4523
  970MOL0     H30915   5.482   3.677   4.377  1.2213  1.1050 -1.9670
  970MOL0     H30916   5.730   3.712   4.316  2.0746  1.3457  0.5406
  970MOL0     H30917   5.775   3.698   4.485 -0.8821  0.0068  0.6934
  970MOL0     H30918   5.681   3.482   4.524 -0.4320 -0.4258 -0.8682
  970MOL0     H30919   5.625   3.476   4.355 -0.7165  0.8646  0.7017
  970MOL0     H30920   5.903   3.511   4.438 -1.8507 -0.5544  2.3178
  970MOL0     H30921   5.849   3.475   4.273 -0.9106 -0.0906 -1.4068
  970MOL0     H30922   5.767   3.242   4.327  1.0832  1.0201 -2.8560
  970MOL0     H30923   5.793   3.283   4.496 -0.0135 -1.2525 -1.1657
  970MOL0     H30924   6.047   3.300   4.425 -0.7058  2.0822 -1.8540
  970MOL0     H30925   5.989   3.147   4.422  0.8372  1.6425  3.0537
  970MOL0     H30926   6.117   3.204   4.227 -2.2631 -2.2333  0.7505
  970MOL0     H30927   6.013   3.356   4.182 -0.0856 -0.0682 -3.9214
  970MOL0     H30928   5.835   3.245   4.110 -0.2610  0.6986 -1.7507
  970MOL0     H30929   5.962   3.203   4.016 -1.0479  1.9139 -0.3101
  970MOL0     H30930   5.544   4.097   4.408 -0.9718  0.6160  0.4903
  970MOL0     H30931   5.365   4.256   4.433  1.6135 -0.8808  2.9643
  970MOL0     H30932   4.730   4.180   4.377 -0.3196 -1.0695 -0.4092
  970MOL0     H30933   4.526   4.185   4.494 -1.9976  1.0941  3.1891
  970MOL0     H30934   3.907   4.917   3.300  1.0987  0.6593 -0.7203
  970MOL0     H30935   4.038   5.119   3.188  0.6144  2.0374 -0.0714
  970MOL0     H30936   4.284   5.501   3.327 -1.3756 -2.1542 -0.3874
  970MOL0     H30937   4.426   5.666   3.195  0.0076 -0.9478 -1.0784
  970MOL0     H30938   4.272   5.839   2.850  4.3417  0.7360 -4.5238
  970MOL0     H30939   4.421   5.924   2.886  0.0290  0.9909 -0.2617
  970MOL0     H30940   4.216   6.069   3.033  3.9936 -2.1164  1.2348
  970MOL0     H30941   4.133   5.996   2.903  0.2015  1.1887 -3.7770
  970MOL0     H30942   4.306   6.110   2.744  0.1259 -0.0475 -0.4928
  970MOL0     H30943   4.365   6.199   2.887 -0.0864  0.0545  1.9672
  970MOL0     H30944   4.069   6.206   2.809 -0.0095 -0.2602 -0.8176
  970MOL0     H30945   4.170   6.330   2.907  0.0374  2.6935 -1.7057
  970MOL0     H30946   4.218   6.493   2.529  1.7941  0.0039 -0.0492
  970MOL0     H30947   4.082   5.806   2.984  3.1891  1.5145  0.2082
  970MOL0     H30948   3.900   5.614   2.958 -0.6696 -0.1207  0.3156
  970MOL0     H30949   3.845   5.567   3.114  0.6532  0.6391  2.2239
  970MOL0     H30950   3.841   5.735   3.064  1.2895 -0.2534  2.5651
  971MOL0     O30951   1.977   7.526   2.156 -0.4631 -0.0429 -0.1256
  971MOL0     C30952   1.974   7.632   2.219  0.5852  0.1016  0.2384
  971MOL0     O30953   1.971   7.640   2.358  0.0607  0.1772 -0.5577
  971MOL0     C30954   1.984   7.522   2.420  0.0325 -0.5183  0.4975
  971MOL0     C30955   2.109   7.462   2.430  0.0947  0.0601  0.9345
  971MOL0     C30956   2.120   7.346   2.503  0.3534  1.0594  0.6163
  971MOL0     C30957   2.003   7.295   2.572  0.0572  0.6540 -0.0635
  971MOL0     O30958   2.012   7.183   2.653 -0.0765  0.1262 -0.1673
  971MOL0     C30959   1.971   7.201   2.781 -0.3318  1.3757  0.7330
  971MOL0     C30960   1.949   7.068   2.846 -0.1034  0.6657 -0.5013
  971MOL0     C30961   2.078   6.982   2.848 -0.2178  0.7012  0.1052
  971MOL0     C30962   2.212   7.044   2.890  0.2356  0.4338  0.1719
  971MOL0     C30963   2.324   6.952   2.854  0.3573 -0.2383  0.5334
  971MOL0     C30964   2.343   6.831   2.948 -0.0739 -0.4157  0.1600
  971MOL0     C30965   2.442   6.727   2.892 -0.2963  0.2603 -0.1800
  971MOL0     C30966   2.514   6.636   2.998  0.0662  1.1588  0.4255
  971MOL0     N30967   2.601   6.536   2.922  0.0788  0.3160 -0.2795
  971MOL0     C30968   2.698   6.575   2.833 -0.3420 -0.2833  0.1538
  971MOL0     C30969   2.772   6.467   2.807  0.3854 -0.1469 -0.4079
  971MOL0     C30970   2.884   6.455   2.714 -1.1466 -0.0653  0.2810
  971MOL0     C30971   3.003   6.527   2.777  0.3369  0.2993  0.3041
  971MOL0     C30972   3.094   6.576   2.666  0.3143 -0.4936  0.5675
  971MOL0     C30973   3.240   6.602   2.699 -0.5034 -1.6416  0.5635
  971MOL0     O30974   3.240   6.734   2.762 -0.7247  0.1299  0.0174
  971MOL0     C30975   3.346   6.823   2.749 -0.3605  0.6645  0.2461
  971MOL0     C30976   3.438   6.818   2.644 -1.0666  0.2250  0.0926
  971MOL0     C30977   3.557   6.886   2.643 -0.3246 -0.7059 -0.4264
  971MOL0     C30978   3.567   6.997   2.731  0.1999  0.2806  0.3375
  971MOL0     C30979   3.691   7.081   2.724  0.3725 -0.2001 -0.2791
  971MOL0     O30980   3.688   7.196   2.801 -0.0509 -0.0051 -0.1611
  971MOL0     C30981   3.803   7.272   2.801  0.5345 -0.4352  0.2935
  971MOL0     C30982   3.817   7.377   2.710  0.8209 -0.9123 -0.9380
  971MOL0     C30983   3.938   7.448   2.718  0.4675 -0.2221  0.5675
  971MOL0     C30984   4.025   7.439   2.821 -0.4535 -0.0981  0.4527
  971MOL0     O30985   4.133   7.535   2.822 -0.4072 -0.2583  0.7125
  971MOL0     C30986   4.211   7.538   2.939  0.2330 -0.0830 -0.7093
  971MOL0     C30987   4.307   7.659   2.922 -0.5251  0.2895 -0.8298
  971MOL0     C30988   4.244   7.797   2.895  0.0495 -0.4428  0.3909
  971MOL0     C30989   4.346   7.910   2.907  0.9047 -0.8878 -0.1733
  971MOL0     C30990   4.277   8.037   2.966  0.2664  1.1282 -0.3049
  971MOL0     C30991   4.389   8.142   3.001  1.3287 -0.9013 -0.4000
  971MOL0     C30992   4.442   8.207   2.871  0.5248  0.1022 -0.3005
  971MOL0     C30993   4.517   8.335   2.894 -0.5071 -0.7265 -0.5479
  971MOL0    Cl30994   4.655   8.294   3.002 -0.1948 -0.2214 -0.3491
  971MOL0     C30995   4.009   7.344   2.924 -1.1013  0.3334  0.1908
  971MOL0     C30996   3.901   7.259   2.905 -0.2769  0.0793 -0.0822
  971MOL0     O30997   3.781   7.050   2.651  0.3926  0.2902 -0.1509
  971MOL0     C30998   3.465   7.023   2.828 -0.3750  0.4381  0.4155
  971MOL0     C30999   3.353   6.927   2.840  0.2414 -0.1463 -0.4138
  971MOL0     N31000   2.719   6.367   2.883 -0.7368  0.4403  0.1461
  971MOL0     N31001   2.611   6.403   2.943  0.2291  0.3791 -0.1248
  971MOL0     C31002   1.879   7.355   2.542 -0.3914  0.6227 -0.4430
  971MOL0     C31003   1.872   7.473   2.477 -0.8316  0.3194 -0.9220
  971MOL0     C31004   2.010   7.755   2.153 -0.8461  0.8670 -0.4536
  971MOL0     C31005   2.096   7.847   2.214  0.9162 -0.3070  0.4941
  971MOL0     C31006   2.114   7.970   2.153 -0.4062  0.3149  0.3430
  971MOL0     C31007   2.053   8.007   2.036  0.0496  0.2762 -0.3169
  971MOL0     O31008   2.050   8.136   2.000  0.0130  0.1206 -0.0284
  971MOL0     C31009   2.144   8.174   1.898  0.1475  0.3162 -0.4719
  971MOL0     C31010   2.276   8.209   1.949  0.1213 -0.9505  0.6641
  971MOL0     C31011   2.376   8.282   1.844  0.8566  0.2833  0.2533
  971MOL0     C31012   2.442   8.188   1.748 -0.4500  0.0784 -0.1615
  971MOL0     C31013   2.520   8.268   1.660 -0.0845  0.1907  0.2131
  971MOL0     C31014   2.597   8.328   1.596  0.1362  0.5028  0.0874
  971MOL0     C31015   1.978   7.911   1.979  0.0286 -0.2986 -0.1970
  971MOL0     C31016   1.961   7.782   2.023 -0.9543 -0.7729  0.7427
  971MOL0     C31017   1.887   7.691   1.932  0.5578 -0.4543  0.5845
  971MOL0     H31018   2.198   7.506   2.386  0.1511 -1.3972 -0.4979
  971MOL0     H31019   2.213   7.292   2.519 -1.0187 -1.9540 -0.8803
  971MOL0     H31020   2.040   7.262   2.840 -0.1116  2.5074 -0.6259
  971MOL0     H31021   1.882   7.262   2.795 -2.8971 -2.2479  1.7396
  971MOL0     H31022   1.861   7.018   2.805  0.6952 -1.7015  0.4843
  971MOL0     H31023   1.935   7.084   2.953 -0.1553 -3.6913  0.3418
  971MOL0     H31024   2.089   6.944   2.746  0.6632 -1.3316  0.9016
  971MOL0     H31025   2.063   6.894   2.910 -0.1147  1.4310  1.1838
  971MOL0     H31026   2.228   7.142   2.844 -1.2321 -0.2394 -1.9239
  971MOL0     H31027   2.196   7.069   2.995 -0.6331  2.1801 -0.3377
  971MOL0     H31028   2.319   6.911   2.752  3.1914  0.1775  0.1338
  971MOL0     H31029   2.411   7.018   2.845  2.0235 -2.3869 -0.2014
  971MOL0     H31030   2.370   6.890   3.036 -1.0233  2.0838 -1.1204
  971MOL0     H31031   2.245   6.784   2.961 -0.1981 -0.8368 -1.9184
  971MOL0     H31032   2.519   6.773   2.830  0.8853 -0.5333  0.6643
  971MOL0     H31033   2.388   6.661   2.822  0.3968  0.7459 -1.1948
  971MOL0     H31034   2.576   6.712   3.046 -0.3154  2.2859 -0.8077
  971MOL0     H31035   2.449   6.590   3.072 -0.3639  0.6483 -0.2574
  971MOL0     H31036   2.724   6.675   2.800 -0.4518 -1.5481 -4.3779
  971MOL0     H31037   2.913   6.355   2.681 -1.5248  0.5326 -2.0374
  971MOL0     H31038   2.854   6.515   2.627 -2.9376 -0.3575  0.6560
  971MOL0     H31039   2.957   6.606   2.837 -3.2305 -0.9368 -0.5087
  971MOL0     H31040   3.058   6.461   2.845  0.0725 -0.0806  0.1533
  971MOL0     H31041   3.040   6.662   2.627 -1.6624 -0.7823  2.4521
  971MOL0     H31042   3.095   6.520   2.572  1.9000 -0.3893  0.4838
  971MOL0     H31043   3.296   6.601   2.605 -2.1535  0.5164 -0.5420
  971MOL0     H31044   3.279   6.527   2.769 -0.8530 -0.5105  2.0224
  971MOL0     H31045   3.435   6.738   2.571 -2.4675 -0.5166  0.9314
  971MOL0     H31046   3.629   6.881   2.562 -0.5486 -1.1724 -0.6066
  971MOL0     H31047   3.739   7.395   2.636  1.2268 -1.0210 -1.3912
  971MOL0     H31048   3.961   7.516   2.637  1.8142  0.6583  1.6486
  971MOL0     H31049   4.151   7.555   3.029  0.4233  3.2652 -1.0708
  971MOL0     H31050   4.266   7.444   2.949 -0.1745 -0.4621 -1.8961
  971MOL0     H31051   4.367   7.653   3.014 -0.9530 -0.6294 -0.5963
  971MOL0     H31052   4.365   7.624   2.836 -1.8806 -1.3577 -1.1339
  971MOL0     H31053   4.197   7.807   2.797  1.4405  1.0803 -0.1539
  971MOL0     H31054   4.167   7.818   2.970 -0.2842  0.0757 -0.0964
  971MOL0     H31055   4.381   7.917   2.804 -2.6542 -2.5808 -1.6961
  971MOL0     H31056   4.429   7.885   2.973  1.6930  0.4815 -0.6261
  971MOL0     H31057   4.235   7.997   3.059 -0.4880 -1.5067 -1.6751
  971MOL0     H31058   4.195   8.076   2.905 -0.0345 -0.9132 -1.3120
  971MOL0     H31059   4.361   8.219   3.074 -0.7882 -1.1721 -0.8479
  971MOL0     H31060   4.478   8.093   3.042  2.4422  1.7875  0.6101
  971MOL0     H31061   4.357   8.230   2.807 -0.8092  0.0825  1.3805
  971MOL0     H31062   4.500   8.140   2.808 -0.2709  1.1065 -2.1593
  971MOL0     H31063   4.562   8.376   2.803 -1.4475  2.0502  0.1398
  971MOL0     H31064   4.461   8.418   2.938  1.7670  0.6358 -0.0533
  971MOL0     H31065   4.078   7.324   3.006  0.2323 -1.8010 -1.3360
  971MOL0     H31066   3.900   7.182   2.982  0.1944  1.4164  1.3258
  971MOL0     H31067   3.481   7.099   2.903 -0.7890  0.2682  0.6821
  971MOL0     H31068   3.277   6.957   2.911 -1.1777  1.9277 -2.6367
  971MOL0     H31069   1.784   7.323   2.585 -0.6408  3.8021  1.7560
  971MOL0     H31070   1.777   7.525   2.465  0.5213  2.9933 -0.9595
  971MOL0     H31071   2.149   7.829   2.308 -0.9169 -1.1834  1.4221
  971MOL0     H31072   2.174   8.054   2.187 -2.2347  2.8606 -2.2195
  971MOL0     H31073   2.103   8.249   1.830  1.4570  1.9887  0.5061
  971MOL0     H31074   2.159   8.086   1.835 -0.8455 -0.2429  0.0574
  971MOL0     H31075   2.324   8.118   1.988  2.6755 -1.4181 -3.0704
  971MOL0     H31076   2.250   8.272   2.034 -2.4588 -0.4149 -0.4498
  971MOL0     H31077   2.456   8.336   1.896  1.6628  1.2068 -1.8382
  971MOL0     H31078   2.319   8.353   1.784  1.7319 -0.1624 -1.1492
  971MOL0     H31079   2.503   8.112   1.797 -1.8326 -0.9091  0.1030
  971MOL0     H31080   2.364   8.134   1.693  0.7517 -0.1233 -1.7331
  971MOL0     H31081   2.662   8.383   1.531  2.1673 -1.2778  0.4931
  971MOL0     H31082   1.931   7.944   1.887  4.2804 -0.2433 -2.6211
  971MOL0     H31083   1.891   7.730   1.830 -1.6146  1.9882  1.3124
  971MOL0     H31084   1.942   7.599   1.911 -2.0030 -1.1263 -5.1598
  971MOL0     H31085   1.781   7.670   1.950  0.1169  1.5175  0.4936
  972MOL0     O31086   1.782   4.279   7.276  0.0406  0.2481 -0.8985
  972MOL0     C31087   1.817   4.173   7.318  0.0524 -0.3324  0.4995
  972MOL0     O31088   1.738   4.087   7.383 -0.1416 -0.1394  0.7667
  972MOL0     C31089   1.600   4.105   7.393 -0.7806  0.3727 -0.2822
  972MOL0     C31090   1.551   4.074   7.521 -0.6430 -1.1322 -0.7666
  972MOL0     C31091   1.413   4.076   7.539 -0.2149  0.8193 -0.0558
  972MOL0     C31092   1.321   4.095   7.436 -0.1753  0.2539  0.1172
  972MOL0     O31093   1.180   4.095   7.457  0.1163  0.3670 -0.1133
  972MOL0     C31094   1.129   4.020   7.574 -0.2977  0.3277 -0.1509
  972MOL0     C31095   0.977   3.987   7.579  0.1222 -0.3242  0.3763
  972MOL0     C31096   0.932   3.943   7.441 -0.2975  0.3722 -0.0767
  972MOL0     C31097   0.786   3.896   7.446 -0.0961 -0.0049 -0.9638
  972MOL0     C31098   0.684   3.992   7.383 -0.5443  0.5916 -0.1331
  972MOL0     C31099   0.611   4.087   7.487 -0.2416  0.2320 -0.0210
  972MOL0     C31100   0.493   4.151   7.413 -1.1093  0.3190  0.3717
  972MOL0     C31101   0.368   4.070   7.396 -0.4317 -0.2602  0.7406
  972MOL0     N31102   0.309   4.046   7.526  0.3083 -0.1520 -0.3113
  972MOL0     C31103   0.249   4.147   7.598 -0.2528  0.4306 -0.4934
  972MOL0     C31104   0.166   4.077   7.683 -0.0647 -1.4506  1.0913
  972MOL0     C31105   0.076   4.159   7.775 -0.8289 -0.3000  0.5554
  972MOL0     C31106  -0.010   4.267   7.701 -0.0577 -1.1612  0.0221
  972MOL0     C31107  -0.114   4.203   7.611  1.2196 -1.4921 -1.2191
  972MOL0     C31108  -0.191   4.310   7.540  0.4403  0.4097 -0.4943
  972MOL0     O31109  -0.293   4.250   7.458  0.4348  0.1470  0.2988
  972MOL0     C31110  -0.387   4.324   7.401  0.2967  0.2726  0.3640
  972MOL0     C31111  -0.388   4.460   7.387  1.2226 -0.2503 -0.2421
  972MOL0     C31112  -0.485   4.526   7.307 -0.0992  0.5753  0.0329
  972MOL0     C31113  -0.583   4.458   7.239 -0.9037 -0.1436  0.5990
  972MOL0     C31114  -0.682   4.531   7.162  0.0087 -0.7942 -0.4270
  972MOL0     O31115  -0.766   4.452   7.093  1.0032  0.1382 -0.2943
  972MOL0     C31116  -0.847   4.506   7.001 -0.5354 -0.4157  0.1731
  972MOL0     C31117  -0.982   4.472   6.998 -0.4282  0.2452 -0.2501
  972MOL0     C31118  -1.056   4.526   6.893 -0.3868 -0.5791 -0.2207
  972MOL0     C31119  -1.004   4.601   6.783  0.1156  0.0898 -0.4066
  972MOL0     O31120  -1.092   4.631   6.680  0.6952 -0.0780  0.0189
  972MOL0     C31121  -1.033   4.643   6.550  0.2850 -0.9100 -0.1257
  972MOL0     C31122  -0.957   4.518   6.508 -0.1362  0.1801  0.4875
  972MOL0     C31123  -1.064   4.413   6.470  0.3854 -0.3358  0.8084
  972MOL0     C31124  -1.011   4.320   6.365 -0.2535 -0.9847 -0.0486
  972MOL0     C31125  -1.027   4.386   6.224 -0.4958 -1.1161 -1.1892
  972MOL0     C31126  -0.979   4.274   6.121 -0.6669  0.1915 -0.2287
  972MOL0     C31127  -1.021   4.314   5.970 -0.8295  0.4367 -0.6370
  972MOL0     C31128  -1.008   4.192   5.882  1.1602  0.4339 -0.3395
  972MOL0    Cl31129  -0.843   4.133   5.855 -0.2721  0.3694  0.0008
  972MOL0     C31130  -0.869   4.622   6.789  0.1428 -0.2096  0.1124
  972MOL0     C31131  -0.797   4.587   6.900 -0.1540  0.0585  0.8067
  972MOL0     O31132  -0.691   4.655   7.165 -1.0619 -0.1005  0.0979
  972MOL0     C31133  -0.591   4.314   7.264  0.3841 -1.0792 -0.9619
  972MOL0     C31134  -0.490   4.255   7.332 -0.5217  0.3864  0.2831
  972MOL0     N31135   0.172   3.939   7.657 -0.8603 -0.6976  0.2256
  972MOL0     N31136   0.263   3.924   7.570  1.3122 -0.3632 -0.6466
  972MOL0     C31137   1.374   4.136   7.315 -0.7215  0.5929  0.0838
  972MOL0     C31138   1.513   4.144   7.290  0.8530  0.8212 -0.3637
  972MOL0     C31139   1.971   4.148   7.317  0.5976 -0.5216  0.6866
  972MOL0     C31140   2.012   4.016   7.314  0.6302 -0.1370  0.0597
  972MOL0     C31141   2.140   3.970   7.300 -1.2503 -0.1217 -0.8559
  972MOL0     C31142   2.242   4.060   7.289  0.9000 -0.4603 -0.9707
  972MOL0     O31143   2.371   4.035   7.271  0.5196 -0.8214 -0.1301
  972MOL0     C31144   2.418   3.907   7.246  0.1929  0.1663 -0.9845
  972MOL0     C31145   2.445   3.829   7.379 -0.5052  0.1300 -0.3075
  972MOL0     C31146   2.564   3.729   7.391 -0.8525 -0.2028 -0.6389
  972MOL0     C31147   2.682   3.773   7.310 -0.3186 -0.6083  0.3097
  972MOL0     C31148   2.815   3.718   7.353  0.4187  0.4823  0.3097
  972MOL0     C31149   2.920   3.696   7.401 -0.3143 -0.4098 -0.1516
  972MOL0     C31150   2.210   4.191   7.297 -0.0070  0.0650 -0.3469
  972MOL0     C31151   2.074   4.236   7.308 -0.2821 -0.2250  0.7941
  972MOL0     C31152   2.061   4.381   7.303 -0.3502 -0.3030  0.1780
  972MOL0     H31153   1.626   4.055   7.597 -3.2626 -4.5762  1.2158
  972MOL0     H31154   1.384   4.062   7.642 -0.9146 -0.0022 -0.3548
  972MOL0     H31155   1.171   3.918   7.570  0.9200  0.7361  1.1205
  972MOL0     H31156   1.158   4.056   7.673  2.2330 -0.4385 -0.5311
  972MOL0     H31157   0.920   4.073   7.616  2.1944  1.5769 -0.5479
  972MOL0     H31158   0.959   3.900   7.642 -1.1254  0.1693  0.7219
  972MOL0     H31159   0.999   3.862   7.411 -0.3126  0.9580 -1.8046
  972MOL0     H31160   0.937   4.025   7.369 -1.0431  2.0112  1.6392
  972MOL0     H31161   0.782   3.805   7.385 -0.1553  0.2888 -1.4049
  972MOL0     H31162   0.755   3.873   7.548  0.5252  0.5333 -0.6530
  972MOL0     H31163   0.720   4.044   7.294 -2.2756 -2.0611 -2.5443
  972MOL0     H31164   0.603   3.926   7.351 -1.6807  2.1252 -0.5378
  972MOL0     H31165   0.575   4.025   7.570 -1.2027 -2.2027 -2.1101
  972MOL0     H31166   0.680   4.155   7.536  0.4991 -0.9086  0.5753
  972MOL0     H31167   0.526   4.173   7.312 -1.3136  1.5235  0.5625
  972MOL0     H31168   0.462   4.244   7.461 -1.5840  2.1438 -3.1608
  972MOL0     H31169   0.299   4.122   7.328 -0.3432 -0.1697  0.7201
  972MOL0     H31170   0.394   3.978   7.342 -3.1270 -0.5486 -0.2395
  972MOL0     H31171   0.269   4.252   7.578 -1.0906  0.7219  0.1173
  972MOL0     H31172   0.023   4.090   7.842  1.0593 -0.1353  2.3055
  972MOL0     H31173   0.148   4.211   7.839 -1.0932  0.4484  0.2664
  972MOL0     H31174  -0.067   4.324   7.775 -2.4912 -3.4867  0.1192
  972MOL0     H31175   0.042   4.337   7.636  0.5141  0.7376  2.3808
  972MOL0     H31176  -0.191   4.147   7.665 -1.2154 -0.6076 -3.5206
  972MOL0     H31177  -0.065   4.135   7.542  1.2161 -1.4302 -1.2838
  972MOL0     H31178  -0.128   4.376   7.480 -0.8764  0.0866 -2.3501
  972MOL0     H31179  -0.231   4.375   7.618  3.4157  1.5131  0.2361
  972MOL0     H31180  -0.320   4.533   7.430 -1.5990  3.4969 -1.5776
  972MOL0     H31181  -0.470   4.632   7.293 -0.2066  0.2755 -2.7487
  972MOL0     H31182  -1.020   4.420   7.085  0.1694 -3.1005 -1.8222
  972MOL0     H31183  -1.164   4.514   6.891 -0.5967  0.8697  1.1941
  972MOL0     H31184  -1.109   4.665   6.474 -0.1054 -0.7625  0.3099
  972MOL0     H31185  -0.969   4.731   6.558 -0.9497 -0.1350  1.8911
  972MOL0     H31186  -0.898   4.547   6.420 -1.5926  2.0229  0.0678
  972MOL0     H31187  -0.897   4.484   6.593 -1.2539 -0.1483  1.1638
  972MOL0     H31188  -1.089   4.361   6.563  3.2468 -1.5554  0.9924
  972MOL0     H31189  -1.159   4.448   6.428  0.4755 -0.8349  0.1876
  972MOL0     H31190  -1.068   4.228   6.382 -1.2107 -0.4618 -0.3313
  972MOL0     H31191  -0.905   4.302   6.385 -0.3349 -1.8536 -0.3920
  972MOL0     H31192  -0.966   4.477   6.216 -0.5799 -1.1777 -3.0056
  972MOL0     H31193  -1.126   4.418   6.192  0.7125  3.2887 -1.2143
  972MOL0     H31194  -0.872   4.266   6.143 -0.3902  4.1492  0.5939
  972MOL0     H31195  -1.018   4.175   6.148  1.9806 -0.8792  0.0639
  972MOL0     H31196  -0.970   4.399   5.925 -0.6830  0.2162 -0.8840
  972MOL0     H31197  -1.127   4.342   5.968 -1.5607 -1.1326  3.9413
  972MOL0     H31198  -1.078   4.114   5.914  1.6698  0.6186  1.3417
  972MOL0     H31199  -1.050   4.245   5.796  1.2138  0.2692 -0.4670
  972MOL0     H31200  -0.806   4.647   6.704 -1.6071 -1.7746 -1.7485
  972MOL0     H31201  -0.689   4.602   6.897 -0.4015  1.9185 -0.3152
  972MOL0     H31202  -0.665   4.255   7.212 -2.0107  1.1612 -0.3214
  972MOL0     H31203  -0.484   4.148   7.350  1.6611  0.5942  1.1891
  972MOL0     H31204   1.306   4.146   7.231 -0.7983  0.2165  0.1003
  972MOL0     H31205   1.550   4.165   7.190 -0.3790  2.5917 -0.4836
  972MOL0     H31206   1.929   3.948   7.300  1.6915 -0.9739 -2.7191
  972MOL0     H31207   2.157   3.865   7.278  0.5200 -0.0217 -0.0745
  972MOL0     H31208   2.504   3.918   7.178 -0.3172  0.1016 -1.6552
  972MOL0     H31209   2.343   3.845   7.195  1.3017 -3.5960  1.4847
  972MOL0     H31210   2.359   3.774   7.417  0.5544  0.1051  2.2272
  972MOL0     H31211   2.455   3.899   7.462  1.0657  1.3487 -1.4483
  972MOL0     H31212   2.536   3.632   7.350  0.4847 -1.2063  0.7418
  972MOL0     H31213   2.583   3.719   7.498 -2.4171  0.3226 -0.2924
  972MOL0     H31214   2.661   3.753   7.204  0.0480 -5.3346  0.9003
  972MOL0     H31215   2.696   3.880   7.325 -0.0172 -0.5204 -0.5636
  972MOL0     H31216   3.008   3.662   7.453  0.3015 -3.2199 -2.8117
  972MOL0     H31217   2.293   4.261   7.304  1.3075 -1.5306  1.1146
  972MOL0     H31218   2.155   4.433   7.285  1.4641 -2.5393  2.3402
  972MOL0     H31219   1.997   4.423   7.226  1.2203 -0.3761 -1.2207
  972MOL0     H31220   2.025   4.418   7.400  0.0848 -0.4580  0.4045
  973MOL0     O31221   8.562   8.201  11.317 -0.2398  0.5564 -0.5742
  973MOL0     C31222   8.514   8.109  11.249  0.0552  0.0238  0.9181
  973MOL0     O31223   8.510   7.976  11.280  0.1861  0.3329 -0.1065
  973MOL0     C31224   8.592   7.922  11.376 -0.3143  0.4128  0.5183
  973MOL0     C31225   8.723   7.969  11.406 -0.1349  0.5678  0.0956
  973MOL0     C31226   8.797   7.894  11.503  1.1118  0.2186  0.3520
  973MOL0     C31227   8.759   7.759  11.530 -0.6957  0.1201  0.8178
  973MOL0     O31228   8.852   7.690  11.599  0.6348 -0.1696 -0.6757
  973MOL0     C31229   8.810   7.604  11.711  0.3767  1.1775 -0.6921
  973MOL0     C31230   8.920   7.526  11.783 -0.0852 -0.4548 -0.4586
  973MOL0     C31231   8.853   7.439  11.891  0.9390  0.4022 -0.1414
  973MOL0     C31232   8.957   7.390  11.994  0.4790 -0.2031  0.9275
  973MOL0     C31233   8.895   7.327  12.107  0.5161 -0.2344 -0.5361
  973MOL0     C31234   8.976   7.223  12.175  0.4421 -0.5109  0.5759
  973MOL0     C31235   9.107   7.284  12.223  0.5483  0.0567 -0.5076
  973MOL0     C31236   9.200   7.197  12.314  1.4481 -0.4851 -0.1314
  973MOL0     N31237   9.248   7.070  12.267  0.2069 -0.2460  0.9269
  973MOL0     C31238   9.206   6.942  12.302  0.8110  0.1676 -0.4256
  973MOL0     C31239   9.283   6.858  12.232 -0.0123  0.2483  0.0598
  973MOL0     C31240   9.267   6.706  12.215  0.7951 -0.9111  1.0264
  973MOL0     C31241   9.140   6.697  12.142 -0.5444 -0.0266  0.0223
  973MOL0     C31242   9.072   6.556  12.145  0.4434 -0.1053 -0.4390
  973MOL0     C31243   8.945   6.557  12.067  0.2723  1.4174  1.0437
  973MOL0     O31244   8.973   6.582  11.925 -0.5597  0.7817 -0.7851
  973MOL0     C31245   8.854   6.588  11.850 -0.0914  0.7438 -0.0845
  973MOL0     C31246   8.875   6.607  11.707  0.3367 -0.3087 -0.8819
  973MOL0     C31247   8.769   6.626  11.616 -0.3294  0.1305  0.4529
  973MOL0     C31248   8.637   6.608  11.665  0.6642 -0.7957 -0.4168
  973MOL0     C31249   8.518   6.610  11.573  0.4578  0.1777 -0.7381
  973MOL0     O31250   8.398   6.658  11.623  0.1925 -0.0230  0.2394
  973MOL0     C31251   8.289   6.679  11.544  0.5324 -0.8921  0.1405
  973MOL0     C31252   8.166   6.641  11.591  0.0655  0.4633  0.4221
  973MOL0     C31253   8.050   6.667  11.511  0.1571  0.0538 -0.5812
  973MOL0     C31254   8.061   6.732  11.386  0.1236  0.8153 -0.1928
  973MOL0     O31255   7.944   6.769  11.322 -0.9474  0.8334  0.1675
  973MOL0     C31256   7.942   6.782  11.184  0.0811  0.2023  0.5526
  973MOL0     C31257   7.973   6.653  11.098  0.6867  0.8934 -0.6483
  973MOL0     C31258   7.884   6.532  11.150 -0.2140 -0.4620 -0.3962
  973MOL0     C31259   7.959   6.440  11.261 -0.3400  0.6511  0.1085
  973MOL0     C31260   7.910   6.290  11.254  0.8501 -0.4386 -1.0163
  973MOL0     C31261   7.981   6.202  11.353 -0.4031 -0.2739  0.3222
  973MOL0     C31262   8.023   6.250  11.496 -0.4478  0.1027  0.0991
  973MOL0     C31263   7.904   6.284  11.592 -0.1754 -0.3508  0.1961
  973MOL0    Cl31264   7.978   6.362  11.736 -0.3658  0.1634  0.3979
  973MOL0     C31265   8.186   6.756  11.336 -0.1103 -0.2621  0.4036
  973MOL0     C31266   8.301   6.736  11.412  0.5119 -0.0796 -0.5960
  973MOL0     O31267   8.527   6.572  11.461  0.0453 -0.5798  0.5290
  973MOL0     C31268   8.614   6.586  11.800 -0.7483  0.2277 -0.2516
  973MOL0     C31269   8.722   6.577  11.886  0.1968  0.6781  0.7250
  973MOL0     N31270   9.354   6.936  12.134  1.0010 -0.1399  0.4123
  973MOL0     N31271   9.331   7.057  12.160 -0.5442 -0.0571 -0.3315
  973MOL0     C31272   8.637   7.703  11.487 -0.2880 -0.1860 -0.0317
  973MOL0     C31273   8.549   7.788  11.414  0.1002 -0.0430 -0.2049
  973MOL0     C31274   8.451   8.154  11.125  0.9076 -0.7396  0.7446
  973MOL0     C31275   8.403   8.286  11.121  0.4455  0.1409  0.9219
  973MOL0     C31276   8.330   8.341  11.008 -0.5037  0.4368 -0.2679
  973MOL0     C31277   8.331   8.268  10.896  0.6389 -0.3371 -0.5200
  973MOL0     O31278   8.280   8.318  10.784  0.6397 -0.2718 -0.1732
  973MOL0     C31279   8.250   8.234  10.669  0.2747 -0.1805  0.1151
  973MOL0     C31280   8.177   8.313  10.560  0.2613  0.4098  0.4214
  973MOL0     C31281   8.272   8.427  10.522  0.8359  0.0622  0.2457
  973MOL0     C31282   8.248   8.482  10.378 -0.1992 -0.1742  1.0342
  973MOL0     C31283   8.127   8.561  10.368 -0.2994 -0.5968 -0.5480
  973MOL0     C31284   8.024   8.630  10.372  1.2867 -0.2322  0.0748
  973MOL0     C31285   8.376   8.132  10.900  0.1861  0.3179  0.2120
  973MOL0     C31286   8.428   8.073  11.007 -0.7520 -0.2242  0.7299
  973MOL0     C31287   8.472   7.930  10.991 -0.9598  0.2505  0.3511
  973MOL0     H31288   8.761   8.067  11.378  2.8192 -0.6446 -0.5625
  973MOL0     H31289   8.881   7.944  11.550 -1.8179  2.2768  3.9104
  973MOL0     H31290   8.753   7.658  11.787 -0.0640 -1.3178  0.8578
  973MOL0     H31291   8.738   7.526  11.684  2.6573 -0.2155 -3.2250
  973MOL0     H31292   8.998   7.597  11.811  1.0425 -1.4963 -0.8717
  973MOL0     H31293   8.968   7.467  11.703 -0.3396 -0.7984 -0.3621
  973MOL0     H31294   8.793   7.358  11.847 -0.3363  3.1909 -4.1049
  973MOL0     H31295   8.779   7.500  11.944  1.5777 -1.3159  2.9755
  973MOL0     H31296   9.005   7.317  11.928 -2.7495 -1.7256  0.0507
  973MOL0     H31297   9.026   7.470  12.021  1.9601 -1.8256  2.1659
  973MOL0     H31298   8.862   7.398  12.183  1.1309 -0.9662  0.4432
  973MOL0     H31299   8.801   7.276  12.082  0.2616 -0.1054  0.1334
  973MOL0     H31300   8.926   7.159  12.248 -0.0290  0.2737  0.9526
  973MOL0     H31301   9.028   7.164  12.100  0.1666 -0.0072 -0.0151
  973MOL0     H31302   9.078   7.361  12.295 -0.9485 -2.2885  1.5721
  973MOL0     H31303   9.163   7.324  12.138  2.0826  0.5084  0.6680
  973MOL0     H31304   9.285   7.261  12.337  1.1139  0.5750 -1.7122
  973MOL0     H31305   9.146   7.178  12.408  1.4500 -1.3308 -0.2939
  973MOL0     H31306   9.122   6.906  12.362  0.6978 -0.5124 -0.9803
  973MOL0     H31307   9.338   6.646  12.157 -1.8944 -3.8391  0.5435
  973MOL0     H31308   9.246   6.657  12.310 -0.0837 -2.4625  0.0665
  973MOL0     H31309   9.068   6.770  12.180 -2.4502 -1.5765 -0.4484
  973MOL0     H31310   9.170   6.713  12.038 -1.7331  2.5338 -0.0050
  973MOL0     H31311   9.046   6.529  12.248 -1.1961 -1.6219 -1.2092
  973MOL0     H31312   9.142   6.481  12.106  3.3447 -1.3338  5.8381
  973MOL0     H31313   8.862   6.619  12.103 -2.2164  0.0653 -1.9708
  973MOL0     H31314   8.904   6.455  12.071 -0.0775  1.5386  0.5805
  973MOL0     H31315   8.978   6.616  11.674  0.4530 -1.7448 -0.9491
  973MOL0     H31316   8.774   6.645  11.509 -1.4546 -2.6844 -0.1741
  973MOL0     H31317   8.149   6.590  11.685  0.0629  1.5536  1.0320
  973MOL0     H31318   7.953   6.629  11.541  0.9195 -1.2922  0.2973
  973MOL0     H31319   7.841   6.816  11.156  1.0221  3.1847  0.4592
  973MOL0     H31320   8.002   6.866  11.148  1.3396 -0.8334  0.1918
  973MOL0     H31321   7.957   6.666  10.990 -0.1353 -0.3206 -0.6816
  973MOL0     H31322   8.078   6.622  11.107  0.0968 -2.4158 -3.3804
  973MOL0     H31323   7.800   6.569  11.208  1.2115  2.5796 -0.0748
  973MOL0     H31324   7.857   6.468  11.065  1.4628 -3.0313  0.8581
  973MOL0     H31325   7.945   6.476  11.363  1.3588  1.4134  0.1173
  973MOL0     H31326   8.068   6.441  11.254 -0.2573  1.4172  1.3458
  973MOL0     H31327   7.920   6.257  11.150 -0.7092  1.5911 -1.9007
  973MOL0     H31328   7.802   6.293  11.270  0.8892  0.4785 -0.8236
  973MOL0     H31329   7.927   6.107  11.353 -0.5656 -0.1888 -0.3462
  973MOL0     H31330   8.086   6.188  11.327  0.7203 -0.3752  4.2210
  973MOL0     H31331   8.082   6.342  11.495  0.9070 -0.7465 -0.6880
  973MOL0     H31332   8.089   6.180  11.547 -1.0482 -0.6020 -0.0735
  973MOL0     H31333   7.827   6.340  11.537  1.3345  1.5953 -0.0650
  973MOL0     H31334   7.860   6.188  11.620  0.7152 -1.8720 -3.0977
  973MOL0     H31335   8.206   6.791  11.235 -1.0112  3.1991  1.2890
  973MOL0     H31336   8.398   6.767  11.373 -0.2677  2.0349 -1.0084
  973MOL0     H31337   8.510   6.576  11.828 -0.4292  0.3574  1.0452
  973MOL0     H31338   8.695   6.564  11.990 -1.9275 -1.3658 -0.0064
  973MOL0     H31339   8.597   7.605  11.512  1.9270 -0.3967  3.4123
  973MOL0     H31340   8.455   7.749  11.378  1.2162 -0.9767 -2.2834
  973MOL0     H31341   8.406   8.337  11.217  1.3857  0.7476  0.5823
  973MOL0     H31342   8.293   8.443  11.003  1.2344  1.1946  1.1887
  973MOL0     H31343   8.190   8.149  10.700  0.5883 -0.1363  0.8453
  973MOL0     H31344   8.338   8.184  10.628  1.0655  1.0516  0.2654
  973MOL0     H31345   8.080   8.343  10.602 -1.0768 -1.4460 -1.1181
  973MOL0     H31346   8.154   8.253  10.471  1.6856  2.5913 -1.5537
  973MOL0     H31347   8.374   8.389  10.523  0.4434 -1.0069  0.7465
  973MOL0     H31348   8.266   8.513  10.589 -1.3537  1.3872 -1.5007
  973MOL0     H31349   8.340   8.532  10.347 -1.0997  1.6982  1.2449
  973MOL0     H31350   8.235   8.397  10.309  3.2537  1.0065 -1.3224
  973MOL0     H31351   7.930   8.681  10.373  1.1578 -0.3060 -2.3821
  973MOL0     H31352   8.358   8.067  10.814  1.0958  0.3283  0.0018
  973MOL0     H31353   8.398   7.849  10.995  0.5070 -1.4179 -2.8743
  973MOL0     H31354   8.525   7.906  10.898  3.5453 -0.4522  2.8257
  973MOL0     H31355   8.551   7.909  11.063 -1.3832 -3.7101 -0.0925
  974MOL0     O31356   4.012   8.074   3.635  0.0636 -0.2972 -0.0607
  974MOL0     C31357   4.051   8.194   3.633  0.6920 -0.9571  0.6029
  974MOL0     O31358   3.961   8.292   3.589  0.2048 -0.5274  0.6081
  974MOL0     C31359   3.872   8.258   3.496  0.0827 -0.6203 -0.7318
  974MOL0     C31360   3.757   8.338   3.498 -0.6271  0.9700 -0.4231
  974MOL0     C31361   3.649   8.320   3.411  0.7124 -0.0248 -0.5459
  974MOL0     C31362   3.665   8.232   3.308  0.5267  0.3730  0.1366
  974MOL0     O31363   3.574   8.238   3.211 -0.2621  0.9960 -0.5661
  974MOL0     C31364   3.593   8.189   3.083  0.6288 -0.2539  0.6295
  974MOL0     C31365   3.483   8.235   2.988  0.7583  0.3506  0.4269
  974MOL0     C31366   3.339   8.211   3.023 -0.2067 -0.6263  0.2157
  974MOL0     C31367   3.322   8.062   3.072 -0.4760  0.1778 -0.3929
  974MOL0     C31368   3.177   8.005   3.076 -0.3380  1.1382  0.3565
  974MOL0     C31369   3.092   8.054   3.195 -0.0782  0.2387 -0.3090
  974MOL0     C31370   2.947   8.098   3.175  0.0991  0.0308 -0.1193
  974MOL0     C31371   2.862   7.991   3.091  0.4461 -0.2313  0.0767
  974MOL0     N31372   2.725   8.014   3.096 -0.0486 -0.3218  0.6396
  974MOL0     C31373   2.653   8.007   3.208  0.0460 -0.3945  0.1519
  974MOL0     C31374   2.534   8.059   3.179 -0.0792  0.6179  0.1327
  974MOL0     C31375   2.425   8.054   3.284  0.4021 -0.3181  0.0113
  974MOL0     C31376   2.426   7.921   3.369 -0.1356  0.9210 -0.3758
  974MOL0     C31377   2.368   7.802   3.274 -0.0305  0.1460  0.6123
  974MOL0     C31378   2.378   7.669   3.357 -0.4491  0.1454  0.1241
  974MOL0     O31379   2.509   7.648   3.390 -0.2958 -0.8270  0.0549
  974MOL0     C31380   2.537   7.590   3.516  0.4492  0.0849 -0.0220
  974MOL0     C31381   2.646   7.649   3.580  0.3089 -0.3116 -0.4686
  974MOL0     C31382   2.676   7.603   3.703 -0.6698 -0.1728  0.3723
  974MOL0     C31383   2.608   7.488   3.754  0.3358 -0.3238  0.6991
  974MOL0     C31384   2.649   7.440   3.879 -1.0213 -0.1342  1.1368
  974MOL0     O31385   2.690   7.518   3.983  0.7281  0.1740  0.6189
  974MOL0     C31386   2.713   7.471   4.110  0.1374 -0.7430  0.3915
  974MOL0     C31387   2.658   7.548   4.205  1.6414  0.3062 -0.1108
  974MOL0     C31388   2.664   7.511   4.341 -0.6482  0.2747  0.9031
  974MOL0     C31389   2.732   7.393   4.379 -0.1317  0.2102  1.1275
  974MOL0     O31390   2.726   7.360   4.505 -0.5697  0.6741  0.1117
  974MOL0     C31391   2.850   7.305   4.560  1.1169 -0.4616 -0.8980
  974MOL0     C31392   2.836   7.301   4.708  0.1030 -0.1791  0.0131
  974MOL0     C31393   2.827   7.437   4.767 -0.4965  0.4978 -0.4930
  974MOL0     C31394   2.806   7.438   4.923  0.0980 -1.0138 -1.0653
  974MOL0     C31395   2.937   7.387   5.004 -0.0123  0.8140  0.6125
  974MOL0     C31396   2.913   7.357   5.150 -0.4449 -0.1053  0.4289
  974MOL0     C31397   3.044   7.357   5.221  0.3355  0.5203 -0.6521
  974MOL0     C31398   3.036   7.460   5.336  0.4402  0.6668 -0.6036
  974MOL0    Cl31399   2.898   7.405   5.431  0.6503 -0.4400  0.3055
  974MOL0     C31400   2.812   7.323   4.276 -0.7295 -0.2856 -0.2331
  974MOL0     C31401   2.790   7.360   4.146 -0.1504  2.0203  0.1415
  974MOL0     O31402   2.628   7.319   3.882 -0.4167  0.3706  0.4950
  974MOL0     C31403   2.504   7.430   3.685 -0.0974 -1.0804 -0.5215
  974MOL0     C31404   2.464   7.482   3.562  0.1264  0.5166 -0.2272
  974MOL0     N31405   2.534   8.090   3.038  1.0518 -0.0919  0.0508
  974MOL0     N31406   2.655   8.073   3.000  0.1686 -0.6237  0.1329
  974MOL0     C31407   3.770   8.141   3.306 -1.0120 -0.5415 -0.1911
  974MOL0     C31408   3.880   8.161   3.398 -0.3022 -1.6193  0.2111
  974MOL0     C31409   4.179   8.238   3.683 -1.1022  0.2083 -0.4986
  974MOL0     C31410   4.200   8.378   3.699 -0.1209 -0.2372  0.0561
  974MOL0     C31411   4.319   8.432   3.738 -0.3012 -0.3331 -0.8205
  974MOL0     C31412   4.420   8.350   3.779 -0.2205  0.2749 -0.1991
  974MOL0     O31413   4.552   8.401   3.815  0.3071 -0.5195  0.1775
  974MOL0     C31414   4.657   8.328   3.887  0.0296 -0.1532  0.0026
  974MOL0     C31415   4.774   8.420   3.931  0.6003  0.2334  1.0524
  974MOL0     C31416   4.878   8.443   3.820  0.6808 -0.9788  0.3237
  974MOL0     C31417   4.845   8.556   3.725 -0.2060 -0.5022  0.9416
  974MOL0     C31418   4.962   8.632   3.682  0.9998 -0.4272  0.6273
  974MOL0     C31419   5.069   8.665   3.631  0.9627  0.0623 -0.3280
  974MOL0     C31420   4.400   8.208   3.779 -0.1919  0.3321  0.0987
  974MOL0     C31421   4.278   8.148   3.733 -0.8739  0.5605  0.1415
  974MOL0     C31422   4.260   8.005   3.734  0.7110  1.2617  0.5205
  974MOL0     H31423   3.750   8.401   3.586  0.8643  1.7600 -0.8415
  974MOL0     H31424   3.563   8.385   3.415  2.4108  2.4007 -0.9859
  974MOL0     H31425   3.685   8.233   3.042 -0.2162  0.3881 -0.6257
  974MOL0     H31426   3.604   8.080   3.077  2.6406 -0.1302  1.1453
  974MOL0     H31427   3.504   8.193   2.889  0.6852  0.9646  0.1415
  974MOL0     H31428   3.501   8.342   2.973 -0.6485  0.4091 -1.2350
  974MOL0     H31429   3.274   8.243   2.941 -1.0582  3.1753  2.1180
  974MOL0     H31430   3.317   8.273   3.110 -2.1487 -0.2320 -0.4866
  974MOL0     H31431   3.385   7.997   3.010 -1.0524  0.9969 -1.8790
  974MOL0     H31432   3.355   8.061   3.176 -0.7527  1.3720 -0.2886
  974MOL0     H31433   3.134   8.021   2.976 -0.5490 -2.2384 -0.2223
  974MOL0     H31434   3.180   7.897   3.090 -0.5833  1.2086  0.9671
  974MOL0     H31435   3.093   7.969   3.264  2.7345  0.3124 -0.1364
  974MOL0     H31436   3.150   8.119   3.261 -1.5812  1.3866 -0.0641
  974MOL0     H31437   2.942   8.199   3.133 -0.8115  1.2788  2.6957
  974MOL0     H31438   2.903   8.117   3.274 -3.0970  0.6742 -1.5429
  974MOL0     H31439   2.896   8.007   2.988 -0.9007  2.1159 -0.0749
  974MOL0     H31440   2.880   7.888   3.125 -1.1421 -1.4818 -2.5588
  974MOL0     H31441   2.689   7.967   3.303  0.4702  1.0679  0.6318
  974MOL0     H31442   2.426   8.142   3.349  1.5040  0.7179 -1.3544
  974MOL0     H31443   2.329   8.056   3.232  0.1999 -0.5062  0.3699
  974MOL0     H31444   2.525   7.894   3.405 -1.0634  0.2323  1.8019
  974MOL0     H31445   2.366   7.926   3.460  1.3163  0.6027  0.6137
  974MOL0     H31446   2.416   7.791   3.176 -3.4060 -2.6266 -0.9863
  974MOL0     H31447   2.262   7.819   3.252 -0.3343  0.1451  1.9725
  974MOL0     H31448   2.347   7.584   3.295 -0.6051 -2.6536  3.7181
  974MOL0     H31449   2.325   7.671   3.453  3.2050 -3.3015  2.5393
  974MOL0     H31450   2.698   7.735   3.540 -0.3073  1.2010  1.8284
  974MOL0     H31451   2.765   7.653   3.739  1.0102 -2.2103 -0.7442
  974MOL0     H31452   2.613   7.643   4.180  1.8141  0.7140  1.0484
  974MOL0     H31453   2.620   7.579   4.413  0.8126  1.2971  0.8621
  974MOL0     H31454   2.858   7.208   4.510 -0.2421  0.0485 -2.1660
  974MOL0     H31455   2.932   7.373   4.536  2.2105 -1.6975 -0.7561
  974MOL0     H31456   2.762   7.223   4.730  1.1321 -0.6714  1.9771
  974MOL0     H31457   2.928   7.258   4.748 -1.7064 -3.0139  1.4759
  974MOL0     H31458   2.914   7.498   4.740 -0.0336 -0.3031 -0.8419
  974MOL0     H31459   2.744   7.492   4.723 -0.4594  4.1182  3.3150
  974MOL0     H31460   2.720   7.375   4.949  0.3288 -0.8381  0.1564
  974MOL0     H31461   2.790   7.541   4.953  2.1754 -1.0247  0.2726
  974MOL0     H31462   3.013   7.466   4.996  1.2601 -0.3419  0.9108
  974MOL0     H31463   2.957   7.297   4.945 -0.8864  2.3897 -2.2732
  974MOL0     H31464   2.839   7.425   5.193  0.9075  1.6868  0.0405
  974MOL0     H31465   2.866   7.259   5.165 -1.5237  0.2490 -0.4604
  974MOL0     H31466   3.133   7.375   5.161  1.5080  0.2884  0.9458
  974MOL0     H31467   3.065   7.257   5.260  2.3558  0.2248 -2.3596
  974MOL0     H31468   3.129   7.463   5.394 -0.8918 -1.4659  1.8551
  974MOL0     H31469   3.015   7.560   5.296  1.8593  0.4794 -1.9187
  974MOL0     H31470   2.864   7.230   4.293 -0.6722 -1.0257 -3.7776
  974MOL0     H31471   2.836   7.305   4.064 -1.6713 -0.5826  0.9176
  974MOL0     H31472   2.444   7.351   3.729  0.9605 -0.7540  1.6373
  974MOL0     H31473   2.375   7.445   3.512 -0.8307 -1.6067  2.7496
  974MOL0     H31474   3.780   8.069   3.226 -0.8594  0.4868 -1.1367
  974MOL0     H31475   3.960   8.089   3.384  1.0716 -0.6347  2.4853
  974MOL0     H31476   4.136   8.449   3.647  0.1944 -0.2524 -0.3553
  974MOL0     H31477   4.338   8.539   3.740  0.1754 -0.4243 -0.2629
  974MOL0     H31478   4.706   8.250   3.828  1.8604  0.7324  0.2906
  974MOL0     H31479   4.618   8.283   3.979  0.2657  1.1164  0.7363
  974MOL0     H31480   4.825   8.392   4.024  0.7888  1.8483  1.4608
  974MOL0     H31481   4.736   8.520   3.955  1.2465  0.4993  0.9905
  974MOL0     H31482   4.916   8.353   3.771 -2.6571 -2.1617 -0.3506
  974MOL0     H31483   4.966   8.463   3.883  2.3857 -0.8976 -1.9752
  974MOL0     H31484   4.799   8.527   3.631  1.5377  0.5085 -0.2949
  974MOL0     H31485   4.779   8.627   3.776 -0.5199  0.9814 -1.3618
  974MOL0     H31486   5.164   8.704   3.601  0.2810  0.8792 -1.4902
  974MOL0     H31487   4.486   8.142   3.787 -0.9195 -0.8843 -1.5601
  974MOL0     H31488   4.166   7.971   3.778  1.7602 -1.8232  0.6366
  974MOL0     H31489   4.287   7.951   3.643  0.5744  0.1919  1.0815
  974MOL0     H31490   4.340   7.951   3.787  1.0291 -1.4570 -2.4151
  975MOL0     O31491   5.063   3.032   1.497  0.5734 -0.2391  0.1713
  975MOL0     C31492   5.151   3.090   1.556 -0.2287  0.1349 -0.9195
  975MOL0     O31493   5.206   3.220   1.534 -0.6035  0.2980 -0.4659
  975MOL0     C31494   5.151   3.295   1.438 -0.7177  0.1702  0.4862
  975MOL0     C31495   5.244   3.354   1.347 -0.2785 -0.5598 -0.6567
  975MOL0     C31496   5.205   3.448   1.251 -0.5046  0.1154 -0.6204
  975MOL0     C31497   5.076   3.487   1.238  0.5860 -0.2222  0.4184
  975MOL0     O31498   5.038   3.578   1.142 -0.2583 -0.1982 -0.4718
  975MOL0     C31499   5.127   3.615   1.039 -1.1538 -0.0378 -0.3164
  975MOL0     C31500   5.039   3.664   0.929 -0.5070  1.1215  0.5862
  975MOL0     C31501   4.933   3.564   0.875  0.3719  1.1844 -0.1182
  975MOL0     C31502   4.980   3.443   0.791  0.2855  0.2379 -0.9108
  975MOL0     C31503   4.865   3.348   0.737 -0.9798 -0.1183  0.2014
  975MOL0     C31504   4.937   3.252   0.639  0.2021  0.7753  0.1407
  975MOL0     C31505   4.835   3.141   0.593 -0.2336 -0.1865 -0.9025
  975MOL0     C31506   4.767   3.077   0.715 -0.5830  0.0609 -0.0743
  975MOL0     N31507   4.693   2.954   0.680  0.0869  0.1929 -1.0136
  975MOL0     C31508   4.738   2.825   0.677 -0.3557  0.0069  0.8027
  975MOL0     C31509   4.624   2.755   0.643 -0.1361 -0.4830  1.1009
  975MOL0     C31510   4.607   2.603   0.654  0.2096 -0.0804 -0.1427
  975MOL0     C31511   4.714   2.498   0.618 -0.2687  0.0065 -0.5233
  975MOL0     C31512   4.779   2.525   0.481  0.6374  0.4457  0.9213
  975MOL0     C31513   4.887   2.435   0.454 -0.4449 -0.3898 -0.0799
  975MOL0     O31514   4.842   2.305   0.415 -0.0236 -0.1045 -0.2469
  975MOL0     C31515   4.921   2.221   0.336  0.0100 -0.0343  1.0078
  975MOL0     C31516   4.862   2.105   0.296  0.4694 -0.1197 -0.2708
  975MOL0     C31517   4.944   2.016   0.216 -0.2326  1.0103 -0.1752
  975MOL0     C31518   5.080   2.033   0.193  0.7862 -0.9636 -0.5975
  975MOL0     C31519   5.145   1.939   0.105  0.6441  0.3771 -0.7049
  975MOL0     O31520   5.269   1.981   0.048  0.6655 -0.3833 -0.2024
  975MOL0     C31521   5.343   1.900  -0.033  0.1935 -0.2251  0.6015
  975MOL0     C31522   5.420   1.968  -0.133 -0.2462  0.5128 -0.2971
  975MOL0     C31523   5.491   1.896  -0.229  0.8889 -0.2609  0.4227
  975MOL0     C31524   5.480   1.751  -0.229 -1.0004 -0.1751 -0.5016
  975MOL0     O31525   5.532   1.686  -0.341 -0.1961  0.4461 -0.3979
  975MOL0     C31526   5.480   1.555  -0.367  0.4164  0.5666 -0.6862
  975MOL0     C31527   5.528   1.508  -0.502  0.3959 -0.0190 -0.0258
  975MOL0     C31528   5.491   1.357  -0.504 -0.6591  0.6768  1.0069
  975MOL0     C31529   5.570   1.302  -0.628  0.5041 -0.3510  0.1314
  975MOL0     C31530   5.523   1.161  -0.659 -0.7169  0.4237  0.2519
  975MOL0     C31531   5.642   1.108  -0.747 -0.8698 -0.2950 -0.2786
  975MOL0     C31532   5.635   0.966  -0.802 -0.7396  1.1065  0.8451
  975MOL0     C31533   5.737   0.866  -0.747 -0.1154 -0.2020 -0.2850
  975MOL0    Cl31534   5.662   0.798  -0.613 -0.3761 -0.1778 -0.0848
  975MOL0     C31535   5.412   1.688  -0.128 -0.0570  0.1100 -0.3880
  975MOL0     C31536   5.360   1.762  -0.021  0.4996  0.7509  0.3222
  975MOL0     O31537   5.091   1.823   0.104  0.8232  0.2123  0.6610
  975MOL0     C31538   5.138   2.154   0.241  0.6009  0.9262 -0.0388
  975MOL0     C31539   5.055   2.241   0.306  0.2127 -0.1263  0.8659
  975MOL0     N31540   4.521   2.838   0.605  0.6261  1.2416  0.2972
  975MOL0     N31541   4.560   2.956   0.642  0.8761 -0.2340  0.8770
  975MOL0     C31542   4.980   3.430   1.326 -0.1972  0.9647 -1.0044
  975MOL0     C31543   5.019   3.341   1.431  0.0360 -0.0835 -0.2240
  975MOL0     C31544   5.235   3.019   1.663 -0.4091  0.2265  0.0233
  975MOL0     C31545   5.372   3.051   1.682  0.2564  0.3022  0.1330
  975MOL0     C31546   5.456   2.987   1.782 -0.2872 -0.3167  0.4336
  975MOL0     C31547   5.391   2.899   1.869  0.6705  0.7500 -0.1397
  975MOL0     O31548   5.459   2.835   1.977 -0.6094  1.0061 -0.3669
  975MOL0     C31549   5.584   2.874   2.020  0.0931  0.1269  0.2469
  975MOL0     C31550   5.627   2.830   2.158  0.3292 -1.0930  0.1601
  975MOL0     C31551   5.777   2.851   2.172  0.8102 -0.2602  0.1959
  975MOL0     C31552   5.822   2.793   2.304 -0.2222  0.3920 -0.6041
  975MOL0     C31553   5.973   2.815   2.315  0.8492  0.0782 -0.2186
  975MOL0     C31554   6.092   2.814   2.319 -0.3881 -0.4993  0.2043
  975MOL0     C31555   5.264   2.862   1.844 -0.2739 -0.6723 -0.1666
  975MOL0     C31556   5.183   2.912   1.739  0.3400 -0.0905  0.1434
  975MOL0     C31557   5.045   2.852   1.730 -0.1781  0.1399 -0.0466
  975MOL0     H31558   5.348   3.323   1.349 -0.1129 -0.1667 -2.1582
  975MOL0     H31559   5.282   3.488   1.186 -0.1683 -0.2837 -0.4737
  975MOL0     H31560   5.203   3.684   1.075  0.8769 -1.5988 -1.4062
  975MOL0     H31561   5.185   3.528   1.005  2.1283  1.0365  2.0290
  975MOL0     H31562   5.112   3.688   0.851  3.7209 -0.7314  3.5804
  975MOL0     H31563   4.975   3.749   0.958 -0.8557  0.1450  2.9361
  975MOL0     H31564   4.884   3.623   0.798 -2.2311  0.3390  0.7705
  975MOL0     H31565   4.846   3.532   0.933 -0.1628 -1.9046 -2.3712
  975MOL0     H31566   5.029   3.492   0.706  0.2005  2.5577  0.2899
  975MOL0     H31567   5.053   3.382   0.844 -0.0229  1.2933  0.8164
  975MOL0     H31568   4.818   3.307   0.827  0.1360  2.2994  2.0039
  975MOL0     H31569   4.793   3.406   0.679 -0.9308 -2.0385 -1.8855
  975MOL0     H31570   4.964   3.306   0.548 -1.8937 -0.2110 -1.1499
  975MOL0     H31571   5.024   3.210   0.689 -0.4523  0.9542  1.4791
  975MOL0     H31572   4.888   3.070   0.528  0.4929 -0.1041 -0.4111
  975MOL0     H31573   4.753   3.191   0.540 -3.1270 -4.7154 -1.2646
  975MOL0     H31574   4.835   3.068   0.800 -0.1005  2.0184 -0.1947
  975MOL0     H31575   4.691   3.144   0.757 -2.0654 -3.0549  2.7248
  975MOL0     H31576   4.838   2.790   0.704 -0.7801 -1.9268  0.0422
  975MOL0     H31577   4.591   2.582   0.760 -0.0584 -0.2438 -0.2139
  975MOL0     H31578   4.512   2.576   0.607  0.0215 -4.4237  2.1842
  975MOL0     H31579   4.793   2.512   0.692 -2.4670  0.0564  1.9719
  975MOL0     H31580   4.673   2.396   0.625 -0.1557 -0.1156 -1.4962
  975MOL0     H31581   4.825   2.624   0.472 -0.8290  1.0040 -1.2812
  975MOL0     H31582   4.697   2.514   0.410 -0.8968 -1.7359  2.8777
  975MOL0     H31583   4.959   2.429   0.537  3.6311  2.6430 -2.9759
  975MOL0     H31584   4.946   2.478   0.372  1.0420 -1.7812  0.2184
  975MOL0     H31585   4.756   2.087   0.312 -0.7892  1.0048 -5.4599
  975MOL0     H31586   4.880   1.946   0.164 -0.8304 -0.1279  1.9549
  975MOL0     H31587   5.417   2.076  -0.119 -5.8183  0.4317  1.5338
  975MOL0     H31588   5.553   1.953  -0.297  0.0798 -0.1505 -0.2339
  975MOL0     H31589   5.519   1.487  -0.291 -2.0007 -0.8826 -0.6585
  975MOL0     H31590   5.372   1.549  -0.356  0.3430  2.0716 -0.3747
  975MOL0     H31591   5.473   1.571  -0.571  1.2110 -0.2116 -0.8734
  975MOL0     H31592   5.633   1.533  -0.521  0.6121 -1.4783 -0.9494
  975MOL0     H31593   5.511   1.294  -0.417 -2.4821 -0.1241  0.8724
  975MOL0     H31594   5.386   1.344  -0.528 -0.0065 -1.6088 -1.0031
  975MOL0     H31595   5.676   1.294  -0.603  0.2016 -2.2560  1.0126
  975MOL0     H31596   5.557   1.367  -0.715  0.4464  0.8007  0.9711
  975MOL0     H31597   5.425   1.156  -0.708 -0.9965 -0.6163  0.8835
  975MOL0     H31598   5.515   1.108  -0.564  1.1303 -2.5093 -1.0650
  975MOL0     H31599   5.645   1.174  -0.835  1.9368  1.7706  1.1913
  975MOL0     H31600   5.737   1.138  -0.703 -1.4237  4.0165 -1.5120
  975MOL0     H31601   5.667   0.968  -0.907  0.2418 -0.1535  1.0963
  975MOL0     H31602   5.534   0.922  -0.803 -0.8364  1.3108  1.5708
  975MOL0     H31603   5.757   0.789  -0.822 -0.2860  0.5936 -1.1675
  975MOL0     H31604   5.835   0.912  -0.727  0.1282 -1.3654  1.4607
  975MOL0     H31605   5.402   1.580  -0.120 -0.8254  0.2663  1.0726
  975MOL0     H31606   5.325   1.707   0.065  2.3929  0.0512  0.7024
  975MOL0     H31607   5.238   2.187   0.214  1.3253 -0.3159  1.0335
  975MOL0     H31608   5.096   2.340   0.322  0.0791 -0.1515  1.3637
  975MOL0     H31609   4.880   3.469   1.315 -1.2131 -0.3846  2.2553
  975MOL0     H31610   4.948   3.294   1.498  0.7529  0.1120  0.6951
  975MOL0     H31611   5.427   3.115   1.613 -0.6422  1.5191  0.5229
  975MOL0     H31612   5.561   3.011   1.787 -0.0315 -0.5981 -2.0381
  975MOL0     H31613   5.596   2.982   2.007  2.6091 -0.2501 -1.1738
  975MOL0     H31614   5.656   2.830   1.951 -2.6138 -1.0648 -2.0303
  975MOL0     H31615   5.602   2.725   2.175 -3.9791 -0.4722 -1.3222
  975MOL0     H31616   5.567   2.892   2.225 -4.1228 -2.8081 -1.8777
  975MOL0     H31617   5.809   2.954   2.153 -0.9145 -0.1333 -2.7368
  975MOL0     H31618   5.830   2.796   2.094 -0.3744  0.3173 -1.0601
  975MOL0     H31619   5.787   2.845   2.394  1.4322  0.7831 -0.1524
  975MOL0     H31620   5.813   2.685   2.315 -0.6546  0.5300  0.5720
  975MOL0     H31621   6.198   2.805   2.329 -0.1485 -0.6226 -1.9641
  975MOL0     H31622   5.227   2.775   1.898  0.2255 -2.5422 -2.6390
  975MOL0     H31623   5.027   2.812   1.629 -2.7704  0.9049  0.0370
  975MOL0     H31624   5.035   2.757   1.783 -0.7786 -0.0031 -0.4062
  975MOL0     H31625   4.967   2.920   1.765  2.4694  1.8632  2.9228
  976MOL0     O31626   4.557   4.647  10.675 -0.0978 -0.2522 -0.3132
  976MOL0     C31627   4.670   4.651  10.721 -0.9949 -0.4609  0.0896
  976MOL0     O31628   4.715   4.747  10.811 -0.4416  0.3060  0.3539
  976MOL0     C31629   4.631   4.840  10.874 -0.7063  0.6179 -0.5871
  976MOL0     C31630   4.515   4.894  10.814 -0.4376  0.2686 -0.4885
  976MOL0     C31631   4.443   4.992  10.887 -0.4380  1.0210 -0.2326
  976MOL0     C31632   4.469   5.026  11.021 -0.8040  0.6580 -0.6514
  976MOL0     O31633   4.397   5.112  11.096  0.9867 -0.2221  0.5974
  976MOL0     C31634   4.358   5.075  11.228  0.7801  0.0053  0.1195
  976MOL0     C31635   4.248   5.167  11.294  0.7380  0.0827 -1.0812
  976MOL0     C31636   4.281   5.311  11.341 -0.4432 -0.4170  0.6584
  976MOL0     C31637   4.403   5.331  11.427 -0.3411 -0.3413 -0.4208
  976MOL0     C31638   4.470   5.468  11.385 -0.8470  0.2582 -0.6306
  976MOL0     C31639   4.410   5.598  11.445  1.3237  0.6198 -0.6041
  976MOL0     C31640   4.335   5.677  11.329 -0.8388 -0.7496 -0.3901
  976MOL0     C31641   4.316   5.827  11.382  0.0370  0.3286 -0.5366
  976MOL0     N31642   4.231   5.840  11.504 -0.8705 -0.9605 -0.3176
  976MOL0     C31643   4.097   5.884  11.506 -0.1037 -0.7468  0.3242
  976MOL0     C31644   4.066   5.881  11.629 -0.0844 -0.6231 -1.4043
  976MOL0     C31645   3.943   5.926  11.689  0.5070 -0.0583  0.4353
  976MOL0     C31646   3.958   6.058  11.776 -0.1024  0.7950 -0.2894
  976MOL0     C31647   3.974   6.017  11.927  0.6540 -0.3960 -0.0960
  976MOL0     C31648   3.972   6.134  12.020 -0.3406 -0.4791 -0.9613
  976MOL0     O31649   3.930   6.100  12.156  1.6645 -0.6073  0.4456
  976MOL0     C31650   3.794   6.087  12.173  0.2093 -0.5517  1.1127
  976MOL0     C31651   3.770   5.974  12.244  0.5697  0.8716 -0.9085
  976MOL0     C31652   3.643   5.926  12.279 -1.1562  1.4169 -0.1828
  976MOL0     C31653   3.528   6.006  12.238  0.0066 -0.9699 -0.3244
  976MOL0     C31654   3.392   5.976  12.269 -0.3072  0.6800 -0.1507
  976MOL0     O31655   3.373   5.863  12.340 -0.6902  0.0203  0.3122
  976MOL0     C31656   3.250   5.831  12.384 -0.3073  0.0003  0.5909
  976MOL0     C31657   3.211   5.843  12.517  0.7450 -0.4586 -0.3338
  976MOL0     C31658   3.071   5.817  12.550 -0.0939 -0.1314 -0.3651
  976MOL0     C31659   2.974   5.786  12.450  0.3293 -0.7037 -0.1255
  976MOL0     O31660   2.837   5.777  12.469 -0.5839  0.0566 -0.0577
  976MOL0     C31661   2.795   5.737  12.595 -0.0028  0.6786 -0.2560
  976MOL0     C31662   2.765   5.854  12.695  0.5279 -0.3952 -0.0539
  976MOL0     C31663   2.667   5.945  12.626  0.0686  0.2423 -0.1932
  976MOL0     C31664   2.625   6.061  12.729 -0.1816 -0.5041 -0.3977
  976MOL0     C31665   2.513   6.163  12.686 -0.2031 -0.3911  0.0597
  976MOL0     C31666   2.557   6.253  12.575  0.1546  1.3725 -1.1859
  976MOL0     C31667   2.436   6.342  12.532  0.0913  0.0240  0.3175
  976MOL0     C31668   2.473   6.434  12.408 -0.8900  0.2294 -0.0779
  976MOL0    Cl31669   2.488   6.347  12.241  0.3669 -0.6790  0.3391
  976MOL0     C31670   3.027   5.772  12.317  0.0855 -0.1369 -0.5081
  976MOL0     C31671   3.166   5.787  12.281 -0.4632 -0.4717 -0.3670
  976MOL0     O31672   3.303   6.049  12.233 -0.0937 -0.5831  0.4295
  976MOL0     C31673   3.552   6.115  12.151 -0.4178  0.3257  0.3888
  976MOL0     C31674   3.680   6.152  12.114 -0.1775  0.3514 -0.2008
  976MOL0     N31675   4.178   5.853  11.708  0.6472  0.5927  0.2492
  976MOL0     N31676   4.278   5.849  11.631 -0.9221  0.1573  0.0185
  976MOL0     C31677   4.587   4.980  11.071 -1.3511  0.6939  0.9065
  976MOL0     C31678   4.677   4.892  10.999 -0.3343 -0.4703 -0.5163
  976MOL0     C31679   4.773   4.549  10.674  0.2915 -0.2562 -0.0474
  976MOL0     C31680   4.755   4.474  10.548 -0.9665  0.0898 -0.4797
  976MOL0     C31681   4.856   4.394  10.496  1.1827  0.0181  0.4351
  976MOL0     C31682   4.973   4.373  10.565  0.1608 -0.0374 -0.0979
  976MOL0     O31683   5.078   4.299  10.519 -0.1253  0.2569 -0.2729
  976MOL0     C31684   5.075   4.225  10.392 -0.1071  0.6628 -0.4056
  976MOL0     C31685   5.145   4.085  10.413  1.2859  0.5056  1.2342
  976MOL0     C31686   5.299   4.080  10.370  0.2307 -0.2990  0.4430
  976MOL0     C31687   5.385   4.195  10.418  0.5512  0.4591 -0.7096
  976MOL0     C31688   5.505   4.133  10.472 -0.3039 -0.0813 -1.2335
  976MOL0     C31689   5.600   4.076  10.504 -0.8762  0.3795 -0.1483
  976MOL0     C31690   4.994   4.427  10.683 -0.5742 -0.1457  0.1963
  976MOL0     C31691   4.903   4.523  10.737 -0.2137 -0.9499  0.0514
  976MOL0     C31692   4.954   4.589  10.862 -0.2932  0.5081 -0.5750
  976MOL0     H31693   4.479   4.852  10.721  1.3629 -1.1062 -0.6374
  976MOL0     H31694   4.347   5.025  10.851 -1.3987  0.2314  1.4649
  976MOL0     H31695   4.320   4.973  11.238  3.9091 -1.2243  0.6017
  976MOL0     H31696   4.446   5.082  11.292 -0.0440  1.1388  1.1825
  976MOL0     H31697   4.220   5.118  11.388  0.2377 -0.1108 -1.3286
  976MOL0     H31698   4.155   5.163  11.237 -0.3283 -0.5602  0.6065
  976MOL0     H31699   4.192   5.348  11.393 -0.3195 -0.1898  0.7100
  976MOL0     H31700   4.296   5.364  11.246 -1.6295  2.7100  2.0796
  976MOL0     H31701   4.368   5.319  11.530 -2.1699 -0.1940 -0.9830
  976MOL0     H31702   4.467   5.249  11.392 -0.9728 -0.8602 -0.3784
  976MOL0     H31703   4.575   5.462  11.415 -1.5735 -0.7361  2.0232
  976MOL0     H31704   4.483   5.481  11.277  3.0454 -1.3190 -0.4865
  976MOL0     H31705   4.352   5.568  11.533  1.0016 -0.6411 -1.2231
  976MOL0     H31706   4.493   5.660  11.480  0.8594  2.3237 -2.3842
  976MOL0     H31707   4.239   5.635  11.299 -1.6669  1.8167 -1.5482
  976MOL0     H31708   4.402   5.675  11.242 -0.9341 -0.4368 -0.4714
  976MOL0     H31709   4.416   5.870  11.394  0.2077 -0.3946  0.7634
  976MOL0     H31710   4.254   5.877  11.306 -5.1013 -0.4745  2.6690
  976MOL0     H31711   4.041   5.919  11.419 -0.7788  1.0314  1.4266
  976MOL0     H31712   3.877   5.948  11.605 -1.0577  0.4430  1.7374
  976MOL0     H31713   3.908   5.841  11.749 -0.8475 -2.0778 -2.9401
  976MOL0     H31714   4.040   6.121  11.741 -0.7285 -0.1434 -3.8036
  976MOL0     H31715   3.866   6.116  11.770 -1.1208 -0.7353 -0.1655
  976MOL0     H31716   4.066   5.961  11.947 -0.8853 -2.5737  1.3727
  976MOL0     H31717   3.888   5.950  11.940  0.7586 -0.4348  0.3819
  976MOL0     H31718   3.905   6.209  11.977 -2.9496 -2.1280 -0.0292
  976MOL0     H31719   4.072   6.179  12.023 -0.5306  0.0142 -1.7943
  976MOL0     H31720   3.855   5.913  12.271  1.0329  1.3143 -1.3321
  976MOL0     H31721   3.611   5.838  12.334 -1.9751 -0.2795 -3.1626
  976MOL0     H31722   3.282   5.887  12.586 -2.0024  1.5853  1.4203
  976MOL0     H31723   3.045   5.826  12.655  0.0713 -0.6982 -0.2702
  976MOL0     H31724   2.697   5.691  12.580  0.3420 -0.3090  0.4034
  976MOL0     H31725   2.863   5.664  12.639  0.9548  0.2205 -2.3680
  976MOL0     H31726   2.713   5.817  12.783  0.6934 -0.3297  0.0733
  976MOL0     H31727   2.853   5.912  12.726 -0.3978  1.1197 -0.1345
  976MOL0     H31728   2.710   5.993  12.538  1.5927  0.0643  0.4311
  976MOL0     H31729   2.583   5.883  12.595  2.4353 -2.1957 -2.1554
  976MOL0     H31730   2.713   6.116  12.764 -1.9283  1.1432  1.7207
  976MOL0     H31731   2.586   6.019  12.822  0.8568  0.9509  0.7471
  976MOL0     H31732   2.484   6.220  12.775 -0.6788 -0.3579 -0.1164
  976MOL0     H31733   2.436   6.092  12.656 -2.0130 -0.3695  3.9693
  976MOL0     H31734   2.636   6.308  12.627 -0.1682  0.4997  0.3060
  976MOL0     H31735   2.603   6.206  12.488 -0.5216  0.1084 -0.8812
  976MOL0     H31736   2.407   6.407  12.615  1.4538 -1.8856  2.3927
  976MOL0     H31737   2.347   6.282  12.511 -0.3486 -0.2623  2.7280
  976MOL0     H31738   2.410   6.523  12.404  1.7162  2.2515  0.3936
  976MOL0     H31739   2.577   6.460  12.430 -0.2032 -1.9338 -0.4873
  976MOL0     H31740   2.951   5.756  12.241 -0.5606 -1.2251  0.3351
  976MOL0     H31741   3.205   5.781  12.180  2.6638  3.8949  0.2949
  976MOL0     H31742   3.467   6.175  12.119  0.9755  1.6484 -0.9588
  976MOL0     H31743   3.686   6.234  12.043  1.0360  0.9428  0.5450
  976MOL0     H31744   4.624   5.010  11.169 -2.3665  2.8969  0.6607
  976MOL0     H31745   4.771   4.858  11.039  0.5054 -1.4188 -3.0624
  976MOL0     H31746   4.666   4.489  10.487 -0.2712  1.2513 -1.2555
  976MOL0     H31747   4.841   4.356  10.396  0.6322 -0.6970  0.7825
  976MOL0     H31748   5.138   4.273  10.316  0.4367  0.1130 -0.3169
  976MOL0     H31749   4.977   4.205  10.349  0.2101 -0.1301 -0.7847
  976MOL0     H31750   5.089   4.018  10.347  4.4242 -1.1007 -0.0291
  976MOL0     H31751   5.128   4.050  10.515  0.5356  0.7916  1.2136
  976MOL0     H31752   5.293   4.093  10.262 -1.8505  2.0793  0.7365
  976MOL0     H31753   5.345   3.982  10.384 -2.2440 -1.7777 -1.0100
  976MOL0     H31754   5.414   4.259  10.334 -0.4977  3.7588  1.2704
  976MOL0     H31755   5.338   4.253  10.498 -0.3026 -0.1611 -0.7533
  976MOL0     H31756   5.691   4.031  10.538 -0.5181  3.2896  3.4937
  976MOL0     H31757   5.088   4.399  10.729 -1.9274 -0.7022  2.8457
  976MOL0     H31758   4.869   4.597  10.931 -0.0655  3.0487 -0.4708
  976MOL0     H31759   5.044   4.550  10.909 -2.6309 -1.1895  2.9812
  976MOL0     H31760   4.962   4.696  10.837  1.6694  0.4588 -0.2899
  977MOL0     O31761  10.572   9.817   2.481  0.7436  0.3885 -0.1288
  977MOL0     C31762  10.644   9.826   2.583  0.2535  0.1438  0.7500
  977MOL0     O31763  10.594   9.834   2.703 -0.6240 -0.2332 -0.4121
  977MOL0     C31764  10.460   9.790   2.730 -0.3700 -0.1243  0.5500
  977MOL0     C31765  10.381   9.863   2.821 -0.4978  0.3072 -0.1203
  977MOL0     C31766  10.248   9.826   2.842  0.4542  0.1646 -0.6596
  977MOL0     C31767  10.192   9.712   2.780  0.3662  0.2352 -0.0249
  977MOL0     O31768  10.060   9.689   2.804 -0.4584 -0.4043  0.0359
  977MOL0     C31769   9.983   9.575   2.782 -0.9389  0.6889 -0.3653
  977MOL0     C31770   9.851   9.585   2.857 -0.1682  0.5191 -0.6902
  977MOL0     C31771   9.767   9.706   2.838  0.6655 -0.2881  1.1884
  977MOL0     C31772   9.784   9.796   2.703 -0.7435 -0.3696 -1.0650
  977MOL0     C31773   9.700   9.719   2.603 -0.4981  0.3200  0.2242
  977MOL0     C31774   9.677   9.801   2.475  0.3737 -1.2329  0.0177
  977MOL0     C31775   9.776   9.781   2.349  0.2386 -0.8399  0.9292
  977MOL0     C31776   9.715   9.671   2.255 -0.8236  0.4447  0.6637
  977MOL0     N31777   9.715   9.544   2.322 -0.7952  0.2379  0.7640
  977MOL0     C31778   9.834   9.474   2.337 -0.3346  0.1832  0.3358
  977MOL0     C31779   9.793   9.359   2.385  0.8519  0.4120  0.3662
  977MOL0     C31780   9.895   9.251   2.405  0.9792  0.1057  0.7903
  977MOL0     C31781   9.975   9.281   2.532  0.6262  0.6642  0.4694
  977MOL0     C31782  10.076   9.164   2.553 -0.1222  0.1724  0.3009
  977MOL0     C31783  10.156   9.185   2.689  0.0930  0.1913  0.7697
  977MOL0     O31784  10.243   9.074   2.698  0.3379 -0.2782  0.2889
  977MOL0     C31785  10.312   9.065   2.815 -0.1125 -0.2214  0.1467
  977MOL0     C31786  10.309   9.158   2.920 -0.6156 -0.0003 -0.5165
  977MOL0     C31787  10.379   9.134   3.039  0.0925  0.7705  0.6765
  977MOL0     C31788  10.460   9.015   3.060  0.0834 -0.1606 -0.1655
  977MOL0     C31789  10.539   8.994   3.178  0.2531  0.2437 -0.2201
  977MOL0     O31790  10.594   8.873   3.196 -0.4715  0.3014  0.0369
  977MOL0     C31791  10.686   8.850   3.301  0.1899  0.4228  0.7180
  977MOL0     C31792  10.802   8.916   3.309 -0.5311 -0.6819 -0.0965
  977MOL0     C31793  10.882   8.907   3.424  0.3940  0.0293  0.1143
  977MOL0     C31794  10.833   8.837   3.534  0.2783 -0.0657  0.0097
  977MOL0     O31795  10.899   8.831   3.658  0.0543 -0.1868  0.0779
  977MOL0     C31796  11.036   8.879   3.658 -0.9696 -0.9428  0.2610
  977MOL0     C31797  11.116   8.864   3.783 -0.1550  0.4187 -0.6393
  977MOL0     C31798  11.253   8.906   3.767 -0.0903 -0.8431 -0.3958
  977MOL0     C31799  11.322   8.926   3.907 -0.9936  0.1353  0.6721
  977MOL0     C31800  11.474   8.940   3.880  0.2971  0.0914 -0.2952
  977MOL0     C31801  11.570   8.919   3.994 -0.5852  0.0374  0.2428
  977MOL0     C31802  11.555   8.792   4.082 -0.6069  0.2952 -0.0046
  977MOL0     C31803  11.629   8.775   4.214 -0.8231 -0.1882 -0.0521
  977MOL0    Cl31804  11.808   8.793   4.164  0.3647 -0.5522  0.4911
  977MOL0     C31805  10.716   8.769   3.537 -0.2974 -0.2381 -0.1101
  977MOL0     C31806  10.643   8.780   3.414  0.0503  0.7486 -0.0491
  977MOL0     O31807  10.531   9.077   3.265 -0.1246  0.0458 -0.1255
  977MOL0     C31808  10.477   8.928   2.950  0.1422  0.6901 -0.2884
  977MOL0     C31809  10.407   8.961   2.830  0.0946  0.1329  0.5976
  977MOL0     N31810   9.660   9.367   2.418 -0.5875  1.1403 -1.4880
  977MOL0     N31811   9.611   9.482   2.379 -0.2276 -0.7945 -0.3156
  977MOL0     C31812  10.268   9.648   2.686 -0.7360  0.9668  0.1827
  977MOL0     C31813  10.408   9.677   2.661  0.5946  0.1108  0.8520
  977MOL0     C31814  10.790   9.843   2.564 -1.0763 -0.4690  0.3138
  977MOL0     C31815  10.832   9.946   2.483 -0.9689 -1.1687  0.0709
  977MOL0     C31816  10.976   9.986   2.479  0.0706  0.6418  0.1216
  977MOL0     C31817  11.071   9.916   2.546  0.0155  0.3734  0.2694
  977MOL0     O31818  11.197   9.962   2.545 -0.2973 -0.2706  0.0709
  977MOL0     C31819  11.294   9.899   2.634  0.0565 -0.8783  0.2408
  977MOL0     C31820  11.400  10.020   2.620  0.0296 -0.6802 -0.0044
  977MOL0     C31821  11.513  10.004   2.720  0.0607  0.0805  0.0576
  977MOL0     C31822  11.610   9.902   2.674 -0.9415  0.0157  0.2297
  977MOL0     C31823  11.702   9.880   2.778 -0.1394 -0.2383  0.2979
  977MOL0     C31824  11.784   9.863   2.867 -0.6202 -0.1518  0.5624
  977MOL0     C31825  11.033   9.805   2.610  0.8619  0.0413  0.5782
  977MOL0     C31826  10.892   9.768   2.623  0.1598 -0.4082 -0.7887
  977MOL0     C31827  10.858   9.653   2.720  1.0405  0.8255 -0.5779
  977MOL0     H31828  10.429   9.947   2.871  2.4223 -2.5477  2.3689
  977MOL0     H31829  10.196   9.859   2.932  1.6799 -2.7385  1.2744
  977MOL0     H31830   9.970   9.559   2.675 -1.2928  1.7387 -0.4903
  977MOL0     H31831  10.050   9.499   2.824  1.5948  3.1820  0.4096
  977MOL0     H31832   9.872   9.578   2.965 -0.1684  0.3735 -0.6994
  977MOL0     H31833   9.806   9.489   2.831  1.2821 -0.1378 -0.9159
  977MOL0     H31834   9.792   9.774   2.921  1.8683 -1.6120  1.9462
  977MOL0     H31835   9.663   9.675   2.852 -0.6813  2.7498 -0.8185
  977MOL0     H31836   9.751   9.900   2.716  1.1942  0.1315  0.3127
  977MOL0     H31837   9.884   9.804   2.661 -1.0796 -1.0207 -1.9936
  977MOL0     H31838   9.757   9.630   2.574 -1.2785  1.0740 -4.5574
  977MOL0     H31839   9.604   9.686   2.644  0.2441 -0.3683  1.4351
  977MOL0     H31840   9.574   9.772   2.450  0.0329 -1.4071  1.5556
  977MOL0     H31841   9.675   9.908   2.496  3.6098 -1.0237 -0.1997
  977MOL0     H31842   9.882   9.760   2.370  0.5249  0.3285  0.7439
  977MOL0     H31843   9.776   9.872   2.289  0.0739 -1.0192  0.6550
  977MOL0     H31844   9.609   9.684   2.234 -0.4394 -0.5438 -2.4302
  977MOL0     H31845   9.768   9.658   2.160 -2.5852  0.9337 -0.4250
  977MOL0     H31846   9.923   9.511   2.289 -0.0052 -0.4002  0.4844
  977MOL0     H31847   9.843   9.156   2.411  2.3919 -0.7827 -0.3252
  977MOL0     H31848   9.960   9.246   2.317 -2.7852 -1.0579 -2.1875
  977MOL0     H31849  10.021   9.380   2.527  0.5286  0.7791  1.5367
  977MOL0     H31850   9.904   9.291   2.615 -0.5009 -0.7164 -0.2695
  977MOL0     H31851  10.148   9.146   2.472 -1.0163 -2.3288 -0.0282
  977MOL0     H31852  10.021   9.069   2.557  0.5815 -0.2092  1.5217
  977MOL0     H31853  10.078   9.186   2.765 -0.5178  0.2788  0.1527
  977MOL0     H31854  10.208   9.281   2.685 -0.7663  0.7151 -3.9868
  977MOL0     H31855  10.238   9.239   2.920 -0.3756  0.2401 -2.0158
  977MOL0     H31856  10.352   9.214   3.107  0.6240  0.7352  0.9359
  977MOL0     H31857  10.829   8.976   3.222 -3.4331 -1.8802 -2.0063
  977MOL0     H31858  10.980   8.953   3.425  0.8700 -0.9279  2.3882
  977MOL0     H31859  11.094   8.849   3.570 -2.5076  1.2093 -1.6284
  977MOL0     H31860  11.033   8.988   3.645 -0.6881 -1.0548 -0.8846
  977MOL0     H31861  11.062   8.923   3.859  1.3565  0.0715  0.7738
  977MOL0     H31862  11.109   8.758   3.807 -0.5607  0.6356  0.2657
  977MOL0     H31863  11.303   8.829   3.709  0.6013  0.0977 -1.0824
  977MOL0     H31864  11.254   8.998   3.708  1.9231 -0.1840  0.5371
  977MOL0     H31865  11.310   8.838   3.971  0.5892 -1.4088 -0.9907
  977MOL0     H31866  11.283   9.012   3.962  1.0387 -0.0040  2.4558
  977MOL0     H31867  11.497   9.040   3.843  3.4405  0.7462  2.8223
  977MOL0     H31868  11.497   8.859   3.810 -1.4013 -0.6197 -0.0800
  977MOL0     H31869  11.668   8.917   3.947 -0.8333 -1.2811 -0.2721
  977MOL0     H31870  11.569   9.003   4.064 -1.4209  0.8335 -0.7046
  977MOL0     H31871  11.581   8.707   4.018 -1.7922  0.1894 -0.3695
  977MOL0     H31872  11.451   8.780   4.115  0.2475 -1.1663  2.3721
  977MOL0     H31873  11.596   8.855   4.281  1.2511  0.6688  0.0157
  977MOL0     H31874  11.599   8.676   4.250  1.5207 -0.0329  2.5996
  977MOL0     H31875  10.692   8.717   3.628 -0.7646  2.7787  1.6224
  977MOL0     H31876  10.544   8.741   3.391 -0.0254  0.0747  1.3062
  977MOL0     H31877  10.540   8.840   2.951 -2.5142 -1.3669 -1.6162
  977MOL0     H31878  10.397   8.891   2.748  1.3844 -0.3174  0.8067
  977MOL0     H31879  10.241   9.554   2.639  2.1443  0.3795 -0.5406
  977MOL0     H31880  10.466   9.615   2.594  1.2855  1.6384 -0.0307
  977MOL0     H31881  10.751  10.004   2.439 -1.2702 -1.7400 -0.1431
  977MOL0     H31882  11.002  10.071   2.417  0.3084 -0.7855 -1.8457
  977MOL0     H31883  11.335   9.805   2.596  0.3429 -1.3334  1.6082
  977MOL0     H31884  11.271   9.883   2.740 -0.2888  0.0297  0.3111
  977MOL0     H31885  11.354  10.117   2.643 -2.0866 -1.7257  0.3666
  977MOL0     H31886  11.429  10.045   2.517 -0.2854  1.3330  0.3428
  977MOL0     H31887  11.476   9.970   2.817  1.6827  1.5945  1.2876
  977MOL0     H31888  11.566  10.098   2.739  1.2411 -0.3328 -1.0231
  977MOL0     H31889  11.565   9.803   2.656 -0.9262 -0.0850  0.7451
  977MOL0     H31890  11.657   9.947   2.586  0.2880 -2.5668 -0.5282
  977MOL0     H31891  11.861   9.834   2.937 -0.0803  0.9151  0.4454
  977MOL0     H31892  11.106   9.742   2.659 -0.0230 -0.5118  1.2176
  977MOL0     H31893  10.939   9.588   2.754 -0.3390 -0.0608  1.1496
  977MOL0     H31894  10.806   9.689   2.808  4.5729  1.1457  1.5760
  977MOL0     H31895  10.794   9.588   2.660  1.3592  1.5436 -1.7327
  978MOL0     O31896   8.114   9.016   8.142 -0.4158 -0.1453  0.1095
  978MOL0     C31897   8.145   9.059   8.030  0.2111  0.0683 -0.4613
  978MOL0     O31898   8.240   9.158   8.005  0.2134 -0.4289  0.7687
  978MOL0     C31899   8.294   9.220   8.115  0.3381 -1.9169  0.1821
  978MOL0     C31900   8.212   9.320   8.179 -0.0371 -0.1732 -0.2955
  978MOL0     C31901   8.279   9.403   8.270  0.2139 -0.2022  0.2312
  978MOL0     C31902   8.410   9.375   8.305  0.8900 -0.2990  0.5726
  978MOL0     O31903   8.475   9.442   8.410  0.5808 -0.3203 -0.6450
  978MOL0     C31904   8.490   9.589   8.396 -0.7870 -0.3549 -1.0133
  978MOL0     C31905   8.586   9.630   8.295 -0.2548  0.6050 -0.2998
  978MOL0     C31906   8.722   9.570   8.324 -0.3554 -0.5527 -0.1120
  978MOL0     C31907   8.832   9.626   8.229  0.9252  0.7387 -0.0283
  978MOL0     C31908   8.977   9.613   8.290  0.6685  0.4953 -0.9588
  978MOL0     C31909   9.010   9.714   8.408 -0.6006 -0.7476 -0.0170
  978MOL0     C31910   9.155   9.700   8.440 -0.1133  1.2602  0.1495
  978MOL0     C31911   9.213   9.554   8.484 -0.0232 -0.7322 -0.7640
  978MOL0     N31912   9.240   9.472   8.360 -0.3769  0.0347 -0.5986
  978MOL0     C31913   9.314   9.506   8.255  0.3677  0.7784  0.0612
  978MOL0     C31914   9.324   9.390   8.180 -0.3162 -0.1765 -0.5844
  978MOL0     C31915   9.373   9.361   8.046  0.4162 -1.3839  0.7941
  978MOL0     C31916   9.307   9.452   7.938  0.6881  0.0229 -0.6262
  978MOL0     C31917   9.155   9.418   7.945 -1.2567 -0.6096 -1.2723
  978MOL0     C31918   9.092   9.450   7.804 -0.7096 -0.0307  0.3913
  978MOL0     O31919   9.128   9.586   7.761 -0.3423  0.2972  0.0184
  978MOL0     C31920   9.046   9.684   7.813 -0.1315  0.2888  0.8022
  978MOL0     C31921   9.091   9.780   7.906  0.1356 -0.3909 -0.3330
  978MOL0     C31922   9.011   9.884   7.952 -0.1677  0.0361 -0.5235
  978MOL0     C31923   8.873   9.881   7.920 -0.2443 -0.6280 -0.0985
  978MOL0     C31924   8.788   9.980   7.991  0.1126  0.2322  0.7333
  978MOL0     O31925   8.838  10.097   8.043  0.4953 -0.4749 -0.4602
  978MOL0     C31926   8.744  10.197   8.072  0.6677 -0.5931 -0.3101
  978MOL0     C31927   8.628  10.181   8.161 -0.1506  0.0487  0.3537
  978MOL0     C31928   8.531  10.278   8.146  0.9702 -0.3573  0.1426
  978MOL0     C31929   8.550  10.399   8.081 -1.2543  0.5554  0.7877
  978MOL0     O31930   8.474  10.510   8.096  0.1100  0.3989  0.8870
  978MOL0     C31931   8.332  10.492   8.093  0.1593  0.0131  0.1580
  978MOL0     C31932   8.263  10.621   8.067 -0.0614 -0.9059  0.4906
  978MOL0     C31933   8.109  10.616   8.079  0.0296 -0.5305  0.0316
  978MOL0     C31934   8.036  10.506   8.006  0.5908 -1.0422 -0.1290
  978MOL0     C31935   8.075  10.497   7.856 -0.4245  0.3918 -0.2411
  978MOL0     C31936   8.020  10.385   7.765 -0.5002  0.7084  0.1916
  978MOL0     C31937   8.082  10.387   7.620 -0.3196 -0.4288 -0.8028
  978MOL0     C31938   8.016  10.288   7.519 -0.5856 -0.2911 -0.4875
  978MOL0    Cl31939   7.979  10.125   7.575  0.3714 -0.3210 -0.5515
  978MOL0     C31940   8.664  10.413   7.998 -0.0740  0.0284 -0.0550
  978MOL0     C31941   8.758  10.310   7.998 -0.4759  0.1201  0.0687
  978MOL0     O31942   8.673   9.937   8.006 -0.1563 -0.1069 -0.3699
  978MOL0     C31943   8.819   9.790   7.829  0.7723  0.3055  0.4256
  978MOL0     C31944   8.905   9.693   7.778 -1.3385  0.1287  0.4704
  978MOL0     N31945   9.285   9.286   8.251 -0.8357  0.7311  0.1659
  978MOL0     N31946   9.226   9.332   8.361 -0.4269  0.1463  0.3421
  978MOL0     C31947   8.486   9.272   8.243 -0.3364  0.0157  1.0290
  978MOL0     C31948   8.424   9.189   8.151  0.3902 -0.5202 -0.7608
  978MOL0     C31949   8.080   8.987   7.911  0.3118  0.5763 -0.9973
  978MOL0     C31950   8.139   9.018   7.788 -0.0287  0.6080  0.8790
  978MOL0     C31951   8.089   8.959   7.672 -0.9203  0.1509 -0.2628
  978MOL0     C31952   7.996   8.857   7.680 -1.1226 -0.9124  1.6135
  978MOL0     O31953   7.968   8.786   7.564 -0.0823  0.0379 -0.3641
  978MOL0     C31954   7.864   8.852   7.490  0.2035  0.0962  1.0742
  978MOL0     C31955   7.817   8.766   7.371 -0.7421 -0.2527  0.1015
  978MOL0     C31956   7.917   8.782   7.254 -0.6673 -0.3589  0.1809
  978MOL0     C31957   7.847   8.775   7.114  0.1308 -0.8285  0.5530
  978MOL0     C31958   7.741   8.669   7.107 -0.6121 -1.2142  0.1734
  978MOL0     C31959   7.677   8.571   7.104  0.4905 -0.0486  0.8305
  978MOL0     C31960   7.931   8.836   7.797 -1.1341 -0.8765 -0.1999
  978MOL0     C31961   7.970   8.898   7.919 -0.7368 -0.3504  1.5348
  978MOL0     C31962   7.877   8.877   8.034 -0.2657  0.1442 -0.7918
  978MOL0     H31963   8.109   9.343   8.155 -0.1963 -0.1457  0.3972
  978MOL0     H31964   8.228   9.485   8.319  1.2528  0.9957 -0.6214
  978MOL0     H31965   8.397   9.631   8.357 -1.3719  0.1480  0.8075
  978MOL0     H31966   8.497   9.637   8.494 -1.4812  1.4507 -1.8010
  978MOL0     H31967   8.594   9.739   8.287 -2.2131  0.7094 -1.4797
  978MOL0     H31968   8.538   9.604   8.201 -2.0798  1.2872  0.3916
  978MOL0     H31969   8.713   9.461   8.313  2.9529 -1.4497  3.6330
  978MOL0     H31970   8.754   9.597   8.425  0.0557 -0.7220 -0.1957
  978MOL0     H31971   8.819   9.579   8.131 -1.5577 -2.6795  1.7172
  978MOL0     H31972   8.817   9.734   8.221  0.5304  0.6850 -0.0098
  978MOL0     H31973   8.990   9.513   8.331 -0.2029  1.3882  1.7154
  978MOL0     H31974   9.038   9.626   8.201 -0.1414 -1.7201 -1.9003
  978MOL0     H31975   8.993   9.819   8.381 -0.3848 -1.0558 -1.4131
  978MOL0     H31976   8.950   9.696   8.497 -1.4522  1.6418 -0.0196
  978MOL0     H31977   9.173   9.771   8.522  2.3279  0.3645  0.4601
  978MOL0     H31978   9.215   9.730   8.354  0.9141 -0.1045  0.3770
  978MOL0     H31979   9.304   9.583   8.535 -0.3142  0.8326 -1.0968
  978MOL0     H31980   9.146   9.500   8.552 -4.0544  2.3259 -1.9339
  978MOL0     H31981   9.352   9.605   8.232  1.4890  0.2144 -0.5853
  978MOL0     H31982   9.481   9.374   8.055  0.0529  1.5760  2.2837
  978MOL0     H31983   9.372   9.254   8.024  2.6293 -0.4791 -5.4136
  978MOL0     H31984   9.320   9.557   7.964  0.0566 -0.1452  0.4511
  978MOL0     H31985   9.346   9.426   7.839  2.3182 -3.6468  0.7758
  978MOL0     H31986   9.110   9.484   8.020 -0.7438  0.7769 -2.1286
  978MOL0     H31987   9.137   9.321   7.992  0.1462  1.5622  4.6198
  978MOL0     H31988   8.984   9.432   7.810 -0.7443 -0.0659 -0.2577
  978MOL0     H31989   9.135   9.387   7.725 -0.8783  1.4095 -0.8907
  978MOL0     H31990   9.197   9.785   7.928 -0.1886  1.8872  1.0201
  978MOL0     H31991   9.053   9.965   8.010 -1.3995  1.6235 -1.7609
  978MOL0     H31992   8.604  10.092   8.219  2.5630 -0.2157  1.2271
  978MOL0     H31993   8.447  10.268   8.214  0.9013  1.8985  0.4691
  978MOL0     H31994   8.307  10.414   8.021  0.2823  0.1178  0.0011
  978MOL0     H31995   8.302  10.466   8.195 -1.0865  0.1850 -0.1509
  978MOL0     H31996   8.315  10.698   8.123 -0.5975 -2.3674  3.1573
  978MOL0     H31997   8.292  10.651   7.966 -0.2107 -4.0481 -0.6016
  978MOL0     H31998   8.096  10.590   8.184  0.5377 -2.7033 -0.3883
  978MOL0     H31999   8.055  10.708   8.055 -2.1451 -1.4766  1.0763
  978MOL0     H32000   7.928  10.518   8.016  0.5348 -0.4366 -1.3491
  978MOL0     H32001   8.055  10.415   8.063 -0.0968 -0.8347  0.4411
  978MOL0     H32002   8.184  10.509   7.847 -0.5729  2.7319  0.3557
  978MOL0     H32003   8.044  10.584   7.798  1.2325  0.5188 -1.0129
  978MOL0     H32004   8.027  10.286   7.812  1.3939  2.5604  4.3948
  978MOL0     H32005   7.914  10.412   7.755 -0.4826  0.7147  0.0216
  978MOL0     H32006   8.187  10.357   7.627 -1.0897 -3.3314 -0.0584
  978MOL0     H32007   8.083  10.488   7.579 -4.1457 -0.2613 -0.8187
  978MOL0     H32008   7.916  10.329   7.503 -0.0851  0.2744 -2.3157
  978MOL0     H32009   8.074  10.277   7.427  1.7029  0.8528  0.7412
  978MOL0     H32010   8.668  10.508   7.946  0.0422 -1.3367 -2.6828
  978MOL0     H32011   8.844  10.312   7.932  1.0407 -0.7564  1.8950
  978MOL0     H32012   8.712   9.782   7.808  0.9552 -2.6190  0.1721
  978MOL0     H32013   8.874   9.621   7.703  1.4129 -2.4168  1.5593
  978MOL0     H32014   8.591   9.252   8.264  0.0785  1.3919  0.3726
  978MOL0     H32015   8.480   9.114   8.095  0.6976 -0.8671  0.0013
  978MOL0     H32016   8.230   9.073   7.769 -1.0790  2.2148  0.2169
  978MOL0     H32017   8.136   8.992   7.580 -0.1345  4.1668  1.3638
  978MOL0     H32018   7.888   8.949   7.446 -0.3599 -1.5925 -3.5642
  978MOL0     H32019   7.772   8.867   7.547 -2.9466 -0.3579 -3.3488
  978MOL0     H32020   7.717   8.788   7.332 -0.9172 -0.0022  0.6780
  978MOL0     H32021   7.834   8.662   7.400  1.5638 -0.2798 -1.1202
  978MOL0     H32022   7.986   8.699   7.268 -1.1530 -0.6391  1.0089
  978MOL0     H32023   7.968   8.879   7.261 -4.5217  2.0050 -1.1901
  978MOL0     H32024   7.794   8.868   7.088 -1.9870 -2.3637 -0.9364
  978MOL0     H32025   7.916   8.763   7.030  0.3264 -1.4341  0.7999
  978MOL0     H32026   7.630   8.475   7.107  0.8814 -0.3454 -1.2392
  978MOL0     H32027   7.842   8.774   7.802 -0.0078 -2.4704  1.2238
  978MOL0     H32028   7.924   8.822   8.116  1.1741  0.9065 -1.0731
  978MOL0     H32029   7.848   8.974   8.076  0.8019 -0.9893  2.9431
  978MOL0     H32030   7.788   8.817   8.010  1.0567 -1.8694 -0.9041
  979MOL0     O32031   5.703   0.819   0.553  0.6112 -0.1726  0.0440
  979MOL0     C32032   5.787   0.748   0.496  0.3868  0.3855  0.3250
  979MOL0     O32033   5.841   0.778   0.376 -0.1684 -0.3047  0.8153
  979MOL0     C32034   5.847   0.916   0.343 -0.7144 -0.2670 -0.1743
  979MOL0     C32035   5.753   0.977   0.263 -0.2848  0.5048 -0.6854
  979MOL0     C32036   5.764   1.112   0.228  0.3983  0.3134 -0.7276
  979MOL0     C32037   5.878   1.185   0.275 -0.2613  0.3717 -0.1413
  979MOL0     O32038   5.890   1.327   0.262  0.2729  0.4491 -0.2154
  979MOL0     C32039   5.818   1.396   0.161  0.1152 -0.6129  0.1343
  979MOL0     C32040   5.868   1.541   0.181  0.3727  0.0257  0.2351
  979MOL0     C32041   5.825   1.617   0.054  0.4446 -0.5584  0.6223
  979MOL0     C32042   5.890   1.757   0.054 -0.6023 -0.9616  0.1333
  979MOL0     C32043   5.812   1.861   0.142  0.0877 -0.5283 -0.5805
  979MOL0     C32044   5.898   1.993   0.155  0.7048  0.5676  0.0545
  979MOL0     C32045   5.918   2.061   0.022 -0.1901 -0.6038  0.2584
  979MOL0     C32046   5.788   2.090  -0.054 -0.2781  0.7560 -0.0324
  979MOL0     N32047   5.748   2.227  -0.065  0.9639 -0.8978 -0.6047
  979MOL0     C32048   5.694   2.293  -0.171  0.2069 -0.5555 -0.2268
  979MOL0     C32049   5.665   2.415  -0.125  0.4307 -0.3489 -0.8722
  979MOL0     C32050   5.601   2.526  -0.213  0.1359  0.2525  0.6409
  979MOL0     C32051   5.707   2.605  -0.292 -0.1075  0.2728  0.9032
  979MOL0     C32052   5.780   2.703  -0.197 -0.5286 -0.0618  1.1317
  979MOL0     C32053   5.781   2.846  -0.241  0.1558  0.0125  0.1238
  979MOL0     O32054   5.879   2.909  -0.155  0.4732  0.3399  0.0002
  979MOL0     C32055   5.864   2.914  -0.023  0.9845  0.9008  0.2453
  979MOL0     C32056   5.735   2.920   0.037  0.5313  0.1952  0.6266
  979MOL0     C32057   5.718   2.909   0.178 -0.0695  0.2677  0.1515
  979MOL0     C32058   5.832   2.881   0.256 -0.9355  0.5270  0.3945
  979MOL0     C32059   5.814   2.862   0.401 -0.5695 -0.9834 -0.0493
  979MOL0     O32060   5.713   2.935   0.452  0.2293 -0.0549 -0.8113
  979MOL0     C32061   5.710   2.957   0.587 -0.0561  0.1216 -0.8385
  979MOL0     C32062   5.741   3.078   0.641 -0.2350  0.0127  0.2023
  979MOL0     C32063   5.731   3.099   0.777  0.2322 -0.2340  0.3062
  979MOL0     C32064   5.677   3.001   0.863  0.1517 -0.0730 -0.1621
  979MOL0     O32065   5.670   3.029   0.994 -0.3706  0.1571 -0.1817
  979MOL0     C32066   5.598   2.939   1.084 -0.5134  1.0864 -0.8784
  979MOL0     C32067   5.559   3.021   1.205 -0.2416 -0.2551  0.7967
  979MOL0     C32068   5.474   2.959   1.311  0.0554 -0.3364 -0.2550
  979MOL0     C32069   5.556   2.841   1.371  0.3085 -0.2548 -0.2964
  979MOL0     C32070   5.494   2.770   1.487  0.8289  0.1159  0.2775
  979MOL0     C32071   5.586   2.663   1.555 -0.5957 -1.0632  0.5174
  979MOL0     C32072   5.498   2.577   1.646 -0.5046 -0.2886 -1.6076
  979MOL0     C32073   5.591   2.488   1.746  0.3022 -1.8535  0.2664
  979MOL0    Cl32074   5.680   2.372   1.652 -0.6635  0.0646  0.2029
  979MOL0     C32075   5.644   2.882   0.799  0.1310  0.3801 -0.4701
  979MOL0     C32076   5.655   2.854   0.663  1.0009 -0.4524 -0.2022
  979MOL0     O32077   5.893   2.797   0.465 -0.4898  0.1738 -0.0346
  979MOL0     C32078   5.957   2.862   0.200 -0.5257 -0.6796  1.2793
  979MOL0     C32079   5.961   2.875   0.062  0.6425 -0.2021  0.0816
  979MOL0     N32080   5.700   2.431   0.007  0.5304  0.6458  0.1627
  979MOL0     N32081   5.745   2.316   0.048 -0.5311  0.3755  0.7827
  979MOL0     C32082   5.968   1.123   0.357 -0.1925  0.3853 -0.0316
  979MOL0     C32083   5.946   0.993   0.393 -0.3024  0.7140  0.8559
  979MOL0     C32084   5.807   0.600   0.554  0.7349  0.0093  0.8295
  979MOL0     C32085   5.838   0.503   0.469 -0.0297  0.4846  0.5921
  979MOL0     C32086   5.851   0.368   0.510  0.1667 -0.1615 -0.8798
  979MOL0     C32087   5.849   0.336   0.645  1.0107 -0.3558  0.0027
  979MOL0     O32088   5.853   0.210   0.688 -0.2491  0.3094 -0.3276
  979MOL0     C32089   5.890   0.100   0.604 -0.3244 -0.5630  0.1229
  979MOL0     C32090   5.935  -0.021   0.687 -0.2851  0.3522 -0.0466
  979MOL0     C32091   6.076  -0.007   0.736 -0.1481  0.4191 -0.3074
  979MOL0     C32092   6.119   0.132   0.798  0.0354  0.5199 -0.0348
  979MOL0     C32093   6.260   0.125   0.849 -0.0587 -0.1693  0.0521
  979MOL0     C32094   6.373   0.119   0.869 -0.3926 -0.4289  0.2616
  979MOL0     C32095   5.806   0.438   0.732  0.6075 -0.2000 -0.5854
  979MOL0     C32096   5.783   0.570   0.695  0.0043  0.2844 -0.7800
  979MOL0     C32097   5.750   0.665   0.808 -0.2197 -1.1713 -0.6297
  979MOL0     H32098   5.662   0.923   0.238 -0.8970  1.5323 -0.7718
  979MOL0     H32099   5.682   1.161   0.178  0.8045  1.2447 -0.5204
  979MOL0     H32100   5.850   1.359   0.063  1.4287 -0.4188  0.4703
  979MOL0     H32101   5.709   1.389   0.165  0.2347 -2.8520  1.1644
  979MOL0     H32102   5.977   1.542   0.196  0.9676 -0.5813 -3.2199
  979MOL0     H32103   5.817   1.585   0.267  0.0429 -0.8158  0.4804
  979MOL0     H32104   5.715   1.619   0.054  0.4072  2.1515 -0.0086
  979MOL0     H32105   5.863   1.571  -0.038  1.1765  3.7242 -1.4938
  979MOL0     H32106   5.993   1.744   0.086 -0.4502  1.0404  0.5676
  979MOL0     H32107   5.899   1.788  -0.051 -1.6686 -3.2945 -0.7219
  979MOL0     H32108   5.715   1.881   0.096 -0.2782  0.7336  0.6631
  979MOL0     H32109   5.804   1.810   0.239  1.0874  2.5438  1.2468
  979MOL0     H32110   5.837   2.049   0.226 -2.0164  0.0037 -1.6712
  979MOL0     H32111   5.992   1.971   0.206 -0.2098 -0.8920  1.1644
  979MOL0     H32112   5.987   2.005  -0.042  4.2470  3.2235  1.1398
  979MOL0     H32113   5.975   2.154   0.028  1.4215 -1.6395  2.0767
  979MOL0     H32114   5.823   2.051  -0.150  0.4437 -2.9306  1.5514
  979MOL0     H32115   5.699   2.038  -0.016 -0.8967  1.7577 -0.0848
  979MOL0     H32116   5.685   2.249  -0.270  0.7086 -1.5739  0.1621
  979MOL0     H32117   5.542   2.472  -0.288  4.4092 -3.7041 -0.3282
  979MOL0     H32118   5.548   2.596  -0.148  0.5781  2.5599 -1.3379
  979MOL0     H32119   5.766   2.540  -0.357 -0.3312 -1.1786  2.1215
  979MOL0     H32120   5.655   2.680  -0.353  1.7697  2.7324  2.1309
  979MOL0     H32121   5.883   2.667  -0.188 -0.2443  0.6079  0.6275
  979MOL0     H32122   5.730   2.710  -0.101  0.0809  3.3668  1.3049
  979MOL0     H32123   5.686   2.900  -0.227 -0.1496 -1.1241  3.1967
  979MOL0     H32124   5.822   2.868  -0.340  2.8830 -0.7814  1.0093
  979MOL0     H32125   5.641   2.938  -0.014  1.1226 -4.1372 -2.5394
  979MOL0     H32126   5.615   2.914   0.211 -1.4660  3.4858 -3.8580
  979MOL0     H32127   5.779   3.153   0.573 -1.1039  2.6529  2.4395
  979MOL0     H32128   5.760   3.195   0.818  2.0980  0.0101 -1.4304
  979MOL0     H32129   5.507   2.893   1.044 -1.2596  2.6637 -1.0838
  979MOL0     H32130   5.667   2.866   1.128 -0.1535  2.2502  0.5696
  979MOL0     H32131   5.653   3.067   1.237  0.8212 -1.9259  0.2399
  979MOL0     H32132   5.514   3.110   1.161 -0.3309  0.0385  1.4777
  979MOL0     H32133   5.453   3.040   1.382  0.0136  0.6424 -1.3544
  979MOL0     H32134   5.374   2.928   1.279 -1.1341 -0.6634  3.3151
  979MOL0     H32135   5.651   2.880   1.408 -0.9296 -0.3662  3.3942
  979MOL0     H32136   5.581   2.768   1.294  0.3044  0.3066 -0.8415
  979MOL0     H32137   5.404   2.717   1.453 -0.0235  0.8934  1.2560
  979MOL0     H32138   5.461   2.843   1.562 -1.6799 -0.3580 -0.2695
  979MOL0     H32139   5.639   2.607   1.478 -2.3235  1.8888 -3.1481
  979MOL0     H32140   5.646   2.728   1.619 -2.6014  0.0575  1.3373
  979MOL0     H32141   5.436   2.509   1.587 -1.5326 -2.5297  1.7710
  979MOL0     H32142   5.417   2.635   1.693 -2.7733 -2.6530 -2.3251
  979MOL0     H32143   5.662   2.551   1.801 -0.2717 -1.0758  0.1369
  979MOL0     H32144   5.526   2.437   1.819 -0.8963 -2.4287 -1.1458
  979MOL0     H32145   5.604   2.799   0.857  0.9014  0.9501  0.9285
  979MOL0     H32146   5.652   2.755   0.619  4.0030 -0.8448  0.2376
  979MOL0     H32147   6.043   2.849   0.264  0.6418 -4.0940 -0.6914
  979MOL0     H32148   6.056   2.852   0.014  0.9358 -0.4174  0.7531
  979MOL0     H32149   6.060   1.174   0.384 -0.2084  3.1928 -4.2680
  979MOL0     H32150   6.014   0.944   0.463 -0.6461 -2.3344 -0.7902
  979MOL0     H32151   5.856   0.527   0.365 -2.6840 -2.5302 -0.7209
  979MOL0     H32152   5.870   0.297   0.431 -0.3866  1.2881 -2.3845
  979MOL0     H32153   5.973   0.131   0.539 -0.1254 -1.8279 -0.2622
  979MOL0     H32154   5.807   0.077   0.538 -0.0161  0.0166 -0.4839
  979MOL0     H32155   5.927  -0.115   0.631 -0.2390 -1.1681  2.3720
  979MOL0     H32156   5.872  -0.042   0.774  0.8756  3.4322  1.6710
  979MOL0     H32157   6.144  -0.044   0.659  0.4773  0.7331  0.0887
  979MOL0     H32158   6.082  -0.073   0.823  0.5180 -0.1889 -0.8038
  979MOL0     H32159   6.120   0.203   0.715  1.4755  2.2976  1.4226
  979MOL0     H32160   6.054   0.167   0.879  0.8313  2.8627 -0.3216
  979MOL0     H32161   6.479   0.110   0.883  0.8462  3.9994 -3.6934
  979MOL0     H32162   5.799   0.411   0.836 -0.3906 -0.7667 -0.7891
  979MOL0     H32163   5.641   0.664   0.819 -0.1742 -0.5676 -0.0687
  979MOL0     H32164   5.802   0.636   0.900 -0.2614 -0.3410 -0.3427
  979MOL0     H32165   5.766   0.772   0.794  0.8865 -0.5876  3.6919
  980MOL0     O32166   8.623  10.582   4.348  0.0486 -0.2738 -0.3487
  980MOL0     C32167   8.546  10.518   4.278  0.3438 -0.1757  0.0254
  980MOL0     O32168   8.415  10.491   4.315  0.0651 -0.2983  0.0301
  980MOL0     C32169   8.363  10.516   4.439 -1.1897 -0.2759  0.0185
  980MOL0     C32170   8.239  10.578   4.447 -0.3272  0.6544 -0.7418
  980MOL0     C32171   8.183  10.613   4.560  1.0553  0.3267  0.5116
  980MOL0     C32172   8.244  10.588   4.679 -0.4161  0.2433  0.6795
  980MOL0     O32173   8.180  10.643   4.788  0.3124 -0.2437 -0.0730
  980MOL0     C32174   8.225  10.615   4.922 -0.2552  0.3984  0.4246
  980MOL0     C32175   8.327  10.715   4.988 -0.2889 -0.6687  0.6986
  980MOL0     C32176   8.279  10.859   4.979  0.0085 -0.1090 -0.5816
  980MOL0     C32177   8.349  10.955   5.070  0.0586  0.1762 -0.3462
  980MOL0     C32178   8.311  11.104   5.042 -0.3429 -0.1273  0.4674
  980MOL0     C32179   8.392  11.218   5.119 -0.5147  0.7991  0.7811
  980MOL0     C32180   8.388  11.343   5.032 -0.7942  0.2381 -0.0505
  980MOL0     C32181   8.418  11.463   5.124 -0.0667  0.1647  0.4115
  980MOL0     N32182   8.424  11.582   5.047  0.1401  0.1258  0.1532
  980MOL0     C32183   8.533  11.657   5.007 -0.1913  0.7655  0.2669
  980MOL0     C32184   8.484  11.746   4.918 -0.0676 -0.5140 -0.3906
  980MOL0     C32185   8.572  11.839   4.841  1.6921  0.6517  0.6534
  980MOL0     C32186   8.638  11.769   4.720 -1.4678 -0.3053  0.6848
  980MOL0     C32187   8.760  11.854   4.673  0.6540 -0.5331 -0.3064
  980MOL0     C32188   8.895  11.844   4.744  0.5867  0.2083  0.2664
  980MOL0     O32189   8.923  11.708   4.761 -0.2512 -0.1820  0.7207
  980MOL0     C32190   9.046  11.672   4.824  0.4510 -0.1435 -0.6651
  980MOL0     C32191   9.109  11.550   4.800  0.6393 -0.0174 -0.7288
  980MOL0     C32192   9.219  11.507   4.861  0.6674 -0.5383 -0.0802
  980MOL0     C32193   9.287  11.592   4.946 -0.0918 -0.4163 -0.7592
  980MOL0     C32194   9.411  11.542   5.010  0.2650 -0.2177  1.1869
  980MOL0     O32195   9.458  11.608   5.125 -0.5039 -0.5183 -0.0021
  980MOL0     C32196   9.585  11.571   5.151 -0.2221  0.9960  0.7284
  980MOL0     C32197   9.594  11.463   5.239  0.7742  0.6166  0.9768
  980MOL0     C32198   9.715  11.426   5.274  0.8150 -0.0582 -1.1196
  980MOL0     C32199   9.834  11.477   5.210 -0.0195  0.3558  1.2429
  980MOL0     O32200   9.957  11.415   5.246  0.6864  1.2295 -0.1282
  980MOL0     C32201  10.066  11.424   5.149  0.0618 -0.5307 -0.7489
  980MOL0     C32202  10.203  11.368   5.214  0.4606  0.3635  0.6595
  980MOL0     C32203  10.181  11.229   5.279 -0.1386 -0.9420 -0.5806
  980MOL0     C32204  10.312  11.145   5.274 -0.1229  0.3891 -0.4087
  980MOL0     C32205  10.325  11.059   5.155 -0.2843 -0.0916  0.4717
  980MOL0     C32206  10.444  10.961   5.164  0.0344  0.5740  0.2818
  980MOL0     C32207  10.423  10.849   5.259  0.2022  0.9262  0.4561
  980MOL0     C32208  10.557  10.824   5.323 -0.2204  1.6738 -0.3465
  980MOL0    Cl32209  10.597  10.953   5.447 -0.0264 -0.0757 -0.0997
  980MOL0     C32210   9.819  11.586   5.125  0.1801  0.0565  0.9237
  980MOL0     C32211   9.692  11.638   5.101  0.6632 -0.6908 -0.6031
  980MOL0     O32212   9.461  11.439   4.962  0.2428  0.4730  0.2085
  980MOL0     C32213   9.230  11.718   4.978 -0.1153 -0.6643  0.4740
  980MOL0     C32214   9.109  11.755   4.921 -0.4296  0.0759  0.0686
  980MOL0     N32215   8.342  11.737   4.898 -0.1759  1.0612 -0.5396
  980MOL0     N32216   8.324  11.634   4.976 -0.0398  0.0558 -0.1806
  980MOL0     C32217   8.378  10.532   4.673  1.1418 -0.2149 -0.0537
  980MOL0     C32218   8.435  10.499   4.552  0.5902  0.4844 -0.4749
  980MOL0     C32219   8.590  10.449   4.157 -0.6850 -0.4875  0.6557
  980MOL0     C32220   8.517  10.481   4.043  0.0362  0.5855 -0.6260
  980MOL0     C32221   8.556  10.441   3.911  0.8466 -0.3647 -0.7094
  980MOL0     C32222   8.665  10.363   3.898 -0.5013  0.6747  0.1500
  980MOL0     O32223   8.702  10.317   3.777 -0.1239 -0.0970  0.1039
  980MOL0     C32224   8.601  10.276   3.687 -0.3609 -0.6212 -0.0353
  980MOL0     C32225   8.627  10.126   3.639 -0.3922 -0.9575  0.3116
  980MOL0     C32226   8.530  10.027   3.704  1.1315 -0.8059 -0.7185
  980MOL0     C32227   8.592   9.891   3.750 -0.2087 -0.6606  0.4600
  980MOL0     C32228   8.682   9.912   3.865  1.2087 -0.1974 -0.4358
  980MOL0     C32229   8.769   9.949   3.949 -0.1017  0.9156  0.7364
  980MOL0     C32230   8.738  10.335   4.004 -0.2238 -0.3160 -0.5125
  980MOL0     C32231   8.713  10.380   4.131  0.9508  0.1485 -0.0260
  980MOL0     C32232   8.809  10.356   4.241 -0.2841  0.0917 -0.2729
  980MOL0     H32233   8.187  10.580   4.351  1.4785 -3.8933 -2.0688
  980MOL0     H32234   8.079  10.645   4.570  0.2056 -1.9842 -0.1800
  980MOL0     H32235   8.138  10.610   4.987  1.4884 -0.1201  2.8480
  980MOL0     H32236   8.284  10.523   4.930  3.5477  2.4254 -1.1877
  980MOL0     H32237   8.427  10.707   4.944  0.1684 -1.7167  1.8741
  980MOL0     H32238   8.339  10.695   5.094 -1.5891  0.9925  1.1942
  980MOL0     H32239   8.170  10.863   4.993 -0.0671 -1.2375 -0.7123
  980MOL0     H32240   8.294  10.890   4.876 -2.3255  4.1981  0.1490
  980MOL0     H32241   8.319  10.928   5.171  0.9982 -2.2222 -0.6496
  980MOL0     H32242   8.457  10.941   5.060  0.2499 -0.0331  1.6104
  980MOL0     H32243   8.332  11.105   4.934  2.2330 -1.5308  0.8798
  980MOL0     H32244   8.204  11.115   5.064 -1.1001 -2.3480 -1.6498
  980MOL0     H32245   8.335  11.235   5.211 -0.7409  0.6827  0.6622
  980MOL0     H32246   8.497  11.195   5.141 -1.4027 -2.0110  2.6953
  980MOL0     H32247   8.284  11.363   5.006 -0.9513  2.5103  1.9580
  980MOL0     H32248   8.459  11.334   4.949 -1.2085 -0.0857 -0.3792
  980MOL0     H32249   8.342  11.473   5.202 -1.5564 -0.5818 -0.8934
  980MOL0     H32250   8.520  11.455   5.163 -0.0885 -2.6010  0.0594
  980MOL0     H32251   8.639  11.647   5.029 -0.3128 -1.4418  0.0698
  980MOL0     H32252   8.505  11.918   4.804  0.2493 -0.9255 -0.2587
  980MOL0     H32253   8.642  11.889   4.908 -1.0859  2.4873  2.4430
  980MOL0     H32254   8.671  11.668   4.742  3.0692  0.9463  0.4898
  980MOL0     H32255   8.564  11.760   4.640 -0.9528  2.8816 -0.3244
  980MOL0     H32256   8.726  11.958   4.676 -0.2470 -0.7679  4.0575
  980MOL0     H32257   8.786  11.827   4.570  5.4334 -2.2377  1.0717
  980MOL0     H32258   8.885  11.897   4.839 -2.3382  0.2042  0.0522
  980MOL0     H32259   8.967  11.901   4.684  2.9751 -0.8139  1.9687
  980MOL0     H32260   9.060  11.481   4.732  3.7230  0.7147 -4.0780
  980MOL0     H32261   9.257  11.407   4.843  1.4157 -0.2015 -0.4266
  980MOL0     H32262   9.506  11.429   5.293 -0.3636  0.6834 -0.7511
  980MOL0     H32263   9.716  11.346   5.347 -0.1067 -0.9524 -2.0519
  980MOL0     H32264  10.045  11.357   5.065  0.9698 -1.5337 -0.2182
  980MOL0     H32265  10.085  11.528   5.122  3.3328 -1.0720 -1.0111
  980MOL0     H32266  10.274  11.364   5.132  1.5693  2.6326  1.4105
  980MOL0     H32267  10.240  11.442   5.286  0.3866  0.6328  0.4258
  980MOL0     H32268  10.166  11.253   5.385  2.0848  2.2606 -0.8366
  980MOL0     H32269  10.108  11.166   5.228 -1.8318  1.7109 -1.6271
  980MOL0     H32270  10.312  11.094   5.371 -0.3523  1.2886  0.0783
  980MOL0     H32271  10.397  11.214   5.274 -2.0782  2.9435 -1.4398
  980MOL0     H32272  10.334  11.116   5.062  2.9918 -0.5357  0.3952
  980MOL0     H32273  10.233  11.002   5.143 -0.6861  0.8501 -1.2208
  980MOL0     H32274  10.458  10.906   5.070  3.3958 -2.6355  2.3723
  980MOL0     H32275  10.540  11.011   5.184  0.0764  1.0485 -0.9820
  980MOL0     H32276  10.371  10.768   5.207 -0.2373  2.2297 -1.2347
  980MOL0     H32277  10.356  10.888   5.335 -1.8283  3.9779 -2.5859
  980MOL0     H32278  10.552  10.730   5.379 -1.2344  1.7364 -0.3145
  980MOL0     H32279  10.633  10.811   5.246  2.7142 -2.5274  2.8388
  980MOL0     H32280   9.907  11.635   5.086 -0.1841 -0.3613 -0.4882
  980MOL0     H32281   9.681  11.725   5.037  5.3428 -0.4470 -1.4668
  980MOL0     H32282   9.279  11.783   5.050  0.6401  0.5219 -1.0600
  980MOL0     H32283   9.070  11.855   4.940  2.1067  2.1475 -4.1547
  980MOL0     H32284   8.444  10.515   4.758  2.2523 -0.3098 -0.9083
  980MOL0     H32285   8.536  10.460   4.549  1.2152  1.8771  0.9325
  980MOL0     H32286   8.430  10.546   4.054 -3.0008 -3.0479 -1.3075
  980MOL0     H32287   8.492  10.480   3.833  0.0999  0.8908  0.4913
  980MOL0     H32288   8.630  10.348   3.610  1.1243 -0.5785  0.5312
  980MOL0     H32289   8.499  10.281   3.725 -0.5952 -1.1253 -0.5833
  980MOL0     H32290   8.732  10.103   3.658 -0.6773 -2.0436  0.6866
  980MOL0     H32291   8.606  10.122   3.531 -1.5462 -2.6055  0.5550
  980MOL0     H32292   8.458   9.999   3.626 -0.2141 -0.4962  0.3617
  980MOL0     H32293   8.481  10.075   3.789  0.0341 -1.0398 -1.2014
  980MOL0     H32294   8.512   9.819   3.771 -0.5557 -0.0829  1.1636
  980MOL0     H32295   8.655   9.843   3.675  0.1378  0.2381  0.1626
  980MOL0     H32296   8.851   9.968   4.016  0.6103 -0.4550  0.3003
  980MOL0     H32297   8.821  10.266   3.990 -0.6781 -1.5051  1.9345
  980MOL0     H32298   8.834  10.461   4.257 -1.6403  0.4505 -0.4010
  980MOL0     H32299   8.756  10.328   4.332 -0.2449  1.7443  0.2887
  980MOL0     H32300   8.889  10.285   4.219 -0.7177 -1.6170  3.0917
  981MOL0     O32301   8.511   1.758  10.814  0.1466  0.7597 -0.3149
  981MOL0     C32302   8.397   1.789  10.765 -0.4419  0.1245  0.4005
  981MOL0     O32303   8.383   1.893  10.670  0.7317  0.0101 -0.0554
  981MOL0     C32304   8.489   1.969  10.632 -0.5345 -0.3835  0.3715
  981MOL0     C32305   8.548   1.943  10.501 -0.2146  0.3388  0.4022
  981MOL0     C32306   8.674   2.007  10.478 -0.1854  0.6099  0.2916
  981MOL0     C32307   8.727   2.102  10.571 -0.8142  0.7005  0.8544
  981MOL0     O32308   8.828   2.193  10.538 -0.1392  0.6046  0.0416
  981MOL0     C32309   8.776   2.322  10.505 -0.0845 -0.2874 -0.1814
  981MOL0     C32310   8.862   2.427  10.577  0.3139 -0.1771 -0.9123
  981MOL0     C32311   8.768   2.517  10.661 -0.0927 -0.4571 -0.9384
  981MOL0     C32312   8.839   2.630  10.728 -0.4704 -0.2028 -0.2638
  981MOL0     C32313   8.775   2.669  10.866 -0.2343 -0.3895  0.3223
  981MOL0     C32314   8.634   2.712  10.838 -0.6071 -0.9907 -0.5861
  981MOL0     C32315   8.579   2.784  10.970 -0.4062  0.0433  0.4980
  981MOL0     C32316   8.447   2.873  10.933 -1.1168  0.0727 -0.6172
  981MOL0     N32317   8.391   2.940  11.054  0.6781 -0.0271  0.0564
  981MOL0     C32318   8.467   2.992  11.155 -0.0362  0.1612  0.0521
  981MOL0     C32319   8.389   3.030  11.255 -0.7017  0.3019 -0.2244
  981MOL0     C32320   8.436   3.100  11.375 -0.2630 -0.0242  0.2921
  981MOL0     C32321   8.484   3.010  11.490  0.1965  0.1044 -0.3013
  981MOL0     C32322   8.556   3.093  11.595 -0.9995 -0.4633 -0.3246
  981MOL0     C32323   8.585   3.020  11.724  0.1131  0.0374  0.1233
  981MOL0     O32324   8.686   3.091  11.801 -0.2664  0.3798  0.0315
  981MOL0     C32325   8.741   3.025  11.908  0.0055 -0.9513 -0.4912
  981MOL0     C32326   8.842   3.095  11.969 -0.8845  0.5894  0.4190
  981MOL0     C32327   8.895   3.049  12.091 -0.1809  0.5317  0.6709
  981MOL0     C32328   8.849   2.924  12.150 -0.0686 -0.6158 -0.5411
  981MOL0     C32329   8.902   2.883  12.285 -0.1913 -1.4078  1.0005
  981MOL0     O32330   8.861   2.764  12.332  1.3093 -0.7239 -0.4940
  981MOL0     C32331   8.897   2.717  12.455  0.6712  0.1829  0.3021
  981MOL0     C32332   8.789   2.686  12.541 -0.6563 -1.1936 -0.2548
  981MOL0     C32333   8.814   2.658  12.673 -0.8688  1.2344  0.2736
  981MOL0     C32334   8.952   2.657  12.713 -0.3088 -0.4969  0.1416
  981MOL0     O32335   8.972   2.630  12.850  0.3503  0.7267  0.9036
  981MOL0     C32336   9.106   2.625  12.903 -0.0263  0.0102 -0.5993
  981MOL0     C32337   9.098   2.632  13.065 -0.4679  0.2745 -0.3809
  981MOL0     C32338   9.231   2.612  13.132 -0.5996  0.5521  0.4040
  981MOL0     C32339   9.222   2.637  13.276  0.1608 -0.0454 -1.1651
  981MOL0     C32340   9.353   2.618  13.356  0.7494 -1.1484  1.6094
  981MOL0     C32341   9.423   2.484  13.315  0.0474  0.3129 -0.1061
  981MOL0     C32342   9.535   2.473  13.408 -0.2393 -1.0613 -0.3827
  981MOL0     C32343   9.623   2.344  13.371 -0.5094 -0.7248  0.7595
  981MOL0    Cl32344   9.684   2.343  13.195 -0.1147 -0.0015 -0.2014
  981MOL0     C32345   9.064   2.669  12.623  0.4076  0.3507 -0.8688
  981MOL0     C32346   9.030   2.702  12.493 -0.6954 -0.8316  0.2640
  981MOL0     O32347   8.969   2.968  12.349  0.3261 -0.2727  0.5293
  981MOL0     C32348   8.746   2.855  12.082  0.0045 -1.1039 -0.3898
  981MOL0     C32349   8.689   2.900  11.960 -0.4338  0.8724  0.9686
  981MOL0     N32350   8.260   2.991  11.219  0.1748  0.2061  0.2208
  981MOL0     N32351   8.262   2.947  11.097 -0.2012 -0.4062  0.3429
  981MOL0     C32352   8.676   2.121  10.701 -1.0834  0.2086 -0.2788
  981MOL0     C32353   8.551   2.050  10.728 -0.9278 -0.0279 -0.3559
  981MOL0     C32354   8.277   1.731  10.818  0.1993 -0.5002 -0.3971
  981MOL0     C32355   8.167   1.821  10.844  0.3126 -0.2514 -0.8488
  981MOL0     C32356   8.048   1.774  10.898 -0.2231  0.1710 -0.9743
  981MOL0     C32357   8.031   1.645  10.934  0.3511  0.1325  0.3240
  981MOL0     O32358   7.905   1.605  10.982 -0.3755  0.0194  0.5490
  981MOL0     C32359   7.795   1.625  10.885  1.2494 -0.1343  0.6725
  981MOL0     C32360   7.719   1.501  10.852  0.1180  0.7811  1.0004
  981MOL0     C32361   7.817   1.376  10.847  0.6628  0.1942 -0.2648
  981MOL0     C32362   7.893   1.380  10.712 -0.1414  0.9029  0.3792
  981MOL0     C32363   7.967   1.251  10.686  0.4899 -0.4957  0.4976
  981MOL0     C32364   8.023   1.148  10.653 -0.7050  0.9448 -0.4427
  981MOL0     C32365   8.136   1.558  10.927 -1.1733  0.1785  0.0009
  981MOL0     C32366   8.262   1.600  10.871  0.5121 -0.1146  0.1640
  981MOL0     C32367   8.375   1.499  10.882 -0.1222 -0.9018  0.5311
  981MOL0     H32368   8.498   1.887  10.422  0.2342  0.1374  0.2614
  981MOL0     H32369   8.717   2.006  10.378 -0.6547  1.5314  0.0656
  981MOL0     H32370   8.793   2.319  10.397 -1.6331 -0.1453 -0.4552
  981MOL0     H32371   8.667   2.327  10.515 -0.2635 -3.4282  0.3908
  981MOL0     H32372   8.923   2.486  10.509  1.1644 -0.2318 -0.2057
  981MOL0     H32373   8.926   2.375  10.649 -1.6603 -0.7268  0.5620
  981MOL0     H32374   8.710   2.465  10.737  0.2684  0.4476 -0.0226
  981MOL0     H32375   8.683   2.553  10.601  0.8603 -0.2761 -2.2295
  981MOL0     H32376   8.941   2.601  10.754 -0.1839  2.2667  1.7160
  981MOL0     H32377   8.837   2.716  10.660 -0.9592  1.9222  2.2974
  981MOL0     H32378   8.781   2.589  10.940  1.1725 -0.1837  0.4707
  981MOL0     H32379   8.823   2.757  10.911 -3.6902  1.5692  0.4996
  981MOL0     H32380   8.635   2.786  10.757  1.9600 -1.4518 -1.0651
  981MOL0     H32381   8.566   2.632  10.808 -1.3624 -1.3235  1.7785
  981MOL0     H32382   8.660   2.847  11.011  2.4273 -2.8739 -0.2055
  981MOL0     H32383   8.550   2.709  11.045  0.4490 -0.3134  0.4887
  981MOL0     H32384   8.466   2.954  10.862  1.3496 -3.2417 -4.0819
  981MOL0     H32385   8.373   2.806  10.890 -2.4961 -1.0668  3.1019
  981MOL0     H32386   8.576   2.992  11.152 -0.0026 -0.2555  0.8832
  981MOL0     H32387   8.512   3.172  11.343  0.3407 -1.4463 -1.6470
  981MOL0     H32388   8.357   3.169  11.407  1.1536  2.9375 -2.0787
  981MOL0     H32389   8.405   2.953  11.539  0.4464 -1.2975 -1.4596
  981MOL0     H32390   8.551   2.928  11.464  0.4974 -0.3641  1.7968
  981MOL0     H32391   8.495   3.180  11.619  0.1918  0.2412  0.2578
  981MOL0     H32392   8.651   3.116  11.544 -1.7376  3.6936 -0.1758
  981MOL0     H32393   8.612   2.919  11.692  2.3888  0.4580  0.5225
  981MOL0     H32394   8.497   3.006  11.788  0.1112 -3.2698 -0.4560
  981MOL0     H32395   8.886   3.183  11.921  0.6773 -0.5339 -0.3006
  981MOL0     H32396   8.961   3.117  12.143  1.4712  0.5892 -1.3643
  981MOL0     H32397   8.691   2.716  12.504  0.5311  1.4654 -1.4990
  981MOL0     H32398   8.735   2.648  12.746 -1.8972  0.8251 -0.8508
  981MOL0     H32399   9.160   2.541  12.858  3.5578  1.4068  0.7549
  981MOL0     H32400   9.154   2.718  12.870  0.3663 -0.0881 -0.3162
  981MOL0     H32401   9.059   2.730  13.095  2.3067  1.7306 -1.1204
  981MOL0     H32402   9.030   2.551  13.093  1.2190 -1.2609 -0.5183
  981MOL0     H32403   9.260   2.508  13.115 -0.8622  0.6267 -0.5688
  981MOL0     H32404   9.314   2.666  13.085 -1.1319 -0.5030 -1.9242
  981MOL0     H32405   9.140   2.574  13.314  0.2728  1.2288  1.4334
  981MOL0     H32406   9.194   2.742  13.288  4.0508  1.2470 -2.0453
  981MOL0     H32407   9.334   2.611  13.463 -1.5180 -0.9142  1.2609
  981MOL0     H32408   9.416   2.708  13.347 -0.6862 -0.1394  1.2887
  981MOL0     H32409   9.353   2.400  13.326 -0.0314 -1.0589 -6.8059
  981MOL0     H32410   9.450   2.498  13.210 -3.0721  2.2307 -0.7771
  981MOL0     H32411   9.499   2.457  13.510  0.1281  1.9290  0.3256
  981MOL0     H32412   9.604   2.558  13.412 -0.2864 -1.0400  3.1921
  981MOL0     H32413   9.711   2.334  13.435 -0.0118 -1.6063 -0.0401
  981MOL0     H32414   9.558   2.258  13.389  0.1719 -0.7698  3.3623
  981MOL0     H32415   9.167   2.655  12.654  0.4183  1.4413 -0.3622
  981MOL0     H32416   9.112   2.718  12.423 -1.0944  3.3705  0.5304
  981MOL0     H32417   8.693   2.772  12.128 -1.5516  1.0306  1.9732
  981MOL0     H32418   8.612   2.837  11.917 -0.5390 -1.2335  3.9696
  981MOL0     H32419   8.728   2.190  10.766  0.4045 -0.6645 -0.4882
  981MOL0     H32420   8.501   2.064  10.824 -0.8139  2.9755 -0.6463
  981MOL0     H32421   8.168   1.927  10.821 -1.8032 -0.2102 -0.9933
  981MOL0     H32422   7.959   1.832  10.923  0.2221  0.2768  0.4343
  981MOL0     H32423   7.829   1.665  10.789  1.5016  1.2055  1.2898
  981MOL0     H32424   7.710   1.685  10.921  2.2672  0.5242  2.0477
  981MOL0     H32425   7.669   1.516  10.756  3.9548  0.3038 -1.2734
  981MOL0     H32426   7.646   1.478  10.930  0.1081  0.0303  0.7772
  981MOL0     H32427   7.755   1.286  10.856  1.2547 -0.1742  0.2320
  981MOL0     H32428   7.893   1.374  10.926  0.1880 -0.4500  0.1837
  981MOL0     H32429   7.829   1.390  10.623  1.9742  0.0963 -1.3129
  981MOL0     H32430   7.963   1.464  10.702  0.8231  0.4846  2.9301
  981MOL0     H32431   8.073   1.058  10.621 -0.7797  1.6212 -2.6095
  981MOL0     H32432   8.122   1.454  10.955 -0.0648 -0.0755 -0.3161
  981MOL0     H32433   8.446   1.501  10.799 -0.0055 -1.2810  0.6181
  981MOL0     H32434   8.434   1.525  10.970 -2.2190 -0.5972  1.9225
  981MOL0     H32435   8.350   1.393  10.895  1.9906 -1.6569 -0.9411
  982MOL0     O32436   5.444   5.200   2.399 -0.0626 -0.0434 -0.0223
  982MOL0     C32437   5.515   5.122   2.457  0.0392  0.7390  0.3133
  982MOL0     O32438   5.467   5.019   2.547 -0.2520 -0.0909  0.3850
  982MOL0     C32439   5.356   5.019   2.612  0.4732  0.8445 -0.1020
  982MOL0     C32440   5.314   5.124   2.700 -0.1321 -0.0949  0.1814
  982MOL0     C32441   5.195   5.117   2.771  0.1501 -0.0897 -0.0048
  982MOL0     C32442   5.111   5.000   2.762  1.5121 -0.6709 -0.0518
  982MOL0     O32443   4.973   4.995   2.803  0.3957  0.3085  0.4236
  982MOL0     C32444   4.896   5.113   2.821  0.5816 -0.2409 -0.4316
  982MOL0     C32445   4.764   5.062   2.882  0.4732 -0.5672  0.2733
  982MOL0     C32446   4.707   4.931   2.821 -0.1091  0.5746  0.5806
  982MOL0     C32447   4.577   4.892   2.893 -0.1625 -0.2016  0.3238
  982MOL0     C32448   4.538   4.746   2.874  0.2475 -0.5699  0.3482
  982MOL0     C32449   4.408   4.689   2.939 -0.5354 -0.1041 -0.5536
  982MOL0     C32450   4.403   4.531   2.945  0.1953 -0.4955  0.0089
  982MOL0     C32451   4.485   4.462   3.057 -0.2408 -0.7231  1.4548
  982MOL0     N32452   4.468   4.318   3.044  0.2037  0.5412 -0.6266
  982MOL0     C32453   4.361   4.254   3.091  0.8302  0.2803 -0.0826
  982MOL0     C32454   4.396   4.125   3.118  0.2913 -0.5218  0.3358
  982MOL0     C32455   4.309   4.012   3.146  0.9304  0.1933 -0.7268
  982MOL0     C32456   4.316   3.910   3.031  0.7247  0.5085 -0.3908
  982MOL0     C32457   4.229   3.778   3.048  0.2586 -0.9848 -0.3134
  982MOL0     C32458   4.087   3.812   3.079  0.2516  0.1597  0.7317
  982MOL0     O32459   4.033   3.902   2.978 -0.0608  0.4263  0.3050
  982MOL0     C32460   3.998   3.845   2.852 -0.1873 -0.1186  0.1965
  982MOL0     C32461   4.074   3.876   2.739  0.6548  0.6191  0.0645
  982MOL0     C32462   4.040   3.819   2.614  0.1163  0.2928 -0.6142
  982MOL0     C32463   3.941   3.718   2.604 -0.0224 -0.7979 -0.5977
  982MOL0     C32464   3.915   3.645   2.469 -0.4589  1.2385 -0.2613
  982MOL0     O32465   4.006   3.682   2.361 -0.6073 -0.0843 -0.2990
  982MOL0     C32466   3.979   3.620   2.240  0.4140  0.0659 -0.3430
  982MOL0     C32467   4.038   3.495   2.214  1.2463 -0.6770  1.1639
  982MOL0     C32468   4.009   3.418   2.103  0.5562 -0.4420 -0.0711
  982MOL0     C32469   3.912   3.464   2.012 -0.7679  0.5248 -1.1463
  982MOL0     O32470   3.892   3.383   1.903 -0.5484  0.0949  0.4833
  982MOL0     C32471   3.817   3.427   1.799  0.5939  0.6638 -0.2043
  982MOL0     C32472   3.826   3.288   1.712 -0.2531  0.5192  0.8163
  982MOL0     C32473   3.732   3.295   1.589  0.6138 -0.5354  0.7326
  982MOL0     C32474   3.766   3.418   1.501 -1.6704 -0.0922  0.5867
  982MOL0     C32475   3.719   3.391   1.356  0.0885  0.3751 -0.0729
  982MOL0     C32476   3.808   3.287   1.277  0.5891 -0.7978 -0.4354
  982MOL0     C32477   3.785   3.304   1.121 -0.3230  0.4322 -0.2832
  982MOL0     C32478   3.634   3.283   1.100 -0.1947  0.0741 -1.1526
  982MOL0    Cl32479   3.571   3.120   1.159  0.2257 -0.3613  0.4878
  982MOL0     C32480   3.852   3.591   2.033  0.0405 -0.0110 -0.2424
  982MOL0     C32481   3.889   3.668   2.145  0.5370  0.6378  0.1468
  982MOL0     O32482   3.823   3.568   2.462  0.8957  0.3147 -0.0735
  982MOL0     C32483   3.877   3.675   2.723 -0.0278 -0.0531  0.1717
  982MOL0     C32484   3.901   3.738   2.849  0.0845  0.7830 -0.2937
  982MOL0     N32485   4.530   4.115   3.081  0.3229 -0.3933  0.3281
  982MOL0     N32486   4.566   4.234   3.033  0.4542  0.5398 -0.9330
  982MOL0     C32487   5.161   4.895   2.680 -0.1281 -0.2087 -0.8521
  982MOL0     C32488   5.273   4.911   2.604  0.4133  0.3798  0.5957
  982MOL0     C32489   5.663   5.124   2.431 -0.7259  0.2431 -0.2315
  982MOL0     C32490   5.742   5.013   2.444 -0.4126  0.0522  0.7034
  982MOL0     C32491   5.878   5.017   2.408  0.2205 -0.3018  0.0712
  982MOL0     C32492   5.947   5.134   2.369 -0.3778 -0.0862 -0.0825
  982MOL0     O32493   6.079   5.149   2.332  0.5357  0.0888  0.2222
  982MOL0     C32494   6.146   5.032   2.294 -0.1484 -0.1374 -0.3058
  982MOL0     C32495   6.222   4.969   2.404 -0.6737 -0.4795  0.1080
  982MOL0     C32496   6.318   5.072   2.469  0.2062  0.0758  0.3508
  982MOL0     C32497   6.388   4.990   2.581 -0.4457 -0.0626 -0.1184
  982MOL0     C32498   6.482   4.887   2.539 -0.1895 -0.5060 -0.6754
  982MOL0     C32499   6.575   4.820   2.507 -0.2587 -0.2415  0.5500
  982MOL0     C32500   5.873   5.249   2.372 -0.0678  0.1247 -0.3181
  982MOL0     C32501   5.733   5.247   2.386 -0.0140  0.6388  0.1420
  982MOL0     C32502   5.667   5.386   2.389  0.9341  0.3975  0.5747
  982MOL0     H32503   5.380   5.210   2.698  0.2812 -0.4126 -1.2869
  982MOL0     H32504   5.170   5.208   2.824  2.5612 -0.0189  1.1583
  982MOL0     H32505   4.930   5.175   2.905  0.9430  0.5405 -1.1442
  982MOL0     H32506   4.893   5.182   2.736  0.3675 -0.7974 -0.8811
  982MOL0     H32507   4.686   5.138   2.868  0.1609 -0.9844 -0.3145
  982MOL0     H32508   4.781   5.038   2.988  1.4920  3.2709  1.1312
  982MOL0     H32509   4.781   4.851   2.831 -0.8181 -0.4241 -1.4959
  982MOL0     H32510   4.679   4.955   2.718 -2.1631  1.7972  1.3597
  982MOL0     H32511   4.572   4.911   3.001 -1.2580  0.0863  0.2334
  982MOL0     H32512   4.509   4.960   2.841  0.7607  0.6154  0.1469
  982MOL0     H32513   4.533   4.725   2.767  3.5083  0.3436 -0.1054
  982MOL0     H32514   4.630   4.693   2.904  4.1271  3.6839 -2.6130
  982MOL0     H32515   4.398   4.722   3.043 -1.2391 -3.4811  0.5569
  982MOL0     H32516   4.326   4.721   2.873  0.5579  0.2809 -1.7906
  982MOL0     H32517   4.428   4.487   2.848 -0.5903 -2.4553  0.6415
  982MOL0     H32518   4.296   4.518   2.967  0.3688 -0.0490  1.1734
  982MOL0     H32519   4.590   4.492   3.049  0.1647 -1.6315  2.9848
  982MOL0     H32520   4.452   4.496   3.156  1.9001 -1.4454  2.4851
  982MOL0     H32521   4.257   4.287   3.094  0.0974 -1.9550  2.2298
  982MOL0     H32522   4.334   3.961   3.239  2.5345 -1.4027 -1.9701
  982MOL0     H32523   4.212   4.055   3.172  0.4876 -1.3246  0.2531
  982MOL0     H32524   4.280   3.946   2.933 -0.1959  1.8427  0.4022
  982MOL0     H32525   4.423   3.887   3.022  0.8468  0.8493  0.1548
  982MOL0     H32526   4.261   3.720   3.136 -0.4813 -0.4057  0.3538
  982MOL0     H32527   4.256   3.719   2.960 -1.0011  0.8092 -1.9698
  982MOL0     H32528   4.080   3.861   3.176 -0.5459 -1.6775  1.6478
  982MOL0     H32529   4.028   3.721   3.092  0.2168 -0.1523 -1.1842
  982MOL0     H32530   4.150   3.953   2.747  0.4890  0.6473  1.6790
  982MOL0     H32531   4.102   3.854   2.532  0.8482 -2.2864 -1.2425
  982MOL0     H32532   4.099   3.445   2.290  1.8898 -1.1352  0.3694
  982MOL0     H32533   4.054   3.323   2.079 -1.8374 -2.2000  1.8549
  982MOL0     H32534   3.715   3.450   1.830  1.5927 -0.4617  4.8009
  982MOL0     H32535   3.862   3.512   1.748  2.1410  1.9915  3.1294
  982MOL0     H32536   3.923   3.280   1.662 -1.5224 -1.4501 -1.5012
  982MOL0     H32537   3.814   3.199   1.775 -0.0622  0.8899  1.3866
  982MOL0     H32538   3.735   3.208   1.522  3.2903 -0.3206  0.4562
  982MOL0     H32539   3.628   3.303   1.620  0.9203  1.7404  1.3871
  982MOL0     H32540   3.875   3.429   1.505 -1.5471 -1.4346  1.4615
  982MOL0     H32541   3.710   3.507   1.534 -0.2905  1.6592 -1.4845
  982MOL0     H32542   3.720   3.493   1.316  1.4019  1.7256  3.0025
  982MOL0     H32543   3.617   3.351   1.354  0.1703 -0.2617  3.0305
  982MOL0     H32544   3.910   3.321   1.297  0.3117  0.5768 -1.2659
  982MOL0     H32545   3.801   3.180   1.302  0.1626 -1.2436 -2.2669
  982MOL0     H32546   3.846   3.230   1.067  0.0234 -0.0579  0.7597
  982MOL0     H32547   3.812   3.403   1.084  0.5651  0.3534  0.1359
  982MOL0     H32548   3.574   3.368   1.134  0.0730 -0.6148  1.2592
  982MOL0     H32549   3.631   3.279   0.991  0.9679 -1.9667 -1.1691
  982MOL0     H32550   3.778   3.624   1.961  0.0200 -0.7674 -0.5690
  982MOL0     H32551   3.847   3.766   2.168  0.6064  0.9089 -0.8290
  982MOL0     H32552   3.821   3.582   2.722 -0.4247  0.1816 -0.8346
  982MOL0     H32553   3.844   3.690   2.928 -0.0225 -0.4033 -1.0736
  982MOL0     H32554   5.094   4.811   2.663 -0.3599  0.2228 -2.1579
  982MOL0     H32555   5.303   4.826   2.544  2.2643  2.7162 -2.0843
  982MOL0     H32556   5.694   4.926   2.486 -3.0486  0.3203 -1.5133
  982MOL0     H32557   5.932   4.925   2.428 -0.3688 -0.4456  1.1124
  982MOL0     H32558   6.221   5.049   2.217 -0.0552  1.7353  0.1616
  982MOL0     H32559   6.072   4.969   2.244 -2.7065  1.0799  1.7212
  982MOL0     H32560   6.280   4.886   2.362 -1.0564  0.4643 -2.4779
  982MOL0     H32561   6.153   4.936   2.482 -1.3515 -1.0861 -0.7220
  982MOL0     H32562   6.267   5.154   2.519  0.6727  0.9390 -0.5492
  982MOL0     H32563   6.382   5.118   2.392 -0.4317 -0.3100 -0.4273
  982MOL0     H32564   6.444   5.060   2.643  1.1787 -0.3923 -1.1417
  982MOL0     H32565   6.305   4.937   2.629  0.7506 -1.7294  0.2325
  982MOL0     H32566   6.646   4.749   2.470  1.5334  2.8828 -2.6956
  982MOL0     H32567   5.919   5.342   2.339  1.5875 -1.4148 -2.6630
  982MOL0     H32568   5.611   5.407   2.298 -0.3140 -0.0143  1.2138
  982MOL0     H32569   5.599   5.398   2.474 -0.1585  0.3959 -0.2813
  982MOL0     H32570   5.741   5.465   2.401 -1.7918  2.7704  3.9091
  983MOL0     O32571   7.006  10.624  11.100 -0.0703  0.4745  0.3129
  983MOL0     C32572   7.042  10.576  10.994  0.4040  0.7615  0.0560
  983MOL0     O32573   7.161  10.606  10.926  0.3527  0.1536 -0.0213
  983MOL0     C32574   7.199  10.735  10.953 -0.2759  0.8579  0.0449
  983MOL0     C32575   7.122  10.844  10.902  0.1768  0.3649 -0.1636
  983MOL0     C32576   7.152  10.979  10.927 -0.2254 -0.1854  0.1198
  983MOL0     C32577   7.268  11.001  11.005 -0.0720 -0.2583  0.4126
  983MOL0     O32578   7.295  11.137  11.022  0.2010 -0.1337 -0.8058
  983MOL0     C32579   7.421  11.186  11.079 -0.0844  0.1220 -0.9204
  983MOL0     C32580   7.422  11.339  11.080  0.3645 -0.1925 -0.2629
  983MOL0     C32581   7.447  11.388  10.934  0.0574 -0.3091 -0.3091
  983MOL0     C32582   7.599  11.426  10.920  0.2556 -0.5385  0.3846
  983MOL0     C32583   7.627  11.482  10.782  0.2529 -0.1272 -0.3837
  983MOL0     C32584   7.774  11.509  10.761 -0.4059  0.5746  0.1856
  983MOL0     C32585   7.858  11.379  10.768 -0.1965  0.2413  0.6722
  983MOL0     C32586   7.801  11.274  10.674 -0.5133 -0.3661 -0.8243
  983MOL0     N32587   7.910  11.179  10.631 -0.2928 -0.3314  0.2502
  983MOL0     C32588   7.930  11.059  10.692  0.3449  0.4180 -0.0635
  983MOL0     C32589   8.053  11.002  10.646  0.5616  0.0141 -0.4245
  983MOL0     C32590   8.134  10.886  10.688  0.0060 -0.7309  0.4443
  983MOL0     C32591   8.058  10.755  10.672  0.2044  0.2000  0.1654
  983MOL0     C32592   8.102  10.651  10.776  0.1636 -0.7794  0.2245
  983MOL0     C32593   8.009  10.538  10.802  0.2180  0.2388 -0.0316
  983MOL0     O32594   8.003  10.467  10.678 -0.0181  0.1445 -0.8338
  983MOL0     C32595   7.880  10.405  10.651  0.4804  0.0485 -0.7624
  983MOL0     C32596   7.796  10.361  10.755  0.0451  0.5030  0.1833
  983MOL0     C32597   7.678  10.295  10.722 -0.7767 -0.5142 -0.7911
  983MOL0     C32598   7.649  10.284  10.584 -0.1951  0.6734 -0.5470
  983MOL0     C32599   7.522  10.228  10.542  0.0770 -0.2480  0.0439
  983MOL0     O32600   7.466  10.144  10.632 -0.1831 -0.6410 -0.0392
  983MOL0     C32601   7.356  10.081  10.610  0.5146  0.0113  0.6944
  983MOL0     C32602   7.247  10.124  10.535 -0.5430  0.2091 -0.4388
  983MOL0     C32603   7.147  10.033  10.502  0.1198 -0.3854  0.5431
  983MOL0     C32604   7.131   9.911  10.564 -0.1243 -0.0479 -0.0833
  983MOL0     O32605   7.005   9.840  10.557 -0.1860  0.0421 -0.8277
  983MOL0     C32606   6.972   9.745  10.657 -0.0402 -0.0066 -0.5162
  983MOL0     C32607   6.850   9.660  10.610  0.9170  0.2385 -0.1459
  983MOL0     C32608   6.879   9.561  10.507 -0.6766 -0.6279  0.1948
  983MOL0     C32609   6.800   9.431  10.538  0.4255 -0.0556  0.2212
  983MOL0     C32610   6.790   9.326  10.428  0.3721  1.0386 -0.6859
  983MOL0     C32611   6.722   9.368  10.294  0.5205  0.4374 -1.0263
  983MOL0     C32612   6.570   9.391  10.301  0.1339 -0.0003 -0.1638
  983MOL0     C32613   6.529   9.477  10.171  0.1040  0.6341 -0.4622
  983MOL0    Cl32614   6.350   9.458  10.160  0.3410  0.2211  0.0136
  983MOL0     C32615   7.239   9.879  10.654  0.8259 -0.8103  0.5207
  983MOL0     C32616   7.355   9.957  10.663 -0.5466  0.2792 -0.0596
  983MOL0     O32617   7.473  10.251  10.426 -0.4114  0.0282  0.1714
  983MOL0     C32618   7.728  10.342  10.486 -0.0247  0.1435  0.5557
  983MOL0     C32619   7.851  10.399  10.515  0.1556 -0.4035 -0.1681
  983MOL0     N32620   8.102  11.102  10.550  0.5950  0.3023 -0.6445
  983MOL0     N32621   8.028  11.207  10.557  0.1430 -0.9062  0.3325
  983MOL0     C32622   7.339  10.896  11.064 -0.2995  0.7663  0.2052
  983MOL0     C32623   7.309  10.763  11.036 -0.0399 -0.2267 -0.0027
  983MOL0     C32624   6.962  10.466  10.916 -0.3945 -0.5986 -0.7337
  983MOL0     C32625   7.024  10.406  10.806  0.1864  0.5415 -0.6701
  983MOL0     C32626   6.966  10.298  10.731 -0.4014 -0.9531  0.0840
  983MOL0     C32627   6.835  10.258  10.752 -1.1000  0.0925 -0.7475
  983MOL0     O32628   6.777  10.174  10.653  0.0853 -1.0751  0.1888
  983MOL0     C32629   6.638  10.190  10.609 -0.8538  0.4589  0.1981
  983MOL0     C32630   6.625  10.109  10.480 -0.4373 -0.6084  0.9252
  983MOL0     C32631   6.654   9.957  10.499 -0.1363  0.2384  0.1058
  983MOL0     C32632   6.606   9.860  10.398 -0.4129 -0.0016  0.2747
  983MOL0     C32633   6.480   9.795  10.459 -0.8895  0.6777  0.4898
  983MOL0     C32634   6.376   9.746  10.477  0.0890  1.0172 -0.1741
  983MOL0     C32635   6.773  10.322  10.865  0.7176  0.3751  0.4162
  983MOL0     C32636   6.829  10.420  10.947 -0.8621 -0.4943  0.0140
  983MOL0     C32637   6.744  10.478  11.059 -0.9524 -0.2963  0.2043
  983MOL0     H32638   7.032  10.826  10.845 -0.6372  1.6482  0.6749
  983MOL0     H32639   7.098  11.067  10.893 -3.3949 -2.0255 -0.0206
  983MOL0     H32640   7.411  11.152  11.182 -1.1910 -1.5506 -1.5280
  983MOL0     H32641   7.503  11.132  11.030 -0.1983 -1.5069  0.5812
  983MOL0     H32642   7.498  11.370  11.152  2.8619 -1.3552 -2.2664
  983MOL0     H32643   7.326  11.381  11.112 -1.2776 -2.3094 -2.0941
  983MOL0     H32644   7.390  11.480  10.925 -1.6740 -1.5348 -3.1151
  983MOL0     H32645   7.421  11.316  10.856 -0.5557 -2.3939  1.6917
  983MOL0     H32646   7.629  11.493  11.001 -0.4189  1.0458 -0.6226
  983MOL0     H32647   7.655  11.333  10.938  1.2517 -0.1646 -0.6479
  983MOL0     H32648   7.582  11.413  10.710 -0.5340 -0.8925  0.8133
  983MOL0     H32649   7.573  11.577  10.784  2.1420  0.9734  0.3280
  983MOL0     H32650   7.790  11.544  10.658 -0.0417  0.9040  0.3513
  983MOL0     H32651   7.818  11.578  10.833 -1.8976  0.3602  1.3584
  983MOL0     H32652   7.872  11.344  10.871  0.7497  2.3464  1.3276
  983MOL0     H32653   7.957  11.403  10.729 -1.0633 -0.1981 -2.0238
  983MOL0     H32654   7.722  11.213  10.720  1.4914 -3.6241 -1.3570
  983MOL0     H32655   7.768  11.323  10.582 -0.4388 -2.6971 -2.1785
  983MOL0     H32656   7.867  11.022  10.771 -0.1034  0.5501 -0.3558
  983MOL0     H32657   8.217  10.871  10.618 -0.8740 -2.7651 -0.2470
  983MOL0     H32658   8.174  10.904  10.788 -2.2606  1.0307  1.1264
  983MOL0     H32659   7.950  10.770  10.675 -0.4355 -1.8434 -4.4614
  983MOL0     H32660   8.082  10.711  10.575  2.2639  0.5688  0.4715
  983MOL0     H32661   8.110  10.713  10.866  0.0901 -1.1449  0.4844
  983MOL0     H32662   8.202  10.615  10.750  0.6793 -0.4899  1.7058
  983MOL0     H32663   7.909  10.573  10.829 -1.4947 -0.1545 -4.7972
  983MOL0     H32664   8.046  10.484  10.889  3.5538  1.4891 -0.5112
  983MOL0     H32665   7.844  10.361  10.852 -0.1654  1.2850  0.2939
  983MOL0     H32666   7.609  10.249  10.793 -0.2290  3.2683  2.5510
  983MOL0     H32667   7.233  10.228  10.506  1.5134  0.4303 -0.8041
  983MOL0     H32668   7.064  10.063  10.438 -0.1445 -0.2858  0.9314
  983MOL0     H32669   7.054   9.674  10.670 -2.3109 -3.0646 -1.6321
  983MOL0     H32670   6.940   9.789  10.752  1.3801  1.1370 -0.5349
  983MOL0     H32671   6.810   9.598  10.691  0.4244  0.2982 -0.3402
  983MOL0     H32672   6.775   9.726  10.565 -0.5917 -3.7543 -4.3534
  983MOL0     H32673   6.862   9.603  10.407 -2.0829  0.2274  0.7608
  983MOL0     H32674   6.984   9.531  10.512 -0.1653  1.3067  2.5353
  983MOL0     H32675   6.703   9.471  10.569  0.8806  2.0311 -0.8378
  983MOL0     H32676   6.828   9.382  10.631 -0.2954 -1.9983 -0.5295
  983MOL0     H32677   6.751   9.230  10.464 -2.7545  1.8931 -1.5593
  983MOL0     H32678   6.895   9.306  10.402 -0.4134 -4.1742 -1.0657
  983MOL0     H32679   6.776   9.452  10.251  1.4870  0.2204 -0.2754
  983MOL0     H32680   6.737   9.276  10.238  1.6907  0.0615 -0.1428
  983MOL0     H32681   6.553   9.449  10.393 -1.2551 -0.3909 -0.1553
  983MOL0     H32682   6.509   9.300  10.303 -0.5627  0.4605  0.5628
  983MOL0     H32683   6.552   9.582  10.190 -1.3779  1.2858 -2.0412
  983MOL0     H32684   6.575   9.434  10.081 -1.9274  0.9310 -1.7186
  983MOL0     H32685   7.229   9.796  10.723 -0.4854 -1.6856 -0.6660
  983MOL0     H32686   7.439   9.916  10.717  0.6500  0.4473 -1.6949
  983MOL0     H32687   7.686  10.349  10.386 -0.1637  0.8725  0.6584
  983MOL0     H32688   7.903  10.443  10.431 -2.0766  1.4807 -0.6609
  983MOL0     H32689   7.425  10.900  11.131 -1.8013  0.0220  2.2606
  983MOL0     H32690   7.363  10.682  11.084 -0.3114 -1.4792 -1.7030
  983MOL0     H32691   7.114  10.438  10.754  1.2399  3.5364  2.5988
  983MOL0     H32692   7.018  10.265  10.642  1.7558  2.3361 -0.0747
  983MOL0     H32693   6.612  10.296  10.606 -3.5046 -0.0718  1.0377
  983MOL0     H32694   6.564  10.150  10.680  0.0208  1.7871  1.9497
  983MOL0     H32695   6.686  10.149  10.398 -3.5279 -0.6949 -1.5865
  983MOL0     H32696   6.529  10.116  10.427  1.1444  0.4975 -2.0877
  983MOL0     H32697   6.609   9.930  10.595 -0.8971  1.0914  0.0057
  983MOL0     H32698   6.762   9.953  10.517 -0.1973  1.1117  0.7321
  983MOL0     H32699   6.581   9.922  10.311  1.3661  0.1796 -0.1370
  983MOL0     H32700   6.679   9.785  10.366 -0.8395 -0.8620  1.2448
  983MOL0     H32701   6.274   9.713  10.472  1.3743 -3.5719 -0.8742
  983MOL0     H32702   6.665  10.312  10.867  0.7425  0.1467  0.7050
  983MOL0     H32703   6.652  10.419  11.056  0.9311 -3.5957  1.2204
  983MOL0     H32704   6.792  10.461  11.156  1.3919  0.4702 -0.7584
  983MOL0     H32705   6.726  10.584  11.044 -2.3404 -0.7414 -1.6882
  984MOL0     O32706   7.981   9.984   4.452 -1.4538  0.5622 -0.9448
  984MOL0     C32707   7.949  10.088   4.405  1.5078 -0.4948  0.6647
  984MOL0     O32708   7.895  10.191   4.475  0.0238 -0.8888 -0.1380
  984MOL0     C32709   7.919  10.201   4.611  0.7469  0.2127  0.6029
  984MOL0     C32710   7.964  10.326   4.664 -0.3283 -0.2859  0.0013
  984MOL0     C32711   7.964  10.356   4.802  0.9673 -0.1726 -0.3141
  984MOL0     C32712   7.931  10.251   4.888 -0.1642 -0.3677  0.3692
  984MOL0     O32713   7.918  10.267   5.022  0.4655  0.7751 -1.2720
  984MOL0     C32714   7.925  10.403   5.076 -0.3248 -0.2453 -0.1653
  984MOL0     C32715   7.896  10.388   5.220 -1.3887 -0.7161 -0.2108
  984MOL0     C32716   7.843  10.526   5.289 -0.3406  0.7801 -0.2878
  984MOL0     C32717   7.946  10.639   5.307  0.0812  0.0717  0.3342
  984MOL0     C32718   7.938  10.692   5.455 -0.0657  0.3497  0.1233
  984MOL0     C32719   8.031  10.811   5.483 -0.6340  0.6170  0.1403
  984MOL0     C32720   8.047  10.915   5.370 -0.4143  0.2249  1.5428
  984MOL0     C32721   8.161  11.013   5.387  0.4247  0.4162  0.1551
  984MOL0     N32722   8.129  11.111   5.486  0.9545  0.3464  0.0786
  984MOL0     C32723   8.048  11.223   5.465 -0.8959 -0.6131  0.5528
  984MOL0     C32724   8.036  11.270   5.593 -0.4019  0.1205  0.4910
  984MOL0     C32725   7.948  11.397   5.623  0.1896  0.1099  0.5117
  984MOL0     C32726   8.015  11.530   5.618 -0.3921  1.3741  0.1031
  984MOL0     C32727   8.114  11.548   5.737 -0.0399 -0.1191  0.6864
  984MOL0     C32728   8.100  11.691   5.801 -0.4006  0.2652  0.3220
  984MOL0     O32729   8.066  11.784   5.701  0.2689 -0.0497 -0.7521
  984MOL0     C32730   8.006  11.907   5.738 -0.2545  0.7247 -0.6358
  984MOL0     C32731   8.039  11.962   5.863  1.1587  0.0779  0.0319
  984MOL0     C32732   7.969  12.076   5.923 -0.3695  0.1546  0.4402
  984MOL0     C32733   7.879  12.147   5.839 -1.3886  0.4856  1.0352
  984MOL0     C32734   7.808  12.262   5.880 -0.5197 -0.0513 -0.3180
  984MOL0     O32735   7.701  12.297   5.808  0.6716 -0.2469  0.1565
  984MOL0     C32736   7.635  12.413   5.831  0.5548 -0.1421 -0.0705
  984MOL0     C32737   7.495  12.418   5.859 -0.5309  0.5163 -0.3885
  984MOL0     C32738   7.442  12.541   5.896  0.1373 -0.0488 -0.1333
  984MOL0     C32739   7.518  12.662   5.884 -0.0672 -0.7549 -0.5251
  984MOL0     O32740   7.461  12.772   5.942 -0.0052  0.2458 -0.0492
  984MOL0     C32741   7.525  12.897   5.936  0.0341  0.0352  0.0474
  984MOL0     C32742   7.419  12.997   5.989  0.2989 -0.8197 -1.1046
  984MOL0     C32743   7.401  12.969   6.138 -0.1536 -0.0706  0.2752
  984MOL0     C32744   7.357  13.101   6.198 -0.7038  0.0126 -0.5781
  984MOL0     C32745   7.329  13.070   6.351  0.4500  0.3243  0.4366
  984MOL0     C32746   7.308  13.207   6.424  1.1268 -0.1643  0.8041
  984MOL0     C32747   7.301  13.201   6.586  0.4649 -0.1107  0.4190
  984MOL0     C32748   7.283  13.062   6.656  0.3427  0.2143 -0.2251
  984MOL0    Cl32749   7.310  13.075   6.838 -0.3026 -0.0137  0.5226
  984MOL0     C32750   7.651  12.655   5.842  1.1351  0.8800 -0.0971
  984MOL0     C32751   7.706  12.530   5.813 -0.4447 -0.2695  0.3857
  984MOL0     O32752   7.840  12.313   5.982  0.0710 -0.5819  0.1548
  984MOL0     C32753   7.867  12.106   5.703 -0.1711 -0.8236 -0.2145
  984MOL0     C32754   7.924  11.986   5.658  0.1338 -0.2539  0.1505
  984MOL0     N32755   8.102  11.188   5.686  0.3533  0.2053 -0.4079
  984MOL0     N32756   8.147  11.096   5.616 -0.8288  0.1462 -0.5031
  984MOL0     C32757   7.903  10.120   4.840  0.4014  0.0278  0.1158
  984MOL0     C32758   7.893  10.101   4.703  0.4336  0.1644 -0.2962
  984MOL0     C32759   7.943  10.111   4.261  0.7633  0.8187 -0.8026
  984MOL0     C32760   7.947  10.243   4.216  0.5959  1.2681  0.5209
  984MOL0     C32761   7.966  10.273   4.082  0.2813  0.3152  0.9874
  984MOL0     C32762   7.957  10.166   3.984 -0.2174  0.7800 -0.7793
  984MOL0     O32763   7.964  10.186   3.850 -0.3996 -0.3899  0.8964
  984MOL0     C32764   8.063  10.285   3.799  0.5184 -0.4000 -0.3909
  984MOL0     C32765   8.066  10.289   3.648  0.7969 -0.0660 -0.8881
  984MOL0     C32766   8.090  10.157   3.571  0.3009 -0.3639  0.0541
  984MOL0     C32767   8.019  10.148   3.436  0.0493  0.6718  0.8728
  984MOL0     C32768   8.077  10.052   3.341  0.6458  0.8248  1.0782
  984MOL0     C32769   8.116   9.989   3.240  1.1447  0.3459 -1.5318
  984MOL0     C32770   7.943  10.037   4.034  0.2721  1.0027  0.0834
  984MOL0     C32771   7.937  10.003   4.167 -0.0498 -0.1482 -0.0990
  984MOL0     C32772   7.925   9.857   4.207  0.1794 -0.5499  0.3993
  984MOL0     H32773   8.011  10.392   4.592  1.3418 -2.4472 -1.0122
  984MOL0     H32774   7.986  10.458   4.831  2.3749 -0.7985  0.9670
  984MOL0     H32775   8.027  10.442   5.062 -0.0861 -0.0489  1.7994
  984MOL0     H32776   7.853  10.469   5.027 -1.2801 -1.7072 -0.7633
  984MOL0     H32777   7.993  10.373   5.269 -0.3617  2.0800 -1.2571
  984MOL0     H32778   7.823  10.307   5.235 -1.2688 -0.6491  0.7853
  984MOL0     H32779   7.813  10.492   5.389  1.7320 -0.4039 -0.0121
  984MOL0     H32780   7.753  10.564   5.241 -0.0494  2.8633  0.6922
  984MOL0     H32781   8.048  10.619   5.275 -0.0923 -1.1490  0.5208
  984MOL0     H32782   7.920  10.721   5.239 -1.7282 -0.8668 -0.1651
  984MOL0     H32783   7.839  10.724   5.490 -2.0172 -5.4241  0.8939
  984MOL0     H32784   7.974  10.614   5.521  0.7011  0.5103 -0.0975
  984MOL0     H32785   7.993  10.864   5.571 -1.3815 -0.6935  0.6317
  984MOL0     H32786   8.129  10.769   5.507  0.8756  2.2701 -2.6049
  984MOL0     H32787   7.951  10.963   5.346 -1.5862 -3.2955 -1.9192
  984MOL0     H32788   8.076  10.852   5.285 -0.1865 -0.5490  2.1851
  984MOL0     H32789   8.253  10.969   5.426 -0.2447  1.7420  3.6167
  984MOL0     H32790   8.171  11.063   5.290  2.8521  3.3483  1.7116
  984MOL0     H32791   8.003  11.261   5.374  1.9991 -1.5674 -1.4208
  984MOL0     H32792   7.863  11.395   5.553  0.1055  0.3310  0.6076
  984MOL0     H32793   7.925  11.390   5.729 -2.2420 -1.8704 -0.0540
  984MOL0     H32794   8.074  11.540   5.527 -0.9913 -1.2376 -0.6590
  984MOL0     H32795   7.924  11.591   5.623 -0.9968  0.6195 -1.2549
  984MOL0     H32796   8.219  11.541   5.707  0.3967  3.6081  0.8435
  984MOL0     H32797   8.111  11.459   5.801  0.4105  0.9741  2.2981
  984MOL0     H32798   8.200  11.723   5.832  0.0870  0.6105 -1.4629
  984MOL0     H32799   8.031  11.697   5.885 -1.4399  1.3317 -0.5716
  984MOL0     H32800   8.108  11.922   5.937  1.0096  0.6632  0.4941
  984MOL0     H32801   7.986  12.098   6.027  0.0214  1.3337  0.1387
  984MOL0     H32802   7.432  12.329   5.860  1.0152 -0.6323  0.1191
  984MOL0     H32803   7.336  12.553   5.918  0.2410  0.8315 -0.0743
  984MOL0     H32804   7.619  12.892   5.993 -0.3680 -6.0724  0.7582
  984MOL0     H32805   7.546  12.909   5.830  1.9799 -0.1101  0.3626
  984MOL0     H32806   7.465  13.095   5.975  0.7370 -0.7231  0.7249
  984MOL0     H32807   7.328  12.988   5.930 -0.2127  3.1111 -1.1567
  984MOL0     H32808   7.318  12.898   6.148 -1.4537  1.5175  1.5310
  984MOL0     H32809   7.493  12.939   6.188  0.4725  1.3439  0.0066
  984MOL0     H32810   7.264  13.142   6.159 -2.0420 -1.9640  0.3089
  984MOL0     H32811   7.434  13.178   6.196 -2.6052  2.0990  1.1632
  984MOL0     H32812   7.422  13.023   6.384  0.5081  0.7802  0.9311
  984MOL0     H32813   7.241  13.006   6.362  1.0948 -0.7025 -0.2097
  984MOL0     H32814   7.396  13.269   6.404  0.2160  1.2612  1.1620
  984MOL0     H32815   7.217  13.255   6.388  1.9065  1.9059  1.4773
  984MOL0     H32816   7.220  13.269   6.614  1.4449  0.5317  1.7896
  984MOL0     H32817   7.388  13.251   6.629  1.8573 -2.7537  0.8472
  984MOL0     H32818   7.181  13.030   6.631  0.3739  1.3094 -1.9928
  984MOL0     H32819   7.354  12.986   6.623  0.0363 -0.6695  1.1006
  984MOL0     H32820   7.716  12.742   5.842  4.3411 -1.3396 -1.0390
  984MOL0     H32821   7.809  12.525   5.778 -0.3496  0.2271  0.5737
  984MOL0     H32822   7.813  12.162   5.627 -0.4639 -0.7680  0.0346
  984MOL0     H32823   7.885  11.955   5.562 -0.7296 -0.0810  0.4424
  984MOL0     H32824   7.897  10.036   4.908 -1.1794  0.6854  0.8325
  984MOL0     H32825   7.866  10.000   4.673  1.4043  0.6898 -3.3306
  984MOL0     H32826   7.932  10.327   4.283 -0.5195  3.6278 -2.4500
  984MOL0     H32827   7.969  10.378   4.054  2.1042  0.3339  1.1554
  984MOL0     H32828   8.166  10.262   3.830  0.6076 -1.4742 -1.4125
  984MOL0     H32829   8.034  10.380   3.844 -3.4899 -1.2399 -0.8640
  984MOL0     H32830   8.143  10.358   3.613  0.3011  1.1125  0.2652
  984MOL0     H32831   7.972  10.338   3.619 -1.1716 -0.5097  3.7703
  984MOL0     H32832   8.071  10.071   3.635  0.7509  0.2284  1.0172
  984MOL0     H32833   8.197  10.145   3.553  0.1767  0.4909 -1.4359
  984MOL0     H32834   7.914  10.116   3.439  0.5885 -2.1935 -2.5506
  984MOL0     H32835   8.032  10.240   3.379  2.8367 -0.9038 -1.2872
  984MOL0     H32836   8.150   9.940   3.151  1.2436 -2.1380 -0.2079
  984MOL0     H32837   7.942   9.968   3.951  0.2030  0.3233  0.6412
  984MOL0     H32838   7.992   9.833   4.290 -0.8156  1.6984  1.9557
  984MOL0     H32839   7.818   9.839   4.223  0.0304 -1.0293 -1.0120
  984MOL0     H32840   7.949   9.792   4.122 -1.3986 -2.2391  1.1695
  985MOL0     O32841   7.343   2.013   3.563  0.0206 -0.7048  0.0486
  985MOL0     C32842   7.255   1.937   3.601 -0.5543  0.1401 -0.8237
  985MOL0     O32843   7.211   1.928   3.731 -0.0701  0.2023 -0.6143
  985MOL0     C32844   7.256   2.007   3.828  0.2072  1.2011 -0.0788
  985MOL0     C32845   7.338   1.950   3.931 -0.0083 -0.2013  0.8940
  985MOL0     C32846   7.379   2.023   4.040  0.1161  0.0057 -1.1587
  985MOL0     C32847   7.330   2.150   4.066  0.8979 -0.3262  0.4419
  985MOL0     O32848   7.368   2.228   4.171 -0.2098  0.3272 -0.2804
  985MOL0     C32849   7.447   2.168   4.273 -0.3818 -0.2701 -0.8622
  985MOL0     C32850   7.354   2.087   4.367  0.8274 -0.2041  0.5132
  985MOL0     C32851   7.427   2.029   4.485  0.3841 -0.4559  0.5110
  985MOL0     C32852   7.334   1.930   4.569  1.5738  0.4426  0.7107
  985MOL0     C32853   7.396   1.878   4.702  0.0793  0.2821 -0.6922
  985MOL0     C32854   7.469   1.741   4.687 -0.6889  0.1304 -0.3614
  985MOL0     C32855   7.571   1.710   4.811  0.1374  0.3600 -0.3572
  985MOL0     C32856   7.630   1.576   4.806  0.4012  0.0581 -0.4504
  985MOL0     N32857   7.735   1.571   4.713  0.2035  0.3117 -0.0579
  985MOL0     C32858   7.732   1.563   4.573 -0.7126  0.1618 -0.1175
  985MOL0     C32859   7.864   1.561   4.540  0.1571 -1.1919  0.5945
  985MOL0     C32860   7.920   1.541   4.400  0.2842 -1.1556 -0.6592
  985MOL0     C32861   8.015   1.423   4.383 -0.5865  0.6610  0.7526
  985MOL0     C32862   7.942   1.296   4.394  0.8109  0.0584 -0.1324
  985MOL0     C32863   7.859   1.252   4.268  0.4305  0.0070 -0.3973
  985MOL0     O32864   7.731   1.324   4.249  0.2043  0.3068 -0.2552
  985MOL0     C32865   7.616   1.281   4.323 -0.0101  0.2172  0.4132
  985MOL0     C32866   7.496   1.351   4.298  0.3751  0.0148 -0.7959
  985MOL0     C32867   7.380   1.317   4.357  1.2310  1.4064 -1.0032
  985MOL0     C32868   7.384   1.219   4.454 -0.2883 -0.8032  0.0707
  985MOL0     C32869   7.267   1.199   4.542  0.2909  0.7356 -0.5921
  985MOL0     O32870   7.152   1.246   4.485  0.5032  0.3094  0.1930
  985MOL0     C32871   7.026   1.241   4.557 -0.3148 -0.5504  0.7978
  985MOL0     C32872   6.914   1.229   4.476 -0.8448  0.3984 -0.1828
  985MOL0     C32873   6.784   1.221   4.540  0.9781 -1.2788 -0.1675
  985MOL0     C32874   6.779   1.239   4.682  0.3631 -0.1546 -0.6957
  985MOL0     O32875   6.648   1.247   4.731  0.4104 -0.3608 -0.4397
  985MOL0     C32876   6.603   1.130   4.807 -0.2572 -1.4773  0.5812
  985MOL0     C32877   6.463   1.145   4.852  0.2406 -0.0730  0.7205
  985MOL0     C32878   6.350   1.189   4.748 -0.0603 -0.9572  0.6751
  985MOL0     C32879   6.198   1.173   4.774 -0.6639  0.0506  0.2723
  985MOL0     C32880   6.093   1.230   4.670  0.6704 -0.0241  0.7714
  985MOL0     C32881   6.111   1.147   4.541  0.8901  1.1900  1.2460
  985MOL0     C32882   6.020   1.184   4.426 -0.3903 -0.2414  0.3354
  985MOL0     C32883   5.933   1.073   4.374  0.2779 -0.1624 -0.5253
  985MOL0    Cl32884   5.816   1.039   4.499  0.3105 -0.4579 -0.0945
  985MOL0     C32885   6.892   1.242   4.756 -0.3944  0.5531 -0.3798
  985MOL0     C32886   7.015   1.243   4.694 -1.6092 -0.0731 -0.2430
  985MOL0     O32887   7.273   1.138   4.648 -1.0926  0.0781 -0.3740
  985MOL0     C32888   7.504   1.152   4.482 -0.3815 -0.7704 -0.0639
  985MOL0     C32889   7.626   1.181   4.418 -0.3008  0.8490 -0.6288
  985MOL0     N32890   7.935   1.599   4.656 -0.5360 -0.1683  0.5198
  985MOL0     N32891   7.858   1.613   4.751  0.1286 -0.3825  0.1402
  985MOL0     C32892   7.246   2.201   3.959 -0.5157 -0.0925  0.9395
  985MOL0     C32893   7.200   2.129   3.844  0.3052 -0.0401 -0.7756
  985MOL0     C32894   7.172   1.866   3.491  0.7951  0.2056 -0.4472
  985MOL0     C32895   7.240   1.847   3.364  0.4390 -0.1073  0.6352
  985MOL0     C32896   7.192   1.760   3.269 -0.1693  0.2631  0.0617
  985MOL0     C32897   7.073   1.692   3.293 -0.3179  0.4289  0.4645
  985MOL0     O32898   7.033   1.616   3.182  0.7230  0.0798 -0.3875
  985MOL0     C32899   6.896   1.590   3.170  0.3232 -0.1035 -0.3104
  985MOL0     C32900   6.849   1.502   3.048 -0.1430 -0.2796  0.0543
  985MOL0     C32901   6.881   1.568   2.912 -0.5268 -1.0978  0.4396
  985MOL0     C32902   6.861   1.477   2.789 -0.3163  1.1245 -0.0424
  985MOL0     C32903   6.726   1.425   2.791  0.5038 -0.7880  0.1135
  985MOL0     C32904   6.607   1.425   2.789 -0.4972 -0.2634 -0.3685
  985MOL0     C32905   7.007   1.705   3.417  0.7452 -0.3119  1.2443
  985MOL0     C32906   7.055   1.788   3.512  0.1424 -0.6754  0.1874
  985MOL0     C32907   7.004   1.754   3.654 -0.5783  0.4502 -0.3881
  985MOL0     H32908   7.379   1.852   3.909  3.9162  1.1239  1.4786
  985MOL0     H32909   7.434   1.971   4.118  0.7873  2.8742  0.3967
  985MOL0     H32910   7.525   2.106   4.228 -1.3951 -0.8776 -1.8268
  985MOL0     H32911   7.488   2.245   4.338 -2.5815  0.6739 -0.5340
  985MOL0     H32912   7.289   2.013   4.319  0.6983  1.8930 -2.8839
  985MOL0     H32913   7.296   2.169   4.410  0.5494 -0.0672 -0.1079
  985MOL0     H32914   7.456   2.112   4.550  0.4052 -0.4187  0.4543
  985MOL0     H32915   7.525   1.995   4.449  1.5900  2.1619  1.1061
  985MOL0     H32916   7.244   1.978   4.609 -0.4629 -2.4959  0.0125
  985MOL0     H32917   7.291   1.855   4.503 -0.9879  0.3959  2.2813
  985MOL0     H32918   7.468   1.950   4.741  0.4103  1.2892 -2.9877
  985MOL0     H32919   7.323   1.851   4.778 -1.0381 -1.6893 -2.3561
  985MOL0     H32920   7.401   1.658   4.667  0.1092 -0.5394 -0.3424
  985MOL0     H32921   7.537   1.757   4.603 -1.2647  1.2886 -0.6398
  985MOL0     H32922   7.521   1.714   4.909 -0.9323  0.9958 -0.9163
  985MOL0     H32923   7.645   1.791   4.811  0.9057 -0.2134  2.7853
  985MOL0     H32924   7.662   1.547   4.906  2.8000 -1.2756 -1.5420
  985MOL0     H32925   7.547   1.507   4.785 -2.1661  2.9519 -0.5761
  985MOL0     H32926   7.650   1.553   4.503  1.1355 -0.2739 -2.3386
  985MOL0     H32927   7.840   1.557   4.327  0.3389  1.7496 -0.2032
  985MOL0     H32928   7.985   1.629   4.397 -1.9812  1.1204  4.7690
  985MOL0     H32929   8.077   1.424   4.293 -2.5288 -1.8644 -0.7187
  985MOL0     H32930   8.085   1.435   4.467 -0.0962 -0.4059  0.5068
  985MOL0     H32931   7.874   1.285   4.479  0.6680 -1.8483 -0.4423
  985MOL0     H32932   8.010   1.215   4.420  0.1784 -0.9014 -1.3379
  985MOL0     H32933   7.851   1.144   4.288  0.8854  0.3265  1.7307
  985MOL0     H32934   7.923   1.261   4.180  0.8399  1.5108  0.0247
  985MOL0     H32935   7.498   1.435   4.228  2.2507 -0.2303 -1.0898
  985MOL0     H32936   7.296   1.381   4.333  1.6962  0.7750 -4.9149
  985MOL0     H32937   6.928   1.215   4.369 -0.5048  2.5609 -0.4701
  985MOL0     H32938   6.695   1.202   4.482  0.7533 -1.8573  0.3590
  985MOL0     H32939   6.618   1.036   4.754  0.5817 -2.0707  1.8334
  985MOL0     H32940   6.659   1.122   4.900  0.5954  0.3358  0.2783
  985MOL0     H32941   6.426   1.052   4.897  1.8047 -0.8493  0.4403
  985MOL0     H32942   6.468   1.223   4.928 -0.6615  0.3828  0.3293
  985MOL0     H32943   6.374   1.292   4.723 -3.4591 -0.4775 -1.2907
  985MOL0     H32944   6.380   1.137   4.656 -2.5012 -0.9596 -0.1938
  985MOL0     H32945   6.184   1.222   4.871 -0.8118  0.0326  0.2586
  985MOL0     H32946   6.177   1.068   4.793 -0.5631 -0.0213 -0.0068
  985MOL0     H32947   6.098   1.337   4.647  1.2788  0.0693  1.2987
  985MOL0     H32948   5.999   1.205   4.719  1.2325 -2.2864  0.7952
  985MOL0     H32949   6.213   1.168   4.506  1.0349 -2.9600 -1.4514
  985MOL0     H32950   6.109   1.044   4.577  0.6483  1.5960  2.4536
  985MOL0     H32951   6.081   1.215   4.341 -1.9954  2.0221 -0.0945
  985MOL0     H32952   5.961   1.273   4.449  1.7719  0.6664  2.8299
  985MOL0     H32953   5.891   1.086   4.274 -0.7731 -0.5985 -0.1529
  985MOL0     H32954   5.985   0.977   4.373  1.5548  0.4295  1.4647
  985MOL0     H32955   6.880   1.242   4.864  0.9680  2.2271 -0.1828
  985MOL0     H32956   7.104   1.241   4.757 -2.1812 -0.1326  0.5860
  985MOL0     H32957   7.507   1.100   4.578 -1.7132  0.7350  0.8477
  985MOL0     H32958   7.711   1.124   4.452 -1.5291 -0.4275  0.4400
  985MOL0     H32959   7.212   2.304   3.969 -1.4122 -0.3983  1.1664
  985MOL0     H32960   7.138   2.178   3.770 -1.0395  2.8506  1.9998
  985MOL0     H32961   7.340   1.888   3.348  1.5512 -2.3730  1.2689
  985MOL0     H32962   7.245   1.744   3.175  1.4304  4.8499 -0.0383
  985MOL0     H32963   6.852   1.690   3.174  0.9223  0.1662 -0.2607
  985MOL0     H32964   6.865   1.532   3.257  1.8225 -0.8616 -0.2438
  985MOL0     H32965   6.741   1.487   3.056  0.0008 -1.7423 -0.4767
  985MOL0     H32966   6.903   1.407   3.057 -2.2522 -1.6216 -0.6882
  985MOL0     H32967   6.986   1.599   2.917 -0.3024 -1.7403 -0.0662
  985MOL0     H32968   6.813   1.653   2.905 -0.1446 -0.5268  2.7381
  985MOL0     H32969   6.889   1.527   2.696  0.4814  1.1443  0.1957
  985MOL0     H32970   6.937   1.397   2.790 -0.7073  0.7475 -0.3555
  985MOL0     H32971   6.502   1.402   2.786 -0.0219 -2.6273 -2.7014
  985MOL0     H32972   6.915   1.648   3.426  1.1547 -1.5352 -1.3562
  985MOL0     H32973   7.086   1.709   3.710 -0.2486 -0.1074 -1.3039
  985MOL0     H32974   6.972   1.854   3.685  0.9801  1.3678 -1.5666
  985MOL0     H32975   6.920   1.684   3.660 -2.6489  2.8727  3.9491
  986MOL0     O32976   3.096   2.195   7.559  0.2797  0.5028 -0.1581
  986MOL0     C32977   3.105   2.066   7.557 -0.5660 -0.3618 -1.1733
  986MOL0     O32978   2.999   1.984   7.606 -0.6534  0.7063  0.1164
  986MOL0     C32979   2.903   2.036   7.688 -0.5284 -0.5661 -0.0006
  986MOL0     C32980   2.821   2.138   7.643 -0.7930  0.4140 -0.0140
  986MOL0     C32981   2.722   2.195   7.730  0.8276  0.7066 -0.6667
  986MOL0     C32982   2.710   2.145   7.858 -0.6379  0.7233 -0.1091
  986MOL0     O32983   2.629   2.194   7.948  0.5288 -0.6009  0.7234
  986MOL0     C32984   2.489   2.185   7.913 -0.1475 -0.0327 -0.4039
  986MOL0     C32985   2.406   2.279   7.993 -0.7753  0.0562 -1.1237
  986MOL0     C32986   2.446   2.429   7.972 -0.6206 -0.7418 -0.6579
  986MOL0     C32987   2.337   2.518   8.032 -0.2786  0.2747 -0.0004
  986MOL0     C32988   2.189   2.494   7.968 -0.6587  0.9167 -0.6190
  986MOL0     C32989   2.180   2.518   7.820  0.3164  0.1540 -0.3162
  986MOL0     C32990   2.040   2.578   7.782 -0.8469 -0.5529 -0.7988
  986MOL0     C32991   2.053   2.619   7.632  0.9259 -0.4529  0.4274
  986MOL0     N32992   1.938   2.699   7.596  0.1180  0.1021  0.4151
  986MOL0     C32993   1.810   2.669   7.545  0.5449  0.9643 -0.6708
  986MOL0     C32994   1.728   2.764   7.568 -0.3128 -0.0860 -0.6423
  986MOL0     C32995   1.587   2.755   7.528  0.4611  0.1702  0.4022
  986MOL0     C32996   1.507   2.881   7.539  0.0847 -0.3155 -0.4803
  986MOL0     C32997   1.361   2.885   7.471 -0.4430  0.4815  0.2350
  986MOL0     C32998   1.273   3.000   7.504  0.0706 -0.0393 -0.4658
  986MOL0     O32999   1.152   2.973   7.430 -0.1306 -0.6455  0.1174
  986MOL0     C33000   1.042   3.041   7.463  0.9553 -0.1732  0.2555
  986MOL0     C33001   1.043   3.177   7.454 -0.0079  0.1741 -0.0890
  986MOL0     C33002   0.935   3.254   7.484  0.3367 -1.1544 -1.1213
  986MOL0     C33003   0.810   3.191   7.505 -0.0125 -0.0342 -1.0250
  986MOL0     C33004   0.681   3.270   7.526 -0.4938 -0.3553 -0.0410
  986MOL0     O33005   0.566   3.192   7.499  0.0483 -0.1089 -0.4770
  986MOL0     C33006   0.444   3.252   7.542  0.4033 -0.0114  0.0525
  986MOL0     C33007   0.361   3.174   7.624 -0.8756  0.5596  0.5769
  986MOL0     C33008   0.251   3.238   7.682 -0.5779  0.5886 -1.0481
  986MOL0     C33009   0.201   3.362   7.639 -0.9646  0.0427  0.1985
  986MOL0     O33010   0.095   3.420   7.696 -0.8520 -0.4539  0.7915
  986MOL0     C33011   0.033   3.532   7.631 -0.3849 -1.1136  0.3337
  986MOL0     C33012  -0.103   3.550   7.704  0.5607  0.8020 -1.0064
  986MOL0     C33013  -0.194   3.433   7.659  0.4132 -0.6511  0.7203
  986MOL0     C33014  -0.325   3.424   7.731 -0.4613  0.7563  0.4219
  986MOL0     C33015  -0.398   3.299   7.686  0.1756 -0.2424  0.1869
  986MOL0     C33016  -0.517   3.297   7.773 -0.7357 -0.4289  0.2903
  986MOL0     C33017  -0.578   3.159   7.747  0.0140  0.1475 -0.2236
  986MOL0     C33018  -0.630   3.114   7.618 -0.6320 -0.2470 -0.2126
  986MOL0    Cl33019  -0.750   3.248   7.568  0.0994 -0.4446  0.0142
  986MOL0     C33020   0.275   3.429   7.534 -0.1922 -0.0744  0.6055
  986MOL0     C33021   0.400   3.378   7.492 -0.5239 -0.9005  0.2581
  986MOL0     O33022   0.693   3.385   7.578 -0.0814 -0.0000 -0.1623
  986MOL0     C33023   0.798   3.049   7.504 -0.6796 -0.6789 -0.0913
  986MOL0     C33024   0.923   2.976   7.479 -0.2863 -0.1980 -0.0750
  986MOL0     N33025   1.805   2.874   7.614 -0.0217  0.2113  0.1927
  986MOL0     N33026   1.922   2.827   7.639  0.4001  0.3139 -0.7897
  986MOL0     C33027   2.807   2.052   7.904 -1.1688 -0.0521  0.7989
  986MOL0     C33028   2.906   2.003   7.817  0.0864  1.0950  0.8014
  986MOL0     C33029   3.236   2.012   7.501 -0.4110 -1.5757  0.1899
  986MOL0     C33030   3.321   2.100   7.431 -1.1836 -0.5327  0.9754
  986MOL0     C33031   3.449   2.056   7.390 -0.2435  0.2899 -0.1972
  986MOL0     C33032   3.488   1.922   7.410  0.3539  0.4281  0.2942
  986MOL0     O33033   3.612   1.869   7.369 -0.1634 -0.2682 -0.1057
  986MOL0     C33034   3.708   1.954   7.300  0.0480 -0.1485 -0.1464
  986MOL0     C33035   3.834   1.876   7.279  0.9185 -0.1357 -0.5066
  986MOL0     C33036   3.936   1.966   7.205  0.4678  0.4043 -0.5718
  986MOL0     C33037   3.935   1.944   7.049  1.0991  1.0197  0.1029
  986MOL0     C33038   4.012   2.049   6.987 -1.1576 -0.1220 -0.8253
  986MOL0     C33039   4.076   2.145   6.945  0.1731 -0.1262 -0.2540
  986MOL0     C33040   3.403   1.830   7.475  0.8759 -0.0251  0.1377
  986MOL0     C33041   3.288   1.882   7.537  1.3180 -1.0695 -0.6060
  986MOL0     C33042   3.218   1.790   7.629 -0.0702 -0.4176  0.5614
  986MOL0     H33043   2.844   2.174   7.544  0.3986 -2.9476 -1.0892
  986MOL0     H33044   2.662   2.279   7.695 -1.0176  0.5557  1.8078
  986MOL0     H33045   2.477   2.188   7.805 -0.8570  1.5223 -0.3233
  986MOL0     H33046   2.468   2.080   7.933 -0.4995 -0.7285 -3.9099
  986MOL0     H33047   2.419   2.250   8.098 -2.0437  2.2980 -0.2789
  986MOL0     H33048   2.303   2.259   7.963 -1.1029  0.7144 -0.4801
  986MOL0     H33049   2.472   2.462   7.871  1.0123 -0.3682 -0.1445
  986MOL0     H33050   2.541   2.447   8.024 -2.2514 -1.1781  2.7658
  986MOL0     H33051   2.336   2.499   8.140 -1.2538  0.5612  0.0533
  986MOL0     H33052   2.378   2.618   8.016  0.0872  0.3381  1.2425
  986MOL0     H33053   2.148   2.396   7.995  0.4866  0.7523  0.6683
  986MOL0     H33054   2.124   2.566   8.020  1.0019  1.1820  1.2022
  986MOL0     H33055   2.248   2.603   7.812 -1.3119  2.0393  3.1823
  986MOL0     H33056   2.204   2.428   7.763 -3.5551  0.1679 -2.2947
  986MOL0     H33057   2.008   2.661   7.845 -0.5745 -1.3190  0.3991
  986MOL0     H33058   1.965   2.501   7.801 -1.6966  1.0654  3.9089
  986MOL0     H33059   2.134   2.690   7.612  0.6458 -0.3047 -0.2055
  986MOL0     H33060   2.055   2.527   7.573 -3.6870 -1.7130  1.7719
  986MOL0     H33061   1.775   2.570   7.517 -4.2768  1.7880  1.4326
  986MOL0     H33062   1.588   2.720   7.424  2.4476  1.4128 -0.0583
  986MOL0     H33063   1.544   2.670   7.583  1.4241  0.9406  2.4372
  986MOL0     H33064   1.498   2.904   7.646 -0.9717  0.3440 -0.7003
  986MOL0     H33065   1.570   2.957   7.491 -0.3086  0.8014  0.7075
  986MOL0     H33066   1.312   2.790   7.497 -0.6434  0.7946  1.0215
  986MOL0     H33067   1.382   2.876   7.364  4.6344 -1.0507  1.0485
  986MOL0     H33068   1.331   3.081   7.460  0.4496 -0.5722 -0.9507
  986MOL0     H33069   1.264   2.998   7.613  1.0611 -3.2047 -0.3254
  986MOL0     H33070   1.134   3.226   7.420  0.2850  0.3676  0.9433
  986MOL0     H33071   0.962   3.359   7.488 -0.8025 -0.8837  1.1686
  986MOL0     H33072   0.401   3.078   7.655 -1.9056 -0.2807 -0.5530
  986MOL0     H33073   0.209   3.176   7.760 -1.2404  2.0473 -0.2040
  986MOL0     H33074   0.093   3.614   7.671  1.9233 -1.3360 -2.4351
  986MOL0     H33075   0.028   3.535   7.522  1.1544  1.3688  0.2691
  986MOL0     H33076  -0.091   3.552   7.813 -0.3806  2.0721 -0.9052
  986MOL0     H33077  -0.150   3.647   7.686 -1.1873  0.5874  1.7439
  986MOL0     H33078  -0.213   3.431   7.551 -2.6970  0.5784  1.1352
  986MOL0     H33079  -0.142   3.339   7.682 -0.8273 -1.1578  1.5747
  986MOL0     H33080  -0.386   3.508   7.695 -2.2622  0.2082  2.0084
  986MOL0     H33081  -0.303   3.429   7.838 -0.2428 -1.9269  0.5624
  986MOL0     H33082  -0.339   3.211   7.713  2.0439  1.3731  1.6439
  986MOL0     H33083  -0.419   3.283   7.580  0.0139 -2.0716  0.4558
  986MOL0     H33084  -0.486   3.303   7.878 -1.3850  2.0273  0.4073
  986MOL0     H33085  -0.576   3.382   7.737 -0.3448  0.6571  2.0794
  986MOL0     H33086  -0.668   3.141   7.806 -0.9812 -0.8370 -1.9359
  986MOL0     H33087  -0.514   3.076   7.780 -0.0607 -0.7945 -2.2637
  986MOL0     H33088  -0.556   3.108   7.538 -0.7522  2.6451 -0.6576
  986MOL0     H33089  -0.675   3.015   7.629  0.0965 -0.4934  0.6146
  986MOL0     H33090   0.239   3.515   7.479 -1.3078 -1.6433 -1.2454
  986MOL0     H33091   0.457   3.447   7.431 -2.5333  1.6258  1.0461
  986MOL0     H33092   0.702   3.001   7.515 -2.4340  2.2508 -1.5378
  986MOL0     H33093   0.914   2.869   7.464 -2.5376 -0.0298 -0.4124
  986MOL0     H33094   2.811   2.021   8.008  3.3080  1.0447  1.1511
  986MOL0     H33095   2.980   1.934   7.857  0.7552  0.4781 -1.3752
  986MOL0     H33096   3.310   2.204   7.400  2.1130 -0.3028  0.2457
  986MOL0     H33097   3.523   2.117   7.338  0.1059  0.0933  0.0587
  986MOL0     H33098   3.716   2.042   7.364 -2.1493  0.4066 -0.5434
  986MOL0     H33099   3.656   1.990   7.210 -1.0095  1.6197  1.0936
  986MOL0     H33100   3.815   1.790   7.214  3.9227  0.0808 -1.8283
  986MOL0     H33101   3.880   1.841   7.372  2.7075  0.4771 -1.1106
  986MOL0     H33102   4.032   1.930   7.245  1.3644  1.6575 -1.5013
  986MOL0     H33103   3.932   2.074   7.223 -1.1790  0.3787 -0.6654
  986MOL0     H33104   3.972   1.845   7.020 -0.0566  1.0393 -1.5319
  986MOL0     H33105   3.834   1.950   7.009  0.7692 -1.4126  0.4532
  986MOL0     H33106   4.139   2.224   6.908  0.4214  0.0004  0.4317
  986MOL0     H33107   3.438   1.727   7.478 -3.8094 -1.8183  0.7100
  986MOL0     H33108   3.121   1.765   7.585 -2.3239  0.5010  4.5430
  986MOL0     H33109   3.269   1.693   7.630  1.3063  0.2360 -1.2337
  986MOL0     H33110   3.211   1.831   7.730  0.4686  0.3826  0.2861
  987MOL0     O33111   6.520   8.392   2.272 -0.1892 -0.2430  0.2157
  987MOL0     C33112   6.638   8.402   2.245 -0.3856 -0.2992 -0.3583
  987MOL0     O33113   6.717   8.511   2.274  0.5424  0.8591  0.3681
  987MOL0     C33114   6.648   8.624   2.299 -0.1423  0.4728 -0.8865
  987MOL0     C33115   6.656   8.688   2.430  0.6934  0.3608  0.0462
  987MOL0     C33116   6.610   8.815   2.445  0.2165 -0.6363  0.2274
  987MOL0     C33117   6.548   8.885   2.336  0.4055  0.0918  0.7664
  987MOL0     O33118   6.500   9.013   2.350  0.8528 -0.5244 -0.4602
  987MOL0     C33119   6.515   9.116   2.248 -0.4640 -0.6044 -0.6184
  987MOL0     C33120   6.549   9.258   2.303  0.2767  0.6065 -0.9697
  987MOL0     C33121   6.571   9.364   2.200  0.1252 -0.9250  0.3216
  987MOL0     C33122   6.436   9.420   2.150  0.4236  0.3172  0.2185
  987MOL0     C33123   6.449   9.481   2.009  0.4909 -0.5465  0.1784
  987MOL0     C33124   6.333   9.572   1.962 -0.5761 -0.7398  0.1764
  987MOL0     C33125   6.185   9.524   1.976  0.0814 -0.1509 -1.0918
  987MOL0     C33126   6.094   9.586   1.865  0.0400 -0.1835  0.1463
  987MOL0     N33127   5.947   9.540   1.884 -0.5564 -0.3074  0.0743
  987MOL0     C33128   5.875   9.551   2.000  0.0732 -1.1473 -0.4153
  987MOL0     C33129   5.766   9.473   1.988 -0.4436  0.2659 -0.4731
  987MOL0     C33130   5.654   9.441   2.077  0.7237  0.0695  0.0201
  987MOL0     C33131   5.548   9.550   2.056 -0.7234 -0.1774 -0.5516
  987MOL0     C33132   5.495   9.567   1.912 -0.3652  0.7524  0.5210
  987MOL0     C33133   5.369   9.660   1.904  0.0030 -0.7904  0.6173
  987MOL0     O33134   5.394   9.789   1.952 -0.3314 -0.4172 -0.4868
  987MOL0     C33135   5.297   9.880   1.951 -1.1227  0.6400 -0.7019
  987MOL0     C33136   5.180   9.866   1.873  0.6166 -0.3172  0.5453
  987MOL0     C33137   5.079   9.960   1.896  0.2759  0.0018  0.9255
  987MOL0     C33138   5.101  10.081   1.972 -0.3606  0.1536 -0.4185
  987MOL0     C33139   4.993  10.181   1.981 -0.2767  0.1166  0.3158
  987MOL0     O33140   4.916  10.199   1.878  0.1568 -0.9740  0.1407
  987MOL0     C33141   4.790  10.258   1.887 -0.2585 -0.0297 -0.2682
  987MOL0     C33142   4.696  10.216   1.976 -0.7194 -0.2614  0.3596
  987MOL0     C33143   4.571  10.271   1.977  0.7522  0.4551 -0.4844
  987MOL0     C33144   4.538  10.376   1.887 -0.5979 -0.7422  0.3851
  987MOL0     O33145   4.412  10.414   1.867  0.1869 -0.1762 -0.0565
  987MOL0     C33146   4.352  10.464   1.988 -0.2162 -0.4475 -0.3016
  987MOL0     C33147   4.256  10.580   1.931 -0.2765  0.8534  0.8832
  987MOL0     C33148   4.179  10.644   2.039 -1.4550 -0.6307 -0.7770
  987MOL0     C33149   4.081  10.741   1.983 -0.8374  0.3977 -0.0973
  987MOL0     C33150   3.996  10.791   2.103  0.5239 -0.4033  0.7616
  987MOL0     C33151   3.916  10.906   2.045 -0.3545 -0.1116  0.6823
  987MOL0     C33152   3.831  10.972   2.150 -0.5238  0.1131  0.6805
  987MOL0     C33153   3.758  11.087   2.083  0.4758  0.5831  0.8337
  987MOL0    Cl33154   3.659  11.185   2.193 -0.2556  0.0459 -0.3971
  987MOL0     C33155   4.632  10.409   1.787 -0.4097 -0.0694 -0.5391
  987MOL0     C33156   4.765  10.359   1.793 -0.0280  0.4824  0.4989
  987MOL0     O33157   4.986  10.243   2.084  0.3630 -0.2427  0.1268
  987MOL0     C33158   5.219  10.092   2.039 -0.1278  0.0175  0.9364
  987MOL0     C33159   5.316   9.994   2.028  0.2056  0.8562 -0.2169
  987MOL0     N33160   5.769   9.413   1.866 -0.3100 -0.0061 -0.1469
  987MOL0     N33161   5.871   9.457   1.809 -0.8261  0.0151  0.7350
  987MOL0     C33162   6.526   8.814   2.216 -0.5622  0.0743 -0.9281
  987MOL0     C33163   6.581   8.689   2.191 -0.1694 -0.1982  0.1603
  987MOL0     C33164   6.702   8.280   2.185 -0.3400 -0.1163 -0.3710
  987MOL0     C33165   6.631   8.161   2.203  0.4401  0.2512  0.4331
  987MOL0     C33166   6.683   8.037   2.168 -0.3839 -0.8573 -0.0274
  987MOL0     C33167   6.806   8.031   2.108 -0.5604 -0.8961 -0.8477
  987MOL0     O33168   6.852   7.903   2.065  0.2637  0.2040  0.3410
  987MOL0     C33169   6.950   7.900   1.965  0.4955  0.5099  0.3754
  987MOL0     C33170   6.976   7.754   1.933 -0.3432 -0.6979  0.7192
  987MOL0     C33171   7.068   7.745   1.815 -0.0163  0.0505  0.5620
  987MOL0     C33172   7.129   7.599   1.792 -0.5653 -0.1381 -0.2812
  987MOL0     C33173   7.268   7.581   1.849 -0.3067 -0.3207  0.0697
  987MOL0     C33174   7.373   7.586   1.901 -0.2428  0.2603 -0.6506
  987MOL0     C33175   6.878   8.156   2.081  0.7261  0.0657  0.0221
  987MOL0     C33176   6.830   8.283   2.116 -0.3846  0.0997  0.3214
  987MOL0     C33177   6.922   8.404   2.072 -0.3805  0.7226 -0.0342
  987MOL0     H33178   6.701   8.629   2.509 -0.1467 -2.4378 -1.4415
  987MOL0     H33179   6.618   8.862   2.543 -0.3616  2.0194 -0.8953
  987MOL0     H33180   6.593   9.089   2.176  0.9798 -1.8659  1.2914
  987MOL0     H33181   6.416   9.119   2.201 -0.0193  1.6032 -1.5242
  987MOL0     H33182   6.635   9.247   2.369  0.6797  1.5794 -1.3250
  987MOL0     H33183   6.464   9.287   2.365 -0.5193  0.4667 -1.9678
  987MOL0     H33184   6.626   9.327   2.113  2.2801  2.3911  0.1121
  987MOL0     H33185   6.637   9.444   2.233  0.0306  0.3794 -2.4024
  987MOL0     H33186   6.356   9.348   2.129  0.7053 -0.2417  1.0292
  987MOL0     H33187   6.406   9.495   2.223  3.5436  0.0357  1.9725
  987MOL0     H33188   6.538   9.544   1.996  0.5764 -0.5509  0.7213
  987MOL0     H33189   6.471   9.407   1.932 -0.5863  0.9774 -1.6842
  987MOL0     H33190   6.346   9.667   2.015 -0.8178 -2.1431  2.8974
  987MOL0     H33191   6.342   9.582   1.853 -0.5290 -0.3933  0.2113
  987MOL0     H33192   6.148   9.533   2.079 -0.8341  0.4465 -1.4616
  987MOL0     H33193   6.184   9.416   1.958 -0.1001 -0.2243 -0.6634
  987MOL0     H33194   6.092   9.695   1.875 -3.2322 -0.2373  1.5873
  987MOL0     H33195   6.127   9.557   1.766  1.3963  0.5224  0.3693
  987MOL0     H33196   5.903   9.616   2.083  0.5178 -1.3039 -0.4399
  987MOL0     H33197   5.626   9.338   2.052 -0.1118  0.7700 -2.1833
  987MOL0     H33198   5.671   9.444   2.185 -0.9387 -0.0058  0.3071
  987MOL0     H33199   5.465   9.529   2.125 -1.4896 -0.1462 -1.4425
  987MOL0     H33200   5.593   9.643   2.091  0.7607 -1.1277  0.1587
  987MOL0     H33201   5.478   9.470   1.866  1.0633  1.3487 -1.4030
  987MOL0     H33202   5.565   9.623   1.849 -0.7464 -0.9771 -1.5329
  987MOL0     H33203   5.284   9.619   1.959 -2.5786  1.2623 -1.5685
  987MOL0     H33204   5.352   9.660   1.796  0.1033  0.5664  0.5873
  987MOL0     H33205   5.151   9.794   1.799  0.4734  0.3824 -0.0905
  987MOL0     H33206   4.987   9.955   1.839  1.4847 -0.2418 -1.0912
  987MOL0     H33207   4.723  10.134   2.041  1.8661  0.6191  0.5024
  987MOL0     H33208   4.492  10.229   2.038  0.9750  0.8385  0.0803
  987MOL0     H33209   4.298  10.392   2.050  2.8681 -1.8613  0.8999
  987MOL0     H33210   4.426  10.512   2.052 -1.0977 -0.9292  1.1103
  987MOL0     H33211   4.320  10.653   1.882  0.1486 -1.1746 -1.8637
  987MOL0     H33212   4.173  10.552   1.865  1.6657  2.3863 -2.4625
  987MOL0     H33213   4.118  10.569   2.091  0.9010 -2.3460 -0.3234
  987MOL0     H33214   4.252  10.692   2.105 -0.3809 -0.9583 -1.7147
  987MOL0     H33215   4.022  10.689   1.908 -0.0153 -2.2084  0.9359
  987MOL0     H33216   4.130  10.832   1.948 -0.2081  0.6490  1.3584
  987MOL0     H33217   4.060  10.835   2.180  2.4648 -1.9924  0.1594
  987MOL0     H33218   3.922  10.725   2.149  0.5867  0.8929  2.8326
  987MOL0     H33219   3.984  10.983   2.007  0.9910 -0.4519  2.2873
  987MOL0     H33220   3.862  10.880   1.953 -0.9538 -0.1810  1.0490
  987MOL0     H33221   3.895  11.022   2.223 -1.8858 -0.0817  2.0802
  987MOL0     H33222   3.755  10.918   2.208 -0.2898  0.4519  1.3150
  987MOL0     H33223   3.828  11.156   2.035  0.7689 -0.5605 -0.4450
  987MOL0     H33224   3.692  11.052   2.002  0.8833  0.9254  0.3461
  987MOL0     H33225   4.613  10.480   1.707  0.0842  1.5748  0.7474
  987MOL0     H33226   4.843  10.375   1.720 -0.9125 -3.8585 -1.7561
  987MOL0     H33227   5.220  10.191   2.083  0.8899  1.2689 -1.6888
  987MOL0     H33228   5.417  10.010   2.066  0.5048 -1.1304 -0.0979
  987MOL0     H33229   6.488   8.862   2.127 -0.7754 -2.2503 -2.1904
  987MOL0     H33230   6.595   8.654   2.089  0.4155  1.3259 -0.3157
  987MOL0     H33231   6.537   8.157   2.257 -0.7445 -0.0429 -1.5539
  987MOL0     H33232   6.628   7.944   2.182 -0.4062 -1.8027 -4.6867
  987MOL0     H33233   7.041   7.947   2.004  1.8853 -3.0195  1.8056
  987MOL0     H33234   6.914   7.953   1.876 -2.0751  0.8355  1.5237
  987MOL0     H33235   6.887   7.696   1.906  0.0372 -0.1057 -2.0221
  987MOL0     H33236   7.030   7.696   2.008 -1.4948 -0.1838  1.9936
  987MOL0     H33237   7.141   7.826   1.823 -0.7350  0.7190  0.4421
  987MOL0     H33238   7.010   7.771   1.727 -2.3490 -1.0819  1.6858
  987MOL0     H33239   7.056   7.525   1.826  0.7559 -0.6151  1.7396
  987MOL0     H33240   7.129   7.579   1.685  1.8343 -1.2245 -0.1623
  987MOL0     H33241   7.461   7.590   1.962  0.3736  3.1675 -1.5902
  987MOL0     H33242   6.979   8.155   2.040  1.0462  1.9100  0.6730
  987MOL0     H33243   7.007   8.369   2.012  0.2187 -0.6999  1.5888
  987MOL0     H33244   6.870   8.495   2.040 -1.6817  2.3584  5.6918
  987MOL0     H33245   6.978   8.432   2.162  1.2037  1.2857 -1.1455
  988MOL0     O33246   8.627  11.083   2.038 -0.4772  0.5786 -0.0866
  988MOL0     C33247   8.679  10.990   1.978 -0.0289 -0.0074 -0.8138
  988MOL0     O33248   8.609  10.911   1.893 -0.0614  0.6155 -0.1277
  988MOL0     C33249   8.469  10.922   1.896  0.5190  0.2957  0.4996
  988MOL0     C33250   8.407  10.801   1.853 -0.2543 -0.5798  0.2574
  988MOL0     C33251   8.271  10.787   1.861 -0.1833 -0.5744 -0.6458
  988MOL0     C33252   8.190  10.893   1.904  0.2818  0.9482  0.2065
  988MOL0     O33253   8.058  10.867   1.923 -0.4633 -0.7056 -0.3939
  988MOL0     C33254   7.994  10.814   1.802  0.4649  0.5548 -0.1089
  988MOL0     C33255   7.849  10.825   1.823  0.5988  0.2501 -0.9220
  988MOL0     C33256   7.816  10.979   1.843 -0.4031  0.0674  0.0595
  988MOL0     C33257   7.659  10.993   1.849  0.0710  0.3091  0.3588
  988MOL0     C33258   7.608  11.141   1.883 -0.3537  0.1806  0.7369
  988MOL0     C33259   7.472  11.121   1.959 -0.9680  0.3419 -0.6811
  988MOL0     C33260   7.438  11.249   2.016  0.0368 -0.5371 -0.3030
  988MOL0     C33261   7.290  11.262   2.048 -0.1266 -1.5066 -0.1323
  988MOL0     N33262   7.268  11.206   2.177 -0.4061 -0.5915  0.7832
  988MOL0     C33263   7.276  11.072   2.191 -0.0576  0.7457  0.1928
  988MOL0     C33264   7.309  11.048   2.315  0.2804  0.3176 -0.3312
  988MOL0     C33265   7.332  10.904   2.376 -0.3862  0.0759  0.4237
  988MOL0     C33266   7.450  10.890   2.469  0.3817 -0.0106 -0.0674
  988MOL0     C33267   7.587  10.941   2.412  0.7659  0.5627  0.3732
  988MOL0     C33268   7.627  10.850   2.292  0.1738  0.9153 -0.2838
  988MOL0     O33269   7.756  10.892   2.231  0.0574 -0.4232  0.8012
  988MOL0     C33270   7.878  10.873   2.286  0.7072  0.2530 -0.3925
  988MOL0     C33271   7.986  10.920   2.214 -0.8094 -0.1918 -0.5608
  988MOL0     C33272   8.117  10.896   2.265  0.0311  0.0746 -0.7287
  988MOL0     C33273   8.137  10.829   2.394 -0.2909 -0.7470  0.9260
  988MOL0     C33274   8.271  10.807   2.447 -0.1130  0.1753  0.0356
  988MOL0     O33275   8.361  10.904   2.422  0.1714 -0.9029  0.4218
  988MOL0     C33276   8.495  10.867   2.439 -1.0145  0.2223  0.4141
  988MOL0     C33277   8.557  10.845   2.565  0.2622 -0.0928 -0.1818
  988MOL0     C33278   8.691  10.806   2.566 -0.4091  0.8693 -0.8673
  988MOL0     C33279   8.764  10.791   2.448 -0.2524 -0.1265 -0.1096
  988MOL0     O33280   8.887  10.732   2.452  0.9799 -1.0151 -0.0078
  988MOL0     C33281   8.878  10.593   2.474  0.3949  0.4770  0.2112
  988MOL0     C33282   9.032  10.546   2.479  1.0089 -0.3890  1.0569
  988MOL0     C33283   9.101  10.596   2.607 -0.2231  1.4431 -0.6009
  988MOL0     C33284   9.249  10.564   2.615 -0.1957  0.2956  0.8150
  988MOL0     C33285   9.303  10.589   2.750  0.5963  0.3841 -0.2623
  988MOL0     C33286   9.342  10.738   2.783  0.1066 -0.3130 -0.0395
  988MOL0     C33287   9.349  10.771   2.934 -0.7014 -0.0874  0.1122
  988MOL0     C33288   9.492  10.814   2.966  0.5233 -0.1438 -0.4403
  988MOL0    Cl33289   9.608  10.668   2.981  0.2291 -0.0520  0.6938
  988MOL0     C33290   8.704  10.815   2.324 -0.1753 -0.0089 -0.1619
  988MOL0     C33291   8.570  10.855   2.323  1.4256  1.1445 -0.4131
  988MOL0     O33292   8.300  10.698   2.489  0.4245 -0.0652 -0.1115
  988MOL0     C33293   8.025  10.788   2.464  0.3759 -1.1640  0.5623
  988MOL0     C33294   7.901  10.810   2.409  1.4200 -0.3844  0.0454
  988MOL0     N33295   7.323  11.164   2.382  0.0062  0.5131  0.1894
  988MOL0     N33296   7.303  11.260   2.297 -0.3380 -0.4851  0.3365
  988MOL0     C33297   8.242  11.022   1.915 -0.4075 -0.3832 -0.5795
  988MOL0     C33298   8.382  11.037   1.915 -0.0772 -0.3499 -0.0045
  988MOL0     C33299   8.828  10.974   1.983  0.3564 -0.1644  0.1133
  988MOL0     C33300   8.884  10.906   1.879  0.1517  0.3031  0.1633
  988MOL0     C33301   9.024  10.904   1.868  0.1178  0.0404 -0.1520
  988MOL0     C33302   9.108  10.961   1.964 -0.2455  0.0690 -0.0543
  988MOL0     O33303   9.239  10.937   1.951  0.3413  0.4161 -0.2286
  988MOL0     C33304   9.316  10.906   2.072  1.0781  0.3708  0.0155
  988MOL0     C33305   9.447  10.981   2.085  0.5816 -0.0264  0.0345
  988MOL0     C33306   9.540  10.936   1.979 -0.9924 -0.0842 -0.4521
  988MOL0     C33307   9.675  11.017   1.989  0.5718  0.5337 -0.3607
  988MOL0     C33308   9.785  10.970   1.911  0.4289 -0.2491  0.0866
  988MOL0     C33309   9.883  10.924   1.854  0.4583  0.9356 -0.4849
  988MOL0     C33310   9.047  11.020   2.069 -0.2814  0.0635  0.7613
  988MOL0     C33311   8.911  11.020   2.089  0.7093 -0.1480  0.1797
  988MOL0     C33312   8.861  11.092   2.211 -0.1842 -0.7621 -0.1833
  988MOL0     H33313   8.477  10.723   1.826  2.2069  0.1910  3.6745
  988MOL0     H33314   8.219  10.693   1.845 -3.8893  0.9980  0.9956
  988MOL0     H33315   8.006  10.874   1.711 -2.4415  0.3185 -0.7194
  988MOL0     H33316   8.023  10.710   1.782  1.7246  0.7591  0.5405
  988MOL0     H33317   7.819  10.771   1.914  0.2695  2.2180  0.1995
  988MOL0     H33318   7.792  10.793   1.736 -1.8218 -1.3264  1.0785
  988MOL0     H33319   7.854  11.044   1.764  0.3541 -1.4627 -0.8643
  988MOL0     H33320   7.837  11.023   1.941 -1.0587 -1.6203  1.0094
  988MOL0     H33321   7.616  10.954   1.756 -0.8643 -0.8044  1.2312
  988MOL0     H33322   7.638  10.921   1.929  1.8540 -1.7423 -0.9032
  988MOL0     H33323   7.679  11.197   1.944  1.5119 -2.3040  1.0026
  988MOL0     H33324   7.594  11.206   1.796  0.5733  2.0561  1.9334
  988MOL0     H33325   7.397  11.083   1.889 -0.7830 -3.5552  1.0223
  988MOL0     H33326   7.489  11.053   2.043 -0.7422  0.1234 -0.9032
  988MOL0     H33327   7.460  11.334   1.951 -1.4846  3.0102  3.3704
  988MOL0     H33328   7.502  11.256   2.105  1.6148 -2.0248 -1.2591
  988MOL0     H33329   7.251  11.364   2.045 -1.9448 -2.1735 -0.4437
  988MOL0     H33330   7.229  11.220   1.968  0.6344  0.7959 -2.0075
  988MOL0     H33331   7.277  10.991   2.119  0.8993  0.2129  0.7843
  988MOL0     H33332   7.238  10.881   2.428  0.6736  1.5506  3.1476
  988MOL0     H33333   7.341  10.831   2.294  1.2490  2.7513 -1.9897
  988MOL0     H33334   7.437  10.937   2.567 -0.9809  0.0244 -0.2430
  988MOL0     H33335   7.463  10.782   2.484  0.4123 -0.9117 -4.9860
  988MOL0     H33336   7.662  10.941   2.492  3.0012 -2.3226 -1.5036
  988MOL0     H33337   7.570  11.041   2.371  0.4395 -0.7050 -2.8915
  988MOL0     H33338   7.549  10.843   2.215 -2.2411  0.4281  2.0441
  988MOL0     H33339   7.638  10.747   2.327  2.0299  1.7388  1.7595
  988MOL0     H33340   7.950  10.972   2.126 -0.5970 -3.4374 -2.7748
  988MOL0     H33341   8.199  10.940   2.210 -0.0801  1.5011  0.1694
  988MOL0     H33342   8.502  10.851   2.658 -0.4590 -2.7110 -0.3385
  988MOL0     H33343   8.742  10.794   2.660 -0.8196  3.5285 -0.2168
  988MOL0     H33344   8.830  10.557   2.566 -0.5099  0.3956 -0.2855
  988MOL0     H33345   8.831  10.548   2.386  1.4531  1.4890 -0.9184
  988MOL0     H33346   9.030  10.437   2.471  0.7109 -0.4142  1.4148
  988MOL0     H33347   9.086  10.587   2.393 -1.1637  1.7747  0.6200
  988MOL0     H33348   9.066  10.697   2.629  1.4065  1.6456  1.4209
  988MOL0     H33349   9.056  10.529   2.680  2.5281 -2.1765 -1.8796
  988MOL0     H33350   9.293  10.621   2.533  0.1147 -1.5909 -0.3994
  988MOL0     H33351   9.263  10.460   2.583  1.9785  1.0875 -1.0596
  988MOL0     H33352   9.394  10.529   2.756 -0.9440 -2.3263 -1.8098
  988MOL0     H33353   9.238  10.541   2.824  1.4958 -1.0892 -0.3999
  988MOL0     H33354   9.437  10.764   2.734  0.3603 -2.2669 -0.6731
  988MOL0     H33355   9.269  10.807   2.739  0.7742  0.4526  0.0184
  988MOL0     H33356   9.347  10.680   2.995  3.6883 -0.0342  0.6472
  988MOL0     H33357   9.288  10.854   2.969 -0.4600  0.5804 -1.0004
  988MOL0     H33358   9.522  10.878   2.883 -2.4972  0.7665 -0.9382
  988MOL0     H33359   9.503  10.873   3.057 -0.2168  2.4476 -1.9205
  988MOL0     H33360   8.751  10.802   2.227 -0.2078 -1.5036  0.0045
  988MOL0     H33361   8.508  10.861   2.234  0.3534 -0.2075  0.2041
  988MOL0     H33362   8.024  10.756   2.568 -2.3923  0.9314  1.3090
  988MOL0     H33363   7.809  10.770   2.451 -0.0005  0.4021 -2.1731
  988MOL0     H33364   8.179  11.110   1.910  1.2849  1.1338  2.2924
  988MOL0     H33365   8.429  11.134   1.924  0.1836 -0.6186  2.0029
  988MOL0     H33366   8.825  10.849   1.808  2.8518 -4.5264  1.3304
  988MOL0     H33367   9.074  10.838   1.798 -0.4252 -3.4667  2.4665
  988MOL0     H33368   9.325  10.798   2.060 -2.2681  0.0553 -0.6413
  988MOL0     H33369   9.255  10.921   2.162  0.1141 -0.5725 -0.4653
  988MOL0     H33370   9.493  10.969   2.184  2.2706 -3.1500 -0.9834
  988MOL0     H33371   9.433  11.088   2.068  1.5459  0.3002  1.1316
  988MOL0     H33372   9.508  10.951   1.875  0.3850 -0.9727 -1.0238
  988MOL0     H33373   9.560  10.830   1.992 -2.1643 -0.7902 -3.4706
  988MOL0     H33374   9.656  11.124   1.977  3.4178  1.3053  1.0990
  988MOL0     H33375   9.728  11.008   2.085  1.6246 -1.1112 -1.0644
  988MOL0     H33376   9.963  10.882   1.797  0.9212 -1.5779  1.7850
  988MOL0     H33377   9.108  11.056   2.151  0.2082 -3.3893  2.0951
  988MOL0     H33378   8.933  11.091   2.293 -1.8112 -1.4803  1.2935
  988MOL0     H33379   8.840  11.195   2.181  0.1560 -0.0870  1.7762
  988MOL0     H33380   8.767  11.049   2.248 -1.9575  4.5677  2.5012
  989MOL0     O33381   2.012   9.622   1.585  0.3289  0.5648 -0.0036
  989MOL0     C33382   1.932   9.703   1.639  0.1487  0.2303 -0.0406
  989MOL0     O33383   1.829   9.668   1.728 -0.3678  0.4527 -0.1134
  989MOL0     C33384   1.770   9.541   1.722 -0.0861 -0.7983  0.2723
  989MOL0     C33385   1.777   9.449   1.613  0.4482  0.2068  0.1472
  989MOL0     C33386   1.686   9.335   1.622  0.2402 -0.0058 -0.0669
  989MOL0     C33387   1.588   9.320   1.724  0.1406 -1.2833 -0.7015
  989MOL0     O33388   1.495   9.217   1.732 -0.4885 -0.6947  0.3554
  989MOL0     C33389   1.473   9.129   1.623 -0.0079 -0.2855  1.0838
  989MOL0     C33390   1.344   9.051   1.647 -0.0152  0.7279 -0.8672
  989MOL0     C33391   1.276   9.006   1.515  0.0178  0.0582 -0.6348
  989MOL0     C33392   1.156   8.914   1.546  0.0988 -0.3929 -0.1663
  989MOL0     C33393   1.088   8.870   1.417  0.1021 -0.3957  0.2566
  989MOL0     C33394   0.972   8.771   1.450  0.3489 -0.3096  0.2553
  989MOL0     C33395   0.899   8.718   1.322  0.5139  0.5271 -0.0201
  989MOL0     C33396   0.761   8.658   1.353 -0.2279  0.0764 -0.4450
  989MOL0     N33397   0.687   8.735   1.455 -0.0074 -0.4147  0.5032
  989MOL0     C33398   0.664   8.866   1.433  0.0664 -0.0684  0.4817
  989MOL0     C33399   0.589   8.907   1.535 -0.0804 -0.3607  0.3624
  989MOL0     C33400   0.528   9.047   1.538  0.0654  0.3395  0.2647
  989MOL0     C33401   0.484   9.100   1.401  0.8119  0.6642 -1.1012
  989MOL0     C33402   0.358   9.028   1.343 -0.1823 -0.4603  0.3932
  989MOL0     C33403   0.338   8.882   1.365  0.7135  0.9370 -0.3437
  989MOL0     O33404   0.213   8.861   1.297 -0.1168  0.7492 -0.6503
  989MOL0     C33405   0.184   8.731   1.263 -0.0199 -0.2180  0.7168
  989MOL0     C33406   0.161   8.617   1.350 -0.0118  0.1680 -0.1772
  989MOL0     C33407   0.137   8.495   1.297  0.7233 -0.2642  0.0599
  989MOL0     C33408   0.144   8.472   1.158 -0.0584 -0.1481 -0.3823
  989MOL0     C33409   0.122   8.333   1.105 -0.7929  0.5989  0.0338
  989MOL0     O33410   0.100   8.330   0.974 -0.0683  0.0208  0.0961
  989MOL0     C33411   0.100   8.205   0.922 -0.3959 -0.4524  0.6503
  989MOL0     C33412   0.215   8.131   0.904 -0.9109  0.1081  0.3539
  989MOL0     C33413   0.208   7.993   0.863  0.2365 -0.2101 -0.5985
  989MOL0     C33414   0.084   7.943   0.810  0.1198 -0.8224  0.8870
  989MOL0     O33415   0.082   7.811   0.758  0.1238 -0.3614 -0.8718
  989MOL0     C33416  -0.047   7.752   0.716  0.4222 -1.0867 -0.0845
  989MOL0     C33417  -0.044   7.601   0.702  0.0191  0.8670 -0.7125
  989MOL0     C33418  -0.173   7.549   0.631 -0.1215  0.0981  0.1658
  989MOL0     C33419  -0.304   7.592   0.702  0.8187 -0.3219  0.3238
  989MOL0     C33420  -0.418   7.504   0.659  1.0415  0.0667  0.2801
  989MOL0     C33421  -0.549   7.528   0.731  0.4864  0.4255  0.0640
  989MOL0     C33422  -0.661   7.433   0.694 -0.7511 -0.6262  1.2493
  989MOL0     C33423  -0.791   7.476   0.758 -0.6326  0.3363  0.0857
  989MOL0    Cl33424  -0.767   7.426   0.919 -0.2501  0.0135 -0.3106
  989MOL0     C33425  -0.030   8.031   0.813 -0.6530 -0.0946  0.7181
  989MOL0     C33426  -0.025   8.161   0.865  0.2029  0.5682  1.1394
  989MOL0     O33427   0.144   8.239   1.183  0.0018  1.1722 -0.4369
  989MOL0     C33428   0.151   8.586   1.071 -0.1605  0.0776  0.4493
  989MOL0     C33429   0.169   8.715   1.121  1.0062  0.4851  0.1319
  989MOL0     N33430   0.567   8.806   1.624 -1.0658  0.5159 -0.2145
  989MOL0     N33431   0.638   8.705   1.577 -0.4781  0.1852 -0.9322
  989MOL0     C33432   1.589   9.414   1.824 -0.1610 -0.4949  0.2185
  989MOL0     C33433   1.676   9.523   1.823  0.4561  0.5123 -0.1169
  989MOL0     C33434   1.959   9.849   1.630 -0.7595 -0.0097 -0.2450
  989MOL0     C33435   1.923   9.939   1.736 -0.7257  0.1769  0.7703
  989MOL0     C33436   1.939  10.073   1.719  0.3668 -0.0016 -0.5447
  989MOL0     C33437   2.011  10.125   1.613  0.5817 -0.6221  0.7329
  989MOL0     O33438   2.027  10.261   1.604 -0.6399 -0.1011  0.2673
  989MOL0     C33439   1.917  10.341   1.556  0.6021 -0.7939 -0.5124
  989MOL0     C33440   1.854  10.436   1.666 -0.1028  0.9131 -0.3084
  989MOL0     C33441   1.945  10.545   1.717 -0.9605 -0.1847  0.1006
  989MOL0     C33442   1.874  10.635   1.820  0.5683  0.3502  0.0475
  989MOL0     C33443   1.948  10.761   1.836  0.1448  0.2753  0.2889
  989MOL0     C33444   2.005  10.866   1.857  0.1996 -0.1983  0.2642
  989MOL0     C33445   2.056  10.040   1.513 -0.1724 -0.6405 -0.1641
  989MOL0     C33446   2.028   9.902   1.522  0.1979 -0.2706 -0.0211
  989MOL0     C33447   2.047   9.821   1.400 -0.4760 -0.5489 -0.2246
  989MOL0     H33448   1.848   9.456   1.531 -0.3739 -2.1922 -0.8539
  989MOL0     H33449   1.689   9.269   1.537  1.4982  1.5911 -1.3256
  989MOL0     H33450   1.473   9.173   1.523  0.5752 -0.3626  1.0456
  989MOL0     H33451   1.566   9.071   1.620  1.9092  2.6073 -1.3927
  989MOL0     H33452   1.266   9.105   1.702  0.4252  1.3189 -0.8079
  989MOL0     H33453   1.377   8.963   1.702 -1.0687  2.6823  3.3394
  989MOL0     H33454   1.346   8.954   1.448  1.6852  3.4087 -1.7561
  989MOL0     H33455   1.246   9.098   1.464 -1.6883  1.7608  3.1174
  989MOL0     H33456   1.195   8.823   1.592  0.6203  0.5024  1.2675
  989MOL0     H33457   1.080   8.968   1.604  0.4891  0.3950 -0.3665
  989MOL0     H33458   1.049   8.954   1.359 -1.9411 -1.0328  0.6117
  989MOL0     H33459   1.161   8.825   1.350  1.1434  0.4259  0.8044
  989MOL0     H33460   1.018   8.685   1.499  2.4041 -0.8665 -2.4189
  989MOL0     H33461   0.902   8.819   1.519 -0.8776  0.3811 -1.4028
  989MOL0     H33462   0.948   8.632   1.276 -0.1269  0.2705 -0.2418
  989MOL0     H33463   0.890   8.794   1.243  1.1670 -0.4740 -1.0924
  989MOL0     H33464   0.713   8.666   1.255  1.2800  2.5719 -1.0847
  989MOL0     H33465   0.772   8.556   1.390  1.0173 -0.3300 -1.8222
  989MOL0     H33466   0.678   8.919   1.339  1.3591  0.6170  1.0317
  989MOL0     H33467   0.438   9.039   1.600 -1.9208 -0.5243 -2.5234
  989MOL0     H33468   0.606   9.109   1.583  0.1630  1.3970 -1.3029
  989MOL0     H33469   0.464   9.204   1.429  1.0446  0.1134  1.3666
  989MOL0     H33470   0.564   9.103   1.327  1.6246  0.8239 -0.2480
  989MOL0     H33471   0.360   9.033   1.234 -0.6420 -0.6053  0.3755
  989MOL0     H33472   0.270   9.084   1.378 -1.3144 -0.8545 -1.6557
  989MOL0     H33473   0.330   8.831   1.462 -2.8802 -0.1728 -1.0689
  989MOL0     H33474   0.419   8.831   1.311  1.2891  0.1748  1.1834
  989MOL0     H33475   0.153   8.629   1.457 -1.7367  4.3262 -0.5939
  989MOL0     H33476   0.121   8.411   1.364 -0.0253  1.1313  1.7047
  989MOL0     H33477   0.306   8.171   0.947  0.8071 -2.6603 -0.4364
  989MOL0     H33478   0.295   7.929   0.849  1.0708  1.1113 -1.7201
  989MOL0     H33479  -0.125   7.780   0.787  0.3103 -0.2352 -0.5331
  989MOL0     H33480  -0.081   7.796   0.621  1.3142  0.4232  0.2630
  989MOL0     H33481   0.042   7.565   0.645  0.9890 -0.7488  1.6014
  989MOL0     H33482  -0.025   7.547   0.795 -1.8450 -0.6951 -1.1847
  989MOL0     H33483  -0.169   7.582   0.526 -0.2401  0.3699  0.2470
  989MOL0     H33484  -0.178   7.440   0.640 -3.9122  0.0247 -1.1102
  989MOL0     H33485  -0.320   7.699   0.687  2.2116 -0.2883 -1.1599
  989MOL0     H33486  -0.293   7.576   0.810  0.7419 -1.3344  0.1918
  989MOL0     H33487  -0.388   7.398   0.654  3.4862  0.7415 -1.2354
  989MOL0     H33488  -0.433   7.537   0.556  0.1173  0.8056  0.6403
  989MOL0     H33489  -0.536   7.526   0.839 -1.8040 -1.1252  0.3836
  989MOL0     H33490  -0.581   7.631   0.716  3.0461  1.2592 -0.1667
  989MOL0     H33491  -0.638   7.331   0.725  3.5092 -0.9964 -2.2110
  989MOL0     H33492  -0.669   7.426   0.585 -0.9588 -0.7178  1.2692
  989MOL0     H33493  -0.811   7.583   0.751 -1.9168  0.0637 -0.7727
  989MOL0     H33494  -0.878   7.430   0.711 -2.8184 -1.6304  5.2384
  989MOL0     H33495  -0.124   7.993   0.773  1.1970 -2.7129 -1.5782
  989MOL0     H33496  -0.116   8.220   0.859 -1.4939 -1.7877  2.1925
  989MOL0     H33497   0.162   8.589   0.963  1.6752  3.6921  0.5935
  989MOL0     H33498   0.174   8.803   1.057  0.9203  1.3404  1.2667
  989MOL0     H33499   1.506   9.399   1.893  0.1876 -1.4446  0.4392
  989MOL0     H33500   1.673   9.588   1.910  2.5752 -0.2355  0.5736
  989MOL0     H33501   1.877   9.901   1.826  0.9598  0.2401  1.7161
  989MOL0     H33502   1.892  10.137   1.793  5.0788  0.0836  2.8671
  989MOL0     H33503   1.838  10.284   1.506  2.5942 -3.2592 -1.0529
  989MOL0     H33504   1.957  10.400   1.473  0.3889 -2.2765 -1.7295
  989MOL0     H33505   1.811  10.383   1.752  1.3464  0.8446  0.4215
  989MOL0     H33506   1.763  10.485   1.630 -2.6065 -0.7523  3.1208
  989MOL0     H33507   1.968  10.606   1.629  0.3116 -0.7074  0.0527
  989MOL0     H33508   2.036  10.500   1.756 -0.0796  1.4444 -0.0195
  989MOL0     H33509   1.771  10.668   1.799  0.7880  2.7151  2.2192
  989MOL0     H33510   1.879  10.581   1.915 -1.8356  1.0027  0.6230
  989MOL0     H33511   2.047  10.965   1.858  4.0414 -1.6949  0.1261
  989MOL0     H33512   2.123  10.066   1.432 -0.4040 -3.8072 -1.5115
  989MOL0     H33513   2.142   9.766   1.407 -0.8260 -0.9876  1.5738
  989MOL0     H33514   1.961   9.755   1.385 -1.1598  0.2871 -0.0423
  989MOL0     H33515   2.042   9.892   1.317  2.9730  1.7355  1.3031
  990MOL0     O33516   6.694   8.487   5.564  0.3905  0.3179  0.3715
  990MOL0     C33517   6.597   8.450   5.637 -0.4494  0.4763 -0.0369
  990MOL0     O33518   6.538   8.530   5.731 -0.0901 -0.4064 -0.5879
  990MOL0     C33519   6.596   8.654   5.752  0.1816 -0.4267  0.2899
  990MOL0     C33520   6.606   8.752   5.655 -0.1685  0.7085  0.8699
  990MOL0     C33521   6.668   8.876   5.669 -0.1378  0.0836  0.4089
  990MOL0     C33522   6.726   8.904   5.789 -0.0736 -0.2796 -0.4873
  990MOL0     O33523   6.777   9.025   5.815  0.0374 -0.1491  0.1678
  990MOL0     C33524   6.873   9.065   5.719 -0.5832 -0.6848 -0.4406
  990MOL0     C33525   6.885   9.214   5.723  0.5081  0.2177  0.1925
  990MOL0     C33526   6.763   9.298   5.697  0.0665 -0.1490  0.2672
  990MOL0     C33527   6.694   9.265   5.560  0.0334 -0.2591 -0.0362
  990MOL0     C33528   6.777   9.279   5.433 -0.2697 -0.2738 -0.1315
  990MOL0     C33529   6.681   9.266   5.307  1.0078  0.4751  0.1474
  990MOL0     C33530   6.690   9.131   5.237  0.0068  1.0706 -0.8115
  990MOL0     C33531   6.821   9.086   5.174  0.2802 -0.5988 -0.1435
  990MOL0     N33532   6.830   9.115   5.036 -0.9159  0.5101 -0.4577
  990MOL0     C33533   6.874   9.235   4.985 -0.5531  0.5676  0.7267
  990MOL0     C33534   6.823   9.229   4.853 -0.9954  1.4891 -0.6212
  990MOL0     C33535   6.845   9.336   4.748 -0.0088  0.4793  0.9629
  990MOL0     C33536   6.912   9.293   4.622  0.1123 -0.9989 -1.1200
  990MOL0     C33537   6.912   9.401   4.519 -0.5734 -0.1061 -0.8068
  990MOL0     C33538   7.022   9.380   4.403 -0.7980  0.2702 -1.1308
  990MOL0     O33539   7.078   9.506   4.356  0.7521 -0.1449 -0.3484
  990MOL0     C33540   7.137   9.489   4.232 -0.3176 -0.1863  0.0441
  990MOL0     C33541   7.219   9.386   4.190  0.6372  0.8051 -0.3906
  990MOL0     C33542   7.280   9.384   4.062  0.8302 -0.2692 -0.5738
  990MOL0     C33543   7.273   9.496   3.982  0.1403  0.2847  0.6334
  990MOL0     C33544   7.325   9.499   3.842  0.1744  0.6318  0.5373
  990MOL0     O33545   7.398   9.391   3.806  0.2933 -0.8004  0.5986
  990MOL0     C33546   7.447   9.395   3.682 -0.0006  0.1267  0.3679
  990MOL0     C33547   7.576   9.417   3.657 -1.3810  0.9585 -0.1736
  990MOL0     C33548   7.626   9.408   3.527  0.1175  0.6885  0.1875
  990MOL0     C33549   7.545   9.400   3.407  0.0929 -0.1472 -0.2178
  990MOL0     O33550   7.606   9.410   3.286  0.5479 -0.1858  0.9390
  990MOL0     C33551   7.533   9.364   3.166 -0.1264  0.0078  0.1656
  990MOL0     C33552   7.618   9.415   3.050  0.7608  0.2801 -0.8451
  990MOL0     C33553   7.563   9.362   2.922  0.1071 -0.6450 -0.7992
  990MOL0     C33554   7.412   9.397   2.898  0.2503  0.4119 -0.0590
  990MOL0     C33555   7.385   9.387   2.753  0.3837 -0.1539  0.3944
  990MOL0     C33556   7.245   9.425   2.712 -0.2794 -0.5661 -0.5442
  990MOL0     C33557   7.174   9.339   2.599  0.0748  0.6708  0.7014
  990MOL0     C33558   7.054   9.398   2.557 -0.2938 -0.3779  0.4581
  990MOL0    Cl33559   7.000   9.339   2.400 -0.6618 -0.1364  0.2026
  990MOL0     C33560   7.407   9.382   3.439 -0.1706  0.2317 -1.0154
  990MOL0     C33561   7.359   9.391   3.573 -0.1162 -0.1439  0.5342
  990MOL0     O33562   7.326   9.601   3.781  1.1010  0.7553  0.1991
  990MOL0     C33563   7.203   9.605   4.029  0.9230  0.3115  0.0552
  990MOL0     C33564   7.135   9.605   4.151 -1.0601  0.7122  0.6189
  990MOL0     N33565   6.756   9.112   4.831 -0.4080 -0.4295  0.5989
  990MOL0     N33566   6.763   9.048   4.942 -0.2559  0.0868 -0.5176
  990MOL0     C33567   6.706   8.816   5.891  0.0506 -0.0458  0.4484
  990MOL0     C33568   6.643   8.694   5.871  0.2508  0.2918  0.1396
  990MOL0     C33569   6.536   8.324   5.608  0.3936  1.0105 -0.2837
  990MOL0     C33570   6.590   8.255   5.489 -0.9300  0.4779 -0.4554
  990MOL0     C33571   6.524   8.137   5.443  0.5450 -0.1709  0.1258
  990MOL0     C33572   6.410   8.090   5.502  0.1407  1.0178 -0.0592
  990MOL0     O33573   6.336   7.982   5.462 -0.4822  0.4253  0.1723
  990MOL0     C33574   6.372   7.896   5.349  0.9459  0.4336 -0.7756
  990MOL0     C33575   6.282   7.768   5.366 -0.6142  0.8663  0.4554
  990MOL0     C33576   6.323   7.668   5.246  0.5755  0.0388 -0.5287
  990MOL0     C33577   6.418   7.559   5.303  0.7812  0.0704  0.9560
  990MOL0     C33578   6.364   7.467   5.396  0.1166  0.1900  0.4029
  990MOL0     C33579   6.314   7.398   5.482  0.7089 -0.4478  0.2795
  990MOL0     C33580   6.361   8.151   5.612 -0.3829 -0.0085  1.0550
  990MOL0     C33581   6.418   8.269   5.668  0.3531  0.0026  0.1902
  990MOL0     C33582   6.338   8.317   5.784 -0.5354  0.6967 -0.6111
  990MOL0     H33583   6.561   8.722   5.560 -2.3196  2.6221  1.2004
  990MOL0     H33584   6.679   8.955   5.595  2.4095  1.7151  2.3627
  990MOL0     H33585   6.972   9.031   5.750 -0.0839 -0.0924 -1.3548
  990MOL0     H33586   6.861   9.035   5.615 -0.6891  1.3863 -1.0674
  990MOL0     H33587   6.965   9.245   5.655  0.5806  1.1448  0.6811
  990MOL0     H33588   6.919   9.237   5.825  1.3339 -2.4515  0.5946
  990MOL0     H33589   6.799   9.401   5.698 -0.0971 -0.0829  2.1281
  990MOL0     H33590   6.693   9.279   5.779 -1.1455 -0.8294 -0.8772
  990MOL0     H33591   6.660   9.161   5.561 -0.5918 -0.0638 -0.7510
  990MOL0     H33592   6.620   9.344   5.546  1.4906  1.1134 -0.3923
  990MOL0     H33593   6.829   9.375   5.430 -2.4130  0.9322 -0.9535
  990MOL0     H33594   6.852   9.201   5.446 -2.2161 -1.9866  1.6362
  990MOL0     H33595   6.585   9.319   5.317  1.6903  2.6557 -3.1921
  990MOL0     H33596   6.722   9.326   5.225 -2.2942  2.1005 -0.4813
  990MOL0     H33597   6.603   9.114   5.173  0.3877  1.6165 -1.4873
  990MOL0     H33598   6.671   9.068   5.324  0.9467  1.0463 -0.6146
  990MOL0     H33599   6.899   9.137   5.231  1.1875  1.2459 -2.8095
  990MOL0     H33600   6.827   8.978   5.182  0.9668 -0.4111  2.9961
  990MOL0     H33601   6.926   9.317   5.033 -0.0737  1.4256 -1.1799
  990MOL0     H33602   6.751   9.386   4.724  0.4961  0.5745 -0.9768
  990MOL0     H33603   6.912   9.409   4.794  1.2485  1.3644 -2.0363
  990MOL0     H33604   7.017   9.269   4.638  0.8156  0.9304 -2.4868
  990MOL0     H33605   6.863   9.203   4.583  1.6299 -2.9342  1.1244
  990MOL0     H33606   6.947   9.489   4.574  2.7744 -2.0577  0.4324
  990MOL0     H33607   6.813   9.415   4.473 -2.2865 -4.4083  1.0903
  990MOL0     H33608   6.992   9.314   4.321 -1.8604  0.3467 -0.8092
  990MOL0     H33609   7.103   9.332   4.458  1.6175  4.4191 -0.6062
  990MOL0     H33610   7.222   9.289   4.239  1.5201 -0.1225 -2.1657
  990MOL0     H33611   7.329   9.299   4.016  0.1891 -1.1347  0.3098
  990MOL0     H33612   7.641   9.428   3.744 -1.1384  2.0699 -0.4798
  990MOL0     H33613   7.733   9.402   3.507  0.5786  1.3194  2.2171
  990MOL0     H33614   7.512   9.258   3.151 -2.3230  0.7238 -2.4618
  990MOL0     H33615   7.439   9.419   3.175 -0.7338 -0.9973  0.1849
  990MOL0     H33616   7.618   9.524   3.049 -3.3149  0.4415 -0.6149
  990MOL0     H33617   7.721   9.382   3.064  0.8611  1.5258  1.8902
  990MOL0     H33618   7.629   9.394   2.841  0.4399  1.0233  0.0907
  990MOL0     H33619   7.556   9.253   2.931 -3.5912 -0.5001 -0.1779
  990MOL0     H33620   7.399   9.505   2.907 -2.8090  0.6226 -4.2743
  990MOL0     H33621   7.346   9.338   2.962 -1.8169  0.1459 -2.3121
  990MOL0     H33622   7.393   9.283   2.720  1.5333  0.3137 -0.9511
  990MOL0     H33623   7.456   9.447   2.695 -2.0526  2.3975 -0.1317
  990MOL0     H33624   7.185   9.421   2.803  2.1646  0.7122  1.2397
  990MOL0     H33625   7.242   9.532   2.693 -1.5623 -0.4732  0.0579
  990MOL0     H33626   7.151   9.234   2.621 -1.2632  0.2565 -2.1673
  990MOL0     H33627   7.238   9.332   2.511 -0.3001 -0.2391  0.4895
  990MOL0     H33628   6.972   9.379   2.627 -2.4560  3.8746 -0.6099
  990MOL0     H33629   7.062   9.507   2.558 -0.2795 -0.3742  0.0742
  990MOL0     H33630   7.339   9.367   3.355 -1.1460 -1.4609  0.0075
  990MOL0     H33631   7.252   9.379   3.583  0.1382 -2.9192  0.5025
  990MOL0     H33632   7.202   9.696   3.971  0.5840  2.3634  3.0504
  990MOL0     H33633   7.090   9.693   4.194  0.2594  1.8913 -0.3210
  990MOL0     H33634   6.744   8.833   5.991 -2.0156  0.7175  1.1650
  990MOL0     H33635   6.638   8.620   5.950  2.7587 -0.7387 -0.5418
  990MOL0     H33636   6.682   8.278   5.436 -0.5677 -0.4425 -0.2573
  990MOL0     H33637   6.563   8.094   5.351 -1.9991 -2.3371 -0.0327
  990MOL0     H33638   6.479   7.872   5.354  0.9062  0.5097  0.6731
  990MOL0     H33639   6.347   7.948   5.256 -0.4245  1.4008  0.0861
  990MOL0     H33640   6.174   7.784   5.369 -1.5313 -3.6344  4.4583
  990MOL0     H33641   6.313   7.717   5.458  1.5045  0.0141 -0.6566
  990MOL0     H33642   6.355   7.725   5.158  0.7867 -0.0431 -0.5063
  990MOL0     H33643   6.230   7.628   5.206  1.6169 -0.4393 -2.5974
  990MOL0     H33644   6.460   7.502   5.220 -1.1770  1.8747 -1.4194
  990MOL0     H33645   6.504   7.599   5.358  1.4438  0.0200 -0.0071
  990MOL0     H33646   6.253   7.365   5.563  1.6447 -1.8425  0.4508
  990MOL0     H33647   6.281   8.108   5.670  0.9075 -1.6865  1.6908
  990MOL0     H33648   6.395   8.362   5.866 -1.6768  1.9855 -0.4778
  990MOL0     H33649   6.272   8.394   5.742  1.4460  0.5535 -4.4725
  990MOL0     H33650   6.280   8.239   5.834 -2.3644  2.6288  0.4592
  991MOL0     O33651   7.120   4.218   7.720  0.2734  0.7261  0.0210
  991MOL0     C33652   7.130   4.244   7.841 -0.4130  0.2183  0.3274
  991MOL0     O33653   7.132   4.149   7.937 -0.6350  0.3843 -0.2647
  991MOL0     C33654   7.103   4.014   7.903 -0.1161  0.8233 -0.6049
  991MOL0     C33655   6.986   3.974   7.832 -0.8852  1.0825  0.6526
  991MOL0     C33656   6.953   3.841   7.814  0.6447 -0.0452  0.7081
  991MOL0     C33657   7.027   3.736   7.869 -0.5718 -0.7638  0.5665
  991MOL0     O33658   7.004   3.599   7.848  1.0795  0.0283 -0.2128
  991MOL0     C33659   7.096   3.532   7.767 -0.5195  1.2512  0.0404
  991MOL0     C33660   7.046   3.400   7.712  0.2306 -0.1013 -0.6004
  991MOL0     C33661   6.952   3.334   7.819 -0.2569 -0.2796  0.2999
  991MOL0     C33662   6.883   3.218   7.739  0.2059  0.2317  0.7166
  991MOL0     C33663   6.783   3.143   7.821  0.5980  0.2250  0.1699
  991MOL0     C33664   6.699   3.055   7.741  0.1057  0.9280  0.1864
  991MOL0     C33665   6.603   2.975   7.834 -1.0754 -0.7984 -0.9909
  991MOL0     C33666   6.668   2.859   7.893  0.0132 -0.8776 -0.7355
  991MOL0     N33667   6.732   2.764   7.801 -0.2153  1.1619 -0.7519
  991MOL0     C33668   6.667   2.685   7.703  0.2130  0.0333 -1.0302
  991MOL0     C33669   6.769   2.619   7.647  0.8854 -0.2821  0.6423
  991MOL0     C33670   6.759   2.529   7.528  0.6733 -0.4505 -0.1542
  991MOL0     C33671   6.701   2.601   7.409 -0.0326 -0.1816 -0.0660
  991MOL0     C33672   6.755   2.550   7.281  0.5628  0.4213  0.1414
  991MOL0     C33673   6.708   2.405   7.270  0.2831 -0.0956 -0.8015
  991MOL0     O33674   6.568   2.375   7.304 -0.1751  0.1345 -0.6623
  991MOL0     C33675   6.543   2.236   7.289  0.1777 -0.2196  0.5923
  991MOL0     C33676   6.630   2.139   7.245  0.7083 -0.0110 -0.9847
  991MOL0     C33677   6.597   2.009   7.223 -0.1932 -0.0558  0.9981
  991MOL0     C33678   6.468   1.967   7.255 -0.2279 -1.5081  0.0072
  991MOL0     C33679   6.433   1.827   7.217 -0.7590  0.0688 -0.7992
  991MOL0     O33680   6.300   1.814   7.198 -0.0641  0.2239  0.1837
  991MOL0     C33681   6.245   1.684   7.208 -0.5806  0.0153  0.0318
  991MOL0     C33682   6.171   1.670   7.320 -0.2681  0.8503 -0.2589
  991MOL0     C33683   6.120   1.553   7.358 -1.0394 -0.2214 -0.6405
  991MOL0     C33684   6.134   1.442   7.277  0.5093  1.5801 -0.5289
  991MOL0     O33685   6.070   1.324   7.315 -0.8877 -0.3390 -0.7055
  991MOL0     C33686   6.141   1.203   7.316 -0.7088  0.8752  0.4704
  991MOL0     C33687   6.072   1.071   7.370  0.4439  0.6113  0.1822
  991MOL0     C33688   5.979   1.011   7.262  0.1523 -0.3110  0.2992
  991MOL0     C33689   5.941   0.859   7.279  0.0112  0.0947 -0.2606
  991MOL0     C33690   5.852   0.809   7.167  0.5609  1.3647  1.1010
  991MOL0     C33691   5.717   0.882   7.162 -1.1191 -0.0469  0.2853
  991MOL0     C33692   5.611   0.802   7.082  0.4158  0.4988  0.0930
  991MOL0     C33693   5.493   0.881   7.045  0.3884 -0.1870  0.3224
  991MOL0    Cl33694   5.500   0.877   6.865 -0.4054  0.2037  0.2952
  991MOL0     C33695   6.194   1.456   7.151  0.1073  0.5031 -0.3562
  991MOL0     C33696   6.260   1.577   7.119 -0.4723  0.3446 -0.7224
  991MOL0     O33697   6.527   1.742   7.215 -0.2320 -0.0827 -0.1074
  991MOL0     C33698   6.376   2.057   7.313 -0.1552  0.2925 -0.8260
  991MOL0     C33699   6.415   2.191   7.324  0.2110  0.2436  0.9958
  991MOL0     N33700   6.886   2.646   7.707 -1.0535 -0.5320  0.0552
  991MOL0     N33701   6.867   2.737   7.802 -0.0398 -0.3300 -0.5016
  991MOL0     C33702   7.139   3.769   7.947 -0.2695 -1.0990  0.4984
  991MOL0     C33703   7.177   3.906   7.958 -0.8697  0.3022  0.8554
  991MOL0     C33704   7.097   4.383   7.881  0.3165  0.5175 -0.2961
  991MOL0     C33705   7.018   4.399   7.994  0.4354  0.3017  0.4322
  991MOL0     C33706   6.960   4.523   8.037 -0.2209  0.1790 -0.3969
  991MOL0     C33707   6.997   4.640   7.966 -0.5664 -0.6889 -0.9716
  991MOL0     O33708   6.955   4.760   8.022 -0.4519 -0.0174 -0.1461
  991MOL0     C33709   7.017   4.883   7.986 -0.1129 -0.0986 -0.2905
  991MOL0     C33710   7.161   4.876   8.048  0.2831 -0.1764 -0.7924
  991MOL0     C33711   7.214   5.016   8.094 -0.5417  0.8488  0.5567
  991MOL0     C33712   7.208   5.039   8.240 -0.1396  0.4174 -0.1237
  991MOL0     C33713   7.071   5.055   8.302 -0.6553  0.3358  0.4671
  991MOL0     C33714   6.959   5.096   8.323  0.2415  0.8317 -0.7787
  991MOL0     C33715   7.073   4.619   7.846  0.6653 -0.4304 -0.2311
  991MOL0     C33716   7.132   4.498   7.799  0.1412  0.3925  0.4825
  991MOL0     C33717   7.223   4.505   7.691 -0.1860  0.3161  0.2654
  991MOL0     H33718   6.924   4.049   7.784 -1.6148 -0.8414 -1.5776
  991MOL0     H33719   6.858   3.821   7.764  1.5481 -0.1849 -1.0571
  991MOL0     H33720   7.129   3.592   7.682 -1.1461  0.4033 -0.8205
  991MOL0     H33721   7.173   3.518   7.844 -1.1224 -0.6945  0.3388
  991MOL0     H33722   7.129   3.331   7.697  0.6308 -0.1478  1.6028
  991MOL0     H33723   6.994   3.418   7.617 -0.5165 -0.3090 -0.2400
  991MOL0     H33724   6.874   3.400   7.857  0.9619  0.6387  1.2957
  991MOL0     H33725   7.005   3.296   7.906  1.0453  0.5992 -0.0755
  991MOL0     H33726   6.825   3.254   7.654 -2.1039 -0.0347  2.1097
  991MOL0     H33727   6.962   3.150   7.706  0.6289 -0.2399  2.5590
  991MOL0     H33728   6.847   3.090   7.892  1.5919  3.8079  2.1876
  991MOL0     H33729   6.725   3.220   7.873  1.2348  1.0707 -0.3414
  991MOL0     H33730   6.632   3.110   7.675 -2.8741 -4.9491 -2.4710
  991MOL0     H33731   6.758   2.989   7.676  1.3292  3.3395 -1.2648
  991MOL0     H33732   6.513   2.934   7.786 -2.3700  1.8688 -0.9978
  991MOL0     H33733   6.579   3.042   7.917  1.0098 -1.3376  0.1148
  991MOL0     H33734   6.751   2.897   7.952 -0.6436 -0.4890 -0.0360
  991MOL0     H33735   6.604   2.794   7.954  2.2530 -3.5535 -1.0541
  991MOL0     H33736   6.563   2.670   7.675  0.0936 -0.2455 -0.4486
  991MOL0     H33737   6.866   2.520   7.505  1.0864 -0.8545  1.7760
  991MOL0     H33738   6.709   2.434   7.547 -0.6821  0.0028 -1.3116
  991MOL0     H33739   6.592   2.601   7.417 -0.0342  2.0929  0.5396
  991MOL0     H33740   6.737   2.704   7.406  0.1011 -0.1725  1.3401
  991MOL0     H33741   6.864   2.553   7.272  0.4660 -0.4461 -1.8195
  991MOL0     H33742   6.713   2.614   7.203  1.7722 -0.6288 -1.4431
  991MOL0     H33743   6.780   2.346   7.329  1.7635  0.1225 -2.3208
  991MOL0     H33744   6.739   2.378   7.169  0.6775 -4.3092  0.2247
  991MOL0     H33745   6.733   2.165   7.223  0.4308  3.7607  1.3774
  991MOL0     H33746   6.676   1.949   7.178  0.9563 -1.7820  4.8893
  991MOL0     H33747   6.156   1.754   7.387 -0.0480 -0.6292  1.7133
  991MOL0     H33748   6.058   1.538   7.446 -1.0697 -2.1860 -0.9528
  991MOL0     H33749   6.165   1.163   7.217 -2.1001 -1.8708  1.1242
  991MOL0     H33750   6.233   1.215   7.374 -1.1156  0.7599  1.1505
  991MOL0     H33751   6.156   1.002   7.384  0.7429  1.1720  1.2787
  991MOL0     H33752   6.025   1.104   7.463  0.3068 -2.0627  1.1554
  991MOL0     H33753   5.886   1.069   7.261 -0.0093 -0.5826 -0.2903
  991MOL0     H33754   6.029   1.013   7.165  1.0669  1.3391  0.7596
  991MOL0     H33755   5.879   0.854   7.368 -2.0996 -0.5683 -1.6913
  991MOL0     H33756   6.018   0.781   7.282 -0.0013 -0.2283 -3.8321
  991MOL0     H33757   5.832   0.704   7.190 -0.2291  1.9326  3.3726
  991MOL0     H33758   5.899   0.821   7.069 -0.2797  2.4144  0.8039
  991MOL0     H33759   5.684   0.908   7.263  2.2177 -0.9602  1.7526
  991MOL0     H33760   5.728   0.979   7.113 -0.2631 -1.2260 -2.0315
  991MOL0     H33761   5.588   0.717   7.146 -1.1326  0.2544 -0.7382
  991MOL0     H33762   5.651   0.740   7.002 -1.0755 -0.0247 -0.2885
  991MOL0     H33763   5.400   0.839   7.085  0.9712 -1.8519  0.0001
  991MOL0     H33764   5.514   0.982   7.083  0.6924 -0.6704  1.5070
  991MOL0     H33765   6.214   1.367   7.091  1.8269 -0.0284  0.9325
  991MOL0     H33766   6.318   1.595   7.030  0.6320 -0.1033 -0.1042
  991MOL0     H33767   6.276   2.027   7.340 -0.9952  1.4421 -2.4715
  991MOL0     H33768   6.342   2.264   7.359 -3.2076 -1.1377 -2.6098
  991MOL0     H33769   7.200   3.691   7.992 -0.7717 -0.7622  1.7995
  991MOL0     H33770   7.268   3.941   8.005 -1.1751 -0.0990  1.7650
  991MOL0     H33771   7.005   4.312   8.058 -1.7240  1.6667  2.0165
  991MOL0     H33772   6.898   4.532   8.125 -0.0511 -0.0790 -0.2529
  991MOL0     H33773   6.956   4.955   8.041 -1.3616 -1.0538 -0.3704
  991MOL0     H33774   7.004   4.905   7.879  2.1487  3.4021  0.0075
  991MOL0     H33775   7.234   4.830   7.979  0.5618 -1.5736  0.3898
  991MOL0     H33776   7.161   4.810   8.135  1.7931  0.0577 -0.5862
  991MOL0     H33777   7.159   5.098   8.046 -1.5775  1.4350  2.6429
  991MOL0     H33778   7.321   5.021   8.071 -0.4938 -0.2107  0.5019
  991MOL0     H33779   7.261   4.956   8.287 -0.5252  0.2197 -0.0409
  991MOL0     H33780   7.260   5.132   8.265  1.1927 -0.6990  1.4781
  991MOL0     H33781   6.871   5.155   8.338  0.4775  0.8355  0.7507
  991MOL0     H33782   7.102   4.713   7.799  1.6448 -0.2455  0.6940
  991MOL0     H33783   7.306   4.439   7.719  2.0414  2.4979 -0.8389
  991MOL0     H33784   7.169   4.469   7.603  0.1550 -2.6364  1.1526
  991MOL0     H33785   7.262   4.606   7.676  1.0030 -0.0056  0.9808
  992MOL0     O33786   0.860   8.819  10.609  0.0276  0.2650  0.1355
  992MOL0     C33787   0.909   8.920  10.652  0.1567 -0.5410 -0.2838
  992MOL0     O33788   1.046   8.946  10.659 -0.7736  0.3488 -0.2734
  992MOL0     C33789   1.136   8.871  10.578  0.9758 -0.2999 -0.3226
  992MOL0     C33790   1.189   8.918  10.459  0.5419 -0.0761  0.4372
  992MOL0     C33791   1.272   8.840  10.390 -0.0600 -0.3680 -0.2358
  992MOL0     C33792   1.317   8.717  10.432  1.8133 -0.2199  0.0630
  992MOL0     O33793   1.402   8.636  10.356 -0.5914 -0.2330 -0.7617
  992MOL0     C33794   1.399   8.662  10.210  0.2281  0.0182 -0.1296
  992MOL0     C33795   1.426   8.524  10.144 -0.4972 -0.0874  0.1123
  992MOL0     C33796   1.386   8.509   9.996 -0.4966  0.4728  0.2556
  992MOL0     C33797   1.441   8.617   9.903 -0.2416  1.3739 -0.4567
  992MOL0     C33798   1.414   8.582   9.762 -0.0750 -0.8860  0.8619
  992MOL0     C33799   1.470   8.697   9.674  0.4471  0.1701  0.0752
  992MOL0     C33800   1.421   8.688   9.530  0.4729  1.0896 -0.3442
  992MOL0     C33801   1.459   8.558   9.455 -0.5041 -0.2653  0.2059
  992MOL0     N33802   1.602   8.580   9.419 -0.6893 -0.3007  0.6985
  992MOL0     C33803   1.720   8.540   9.492  1.3567 -0.0608 -0.8970
  992MOL0     C33804   1.821   8.588   9.421 -0.5904  0.4013  0.3486
  992MOL0     C33805   1.963   8.556   9.452 -0.2662 -0.6901  0.0765
  992MOL0     C33806   2.056   8.665   9.431  0.9405 -0.4255  0.6377
  992MOL0     C33807   2.128   8.665   9.290  0.0412  0.1247 -0.3391
  992MOL0     C33808   2.245   8.774   9.278  0.5659  0.1052  0.6248
  992MOL0     O33809   2.283   8.781   9.136  0.3261 -0.5770  0.0432
  992MOL0     C33810   2.405   8.835   9.096  0.2480  0.0617  1.0073
  992MOL0     C33811   2.481   8.905   9.179  0.2694 -0.2855  0.1271
  992MOL0     C33812   2.615   8.937   9.140 -0.5701  0.0193  0.0392
  992MOL0     C33813   2.667   8.907   9.011 -0.1096 -0.5994  0.0574
  992MOL0     C33814   2.800   8.955   8.967 -0.3580  0.1013  0.9410
  992MOL0     O33815   2.873   9.026   9.057  0.1885  0.6562  0.2342
  992MOL0     C33816   2.999   9.074   9.012  0.3948  1.0377 -0.5701
  992MOL0     C33817   3.119   8.996   9.010  0.1190  0.4226  0.6894
  992MOL0     C33818   3.235   9.051   8.946 -0.2698  0.8530 -0.9424
  992MOL0     C33819   3.232   9.170   8.881  0.5844  0.1037 -0.2175
  992MOL0     O33820   3.344   9.221   8.825  0.4247  0.0413  0.2837
  992MOL0     C33821   3.317   9.280   8.685  0.4981 -0.3283 -0.4183
  992MOL0     C33822   3.437   9.277   8.593 -0.3646 -1.7228  1.5288
  992MOL0     C33823   3.405   9.272   8.435 -0.4903 -0.9605 -0.2039
  992MOL0     C33824   3.490   9.372   8.358 -0.1667 -0.8630  0.2006
  992MOL0     C33825   3.456   9.360   8.205 -0.2641  0.3190 -0.0033
  992MOL0     C33826   3.509   9.470   8.107 -0.3312  0.1057  0.3645
  992MOL0     C33827   3.649   9.441   8.074 -0.6642 -0.2100  0.5737
  992MOL0     C33828   3.715   9.549   7.995  0.0312  0.9795 -0.1556
  992MOL0    Cl33829   3.673   9.720   8.074  0.4672  0.1425 -0.1577
  992MOL0     C33830   3.114   9.249   8.888 -0.1715  0.0122 -0.0197
  992MOL0     C33831   2.997   9.198   8.954  0.0733  1.4620 -0.1313
  992MOL0     O33832   2.841   8.924   8.850 -0.3665 -0.6517 -0.1455
  992MOL0     C33833   2.573   8.852   8.920  0.4403  0.0865  0.4705
  992MOL0     C33834   2.447   8.821   8.961  1.0704  2.0388 -1.0130
  992MOL0     N33835   1.774   8.648   9.303  0.0117  0.1151  0.2168
  992MOL0     N33836   1.643   8.636   9.301  0.5675 -0.8484 -0.2115
  992MOL0     C33837   1.273   8.672  10.560  0.7214  1.3391 -0.1872
  992MOL0     C33838   1.180   8.750  10.632 -0.3375  0.1926  0.2861
  992MOL0     C33839   0.820   9.018  10.725  0.0231 -0.2117 -0.3537
  992MOL0     C33840   0.848   9.063  10.853  0.4566  0.3821 -1.1363
  992MOL0     C33841   0.762   9.143  10.924 -1.0631 -0.7998 -0.4766
  992MOL0     C33842   0.649   9.205  10.873  0.0843  0.4732  1.2248
  992MOL0     O33843   0.562   9.288  10.940 -0.1711  0.0947 -0.4353
  992MOL0     C33844   0.611   9.348  11.063  0.0904  0.5190  0.5036
  992MOL0     C33845   0.517   9.458  11.126  0.0356  0.2124  1.3316
  992MOL0     C33846   0.524   9.592  11.042  0.0940  0.0232 -0.8253
  992MOL0     C33847   0.667   9.652  11.022 -0.3546 -0.3367 -0.5757
  992MOL0     C33848   0.662   9.784  10.965  0.5287 -0.7049 -0.2937
  992MOL0     C33849   0.626   9.891  10.913  0.2251 -0.3168  0.8281
  992MOL0     C33850   0.615   9.161  10.745 -0.6932  0.5956  0.8667
  992MOL0     C33851   0.695   9.068  10.671 -0.2084 -0.0541 -0.0432
  992MOL0     C33852   0.659   9.041  10.526 -0.8704  0.2540  0.1486
  992MOL0     H33853   1.183   9.019  10.420  0.8319 -0.8649 -1.7868
  992MOL0     H33854   1.316   8.882  10.300 -1.3145  1.5755 -0.0021
  992MOL0     H33855   1.305   8.704  10.172 -0.3110  0.6244  1.7634
  992MOL0     H33856   1.472   8.739  10.186  0.4257 -0.6295 -1.7528
  992MOL0     H33857   1.379   8.453  10.212  1.7612 -1.6486  0.1395
  992MOL0     H33858   1.530   8.492  10.152 -0.1703  0.4972 -1.5400
  992MOL0     H33859   1.280   8.484   9.985 -0.5247 -1.1290  3.0498
  992MOL0     H33860   1.434   8.415   9.968  0.8141  1.3916 -0.6901
  992MOL0     H33861   1.420   8.723   9.921  1.8193  2.1577 -2.2306
  992MOL0     H33862   1.549   8.608   9.918 -0.6942 -1.1600  2.1736
  992MOL0     H33863   1.464   8.489   9.735  1.5793 -0.5873  2.6494
  992MOL0     H33864   1.306   8.573   9.745 -0.0229  1.3147 -1.0795
  992MOL0     H33865   1.444   8.791   9.724 -0.4554 -0.2132  0.3259
  992MOL0     H33866   1.577   8.686   9.692  0.1190 -2.1781  0.9007
  992MOL0     H33867   1.450   8.773   9.467  0.0917  2.8443  1.7355
  992MOL0     H33868   1.312   8.680   9.530  0.5256  0.3025  0.4527
  992MOL0     H33869   1.455   8.475   9.527 -1.8269 -0.9963 -0.6719
  992MOL0     H33870   1.398   8.546   9.365  0.4360  0.1725 -0.4944
  992MOL0     H33871   1.725   8.487   9.587  4.2496 -1.1269 -1.5385
  992MOL0     H33872   1.976   8.532   9.558  0.2701  1.6045  0.5864
  992MOL0     H33873   2.003   8.462   9.412  1.5631 -1.2289  2.8285
  992MOL0     H33874   2.001   8.759   9.443 -0.6971 -1.0903 -1.1693
  992MOL0     H33875   2.146   8.658   9.494  1.7325 -0.4888 -0.4784
  992MOL0     H33876   2.057   8.692   9.212  1.8610  3.4314 -1.0062
  992MOL0     H33877   2.166   8.563   9.276 -2.3183 -0.9924  0.8709
  992MOL0     H33878   2.334   8.742   9.333  1.2327 -1.5927 -1.3112
  992MOL0     H33879   2.202   8.867   9.317 -2.5681 -1.8076  2.1818
  992MOL0     H33880   2.447   8.929   9.279 -0.0981  1.6585 -0.4363
  992MOL0     H33881   2.668   9.000   9.211  0.3428 -0.4449 -0.2210
  992MOL0     H33882   3.121   8.902   9.064 -3.6883  0.6636  1.4839
  992MOL0     H33883   3.322   8.986   8.940 -1.3804 -0.6128 -2.5109
  992MOL0     H33884   3.230   9.233   8.638 -2.0446  4.6713 -1.4457
  992MOL0     H33885   3.275   9.381   8.690 -1.9270 -1.2492 -0.3529
  992MOL0     H33886   3.507   9.360   8.608  0.8560 -2.4372  0.1144
  992MOL0     H33887   3.495   9.184   8.592  1.3991 -0.9989 -4.5057
  992MOL0     H33888   3.416   9.173   8.390 -4.1929 -1.4078 -0.4066
  992MOL0     H33889   3.299   9.297   8.426 -0.8904 -2.0196  1.2943
  992MOL0     H33890   3.598   9.366   8.374 -0.0673  0.0563 -0.0900
  992MOL0     H33891   3.455   9.472   8.382 -3.3800 -1.0812 -2.6600
  992MOL0     H33892   3.347   9.363   8.208 -0.2282  1.0029  1.5147
  992MOL0     H33893   3.492   9.261   8.176 -2.1479  0.0990 -1.8455
  992MOL0     H33894   3.444   9.490   8.021 -0.2950  2.8549  0.8979
  992MOL0     H33895   3.500   9.563   8.163  0.0175 -2.3949  5.0286
  992MOL0     H33896   3.651   9.350   8.014  2.6380 -0.2736  0.6146
  992MOL0     H33897   3.715   9.423   8.159  0.8261  0.2083 -0.4528
  992MOL0     H33898   3.823   9.531   8.007  0.0038 -1.2272 -2.3859
  992MOL0     H33899   3.688   9.552   7.889 -0.5374 -0.5491 -0.0761
  992MOL0     H33900   3.113   9.351   8.849  0.8516 -0.6242 -1.8410
  992MOL0     H33901   2.904   9.253   8.960 -1.0366 -0.2445 -1.0981
  992MOL0     H33902   2.608   8.839   8.818  3.2196  3.0052  0.9101
  992MOL0     H33903   2.387   8.778   8.882  2.2652  3.3831 -2.7478
  992MOL0     H33904   1.319   8.587  10.609 -0.5440  2.2574  2.8609
  992MOL0     H33905   1.158   8.715  10.732 -0.4881 -2.5089 -0.6306
  992MOL0     H33906   0.940   9.020  10.891  0.3203  1.1459  0.1190
  992MOL0     H33907   0.777   9.150  11.031 -0.6031 -1.5892 -0.4863
  992MOL0     H33908   0.708   9.385  11.032  0.5432 -1.0537 -0.0852
  992MOL0     H33909   0.641   9.286  11.148  1.7603  1.6179  0.7517
  992MOL0     H33910   0.556   9.475  11.227 -1.4094 -1.5820  2.2647
  992MOL0     H33911   0.413   9.424  11.134  0.4930 -1.2870  1.3420
  992MOL0     H33912   0.458   9.664  11.092 -0.5845 -1.6909  0.8748
  992MOL0     H33913   0.488   9.560  10.944 -2.3678  1.9552 -0.6613
  992MOL0     H33914   0.718   9.646  11.119 -1.5008  1.6796  0.2067
  992MOL0     H33915   0.723   9.585  10.956  2.9397  0.7224  0.9249
  992MOL0     H33916   0.579   9.973  10.863  3.1008  0.7918 -0.2687
  992MOL0     H33917   0.529   9.205  10.696  0.2186 -1.4528 -2.9231
  992MOL0     H33918   0.627   9.131  10.474  0.5589  1.1641  0.7891
  992MOL0     H33919   0.753   9.021  10.474  0.3237 -2.2048  2.9220
  992MOL0     H33920   0.578   8.967  10.532 -0.3357 -0.2761  1.1543
  993MOL0     O33921   2.267   0.033   2.486  0.6329 -0.5614 -0.9575
  993MOL0     C33922   2.286  -0.071   2.434 -0.0911  0.2509  1.2088
  993MOL0     O33923   2.403  -0.136   2.417 -0.3025  0.0507  0.0057
  993MOL0     C33924   2.514  -0.107   2.498  0.3491 -0.6013  0.1535
  993MOL0     C33925   2.567   0.025   2.489 -0.3312  0.3740  0.3880
  993MOL0     C33926   2.675   0.058   2.569 -0.3835  0.5919  0.1371
  993MOL0     C33927   2.741  -0.049   2.638  0.3726 -0.5657  0.1448
  993MOL0     O33928   2.866  -0.042   2.701  0.0986 -0.4990 -0.2940
  993MOL0     C33929   2.938   0.083   2.667 -0.3258 -0.0652 -1.3444
  993MOL0     C33930   2.897   0.187   2.766  0.0768 -0.7245 -0.0559
  993MOL0     C33931   2.914   0.330   2.718 -0.3704  0.3350  0.2713
  993MOL0     C33932   2.853   0.423   2.823  0.8582 -0.6298  0.2322
  993MOL0     C33933   2.868   0.574   2.779 -0.1900  0.3330 -0.8646
  993MOL0     C33934   2.913   0.667   2.897  0.1251  1.3411 -0.9089
  993MOL0     C33935   2.792   0.701   2.978  0.6172 -0.2098 -1.0477
  993MOL0     C33936   2.845   0.778   3.102 -0.2058 -1.0114 -0.8757
  993MOL0     N33937   2.930   0.896   3.063  1.1841 -0.0845 -0.0037
  993MOL0     C33938   2.893   0.999   2.976  1.1953  1.0591 -0.0591
  993MOL0     C33939   2.996   1.087   2.987  0.3703  0.0259 -0.5419
  993MOL0     C33940   3.029   1.210   2.905 -0.8607 -0.5811  0.6645
  993MOL0     C33941   3.113   1.180   2.777  0.0546 -0.4557 -0.4486
  993MOL0     C33942   3.252   1.111   2.813 -0.1577  0.7090 -0.3630
  993MOL0     C33943   3.344   1.151   2.703 -0.2863  0.1214  1.2125
  993MOL0     O33944   3.482   1.123   2.715  0.6335 -0.0048  0.4423
  993MOL0     C33945   3.570   1.219   2.759 -0.2654  0.3132  0.3499
  993MOL0     C33946   3.701   1.189   2.760  0.6896 -0.4512  0.0123
  993MOL0     C33947   3.795   1.279   2.801 -0.2765  0.5366  0.8707
  993MOL0     C33948   3.762   1.412   2.832  0.0498 -0.4038  0.2292
  993MOL0     C33949   3.875   1.506   2.860  0.2313  0.5040  0.1668
  993MOL0     O33950   4.002   1.460   2.873 -0.1394 -0.3650  0.6760
  993MOL0     C33951   4.099   1.527   2.943 -0.6412  0.5008 -0.2134
  993MOL0     C33952   4.176   1.640   2.896 -0.4802  0.3323  0.1267
  993MOL0     C33953   4.284   1.680   2.981  0.5698  0.6871  0.2840
  993MOL0     C33954   4.312   1.617   3.107 -0.1336  0.3372  0.4018
  993MOL0     O33955   4.425   1.663   3.166 -0.5631  0.9120 -0.8584
  993MOL0     C33956   4.493   1.577   3.257 -0.2019 -0.3328  0.0674
  993MOL0     C33957   4.642   1.620   3.275  0.0469 -0.4489  0.6279
  993MOL0     C33958   4.711   1.562   3.404 -0.0501  0.0361  0.3154
  993MOL0     C33959   4.862   1.551   3.392 -0.3252  1.2721 -0.1227
  993MOL0     C33960   4.929   1.514   3.520 -0.2239 -1.7707 -0.3038
  993MOL0     C33961   5.080   1.530   3.519  0.0712 -0.2217  0.7923
  993MOL0     C33962   5.156   1.440   3.623 -0.4344  0.5471 -0.8443
  993MOL0     C33963   5.145   1.513   3.765 -0.8040  0.3091 -0.4223
  993MOL0    Cl33964   5.238   1.672   3.771  0.4814  0.0647 -0.6698
  993MOL0     C33965   4.238   1.504   3.140 -0.5670 -0.9051  0.3730
  993MOL0     C33966   4.133   1.467   3.060  0.7666  0.3188 -0.5490
  993MOL0     O33967   3.843   1.625   2.861 -0.6517 -0.3906  0.2059
  993MOL0     C33968   3.622   1.443   2.840  0.3265 -0.0237 -0.8137
  993MOL0     C33969   3.529   1.346   2.808  0.5957 -0.1174  0.9311
  993MOL0     N33970   3.078   1.041   3.086  0.2276  0.1786  0.0124
  993MOL0     N33971   3.039   0.926   3.127  1.0755  0.6904  0.3729
  993MOL0     C33972   2.691  -0.180   2.639 -0.2160  0.2955 -0.5768
  993MOL0     C33973   2.584  -0.211   2.561  0.1238 -0.1875  0.4862
  993MOL0     C33974   2.161  -0.132   2.382 -0.0511 -0.4327  0.2124
  993MOL0     C33975   2.111  -0.097   2.253  0.3601  0.3500  0.2673
  993MOL0     C33976   2.002  -0.168   2.197 -0.1726 -0.6238  0.5793
  993MOL0     C33977   1.927  -0.260   2.276 -0.2739 -0.7603 -0.2896
  993MOL0     O33978   1.814  -0.330   2.237 -0.4965 -0.7869 -0.5782
  993MOL0     C33979   1.823  -0.470   2.239 -0.3179 -0.2760 -0.4880
  993MOL0     C33980   1.674  -0.523   2.216 -0.4686 -0.5905  0.4488
  993MOL0     C33981   1.664  -0.591   2.079  0.0128 -0.2920 -0.0504
  993MOL0     C33982   1.520  -0.658   2.058  0.4254  0.0863  0.1414
  993MOL0     C33983   1.513  -0.732   1.928 -0.4776 -0.3817  0.4607
  993MOL0     C33984   1.497  -0.789   1.822  0.1333 -0.0029  0.5422
  993MOL0     C33985   1.980  -0.290   2.400  0.0222  0.6733 -0.4978
  993MOL0     C33986   2.098  -0.233   2.455  0.0425  0.0552 -0.7321
  993MOL0     C33987   2.131  -0.283   2.599  0.7201 -0.6875  0.2215
  993MOL0     H33988   2.521   0.104   2.430 -0.7444  0.3454  0.6619
  993MOL0     H33989   2.715   0.159   2.576 -1.4670  0.9681  1.4468
  993MOL0     H33990   3.047   0.087   2.662 -0.1634  4.9446  0.1165
  993MOL0     H33991   2.920   0.114   2.563 -0.6611  0.7779 -1.0467
  993MOL0     H33992   2.948   0.180   2.863  2.9778  0.6002 -1.3543
  993MOL0     H33993   2.793   0.166   2.789 -0.2860 -2.4975 -2.8382
  993MOL0     H33994   2.864   0.338   2.621  0.1962 -0.4478 -0.0984
  993MOL0     H33995   3.019   0.355   2.700  0.1434 -2.0480 -0.4628
  993MOL0     H33996   2.747   0.399   2.835  0.2507  1.6399 -0.1030
  993MOL0     H33997   2.909   0.404   2.915 -0.6361  0.6724  1.4469
  993MOL0     H33998   2.942   0.577   2.698  1.3803 -1.8174  0.3683
  993MOL0     H33999   2.784   0.618   2.726 -0.1786  2.9130  1.0487
  993MOL0     H34000   2.981   0.621   2.969  0.2450  0.1566 -1.7592
  993MOL0     H34001   2.942   0.758   2.846 -1.1478  1.2997 -1.7687
  993MOL0     H34002   2.736   0.613   3.008 -0.4927  1.2215  1.3279
  993MOL0     H34003   2.726   0.769   2.924 -3.6887 -3.3323 -0.2256
  993MOL0     H34004   2.764   0.819   3.164  0.0289 -2.9938  0.8350
  993MOL0     H34005   2.903   0.706   3.160  0.9797  0.8180  0.3177
  993MOL0     H34006   2.807   1.006   2.910  1.0509  1.0664  0.1315
  993MOL0     H34007   2.932   1.255   2.883 -2.4367 -2.6351  2.8520
  993MOL0     H34008   3.086   1.285   2.963  2.4157 -2.1011 -0.3419
  993MOL0     H34009   3.053   1.116   2.711  0.3444 -1.0437 -0.1416
  993MOL0     H34010   3.124   1.273   2.721 -0.8153  0.6164  1.0988
  993MOL0     H34011   3.243   1.004   2.835 -3.3513  1.2042  1.3729
  993MOL0     H34012   3.291   1.151   2.907 -0.8163  2.1223 -0.6590
  993MOL0     H34013   3.333   1.254   2.670 -2.5678 -0.7972 -1.2409
  993MOL0     H34014   3.328   1.090   2.613  0.8026  1.5325  0.0180
  993MOL0     H34015   3.745   1.097   2.723  0.0258 -0.4721 -0.7535
  993MOL0     H34016   3.900   1.250   2.791  0.0124  1.4785  1.0912
  993MOL0     H34017   4.145   1.680   2.799  1.7803 -0.5523 -1.0435
  993MOL0     H34018   4.343   1.765   2.948  0.0716  0.4994 -1.1703
  993MOL0     H34019   4.433   1.575   3.348  0.1425 -0.5634  0.2917
  993MOL0     H34020   4.485   1.474   3.221 -1.2704  0.0955 -1.0142
  993MOL0     H34021   4.692   1.582   3.185  0.7570 -3.1843  2.0565
  993MOL0     H34022   4.649   1.729   3.279  1.1545 -0.4314 -0.9346
  993MOL0     H34023   4.690   1.639   3.480  3.4457  1.3404  0.1366
  993MOL0     H34024   4.667   1.467   3.435 -0.7483 -0.0351 -0.8281
  993MOL0     H34025   4.888   1.654   3.365 -4.8110  3.2352  1.9056
  993MOL0     H34026   4.907   1.489   3.315 -1.2497 -0.0095  0.3325
  993MOL0     H34027   4.899   1.415   3.556  2.3486 -1.9732  1.5896
  993MOL0     H34028   4.885   1.591   3.584 -0.4239  0.1455 -2.6344
  993MOL0     H34029   5.123   1.487   3.428  2.7295  1.4504  1.1576
  993MOL0     H34030   5.111   1.634   3.529  1.2161 -0.4963  0.2497
  993MOL0     H34031   5.262   1.422   3.607  0.7800  3.7647  2.1354
  993MOL0     H34032   5.106   1.343   3.620  1.0645 -0.2182 -1.6083
  993MOL0     H34033   5.040   1.529   3.791  0.0521  1.7703  2.5382
  993MOL0     H34034   5.180   1.449   3.846 -2.2310 -0.1241 -0.1125
  993MOL0     H34035   4.257   1.445   3.229 -0.0149 -0.4416  0.5768
  993MOL0     H34036   4.093   1.372   3.095  4.1657 -0.4732  1.6442
  993MOL0     H34037   3.592   1.542   2.874  1.2086  0.3875 -1.2071
  993MOL0     H34038   3.423   1.369   2.822  0.5232  2.5109 -2.6034
  993MOL0     H34039   2.738  -0.235   2.719  1.0933  1.9973 -0.0976
  993MOL0     H34040   2.544  -0.311   2.559 -0.7010  0.1396  0.3669
  993MOL0     H34041   2.168  -0.026   2.193 -0.1046 -0.9195 -1.7976
  993MOL0     H34042   1.972  -0.141   2.097  0.3281 -0.3211  0.5074
  993MOL0     H34043   1.857  -0.511   2.334  2.1926  2.3129 -0.1365
  993MOL0     H34044   1.895  -0.497   2.161 -0.5527  0.9881 -1.1620
  993MOL0     H34045   1.598  -0.445   2.228 -2.0610 -1.7960 -1.2419
  993MOL0     H34046   1.647  -0.596   2.293 -2.1197 -0.5794 -0.0696
  993MOL0     H34047   1.747  -0.663   2.078  2.0016  1.8534  0.3534
  993MOL0     H34048   1.690  -0.520   1.999 -0.5661  1.1899  1.0232
  993MOL0     H34049   1.505  -0.729   2.140  2.3855  1.5666  1.8654
  993MOL0     H34050   1.442  -0.582   2.058 -0.7616 -1.0776 -0.5238
  993MOL0     H34051   1.493  -0.825   1.722 -3.8769  1.0124  0.1656
  993MOL0     H34052   1.939  -0.365   2.466 -0.9889  0.2390 -1.5725
  993MOL0     H34053   2.159  -0.193   2.654  2.7962  0.0341 -1.8111
  993MOL0     H34054   2.056  -0.335   2.658  1.2753  1.3263  2.8890
  993MOL0     H34055   2.222  -0.345   2.601  0.8747 -0.6230 -1.9633
  994MOL0     O34056   1.553   0.947   0.184 -0.0370 -0.2896  0.8876
  994MOL0     C34057   1.521   0.849   0.122  0.1421 -0.4988  0.3713
  994MOL0     O34058   1.584   0.804  -0.001  0.5385 -0.1522 -0.0567
  994MOL0     C34059   1.675   0.872  -0.072 -0.1736  0.3798 -0.5797
  994MOL0     C34060   1.705   0.820  -0.200 -0.7406 -0.1470 -0.8628
  994MOL0     C34061   1.797   0.891  -0.273 -0.0463  0.4924 -0.2305
  994MOL0     C34062   1.874   0.995  -0.228  1.5297 -0.1605  0.6259
  994MOL0     O34063   1.979   1.055  -0.292  0.1439 -0.0024  0.5074
  994MOL0     C34064   1.947   1.108  -0.425  1.2151 -0.0418  0.2142
  994MOL0     C34065   1.901   1.251  -0.419  0.0482 -0.1658 -0.0848
  994MOL0     C34066   1.875   1.321  -0.549  0.0365  0.6725  0.3450
  994MOL0     C34067   2.027   1.362  -0.614  0.4222  0.6430  0.3614
  994MOL0     C34068   2.011   1.471  -0.714 -0.4456 -1.3782 -0.8362
  994MOL0     C34069   2.025   1.612  -0.646  0.6132 -0.0394 -0.3351
  994MOL0     C34070   2.044   1.715  -0.761 -0.0793 -0.5109 -1.1479
  994MOL0     C34071   2.059   1.854  -0.697  0.1925  0.1069  0.2789
  994MOL0     N34072   2.182   1.863  -0.616 -0.2474 -0.5174  0.0599
  994MOL0     C34073   2.192   1.846  -0.483 -0.6694 -0.4368  0.0909
  994MOL0     C34074   2.322   1.854  -0.456 -0.0054  0.9028 -0.3300
  994MOL0     C34075   2.364   1.846  -0.305  0.0798 -1.5233  0.0595
  994MOL0     C34076   2.403   1.980  -0.251  0.0659  0.5259 -0.4839
  994MOL0     C34077   2.527   2.042  -0.317 -0.0637  0.0166 -0.2454
  994MOL0     C34078   2.535   2.193  -0.271 -0.5186  0.6900  0.3165
  994MOL0     O34079   2.426   2.266  -0.329 -0.6732  0.0268  0.5267
  994MOL0     C34080   2.402   2.375  -0.248  0.3106  1.1148  0.6995
  994MOL0     C34081   2.471   2.494  -0.262 -0.8938 -0.5119  0.0152
  994MOL0     C34082   2.438   2.618  -0.208 -0.4364  1.0413  0.8329
  994MOL0     C34083   2.329   2.618  -0.120 -0.7306 -0.5051 -0.3479
  994MOL0     C34084   2.296   2.748  -0.044  0.1299  0.2645  1.1285
  994MOL0     O34085   2.204   2.731   0.057 -0.3829  0.9394  0.8124
  994MOL0     C34086   2.133   2.835   0.111 -0.7280  0.0726 -0.2631
  994MOL0     C34087   2.165   2.973   0.110 -0.3808  0.3747 -0.1611
  994MOL0     C34088   2.089   3.070   0.184 -0.0195 -0.1999  0.8489
  994MOL0     C34089   1.983   3.031   0.260 -0.9962 -0.8562  0.7148
  994MOL0     O34090   1.928   3.139   0.317  0.4342  0.1645  0.1567
  994MOL0     C34091   1.831   3.121   0.421  0.5233  0.3761 -0.2504
  994MOL0     C34092   1.799   3.258   0.478  0.4969  0.2742  0.6775
  994MOL0     C34093   1.702   3.245   0.590  0.2876 -0.0689 -0.5995
  994MOL0     C34094   1.677   3.381   0.651  0.3656  0.2643 -0.8288
  994MOL0     C34095   1.581   3.370   0.772  0.0826  0.4632 -0.0258
  994MOL0     C34096   1.600   3.489   0.866 -0.1356  0.3755  0.0812
  994MOL0     C34097   1.557   3.626   0.801 -0.1787 -0.8108  0.3221
  994MOL0     C34098   1.560   3.740   0.899 -0.1283 -0.1314 -0.0694
  994MOL0    Cl34099   1.710   3.741   0.998  0.4498  0.0164  0.5413
  994MOL0     C34100   1.947   2.890   0.269  1.0605 -0.2865  0.2942
  994MOL0     C34101   2.025   2.802   0.190  0.7049  0.4236  1.0237
  994MOL0     O34102   2.351   2.852  -0.081  0.0016 -0.1947  0.2589
  994MOL0     C34103   2.265   2.498  -0.098  0.7044  0.1295 -0.8690
  994MOL0     C34104   2.301   2.368  -0.152  0.0755  0.1408 -0.0767
  994MOL0     N34105   2.390   1.876  -0.574 -0.1948 -0.0776 -0.4108
  994MOL0     N34106   2.308   1.883  -0.669  0.1005 -0.0282 -0.0394
  994MOL0     C34107   1.841   1.048  -0.104  0.0735 -0.6285  0.4907
  994MOL0     C34108   1.733   0.992  -0.036 -0.4269  0.0859  0.6171
  994MOL0     C34109   1.419   0.758   0.172 -0.1578  1.3091  0.1843
  994MOL0     C34110   1.450   0.615   0.184 -1.1873 -0.3844  0.7778
  994MOL0     C34111   1.352   0.517   0.201  0.4668 -0.3336  0.8120
  994MOL0     C34112   1.221   0.557   0.217  0.4982 -0.0508 -0.5802
  994MOL0     O34113   1.135   0.455   0.206  0.0203  0.0056 -0.0124
  994MOL0     C34114   0.996   0.484   0.223 -0.2124  0.2169 -0.0236
  994MOL0     C34115   0.933   0.520   0.089 -0.0258 -0.5302  0.4722
  994MOL0     C34116   0.792   0.472   0.081 -0.1437  0.0854  0.3476
  994MOL0     C34117   0.722   0.523  -0.053 -0.4648 -0.0387  0.9851
  994MOL0     C34118   0.787   0.473  -0.174 -0.3966 -0.6690 -0.0998
  994MOL0     C34119   0.815   0.435  -0.285  0.1050 -0.2739 -0.1158
  994MOL0     C34120   1.193   0.696   0.229  0.7170 -0.1530 -0.3830
  994MOL0     C34121   1.287   0.797   0.198 -0.0110 -0.1921  0.1436
  994MOL0     C34122   1.249   0.938   0.165  0.8190  0.5637 -0.0565
  994MOL0     H34123   1.655   0.728  -0.228 -0.6258 -0.7978  0.9166
  994MOL0     H34124   1.816   0.860  -0.376  0.0770  0.2047 -0.1206
  994MOL0     H34125   2.033   1.107  -0.493  0.3348 -0.3491 -0.9098
  994MOL0     H34126   1.871   1.043  -0.470 -1.8259  2.3671  1.5299
  994MOL0     H34127   1.972   1.316  -0.367 -1.3069  0.6321  0.8456
  994MOL0     H34128   1.809   1.264  -0.361  0.1154 -0.0581 -0.0018
  994MOL0     H34129   1.798   1.399  -0.542 -1.4397 -0.8783  3.0567
  994MOL0     H34130   1.837   1.251  -0.624 -1.3800 -0.5926  2.1520
  994MOL0     H34131   2.093   1.392  -0.532  2.2064 -1.7945 -0.0755
  994MOL0     H34132   2.077   1.279  -0.664 -1.5449 -1.5531  1.8033
  994MOL0     H34133   2.094   1.470  -0.785  3.3411 -0.3372  3.1893
  994MOL0     H34134   1.917   1.460  -0.769 -2.2786  2.4206  1.1687
  994MOL0     H34135   1.934   1.623  -0.586  1.3791  0.4998  0.7425
  994MOL0     H34136   2.113   1.607  -0.582  0.6785 -3.1851 -0.5155
  994MOL0     H34137   1.958   1.709  -0.828 -1.0176  1.0771 -0.1673
  994MOL0     H34138   2.137   1.701  -0.818  0.6593 -3.7279  0.5814
  994MOL0     H34139   2.064   1.933  -0.773  1.0789 -0.0806  0.1363
  994MOL0     H34140   1.974   1.883  -0.635  0.0687  1.8070 -0.6165
  994MOL0     H34141   2.122   1.833  -0.402 -0.3379 -0.4484  0.3771
  994MOL0     H34142   2.279   1.811  -0.247 -0.5772  2.2293  1.6794
  994MOL0     H34143   2.456   1.787  -0.306  2.8002  2.1981  2.3995
  994MOL0     H34144   2.323   2.054  -0.251  1.1594  1.8699  2.4157
  994MOL0     H34145   2.432   1.966  -0.146  2.5947 -0.3147 -1.2251
  994MOL0     H34146   2.525   2.033  -0.426  4.1974 -0.9767 -0.4214
  994MOL0     H34147   2.619   1.992  -0.285  1.2861  0.2512 -3.4151
  994MOL0     H34148   2.630   2.232  -0.309 -2.0799  1.8843 -2.5992
  994MOL0     H34149   2.536   2.201  -0.161  0.7224  2.8671  0.2192
  994MOL0     H34150   2.550   2.491  -0.337 -0.1093 -1.5282  0.8488
  994MOL0     H34151   2.487   2.710  -0.238  0.0184  0.7190  0.5651
  994MOL0     H34152   2.248   2.999   0.045  3.0883 -3.2720  2.3016
  994MOL0     H34153   2.118   3.175   0.178 -2.3745  0.5243  1.1601
  994MOL0     H34154   1.740   3.075   0.380 -0.8595  1.8429  1.0158
  994MOL0     H34155   1.882   3.060   0.496 -1.1191  0.1079  0.7013
  994MOL0     H34156   1.886   3.321   0.499 -1.5602  3.3489  0.6909
  994MOL0     H34157   1.740   3.311   0.402 -1.6269  5.6891  5.3643
  994MOL0     H34158   1.609   3.197   0.557  1.1702 -2.6023  0.3304
  994MOL0     H34159   1.747   3.170   0.656 -0.4385 -0.5295 -0.6085
  994MOL0     H34160   1.635   3.445   0.573 -0.0281 -0.8640 -1.5792
  994MOL0     H34161   1.768   3.435   0.679  0.1260  0.5686 -0.6329
  994MOL0     H34162   1.600   3.280   0.831 -2.7734 -0.2321 -0.0281
  994MOL0     H34163   1.477   3.371   0.739 -0.4566  0.7367  1.6040
  994MOL0     H34164   1.537   3.480   0.955 -1.0944 -0.6367 -0.6688
  994MOL0     H34165   1.709   3.491   0.876  0.2811  1.3944 -3.3763
  994MOL0     H34166   1.456   3.632   0.761  0.9652  0.5775 -2.7010
  994MOL0     H34167   1.619   3.650   0.714  1.5090 -0.5811  1.5332
  994MOL0     H34168   1.536   3.841   0.862 -1.4208 -0.8110 -1.1741
  994MOL0     H34169   1.478   3.718   0.968  1.4180 -2.4052  1.1234
  994MOL0     H34170   1.865   2.844   0.323  1.6150 -1.5349  0.0932
  994MOL0     H34171   1.983   2.701   0.181  1.7940 -0.4060  4.1781
  994MOL0     H34172   2.187   2.500  -0.023  0.5780  1.7049 -0.9971
  994MOL0     H34173   2.255   2.276  -0.116 -3.5191  1.8324  0.1099
  994MOL0     H34174   1.887   1.138  -0.064  0.7438  0.1081 -1.7695
  994MOL0     H34175   1.710   1.051   0.051 -2.3078 -0.5014  0.5788
  994MOL0     H34176   1.543   0.577   0.143 -1.2617  1.9203 -1.8541
  994MOL0     H34177   1.383   0.419   0.168  0.6801 -0.2636  0.8012
  994MOL0     H34178   0.980   0.557   0.303  1.1503 -1.4697  1.9028
  994MOL0     H34179   0.952   0.389   0.253  1.5633 -0.5595  0.2708
  994MOL0     H34180   0.988   0.476   0.005  1.6088  0.6109  0.8756
  994MOL0     H34181   0.943   0.628   0.072  0.3479 -0.6792 -0.3041
  994MOL0     H34182   0.746   0.522   0.166  0.4155  1.3878 -0.0952
  994MOL0     H34183   0.783   0.364   0.099  0.0453 -0.0370 -0.2476
  994MOL0     H34184   0.619   0.487  -0.040 -0.2276  0.0013  3.6115
  994MOL0     H34185   0.712   0.632  -0.052  0.8850  0.2088 -2.0454
  994MOL0     H34186   0.841   0.407  -0.384  3.6504 -0.5395  0.7801
  994MOL0     H34187   1.091   0.733   0.241  1.3110  1.1952  0.8168
  994MOL0     H34188   1.282   0.956   0.062  0.8782  1.1094  0.0529
  994MOL0     H34189   1.141   0.950   0.177  0.1155 -3.0120 -1.6078
  994MOL0     H34190   1.292   1.001   0.244  0.2497 -1.9934  2.4382
  995MOL0     O34191   3.727   5.588   0.895 -0.3702 -0.2364 -1.0606
  995MOL0     C34192   3.636   5.552   0.820  0.7947  1.1721  0.1839
  995MOL0     O34193   3.537   5.457   0.857  0.0471 -0.0393  0.0485
  995MOL0     C34194   3.543   5.423   0.988 -0.2517  0.2201  0.3421
  995MOL0     C34195   3.552   5.290   1.019 -0.3038  0.9022 -0.2058
  995MOL0     C34196   3.569   5.244   1.153 -0.0105  0.1727 -0.2265
  995MOL0     C34197   3.579   5.334   1.261 -1.2193  0.1143  0.5313
  995MOL0     O34198   3.612   5.296   1.390 -0.0030  0.2822 -0.0541
  995MOL0     C34199   3.599   5.157   1.429  0.3461 -0.4996 -0.5821
  995MOL0     C34200   3.634   5.148   1.586 -0.4413  0.6148 -0.0624
  995MOL0     C34201   3.615   5.009   1.646 -0.3216 -0.3904 -0.2136
  995MOL0     C34202   3.708   4.916   1.576  0.9979  0.3115 -0.0592
  995MOL0     C34203   3.852   4.924   1.610 -0.8212 -0.3531  0.9014
  995MOL0     C34204   3.922   4.815   1.525 -0.6654 -0.5715  0.4828
  995MOL0     C34205   4.072   4.809   1.560  0.1353  0.5864 -0.9483
  995MOL0     C34206   4.162   4.909   1.492 -0.7535 -0.0144  0.2566
  995MOL0     N34207   4.214   4.861   1.358  0.4315  0.0111  0.5079
  995MOL0     C34208   4.238   4.948   1.247  0.2583 -0.6818 -0.8044
  995MOL0     C34209   4.261   4.872   1.141  0.4077  0.4550 -0.7994
  995MOL0     C34210   4.278   4.909   1.001 -0.0077 -0.6187 -0.2810
  995MOL0     C34211   4.409   4.978   0.954  0.0431 -0.0989 -1.2343
  995MOL0     C34212   4.408   5.031   0.809  0.0786 -0.6647  0.0876
  995MOL0     C34213   4.522   4.978   0.723 -0.8438 -1.0162 -0.2318
  995MOL0     O34214   4.498   5.035   0.593  0.2538 -0.8768 -1.0570
  995MOL0     C34215   4.556   4.973   0.482 -0.0196 -0.1719 -0.5527
  995MOL0     C34216   4.680   4.907   0.486  0.1190 -0.6778 -0.1347
  995MOL0     C34217   4.739   4.854   0.365  0.2904 -0.3425  0.2720
  995MOL0     C34218   4.681   4.875   0.244 -0.1505  0.0654  0.7744
  995MOL0     C34219   4.740   4.816   0.118  0.2458 -0.3284 -0.5418
  995MOL0     O34220   4.847   4.734   0.135  0.4670 -0.2429  0.9252
  995MOL0     C34221   4.916   4.694   0.027  0.3290 -0.1869  1.5517
  995MOL0     C34222   4.866   4.658  -0.100 -1.3851  0.0372  0.0805
  995MOL0     C34223   4.953   4.627  -0.203 -0.3719 -0.1104 -0.7353
  995MOL0     C34224   5.090   4.634  -0.197  0.2143  0.6447 -0.7262
  995MOL0     O34225   5.153   4.605  -0.315 -0.1343  1.4748 -0.8366
  995MOL0     C34226   5.258   4.696  -0.338 -0.6049 -0.6513 -0.1222
  995MOL0     C34227   5.211   4.840  -0.352 -0.3496 -0.7767 -0.2605
  995MOL0     C34228   5.166   4.946  -0.252  0.1195 -1.1725  0.2389
  995MOL0     C34229   5.250   4.986  -0.132 -0.3874 -1.0339  0.4244
  995MOL0     C34230   5.201   5.108  -0.048 -0.7795 -0.2903 -0.0144
  995MOL0     C34231   5.064   5.091   0.010  0.2829 -0.1053  0.2591
  995MOL0     C34232   5.025   5.216   0.106 -0.1350  0.3129 -0.4565
  995MOL0     C34233   4.892   5.193   0.177 -0.6872 -0.6785 -0.7701
  995MOL0    Cl34234   4.742   5.200   0.083 -0.0931  0.4300 -0.0015
  995MOL0     C34235   5.145   4.661  -0.068 -0.5886 -0.1292 -0.8607
  995MOL0     C34236   5.055   4.683   0.038 -0.3744  0.4508 -1.1130
  995MOL0     O34237   4.682   4.843   0.014 -0.2430 -0.1810  0.4296
  995MOL0     C34238   4.560   4.941   0.234  0.2251 -0.1831 -0.4553
  995MOL0     C34239   4.496   4.986   0.358 -0.0567  0.1973  0.6578
  995MOL0     N34240   4.268   4.736   1.186  0.8620  0.8008  0.1022
  995MOL0     N34241   4.245   4.740   1.319  0.1826  0.1435 -0.2884
  995MOL0     C34242   3.548   5.466   1.236  0.1717 -0.5873  0.8806
  995MOL0     C34243   3.531   5.510   1.097 -0.2871 -0.0347  0.0479
  995MOL0     C34244   3.612   5.621   0.688  0.5244 -0.0641 -0.4610
  995MOL0     C34245   3.481   5.648   0.662 -0.1365  0.1721 -0.0032
  995MOL0     C34246   3.444   5.696   0.542  0.5432 -0.0731 -0.6417
  995MOL0     C34247   3.549   5.747   0.454 -0.3302  0.0979  0.6475
  995MOL0     O34248   3.526   5.822   0.340  0.3024  0.0890 -0.2419
  995MOL0     C34249   3.447   5.934   0.354 -0.6812  0.3872 -0.6334
  995MOL0     C34250   3.454   6.037   0.248  1.0138  0.2536  1.0311
  995MOL0     C34251   3.585   6.114   0.258 -0.7278 -0.3543 -0.3838
  995MOL0     C34252   3.582   6.257   0.213 -0.3930  0.6513  0.3709
  995MOL0     C34253   3.697   6.344   0.257  0.6451  0.1975 -0.0190
  995MOL0     C34254   3.798   6.413   0.285  0.8904  0.6060  0.1435
  995MOL0     C34255   3.682   5.711   0.477  0.7629 -0.4006 -0.4209
  995MOL0     C34256   3.713   5.647   0.596 -0.3461  0.0428 -0.0567
  995MOL0     C34257   3.857   5.630   0.618  0.6028  0.4911  0.4068
  995MOL0     H34258   3.561   5.217   0.939  2.6026 -0.5314  1.2555
  995MOL0     H34259   3.569   5.136   1.166  1.9107 -0.1570 -2.3946
  995MOL0     H34260   3.513   5.093   1.409  0.1264  0.0071 -1.3014
  995MOL0     H34261   3.682   5.109   1.377  3.5947  4.8567 -1.1186
  995MOL0     H34262   3.568   5.205   1.652  1.9337 -1.7162  4.8611
  995MOL0     H34263   3.737   5.180   1.604 -1.2452  2.8423  0.8817
  995MOL0     H34264   3.510   4.981   1.637 -0.0694 -0.6659 -3.4255
  995MOL0     H34265   3.644   5.018   1.751 -1.1692  2.4592 -0.1455
  995MOL0     H34266   3.671   4.814   1.584  0.0274  0.6710  0.1123
  995MOL0     H34267   3.688   4.932   1.470 -0.5743 -0.5195  0.0871
  995MOL0     H34268   3.889   5.023   1.582  0.9109 -1.7054 -2.1497
  995MOL0     H34269   3.867   4.906   1.717  0.5916 -2.5774  0.3863
  995MOL0     H34270   3.884   4.714   1.541 -0.0597 -0.4310  3.3831
  995MOL0     H34271   3.909   4.832   1.417  1.9068 -1.3117 -0.0050
  995MOL0     H34272   4.104   4.706   1.544  0.5640 -0.0330  2.9902
  995MOL0     H34273   4.086   4.814   1.668 -0.4953  1.9494 -0.9086
  995MOL0     H34274   4.117   5.008   1.484  0.7987  0.6680 -0.3256
  995MOL0     H34275   4.250   4.921   1.556 -0.4842 -3.1686  0.6688
  995MOL0     H34276   4.234   5.056   1.247 -1.3291 -0.7056  0.2498
  995MOL0     H34277   4.266   4.815   0.946 -2.1950 -0.3152 -0.4242
  995MOL0     H34278   4.197   4.972   0.961  1.6054  0.2305 -2.4379
  995MOL0     H34279   4.437   5.060   1.021 -1.0868  1.5570 -2.7150
  995MOL0     H34280   4.487   4.901   0.948 -0.1284 -0.1512 -3.3707
  995MOL0     H34281   4.411   5.141   0.801  1.2361 -0.6505  0.5278
  995MOL0     H34282   4.306   5.015   0.773  0.0788  2.9007 -2.0072
  995MOL0     H34283   4.519   4.870   0.706  2.1581 -0.9575 -1.7359
  995MOL0     H34284   4.617   4.998   0.774 -2.2175 -0.1520  2.1873
  995MOL0     H34285   4.747   4.898   0.571  0.7544  0.6076 -0.4849
  995MOL0     H34286   4.831   4.799   0.380  1.7197  1.5697 -0.9380
  995MOL0     H34287   4.764   4.658  -0.136 -0.9535 -0.5531 -1.1860
  995MOL0     H34288   4.907   4.588  -0.294 -1.5455  0.0382 -0.2324
  995MOL0     H34289   5.344   4.676  -0.274 -0.6525  1.6173  0.7625
  995MOL0     H34290   5.290   4.675  -0.440 -0.9246 -2.2186  0.0840
  995MOL0     H34291   5.296   4.892  -0.398  1.0081  0.4596  3.2944
  995MOL0     H34292   5.121   4.836  -0.414 -2.0012  4.6901  1.2535
  995MOL0     H34293   5.147   5.029  -0.320 -0.5907 -3.6240 -2.7626
  995MOL0     H34294   5.069   4.915  -0.211 -0.8649 -1.5845 -2.2307
  995MOL0     H34295   5.345   5.011  -0.180  1.5375 -2.6253  3.1389
  995MOL0     H34296   5.268   4.907  -0.059 -1.5739 -1.3819  0.3645
  995MOL0     H34297   5.202   5.205  -0.099  1.9781  2.4456  4.5772
  995MOL0     H34298   5.274   5.118   0.033  1.6469 -0.5253 -2.0371
  995MOL0     H34299   4.988   5.095  -0.067  0.6060 -1.7208 -0.1735
  995MOL0     H34300   5.049   4.999   0.068 -3.3682 -0.8426 -1.5925
  995MOL0     H34301   5.021   5.306   0.043 -0.1675 -0.8652 -2.2008
  995MOL0     H34302   5.104   5.241   0.177  1.3907 -1.0271 -1.6100
  995MOL0     H34303   4.902   5.096   0.227 -1.7896 -2.6501 -4.0852
  995MOL0     H34304   4.895   5.268   0.256  0.5943 -3.1157  1.6894
  995MOL0     H34305   5.253   4.668  -0.060 -0.7976  3.8436  0.5686
  995MOL0     H34306   5.098   4.701   0.136 -0.7916 -1.4064 -0.5471
  995MOL0     H34307   4.509   4.963   0.141 -2.0241 -3.2711 -0.1095
  995MOL0     H34308   4.406   5.043   0.335 -0.3271 -0.3111  0.4342
  995MOL0     H34309   3.540   5.535   1.320 -1.0253  3.7197 -2.4516
  995MOL0     H34310   3.525   5.615   1.069  1.0502 -0.8786 -4.1260
  995MOL0     H34311   3.406   5.612   0.731  0.0029 -0.6728 -0.2759
  995MOL0     H34312   3.340   5.711   0.515  0.7889 -0.9682 -2.1859
  995MOL0     H34313   3.477   5.980   0.449 -0.8352  0.2489 -0.5155
  995MOL0     H34314   3.344   5.898   0.364 -0.3096 -0.0929  2.5004
  995MOL0     H34315   3.361   6.095   0.253  0.3137 -0.8311  1.1804
  995MOL0     H34316   3.454   5.983   0.153 -2.2839 -0.2723  1.1819
  995MOL0     H34317   3.667   6.058   0.214 -1.9903 -2.2843 -0.3942
  995MOL0     H34318   3.601   6.113   0.366 -0.8748 -2.6466 -0.3391
  995MOL0     H34319   3.580   6.237   0.105 -1.0328  2.0505  0.1013
  995MOL0     H34320   3.489   6.308   0.237  0.2246  1.1040  1.9008
  995MOL0     H34321   3.878   6.478   0.311  0.6908  0.6872  0.5550
  995MOL0     H34322   3.762   5.736   0.409  1.3126  1.3764  0.7935
  995MOL0     H34323   3.878   5.551   0.546  1.9860  1.3904 -0.2220
  995MOL0     H34324   3.907   5.722   0.587  0.9488  0.4991  0.9743
  995MOL0     H34325   3.887   5.611   0.721  1.3083 -0.4727  0.0339
  996MOL0     O34326   5.262   6.123   8.530 -0.0937  0.0604 -0.1779
  996MOL0     C34327   5.199   6.149   8.436  0.9140  0.6108  0.2317
  996MOL0     O34328   5.061   6.160   8.436  0.4671 -0.1578 -0.3398
  996MOL0     C34329   4.979   6.142   8.541 -0.4951  1.2505 -0.3199
  996MOL0     C34330   4.988   6.031   8.624 -0.2039  0.0567  0.5155
  996MOL0     C34331   4.894   6.006   8.736 -0.5026 -0.5401 -0.3887
  996MOL0     C34332   4.795   6.104   8.753 -0.5224  1.3220 -0.4531
  996MOL0     O34333   4.694   6.094   8.846 -0.1953  0.1721  0.0919
  996MOL0     C34334   4.664   5.970   8.906 -0.2551  0.0622 -0.8173
  996MOL0     C34335   4.521   5.935   8.910  0.0456  0.1391 -0.7033
  996MOL0     C34336   4.453   6.029   9.016  0.5181 -0.2950 -0.0581
  996MOL0     C34337   4.313   5.971   9.037 -0.6703 -0.4554 -0.2667
  996MOL0     C34338   4.214   6.068   9.112 -0.1899 -0.2772  0.4796
  996MOL0     C34339   4.073   5.999   9.117 -1.0334  0.0847  0.0527
  996MOL0     C34340   3.976   6.108   9.162 -0.5338 -0.3027  0.6481
  996MOL0     C34341   3.853   6.041   9.224  0.6102 -0.3892  0.1606
  996MOL0     N34342   3.779   6.140   9.292 -0.4615  0.3667  0.1688
  996MOL0     C34343   3.704   6.246   9.235 -0.2749 -0.4176 -0.0329
  996MOL0     C34344   3.663   6.323   9.349  0.8055  0.3185  0.1422
  996MOL0     C34345   3.582   6.448   9.361  0.2673  0.0402  0.4540
  996MOL0     C34346   3.659   6.582   9.382  0.0440  0.2893  0.8521
  996MOL0     C34347   3.670   6.620   9.528 -0.6764  0.1011  0.3915
  996MOL0     C34348   3.751   6.746   9.533 -0.0977  0.0007  0.6040
  996MOL0     O34349   3.668   6.864   9.507 -0.1958  0.0036 -0.0942
  996MOL0     C34350   3.738   6.992   9.489  0.1465  0.4777 -0.0158
  996MOL0     C34351   3.842   7.043   9.571 -1.3705  0.1383  0.1810
  996MOL0     C34352   3.893   7.170   9.547 -0.0237 -0.3448 -0.6528
  996MOL0     C34353   3.857   7.244   9.435  0.3889  0.1453  0.5266
  996MOL0     C34354   3.924   7.375   9.406  0.3631  0.1766 -0.1896
  996MOL0     O34355   3.860   7.454   9.315  0.6444  0.4897 -0.2245
  996MOL0     C34356   3.920   7.574   9.267  0.9188  0.0296 -0.1758
  996MOL0     C34357   4.055   7.569   9.226  0.5294  0.2270 -0.9915
  996MOL0     C34358   4.114   7.676   9.173 -0.3340 -0.5722  0.4782
  996MOL0     C34359   4.050   7.793   9.153  0.4761 -0.7062 -0.1208
  996MOL0     O34360   4.130   7.898   9.112  0.0088 -1.0472 -0.1893
  996MOL0     C34361   4.092   8.035   9.121  0.6792  0.1838  0.6336
  996MOL0     C34362   4.217   8.126   9.113 -0.3211 -0.5723  0.9996
  996MOL0     C34363   4.343   8.080   9.195 -0.2764 -0.3185 -0.2741
  996MOL0     C34364   4.464   8.178   9.182  0.0901 -0.5977  0.9158
  996MOL0     C34365   4.590   8.124   9.249 -0.0973 -0.6217 -0.5267
  996MOL0     C34366   4.591   8.159   9.400 -0.2211 -0.0218  0.0232
  996MOL0     C34367   4.631   8.310   9.425 -0.8495 -0.1671 -0.1548
  996MOL0     C34368   4.706   8.325   9.554 -0.1283  0.0032 -0.6003
  996MOL0    Cl34369   4.873   8.248   9.533 -0.5778 -0.3704  0.0863
  996MOL0     C34370   3.913   7.797   9.169 -0.6490 -0.4374 -0.1070
  996MOL0     C34371   3.846   7.686   9.221 -0.6191  0.5049 -1.3176
  996MOL0     O34372   4.018   7.416   9.477 -0.5037  0.0358 -0.3231
  996MOL0     C34373   3.758   7.192   9.355 -0.4612  0.5590 -0.0821
  996MOL0     C34374   3.696   7.073   9.388 -0.5785  0.4460  0.8779
  996MOL0     N34375   3.705   6.248   9.464 -0.1487  0.6737  0.4097
  996MOL0     N34376   3.777   6.147   9.428  0.1224 -0.2700  0.3958
  996MOL0     C34377   4.790   6.209   8.677  0.0488 -0.4838  0.6488
  996MOL0     C34378   4.872   6.228   8.572  0.0434 -0.0439 -0.7377
  996MOL0     C34379   5.268   6.174   8.298  0.6234  0.5700  1.7950
  996MOL0     C34380   5.397   6.127   8.278 -0.1070  0.1197 -0.3663
  996MOL0     C34381   5.479   6.167   8.175  0.0972 -0.8159  0.2135
  996MOL0     C34382   5.421   6.237   8.071  0.9915  0.6103  0.6766
  996MOL0     O34383   5.499   6.269   7.960  0.1659 -0.2077  0.0263
  996MOL0     C34384   5.445   6.343   7.847  0.0139 -0.7424 -0.4350
  996MOL0     C34385   5.555   6.360   7.741 -0.2026  0.0179 -0.0950
  996MOL0     C34386   5.622   6.225   7.682  0.0955 -0.2497  0.2906
  996MOL0     C34387   5.526   6.165   7.584 -1.3585 -0.8151  0.2819
  996MOL0     C34388   5.559   6.229   7.457 -0.8154  1.2611  0.5062
  996MOL0     C34389   5.588   6.270   7.350 -0.6584  0.5123  0.6112
  996MOL0     C34390   5.281   6.262   8.074 -0.4763 -0.2519 -0.1047
  996MOL0     C34391   5.200   6.223   8.179  0.4878 -0.5763 -0.7723
  996MOL0     C34392   5.060   6.267   8.172  0.4491  0.7026  0.0165
  996MOL0     H34393   5.063   5.959   8.593  0.0108  1.5027 -2.7961
  996MOL0     H34394   4.906   5.921   8.803 -0.1434 -0.8131 -0.7999
  996MOL0     H34395   4.707   5.875   8.874  0.0019 -0.3028  0.5457
  996MOL0     H34396   4.705   5.972   9.007 -1.9779 -3.7461  0.1383
  996MOL0     H34397   4.508   5.827   8.925 -1.3968  0.6395  2.4957
  996MOL0     H34398   4.478   5.957   8.813  0.7381 -2.1222 -1.5926
  996MOL0     H34399   4.454   6.136   8.995 -0.1967  0.2340  2.2437
  996MOL0     H34400   4.514   6.022   9.107  1.4043 -1.4186 -0.7058
  996MOL0     H34401   4.271   5.960   8.937  0.2703 -1.3152 -0.5818
  996MOL0     H34402   4.317   5.878   9.094 -1.7650 -0.0485  0.5197
  996MOL0     H34403   4.239   6.089   9.216 -1.5582  0.3142  0.7080
  996MOL0     H34404   4.221   6.163   9.060  0.5443 -0.2621  0.5982
  996MOL0     H34405   4.046   5.949   9.023  0.5371 -1.9193  0.6041
  996MOL0     H34406   4.078   5.918   9.189 -2.6735  2.0099  2.4677
  996MOL0     H34407   3.947   6.186   9.091 -0.3221 -0.2763  0.5891
  996MOL0     H34408   4.026   6.156   9.247  1.9634 -0.1099 -0.8304
  996MOL0     H34409   3.782   5.995   9.155 -1.5241  1.3598  1.0891
  996MOL0     H34410   3.893   5.968   9.295  1.0255  0.2408  0.5858
  996MOL0     H34411   3.689   6.274   9.132 -1.6291 -0.5796  0.1119
  996MOL0     H34412   3.539   6.450   9.261  2.0092  0.0980 -0.3153
  996MOL0     H34413   3.506   6.433   9.439  0.3853 -1.8384  0.2630
  996MOL0     H34414   3.755   6.565   9.333  0.1608  1.3862  0.6852
  996MOL0     H34415   3.597   6.662   9.340  2.2517  1.0365 -1.2225
  996MOL0     H34416   3.726   6.542   9.580 -1.8616 -0.2224  1.2351
  996MOL0     H34417   3.569   6.637   9.566 -0.6853  1.5198 -0.1846
  996MOL0     H34418   3.836   6.745   9.466 -1.7577 -2.0131 -1.6566
  996MOL0     H34419   3.790   6.774   9.632 -0.8750 -1.1884  1.2743
  996MOL0     H34420   3.877   6.992   9.660 -2.2998  1.9751  1.6684
  996MOL0     H34421   3.979   7.192   9.610 -0.8307 -0.2080  0.4343
  996MOL0     H34422   4.117   7.485   9.255 -1.0338 -1.6446 -2.7773
  996MOL0     H34423   4.218   7.667   9.145 -1.3648 -2.5429 -3.4210
  996MOL0     H34424   4.035   8.061   9.031  1.0366 -1.4339 -0.0924
  996MOL0     H34425   4.037   8.053   9.213  1.1423 -1.5357  1.2840
  996MOL0     H34426   4.255   8.122   9.010  0.0373 -1.1795  1.1490
  996MOL0     H34427   4.191   8.232   9.121  0.9119 -0.0805 -0.8485
  996MOL0     H34428   4.323   8.071   9.302  1.8641 -2.4092  0.0422
  996MOL0     H34429   4.375   7.984   9.153 -2.2215 -1.1703  0.0864
  996MOL0     H34430   4.446   8.279   9.219 -2.6465  0.2464 -2.2605
  996MOL0     H34431   4.478   8.193   9.075  0.5811  4.5669  1.4893
  996MOL0     H34432   4.677   8.173   9.204  0.0998 -0.0477  0.4281
  996MOL0     H34433   4.606   8.016   9.242 -0.9875 -0.6388 -3.4964
  996MOL0     H34434   4.489   8.149   9.438 -1.5424  2.0248 -2.6412
  996MOL0     H34435   4.649   8.098   9.470  1.7297  2.5124  0.7746
  996MOL0     H34436   4.547   8.375   9.399 -0.5966  0.4020  0.4102
  996MOL0     H34437   4.712   8.337   9.357  1.1631  0.5190  2.3333
  996MOL0     H34438   4.706   8.431   9.580 -0.9742 -0.7575  3.2164
  996MOL0     H34439   4.658   8.262   9.630  0.4997 -0.0776 -0.2608
  996MOL0     H34440   3.846   7.883   9.158  1.6503  1.1191 -3.3843
  996MOL0     H34441   3.741   7.699   9.245  0.0263  3.3661  0.4532
  996MOL0     H34442   3.739   7.243   9.260 -1.5248  0.4772  0.0677
  996MOL0     H34443   3.613   7.040   9.327  1.7643  1.8397 -3.5402
  996MOL0     H34444   4.716   6.288   8.671  3.7753  3.2348 -4.5578
  996MOL0     H34445   4.857   6.320   8.517 -2.2153  0.0407 -0.0674
  996MOL0     H34446   5.426   6.087   8.374 -3.5671  0.8437  1.1524
  996MOL0     H34447   5.581   6.133   8.158  1.6824  3.0934  0.9588
  996MOL0     H34448   5.412   6.445   7.870 -3.0320 -1.6813 -0.2126
  996MOL0     H34449   5.361   6.289   7.802 -1.1810 -0.0154  0.8388
  996MOL0     H34450   5.631   6.425   7.785  0.1140  0.0122 -0.6277
  996MOL0     H34451   5.514   6.419   7.659 -0.8395 -1.3975 -0.8203
  996MOL0     H34452   5.649   6.148   7.756  1.9071  0.2286  0.1782
  996MOL0     H34453   5.717   6.250   7.634  2.1277 -1.0780  3.5344
  996MOL0     H34454   5.552   6.059   7.584  2.5622 -0.0859 -2.4945
  996MOL0     H34455   5.421   6.174   7.614 -1.1102  0.1199  0.9324
  996MOL0     H34456   5.620   6.320   7.261  0.4573  5.0381  3.2616
  996MOL0     H34457   5.244   6.323   7.992  1.5510  2.0085  0.5361
  996MOL0     H34458   5.044   6.349   8.243  2.6756  0.1883  1.1762
  996MOL0     H34459   5.025   6.301   8.074  2.3508  1.0631 -0.5717
  996MOL0     H34460   5.008   6.179   8.212  0.6496  1.0756  1.1449
  997MOL0     O34461   3.752  10.462   0.563 -0.4242  0.7092  0.3631
  997MOL0     C34462   3.647  10.395   0.563 -0.3247 -0.3303 -0.1087
  997MOL0     O34463   3.571  10.377   0.665 -0.4373  0.2222 -0.3795
  997MOL0     C34464   3.588  10.445   0.779  0.6163 -0.5391  0.2403
  997MOL0     C34465   3.492  10.536   0.826  0.4239  0.0812 -0.4802
  997MOL0     C34466   3.515  10.601   0.947 -1.5716 -0.2385 -0.2450
  997MOL0     C34467   3.645  10.594   1.011 -0.0547 -0.7668 -0.6670
  997MOL0     O34468   3.687  10.651   1.129 -0.4133  0.3120  0.6159
  997MOL0     C34469   3.596  10.736   1.201 -0.1781 -0.0455  0.0742
  997MOL0     C34470   3.657  10.772   1.333  0.9433 -0.5561 -0.1915
  997MOL0     C34471   3.580  10.898   1.392 -0.3114 -0.6479 -0.8749
  997MOL0     C34472   3.666  11.023   1.417 -0.1603 -0.0649 -0.5838
  997MOL0     C34473   3.591  11.121   1.510  0.4291 -0.6258  0.1607
  997MOL0     C34474   3.665  11.250   1.533  0.3706 -0.4935 -0.2610
  997MOL0     C34475   3.709  11.279   1.682  1.6175 -0.4028 -0.1134
  997MOL0     C34476   3.719  11.428   1.687 -0.1678  0.3106  1.0368
  997MOL0     N34477   3.796  11.479   1.810  0.1811 -0.6908  0.3135
  997MOL0     C34478   3.813  11.418   1.932 -0.3315 -0.7132  0.4421
  997MOL0     C34479   3.883  11.515   2.001 -0.5341  0.4541  0.5856
  997MOL0     C34480   3.924  11.483   2.141  0.0968 -0.2475 -0.4069
  997MOL0     C34481   4.034  11.373   2.137  0.7442  0.4404 -0.0466
  997MOL0     C34482   4.067  11.325   2.283 -0.1421 -0.1721  0.1513
  997MOL0     C34483   4.136  11.425   2.381  0.5164 -0.0012  0.6440
  997MOL0     O34484   4.256  11.475   2.322 -0.1465  0.0647  0.4771
  997MOL0     C34485   4.363  11.513   2.404  0.8235 -0.3395  0.4180
  997MOL0     C34486   4.486  11.509   2.343  0.3705 -0.0528 -0.9930
  997MOL0     C34487   4.602  11.544   2.425  0.2707 -0.2407 -0.1096
  997MOL0     C34488   4.597  11.568   2.567 -0.1348 -0.0664  0.0172
  997MOL0     C34489   4.729  11.593   2.640  0.2986  0.2882  0.4777
  997MOL0     O34490   4.733  11.673   2.744  0.1622 -0.5174 -0.5351
  997MOL0     C34491   4.860  11.706   2.795  0.1642  0.1340  1.1669
  997MOL0     C34492   4.958  11.757   2.718 -0.0362  0.1625 -0.2061
  997MOL0     C34493   5.092  11.778   2.764  0.2639  0.6032  0.3954
  997MOL0     C34494   5.127  11.740   2.892 -0.2871 -0.3289  0.2849
  997MOL0     O34495   5.249  11.769   2.931  0.1249  0.3458 -0.1055
  997MOL0     C34496   5.259  11.806   3.066 -0.4051 -0.1134 -0.0458
  997MOL0     C34497   5.383  11.890   3.094  0.5261  0.6147  0.9020
  997MOL0     C34498   5.511  11.818   3.049  0.0586  0.7988  0.4387
  997MOL0     C34499   5.630  11.907   3.085 -0.0069  0.5315 -0.1554
  997MOL0     C34500   5.762  11.827   3.093  0.6572  0.7222 -0.2340
  997MOL0     C34501   5.883  11.908   3.147  0.5594  1.4064  0.9324
  997MOL0     C34502   6.006  11.821   3.148 -0.0684 -0.9949 -0.4405
  997MOL0     C34503   6.010  11.724   3.273  1.0264 -0.4044  0.7782
  997MOL0    Cl34504   6.059  11.813   3.425  0.2930 -0.0865 -0.5027
  997MOL0     C34505   5.029  11.678   2.967  0.3728 -0.2681 -0.3695
  997MOL0     C34506   4.896  11.668   2.922 -0.3079 -0.5436 -0.0518
  997MOL0     O34507   4.823  11.554   2.570 -0.0393  0.3718  0.2345
  997MOL0     C34508   4.472  11.563   2.617  0.7421  0.6048  0.3902
  997MOL0     C34509   4.353  11.544   2.542 -0.5748 -0.6286  0.5294
  997MOL0     N34510   3.890  11.629   1.927 -0.2846  0.8488  0.8419
  997MOL0     N34511   3.842  11.604   1.813 -0.1629 -0.2110 -0.8886
  997MOL0     C34512   3.738  10.507   0.964 -0.2988  0.1807 -0.7523
  997MOL0     C34513   3.707  10.426   0.855 -0.8989 -0.6293  0.2140
  997MOL0     C34514   3.595  10.338   0.442  0.2192  0.1556 -0.1264
  997MOL0     C34515   3.452  10.326   0.434  0.5118 -0.5567  0.7842
  997MOL0     C34516   3.389  10.278   0.319 -0.8660 -1.0631  0.4685
  997MOL0     C34517   3.471  10.247   0.213 -0.0043  0.0983 -0.1014
  997MOL0     O34518   3.405  10.198   0.104  0.4866 -1.0711 -0.1041
  997MOL0     C34519   3.458  10.090   0.034 -0.6780  0.5700 -0.2486
  997MOL0     C34520   3.395   9.947   0.074  0.7678 -0.6122  1.2899
  997MOL0     C34521   3.463   9.833  -0.009 -0.8785  0.4328  0.3657
  997MOL0     C34522   3.482   9.710   0.075 -0.3884 -0.3746  0.0855
  997MOL0     C34523   3.533   9.603  -0.002  0.7750  0.5582  0.6147
  997MOL0     C34524   3.592   9.508  -0.052  0.6884  0.9713 -0.3258
  997MOL0     C34525   3.611  10.261   0.211 -0.2492  0.8991  0.8744
  997MOL0     C34526   3.673  10.300   0.322  0.4076 -0.7325  0.7115
  997MOL0     C34527   3.819  10.333   0.318 -0.2038  1.3044  0.0304
  997MOL0     H34528   3.393  10.547   0.782  0.1025 -0.7314  0.0180
  997MOL0     H34529   3.444  10.658   1.006 -0.5962 -0.5586  1.2764
  997MOL0     H34530   3.583  10.830   1.147  0.1167 -0.7915 -1.3215
  997MOL0     H34531   3.496  10.691   1.206 -1.7339  3.1550 -0.0181
  997MOL0     H34532   3.763  10.786   1.311  1.2053 -1.3006  0.5271
  997MOL0     H34533   3.639  10.702   1.415 -1.1786  2.2159  1.9391
  997MOL0     H34534   3.525  10.865   1.480 -1.1972 -1.2269 -1.6296
  997MOL0     H34535   3.507  10.941   1.323  1.6352  4.2715 -0.3093
  997MOL0     H34536   3.765  11.001   1.458 -0.6108  1.4122  1.4229
  997MOL0     H34537   3.693  11.070   1.322  5.8357  0.7686  1.1307
  997MOL0     H34538   3.497  11.141   1.459 -0.1519  0.4083  1.5849
  997MOL0     H34539   3.564  11.067   1.601 -0.8928 -1.3265 -0.6217
  997MOL0     H34540   3.754  11.253   1.471 -0.7717  1.9762 -1.9448
  997MOL0     H34541   3.607  11.334   1.493  4.7183  2.0663 -1.8027
  997MOL0     H34542   3.798  11.221   1.708  0.4430 -3.5164 -2.3544
  997MOL0     H34543   3.626  11.268   1.751  2.4346  3.0301  1.6544
  997MOL0     H34544   3.770  11.460   1.596  2.9619 -2.7666  1.5133
  997MOL0     H34545   3.623  11.481   1.691 -0.7714 -0.7001  0.5372
  997MOL0     H34546   3.753  11.336   1.971 -0.7443  0.8434  3.3708
  997MOL0     H34547   3.949  11.573   2.197 -3.3213 -0.7795  2.2826
  997MOL0     H34548   3.834  11.461   2.199 -0.0308  3.4730  1.0699
  997MOL0     H34549   4.009  11.289   2.073 -0.8247 -0.6576  1.8926
  997MOL0     H34550   4.130  11.409   2.098  2.2415 -2.9098  0.2060
  997MOL0     H34551   4.122  11.232   2.272  0.1236 -0.0557  0.4764
  997MOL0     H34552   3.970  11.307   2.330  0.8939 -0.9938  2.0755
  997MOL0     H34553   4.168  11.379   2.475  2.0475  1.5897  0.9536
  997MOL0     H34554   4.070  11.507   2.409  0.4193  0.1606 -0.0388
  997MOL0     H34555   4.479  11.482   2.238 -1.6566 -0.3135 -0.8282
  997MOL0     H34556   4.697  11.554   2.374 -0.3400 -0.9253 -1.4245
  997MOL0     H34557   4.933  11.781   2.615 -1.8550  0.9154  0.3699
  997MOL0     H34558   5.167  11.834   2.708  1.8553  0.3474  2.1716
  997MOL0     H34559   5.177  11.868   3.104  0.0318 -0.4182  1.4787
  997MOL0     H34560   5.260  11.711   3.119 -2.8551 -1.6569 -2.5208
  997MOL0     H34561   5.367  11.992   3.059 -2.3079  0.1056  0.4060
  997MOL0     H34562   5.386  11.916   3.200  1.2303 -0.7358  1.2375
  997MOL0     H34563   5.515  11.727   3.110 -0.0572  0.9875  0.7321
  997MOL0     H34564   5.514  11.792   2.943  1.4094 -0.8604  0.8460
  997MOL0     H34565   5.618  11.955   3.183  1.6124  1.4374 -0.3780
  997MOL0     H34566   5.641  11.983   3.008 -1.3255 -0.2083 -1.1322
  997MOL0     H34567   5.788  11.800   2.990 -1.9712 -0.7021 -0.6131
  997MOL0     H34568   5.757  11.732   3.147  0.7868  0.9698  0.2201
  997MOL0     H34569   5.894  11.987   3.072 -0.7624  0.8919  0.1684
  997MOL0     H34570   5.855  11.948   3.245 -4.5481 -1.2767  0.9296
  997MOL0     H34571   6.091  11.889   3.149 -1.6617  1.4257 -4.1983
  997MOL0     H34572   6.015  11.753   3.062  0.5589 -2.7859  0.9850
  997MOL0     H34573   5.912  11.678   3.287  0.5731  0.4431  0.4842
  997MOL0     H34574   6.077  11.640   3.254 -0.3043 -1.8447  2.1978
  997MOL0     H34575   5.050  11.648   3.070 -1.6233 -0.1899  0.1052
  997MOL0     H34576   4.822  11.627   2.990  0.5350  0.6804  1.6775
  997MOL0     H34577   4.483  11.580   2.724  0.9010  0.6842  0.3607
  997MOL0     H34578   4.252  11.557   2.578 -1.2465 -0.8107 -1.2068
  997MOL0     H34579   3.825  10.496   1.027  0.1191 -1.7983 -1.5894
  997MOL0     H34580   3.780  10.348   0.834  0.2909  0.4611  0.1179
  997MOL0     H34581   3.388  10.333   0.522  2.1579 -3.2714  2.3220
  997MOL0     H34582   3.283  10.253   0.312 -1.8762  2.9072 -1.6201
  997MOL0     H34583   3.565  10.081   0.055 -1.3565  0.1257  3.9049
  997MOL0     H34584   3.461  10.098  -0.075  1.2700 -1.0884 -0.3782
  997MOL0     H34585   3.287   9.954   0.061  0.8943  0.6845  0.7524
  997MOL0     H34586   3.411   9.929   0.181 -1.4928  0.2538  1.8302
  997MOL0     H34587   3.563   9.862  -0.044  0.6410 -1.4200  2.7957
  997MOL0     H34588   3.398   9.809  -0.094  0.5054 -0.4324 -0.5050
  997MOL0     H34589   3.553   9.733   0.154 -1.1843  1.5663  0.2812
  997MOL0     H34590   3.388   9.677   0.120  0.6542 -0.2969  2.4165
  997MOL0     H34591   3.642   9.426  -0.100 -1.9634 -0.4045 -0.9220
  997MOL0     H34592   3.670  10.237   0.123  0.6486  0.1571  1.6525
  997MOL0     H34593   3.867  10.298   0.226 -1.9969 -2.2794  0.2890
  997MOL0     H34594   3.836  10.441   0.314  1.4268  1.0435 -2.4940
  997MOL0     H34595   3.874  10.293   0.404 -0.5432 -0.0415 -0.3527
  998MOL0     O34596   7.170   8.445   3.447  0.7855  0.2311 -1.0100
  998MOL0     C34597   7.281   8.383   3.459  0.3336  0.6294  1.1699
  998MOL0     O34598   7.410   8.439   3.440 -0.2157  0.1532  0.4698
  998MOL0     C34599   7.419   8.573   3.406 -1.1836  0.4330  0.1984
  998MOL0     C34600   7.363   8.629   3.286  0.9413  0.0993 -0.7812
  998MOL0     C34601   7.381   8.769   3.264  0.2715 -0.5603  0.7959
  998MOL0     C34602   7.472   8.847   3.340 -0.5260  0.3251  0.5118
  998MOL0     O34603   7.499   8.973   3.305  0.2407 -0.6082  0.3112
  998MOL0     C34604   7.598   8.996   3.195  0.9101 -0.2295 -0.3348
  998MOL0     C34605   7.722   9.079   3.235 -0.0308  0.1007 -0.2390
  998MOL0     C34606   7.818   8.985   3.321 -0.0881 -1.0301  0.8615
  998MOL0     C34607   7.958   9.050   3.314  0.3632  0.1479  0.2559
  998MOL0     C34608   8.060   8.984   3.407  0.1403  0.5036 -0.0034
  998MOL0     C34609   8.200   9.053   3.416  0.6263  1.1394  0.0635
  998MOL0     C34610   8.263   9.023   3.553  0.1540 -0.2831 -0.0853
  998MOL0     C34611   8.357   8.894   3.536 -0.4448 -0.6100  0.4811
  998MOL0     N34612   8.459   8.897   3.645  0.3480 -0.8079 -0.3559
  998MOL0     C34613   8.569   8.985   3.659  0.9001 -0.0854  0.3089
  998MOL0     C34614   8.621   8.955   3.771  0.4664 -0.5044 -0.2046
  998MOL0     C34615   8.748   9.018   3.836 -0.1375  0.1612 -0.2349
  998MOL0     C34616   8.708   9.147   3.895 -0.9183  0.6597 -0.3112
  998MOL0     C34617   8.831   9.202   3.984  0.3417  0.3215  0.6488
  998MOL0     C34618   8.804   9.335   4.048 -0.5245  0.0193 -0.9220
  998MOL0     O34619   8.921   9.414   4.065  0.3936 -0.0991  0.2500
  998MOL0     C34620   8.897   9.528   4.128  0.6736 -1.0362 -0.4301
  998MOL0     C34621   9.001   9.589   4.199  0.1694  0.0012 -0.0240
  998MOL0     C34622   8.983   9.701   4.280  0.4331  0.0812 -1.0601
  998MOL0     C34623   8.859   9.757   4.291  0.3497  0.1851 -0.5812
  998MOL0     C34624   8.833   9.886   4.368  0.2605  0.1011  0.0362
  998MOL0     O34625   8.944   9.939   4.425  1.0619 -0.2409 -0.1619
  998MOL0     C34626   8.939  10.060   4.487 -0.4707 -0.0761 -0.7871
  998MOL0     C34627   9.047  10.145   4.469 -0.1439  0.1080  0.7616
  998MOL0     C34628   9.037  10.281   4.510 -1.0280 -0.5109 -1.5232
  998MOL0     C34629   8.943  10.317   4.604  0.6374 -0.3804  0.4844
  998MOL0     O34630   8.937  10.449   4.643 -0.4603  0.1369 -0.7277
  998MOL0     C34631   8.815  10.522   4.635 -0.3934 -0.0446  0.5379
  998MOL0     C34632   8.844  10.668   4.657 -0.0959  0.8163 -0.0753
  998MOL0     C34633   8.930  10.684   4.783  0.3184 -1.0415  0.3128
  998MOL0     C34634   8.934  10.835   4.806  0.6508 -0.0892  0.5954
  998MOL0     C34635   9.013  10.890   4.923 -1.1644  0.3636  0.4980
  998MOL0     C34636   9.158  10.853   4.926  0.2212 -0.1889  1.1222
  998MOL0     C34637   9.232  10.905   5.054  0.3257  0.0488  0.1613
  998MOL0     C34638   9.372  10.942   5.034  0.3505 -0.0521  0.6011
  998MOL0    Cl34639   9.381  11.104   4.945 -0.6844 -0.0923  0.6380
  998MOL0     C34640   8.842  10.225   4.642 -0.6199 -0.2570  0.0361
  998MOL0     C34641   8.833  10.095   4.577 -0.2788 -0.8305 -0.8076
  998MOL0     O34642   8.719   9.929   4.369  0.6165 -0.4304  0.5951
  998MOL0     C34643   8.753   9.704   4.215  0.2682  0.0349 -0.1249
  998MOL0     C34644   8.774   9.591   4.141 -0.0627  0.1459 -0.5080
  998MOL0     N34645   8.548   8.856   3.831 -0.4034  0.0398  0.4486
  998MOL0     N34646   8.454   8.820   3.759  0.4486  0.0539 -0.5416
  998MOL0     C34647   7.531   8.791   3.453 -0.6948 -0.4578  0.0502
  998MOL0     C34648   7.510   8.652   3.481  0.2585 -0.2147  0.3813
  998MOL0     C34649   7.281   8.244   3.491  0.4432 -1.0222 -0.4680
  998MOL0     C34650   7.392   8.165   3.453  0.4876 -0.8491  0.0652
  998MOL0     C34651   7.401   8.029   3.470 -0.2329  0.1296 -0.1267
  998MOL0     C34652   7.288   7.966   3.530 -0.5191  0.5010 -0.6723
  998MOL0     O34653   7.265   7.828   3.542  0.4358  0.3796 -0.5567
  998MOL0     C34654   7.361   7.737   3.485  0.2720  0.9334 -0.7016
  998MOL0     C34655   7.308   7.591   3.483  0.5749 -0.0600  0.4678
  998MOL0     C34656   7.284   7.540   3.624 -0.6742  0.1821 -0.0148
  998MOL0     C34657   7.240   7.396   3.619  0.2018 -0.0774 -0.8974
  998MOL0     C34658   7.323   7.290   3.555 -0.8203  0.2680 -0.0998
  998MOL0     C34659   7.403   7.222   3.502  0.1922 -0.6337  0.1097
  998MOL0     C34660   7.183   8.041   3.568 -0.1723 -0.3010 -1.0841
  998MOL0     C34661   7.172   8.180   3.552  0.7894  0.2292 -0.0526
  998MOL0     C34662   7.043   8.241   3.603  0.4224  0.4302 -1.1924
  998MOL0     H34663   7.304   8.567   3.218 -0.2808  0.0822  0.2623
  998MOL0     H34664   7.330   8.815   3.179 -0.1763 -0.6937  0.9917
  998MOL0     H34665   7.633   8.896   3.167  1.2446 -0.2875  0.2688
  998MOL0     H34666   7.552   9.051   3.112  2.2297 -0.3990 -1.1992
  998MOL0     H34667   7.694   9.168   3.293  0.2606 -0.4134  0.7130
  998MOL0     H34668   7.762   9.091   3.134  0.7625 -2.1511 -0.2514
  998MOL0     H34669   7.827   8.881   3.289 -0.4505 -0.3683 -1.6166
  998MOL0     H34670   7.781   8.999   3.423  1.9208 -0.6389  1.5915
  998MOL0     H34671   7.997   9.041   3.212 -3.5964 -0.0403 -1.4118
  998MOL0     H34672   7.956   9.154   3.348 -0.6098 -0.3354  1.8008
  998MOL0     H34673   8.018   8.975   3.508  0.6277 -1.9461  0.0485
  998MOL0     H34674   8.060   8.878   3.378 -2.7041  0.4558 -0.0759
  998MOL0     H34675   8.266   9.016   3.337 -2.4985  0.7721 -2.5834
  998MOL0     H34676   8.189   9.162   3.405  4.2413  1.5096 -1.2470
  998MOL0     H34677   8.198   9.004   3.639  2.0855  1.7565  1.9471
  998MOL0     H34678   8.324   9.112   3.574 -0.7288 -0.1049  1.8856
  998MOL0     H34679   8.293   8.806   3.535  0.9546 -1.7009  1.4012
  998MOL0     H34680   8.419   8.895   3.446 -0.6675  1.8204  0.2879
  998MOL0     H34681   8.599   9.070   3.599  0.1781 -0.3353 -0.4245
  998MOL0     H34682   8.787   8.944   3.907  2.8479  0.8269 -1.0095
  998MOL0     H34683   8.827   9.028   3.760 -1.2551 -0.2234 -1.4867
  998MOL0     H34684   8.682   9.223   3.822  0.3662  4.8657  3.1865
  998MOL0     H34685   8.622   9.125   3.958 -0.8218  1.1360 -0.0047
  998MOL0     H34686   8.922   9.213   3.924 -0.0443  0.9986  0.1680
  998MOL0     H34687   8.846   9.131   4.066 -0.8591 -0.6991  0.0405
  998MOL0     H34688   8.763   9.326   4.149  4.3365 -0.4510  1.3028
  998MOL0     H34689   8.732   9.386   3.984 -1.2845  1.0850  0.7166
  998MOL0     H34690   9.100   9.546   4.188  0.4365  0.1886  1.4630
  998MOL0     H34691   9.062   9.741   4.343  1.5693 -3.3711 -0.0636
  998MOL0     H34692   9.136  10.130   4.409  0.3489 -0.7914  1.6784
  998MOL0     H34693   9.111  10.356   4.483 -2.1496  0.7746 -1.1799
  998MOL0     H34694   8.788  10.513   4.529 -0.4103  0.2145  0.5214
  998MOL0     H34695   8.743  10.486   4.709  0.2941 -1.2830  0.6415
  998MOL0     H34696   8.897  10.702   4.568 -5.1165  3.0971 -2.5853
  998MOL0     H34697   8.753  10.728   4.669  1.6175  3.2559  1.9178
  998MOL0     H34698   8.876  10.653   4.873 -2.4000  3.1401  0.4042
  998MOL0     H34699   9.029  10.641   4.768  0.8169  1.1480 -4.4628
  998MOL0     H34700   8.833  10.862   4.836  0.7964 -0.3150  1.3287
  998MOL0     H34701   8.971  10.892   4.721  3.3448 -0.2508  1.5541
  998MOL0     H34702   8.979  10.855   5.021 -2.2546  1.6958  0.6151
  998MOL0     H34703   8.993  10.997   4.929  0.4301  0.6386  1.3957
  998MOL0     H34704   9.168  10.746   4.905 -2.8082 -0.2173 -0.8911
  998MOL0     H34705   9.214  10.899   4.844  1.1559 -0.9374  1.3261
  998MOL0     H34706   9.232  10.821   5.124  2.7562  0.7142  1.0679
  998MOL0     H34707   9.162  10.980   5.092 -2.1118 -1.9191 -0.2092
  998MOL0     H34708   9.418  10.956   5.132 -0.1674  2.7292  0.5198
  998MOL0     H34709   9.430  10.868   4.979  0.4013 -0.4429  1.1664
  998MOL0     H34710   8.754  10.246   4.702  1.0492  3.3108  1.5249
  998MOL0     H34711   8.741  10.044   4.603 -1.2307  1.6154  1.0573
  998MOL0     H34712   8.653   9.746   4.209  0.7614  1.5008  1.2899
  998MOL0     H34713   8.689   9.562   4.079  0.9533 -0.1966 -1.7677
  998MOL0     H34714   7.602   8.850   3.510 -0.4808  1.8332 -2.3607
  998MOL0     H34715   7.566   8.596   3.556 -0.3966  2.6033  3.1670
  998MOL0     H34716   7.467   8.210   3.389  0.0197  0.3662  0.3458
  998MOL0     H34717   7.481   7.975   3.421 -0.0241  1.2035 -0.9970
  998MOL0     H34718   7.456   7.747   3.537 -1.3617  3.0907  2.1393
  998MOL0     H34719   7.388   7.775   3.386  3.2596 -1.0681 -0.7680
  998MOL0     H34720   7.381   7.531   3.429 -0.5728 -0.0654 -1.1569
  998MOL0     H34721   7.218   7.584   3.420  1.7450 -0.1946 -1.2542
  998MOL0     H34722   7.208   7.604   3.670 -0.7867 -1.8619  2.9618
  998MOL0     H34723   7.377   7.546   3.681 -1.3935  1.7035  1.0725
  998MOL0     H34724   7.229   7.374   3.726  0.7208  2.6383 -0.2173
  998MOL0     H34725   7.144   7.404   3.568 -1.3514  1.7797  2.0377
  998MOL0     H34726   7.461   7.147   3.451  4.7964  2.9246 -0.5842
  998MOL0     H34727   7.097   7.995   3.613  0.8813 -0.6748  0.6453
  998MOL0     H34728   6.978   8.256   3.517 -1.7123 -0.0087  0.2784
  998MOL0     H34729   6.993   8.175   3.675 -0.2066  0.4811 -1.5757
  998MOL0     H34730   7.071   8.337   3.647  0.4342 -0.6731  1.4089
  999MOL0     O34731   3.461   2.373   9.999 -0.1802  1.1913 -0.2093
  999MOL0     C34732   3.503   2.413  10.106  0.3370 -0.2648 -0.2666
  999MOL0     O34733   3.589   2.341  10.181 -0.1911  0.4697 -0.3886
  999MOL0     C34734   3.616   2.213  10.149 -0.4520 -0.4400 -0.1812
  999MOL0     C34735   3.589   2.111  10.237 -0.3112 -0.7438 -0.4683
  999MOL0     C34736   3.624   1.978  10.184  0.2841  0.5296 -0.3062
  999MOL0     C34737   3.695   1.958  10.067 -0.2862  0.2778  0.1960
  999MOL0     O34738   3.734   1.838  10.009 -0.1759 -0.4873 -0.1316
  999MOL0     C34739   3.696   1.717  10.073 -0.4850 -0.5188 -0.0412
  999MOL0     C34740   3.682   1.602   9.985  0.2182  0.6841  0.5943
  999MOL0     C34741   3.817   1.566   9.910  0.4928  0.5494  0.1703
  999MOL0     C34742   3.796   1.495   9.773  0.2414 -0.1718 -0.2238
  999MOL0     C34743   3.918   1.423   9.727 -0.7611 -0.4150  0.8011
  999MOL0     C34744   3.902   1.343   9.596 -0.3850  0.1521 -0.0316
  999MOL0     C34745   4.033   1.290   9.551  0.5403  0.2486 -0.1349
  999MOL0     C34746   4.012   1.230   9.420  0.1929 -0.0876  0.1870
  999MOL0     N34747   4.135   1.159   9.379 -0.3075  0.3066 -0.1668
  999MOL0     C34748   4.266   1.208   9.366 -0.0690 -0.5787  0.2718
  999MOL0     C34749   4.350   1.095   9.371 -0.9494  0.4837  0.4123
  999MOL0     C34750   4.492   1.098   9.357 -0.2152 -0.4178 -0.0561
  999MOL0     C34751   4.558   1.172   9.243  0.1389 -1.1886  0.3402
  999MOL0     C34752   4.500   1.163   9.108 -0.4120  0.7110 -0.0896
  999MOL0     C34753   4.484   1.016   9.060  0.2903  0.4103  0.5062
  999MOL0     O34754   4.432   1.003   8.928 -0.2620  0.0760  0.2377
  999MOL0     C34755   4.427   0.884   8.858  1.1305  0.8049 -0.4521
  999MOL0     C34756   4.410   0.767   8.935  0.5681 -0.1800 -0.1972
  999MOL0     C34757   4.419   0.641   8.877 -0.2225 -0.0680  0.5546
  999MOL0     C34758   4.430   0.628   8.736  0.5088  1.2017  0.5133
  999MOL0     C34759   4.422   0.497   8.676 -0.5839  0.7443  0.3249
  999MOL0     O34760   4.495   0.474   8.566 -0.0677 -0.1301  0.2246
  999MOL0     C34761   4.494   0.369   8.479 -0.4009 -0.3204  0.0409
  999MOL0     C34762   4.523   0.398   8.341  0.5930 -0.6679 -0.4852
  999MOL0     C34763   4.489   0.304   8.243 -1.0743  0.5109  0.7490
  999MOL0     C34764   4.426   0.183   8.272 -0.3605  0.2668 -0.8269
  999MOL0     O34765   4.395   0.102   8.162 -0.4010  0.1116  0.1976
  999MOL0     C34766   4.321  -0.013   8.189  0.2965 -0.0103  0.5810
  999MOL0     C34767   4.314  -0.102   8.058 -0.5884 -0.2917 -0.4080
  999MOL0     C34768   4.222  -0.038   7.957  0.1593  0.3052  0.9816
  999MOL0     C34769   4.198  -0.158   7.863  0.4621 -0.1776 -0.1607
  999MOL0     C34770   4.102  -0.117   7.749  1.3538 -0.2559 -0.6009
  999MOL0     C34771   4.155  -0.013   7.660  0.2373  0.2089  0.0437
  999MOL0     C34772   4.059   0.025   7.535 -0.1988  0.3014 -0.2892
  999MOL0     C34773   4.069   0.172   7.493 -0.3594  0.3484  0.5518
  999MOL0    Cl34774   3.979   0.281   7.604  0.1150 -0.1846 -0.2284
  999MOL0     C34775   4.398   0.150   8.406 -0.7065  0.1831  0.2321
  999MOL0     C34776   4.435   0.245   8.505  0.3693 -0.1785  0.1826
  999MOL0     O34777   4.332   0.422   8.723  0.4101  0.2725  0.5583
  999MOL0     C34778   4.446   0.745   8.651  0.7614  0.0725  0.5358
  999MOL0     C34779   4.450   0.872   8.722 -0.0552 -0.6822  0.1530
  999MOL0     N34780   4.274   0.981   9.392 -0.3128  0.7541  0.2683
  999MOL0     N34781   4.147   1.017   9.397 -0.3031 -0.1457 -1.1079
  999MOL0     C34782   3.722   2.076   9.994 -0.9658 -0.3122 -0.6057
  999MOL0     C34783   3.685   2.195  10.034 -0.1719 -0.0277  0.0244
  999MOL0     C34784   3.466   2.549  10.143 -0.4762 -0.1498 -0.1009
  999MOL0     C34785   3.482   2.565  10.283  0.4793 -0.5657  0.1784
  999MOL0     C34786   3.436   2.683  10.338 -0.2013 -0.3196 -0.6974
  999MOL0     C34787   3.372   2.777  10.263 -0.1022  0.1490  0.3252
  999MOL0     O34788   3.326   2.897  10.307  0.6413 -0.0412  0.0820
  999MOL0     C34789   3.372   2.940  10.434  0.6306 -1.3856 -0.7907
  999MOL0     C34790   3.319   3.087  10.459  1.1757 -0.2335 -1.3221
  999MOL0     C34791   3.175   3.092  10.521  0.4714 -0.5244  0.2391
  999MOL0     C34792   3.057   3.083  10.425  0.1764  0.0213 -0.3968
  999MOL0     C34793   3.049   3.193  10.323  0.0963  1.1019  0.4853
  999MOL0     C34794   3.059   3.281  10.236  0.2961  0.6078  0.7880
  999MOL0     C34795   3.344   2.751  10.123  0.0567 -0.1279  0.7638
  999MOL0     C34796   3.393   2.638  10.058  0.0143 -0.3889 -0.1198
  999MOL0     C34797   3.380   2.623   9.910 -0.7064 -0.0621 -0.1485
  999MOL0     H34798   3.537   2.139  10.327  0.9331  2.8477 -0.7247
  999MOL0     H34799   3.573   1.899  10.238  0.2829  0.5389 -0.2938
  999MOL0     H34800   3.764   1.697  10.157 -4.0367 -5.2225  2.1624
  999MOL0     H34801   3.599   1.715  10.124 -0.2018 -1.0286  0.4917
  999MOL0     H34802   3.593   1.609   9.922 -1.7039  0.0334  3.0848
  999MOL0     H34803   3.655   1.517  10.049 -0.2181 -0.1171 -0.6099
  999MOL0     H34804   3.883   1.504   9.973 -1.4944  0.4718  2.3223
  999MOL0     H34805   3.868   1.661   9.893  2.4939 -0.4230  0.3921
  999MOL0     H34806   3.722   1.418   9.794 -0.5318  0.3270 -1.0561
  999MOL0     H34807   3.761   1.556   9.689 -5.9751 -0.6375  1.5488
  999MOL0     H34808   3.993   1.500   9.708 -0.4714 -0.5647  1.3385
  999MOL0     H34809   3.957   1.353   9.801 -1.6481 -0.3329  1.3593
  999MOL0     H34810   3.833   1.263   9.623 -0.5757  0.3941  0.2105
  999MOL0     H34811   3.860   1.410   9.521 -2.0072  2.3461  2.6642
  999MOL0     H34812   4.075   1.220   9.624  4.1338  1.5071 -0.7945
  999MOL0     H34813   4.104   1.372   9.547 -0.2326  0.8965 -0.9386
  999MOL0     H34814   3.936   1.152   9.420  0.3250 -0.3200 -2.2728
  999MOL0     H34815   3.985   1.314   9.356  1.8708  1.7851  1.7757
  999MOL0     H34816   4.301   1.309   9.350  0.6854 -1.1523 -2.3059
  999MOL0     H34817   4.525   1.149   9.447 -0.9655  1.1822 -0.6585
  999MOL0     H34818   4.525   0.994   9.347  0.8013 -0.2876  1.5703
  999MOL0     H34819   4.568   1.277   9.272  0.3272 -1.1164  0.0170
  999MOL0     H34820   4.663   1.143   9.236  0.4878  0.2196 -0.7429
  999MOL0     H34821   4.573   1.218   9.048  0.8103 -1.6635 -0.9004
  999MOL0     H34822   4.399   1.207   9.109 -1.8064 -2.1129 -2.0918
  999MOL0     H34823   4.420   0.955   9.124 -0.1835 -0.1626 -0.4869
  999MOL0     H34824   4.583   0.969   9.059  0.1714  0.1187 -1.4048
  999MOL0     H34825   4.389   0.770   9.042  1.0559 -0.9906 -0.0689
  999MOL0     H34826   4.396   0.549   8.930 -2.6766 -0.1560 -0.5171
  999MOL0     H34827   4.560   0.497   8.316 -2.8268  0.5564 -1.3162
  999MOL0     H34828   4.515   0.323   8.140 -0.1643 -0.3995  0.7985
  999MOL0     H34829   4.373  -0.078   8.260 -0.6421 -1.1366  0.2647
  999MOL0     H34830   4.227   0.009   8.239  0.4574  0.3924  0.7075
  999MOL0     H34831   4.412  -0.114   8.012 -0.1341  2.5402 -0.3607
  999MOL0     H34832   4.279  -0.199   8.095 -0.0113  0.4662  2.3842
  999MOL0     H34833   4.131  -0.016   8.014 -1.8764  2.9798 -2.8335
  999MOL0     H34834   4.254   0.054   7.908 -0.1204  0.5082  1.1754
  999MOL0     H34835   4.165  -0.247   7.918  1.8189 -0.6152  0.0035
  999MOL0     H34836   4.292  -0.182   7.812  0.6514 -0.7741  0.4533
  999MOL0     H34837   4.014  -0.080   7.803  2.1246  1.5362 -0.5055
  999MOL0     H34838   4.082  -0.205   7.687 -1.4454 -0.0744 -0.1026
  999MOL0     H34839   4.183   0.076   7.717  0.5459  0.7055 -0.8636
  999MOL0     H34840   4.248  -0.047   7.613  0.2671  1.1819 -0.6446
  999MOL0     H34841   3.954   0.014   7.564 -0.3819 -4.0335 -1.8545
  999MOL0     H34842   4.076  -0.040   7.449  0.5052 -2.1950  1.6212
  999MOL0     H34843   4.176   0.196   7.490  0.3703 -2.2508  2.5473
  999MOL0     H34844   4.016   0.190   7.399 -2.3298  1.6198  1.8210
  999MOL0     H34845   4.361   0.055   8.443  1.7007  0.3871  3.5280
  999MOL0     H34846   4.414   0.219   8.608 -2.1331  2.3250  0.4106
  999MOL0     H34847   4.459   0.746   8.544  0.6089 -1.4987  0.4864
  999MOL0     H34848   4.466   0.960   8.660  0.9663 -0.2784  0.9599
  999MOL0     H34849   3.766   2.080   9.895  0.5291  0.5494  0.0528
  999MOL0     H34850   3.705   2.280   9.971  1.8575 -2.1140 -2.3889
  999MOL0     H34851   3.521   2.493  10.353  0.4364 -0.0738  0.7180
  999MOL0     H34852   3.455   2.712  10.441 -3.7813  0.2838 -0.0748
  999MOL0     H34853   3.481   2.947  10.437  0.6208 -1.3265  2.6768
  999MOL0     H34854   3.334   2.888  10.522 -2.3909  1.1744 -0.4116
  999MOL0     H34855   3.312   3.139  10.363 -1.9272 -1.5652 -1.9375
  999MOL0     H34856   3.389   3.133  10.529 -0.8152 -2.0047  2.0853
  999MOL0     H34857   3.170   3.192  10.567  1.7091  0.1926 -1.0999
  999MOL0     H34858   3.161   3.025  10.607  1.5680 -2.1431 -0.7960
  999MOL0     H34859   3.053   2.985  10.376 -2.6381 -0.1221 -0.0624
  999MOL0     H34860   2.962   3.102  10.476  1.1463  2.8563  0.5277
  999MOL0     H34861   3.066   3.345  10.151 -1.5376  1.3012  1.1125
  999MOL0     H34862   3.297   2.831  10.067  0.1739  0.0196  0.8722
  999MOL0     H34863   3.336   2.711   9.863  1.5114  2.0900  1.5533
  999MOL0     H34864   3.480   2.598   9.872 -1.4248  0.1021 -2.3020
  999MOL0     H34865   3.329   2.529   9.885  0.1202 -1.2035  2.1293
 1000MOL0     O34866   7.462   8.507   4.640 -0.2075  0.2492 -0.3155
 1000MOL0     C34867   7.546   8.458   4.568 -0.9727  0.1497  0.1817
 1000MOL0     O34868   7.640   8.360   4.608  0.3359 -0.1131 -0.3973
 1000MOL0     C34869   7.641   8.312   4.732 -0.6552  0.3425 -0.4578
 1000MOL0     C34870   7.698   8.391   4.833 -0.9080  0.0405  0.2626
 1000MOL0     C34871   7.719   8.339   4.961  0.0065 -0.6198  0.0894
 1000MOL0     C34872   7.691   8.208   4.995 -0.1288  0.1579  0.8170
 1000MOL0     O34873   7.723   8.172   5.127  0.3924  0.1896  0.2080
 1000MOL0     C34874   7.704   8.036   5.159 -0.4958 -0.5256 -0.4794
 1000MOL0     C34875   7.741   8.010   5.307 -0.3935 -0.2581  0.9604
 1000MOL0     C34876   7.877   8.068   5.337  0.2627  0.4950 -0.1949
 1000MOL0     C34877   7.911   8.056   5.485  0.0517 -0.5267 -0.2222
 1000MOL0     C34878   8.034   8.135   5.530 -1.5151 -0.4796 -0.4538
 1000MOL0     C34879   8.162   8.109   5.448  0.3090  1.1278  1.0182
 1000MOL0     C34880   8.296   8.170   5.490  1.2486 -0.4978  0.2256
 1000MOL0     C34881   8.273   8.310   5.540  1.2248  0.0605  0.8591
 1000MOL0     N34882   8.220   8.392   5.428 -0.9628 -0.9266 -0.2882
 1000MOL0     C34883   8.277   8.416   5.310  0.7032  0.1594  0.0579
 1000MOL0     C34884   8.184   8.488   5.244  0.3823 -0.1214 -0.7416
 1000MOL0     C34885   8.207   8.531   5.099 -0.4389  0.5170  0.7101
 1000MOL0     C34886   8.207   8.411   5.008 -0.5214 -0.2156 -0.3028
 1000MOL0     C34887   8.077   8.340   5.008 -0.0012  0.8553  0.5208
 1000MOL0     C34888   8.098   8.194   4.976 -1.4890 -1.1914 -0.8639
 1000MOL0     O34889   8.192   8.186   4.861 -0.0970 -0.1478  0.1552
 1000MOL0     C34890   8.150   8.207   4.735  0.4295 -0.1194  1.0307
 1000MOL0     C34891   8.260   8.228   4.650  0.4075  0.6485  0.0624
 1000MOL0     C34892   8.243   8.264   4.524  0.0966  0.3654 -0.6839
 1000MOL0     C34893   8.111   8.261   4.469 -0.0367 -0.2915 -0.1748
 1000MOL0     C34894   8.087   8.315   4.331  1.0877 -0.5012 -0.6276
 1000MOL0     O34895   8.199   8.306   4.240 -0.0614 -0.0869  0.5667
 1000MOL0     C34896   8.184   8.353   4.117 -0.6780 -0.5781 -1.3344
 1000MOL0     C34897   8.265   8.462   4.077 -0.1130  0.2366  0.0072
 1000MOL0     C34898   8.262   8.496   3.938 -0.5210  0.7583  0.1766
 1000MOL0     C34899   8.166   8.444   3.846  0.4417  0.1781 -0.2790
 1000MOL0     O34900   8.152   8.496   3.724 -0.2310 -0.1181 -0.3040
 1000MOL0     C34901   8.022   8.505   3.650 -0.5825  0.3900 -0.4599
 1000MOL0     C34902   8.026   8.597   3.530  0.3397  0.9171  0.8681
 1000MOL0     C34903   7.911   8.592   3.426  0.8112  0.8277 -0.2402
 1000MOL0     C34904   7.948   8.559   3.288  0.1368 -0.1854  0.3202
 1000MOL0     C34905   7.819   8.557   3.203 -0.0466  0.6964 -0.5342
 1000MOL0     C34906   7.840   8.502   3.055 -0.6030 -0.1465 -0.8138
 1000MOL0     C34907   7.708   8.501   2.973 -0.1668 -0.2327  0.0017
 1000MOL0     C34908   7.703   8.638   2.905  0.1530 -0.0104 -0.8516
 1000MOL0    Cl34909   7.543   8.614   2.821 -0.3546 -0.2463 -0.4644
 1000MOL0     C34910   8.077   8.350   3.903 -0.0542  0.6805 -1.2859
 1000MOL0     C34911   8.092   8.298   4.032 -0.2206  0.8683 -0.5142
 1000MOL0     O34912   7.981   8.357   4.303  0.9012 -0.0114  0.2430
 1000MOL0     C34913   8.001   8.216   4.547 -0.5230 -0.5300  0.5483
 1000MOL0     C34914   8.021   8.189   4.686  0.2184 -0.5067  0.1061
 1000MOL0     N34915   8.076   8.512   5.328 -0.3367 -0.1734  1.0656
 1000MOL0     N34916   8.099   8.465   5.436 -0.5169  0.8425 -0.0537
 1000MOL0     C34917   7.652   8.121   4.892  0.9893  0.3947  0.8020
 1000MOL0     C34918   7.626   8.180   4.763  0.1946  0.0569  0.7693
 1000MOL0     C34919   7.564   8.505   4.424 -0.2559  0.2139  0.7776
 1000MOL0     C34920   7.653   8.435   4.340  0.4968  0.0335 -0.1814
 1000MOL0     C34921   7.666   8.469   4.199  0.2835  0.9792 -0.8796
 1000MOL0     C34922   7.578   8.556   4.141  0.0642 -0.5171  1.4466
 1000MOL0     O34923   7.610   8.568   4.006  0.1841 -0.2455  0.1403
 1000MOL0     C34924   7.556   8.678   3.939 -0.1703  0.5902  0.1819
 1000MOL0     C34925   7.649   8.698   3.810  0.4012 -0.7579  0.0520
 1000MOL0     C34926   7.787   8.736   3.858 -0.5833 -0.7641 -0.1478
 1000MOL0     C34927   7.868   8.819   3.756 -0.6163  0.9525 -0.2215
 1000MOL0     C34928   7.802   8.950   3.742 -0.2033 -1.0933 -0.4595
 1000MOL0     C34929   7.766   9.067   3.738 -1.1216  0.0816 -0.2163
 1000MOL0     C34930   7.493   8.624   4.224  0.0819  0.7290 -0.4835
 1000MOL0     C34931   7.493   8.608   4.365  0.5298  0.0201 -0.1865
 1000MOL0     C34932   7.409   8.709   4.450 -0.3005 -0.0212  0.5046
 1000MOL0     H34933   7.733   8.488   4.798  1.3029 -0.6309  0.5091
 1000MOL0     H34934   7.763   8.388   5.046  1.2289  0.1490 -0.9531
 1000MOL0     H34935   7.597   8.014   5.154 -0.6963  0.0989  0.7348
 1000MOL0     H34936   7.759   7.967   5.095 -1.9359 -0.8731 -1.3732
 1000MOL0     H34937   7.742   7.902   5.324  1.5975 -0.0716  2.3300
 1000MOL0     H34938   7.670   8.054   5.377  0.5857  0.6801  1.3938
 1000MOL0     H34939   7.892   8.170   5.300  0.5099  1.0353  1.3005
 1000MOL0     H34940   7.947   8.009   5.277  2.4165  0.8705  1.7798
 1000MOL0     H34941   7.823   8.083   5.544 -0.0412  1.1827 -1.1039
 1000MOL0     H34942   7.934   7.952   5.510  2.9909  0.0225 -0.2305
 1000MOL0     H34943   8.011   8.242   5.532  2.0130  0.4082  1.0081
 1000MOL0     H34944   8.061   8.115   5.634 -1.8390 -0.4558 -0.3632
 1000MOL0     H34945   8.174   8.000   5.450 -1.2649  0.7807 -2.2367
 1000MOL0     H34946   8.156   8.127   5.341  3.4485 -1.6411  0.1807
 1000MOL0     H34947   8.367   8.166   5.407 -1.6094 -0.0256 -2.4251
 1000MOL0     H34948   8.325   8.105   5.573  0.7570  1.3466  1.9188
 1000MOL0     H34949   8.203   8.301   5.623 -0.4863 -2.0907 -0.7063
 1000MOL0     H34950   8.363   8.362   5.576  2.2812 -0.3696 -0.9998
 1000MOL0     H34951   8.377   8.397   5.270  0.8676  2.3553 -0.6973
 1000MOL0     H34952   8.132   8.607   5.076  0.3439  2.2978  3.5368
 1000MOL0     H34953   8.302   8.585   5.093 -0.3652  0.5844  2.1843
 1000MOL0     H34954   8.239   8.428   4.905  1.0478 -0.9146  0.0393
 1000MOL0     H34955   8.272   8.339   5.058 -0.4122 -0.2692 -0.5233
 1000MOL0     H34956   8.012   8.389   4.934 -0.6555  1.3971  1.4283
 1000MOL0     H34957   8.024   8.344   5.103  3.2349 -2.4200  2.6938
 1000MOL0     H34958   8.003   8.148   4.947 -1.7265 -3.2419  2.6273
 1000MOL0     H34959   8.125   8.143   5.069 -2.1314 -0.6249 -0.3606
 1000MOL0     H34960   8.363   8.223   4.685 -0.0147 -2.3574  1.1919
 1000MOL0     H34961   8.336   8.287   4.473  2.5839 -0.3972  3.1127
 1000MOL0     H34962   8.351   8.507   4.126  1.3949  0.7897 -2.9096
 1000MOL0     H34963   8.323   8.585   3.924  0.2697  0.3281  0.7664
 1000MOL0     H34964   8.016   8.400   3.622  4.3203 -0.8015  1.7415
 1000MOL0     H34965   7.950   8.540   3.724  0.1354 -1.1733  1.0407
 1000MOL0     H34966   8.039   8.698   3.571  1.2951 -0.1145  3.2710
 1000MOL0     H34967   8.113   8.570   3.469 -0.0713  2.2539 -0.3648
 1000MOL0     H34968   7.837   8.519   3.459  1.3506 -0.1355 -1.0849
 1000MOL0     H34969   7.840   8.675   3.439 -0.7918 -0.4345 -0.6405
 1000MOL0     H34970   8.013   8.472   3.274  2.3532  1.4840 -0.3019
 1000MOL0     H34971   7.991   8.648   3.242 -1.8633 -0.0340 -1.3979
 1000MOL0     H34972   7.780   8.658   3.190  4.5654  2.6817 -1.0765
 1000MOL0     H34973   7.744   8.487   3.240 -0.3600  0.9037 -0.7723
 1000MOL0     H34974   7.915   8.562   3.004 -1.1996  0.6455 -0.7739
 1000MOL0     H34975   7.884   8.402   3.046  2.3645  1.0546 -0.8771
 1000MOL0     H34976   7.623   8.480   3.039 -1.6263 -5.5390 -3.0026
 1000MOL0     H34977   7.696   8.430   2.890 -0.9367  2.5703 -2.4251
 1000MOL0     H34978   7.715   8.721   2.975  2.6542  0.2503 -1.5199
 1000MOL0     H34979   7.787   8.631   2.835  0.6375 -2.1976 -0.1362
 1000MOL0     H34980   8.005   8.313   3.830  3.6026 -1.3171 -4.2185
 1000MOL0     H34981   8.050   8.205   4.070  0.1259  1.2849  0.9524
 1000MOL0     H34982   7.909   8.190   4.496  0.2881  0.1132 -1.3508
 1000MOL0     H34983   7.944   8.142   4.746 -0.6491 -2.4806 -2.3544
 1000MOL0     H34984   7.637   8.018   4.923 -1.9800  0.9488  1.5487
 1000MOL0     H34985   7.592   8.111   4.687  0.7294 -1.2215  1.6605
 1000MOL0     H34986   7.719   8.354   4.371  2.9983  0.9613 -2.5770
 1000MOL0     H34987   7.737   8.401   4.153 -0.4912 -1.9240  1.8604
 1000MOL0     H34988   7.549   8.767   4.003 -0.8460  0.5348  0.1999
 1000MOL0     H34989   7.457   8.653   3.898 -0.1049 -0.7427  0.7920
 1000MOL0     H34990   7.603   8.771   3.742  1.7944 -0.4944 -0.6561
 1000MOL0     H34991   7.652   8.602   3.758  2.5888 -1.6114  1.6469
 1000MOL0     H34992   7.832   8.637   3.873 -0.6538 -0.4483  2.6432
 1000MOL0     H34993   7.806   8.780   3.956  0.3875 -0.1615 -0.5818
 1000MOL0     H34994   7.971   8.841   3.787 -0.6313 -0.1414  0.6317
 1000MOL0     H34995   7.866   8.767   3.659  0.2388  1.1835 -0.3762
 1000MOL0     H34996   7.722   9.165   3.734  1.5128  1.4250  1.2451
 1000MOL0     H34997   7.438   8.699   4.167  1.9381  1.1515 -1.8358
 1000MOL0     H34998   7.473   8.742   4.533  0.5015  1.4107 -0.6507
 1000MOL0     H34999   7.394   8.801   4.392 -2.8029 -1.7734 -1.9000
 1000MOL0     H35000   7.315   8.659   4.475  0.6814 -2.5114 -0.4462
 1001MOL0     O35001   1.112   8.044   6.509 -0.2025 -0.4229 -0.0155
 1001MOL0     C35002   1.034   8.049   6.414  0.6592  0.4870  0.2464
 1001MOL0     O35003   1.015   7.948   6.321  0.0058 -0.7080  0.6335
 1001MOL0     C35004   1.085   7.829   6.314 -0.4067  0.0229 -1.1044
 1001MOL0     C35005   1.026   7.718   6.252  0.1762  0.0004  0.5187
 1001MOL0     C35006   1.075   7.592   6.252 -1.2211 -0.1514  0.2410
 1001MOL0     C35007   1.206   7.566   6.310  0.6617 -0.2779  0.1682
 1001MOL0     O35008   1.272   7.447   6.337 -0.1429 -0.2258  0.0821
 1001MOL0     C35009   1.206   7.313   6.311 -0.1409  0.0597  0.7825
 1001MOL0     C35010   1.305   7.198   6.336 -0.3119  0.3114  0.7743
 1001MOL0     C35011   1.432   7.221   6.248  0.3208 -0.2548 -1.0056
 1001MOL0     C35012   1.541   7.290   6.325  0.6094  0.7580 -0.8125
 1001MOL0     C35013   1.632   7.379   6.246  0.9092 -0.1594  0.2708
 1001MOL0     C35014   1.670   7.305   6.107  0.8113  0.2673 -0.4235
 1001MOL0     C35015   1.779   7.384   6.032 -0.6639 -0.6418 -1.1926
 1001MOL0     C35016   1.806   7.338   5.888  0.3451 -0.3487 -0.6718
 1001MOL0     N35017   1.936   7.394   5.847 -0.2470 -0.3320  0.3088
 1001MOL0     C35018   2.063   7.327   5.847 -0.3920 -0.1993  0.4216
 1001MOL0     C35019   2.144   7.435   5.816  0.1453 -0.0566 -0.3151
 1001MOL0     C35020   2.302   7.461   5.819 -0.3488  0.0523 -0.6647
 1001MOL0     C35021   2.383   7.346   5.748 -0.6258  0.5808  0.0729
 1001MOL0     C35022   2.330   7.322   5.605  0.8572  0.4071 -0.0370
 1001MOL0     C35023   2.391   7.204   5.536  0.8901  0.0725  0.4127
 1001MOL0     O35024   2.400   7.080   5.615 -0.1222  0.0198  1.2045
 1001MOL0     C35025   2.286   7.024   5.669  0.1933  0.0562  0.8416
 1001MOL0     C35026   2.158   7.036   5.611  0.3170 -0.9109 -0.2552
 1001MOL0     C35027   2.043   6.983   5.672  0.3629 -0.3828 -0.5196
 1001MOL0     C35028   2.057   6.915   5.792  0.1277 -0.8852  0.6512
 1001MOL0     C35029   1.942   6.869   5.873 -0.2851  1.1428 -1.3391
 1001MOL0     O35030   1.820   6.927   5.857  0.2469  0.4936 -0.0471
 1001MOL0     C35031   1.716   6.898   5.931 -0.1055 -0.3160 -0.1085
 1001MOL0     C35032   1.715   6.865   6.073 -0.8860  0.0113  0.8445
 1001MOL0     C35033   1.601   6.838   6.145 -0.4455  0.2857 -0.1834
 1001MOL0     C35034   1.480   6.865   6.089 -0.2937 -0.5205  0.2169
 1001MOL0     O35035   1.357   6.854   6.162 -0.0696  0.0938 -0.3677
 1001MOL0     C35036   1.241   6.808   6.088 -1.4686  0.4960 -0.0114
 1001MOL0     C35037   1.119   6.790   6.176  0.0890 -0.1960  1.1103
 1001MOL0     C35038   1.000   6.856   6.105 -0.0308 -0.3895  0.2734
 1001MOL0     C35039   0.965   6.781   5.983 -0.0192 -0.0008 -0.7980
 1001MOL0     C35040   0.831   6.844   5.931 -0.0446 -0.5492  0.8857
 1001MOL0     C35041   0.796   6.763   5.805 -0.1049 -0.2131  1.0479
 1001MOL0     C35042   0.687   6.829   5.727  0.3417 -0.0242  1.0969
 1001MOL0     C35043   0.659   6.749   5.600 -0.3192  0.4011 -0.0946
 1001MOL0    Cl35044   0.564   6.846   5.479  0.1158  0.3796  0.0590
 1001MOL0     C35045   1.478   6.912   5.955  0.4927 -0.6890  0.1507
 1001MOL0     C35046   1.593   6.933   5.891  0.5116  0.0208  0.6665
 1001MOL0     O35047   1.968   6.784   5.951 -0.0338  0.5238  1.4208
 1001MOL0     C35048   2.191   6.893   5.847 -0.7681 -0.3287  0.1324
 1001MOL0     C35049   2.300   6.947   5.779  0.7781 -0.3177  0.5173
 1001MOL0     N35050   2.072   7.546   5.782  0.0335  0.2215 -0.2367
 1001MOL0     N35051   1.955   7.527   5.808 -0.2103  0.1834 -0.3242
 1001MOL0     C35052   1.277   7.679   6.357  0.0508  0.4252 -0.4866
 1001MOL0     C35053   1.217   7.807   6.364  0.0629  0.4508  0.8235
 1001MOL0     C35054   0.941   8.164   6.406 -0.0789  0.2610  0.0442
 1001MOL0     C35055   0.908   8.208   6.276 -0.3126 -0.7597  0.0469
 1001MOL0     C35056   0.809   8.304   6.256  0.2135 -0.4218 -0.2114
 1001MOL0     C35057   0.754   8.368   6.366 -0.3408  0.1696  0.0582
 1001MOL0     O35058   0.657   8.458   6.347  0.0089 -0.0918  0.1660
 1001MOL0     C35059   0.640   8.536   6.230  0.6370 -0.7579  0.0421
 1001MOL0     C35060   0.523   8.627   6.258  0.0903 -0.8206 -0.2514
 1001MOL0     C35061   0.467   8.688   6.131 -0.4590  0.3986 -0.5177
 1001MOL0     C35062   0.336   8.756   6.146  0.3282  0.9502  0.8887
 1001MOL0     C35063   0.233   8.658   6.141 -0.6451 -0.3420 -1.0705
 1001MOL0     C35064   0.138   8.582   6.151 -0.3286 -0.0525  0.2984
 1001MOL0     C35065   0.779   8.327   6.489 -0.5323  0.0402 -0.0086
 1001MOL0     C35066   0.873   8.225   6.514 -0.3280 -0.5797  0.0993
 1001MOL0     C35067   0.893   8.187   6.652  0.1439  0.6135  0.7229
 1001MOL0     H35068   0.923   7.728   6.218 -0.0314 -0.6320  0.9277
 1001MOL0     H35069   1.008   7.510   6.224 -1.6256  0.3131 -0.1817
 1001MOL0     H35070   1.110   7.313   6.362 -0.2794 -1.0834  0.5309
 1001MOL0     H35071   1.181   7.321   6.205 -0.3803  0.8431  0.8877
 1001MOL0     H35072   1.260   7.100   6.322  0.7203 -0.0151 -0.4575
 1001MOL0     H35073   1.335   7.209   6.440  1.9523 -0.0479  0.2043
 1001MOL0     H35074   1.412   7.274   6.155  0.5910 -0.7441 -1.3473
 1001MOL0     H35075   1.456   7.116   6.228  0.0778 -0.5945  0.3589
 1001MOL0     H35076   1.501   7.352   6.405  2.8898  2.1145 -0.6303
 1001MOL0     H35077   1.605   7.219   6.379  2.0874  1.6860 -1.2959
 1001MOL0     H35078   1.579   7.473   6.229  0.6623 -0.4647 -0.7437
 1001MOL0     H35079   1.726   7.399   6.299  0.7937 -1.1162  0.8561
 1001MOL0     H35080   1.688   7.202   6.139  1.3177  1.7761  5.2744
 1001MOL0     H35081   1.580   7.314   6.045 -0.8108  0.1781  1.7871
 1001MOL0     H35082   1.872   7.374   6.089 -2.4448 -2.0146  1.7260
 1001MOL0     H35083   1.751   7.489   6.040  1.6513 -0.1100  2.4257
 1001MOL0     H35084   1.804   7.229   5.875  0.8996 -0.8905  2.7689
 1001MOL0     H35085   1.718   7.376   5.835 -1.9510  1.1363  3.6802
 1001MOL0     H35086   2.089   7.230   5.888 -1.6415 -1.2026 -1.0195
 1001MOL0     H35087   2.322   7.556   5.769  0.8372 -0.4557 -1.1917
 1001MOL0     H35088   2.337   7.477   5.922  1.1341 -0.4213 -1.0776
 1001MOL0     H35089   2.488   7.372   5.733 -0.0126 -1.4835  0.4392
 1001MOL0     H35090   2.387   7.261   5.816  1.1775 -0.7440 -1.5730
 1001MOL0     H35091   2.345   7.417   5.551 -0.6080  0.7779  0.1691
 1001MOL0     H35092   2.222   7.309   5.611  1.0143 -1.2085 -0.3920
 1001MOL0     H35093   2.487   7.235   5.493  1.7432 -1.5854  1.0489
 1001MOL0     H35094   2.325   7.189   5.450  1.1884 -1.7208  0.4662
 1001MOL0     H35095   2.139   7.102   5.527  0.0042  1.8542  1.8450
 1001MOL0     H35096   1.945   6.999   5.630  1.4390  0.3694 -2.9089
 1001MOL0     H35097   1.811   6.848   6.120  0.1181  0.2557 -1.0406
 1001MOL0     H35098   1.594   6.797   6.245 -0.0493 -1.8214 -0.9591
 1001MOL0     H35099   1.223   6.871   6.001 -2.4603  2.5363  1.5803
 1001MOL0     H35100   1.279   6.711   6.054 -1.1542  0.8489 -0.6723
 1001MOL0     H35101   1.090   6.685   6.184  1.6153 -0.8324 -0.8173
 1001MOL0     H35102   1.135   6.823   6.279 -1.2368 -0.8559  1.5584
 1001MOL0     H35103   0.917   6.863   6.176  0.8023 -3.2024  1.6716
 1001MOL0     H35104   1.035   6.957   6.083  2.0785 -1.2186 -0.4318
 1001MOL0     H35105   0.957   6.675   6.010  1.7141 -0.4291 -1.8252
 1001MOL0     H35106   1.049   6.790   5.914  0.8722  0.3325  0.3102
 1001MOL0     H35107   0.839   6.951   5.913  0.0780 -0.0097  3.6931
 1001MOL0     H35108   0.750   6.837   6.005 -1.7142 -0.9903 -0.8901
 1001MOL0     H35109   0.884   6.781   5.743 -0.6617  2.0741  0.8158
 1001MOL0     H35110   0.772   6.658   5.824 -2.4425 -0.2054 -1.4125
 1001MOL0     H35111   0.713   6.927   5.687 -1.4788 -0.7012 -2.0492
 1001MOL0     H35112   0.593   6.838   5.783 -0.6990  0.6669 -0.6777
 1001MOL0     H35113   0.751   6.707   5.559  1.7219  1.1038  3.3887
 1001MOL0     H35114   0.603   6.658   5.622 -1.1372  0.3414 -2.2049
 1001MOL0     H35115   1.381   6.941   5.914 -0.4316 -1.9471  1.3465
 1001MOL0     H35116   1.579   6.969   5.790  1.1755 -0.9785  0.2076
 1001MOL0     H35117   2.202   6.835   5.938 -2.5049 -1.9792 -0.6541
 1001MOL0     H35118   2.403   6.937   5.809  0.8318 -0.3981  0.3069
 1001MOL0     H35119   1.372   7.662   6.406 -0.4556  0.5147  0.5614
 1001MOL0     H35120   1.271   7.886   6.415 -0.8063  0.2434  2.1384
 1001MOL0     H35121   0.936   8.144   6.193 -3.7940 -3.6829  0.8868
 1001MOL0     H35122   0.785   8.338   6.155 -3.1831  2.1072  1.2561
 1001MOL0     H35123   0.619   8.476   6.142  1.1635  0.1535 -0.7293
 1001MOL0     H35124   0.730   8.598   6.219  0.0112 -0.0031 -0.9817
 1001MOL0     H35125   0.559   8.704   6.328 -1.2801  0.0986 -0.5232
 1001MOL0     H35126   0.455   8.562   6.314  0.3451 -2.8781 -2.1983
 1001MOL0     H35127   0.474   8.608   6.058  0.2013 -1.2011  1.2167
 1001MOL0     H35128   0.531   8.772   6.101  0.1507  0.2672  0.3695
 1001MOL0     H35129   0.332   8.805   6.244 -0.4108 -2.0794  2.4872
 1001MOL0     H35130   0.318   8.827   6.065 -0.4223 -1.1522 -0.8449
 1001MOL0     H35131   0.054   8.518   6.168 -0.7943  1.0591  2.5494
 1001MOL0     H35132   0.726   8.374   6.571 -0.8693 -2.0547  1.0337
 1001MOL0     H35133   0.833   8.248   6.719 -0.6162 -2.1866  2.7772
 1001MOL0     H35134   0.851   8.087   6.665 -1.8714  1.5755  2.1288
 1001MOL0     H35135   0.998   8.191   6.685  0.2611  0.3720  0.3840
 1002MOL0     O35136   5.341   9.825   6.372  0.1389 -0.5575 -0.2304
 1002MOL0     C35137   5.415   9.739   6.322  0.4622  0.2918  0.6120
 1002MOL0     O35138   5.517   9.678   6.383 -0.3282  0.9278 -0.1483
 1002MOL0     C35139   5.566   9.731   6.502  0.3662 -0.4928 -0.1587
 1002MOL0     C35140   5.708   9.729   6.509 -0.3598  0.5587 -0.7278
 1002MOL0     C35141   5.770   9.770   6.627  0.4833  0.0828  0.4673
 1002MOL0     C35142   5.687   9.826   6.733  0.4048  0.1221  0.7991
 1002MOL0     O35143   5.752   9.877   6.840  0.1179 -0.0954 -0.0746
 1002MOL0     C35144   5.688   9.934   6.955 -0.6821 -0.3152 -0.1947
 1002MOL0     C35145   5.796   9.957   7.064 -0.4136 -0.3320 -0.7342
 1002MOL0     C35146   5.926  10.021   7.006 -0.4093 -1.2955  0.3842
 1002MOL0     C35147   6.035  10.060   7.106 -0.0051 -0.0196  0.2760
 1002MOL0     C35148   6.116   9.944   7.164 -0.5672 -0.1443  0.2090
 1002MOL0     C35149   6.159   9.966   7.311  0.3955  0.4661  0.9833
 1002MOL0     C35150   6.287  10.041   7.336  1.1473  0.3722  0.0083
 1002MOL0     C35151   6.254  10.196   7.327 -0.5318  0.5150 -0.1529
 1002MOL0     N35152   6.174  10.218   7.454 -1.0324 -0.7081 -0.4479
 1002MOL0     C35153   6.226  10.212   7.586 -0.0708 -0.5946  0.5509
 1002MOL0     C35154   6.139  10.264   7.670  0.1662 -0.1724 -0.4444
 1002MOL0     C35155   6.152  10.282   7.811  0.0515 -1.1536  0.1863
 1002MOL0     C35156   6.088  10.171   7.894 -0.1682 -0.8530 -1.7611
 1002MOL0     C35157   6.147  10.025   7.891  0.4924 -0.0131  0.4156
 1002MOL0     C35158   6.112   9.947   8.021 -0.4277 -0.3569  0.7503
 1002MOL0     O35159   5.974   9.917   8.026 -0.4710 -0.4280 -0.6194
 1002MOL0     C35160   5.921   9.909   8.154  0.1906  0.8396  0.0097
 1002MOL0     C35161   5.832  10.007   8.195 -0.5288 -0.2368 -0.0188
 1002MOL0     C35162   5.780  10.016   8.321  0.5006  0.4038  0.6367
 1002MOL0     C35163   5.806   9.922   8.415  0.3090  0.1829  0.6725
 1002MOL0     C35164   5.761   9.911   8.558  0.7066 -0.2332 -0.0710
 1002MOL0     O35165   5.659   9.989   8.590  0.3614  0.4737 -0.9812
 1002MOL0     C35166   5.629  10.046   8.715 -0.7781 -0.0422  0.3186
 1002MOL0     C35167   5.502  10.080   8.751  0.2536  0.0289  0.1275
 1002MOL0     C35168   5.464  10.124   8.873  0.0741  0.7783 -0.3689
 1002MOL0     C35169   5.563  10.120   8.975  0.9929  0.0193  0.4226
 1002MOL0     O35170   5.522  10.169   9.095  0.2365 -0.4760  0.3185
 1002MOL0     C35171   5.599  10.266   9.174 -0.5724  0.3362  0.6744
 1002MOL0     C35172   5.514  10.309   9.295 -0.3654 -0.8082 -0.4274
 1002MOL0     C35173   5.449  10.200   9.375 -0.9713 -0.0283 -0.4154
 1002MOL0     C35174   5.557  10.151   9.472 -0.1040 -0.0061 -0.0222
 1002MOL0     C35175   5.522  10.026   9.546 -0.1983 -0.6439 -0.0639
 1002MOL0     C35176   5.625   9.971   9.648 -0.5548 -1.3944  0.4483
 1002MOL0     C35177   5.586   9.838   9.712 -0.8902 -0.1996 -0.5644
 1002MOL0     C35178   5.574   9.719   9.616  1.5805 -1.5945 -0.5894
 1002MOL0    Cl35179   5.710   9.667   9.508  0.3982 -0.2385  0.2956
 1002MOL0     C35180   5.693  10.093   8.946 -0.5517  0.4492 -0.5943
 1002MOL0     C35181   5.720  10.043   8.822 -0.4195 -0.4075 -0.2594
 1002MOL0     O35182   5.843   9.859   8.637 -0.3104 -0.0710  0.3667
 1002MOL0     C35183   5.898   9.816   8.369 -0.1425 -0.7074  0.6844
 1002MOL0     C35184   5.952   9.811   8.243  0.8480 -0.1773  0.4202
 1002MOL0     N35185   6.024  10.292   7.598 -0.0908  0.2532  0.5731
 1002MOL0     N35186   6.044  10.262   7.473 -0.8504  0.5309  1.1814
 1002MOL0     C35187   5.549   9.824   6.725 -0.7607 -0.4300 -0.7306
 1002MOL0     C35188   5.488   9.782   6.603  0.9412 -0.4626 -0.9716
 1002MOL0     C35189   5.361   9.680   6.191  0.0273  0.9681  0.2014
 1002MOL0     C35190   5.367   9.536   6.168  0.2852 -0.4601  0.5196
 1002MOL0     C35191   5.301   9.483   6.057 -0.6823  0.2732  0.3835
 1002MOL0     C35192   5.221   9.559   5.980  1.0506 -0.4974  0.1761
 1002MOL0     O35193   5.139   9.519   5.875 -0.3853  0.1522 -1.1909
 1002MOL0     C35194   5.114   9.373   5.876  0.2510 -0.5599  1.2217
 1002MOL0     C35195   4.993   9.326   5.798 -0.6711 -0.0227 -0.4553
 1002MOL0     C35196   4.954   9.406   5.676 -0.2374 -1.0113  0.2018
 1002MOL0     C35197   5.062   9.399   5.559  0.1654 -0.2405 -0.3303
 1002MOL0     C35198   4.995   9.460   5.440 -1.1229  0.1655 -0.6662
 1002MOL0     C35199   4.943   9.538   5.364 -0.7590 -0.4012  0.2352
 1002MOL0     C35200   5.220   9.699   6.004  0.5116 -0.1576  0.6999
 1002MOL0     C35201   5.285   9.762   6.104 -0.1090 -1.0087  0.0096
 1002MOL0     C35202   5.290   9.912   6.094 -0.6198  0.8969  0.0541
 1002MOL0     H35203   5.786   9.687   6.447  1.2219  0.0576  1.4780
 1002MOL0     H35204   5.875   9.750   6.649  0.2742 -2.8506 -0.7109
 1002MOL0     H35205   5.642  10.024   6.911  2.8457  0.6514 -2.2868
 1002MOL0     H35206   5.607   9.872   6.995 -1.0700  0.6721  0.6070
 1002MOL0     H35207   5.821   9.862   7.112 -3.2259 -2.3840 -3.0026
 1002MOL0     H35208   5.761  10.027   7.141  2.2206  0.4513 -0.1267
 1002MOL0     H35209   5.892  10.102   6.942  0.4242 -0.4293  1.0157
 1002MOL0     H35210   5.973   9.939   6.951 -0.0172 -1.0067  0.2852
 1002MOL0     H35211   6.106  10.128   7.059  0.8475  0.0727  1.6434
 1002MOL0     H35212   5.993  10.125   7.184 -0.1052 -0.5827  0.6990
 1002MOL0     H35213   6.059   9.851   7.159 -2.6427  0.9271  1.9832
 1002MOL0     H35214   6.201   9.940   7.096 -2.9217  3.4957 -3.4370
 1002MOL0     H35215   6.077   9.993   7.377 -1.5993 -2.2689 -0.1750
 1002MOL0     H35216   6.193   9.866   7.341  2.1317  1.3247  2.0541
 1002MOL0     H35217   6.362  10.023   7.258  0.4507  0.0762 -0.6095
 1002MOL0     H35218   6.322  10.013   7.436 -3.3045  2.1761  2.3630
 1002MOL0     H35219   6.346  10.256   7.328  0.9916 -1.6996 -0.0579
 1002MOL0     H35220   6.205  10.226   7.235  1.2441  2.1230 -0.6355
 1002MOL0     H35221   6.321  10.165   7.612  1.1803  0.5544 -1.5677
 1002MOL0     H35222   6.260  10.289   7.824 -0.1248  4.1469  0.7241
 1002MOL0     H35223   6.112  10.376   7.848  1.6570 -0.6269  0.6535
 1002MOL0     H35224   6.080  10.198   7.999 -1.1906 -0.5259 -1.9148
 1002MOL0     H35225   5.989  10.174   7.847 -1.5214 -3.1943  0.6646
 1002MOL0     H35226   6.257  10.027   7.886  0.5522 -1.3691  0.9522
 1002MOL0     H35227   6.103   9.983   7.800  1.5076 -0.0359 -0.0810
 1002MOL0     H35228   6.149  10.002   8.108 -1.4026  4.0771 -1.3471
 1002MOL0     H35229   6.158   9.847   8.028 -1.0820 -0.7691 -0.5028
 1002MOL0     H35230   5.799  10.080   8.122 -3.9371  1.1868  2.6901
 1002MOL0     H35231   5.725  10.104   8.354 -3.0472  0.4110 -4.1815
 1002MOL0     H35232   5.430  10.070   8.670  1.8594  1.7751 -1.6455
 1002MOL0     H35233   5.374  10.182   8.884 -0.0615  0.7778 -1.4413
 1002MOL0     H35234   5.689  10.211   9.203 -1.4596 -2.0126 -0.7046
 1002MOL0     H35235   5.630  10.358   9.124  5.4395 -1.5839  0.1518
 1002MOL0     H35236   5.582  10.372   9.352  1.1579 -2.7636  0.0459
 1002MOL0     H35237   5.447  10.389   9.263  0.6897 -0.1623 -1.1191
 1002MOL0     H35238   5.359  10.239   9.424 -0.3979 -0.5929  1.1699
 1002MOL0     H35239   5.429  10.117   9.308 -0.2041  0.2533 -1.0079
 1002MOL0     H35240   5.571  10.223   9.553  1.4491 -0.9707  0.6204
 1002MOL0     H35241   5.658  10.152   9.430  0.7874  2.0182  1.9651
 1002MOL0     H35242   5.512   9.949   9.469 -1.2813 -0.0596 -0.5432
 1002MOL0     H35243   5.422  10.042   9.588 -0.6177 -2.0770 -0.4689
 1002MOL0     H35244   5.722   9.956   9.599 -0.2931  0.5711  0.2973
 1002MOL0     H35245   5.640  10.050   9.722  0.0381 -0.8584 -0.2232
 1002MOL0     H35246   5.489   9.849   9.761 -0.3989 -2.1133  0.9646
 1002MOL0     H35247   5.665   9.820   9.785 -1.7560  1.5371  0.8683
 1002MOL0     H35248   5.547   9.649   9.696  2.3849  2.0491  3.2559
 1002MOL0     H35249   5.483   9.722   9.555 -0.3490  0.8885  2.1430
 1002MOL0     H35250   5.769  10.085   9.024 -1.6653  0.3485  0.5166
 1002MOL0     H35251   5.822  10.007   8.814 -0.3068  0.2947 -4.2328
 1002MOL0     H35252   5.929   9.738   8.437 -1.5344 -2.0363 -0.1330
 1002MOL0     H35253   6.021   9.732   8.214  1.8339  1.1109 -0.8514
 1002MOL0     H35254   5.487   9.876   6.797 -1.1089  0.8131 -1.8731
 1002MOL0     H35255   5.381   9.791   6.595  0.8643 -0.4480 -0.0431
 1002MOL0     H35256   5.413   9.481   6.249 -2.0261 -1.8107  0.9912
 1002MOL0     H35257   5.303   9.377   6.035 -0.9573 -0.4851  3.5446
 1002MOL0     H35258   5.094   9.344   5.980  1.1917  3.0466  2.5597
 1002MOL0     H35259   5.207   9.322   5.850 -0.5820 -0.6387 -1.9947
 1002MOL0     H35260   4.906   9.329   5.864  1.6549 -0.1861  2.8216
 1002MOL0     H35261   5.012   9.222   5.771 -0.4242 -1.0319  3.1215
 1002MOL0     H35262   4.951   9.509   5.711  2.4362 -0.6833 -0.3330
 1002MOL0     H35263   4.858   9.365   5.642  0.6168 -2.1859 -0.9041
 1002MOL0     H35264   5.154   9.455   5.581 -1.4903  1.6988  2.2835
 1002MOL0     H35265   5.084   9.293   5.545  4.4240  0.4066  0.1753
 1002MOL0     H35266   4.888   9.604   5.299 -1.2055 -1.1354 -0.1453
 1002MOL0     H35267   5.174   9.769   5.934  1.6515  2.1324  2.1355
 1002MOL0     H35268   5.201   9.950   6.145 -2.3843 -0.9257 -1.4820
 1002MOL0     H35269   5.380   9.955   6.138 -0.1212 -0.5811  0.5251
 1002MOL0     H35270   5.278   9.935   5.988 -4.3666  1.0662  0.3753
 1003MOL0     O35271   9.584   7.118   5.811  0.0250  0.3080  0.5311
 1003MOL0     C35272   9.498   7.041   5.857 -0.2935 -0.0168  0.0660
 1003MOL0     O35273   9.489   6.899   5.837 -0.3106  0.2109 -0.7803
 1003MOL0     C35274   9.594   6.848   5.765  0.1222  0.2442 -0.0617
 1003MOL0     C35275   9.610   6.876   5.636 -0.4178 -0.2507  0.2269
 1003MOL0     C35276   9.710   6.824   5.558 -0.3194  0.4783 -0.3195
 1003MOL0     C35277   9.816   6.755   5.614 -1.4061 -0.5516  0.1046
 1003MOL0     O35278   9.925   6.726   5.544  0.6883  0.7993  0.4887
 1003MOL0     C35279   9.963   6.582   5.531 -0.2782  0.2893 -0.7745
 1003MOL0     C35280  10.117   6.571   5.486 -0.9063  0.3857  0.2586
 1003MOL0     C35281  10.167   6.671   5.388 -0.1643 -0.3612  1.5928
 1003MOL0     C35282  10.292   6.641   5.314 -0.5269 -1.0517  0.2191
 1003MOL0     C35283  10.351   6.761   5.234 -0.0710 -0.3268 -0.5994
 1003MOL0     C35284  10.441   6.847   5.328  0.2798  0.2887 -0.0832
 1003MOL0     C35285  10.500   6.961   5.243 -0.1668  0.4810 -0.2817
 1003MOL0     C35286  10.414   7.091   5.278 -0.0618 -0.6282  0.7488
 1003MOL0     N35287  10.468   7.197   5.191 -0.3661 -0.2446  0.3979
 1003MOL0     C35288  10.588   7.252   5.221 -0.0424 -0.2391 -0.0528
 1003MOL0     C35289  10.592   7.374   5.151  0.6593  0.7533  0.0327
 1003MOL0     C35290  10.702   7.478   5.143 -0.3185  0.0284  0.0088
 1003MOL0     C35291  10.834   7.426   5.199 -1.1016 -0.1800  0.3343
 1003MOL0     C35292  10.949   7.535   5.184  0.7280 -0.1530  0.5512
 1003MOL0     C35293  11.078   7.466   5.217 -0.3483 -0.2503  0.4083
 1003MOL0     O35294  11.105   7.389   5.095  0.0314  0.0646  0.1463
 1003MOL0     C35295  11.233   7.335   5.075 -0.6506  1.3597 -0.0044
 1003MOL0     C35296  11.272   7.317   4.941 -0.3903  0.2106  0.2005
 1003MOL0     C35297  11.376   7.246   4.896 -0.2717  0.0835 -1.0899
 1003MOL0     C35298  11.464   7.191   4.991  0.3563 -0.4269 -0.4404
 1003MOL0     C35299  11.575   7.105   4.950 -0.5274 -0.6891 -0.4396
 1003MOL0     O35300  11.604   7.122   4.819  0.9289 -0.2845  0.3967
 1003MOL0     C35301  11.704   7.057   4.751  0.6537 -0.4964 -0.0139
 1003MOL0     C35302  11.833   7.050   4.805 -0.7288  1.4180  0.1642
 1003MOL0     C35303  11.943   7.002   4.725 -0.2868  0.2572 -0.4772
 1003MOL0     C35304  11.922   6.964   4.589 -0.4466  0.8187 -0.8201
 1003MOL0     O35305  12.030   6.916   4.514  0.0586 -0.5448 -0.7236
 1003MOL0     C35306  11.991   6.857   4.388 -0.1274  0.6495 -0.3430
 1003MOL0     C35307  12.105   6.789   4.311 -0.6996 -0.5926  0.1239
 1003MOL0     C35308  12.066   6.784   4.163  0.2030  0.6153 -1.0256
 1003MOL0     C35309  12.184   6.732   4.081 -0.6512 -0.1909  0.5723
 1003MOL0     C35310  12.148   6.708   3.930 -0.3932  0.6063 -0.3141
 1003MOL0     C35311  12.104   6.826   3.849  0.3400  0.1638  0.2069
 1003MOL0     C35312  12.146   6.826   3.698 -0.2716  0.5035 -0.2217
 1003MOL0     C35313  12.062   6.937   3.618 -0.6681 -0.1956 -0.5866
 1003MOL0    Cl35314  12.123   6.929   3.452  0.2528 -0.2146 -0.2127
 1003MOL0     C35315  11.782   6.973   4.541  0.8382 -0.7650  0.7113
 1003MOL0     C35316  11.681   7.021   4.622  0.4272  0.8286 -0.8660
 1003MOL0     O35317  11.636   7.048   5.032 -1.0514  0.2809  0.1956
 1003MOL0     C35318  11.440   7.224   5.127 -0.0297  0.0769  0.0302
 1003MOL0     C35319  11.328   7.293   5.170  0.2817 -0.7745  0.2606
 1003MOL0     N35320  10.460   7.387   5.092 -0.2450 -0.0809 -0.0605
 1003MOL0     N35321  10.389   7.276   5.124 -1.2078 -0.1782  0.8056
 1003MOL0     C35322   9.813   6.733   5.756  0.4429 -0.1425  1.2072
 1003MOL0     C35323   9.692   6.768   5.822 -0.1197  0.2696  0.0537
 1003MOL0     C35324   9.386   7.106   5.928 -0.4958 -0.1886 -0.0941
 1003MOL0     C35325   9.292   7.019   5.975 -0.7055  0.7446 -0.2148
 1003MOL0     C35326   9.173   7.053   6.035 -0.3412  0.9487  0.4988
 1003MOL0     C35327   9.146   7.187   6.060  1.1107 -0.3703 -0.8753
 1003MOL0     O35328   9.028   7.221   6.123  0.9403  1.3932  0.0588
 1003MOL0     C35329   8.966   7.350   6.108  0.2204  0.8713  0.2327
 1003MOL0     C35330   8.823   7.305   6.062  0.0842 -0.6441 -0.4521
 1003MOL0     C35331   8.719   7.279   6.171 -0.4547  0.1634  0.4965
 1003MOL0     C35332   8.604   7.381   6.173  0.9458 -0.4339  0.5402
 1003MOL0     C35333   8.508   7.362   6.055  0.8486 -0.9013  0.0312
 1003MOL0     C35334   8.459   7.333   5.949 -0.0959  0.3581  0.2043
 1003MOL0     C35335   9.240   7.286   6.012 -0.1151  0.1410 -0.2693
 1003MOL0     C35336   9.353   7.249   5.939 -0.8765 -0.0993 -0.1537
 1003MOL0     C35337   9.435   7.359   5.866 -0.4549  0.0089  0.3772
 1003MOL0     H35338   9.533   6.945   5.601 -0.2545  0.2566  0.8398
 1003MOL0     H35339   9.710   6.831   5.449  0.8843  1.5287 -0.2673
 1003MOL0     H35340   9.962   6.538   5.631 -0.1911  0.1292 -0.8433
 1003MOL0     H35341   9.904   6.529   5.456 -0.4590  1.0955 -1.2095
 1003MOL0     H35342  10.137   6.470   5.451 -3.6314 -0.9256  2.1586
 1003MOL0     H35343  10.191   6.588   5.565  0.2271  2.1152 -1.0793
 1003MOL0     H35344  10.164   6.770   5.435 -1.2738  1.3020 -1.6840
 1003MOL0     H35345  10.091   6.687   5.311  1.4468  0.9788  0.1766
 1003MOL0     H35346  10.371   6.605   5.380  0.6464  2.6420  1.0299
 1003MOL0     H35347  10.270   6.571   5.232  2.0622 -0.8160 -0.7469
 1003MOL0     H35348  10.421   6.719   5.161 -0.8662 -2.8840  0.0247
 1003MOL0     H35349  10.269   6.817   5.188 -0.0345 -0.3109 -0.6458
 1003MOL0     H35350  10.392   6.873   5.422  0.8914 -3.3811  1.3959
 1003MOL0     H35351  10.524   6.781   5.354 -0.0298 -0.1345 -0.1518
 1003MOL0     H35352  10.501   6.938   5.136  2.9917  0.7241 -0.4064
 1003MOL0     H35353  10.607   6.984   5.250 -1.0282  5.0864  0.7542
 1003MOL0     H35354  10.306   7.075   5.270  0.0639 -0.4897 -4.4267
 1003MOL0     H35355  10.429   7.122   5.382  0.4109  1.7746  0.0379
 1003MOL0     H35356  10.670   7.209   5.279  1.5165 -2.7270 -3.7230
 1003MOL0     H35357  10.726   7.507   5.040 -1.5260 -2.2203 -0.9867
 1003MOL0     H35358  10.654   7.563   5.193 -2.1915 -1.2897  0.5535
 1003MOL0     H35359  10.829   7.390   5.302  1.4752 -2.4967 -0.2106
 1003MOL0     H35360  10.869   7.341   5.139  2.1453  0.4053  1.1819
 1003MOL0     H35361  10.939   7.614   5.259  1.7917 -1.2157  1.8843
 1003MOL0     H35362  10.957   7.578   5.084 -3.1309  1.7897  0.9124
 1003MOL0     H35363  11.063   7.396   5.300  2.3931 -0.0360  1.1699
 1003MOL0     H35364  11.162   7.533   5.238 -2.1348  1.8873  1.0684
 1003MOL0     H35365  11.201   7.354   4.869  0.1666 -0.4584 -0.7138
 1003MOL0     H35366  11.392   7.225   4.790 -2.1125  0.7169 -1.5197
 1003MOL0     H35367  11.844   7.087   4.907  1.3084 -1.0351  0.9528
 1003MOL0     H35368  12.043   7.017   4.765 -0.7317  1.9247  0.1306
 1003MOL0     H35369  11.918   6.781   4.416 -2.4528  2.6750 -0.5160
 1003MOL0     H35370  11.947   6.933   4.323  0.9664  1.1605 -0.4976
 1003MOL0     H35371  12.195   6.851   4.314 -0.8862 -0.1626 -1.8580
 1003MOL0     H35372  12.126   6.691   4.355  2.4107 -1.1587 -2.2761
 1003MOL0     H35373  11.982   6.715   4.151  0.1272 -0.1879  2.7651
 1003MOL0     H35374  12.030   6.882   4.130  1.7304  2.2800  1.8125
 1003MOL0     H35375  12.210   6.637   4.128  1.0113  0.6348  1.3802
 1003MOL0     H35376  12.258   6.810   4.098  2.4721 -2.6838 -0.4148
 1003MOL0     H35377  12.061   6.643   3.923 -1.2574  1.8699 -2.3612
 1003MOL0     H35378  12.223   6.649   3.876  0.5855  0.8443  0.7461
 1003MOL0     H35379  11.996   6.826   3.867  0.3346 -1.9997  0.4137
 1003MOL0     H35380  12.151   6.915   3.892 -0.8913  0.5672  0.7735
 1003MOL0     H35381  12.137   6.726   3.656  1.8043 -1.2603  3.1184
 1003MOL0     H35382  12.255   6.831   3.696 -0.2444 -0.0953 -0.3719
 1003MOL0     H35383  11.953   6.931   3.614 -0.9582  2.3537  1.1881
 1003MOL0     H35384  12.064   7.041   3.652 -1.8204 -0.3646  0.0503
 1003MOL0     H35385  11.747   6.946   4.441 -0.6828  3.0606  0.0540
 1003MOL0     H35386  11.575   7.009   4.603  0.1888  0.1093  0.7531
 1003MOL0     H35387  11.511   7.196   5.205  0.9364  1.8562 -0.1598
 1003MOL0     H35388  11.299   7.303   5.274 -1.3148 -0.1386 -0.2033
 1003MOL0     H35389   9.900   6.690   5.804  1.1627 -0.9152 -0.6977
 1003MOL0     H35390   9.681   6.754   5.929 -1.8685  1.4425  0.0678
 1003MOL0     H35391   9.295   6.912   5.959  1.0936  0.9702 -1.7246
 1003MOL0     H35392   9.098   6.988   6.078  1.3636 -0.7843  1.0215
 1003MOL0     H35393   9.022   7.398   6.027 -2.9925  1.4963 -1.8249
 1003MOL0     H35394   8.972   7.402   6.204  0.7150 -1.5273  1.5635
 1003MOL0     H35395   8.843   7.221   5.995  2.5508  0.0153 -0.6587
 1003MOL0     H35396   8.789   7.376   5.987 -1.6211 -0.3669  0.5382
 1003MOL0     H35397   8.764   7.289   6.270 -0.6179  2.1796  0.4163
 1003MOL0     H35398   8.680   7.178   6.155  4.2102 -1.7766 -0.2694
 1003MOL0     H35399   8.545   7.350   6.260 -0.9421  1.9785  0.2385
 1003MOL0     H35400   8.638   7.484   6.184 -3.6108  1.6472 -1.8332
 1003MOL0     H35401   8.419   7.308   5.853 -1.9994  1.0154  0.7723
 1003MOL0     H35402   9.220   7.390   6.038 -2.1310  0.1042 -1.4747
 1003MOL0     H35403   9.441   7.451   5.925  0.7300 -0.7529  1.4880
 1003MOL0     H35404   9.542   7.336   5.865 -0.9554 -2.7385 -2.3015
 1003MOL0     H35405   9.380   7.384   5.775 -1.9728  0.5621  1.4025
 1004MOL0     O35406  11.157   5.390   5.830 -0.2012 -0.0995 -0.3860
 1004MOL0     C35407  11.258   5.403   5.760 -0.7584  0.5098  0.0179
 1004MOL0     O35408  11.373   5.456   5.805  1.1746 -0.3057 -0.6218
 1004MOL0     C35409  11.391   5.474   5.946  0.0464  0.6465  0.6230
 1004MOL0     C35410  11.365   5.366   6.030 -0.1931  0.2305  0.3275
 1004MOL0     C35411  11.409   5.368   6.159  0.2273  0.4499  0.1639
 1004MOL0     C35412  11.466   5.484   6.216  0.6175 -1.0828  0.4620
 1004MOL0     O35413  11.488   5.495   6.350 -0.2843  0.4404 -0.3780
 1004MOL0     C35414  11.537   5.616   6.403  0.8739 -1.0479 -0.5737
 1004MOL0     C35415  11.551   5.598   6.562 -0.0754 -0.0152  0.2558
 1004MOL0     C35416  11.659   5.497   6.604 -0.4048  0.1290  0.4745
 1004MOL0     C35417  11.688   5.506   6.753  0.6392 -0.1028 -0.0011
 1004MOL0     C35418  11.781   5.397   6.789 -0.0945  0.4720  0.2528
 1004MOL0     C35419  11.918   5.395   6.720 -0.3463 -0.0946 -1.0478
 1004MOL0     C35420  11.996   5.524   6.712  0.3125  0.4609  0.0954
 1004MOL0     C35421  12.040   5.561   6.860 -0.3679 -1.5146  0.1585
 1004MOL0     N35422  12.135   5.674   6.843 -0.0494  0.4405  0.6668
 1004MOL0     C35423  12.111   5.807   6.839  0.1394  0.4270  0.3570
 1004MOL0     C35424  12.234   5.866   6.856  0.1154  0.0444  0.2808
 1004MOL0     C35425  12.262   6.015   6.829 -0.4626  0.2136  0.0609
 1004MOL0     C35426  12.172   6.080   6.718 -0.3381  0.1192 -0.4896
 1004MOL0     C35427  12.205   6.022   6.583 -0.0124 -0.6230 -0.2320
 1004MOL0     C35428  12.103   6.077   6.487  0.6037 -0.0185  0.6126
 1004MOL0     O35429  11.975   6.009   6.499 -0.1702  0.5376  0.0628
 1004MOL0     C35430  11.915   5.989   6.378  0.4598  0.3083 -0.1105
 1004MOL0     C35431  11.853   6.097   6.301 -0.5159 -0.6422 -0.2627
 1004MOL0     C35432  11.780   6.058   6.187 -1.4306  0.1969  1.5229
 1004MOL0     C35433  11.777   5.924   6.143  1.1129  0.6024 -0.0703
 1004MOL0     C35434  11.702   5.899   6.021 -0.1618 -0.2636 -0.1891
 1004MOL0     O35435  11.614   5.998   5.981 -0.5252  0.2785 -0.8060
 1004MOL0     C35436  11.517   5.981   5.887 -0.6786  1.5846 -0.8903
 1004MOL0     C35437  11.516   5.886   5.782  0.2021 -0.1802 -0.1078
 1004MOL0     C35438  11.407   5.888   5.689  0.2108 -0.6382 -0.9874
 1004MOL0     C35439  11.298   5.980   5.710  0.4280  0.9943 -0.3617
 1004MOL0     O35440  11.190   5.968   5.624  0.3809  0.2983  0.1695
 1004MOL0     C35441  11.057   6.020   5.672 -0.0577 -0.6573 -0.3654
 1004MOL0     C35442  10.956   6.007   5.550 -0.2109  0.4485 -0.2197
 1004MOL0     C35443  10.958   6.141   5.467 -0.7811  0.6027  0.5956
 1004MOL0     C35444  10.993   6.111   5.320  0.5774 -0.3301 -0.2762
 1004MOL0     C35445  11.027   6.227   5.236  0.1186 -0.2081  0.1535
 1004MOL0     C35446  11.062   6.172   5.096 -1.3458  0.7388  0.5671
 1004MOL0     C35447  11.094   6.294   5.008  0.1625 -1.0715 -0.1297
 1004MOL0     C35448  11.220   6.268   4.923  0.6772 -0.0998  0.6052
 1004MOL0    Cl35449  11.274   6.425   4.839 -0.3896 -0.3191 -0.1675
 1004MOL0     C35450  11.298   6.060   5.826 -0.4656  0.1727 -0.2669
 1004MOL0     C35451  11.409   6.067   5.907 -0.1368  0.8627  0.0928
 1004MOL0     O35452  11.723   5.793   5.966  0.3778 -0.2387 -0.1841
 1004MOL0     C35453  11.840   5.823   6.213 -1.0433 -0.4663  0.5420
 1004MOL0     C35454  11.906   5.857   6.334  0.6262  1.3868 -0.0819
 1004MOL0     N35455  12.324   5.773   6.871  0.2406 -0.0707  0.1044
 1004MOL0     N35456  12.268   5.655   6.856 -0.3566 -0.6659  1.6393
 1004MOL0     C35457  11.483   5.587   6.127  1.4497  1.2203  0.2215
 1004MOL0     C35458  11.442   5.587   5.991 -0.5060  0.1512 -1.0955
 1004MOL0     C35459  11.252   5.375   5.616  0.3071  0.9975  0.2253
 1004MOL0     C35460  11.295   5.249   5.571 -1.1883 -1.1964  0.6408
 1004MOL0     C35461  11.335   5.222   5.438  0.5726 -0.1325  0.1868
 1004MOL0     C35462  11.301   5.310   5.341 -0.7167  1.5330 -0.7309
 1004MOL0     O35463  11.306   5.282   5.207  0.0554  0.1958 -0.8936
 1004MOL0     C35464  11.430   5.228   5.164  0.3250 -0.7721 -0.6167
 1004MOL0     C35465  11.443   5.254   5.017  0.6249  0.1591  0.5193
 1004MOL0     C35466  11.464   5.406   5.014  0.2996 -0.4101  0.3831
 1004MOL0     C35467  11.488   5.432   4.868  1.5365 -1.5935  0.3476
 1004MOL0     C35468  11.518   5.574   4.859 -0.0168  0.0175 -0.7457
 1004MOL0     C35469  11.547   5.692   4.860  0.5943  0.2543 -0.1366
 1004MOL0     C35470  11.249   5.435   5.375 -0.0440  1.1627  0.0900
 1004MOL0     C35471  11.230   5.472   5.508 -0.2370 -0.2850  0.3308
 1004MOL0     C35472  11.172   5.608   5.541 -0.8271  0.1123 -0.9928
 1004MOL0     H35473  11.312   5.284   5.981  0.1329  0.5072 -0.5056
 1004MOL0     H35474  11.402   5.282   6.225 -0.7442  0.1635 -0.2947
 1004MOL0     H35475  11.622   5.651   6.344 -1.8546 -0.1131 -4.3154
 1004MOL0     H35476  11.457   5.688   6.384  1.5582  0.0316  0.5335
 1004MOL0     H35477  11.458   5.554   6.598 -0.7348  2.5829  2.0696
 1004MOL0     H35478  11.572   5.699   6.600  0.7147 -0.2847  0.5545
 1004MOL0     H35479  11.749   5.509   6.542 -1.8289 -1.5285 -2.0960
 1004MOL0     H35480  11.629   5.393   6.587  1.2843 -0.0226 -2.2244
 1004MOL0     H35481  11.725   5.607   6.770 -1.1542  0.7122 -0.7090
 1004MOL0     H35482  11.591   5.488   6.802  0.0069  0.0185 -1.1587
 1004MOL0     H35483  11.799   5.401   6.897  0.6782 -4.5681  0.5750
 1004MOL0     H35484  11.733   5.299   6.776  0.9337  0.1912 -1.8637
 1004MOL0     H35485  11.981   5.315   6.758 -1.8310 -1.1930 -0.7862
 1004MOL0     H35486  11.905   5.380   6.612 -0.8988  0.9935 -1.1549
 1004MOL0     H35487  11.940   5.597   6.652 -0.3521 -1.2244 -1.4000
 1004MOL0     H35488  12.091   5.497   6.664 -1.8453 -3.9449 -2.3072
 1004MOL0     H35489  11.949   5.584   6.916 -1.6789  0.2682 -2.4989
 1004MOL0     H35490  12.089   5.481   6.917  1.5385 -0.0569  0.6775
 1004MOL0     H35491  12.012   5.852   6.832  0.2176  0.6683  0.8301
 1004MOL0     H35492  12.239   6.070   6.920 -2.5854 -2.5257  1.3162
 1004MOL0     H35493  12.365   6.033   6.798  0.2879 -0.5703  1.9442
 1004MOL0     H35494  12.067   6.070   6.745 -0.4876 -1.8817 -1.6257
 1004MOL0     H35495  12.199   6.186   6.711 -0.8430  0.2452 -0.5606
 1004MOL0     H35496  12.193   5.914   6.593  0.2154 -0.4223  3.3891
 1004MOL0     H35497  12.307   6.051   6.553  0.3818 -1.8150 -0.0945
 1004MOL0     H35498  12.139   6.063   6.385 -1.0230  1.6783 -0.2705
 1004MOL0     H35499  12.083   6.183   6.508  0.8193  0.1419  0.0185
 1004MOL0     H35500  11.862   6.203   6.325 -1.3171 -1.1054  2.4464
 1004MOL0     H35501  11.738   6.138   6.128 -0.3447 -1.0210 -1.0665
 1004MOL0     H35502  11.595   5.812   5.770 -0.1123 -0.4396 -0.6060
 1004MOL0     H35503  11.403   5.815   5.609  0.7408 -1.0781 -0.6215
 1004MOL0     H35504  11.016   5.968   5.759 -0.7654  3.8694  2.3368
 1004MOL0     H35505  11.063   6.125   5.702 -0.3229 -0.0268 -2.3746
 1004MOL0     H35506  10.984   5.919   5.492  1.5986  0.3687  0.7343
 1004MOL0     H35507  10.856   6.000   5.595  0.2741 -0.0436  0.8178
 1004MOL0     H35508  10.864   6.197   5.473 -0.4895  1.1925 -0.2343
 1004MOL0     H35509  11.034   6.211   5.500  1.4367  0.4100 -3.4873
 1004MOL0     H35510  10.920   6.054   5.262  0.2102 -1.4513  1.2150
 1004MOL0     H35511  11.081   6.046   5.317  0.3939 -0.8660  2.8725
 1004MOL0     H35512  11.109   6.287   5.277  0.9004 -0.8525 -0.4438
 1004MOL0     H35513  10.931   6.280   5.234 -1.2585 -2.3572  2.3439
 1004MOL0     H35514  11.144   6.100   5.101 -2.4001 -0.6225 -0.7873
 1004MOL0     H35515  10.982   6.116   5.047 -1.9778 -0.0063  2.3827
 1004MOL0     H35516  11.119   6.384   5.066  0.0913 -1.9544  1.3113
 1004MOL0     H35517  11.008   6.305   4.942 -0.1587  0.5769  0.5106
 1004MOL0     H35518  11.303   6.235   4.987  0.6389  0.0586  0.7392
 1004MOL0     H35519  11.190   6.199   4.844 -0.7168  1.7532 -0.5607
 1004MOL0     H35520  11.217   6.122   5.863  0.7520  1.3775  0.5061
 1004MOL0     H35521  11.400   6.132   5.993  0.6225  1.6904 -0.4366
 1004MOL0     H35522  11.844   5.718   6.183 -1.0223 -0.6311  1.1046
 1004MOL0     H35523  11.946   5.776   6.394  1.5271  0.1765 -2.1883
 1004MOL0     H35524  11.518   5.684   6.162  1.9700  0.8724  0.6760
 1004MOL0     H35525  11.460   5.667   5.920 -0.9162 -0.5654 -2.0268
 1004MOL0     H35526  11.314   5.165   5.637 -0.4923  0.1111  2.1619
 1004MOL0     H35527  11.393   5.131   5.426  1.5003  0.4678  0.0553
 1004MOL0     H35528  11.429   5.119   5.173  2.2774 -0.6685  2.2628
 1004MOL0     H35529  11.509   5.271   5.225 -1.4318  0.9838  0.5732
 1004MOL0     H35530  11.356   5.222   4.959  3.2627 -0.1744 -3.6604
 1004MOL0     H35531  11.526   5.209   4.962 -0.5490 -1.3343 -0.0872
 1004MOL0     H35532  11.545   5.430   5.083 -0.4030 -0.4585  1.2362
 1004MOL0     H35533  11.383   5.473   5.043  0.1061  0.2097 -1.4782
 1004MOL0     H35534  11.565   5.382   4.809  2.0661 -0.4026  0.0046
 1004MOL0     H35535  11.394   5.411   4.817  0.2256 -0.4336  2.1401
 1004MOL0     H35536  11.550   5.798   4.854  0.1631  0.2959  0.3465
 1004MOL0     H35537  11.233   5.501   5.290 -1.7159 -0.1319 -0.6624
 1004MOL0     H35538  11.086   5.625   5.476 -1.7507  1.7750  0.5512
 1004MOL0     H35539  11.128   5.630   5.639 -1.9909  1.5930 -1.8031
 1004MOL0     H35540  11.244   5.690   5.527 -2.4138  2.0178  1.2447
 1005MOL0     O35541   0.108  10.254   6.917 -0.6435 -0.9259 -0.1949
 1005MOL0     C35542  -0.011  10.259   6.898  0.0756  0.1870 -0.6741
 1005MOL0     O35543  -0.112  10.221   6.980  0.1332  0.9765 -0.0686
 1005MOL0     C35544  -0.076  10.168   7.103 -1.2879  0.1206  0.1020
 1005MOL0     C35545  -0.054  10.248   7.213  0.0015  0.5010  0.0629
 1005MOL0     C35546  -0.023  10.188   7.341 -0.9616 -0.5439  0.1921
 1005MOL0     C35547  -0.013  10.051   7.355 -0.0989  0.1440  0.2160
 1005MOL0     O35548   0.024   9.982   7.472 -0.0575 -0.4906  0.1272
 1005MOL0     C35549   0.103  10.050   7.572  0.5786  0.2160 -0.8257
 1005MOL0     C35550   0.128   9.944   7.679  0.4896  0.2894  1.4855
 1005MOL0     C35551   0.240   9.969   7.782  0.4142 -0.3386 -0.6458
 1005MOL0     C35552   0.175  10.007   7.914 -0.1872  0.0259 -0.1577
 1005MOL0     C35553   0.256   9.978   8.042 -0.6445  0.1668 -0.7723
 1005MOL0     C35554   0.274   9.828   8.084  0.3793 -0.3697  1.3912
 1005MOL0     C35555   0.353   9.803   8.204 -0.5874  0.4071 -0.0864
 1005MOL0     C35556   0.335   9.654   8.229  0.8943  0.4557  0.2669
 1005MOL0     N35557   0.444   9.584   8.159 -0.5083 -0.1540  0.1025
 1005MOL0     C35558   0.579   9.613   8.158  0.5446 -0.8416  0.1963
 1005MOL0     C35559   0.637   9.520   8.076 -0.0263 -0.8556 -0.7566
 1005MOL0     C35560   0.785   9.522   8.046 -0.5137  0.3497  0.3858
 1005MOL0     C35561   0.856   9.402   8.098 -1.0883  0.4362 -0.9130
 1005MOL0     C35562   0.943   9.450   8.221 -0.1127 -0.2026  0.4037
 1005MOL0     C35563   1.020   9.349   8.305  0.5250  0.7524 -0.1834
 1005MOL0     O35564   1.019   9.381   8.442  0.0393  0.3220 -0.2616
 1005MOL0     C35565   1.097   9.465   8.510  0.7154 -0.4217  0.1301
 1005MOL0     C35566   1.218   9.510   8.463 -0.1705 -0.1081  0.0986
 1005MOL0     C35567   1.294   9.601   8.536  0.9344  0.4632 -0.2729
 1005MOL0     C35568   1.261   9.647   8.660  0.5399  0.3468 -0.2118
 1005MOL0     C35569   1.359   9.747   8.723 -0.3449  0.0850  0.5545
 1005MOL0     O35570   1.420   9.832   8.636 -0.4313 -0.3393 -0.7052
 1005MOL0     C35571   1.508   9.922   8.696 -0.3121  0.4746  0.3980
 1005MOL0     C35572   1.627   9.881   8.759  0.6716 -0.1730  1.0269
 1005MOL0     C35573   1.714   9.976   8.803 -0.0812  0.3374  0.7956
 1005MOL0     C35574   1.682  10.113   8.786 -0.5595 -0.3264 -0.7940
 1005MOL0     O35575   1.750  10.221   8.835  0.9630 -0.1496  0.0481
 1005MOL0     C35576   1.839  10.277   8.747 -0.3182  0.2474 -0.5550
 1005MOL0     C35577   1.937  10.368   8.840 -0.3754  0.7264  0.1470
 1005MOL0     C35578   2.049  10.415   8.746  0.4693 -0.1454 -0.0957
 1005MOL0     C35579   2.132  10.514   8.828  0.3177 -0.0535 -0.5150
 1005MOL0     C35580   2.272  10.530   8.769  0.3864  0.8831  0.4188
 1005MOL0     C35581   2.360  10.620   8.848  0.5564  0.7183 -0.1624
 1005MOL0     C35582   2.499  10.637   8.774  0.2387 -0.0623  0.2346
 1005MOL0     C35583   2.589  10.738   8.837 -0.4522 -0.3920  0.3160
 1005MOL0    Cl35584   2.750  10.742   8.747  0.0293 -0.3249 -0.3664
 1005MOL0     C35585   1.556  10.154   8.727  0.7661 -0.3185  0.7033
 1005MOL0     C35586   1.461  10.054   8.680 -0.3090 -0.3042 -0.4933
 1005MOL0     O35587   1.361   9.746   8.839  0.3293 -0.2809 -0.6710
 1005MOL0     C35588   1.134   9.604   8.714  0.1652  0.0700  0.2494
 1005MOL0     C35589   1.053   9.515   8.634  0.9282 -0.1336  0.5469
 1005MOL0     N35590   0.535   9.454   8.018  0.1787 -0.0663  0.3162
 1005MOL0     N35591   0.422   9.479   8.072 -0.4913 -0.2574 -0.9105
 1005MOL0     C35592  -0.035   9.970   7.242 -0.0842 -0.2021 -0.2750
 1005MOL0     C35593  -0.065  10.026   7.120 -0.4428  0.2215  0.1765
 1005MOL0     C35594  -0.048  10.316   6.768 -1.3639 -0.9405  0.8081
 1005MOL0     C35595   0.014  10.437   6.736  0.5605 -0.6770  0.7436
 1005MOL0     C35596  -0.017  10.509   6.626  0.7580 -0.2897  0.2172
 1005MOL0     C35597  -0.114  10.463   6.530  0.1842 -0.4058  0.1400
 1005MOL0     O35598  -0.156  10.557   6.437  0.4100  0.4060 -0.1087
 1005MOL0     C35599  -0.222  10.530   6.313 -0.8117 -1.0466  0.0237
 1005MOL0     C35600  -0.204  10.629   6.202 -0.1998 -1.0586  0.8841
 1005MOL0     C35601  -0.260  10.771   6.214  1.3895  0.5028  0.1779
 1005MOL0     C35602  -0.164  10.889   6.193 -0.3046 -0.2946  0.0159
 1005MOL0     C35603  -0.109  10.893   6.060  0.3805 -0.1336  0.4872
 1005MOL0     C35604  -0.080  10.900   5.940 -0.0285  0.1300 -0.0192
 1005MOL0     C35605  -0.171  10.343   6.552 -0.2626 -0.3503 -0.0849
 1005MOL0     C35606  -0.154  10.268   6.675 -0.8519  0.9512  0.4700
 1005MOL0     C35607  -0.229  10.142   6.707 -0.1172 -0.5612  0.3263
 1005MOL0     H35608  -0.053  10.356   7.200  0.9376  0.5427  0.4291
 1005MOL0     H35609   0.003  10.259   7.419 -2.0954 -0.2221  0.2977
 1005MOL0     H35610   0.198  10.088   7.532 -0.5795  2.2229 -1.8401
 1005MOL0     H35611   0.054  10.133   7.623  0.2801 -0.9873  0.9141
 1005MOL0     H35612   0.163   9.856   7.625 -1.7645  0.2127  0.0238
 1005MOL0     H35613   0.033   9.917   7.728  0.5257 -0.2284  1.2752
 1005MOL0     H35614   0.312  10.035   7.734  0.0389  0.1148 -0.5915
 1005MOL0     H35615   0.292   9.873   7.794 -2.2940 -2.0130 -1.2981
 1005MOL0     H35616   0.154  10.113   7.896  0.6249 -0.0110 -1.4924
 1005MOL0     H35617   0.081   9.952   7.917 -1.0097  1.2965 -1.2600
 1005MOL0     H35618   0.353  10.028   8.041  1.1234 -2.8999  1.2679
 1005MOL0     H35619   0.204  10.022   8.127  1.3174  1.2275 -0.0573
 1005MOL0     H35620   0.171   9.809   8.114 -0.3107  0.4845 -0.2825
 1005MOL0     H35621   0.311   9.776   7.995 -0.0866 -0.3097  1.1580
 1005MOL0     H35622   0.310   9.854   8.291 -2.7347 -0.2782 -0.6832
 1005MOL0     H35623   0.454   9.842   8.198  0.0209 -0.5711  2.2985
 1005MOL0     H35624   0.329   9.630   8.336 -2.5908  0.7979  0.2746
 1005MOL0     H35625   0.238   9.618   8.193  0.3861  3.0490 -1.1560
 1005MOL0     H35626   0.624   9.699   8.206 -0.7356 -0.5814  0.9581
 1005MOL0     H35627   0.806   9.508   7.939  2.3498 -0.8590  1.0081
 1005MOL0     H35628   0.812   9.616   8.094 -1.1736  0.5828  0.3114
 1005MOL0     H35629   0.783   9.329   8.133 -0.1348 -0.2404 -0.2780
 1005MOL0     H35630   0.930   9.357   8.031  2.0487  0.5324  2.1618
 1005MOL0     H35631   0.880   9.499   8.295 -1.6005 -3.2658  1.3558
 1005MOL0     H35632   1.007   9.534   8.194  0.1330 -0.1142  1.2543
 1005MOL0     H35633   1.121   9.330   8.265 -0.3495 -1.7887 -1.4018
 1005MOL0     H35634   0.968   9.253   8.301 -2.2191  2.1713 -0.9679
 1005MOL0     H35635   1.267   9.487   8.370  2.7217  0.3989  1.3867
 1005MOL0     H35636   1.384   9.640   8.490  2.4478 -0.7058  1.5454
 1005MOL0     H35637   1.646   9.774   8.766 -2.8887 -1.0240  0.0384
 1005MOL0     H35638   1.814   9.949   8.838 -0.0081 -0.5064 -0.0437
 1005MOL0     H35639   1.899  10.200   8.697  0.4177  0.1760  0.4131
 1005MOL0     H35640   1.794  10.342   8.671 -3.5556 -1.4943 -0.2615
 1005MOL0     H35641   1.885  10.455   8.881 -1.1463  1.0052 -1.3256
 1005MOL0     H35642   1.970  10.299   8.918 -0.0327  1.9723  1.1311
 1005MOL0     H35643   2.102  10.322   8.722 -2.3384 -2.4105  1.7665
 1005MOL0     H35644   2.028  10.450   8.645 -0.3778  0.0787  0.1494
 1005MOL0     H35645   2.129  10.490   8.935  3.2618  4.9669  1.0435
 1005MOL0     H35646   2.078  10.609   8.830  1.9269  0.8896  1.7975
 1005MOL0     H35647   2.277  10.567   8.667  4.0304  0.6949  0.4172
 1005MOL0     H35648   2.315  10.429   8.765 -0.0577  0.5678  2.4845
 1005MOL0     H35649   2.300  10.711   8.852 -3.9463 -1.9376 -0.2335
 1005MOL0     H35650   2.376  10.577   8.948 -0.6608 -1.9247 -1.0104
 1005MOL0     H35651   2.491  10.647   8.666  1.7153  0.1711  0.1377
 1005MOL0     H35652   2.550  10.540   8.777 -1.7748 -1.2736 -1.5956
 1005MOL0     H35653   2.551  10.839   8.819  1.6373  0.6829  1.5078
 1005MOL0     H35654   2.593  10.732   8.946 -0.9378  0.0444  0.3579
 1005MOL0     H35655   1.549  10.258   8.699  1.4032 -0.3439  0.4138
 1005MOL0     H35656   1.363  10.075   8.638  0.0968 -0.0114 -1.3072
 1005MOL0     H35657   1.103   9.648   8.808 -0.0521  0.1879  0.1220
 1005MOL0     H35658   0.952   9.494   8.669  1.2043 -0.4515  1.1588
 1005MOL0     H35659  -0.023   9.862   7.243 -1.0179 -0.4758 -3.7998
 1005MOL0     H35660  -0.077   9.960   7.034  2.1113  2.4246 -2.0247
 1005MOL0     H35661   0.081  10.482   6.808  0.6512 -0.9075  0.8041
 1005MOL0     H35662   0.027  10.607   6.612 -1.6126  0.9763  1.0168
 1005MOL0     H35663  -0.330  10.524   6.329 -1.1161  1.7271 -0.5298
 1005MOL0     H35664  -0.195  10.428   6.283 -0.1804 -1.5904  2.1956
 1005MOL0     H35665  -0.248  10.587   6.111  0.1620  2.2423 -0.9411
 1005MOL0     H35666  -0.096  10.628   6.190  0.3792 -1.7000  4.8123
 1005MOL0     H35667  -0.293  10.788   6.318 -1.0340  0.1007 -0.4537
 1005MOL0     H35668  -0.350  10.772   6.152 -0.1173 -2.8607  2.0586
 1005MOL0     H35669  -0.210  10.986   6.210  1.2446  0.3566  0.6838
 1005MOL0     H35670  -0.082  10.865   6.261 -0.6811 -4.1439 -0.6499
 1005MOL0     H35671  -0.060  10.899   5.835  0.0978  1.4501 -0.0229
 1005MOL0     H35672  -0.248  10.326   6.478 -0.5792  1.3555 -0.1704
 1005MOL0     H35673  -0.167  10.053   6.719  1.0843  0.4629  2.2256
 1005MOL0     H35674  -0.280  10.150   6.804  1.4096  1.4861  1.0377
 1005MOL0     H35675  -0.296  10.121   6.624  0.9621  0.2518 -0.7833
 1006MOL0     O35676  10.190   6.820   8.775 -0.4407  0.0531  0.1773
 1006MOL0     C35677  10.070   6.808   8.751  0.4056  0.1771 -0.9490
 1006MOL0     O35678   9.972   6.754   8.837  0.8897 -0.2227  0.3996
 1006MOL0     C35679  10.003   6.699   8.958 -0.6528 -1.0448 -0.4566
 1006MOL0     C35680   9.892   6.672   9.035  0.1619 -0.0716  0.2816
 1006MOL0     C35681   9.901   6.600   9.157  0.2963 -0.1007 -0.3542
 1006MOL0     C35682  10.032   6.562   9.206 -0.1143  0.1681 -0.5902
 1006MOL0     O35683  10.051   6.483   9.321  0.9441  0.9184  0.2067
 1006MOL0     C35684   9.943   6.380   9.339  1.0346 -0.7300  0.5439
 1006MOL0     C35685  10.019   6.284   9.444 -0.2710  0.6750  0.4248
 1006MOL0     C35686   9.952   6.160   9.501 -0.0703  0.4121 -0.4662
 1006MOL0     C35687   9.873   6.180   9.635 -0.3408 -1.3052 -0.3817
 1006MOL0     C35688   9.801   6.057   9.677 -0.3492  0.0670 -0.0987
 1006MOL0     C35689   9.668   6.093   9.760 -0.3723 -0.3434  1.1508
 1006MOL0     C35690   9.604   5.960   9.791 -0.1293 -0.3125 -0.1758
 1006MOL0     C35691   9.512   5.970   9.916  0.4919  0.2388 -0.0744
 1006MOL0     N35692   9.471   5.844   9.981 -0.1034 -0.0689 -0.1596
 1006MOL0     C35693   9.546   5.766  10.056 -0.2244  0.4440 -0.5453
 1006MOL0     C35694   9.474   5.653  10.089 -0.8520 -0.6929 -0.8454
 1006MOL0     C35695   9.511   5.509  10.125 -0.2659 -0.7862  0.5586
 1006MOL0     C35696   9.425   5.402  10.057 -0.2995 -0.4232  0.3018
 1006MOL0     C35697   9.491   5.260  10.058  0.0524 -0.8657 -0.2896
 1006MOL0     C35698   9.402   5.168   9.971 -0.1972  0.4199 -0.4580
 1006MOL0     O35699   9.361   5.058  10.047  0.4862  0.1804 -0.0313
 1006MOL0     C35700   9.333   4.942   9.989  0.4335  0.1923  0.4201
 1006MOL0     C35701   9.345   4.911   9.852 -0.2560 -0.0567  0.0108
 1006MOL0     C35702   9.327   4.784   9.808 -0.1170  1.1983  1.0556
 1006MOL0     C35703   9.291   4.677   9.892  1.0950 -0.2694  0.4653
 1006MOL0     C35704   9.266   4.544   9.829 -0.0403  0.6771 -0.7039
 1006MOL0     O35705   9.322   4.528   9.703 -0.0383  0.0788  0.6801
 1006MOL0     C35706   9.310   4.410   9.635  0.8133  0.4935 -0.2962
 1006MOL0     C35707   9.409   4.365   9.551  0.3886  0.4180 -0.1765
 1006MOL0     C35708   9.396   4.232   9.491  0.4242  0.3278  0.9559
 1006MOL0     C35709   9.279   4.155   9.502 -0.2220  0.6895  0.4045
 1006MOL0     O35710   9.262   4.036   9.442 -0.1949 -0.2216  1.1577
 1006MOL0     C35711   9.294   4.034   9.301 -0.7386  1.0313 -0.5204
 1006MOL0     C35712   9.188   3.961   9.213 -0.7466 -0.3616 -0.0777
 1006MOL0     C35713   9.213   3.976   9.058  0.0431  0.4715 -0.1230
 1006MOL0     C35714   9.134   3.874   8.984 -1.5743 -0.3814  0.7035
 1006MOL0     C35715   9.183   3.853   8.832 -0.3140 -0.4169 -0.4662
 1006MOL0     C35716   9.277   3.732   8.810  0.1263 -0.6204  0.9293
 1006MOL0     C35717   9.412   3.724   8.878 -0.2346 -0.1548  0.5751
 1006MOL0     C35718   9.496   3.608   8.841 -0.7971 -0.2353  0.2512
 1006MOL0    Cl35719   9.634   3.592   8.948  0.1188 -0.2657 -0.1720
 1006MOL0     C35720   9.178   4.206   9.586 -0.7614  0.4020 -0.5436
 1006MOL0     C35721   9.189   4.334   9.644  0.0913  0.1533  0.2734
 1006MOL0     O35722   9.201   4.466   9.888  0.1090  0.6299 -0.6951
 1006MOL0     C35723   9.284   4.707  10.026 -0.3746  0.0417 -0.3067
 1006MOL0     C35724   9.308   4.829  10.080  1.0480 -0.9706  0.6283
 1006MOL0     N35725   9.354   5.672  10.043 -0.3025 -0.3536 -0.0319
 1006MOL0     N35726   9.344   5.784   9.979 -0.4425  0.6028  0.2145
 1006MOL0     C35727  10.144   6.609   9.133  0.0781  0.7235  0.2734
 1006MOL0     C35728  10.138   6.673   9.008  0.2503  0.5132 -0.3333
 1006MOL0     C35729  10.006   6.839   8.626  0.1898  0.3115 -0.1634
 1006MOL0     C35730   9.876   6.906   8.625  0.1880  0.5007  0.1524
 1006MOL0     C35731   9.799   6.900   8.513  0.5360 -0.5045  0.0619
 1006MOL0     C35732   9.851   6.856   8.393 -0.2090 -0.3905  0.7389
 1006MOL0     O35733   9.780   6.873   8.274 -0.1852  0.1418  0.4118
 1006MOL0     C35734   9.637   6.844   8.273 -0.3003 -0.5413 -0.5698
 1006MOL0     C35735   9.608   6.695   8.309 -0.2285  0.3052 -0.3068
 1006MOL0     C35736   9.457   6.675   8.343 -0.3937 -0.0497 -0.0586
 1006MOL0     C35737   9.418   6.532   8.391  0.3853 -0.1516  0.3549
 1006MOL0     C35738   9.500   6.484   8.498 -1.2112  0.2565 -0.8516
 1006MOL0     C35739   9.580   6.438   8.577  0.0402  0.4767 -0.4181
 1006MOL0     C35740   9.985   6.811   8.392  0.1281  0.2717  0.0974
 1006MOL0     C35741  10.068   6.803   8.503  0.4044  0.0175 -0.0068
 1006MOL0     C35742  10.205   6.749   8.483  1.2869  0.4941 -0.0875
 1006MOL0     H35743   9.795   6.693   8.992  0.6015 -0.3340 -0.8871
 1006MOL0     H35744   9.809   6.569   9.206  0.4513  1.4747  0.9957
 1006MOL0     H35745   9.859   6.429   9.389  2.6969  2.5727  0.3503
 1006MOL0     H35746   9.906   6.325   9.252  0.4076  2.0618 -1.0763
 1006MOL0     H35747  10.056   6.343   9.529  1.3037 -1.2032  1.1149
 1006MOL0     H35748  10.107   6.250   9.389 -0.5924 -1.3618  1.0818
 1006MOL0     H35749  10.025   6.080   9.511 -0.0050  0.6650  1.3993
 1006MOL0     H35750   9.879   6.121   9.430  0.3606  0.6609 -1.0557
 1006MOL0     H35751   9.938   6.207   9.720 -0.4422  1.8558 -1.2231
 1006MOL0     H35752   9.809   6.268   9.632 -0.3399 -1.2200  1.1645
 1006MOL0     H35753   9.775   5.996   9.589  0.6214 -2.7967  1.4849
 1006MOL0     H35754   9.867   5.988   9.730 -2.3250 -2.8996 -1.1965
 1006MOL0     H35755   9.689   6.140   9.857  0.3339 -2.9303  2.3371
 1006MOL0     H35756   9.598   6.160   9.709 -2.0285 -1.9164  1.2512
 1006MOL0     H35757   9.677   5.881   9.812 -0.5779 -0.5624  0.4780
 1006MOL0     H35758   9.538   5.929   9.710 -0.8315 -1.0919  0.6695
 1006MOL0     H35759   9.549   6.040   9.991  1.9420  1.1756 -1.5690
 1006MOL0     H35760   9.420   6.015   9.879 -0.1806  0.2659  1.5514
 1006MOL0     H35761   9.654   5.772  10.062 -0.2159 -0.8604  2.6551
 1006MOL0     H35762   9.617   5.494  10.102  0.8778  2.3942  3.0278
 1006MOL0     H35763   9.503   5.491  10.232 -0.5107  2.4112  1.1616
 1006MOL0     H35764   9.327   5.393  10.104 -0.4019 -1.6563 -0.0921
 1006MOL0     H35765   9.397   5.417   9.953  1.9158 -0.3561 -0.3380
 1006MOL0     H35766   9.505   5.228  10.162 -0.1108  1.5479  0.5429
 1006MOL0     H35767   9.593   5.268  10.020 -0.1254 -3.2025 -1.4671
 1006MOL0     H35768   9.469   5.141   9.889 -1.1762  0.9913 -1.4636
 1006MOL0     H35769   9.311   5.212   9.931  1.0586  2.3180 -1.3527
 1006MOL0     H35770   9.395   4.973   9.778 -0.5497  1.1789  0.8162
 1006MOL0     H35771   9.345   4.762   9.703  0.6694 -0.3775  1.4841
 1006MOL0     H35772   9.499   4.422   9.531  1.0072 -0.2765  0.5575
 1006MOL0     H35773   9.471   4.189   9.426  1.9009  3.5788  0.3179
 1006MOL0     H35774   9.293   4.140   9.273 -1.6446  1.0372 -0.4938
 1006MOL0     H35775   9.399   4.006   9.293 -0.1803  2.2538  1.7390
 1006MOL0     H35776   9.188   3.856   9.245  2.3333  0.7401  4.5034
 1006MOL0     H35777   9.087   3.999   9.234 -1.5033 -2.5524  0.6109
 1006MOL0     H35778   9.174   4.072   9.022 -0.3338  0.2590 -0.2894
 1006MOL0     H35779   9.319   3.965   9.038 -0.4984 -0.3287 -2.9830
 1006MOL0     H35780   9.036   3.923   8.975 -0.3480  2.3080  1.0025
 1006MOL0     H35781   9.120   3.772   9.022 -1.1389 -0.8168 -0.2678
 1006MOL0     H35782   9.222   3.947   8.794 -1.8552 -0.1449 -1.5051
 1006MOL0     H35783   9.097   3.832   8.767 -0.5643 -0.0070 -0.2680
 1006MOL0     H35784   9.214   3.647   8.838  0.3840 -0.9979  0.3889
 1006MOL0     H35785   9.286   3.726   8.701  2.1075 -2.3989  1.1193
 1006MOL0     H35786   9.404   3.727   8.987  3.3015  2.9392  0.9568
 1006MOL0     H35787   9.471   3.810   8.844  1.1341 -0.3518  2.2796
 1006MOL0     H35788   9.444   3.512   8.846  2.5239 -2.1575  0.7932
 1006MOL0     H35789   9.524   3.618   8.736 -2.7601 -2.0633 -0.5163
 1006MOL0     H35790   9.090   4.146   9.609 -0.4274  0.1435  0.0879
 1006MOL0     H35791   9.107   4.375   9.701  1.9278  2.4575  1.4379
 1006MOL0     H35792   9.255   4.623  10.088 -2.8605  0.1519 -1.2049
 1006MOL0     H35793   9.306   4.849  10.187  1.4476 -1.3135  0.7010
 1006MOL0     H35794  10.234   6.565   9.175  1.7933  0.2429 -3.4575
 1006MOL0     H35795  10.232   6.701   8.962  0.4929 -0.7861 -0.6863
 1006MOL0     H35796   9.822   6.944   8.711 -2.6321 -0.3746 -1.1114
 1006MOL0     H35797   9.696   6.935   8.515  0.7232  0.7850 -3.9474
 1006MOL0     H35798   9.594   6.844   8.172 -1.1193 -4.8110 -0.4000
 1006MOL0     H35799   9.584   6.913   8.339 -1.1241 -0.6692 -1.0880
 1006MOL0     H35800   9.663   6.664   8.399 -0.3789 -1.4865 -0.8033
 1006MOL0     H35801   9.642   6.627   8.230 -1.7282 -0.1058 -0.6209
 1006MOL0     H35802   9.403   6.681   8.248  1.7841 -2.9204 -1.6363
 1006MOL0     H35803   9.421   6.748   8.416 -0.8813 -0.8851  0.5627
 1006MOL0     H35804   9.313   6.521   8.418  0.2359 -0.0793 -0.1975
 1006MOL0     H35805   9.439   6.458   8.314  0.3181  1.5114 -1.3416
 1006MOL0     H35806   9.649   6.396   8.648 -0.7201 -0.5528 -0.2586
 1006MOL0     H35807  10.032   6.782   8.298  0.2079  2.0015 -0.4311
 1006MOL0     H35808  10.192   6.655   8.429  0.1634  2.7696 -4.1887
 1006MOL0     H35809  10.252   6.823   8.417 -3.1220  1.9855 -1.9478
 1006MOL0     H35810  10.254   6.726   8.578  0.0032 -0.6648  0.3303
 1007MOL0     O35811   1.164  10.109   2.086  0.7267  0.4102  0.0123
 1007MOL0     C35812   1.085  10.203   2.102 -0.9679 -0.5827  0.1557
 1007MOL0     O35813   1.042  10.284   1.998 -0.0084 -0.1106 -0.2752
 1007MOL0     C35814   1.099  10.291   1.881 -0.3747 -0.4035 -0.2247
 1007MOL0     C35815   1.108  10.177   1.801  0.4728  0.1229  0.1953
 1007MOL0     C35816   1.143  10.190   1.664  1.1504 -0.0080 -0.4679
 1007MOL0     C35817   1.163  10.319   1.606 -0.2591 -0.3441 -0.5298
 1007MOL0     O35818   1.181  10.331   1.469 -0.6009  0.5345 -0.1752
 1007MOL0     C35819   1.257  10.238   1.388 -0.5908 -0.1874 -0.4667
 1007MOL0     C35820   1.395  10.219   1.442  0.2579  0.1470 -0.5970
 1007MOL0     C35821   1.481  10.152   1.333  0.3638 -0.6006  0.2744
 1007MOL0     C35822   1.625  10.177   1.335  0.0174 -0.2311 -0.1830
 1007MOL0     C35823   1.701  10.133   1.210  0.2105  0.5348  0.0281
 1007MOL0     C35824   1.691   9.981   1.163 -0.3715  0.0646  0.3925
 1007MOL0     C35825   1.781   9.966   1.039  0.4449 -0.1374  0.3946
 1007MOL0     C35826   1.764   9.840   0.957  0.0484  0.3866 -0.1668
 1007MOL0     N35827   1.798   9.715   1.039  0.0774  0.0549  0.3027
 1007MOL0     C35828   1.920   9.688   1.084  0.3904  0.0938  0.4985
 1007MOL0     C35829   1.905   9.572   1.146  0.2285 -0.4275 -0.9596
 1007MOL0     C35830   2.015   9.488   1.214 -0.1839  0.2833  0.1029
 1007MOL0     C35831   2.016   9.351   1.153 -0.4052  0.3749  0.3852
 1007MOL0     C35832   2.088   9.335   1.023 -0.6711  0.5585 -0.0333
 1007MOL0     C35833   2.045   9.209   0.933  0.0674  0.4131 -0.0657
 1007MOL0     O35834   2.109   9.211   0.808 -0.6113  0.2259 -0.4525
 1007MOL0     C35835   2.121   9.109   0.721 -0.2066  0.7869  0.2342
 1007MOL0     C35836   2.215   9.113   0.620  0.4018  0.7613 -0.0116
 1007MOL0     C35837   2.208   9.014   0.515 -0.0979  0.9210 -0.3447
 1007MOL0     C35838   2.121   8.900   0.530  0.1864 -0.6804 -0.3674
 1007MOL0     C35839   2.136   8.782   0.435  0.7624  0.0332 -0.0799
 1007MOL0     O35840   2.236   8.784   0.349  0.7267 -0.4027  0.0763
 1007MOL0     C35841   2.285   8.668   0.291  0.6389  0.4609 -0.2090
 1007MOL0     C35842   2.218   8.561   0.230 -0.2871  0.3109  0.3283
 1007MOL0     C35843   2.282   8.460   0.157  0.5432 -0.2342 -0.3131
 1007MOL0     C35844   2.421   8.456   0.145  0.4588 -0.4523  1.0038
 1007MOL0     O35845   2.479   8.370   0.053  0.3892  0.0187 -0.1994
 1007MOL0     C35846   2.605   8.308   0.096 -0.5325 -1.2472 -0.5571
 1007MOL0     C35847   2.623   8.174   0.026 -0.0924  0.5311  0.2523
 1007MOL0     C35848   2.631   8.186  -0.122  0.4710 -1.0929  0.5270
 1007MOL0     C35849   2.613   8.046  -0.188  0.1564  0.1373 -0.0290
 1007MOL0     C35850   2.576   8.050  -0.336 -0.3299 -0.7244  0.2453
 1007MOL0     C35851   2.593   7.909  -0.397 -0.6001 -0.6698 -1.0359
 1007MOL0     C35852   2.543   7.891  -0.527  0.3981 -0.0496  0.1428
 1007MOL0     C35853   2.619   7.953  -0.644 -0.2889  0.4894 -0.9377
 1007MOL0    Cl35854   2.606   8.124  -0.652  0.5819  0.6599 -0.5440
 1007MOL0     C35855   2.485   8.552   0.221 -0.0821 -0.7694  0.5512
 1007MOL0     C35856   2.423   8.656   0.294 -0.3232  0.3137  0.2987
 1007MOL0     O35857   2.075   8.674   0.467  0.2083  0.8475 -0.4471
 1007MOL0     C35858   2.034   8.896   0.638 -0.6237  0.9233 -1.0263
 1007MOL0     C35859   2.035   9.000   0.739  0.0060  1.1363  0.0392
 1007MOL0     N35860   1.773   9.528   1.124  0.7900  0.2086 -0.7899
 1007MOL0     N35861   1.712   9.612   1.054 -0.0548 -0.3470 -0.3114
 1007MOL0     C35862   1.148  10.436   1.679 -0.7618 -0.2116 -0.6366
 1007MOL0     C35863   1.116  10.418   1.822 -0.6221  0.5482  0.6828
 1007MOL0     C35864   1.051  10.239   2.235 -0.6050  0.1770  0.1433
 1007MOL0     C35865   1.099  10.364   2.283  0.7068  1.0656  0.3478
 1007MOL0     C35866   1.092  10.396   2.413 -0.3481  0.6250  0.2858
 1007MOL0     C35867   1.022  10.320   2.503  0.3871 -0.1697 -0.4093
 1007MOL0     O35868   1.002  10.360   2.632 -0.3569  0.7059  0.1896
 1007MOL0     C35869   0.867  10.420   2.655 -0.1029 -0.2289 -0.3767
 1007MOL0     C35870   0.862  10.542   2.748  0.7425 -0.7141  0.5963
 1007MOL0     C35871   0.917  10.491   2.886 -0.2235 -0.2993 -0.4658
 1007MOL0     C35872   0.942  10.611   2.988  1.0470 -0.5060  0.3651
 1007MOL0     C35873   1.071  10.667   2.967  0.2027 -0.5039  0.3146
 1007MOL0     C35874   1.185  10.711   2.952 -0.4197  0.7933 -0.3389
 1007MOL0     C35875   0.959  10.199   2.459 -0.7604  0.9381  0.2712
 1007MOL0     C35876   0.985  10.153   2.322  0.1307 -0.3328  0.6090
 1007MOL0     C35877   0.928  10.015   2.284  0.4623  0.3900  0.3694
 1007MOL0     H35878   1.088  10.078   1.840  2.1142 -0.4329 -0.2885
 1007MOL0     H35879   1.141  10.096   1.610  0.5433 -1.1349  1.4318
 1007MOL0     H35880   1.204  10.142   1.385 -0.1925 -0.4783  1.1643
 1007MOL0     H35881   1.250  10.280   1.287 -0.7279 -1.5001 -1.0362
 1007MOL0     H35882   1.392  10.168   1.539  2.0337  2.3061  0.6959
 1007MOL0     H35883   1.443  10.313   1.471  0.2662 -0.4572  1.5475
 1007MOL0     H35884   1.451  10.188   1.235  2.2140 -1.8306 -0.8007
 1007MOL0     H35885   1.463  10.044   1.333 -2.3886 -0.2029  0.9902
 1007MOL0     H35886   1.634  10.283   1.360 -0.7207 -0.7272  2.5282
 1007MOL0     H35887   1.666  10.121   1.419  0.6432  0.1732 -0.2126
 1007MOL0     H35888   1.682  10.199   1.126  0.4679  0.0089 -0.4494
 1007MOL0     H35889   1.808  10.141   1.230 -0.1881  0.9745  2.3137
 1007MOL0     H35890   1.723   9.906   1.236 -3.3192 -1.3099  0.3984
 1007MOL0     H35891   1.590   9.977   1.122 -0.2924  2.8474 -0.2831
 1007MOL0     H35892   1.887   9.988   1.056  0.5386  0.4053 -0.7948
 1007MOL0     H35893   1.746  10.045   0.971  0.2930  0.3944  1.0730
 1007MOL0     H35894   1.663   9.839   0.914  0.1620  0.5310 -0.4355
 1007MOL0     H35895   1.827   9.826   0.869  1.7634  0.1242  1.0428
 1007MOL0     H35896   2.005   9.755   1.086 -0.5781  1.4503 -1.2716
 1007MOL0     H35897   2.112   9.537   1.205  0.3952 -0.7941  0.3283
 1007MOL0     H35898   1.987   9.495   1.320  0.0251  0.0793  0.1704
 1007MOL0     H35899   2.068   9.292   1.230  1.5601  0.2235 -0.9825
 1007MOL0     H35900   1.916   9.308   1.140 -1.0711  0.6683  3.6039
 1007MOL0     H35901   2.194   9.324   1.047 -1.4774 -2.1990  3.0875
 1007MOL0     H35902   2.078   9.422   0.958  1.3180 -0.8173 -2.3749
 1007MOL0     H35903   1.938   9.203   0.915  0.1280 -0.9168 -0.0764
 1007MOL0     H35904   2.080   9.117   0.982 -2.7792 -0.0907  1.2240
 1007MOL0     H35905   2.291   9.190   0.615  0.5931  0.6551  1.0504
 1007MOL0     H35906   2.278   9.013   0.431  2.3410 -3.7084  1.3708
 1007MOL0     H35907   2.110   8.549   0.233 -0.4110  0.5024 -2.0025
 1007MOL0     H35908   2.208   8.399   0.105  0.1087  0.4072 -0.4499
 1007MOL0     H35909   2.693   8.368   0.071 -0.8876 -0.9901 -1.2127
 1007MOL0     H35910   2.604   8.293   0.204 -2.4593 -2.1193 -0.6411
 1007MOL0     H35911   2.717   8.132   0.062 -0.2899 -2.0755 -1.9219
 1007MOL0     H35912   2.549   8.104   0.066 -0.3645  0.8484  0.3141
 1007MOL0     H35913   2.544   8.244  -0.152  2.9729  1.4132 -2.6633
 1007MOL0     H35914   2.726   8.226  -0.160  0.4632 -0.3219  1.2894
 1007MOL0     H35915   2.539   7.992  -0.128 -0.4228 -2.3191 -2.7072
 1007MOL0     H35916   2.714   8.007  -0.167  0.4486  2.4602  3.6653
 1007MOL0     H35917   2.647   8.120  -0.381 -2.1488  1.7327  1.0249
 1007MOL0     H35918   2.479   8.096  -0.357  0.9648  1.4923 -1.2186
 1007MOL0     H35919   2.697   7.877  -0.389 -0.1879  1.0819  2.9204
 1007MOL0     H35920   2.537   7.838  -0.335 -1.7825  2.0112  1.1487
 1007MOL0     H35921   2.443   7.931  -0.546  0.6548 -0.2685 -1.8890
 1007MOL0     H35922   2.538   7.783  -0.542 -4.1909  0.0294 -0.1869
 1007MOL0     H35923   2.727   7.935  -0.641 -0.1428  1.3084 -0.9822
 1007MOL0     H35924   2.584   7.911  -0.738  0.5809 -3.2152  0.1970
 1007MOL0     H35925   2.593   8.560   0.212  0.1490 -3.0069  0.9479
 1007MOL0     H35926   2.475   8.733   0.351  1.8070 -3.4671  4.0091
 1007MOL0     H35927   1.982   8.807   0.671  3.0258 -0.8056  0.6758
 1007MOL0     H35928   1.958   9.003   0.816  0.0194 -1.2415  0.2246
 1007MOL0     H35929   1.155  10.542   1.654 -0.6860  0.5165  2.1039
 1007MOL0     H35930   1.102  10.501   1.891 -1.2194 -1.0826  2.6395
 1007MOL0     H35931   1.163  10.424   2.220  1.8871  1.1300  1.5740
 1007MOL0     H35932   1.158  10.476   2.445  1.4462 -2.0680  4.0282
 1007MOL0     H35933   0.798  10.353   2.707 -0.0736 -1.9892 -2.4569
 1007MOL0     H35934   0.815  10.445   2.562 -0.1120 -1.1393 -0.6227
 1007MOL0     H35935   0.764  10.590   2.759 -0.0940 -2.1248 -0.4294
 1007MOL0     H35936   0.927  10.621   2.709  0.3239  0.5946  2.4139
 1007MOL0     H35937   1.013  10.438   2.878 -0.8130 -1.4533 -0.0727
 1007MOL0     H35938   0.842  10.422   2.924  2.0587 -3.2764 -0.9158
 1007MOL0     H35939   0.869  10.691   2.973 -0.0864 -1.5392  0.2141
 1007MOL0     H35940   0.929  10.580   3.092  0.5968 -1.2039  0.1097
 1007MOL0     H35941   1.285  10.749   2.948  1.1207 -2.3253  2.7948
 1007MOL0     H35942   0.908  10.139   2.532  0.2376 -0.8820 -0.4564
 1007MOL0     H35943   0.820  10.015   2.300  0.7020  0.6076  2.2823
 1007MOL0     H35944   0.937   9.985   2.179 -4.7236  0.3968 -0.3339
 1007MOL0     H35945   0.975   9.944   2.353  0.5935  0.9991  0.9115
 1008MOL0     O35946   9.105  10.876   8.708 -0.0843  0.1597 -0.0729
 1008MOL0     C35947   9.050  10.801   8.628 -0.2774  0.6164 -0.3476
 1008MOL0     O35948   8.961  10.695   8.658 -0.7787  0.7595 -0.2334
 1008MOL0     C35949   8.939  10.665   8.794 -0.5369  0.0068  0.1962
 1008MOL0     C35950   9.020  10.584   8.879  0.0377 -0.2572  0.4278
 1008MOL0     C35951   8.975  10.555   9.008  0.7581  0.3111  0.3574
 1008MOL0     C35952   8.851  10.607   9.062 -0.0470 -0.5321  0.2381
 1008MOL0     O35953   8.801  10.587   9.188  0.3059  0.0705 -1.2325
 1008MOL0     C35954   8.880  10.511   9.285  0.8877  0.0107 -0.0822
 1008MOL0     C35955   8.858  10.365   9.285  0.0717  0.6914 -0.3193
 1008MOL0     C35956   8.906  10.298   9.414 -0.1022  0.3660  0.9744
 1008MOL0     C35957   9.057  10.256   9.405 -0.0857 -0.1821  0.6979
 1008MOL0     C35958   9.089  10.153   9.517  0.0990  0.4474 -0.2246
 1008MOL0     C35959   9.033  10.008   9.526  0.2954  0.0674  0.2627
 1008MOL0     C35960   9.067   9.944   9.652  0.6956  0.6517  0.1018
 1008MOL0     C35961   9.019   9.790   9.668  0.4583 -0.0037 -0.1560
 1008MOL0     N35962   9.027   9.747   9.817  1.0964 -0.4600  0.5101
 1008MOL0     C35963   8.955   9.787   9.933  0.1653 -0.4944  0.3017
 1008MOL0     C35964   9.003   9.704  10.025 -0.8777  0.6818 -0.8132
 1008MOL0     C35965   8.960   9.697  10.167 -0.9444 -0.5795 -0.6657
 1008MOL0     C35966   8.918   9.553  10.201  1.3674  0.2296 -0.5087
 1008MOL0     C35967   8.898   9.524  10.356  0.3184 -0.4869 -0.5664
 1008MOL0     C35968   8.780   9.597  10.419  0.5592  0.1084  0.7866
 1008MOL0     O35969   8.785   9.580  10.559 -0.2869 -0.2153 -0.0838
 1008MOL0     C35970   8.731   9.472  10.634  0.0896 -0.0637  0.9280
 1008MOL0     C35971   8.677   9.355  10.570  1.7679 -0.3078 -1.0111
 1008MOL0     C35972   8.639   9.246  10.651  0.4768  0.1781 -0.2866
 1008MOL0     C35973   8.642   9.267  10.796  0.5386  0.2255 -0.2331
 1008MOL0     C35974   8.591   9.166  10.895 -0.7152 -0.8271  0.3162
 1008MOL0     O35975   8.503   9.078  10.844  0.4942 -0.6433 -0.7064
 1008MOL0     C35976   8.466   8.969  10.930  0.2721 -0.4983 -0.6997
 1008MOL0     C35977   8.340   8.979  10.997  0.6172  0.6457  0.4412
 1008MOL0     C35978   8.294   8.875  11.078 -0.1382 -0.5570 -0.6686
 1008MOL0     C35979   8.384   8.775  11.110  0.4284 -0.2387 -1.2507
 1008MOL0     O35980   8.355   8.664  11.186  0.8788  0.0651 -0.3080
 1008MOL0     C35981   8.267   8.684  11.286  0.1041  0.1593  0.3053
 1008MOL0     C35982   8.295   8.600  11.411  1.0157 -0.2247 -0.0062
 1008MOL0     C35983   8.442   8.616  11.451  0.1791 -0.2619  0.6038
 1008MOL0     C35984   8.452   8.564  11.597  0.1098  0.4175  0.3254
 1008MOL0     C35985   8.590   8.585  11.664 -0.2575  0.2331 -0.9781
 1008MOL0     C35986   8.615   8.724  11.709  0.2502  0.3002  0.0484
 1008MOL0     C35987   8.731   8.713  11.816  0.2425 -0.0192 -0.8805
 1008MOL0     C35988   8.732   8.836  11.902  0.1374  0.4329  0.3741
 1008MOL0    Cl35989   8.777   8.968  11.795 -0.2841  0.4019 -0.2599
 1008MOL0     C35990   8.513   8.777  11.061 -0.5663 -0.2093  0.1912
 1008MOL0     C35991   8.550   8.871  10.969 -0.7923  0.1499 -0.2384
 1008MOL0     O35992   8.654   9.156  10.994  0.7791 -0.3235 -0.0709
 1008MOL0     C35993   8.683   9.390  10.851  0.1743 -0.3925  0.1454
 1008MOL0     C35994   8.740   9.485  10.772  0.3462  0.2924  0.3700
 1008MOL0     N35995   9.105   9.629   9.972 -0.9448  0.3353  0.0246
 1008MOL0     N35996   9.113   9.642   9.844 -0.3244 -0.0746  0.1774
 1008MOL0     C35997   8.766  10.676   8.977 -0.0755 -0.5489  0.4804
 1008MOL0     C35998   8.811  10.691   8.845  0.3657  0.5411  0.4502
 1008MOL0     C35999   9.052  10.839   8.485 -0.0293 -0.3914  0.6203
 1008MOL0     C36000   8.996  10.752   8.392 -0.6325  0.0081  0.2188
 1008MOL0     C36001   8.983  10.768   8.253 -0.3274 -0.7252 -0.1294
 1008MOL0     C36002   9.020  10.894   8.195 -0.7646 -0.2808  0.1675
 1008MOL0     O36003   9.010  10.922   8.057 -0.1032 -0.3694 -0.4507
 1008MOL0     C36004   9.005  10.807   7.971  0.4521  0.7288 -0.3729
 1008MOL0     C36005   8.990  10.842   7.831  0.0286 -0.6153 -0.0425
 1008MOL0     C36006   9.117  10.907   7.776  0.1026 -0.0187  0.1167
 1008MOL0     C36007   9.129  11.049   7.806 -0.2654 -0.7547  0.6522
 1008MOL0     C36008   9.261  11.110   7.751  0.1536  0.5725  0.2396
 1008MOL0     C36009   9.368  11.171   7.732 -0.6393 -0.2316  0.0343
 1008MOL0     C36010   9.067  10.993   8.279 -0.2350  0.4322  0.7150
 1008MOL0     C36011   9.085  10.966   8.419 -0.5616 -1.1203  0.2420
 1008MOL0     C36012   9.152  11.063   8.499  0.0521  0.1086 -0.4009
 1008MOL0     H36013   9.120  10.561   8.845  0.0267  0.5600 -0.1866
 1008MOL0     H36014   9.044  10.497   9.068  0.8456 -2.3478 -2.0784
 1008MOL0     H36015   8.987  10.533   9.273  0.4615  0.7957 -3.2232
 1008MOL0     H36016   8.868  10.546   9.388  0.4415  0.6602 -0.3495
 1008MOL0     H36017   8.903  10.322   9.195 -1.9909  0.2844 -1.2183
 1008MOL0     H36018   8.751  10.343   9.272 -1.2313  5.9141 -0.8295
 1008MOL0     H36019   8.853  10.207   9.441  1.9619 -1.4761 -0.8146
 1008MOL0     H36020   8.891  10.376   9.490 -0.5243  2.5543 -1.2071
 1008MOL0     H36021   9.096  10.215   9.312  2.9707 -3.4477  3.1297
 1008MOL0     H36022   9.118  10.346   9.417  0.6093 -0.4870 -0.4044
 1008MOL0     H36023   9.196  10.147   9.541 -0.1825 -0.7948  0.8715
 1008MOL0     H36024   9.042  10.186   9.610  1.1286 -1.5755  1.0947
 1008MOL0     H36025   8.924  10.018   9.522  0.1082  0.4405  3.3721
 1008MOL0     H36026   9.088   9.952   9.451  1.2437 -0.2119  1.1373
 1008MOL0     H36027   9.030  10.010   9.731 -0.1771  0.8923 -0.4996
 1008MOL0     H36028   9.176   9.943   9.660  0.8154  3.2562 -0.3734
 1008MOL0     H36029   8.914   9.789   9.636  1.0065 -4.9710 -2.7453
 1008MOL0     H36030   9.080   9.723   9.607  0.0401 -1.3056  0.8200
 1008MOL0     H36031   8.883   9.869   9.938  2.0894  1.4065 -1.2876
 1008MOL0     H36032   9.047   9.727  10.225 -0.9945  1.3937 -1.5225
 1008MOL0     H36033   8.891   9.777  10.197  2.6433  1.9591  1.6567
 1008MOL0     H36034   8.836   9.516  10.139 -0.3795 -0.1759  1.9218
 1008MOL0     H36035   9.008   9.503  10.165  2.9279  1.4136  1.4795
 1008MOL0     H36036   8.987   9.551  10.414  0.8089  0.1441 -1.5844
 1008MOL0     H36037   8.877   9.417  10.363  0.1575 -0.4965 -1.1114
 1008MOL0     H36038   8.694   9.549  10.373  1.3035  0.6235 -1.2173
 1008MOL0     H36039   8.784   9.703  10.393  0.3808 -0.2425 -0.7604
 1008MOL0     H36040   8.667   9.349  10.462  2.4303 -1.8548 -1.0116
 1008MOL0     H36041   8.584   9.160  10.613 -1.7830  0.9658  1.0174
 1008MOL0     H36042   8.275   9.065  10.985 -0.1058  0.3121  1.8109
 1008MOL0     H36043   8.187   8.883  11.094  0.0862  0.7386  0.3248
 1008MOL0     H36044   8.275   8.789  11.316 -0.8984  0.4528 -0.3718
 1008MOL0     H36045   8.166   8.671  11.246 -0.6245 -1.4061  2.4926
 1008MOL0     H36046   8.229   8.647  11.484 -0.3211 -0.2339 -1.1633
 1008MOL0     H36047   8.275   8.493  11.400  4.9107 -1.4970  2.9077
 1008MOL0     H36048   8.498   8.559  11.376 -0.1676 -0.3383  0.3972
 1008MOL0     H36049   8.456   8.724  11.442  1.6297 -0.5034 -0.2493
 1008MOL0     H36050   8.429   8.457  11.602 -0.2020  0.4438 -0.4703
 1008MOL0     H36051   8.372   8.616  11.651 -2.8884 -1.9459 -1.5397
 1008MOL0     H36052   8.672   8.549  11.600  3.0089 -0.2536  3.0657
 1008MOL0     H36053   8.603   8.521  11.751  0.9585  1.1355 -0.4647
 1008MOL0     H36054   8.645   8.783  11.622  0.7993  0.1949  0.1622
 1008MOL0     H36055   8.519   8.763  11.745  0.7562  1.5997  0.0468
 1008MOL0     H36056   8.828   8.696  11.769 -0.5324 -3.1412 -1.5719
 1008MOL0     H36057   8.727   8.633  11.891  3.5881  0.5671  0.1318
 1008MOL0     H36058   8.634   8.860  11.943  0.0830 -1.2169  1.2831
 1008MOL0     H36059   8.807   8.835  11.982 -0.0559  0.7466  0.5603
 1008MOL0     H36060   8.576   8.696  11.097 -0.6110 -0.1305  0.4512
 1008MOL0     H36061   8.650   8.856  10.928 -1.3890 -3.0463 -0.7638
 1008MOL0     H36062   8.676   9.410  10.957  4.2991  2.9851  0.0461
 1008MOL0     H36063   8.794   9.572  10.809  0.7628  0.5590 -0.8179
 1008MOL0     H36064   8.664  10.707   8.998 -0.4220 -0.1583 -1.5646
 1008MOL0     H36065   8.740  10.729   8.771  2.2947  1.7902 -0.8578
 1008MOL0     H36066   8.969  10.649   8.416 -0.2586 -0.2400 -0.3953
 1008MOL0     H36067   8.940  10.686   8.197  0.1745 -1.9120  1.1647
 1008MOL0     H36068   8.916  10.746   7.988  1.0662 -0.1004 -0.0442
 1008MOL0     H36069   9.093  10.745   7.990  0.1831  0.9650  1.9277
 1008MOL0     H36070   8.904  10.910   7.822  2.1963  2.3779  0.1441
 1008MOL0     H36071   8.991  10.756   7.764  0.9652 -0.5468 -0.1265
 1008MOL0     H36072   9.122  10.893   7.668  1.6324 -1.2323  0.2980
 1008MOL0     H36073   9.205  10.850   7.806  1.0238 -0.0835 -2.4408
 1008MOL0     H36074   9.056  11.115   7.759  2.3987  2.0706  0.1484
 1008MOL0     H36075   9.122  11.072   7.913 -0.1470 -1.7708  0.8869
 1008MOL0     H36076   9.460  11.220   7.708 -2.1996  3.9660  1.7723
 1008MOL0     H36077   9.100  11.090   8.243  0.1520  0.9121  2.2872
 1008MOL0     H36078   9.214  11.135   8.444  0.3983 -1.2612 -1.8608
 1008MOL0     H36079   9.087  11.126   8.560  2.0785 -0.1855  2.2779
 1008MOL0     H36080   9.216  11.026   8.580 -1.5075 -2.4023 -0.2054
 1009MOL0     O36081   6.981   6.902   6.220  0.5236  0.4706  0.0294
 1009MOL0     C36082   6.895   6.895   6.313 -0.8779 -0.1007 -0.4259
 1009MOL0     O36083   6.921   6.945   6.445  0.5199 -0.0593  0.1962
 1009MOL0     C36084   7.032   7.015   6.472  0.0810  0.1239 -0.2144
 1009MOL0     C36085   7.145   6.954   6.521  0.6688  0.6218  0.3229
 1009MOL0     C36086   7.261   7.020   6.558 -0.7956  0.8630  0.2344
 1009MOL0     C36087   7.260   7.162   6.547  0.1300 -0.3692 -0.4881
 1009MOL0     O36088   7.366   7.248   6.585 -0.3712 -0.7625  0.0002
 1009MOL0     C36089   7.431   7.233   6.706 -0.3049 -0.0075 -1.0439
 1009MOL0     C36090   7.447   7.371   6.775  0.2860  0.4818 -0.0527
 1009MOL0     C36091   7.525   7.371   6.904 -0.5082 -0.6800  0.0871
 1009MOL0     C36092   7.658   7.293   6.897 -0.1423 -0.6888  0.3181
 1009MOL0     C36093   7.708   7.258   7.037  0.5476  1.0484  0.7263
 1009MOL0     C36094   7.861   7.241   7.038 -0.5624 -0.5384 -0.4120
 1009MOL0     C36095   7.926   7.190   7.176 -0.2260 -1.2193  0.3940
 1009MOL0     C36096   7.972   7.314   7.254 -0.3090  0.3214 -0.8217
 1009MOL0     N36097   8.003   7.273   7.393  0.4978  0.1286  0.0364
 1009MOL0     C36098   8.115   7.212   7.428 -0.5907 -0.2089 -0.9686
 1009MOL0     C36099   8.103   7.195   7.565 -0.3296 -0.2594 -0.2081
 1009MOL0     C36100   8.206   7.157   7.671  0.6730 -0.6316 -0.7713
 1009MOL0     C36101   8.253   7.011   7.654  0.3848 -0.0455  0.3774
 1009MOL0     C36102   8.170   6.900   7.716 -0.3714  0.4163  0.3137
 1009MOL0     C36103   8.037   6.874   7.646  0.0735 -0.9427  1.1544
 1009MOL0     O36104   8.072   6.846   7.510  0.5335  0.2932 -0.3856
 1009MOL0     C36105   8.017   6.740   7.460 -0.0744 -0.2396  0.5170
 1009MOL0     C36106   7.894   6.747   7.395 -0.2333  0.8488 -0.7418
 1009MOL0     C36107   7.841   6.627   7.341  0.3313 -0.2823 -0.0512
 1009MOL0     C36108   7.911   6.508   7.341  0.8177  0.4421  0.4279
 1009MOL0     C36109   7.858   6.389   7.278  0.1226 -0.0809  0.0547
 1009MOL0     O36110   7.959   6.308   7.228 -0.1503 -0.5710 -0.5124
 1009MOL0     C36111   7.927   6.186   7.171  0.4191  0.3938  0.0485
 1009MOL0     C36112   7.995   6.127   7.067 -0.0154  0.2042  0.7376
 1009MOL0     C36113   7.961   5.998   7.015 -0.0975 -0.5384  0.7375
 1009MOL0     C36114   7.859   5.925   7.072  1.0480  0.7298  0.1484
 1009MOL0     O36115   7.825   5.804   7.036  0.9093  0.5888  0.7925
 1009MOL0     C36116   7.914   5.724   6.963 -0.7695 -0.5156  0.3517
 1009MOL0     C36117   7.902   5.584   7.019  0.4713 -0.2037  0.5986
 1009MOL0     C36118   7.985   5.485   6.933 -0.2511  0.4767  0.7427
 1009MOL0     C36119   7.983   5.354   7.012 -0.5008 -0.0210 -0.7959
 1009MOL0     C36120   8.102   5.263   6.965 -0.1559  0.9804  0.7644
 1009MOL0     C36121   8.186   5.231   7.089  0.3793 -1.0602 -0.4471
 1009MOL0     C36122   8.309   5.144   7.062 -0.5769 -0.0361 -1.0475
 1009MOL0     C36123   8.394   5.209   6.961  0.1179 -0.1122  0.2052
 1009MOL0    Cl36124   8.358   5.141   6.798 -0.1915  0.1721 -0.1930
 1009MOL0     C36125   7.787   5.985   7.175 -0.2276  0.6588  0.7086
 1009MOL0     C36126   7.828   6.106   7.231 -0.0122  0.2475  1.1073
 1009MOL0     O36127   7.741   6.367   7.267 -0.3553 -1.0176  0.9147
 1009MOL0     C36128   8.037   6.508   7.421 -0.3081  0.4650  1.0347
 1009MOL0     C36129   8.083   6.620   7.486 -0.9209  0.1776  0.3753
 1009MOL0     N36130   7.973   7.230   7.595  0.0892  0.0998 -0.7662
 1009MOL0     N36131   7.916   7.283   7.494 -0.3369  1.2360  0.3787
 1009MOL0     C36132   7.150   7.226   6.490 -0.0371  0.3343  0.3937
 1009MOL0     C36133   7.033   7.156   6.451 -0.3759 -0.6991 -0.5646
 1009MOL0     C36134   6.752   6.822   6.305  0.3090 -0.3087  0.6270
 1009MOL0     C36135   6.678   6.794   6.425 -0.5167  0.8627 -0.2430
 1009MOL0     C36136   6.561   6.719   6.407 -0.1961 -0.0690 -0.0638
 1009MOL0     C36137   6.508   6.678   6.286  0.3434  0.8070 -0.0683
 1009MOL0     O36138   6.390   6.612   6.294 -0.3452 -0.4905  0.9605
 1009MOL0     C36139   6.315   6.602   6.167  1.2532  0.2234 -0.8926
 1009MOL0     C36140   6.368   6.505   6.071 -0.8455  0.5529 -0.4472
 1009MOL0     C36141   6.318   6.530   5.925  0.2772 -0.6257  1.4224
 1009MOL0     C36142   6.329   6.417   5.822  0.4425 -0.3190  0.7838
 1009MOL0     C36143   6.274   6.471   5.698  0.0118 -0.3451 -0.3769
 1009MOL0     C36144   6.255   6.527   5.591  0.0556 -0.5105  0.3091
 1009MOL0     C36145   6.577   6.723   6.169  0.9594  1.0695  0.7808
 1009MOL0     C36146   6.698   6.787   6.173 -0.6610 -0.4573  0.3268
 1009MOL0     C36147   6.763   6.815   6.043 -0.2006 -0.1393  0.4231
 1009MOL0     H36148   7.139   6.849   6.549  0.0950 -1.0848 -4.9825
 1009MOL0     H36149   7.337   6.962   6.609 -1.0773  0.8996  0.6980
 1009MOL0     H36150   7.384   7.157   6.768 -0.1260  1.5780  1.1684
 1009MOL0     H36151   7.534   7.203   6.682  0.1912  1.8712 -1.4463
 1009MOL0     H36152   7.349   7.411   6.800 -0.1398 -1.2580  1.2674
 1009MOL0     H36153   7.494   7.438   6.702  1.7096 -0.5727 -0.1693
 1009MOL0     H36154   7.461   7.339   6.986 -1.4413  2.2493  0.5991
 1009MOL0     H36155   7.551   7.472   6.938  0.8541 -2.0864  3.6893
 1009MOL0     H36156   7.633   7.192   6.866 -1.7717 -1.0650  2.5692
 1009MOL0     H36157   7.733   7.349   6.841 -0.7851  0.5274  0.6276
 1009MOL0     H36158   7.680   7.326   7.118  3.7482 -0.4630  3.2890
 1009MOL0     H36159   7.668   7.157   7.053  0.3787  1.4025  2.8707
 1009MOL0     H36160   7.897   7.169   6.964  0.8652  1.2295 -1.5131
 1009MOL0     H36161   7.898   7.342   7.017 -2.8902  0.9030  1.7058
 1009MOL0     H36162   8.013   7.129   7.149 -0.2525  0.1508 -3.2694
 1009MOL0     H36163   7.865   7.133   7.247  2.3176 -0.3256  3.5847
 1009MOL0     H36164   8.061   7.361   7.211  0.0150  0.2243 -0.2669
 1009MOL0     H36165   7.888   7.384   7.260  0.5243  1.3218 -0.4744
 1009MOL0     H36166   8.205   7.182   7.375 -0.5700  0.3914 -1.2853
 1009MOL0     H36167   8.287   7.229   7.658  0.3183 -0.0509  0.1707
 1009MOL0     H36168   8.161   7.167   7.770  1.6541  0.6101 -0.4206
 1009MOL0     H36169   8.275   6.987   7.549 -0.2263 -1.4321  0.5511
 1009MOL0     H36170   8.352   7.006   7.699 -0.3061 -0.2036  1.9248
 1009MOL0     H36171   8.171   6.919   7.823 -0.5478 -0.0886  0.4065
 1009MOL0     H36172   8.228   6.809   7.704 -2.0461 -0.6634  0.0666
 1009MOL0     H36173   7.967   6.957   7.655  0.3308 -0.2492 -2.0154
 1009MOL0     H36174   7.987   6.789   7.693 -2.2782 -0.1413  0.2687
 1009MOL0     H36175   7.838   6.840   7.390  1.7368  2.0610 -1.5667
 1009MOL0     H36176   7.741   6.643   7.301  0.3002 -1.5516 -0.4978
 1009MOL0     H36177   8.082   6.181   7.030 -0.0414  1.0197  1.8294
 1009MOL0     H36178   8.009   5.960   6.925 -2.3819 -3.0062  0.4347
 1009MOL0     H36179   7.886   5.729   6.857  2.1767 -0.2213 -0.5142
 1009MOL0     H36180   8.018   5.757   6.962 -0.1099 -2.4638  0.5729
 1009MOL0     H36181   7.935   5.593   7.123 -2.1380 -2.9029  1.8226
 1009MOL0     H36182   7.798   5.549   7.022  1.2070 -2.4973  1.8915
 1009MOL0     H36183   7.949   5.460   6.833 -0.8379  1.1116  0.7880
 1009MOL0     H36184   8.088   5.521   6.943 -0.3594  0.6176  1.3873
 1009MOL0     H36185   7.885   5.305   7.018 -0.9023  0.9031  1.0677
 1009MOL0     H36186   7.997   5.381   7.117  1.4034 -0.9847 -0.7722
 1009MOL0     H36187   8.154   5.303   6.878 -0.3713  1.0773  0.6778
 1009MOL0     H36188   8.067   5.170   6.921  0.3861  0.8467  0.6082
 1009MOL0     H36189   8.219   5.327   7.129 -4.5217  0.6194  0.1697
 1009MOL0     H36190   8.130   5.179   7.167  1.9739 -0.2877  1.3003
 1009MOL0     H36191   8.293   5.038   7.044  2.3379 -1.1639  1.9157
 1009MOL0     H36192   8.354   5.145   7.162 -4.0650 -1.0590  0.6928
 1009MOL0     H36193   8.383   5.318   6.967 -4.4514 -0.4515  1.1313
 1009MOL0     H36194   8.495   5.177   6.987 -0.2313  0.6853  2.8045
 1009MOL0     H36195   7.693   5.940   7.206 -1.1700  3.2879  1.9705
 1009MOL0     H36196   7.768   6.140   7.315  0.9531  0.1888  1.8378
 1009MOL0     H36197   8.088   6.412   7.426  0.4530  0.6031 -2.1408
 1009MOL0     H36198   8.173   6.614   7.547 -1.1199  0.6670  0.7242
 1009MOL0     H36199   7.139   7.334   6.480 -0.0356  0.2209 -0.9333
 1009MOL0     H36200   6.939   7.197   6.417  0.5880  1.8999 -0.2804
 1009MOL0     H36201   6.706   6.835   6.521  1.1784 -1.3317  0.2909
 1009MOL0     H36202   6.517   6.686   6.500 -0.2132 -1.0574 -0.4147
 1009MOL0     H36203   6.309   6.702   6.123  2.7895  0.5699 -0.3530
 1009MOL0     H36204   6.211   6.579   6.191  1.2629  1.3939  0.4049
 1009MOL0     H36205   6.356   6.404   6.111  2.5938  1.4122  3.5292
 1009MOL0     H36206   6.477   6.503   6.061 -0.6463  4.5666 -0.7343
 1009MOL0     H36207   6.349   6.626   5.882 -2.4091  0.7949  2.4872
 1009MOL0     H36208   6.211   6.544   5.940 -0.1702  1.2597 -2.3746
 1009MOL0     H36209   6.434   6.390   5.816  0.9829  1.7131  0.0910
 1009MOL0     H36210   6.267   6.332   5.850 -3.1904  1.1215 -1.9984
 1009MOL0     H36211   6.234   6.559   5.491 -2.6296 -1.5807  0.4584
 1009MOL0     H36212   6.530   6.713   6.072 -0.6240  1.2435  1.4918
 1009MOL0     H36213   6.774   6.922   6.025 -1.8756  0.4517  2.4697
 1009MOL0     H36214   6.861   6.767   6.034  0.2307  0.8683 -0.4558
 1009MOL0     H36215   6.702   6.772   5.963  1.6294  1.9893 -2.2961
 1010MOL0     O36216   0.054   6.595   1.231 -0.3453 -0.0748  0.8683
 1010MOL0     C36217   0.173   6.567   1.239  0.1544  0.0567  0.5723
 1010MOL0     O36218   0.266   6.612   1.329 -0.1579 -0.1660  0.1419
 1010MOL0     C36219   0.223   6.702   1.420 -0.6798  0.1873 -0.7437
 1010MOL0     C36220   0.170   6.667   1.544  0.8842 -1.0653  1.0881
 1010MOL0     C36221   0.140   6.766   1.641  0.5192 -0.6768  0.6319
 1010MOL0     C36222   0.174   6.901   1.619 -1.2052 -0.5614 -0.3088
 1010MOL0     O36223   0.149   6.986   1.718  0.4125 -0.3534 -0.2781
 1010MOL0     C36224   0.200   7.122   1.703 -0.5447 -0.0213  0.2635
 1010MOL0     C36225   0.157   7.197   1.827  0.2487 -0.2835  0.6011
 1010MOL0     C36226   0.187   7.349   1.823  0.2000  0.0744  0.3071
 1010MOL0     C36227   0.099   7.412   1.933  0.5035  0.8004  0.3481
 1010MOL0     C36228   0.144   7.555   1.971 -1.1138 -0.1681  0.1062
 1010MOL0     C36229   0.030   7.651   2.028 -0.5428  0.4564  0.0507
 1010MOL0     C36230   0.012   7.615   2.172 -0.2953 -0.1034 -0.6199
 1010MOL0     C36231   0.125   7.669   2.266 -0.4388  0.2976 -0.8995
 1010MOL0     N36232   0.128   7.620   2.404 -0.0601  0.4251  0.4739
 1010MOL0     C36233   0.012   7.579   2.472 -0.3814 -0.3868 -0.2189
 1010MOL0     C36234   0.053   7.547   2.596  0.3244 -0.4423  0.2727
 1010MOL0     C36235  -0.030   7.484   2.709  0.5557 -0.1017  0.2268
 1010MOL0     C36236   0.016   7.342   2.727  0.3689 -0.2881  0.5411
 1010MOL0     C36237  -0.044   7.274   2.847 -0.3301  0.1715  0.3510
 1010MOL0     C36238   0.054   7.263   2.971  0.8800 -0.2720  0.3305
 1010MOL0     O36239  -0.017   7.233   3.093  0.5415  0.9209  0.3624
 1010MOL0     C36240   0.027   7.262   3.218 -0.6718 -0.8244  0.2484
 1010MOL0     C36241  -0.049   7.343   3.304 -0.3852 -0.1428  0.8254
 1010MOL0     C36242   0.004   7.395   3.421 -0.3219 -0.6344 -1.3253
 1010MOL0     C36243   0.133   7.361   3.461  0.1700 -0.0059 -0.2174
 1010MOL0     C36244   0.179   7.422   3.584  0.2418  0.4792 -0.4329
 1010MOL0     O36245   0.087   7.504   3.659 -0.2042  0.2833  0.8599
 1010MOL0     C36246   0.126   7.576   3.766 -0.1176 -0.4173 -0.5966
 1010MOL0     C36247   0.078   7.706   3.777  0.1405 -0.2918  0.6016
 1010MOL0     C36248   0.118   7.796   3.862 -1.2377 -0.0769  0.6084
 1010MOL0     C36249   0.202   7.763   3.968 -0.8835 -0.6583 -0.4519
 1010MOL0     O36250   0.259   7.863   4.055 -0.7583  1.0070  0.5159
 1010MOL0     C36251   0.195   7.990   4.077 -0.0153 -0.7513 -0.1945
 1010MOL0     C36252   0.257   8.051   4.209 -0.2495  0.1674  0.4290
 1010MOL0     C36253   0.408   8.078   4.187  0.9823  0.9856 -1.1078
 1010MOL0     C36254   0.464   8.150   4.315  0.3794 -0.4671  0.4082
 1010MOL0     C36255   0.421   8.300   4.315  0.1895  0.3855  0.1778
 1010MOL0     C36256   0.486   8.367   4.442 -0.1144  0.2641  0.4853
 1010MOL0     C36257   0.439   8.513   4.445  0.1508  0.4783 -0.1737
 1010MOL0     C36258   0.308   8.527   4.520  0.5356 -0.1782 -0.3897
 1010MOL0    Cl36259   0.266   8.692   4.522 -0.3590 -0.2186  0.3908
 1010MOL0     C36260   0.244   7.628   3.983  0.1961  0.2907  1.2796
 1010MOL0     C36261   0.199   7.534   3.882  0.2561 -0.0906  0.0702
 1010MOL0     O36262   0.296   7.398   3.620 -0.0833 -0.0723  0.2342
 1010MOL0     C36263   0.203   7.274   3.373  0.2038  0.1088  0.3940
 1010MOL0     C36264   0.157   7.227   3.248 -0.8075 -0.0553  0.1690
 1010MOL0     N36265   0.179   7.586   2.618  0.0229 -0.2234 -0.5489
 1010MOL0     N36266   0.227   7.621   2.499  0.1529  0.3923 -0.7537
 1010MOL0     C36267   0.228   6.935   1.496  0.6749  0.4821 -0.3783
 1010MOL0     C36268   0.247   6.838   1.396  0.3537  0.8975 -0.4203
 1010MOL0     C36269   0.217   6.451   1.155 -0.8483  0.3024 -0.4300
 1010MOL0     C36270   0.295   6.357   1.224 -0.1282  0.3809 -0.1363
 1010MOL0     C36271   0.333   6.249   1.148 -0.0440  0.1069 -0.2117
 1010MOL0     C36272   0.316   6.238   1.011 -0.0232 -0.4400  0.3214
 1010MOL0     O36273   0.365   6.109   0.974 -0.0601  0.3236  0.4333
 1010MOL0     C36274   0.368   6.072   0.834 -0.1705  0.3327  0.6686
 1010MOL0     C36275   0.254   5.985   0.788 -0.8412 -0.4724  0.4898
 1010MOL0     C36276   0.239   5.996   0.624 -0.7785  0.5189 -0.3254
 1010MOL0     C36277   0.364   5.994   0.531  0.1441 -0.0405 -0.4880
 1010MOL0     C36278   0.327   5.985   0.395 -0.4900  0.5886 -0.2582
 1010MOL0     C36279   0.306   5.976   0.279 -0.1151 -0.0999 -0.2175
 1010MOL0     C36280   0.232   6.319   0.943  0.0492  0.5440  0.1209
 1010MOL0     C36281   0.187   6.431   1.015  0.2643 -0.0905  0.6530
 1010MOL0     C36282   0.100   6.524   0.947 -0.2648  0.3312  0.5903
 1010MOL0     H36283   0.154   6.561   1.565 -2.2778 -0.7164  0.9238
 1010MOL0     H36284   0.088   6.722   1.725 -0.7857  0.9138  0.7120
 1010MOL0     H36285   0.309   7.132   1.696 -0.4085 -1.3161  0.2684
 1010MOL0     H36286   0.157   7.168   1.613  0.0513 -1.1347 -0.6206
 1010MOL0     H36287   0.208   7.154   1.913 -3.0613 -0.9369  2.3831
 1010MOL0     H36288   0.051   7.188   1.850  0.8753  0.4431  4.2743
 1010MOL0     H36289   0.184   7.395   1.724  3.8041 -2.8614 -1.4141
 1010MOL0     H36290   0.293   7.356   1.847  0.8261  1.4052 -2.4176
 1010MOL0     H36291  -0.002   7.406   1.891  0.3370 -3.2722  0.8814
 1010MOL0     H36292   0.107   7.351   2.024  1.4794 -0.7351 -0.7108
 1010MOL0     H36293   0.235   7.535   2.028 -0.3637  0.0102 -0.9921
 1010MOL0     H36294   0.182   7.607   1.883 -1.0963  0.6337  0.5793
 1010MOL0     H36295   0.048   7.759   2.018 -0.3258  0.5263  1.0592
 1010MOL0     H36296  -0.067   7.632   1.981 -0.9980  3.8533 -0.6333
 1010MOL0     H36297   0.000   7.506   2.175  0.2206 -0.1718 -0.9055
 1010MOL0     H36298  -0.083   7.659   2.203  0.8877  1.0082  1.7234
 1010MOL0     H36299   0.224   7.654   2.224 -0.9404 -1.4597 -1.5583
 1010MOL0     H36300   0.129   7.777   2.280 -2.0768  0.1055  1.8173
 1010MOL0     H36301  -0.088   7.582   2.429 -0.5654 -1.5332  0.0766
 1010MOL0     H36302  -0.015   7.540   2.801  1.7533  2.5081 -1.4253
 1010MOL0     H36303  -0.138   7.492   2.692  0.3135  1.1151  2.1045
 1010MOL0     H36304  -0.020   7.283   2.643  0.2896 -0.3203  0.5979
 1010MOL0     H36305   0.124   7.324   2.734 -0.2049 -5.1191  0.3845
 1010MOL0     H36306  -0.073   7.171   2.824  2.6049 -0.4735 -0.9018
 1010MOL0     H36307  -0.138   7.327   2.869 -2.3429 -2.6601 -0.8684
 1010MOL0     H36308   0.110   7.357   2.972 -1.8890  1.5150  0.0071
 1010MOL0     H36309   0.122   7.182   2.947 -1.5586 -1.9291 -1.4487
 1010MOL0     H36310  -0.154   7.358   3.281 -1.1418 -2.7190  2.2676
 1010MOL0     H36311  -0.038   7.473   3.483  4.4409  0.3167  1.1580
 1010MOL0     H36312   0.027   7.736   3.686  0.3681  2.1472  1.2208
 1010MOL0     H36313   0.095   7.902   3.857 -1.0448 -0.0731 -0.3143
 1010MOL0     H36314   0.217   8.051   3.989  1.5782  0.6593  1.1189
 1010MOL0     H36315   0.086   7.990   4.087  0.1017 -0.6793  1.4439
 1010MOL0     H36316   0.207   8.147   4.223  0.3930  0.3834  1.3101
 1010MOL0     H36317   0.230   8.001   4.302  1.9888  0.9163  1.5462
 1010MOL0     H36318   0.447   7.976   4.172 -1.4498 -0.1538 -0.1811
 1010MOL0     H36319   0.442   8.138   4.102  2.6546  1.2688 -0.2850
 1010MOL0     H36320   0.572   8.152   4.303  0.3505  1.9215  0.1013
 1010MOL0     H36321   0.437   8.111   4.414 -0.8869 -0.1027  0.2253
 1010MOL0     H36322   0.313   8.298   4.332  0.1300 -0.5921 -0.2398
 1010MOL0     H36323   0.450   8.347   4.220  0.7791 -0.3512 -0.0135
 1010MOL0     H36324   0.459   8.320   4.537  3.6939 -1.9788  0.6933
 1010MOL0     H36325   0.595   8.367   4.452 -0.2649 -0.4075  2.5891
 1010MOL0     H36326   0.440   8.565   4.349  0.9438 -0.0595 -0.4655
 1010MOL0     H36327   0.512   8.565   4.508 -0.2113  1.2129 -0.3476
 1010MOL0     H36328   0.220   8.485   4.469 -0.0188  2.1827 -1.4949
 1010MOL0     H36329   0.317   8.489   4.622  0.8248  1.9245  0.4022
 1010MOL0     H36330   0.321   7.585   4.046  0.0620  1.0480  1.9662
 1010MOL0     H36331   0.246   7.437   3.866 -1.9322 -0.8813 -2.1366
 1010MOL0     H36332   0.310   7.263   3.385  0.0867  0.3315  1.9554
 1010MOL0     H36333   0.210   7.166   3.175 -2.1668 -0.2540 -0.6742
 1010MOL0     H36334   0.229   7.038   1.461  1.8159  1.2933  1.8679
 1010MOL0     H36335   0.279   6.870   1.297  1.4255 -1.4751 -0.8919
 1010MOL0     H36336   0.337   6.359   1.324 -0.7103 -1.6517  0.1862
 1010MOL0     H36337   0.399   6.180   1.200  4.2420  0.4184 -4.5855
 1010MOL0     H36338   0.463   6.022   0.815 -0.8318 -0.7074 -0.0312
 1010MOL0     H36339   0.356   6.170   0.789 -0.0588  1.0439  2.1122
 1010MOL0     H36340   0.159   6.023   0.827 -0.0343  1.4217  0.7646
 1010MOL0     H36341   0.272   5.882   0.820  1.3307 -0.8615 -1.6762
 1010MOL0     H36342   0.193   6.091   0.597 -3.4287 -0.4370  0.5577
 1010MOL0     H36343   0.184   5.905   0.599  2.7503 -1.4571 -1.5733
 1010MOL0     H36344   0.416   6.089   0.543  2.7099 -1.3704 -0.5392
 1010MOL0     H36345   0.435   5.915   0.556 -1.4320 -1.3788 -0.0649
 1010MOL0     H36346   0.301   5.997   0.174 -2.4367  1.1214  0.0765
 1010MOL0     H36347   0.190   6.296   0.846 -2.7990  0.3879  1.2717
 1010MOL0     H36348   0.009   6.475   0.912  0.8763 -0.5407 -1.3656
 1010MOL0     H36349   0.076   6.617   0.999  3.0053  1.5029  0.2592
 1010MOL0     H36350   0.147   6.551   0.852 -0.1657 -0.2852  0.4623
 1011MOL0     O36351   4.088   0.306   1.207 -0.0147 -0.0527  0.0689
 1011MOL0     C36352   4.204   0.339   1.237 -0.2450 -0.0354 -0.3186
 1011MOL0     O36353   4.317   0.286   1.179  0.4141  0.5762 -0.5087
 1011MOL0     C36354   4.305   0.172   1.104 -0.0169  0.4195 -0.5296
 1011MOL0     C36355   4.257   0.041   1.138 -0.2551 -1.1929 -0.2657
 1011MOL0     C36356   4.264  -0.063   1.045 -0.1354 -0.0476 -0.2960
 1011MOL0     C36357   4.331  -0.046   0.919  1.2541  0.2618  0.1129
 1011MOL0     O36358   4.347  -0.139   0.820 -0.1787  0.6458 -0.6668
 1011MOL0     C36359   4.244  -0.239   0.826  0.4798 -0.6435  0.3834
 1011MOL0     C36360   4.253  -0.345   0.705 -0.0383  0.5359 -0.9458
 1011MOL0     C36361   4.139  -0.442   0.730 -0.4220  1.0873  0.4479
 1011MOL0     C36362   4.133  -0.558   0.633  0.0673 -0.5812  0.1945
 1011MOL0     C36363   4.010  -0.657   0.654  0.1128  0.0369 -0.7056
 1011MOL0     C36364   3.878  -0.599   0.605 -0.1449  0.1223  1.2804
 1011MOL0     C36365   3.763  -0.693   0.644  0.2254 -0.0577 -1.0352
 1011MOL0     C36366   3.625  -0.626   0.624 -0.5395  0.7528  0.1710
 1011MOL0     N36367   3.624  -0.565   0.489  0.2059 -0.9882 -0.1180
 1011MOL0     C36368   3.627  -0.626   0.366 -0.7208 -1.0844 -0.2616
 1011MOL0     C36369   3.621  -0.526   0.278 -0.6384  0.3906 -0.0020
 1011MOL0     C36370   3.624  -0.528   0.127 -0.0025  0.1936 -0.5329
 1011MOL0     C36371   3.737  -0.450   0.053  0.3772 -0.1468  0.2168
 1011MOL0     C36372   3.863  -0.428   0.134 -1.2486  1.2478 -0.4172
 1011MOL0     C36373   3.957  -0.332   0.063 -0.1017 -0.3314  0.3091
 1011MOL0     O36374   3.950  -0.344  -0.081 -0.1937  0.5882  0.4281
 1011MOL0     C36375   3.986  -0.229  -0.144 -0.6262 -0.8915  0.6986
 1011MOL0     C36376   4.123  -0.209  -0.168  0.2457  0.0893 -0.1401
 1011MOL0     C36377   4.164  -0.089  -0.229 -0.1960  0.7425 -0.0175
 1011MOL0     C36378   4.071   0.007  -0.265 -0.4376 -0.2713  0.4043
 1011MOL0     C36379   4.114   0.139  -0.313  0.5856 -0.1063 -0.6292
 1011MOL0     O36380   4.247   0.157  -0.339  0.1732  0.0071 -1.0333
 1011MOL0     C36381   4.293   0.283  -0.369  0.1159  0.0373  0.9051
 1011MOL0     C36382   4.363   0.279  -0.492  0.0530 -0.0114  0.3116
 1011MOL0     C36383   4.392   0.400  -0.557  0.6362 -0.0858 -0.1149
 1011MOL0     C36384   4.340   0.520  -0.505  0.4021 -0.2431 -0.5166
 1011MOL0     O36385   4.353   0.644  -0.554 -0.7147 -0.3002  0.4825
 1011MOL0     C36386   4.357   0.659  -0.700  0.3722  0.2859 -0.1171
 1011MOL0     C36387   4.287   0.789  -0.748  1.5585 -0.1665 -0.0442
 1011MOL0     C36388   4.143   0.791  -0.702 -0.4684  0.5165  0.5542
 1011MOL0     C36389   4.071   0.919  -0.727 -0.5737  0.2037  0.1935
 1011MOL0     C36390   3.959   0.922  -0.620  0.4572  0.6862 -0.6190
 1011MOL0     C36391   3.876   1.055  -0.640  0.1867 -0.3042 -0.3495
 1011MOL0     C36392   3.761   1.050  -0.534 -0.7234  0.8185  0.5140
 1011MOL0     C36393   3.671   1.176  -0.545 -0.5770  0.5187 -0.2143
 1011MOL0    Cl36394   3.595   1.187  -0.386  0.6313  0.2107  0.5117
 1011MOL0     C36395   4.278   0.517  -0.381  1.0345  0.2938 -0.2231
 1011MOL0     C36396   4.257   0.399  -0.307 -0.0300  0.8762  0.6835
 1011MOL0     O36397   4.030   0.221  -0.342  0.1392  0.1048  0.6982
 1011MOL0     C36398   3.932  -0.015  -0.236 -0.0679  0.2138 -0.8379
 1011MOL0     C36399   3.887  -0.137  -0.183 -0.2964  0.4647 -0.4124
 1011MOL0     N36400   3.602  -0.405   0.348  0.3006  0.3490  0.0185
 1011MOL0     N36401   3.595  -0.432   0.472 -0.4603  0.4463  0.2394
 1011MOL0     C36402   4.394   0.075   0.896 -0.1543  0.7222 -0.7626
 1011MOL0     C36403   4.379   0.177   0.986 -0.7275 -1.1895  0.7236
 1011MOL0     C36404   4.218   0.474   1.316  0.5673 -0.9010 -1.0054
 1011MOL0     C36405   4.349   0.523   1.340 -0.4422  0.2729 -0.3550
 1011MOL0     C36406   4.370   0.654   1.382  0.6020 -0.1266 -0.2079
 1011MOL0     C36407   4.268   0.729   1.450  0.1159  0.6328  1.1071
 1011MOL0     O36408   4.298   0.839   1.511  0.6444 -0.6662  0.2633
 1011MOL0     C36409   4.207   0.919   1.589  0.6817  1.4138  0.4323
 1011MOL0     C36410   4.301   1.030   1.636  0.5041  0.4978 -0.4294
 1011MOL0     C36411   4.427   0.988   1.718 -0.1607  0.2625  0.1965
 1011MOL0     C36412   4.435   1.029   1.874 -0.0349 -0.1489  0.2275
 1011MOL0     C36413   4.316   0.973   1.934 -0.0675 -0.2943  0.6389
 1011MOL0     C36414   4.216   0.920   1.981  1.0487 -0.7052  0.5084
 1011MOL0     C36415   4.141   0.668   1.439 -0.6418 -0.4392 -0.3628
 1011MOL0     C36416   4.112   0.549   1.365 -0.7664 -0.1661  0.1727
 1011MOL0     C36417   3.974   0.505   1.361 -0.2359 -0.3286 -0.0552
 1011MOL0     H36418   4.203   0.034   1.232 -0.8363  1.0842 -0.3724
 1011MOL0     H36419   4.207  -0.154   1.063 -0.8128  0.2862 -0.6929
 1011MOL0     H36420   4.255  -0.298   0.917 -1.4703  0.9077  1.7126
 1011MOL0     H36421   4.143  -0.198   0.815  0.6319 -0.8822 -3.5713
 1011MOL0     H36422   4.352  -0.392   0.703  0.1258  0.6069  1.7230
 1011MOL0     H36423   4.233  -0.297   0.609 -1.7294  3.5872  0.7930
 1011MOL0     H36424   4.042  -0.391   0.725 -0.1716  1.4547 -1.1107
 1011MOL0     H36425   4.154  -0.485   0.830 -0.2262  0.4141  0.1355
 1011MOL0     H36426   4.141  -0.516   0.532  0.7202  0.5526  0.6872
 1011MOL0     H36427   4.219  -0.624   0.646  2.7633  1.9462 -2.9549
 1011MOL0     H36428   4.025  -0.754   0.607 -0.3765  0.7613 -2.4208
 1011MOL0     H36429   4.003  -0.681   0.761 -2.2566  1.0242 -0.5791
 1011MOL0     H36430   3.868  -0.502   0.654  0.9113  0.2038  1.3692
 1011MOL0     H36431   3.893  -0.593   0.497 -0.1345  4.2213  1.3343
 1011MOL0     H36432   3.765  -0.732   0.746 -2.9296 -0.1909 -0.9371
 1011MOL0     H36433   3.772  -0.767   0.565  1.4008 -0.6509 -0.3671
 1011MOL0     H36434   3.544  -0.700   0.616 -1.5350  1.9034 -0.8277
 1011MOL0     H36435   3.605  -0.554   0.704  0.7649  0.7115  0.5471
 1011MOL0     H36436   3.644  -0.733   0.358  0.9071 -0.7513 -1.7511
 1011MOL0     H36437   3.630  -0.628   0.082  2.1298  0.9337 -2.0728
 1011MOL0     H36438   3.528  -0.492   0.088  0.8864 -0.2938 -3.4051
 1011MOL0     H36439   3.750  -0.502  -0.042  0.7674 -0.3480  0.3761
 1011MOL0     H36440   3.692  -0.353   0.029 -1.0599 -1.5211 -3.2315
 1011MOL0     H36441   3.907  -0.527   0.148  1.4060  2.5261  1.0826
 1011MOL0     H36442   3.843  -0.398   0.237 -0.9377 -1.0740  0.3833
 1011MOL0     H36443   4.057  -0.351   0.103 -0.5594 -1.1261  1.1149
 1011MOL0     H36444   3.939  -0.233   0.105  5.7535  0.9356  0.7875
 1011MOL0     H36445   4.189  -0.286  -0.130 -1.6771 -0.6417  1.9886
 1011MOL0     H36446   4.270  -0.068  -0.242 -0.4771  1.7852 -0.7388
 1011MOL0     H36447   4.365   0.180  -0.536 -0.0203 -0.3495  1.0469
 1011MOL0     H36448   4.459   0.403  -0.643  0.3749  0.4566 -0.3035
 1011MOL0     H36449   4.459   0.661  -0.739  1.0771  3.5688  1.5062
 1011MOL0     H36450   4.310   0.571  -0.744  2.5333 -1.0269  0.0468
 1011MOL0     H36451   4.332   0.877  -0.701  2.5573 -1.1644  0.9282
 1011MOL0     H36452   4.301   0.804  -0.855 -3.0562 -1.0084 -0.9661
 1011MOL0     H36453   4.083   0.717  -0.756  1.3881 -1.1043  0.6248
 1011MOL0     H36454   4.140   0.767  -0.596 -1.7151 -0.6829  0.2685
 1011MOL0     H36455   4.029   0.928  -0.828 -1.0932 -0.9790  0.2901
 1011MOL0     H36456   4.141   1.002  -0.713 -1.1134  0.6480  0.2952
 1011MOL0     H36457   3.995   0.916  -0.517 -0.6846  1.8190 -0.1221
 1011MOL0     H36458   3.890   0.840  -0.642  3.7039 -3.5533  3.0678
 1011MOL0     H36459   3.939   1.144  -0.633  0.2158 -0.3647  0.1902
 1011MOL0     H36460   3.834   1.062  -0.741 -0.2202  0.0962 -0.1567
 1011MOL0     H36461   3.812   1.053  -0.437  1.6612  1.9578 -0.6909
 1011MOL0     H36462   3.711   0.952  -0.536  0.3733  0.2317  0.8645
 1011MOL0     H36463   3.727   1.268  -0.564 -0.9346  0.8390  0.2580
 1011MOL0     H36464   3.604   1.164  -0.631  1.8039 -1.3072 -1.9357
 1011MOL0     H36465   4.248   0.611  -0.336  0.2393 -1.3965  3.0543
 1011MOL0     H36466   4.202   0.384  -0.214 -0.9183  1.2910  0.2428
 1011MOL0     H36467   3.855   0.059  -0.256 -0.6636 -0.8370 -2.5522
 1011MOL0     H36468   3.781  -0.155  -0.174 -0.5138  2.4373  2.1573
 1011MOL0     H36469   4.454   0.080   0.805  1.3652  0.7762  0.1994
 1011MOL0     H36470   4.443   0.261   0.961  1.6684 -2.3972  2.4980
 1011MOL0     H36471   4.435   0.466   1.306  0.0367  2.2394 -2.7224
 1011MOL0     H36472   4.475   0.676   1.395  0.9371 -2.8901  3.3377
 1011MOL0     H36473   4.182   0.849   1.669  0.3363 -0.3814 -1.1608
 1011MOL0     H36474   4.119   0.950   1.532  0.8487  1.1830  0.0371
 1011MOL0     H36475   4.233   1.095   1.691  1.9261 -0.0429  2.1406
 1011MOL0     H36476   4.329   1.067   1.537 -1.2678  1.6264 -0.5419
 1011MOL0     H36477   4.514   1.033   1.670  2.2848  0.1317  4.0318
 1011MOL0     H36478   4.439   0.879   1.720 -1.7281  0.0848  1.3802
 1011MOL0     H36479   4.518   0.975   1.919  0.8722  1.0130  0.0047
 1011MOL0     H36480   4.439   1.138   1.887  0.0879 -0.1556  0.2469
 1011MOL0     H36481   4.145   0.861   2.036  0.7595 -3.5679 -2.5931
 1011MOL0     H36482   4.059   0.710   1.496 -0.7991 -1.2095 -0.0068
 1011MOL0     H36483   3.959   0.397   1.371  0.6140 -0.7078 -2.2509
 1011MOL0     H36484   3.916   0.566   1.431  2.0087  1.7999  0.0910
 1011MOL0     H36485   3.936   0.522   1.260  1.1645  0.5386 -0.4631
 1012MOL0     O36486   8.566   5.068   8.169 -0.7207  0.1781  0.0041
 1012MOL0     C36487   8.524   4.968   8.105  0.4456 -0.1125 -0.1629
 1012MOL0     O36488   8.488   4.852   8.166  0.2347  1.1731  0.4950
 1012MOL0     C36489   8.488   4.855   8.307  0.1305  0.1733  0.1121
 1012MOL0     C36490   8.589   4.788   8.375 -0.2887 -0.3669  0.4444
 1012MOL0     C36491   8.601   4.794   8.520  0.7770  0.1305  0.5935
 1012MOL0     C36492   8.506   4.859   8.596  0.2926 -0.6311  0.1385
 1012MOL0     O36493   8.497   4.870   8.734  0.1658  0.3521 -0.0096
 1012MOL0     C36494   8.627   4.861   8.802 -0.1414  0.3295 -0.0288
 1012MOL0     C36495   8.618   4.895   8.945 -0.4228  0.4615 -0.2314
 1012MOL0     C36496   8.541   4.771   9.012 -1.0959  0.3168 -0.1240
 1012MOL0     C36497   8.495   4.816   9.153 -1.0752  0.2410  0.3584
 1012MOL0     C36498   8.625   4.802   9.236 -0.2361  0.0133 -0.1330
 1012MOL0     C36499   8.608   4.786   9.393 -0.3147  0.5031  0.4468
 1012MOL0     C36500   8.506   4.895   9.441 -0.1403 -0.1959 -0.1407
 1012MOL0     C36501   8.465   4.877   9.587 -0.1928 -0.2171 -0.1564
 1012MOL0     N36502   8.376   4.766   9.611  0.6636 -0.4555  0.3722
 1012MOL0     C36503   8.410   4.643   9.657  0.1965  0.0934 -0.6306
 1012MOL0     C36504   8.291   4.585   9.661  0.8224 -0.6726 -0.1832
 1012MOL0     C36505   8.266   4.439   9.696 -1.0315  0.4764 -0.6859
 1012MOL0     C36506   8.318   4.387   9.832 -0.4913 -0.2161 -0.0283
 1012MOL0     C36507   8.347   4.246   9.841 -0.6952  0.1161 -0.3115
 1012MOL0     C36508   8.494   4.216   9.790  0.9064  0.0927 -0.1608
 1012MOL0     O36509   8.489   4.224   9.645  0.5486  0.1739 -0.3090
 1012MOL0     C36510   8.458   4.118   9.571 -0.7657 -0.4843  0.2133
 1012MOL0     C36511   8.415   4.153   9.445 -1.0058  0.4051 -0.7618
 1012MOL0     C36512   8.388   4.052   9.351 -0.2681  0.2501 -0.6149
 1012MOL0     C36513   8.391   3.917   9.388 -0.5498  0.4919 -0.1697
 1012MOL0     C36514   8.356   3.814   9.290  0.5030  0.8726  0.3817
 1012MOL0     O36515   8.378   3.690   9.333  0.1408 -0.2581  0.5950
 1012MOL0     C36516   8.370   3.583   9.245 -0.4958  0.2701 -0.9591
 1012MOL0     C36517   8.271   3.501   9.274  0.1559 -0.2628 -0.1008
 1012MOL0     C36518   8.246   3.397   9.188 -0.0563  0.5420 -0.3087
 1012MOL0     C36519   8.313   3.375   9.068  0.1609 -0.6529  0.5718
 1012MOL0     O36520   8.287   3.268   8.989 -0.5216  0.4523  0.0380
 1012MOL0     C36521   8.157   3.266   8.936 -1.0456 -0.4687  0.0398
 1012MOL0     C36522   8.141   3.375   8.830  0.1531  0.0097 -1.0736
 1012MOL0     C36523   8.045   3.327   8.720  0.4577  0.5631  0.2108
 1012MOL0     C36524   8.006   3.441   8.612  0.3953  0.4937  0.5399
 1012MOL0     C36525   7.902   3.405   8.515  0.2962  0.3477  0.3330
 1012MOL0     C36526   7.971   3.382   8.381  0.0778 -0.2546 -0.0695
 1012MOL0     C36527   7.869   3.368   8.271  0.5002  0.0529 -0.4969
 1012MOL0     C36528   7.933   3.353   8.142  0.6153  0.3187 -0.3197
 1012MOL0    Cl36529   8.015   3.517   8.105 -0.3597  0.2880  0.0419
 1012MOL0     C36530   8.409   3.471   9.033  0.3954  0.0673 -0.2078
 1012MOL0     C36531   8.438   3.568   9.124  0.5750  0.1589  0.5919
 1012MOL0     O36532   8.319   3.850   9.179  0.3996  0.5370 -0.0454
 1012MOL0     C36533   8.436   3.882   9.518 -0.2152  0.2578  0.2266
 1012MOL0     C36534   8.472   3.980   9.612 -0.3331  0.0503  1.0228
 1012MOL0     N36535   8.193   4.664   9.613  0.4811  0.8939 -1.2529
 1012MOL0     N36536   8.247   4.777   9.577 -0.3169  0.0234  0.2682
 1012MOL0     C36537   8.394   4.897   8.526 -0.4679 -0.2613  0.3452
 1012MOL0     C36538   8.383   4.895   8.391  0.1397 -1.1561  0.2099
 1012MOL0     C36539   8.523   4.985   7.951 -0.5471  0.6191 -0.4774
 1012MOL0     C36540   8.617   5.078   7.899  0.4907  0.8037 -0.0002
 1012MOL0     C36541   8.632   5.089   7.764  0.9238 -0.4398 -1.1019
 1012MOL0     C36542   8.552   5.024   7.669 -0.5261  1.0192  0.6705
 1012MOL0     O36543   8.566   5.033   7.531 -0.3918  0.2261  0.6142
 1012MOL0     C36544   8.658   5.125   7.482  0.3737 -0.0193  0.9171
 1012MOL0     C36545   8.617   5.175   7.345  0.2693 -1.1221 -0.0020
 1012MOL0     C36546   8.719   5.283   7.303  1.0220 -0.2965 -0.0700
 1012MOL0     C36547   8.662   5.384   7.199 -0.9614 -0.3614  0.3214
 1012MOL0     C36548   8.751   5.495   7.166  1.1684 -1.0405 -0.5651
 1012MOL0     C36549   8.826   5.586   7.140  0.5412 -0.1383  0.0959
 1012MOL0     C36550   8.459   4.933   7.716 -0.1614  0.2825 -0.2911
 1012MOL0     C36551   8.448   4.907   7.857 -0.8957 -0.5419  0.2043
 1012MOL0     C36552   8.332   4.821   7.897 -0.1343  0.4117  0.7661
 1012MOL0     H36553   8.664   4.739   8.315 -1.7951 -1.0738 -0.9425
 1012MOL0     H36554   8.681   4.745   8.574 -0.9966 -3.6658  0.1252
 1012MOL0     H36555   8.668   4.764   8.774  0.2822  1.0115 -1.9931
 1012MOL0     H36556   8.693   4.935   8.754  3.3668 -2.4432  0.0605
 1012MOL0     H36557   8.562   4.989   8.953 -2.1857 -0.5834  0.1863
 1012MOL0     H36558   8.720   4.900   8.985 -0.6743 -1.6018  0.8066
 1012MOL0     H36559   8.596   4.676   9.014 -2.2114 -0.4096 -1.9331
 1012MOL0     H36560   8.451   4.752   8.953 -0.7032  2.8380 -1.6452
 1012MOL0     H36561   8.451   4.916   9.154 -0.5868  0.7897 -4.9771
 1012MOL0     H36562   8.415   4.759   9.202 -1.3429  0.9093  0.7156
 1012MOL0     H36563   8.681   4.714   9.204  1.5041  1.6794 -1.9349
 1012MOL0     H36564   8.686   4.891   9.218  1.4175 -0.9483  0.4612
 1012MOL0     H36565   8.556   4.692   9.416  0.3135 -0.5117 -1.9866
 1012MOL0     H36566   8.698   4.797   9.454  0.4298 -0.6945 -0.3932
 1012MOL0     H36567   8.410   4.878   9.392  0.1481  0.7111 -1.0658
 1012MOL0     H36568   8.541   4.997   9.424 -0.8401  0.5793  2.5899
 1012MOL0     H36569   8.553   4.884   9.651 -3.0655  1.4900  4.0059
 1012MOL0     H36570   8.420   4.974   9.608  4.1489  2.2928 -1.2037
 1012MOL0     H36571   8.507   4.610   9.694 -0.3926  0.8007  1.7050
 1012MOL0     H36572   8.158   4.424   9.695 -0.9715 -0.4135  1.3327
 1012MOL0     H36573   8.307   4.376   9.616  0.0583 -1.4767  1.2881
 1012MOL0     H36574   8.407   4.443   9.864  0.1837 -0.3500 -1.5979
 1012MOL0     H36575   8.232   4.405   9.897 -2.0983  0.6677 -2.3198
 1012MOL0     H36576   8.275   4.179   9.793  0.0846  0.2998 -1.7873
 1012MOL0     H36577   8.365   4.215   9.945 -0.2941 -0.9358 -0.6920
 1012MOL0     H36578   8.523   4.115   9.819  0.8322  0.7760  2.6267
 1012MOL0     H36579   8.568   4.289   9.826 -0.0154  2.3815 -2.5756
 1012MOL0     H36580   8.419   4.258   9.416 -1.3062 -0.2045 -3.2409
 1012MOL0     H36581   8.364   4.081   9.249 -0.9899 -1.3350 -0.9362
 1012MOL0     H36582   8.225   3.519   9.370  2.7598  1.4112  0.9472
 1012MOL0     H36583   8.168   3.324   9.211 -1.1012  0.6824 -3.0650
 1012MOL0     H36584   8.160   3.169   8.885  1.9060 -1.3136  1.5802
 1012MOL0     H36585   8.075   3.265   9.008 -1.2128  0.0877 -0.1362
 1012MOL0     H36586   8.093   3.463   8.874  1.8783  1.0946 -1.2753
 1012MOL0     H36587   8.238   3.404   8.787  0.5261  1.2083  0.4987
 1012MOL0     H36588   8.095   3.244   8.669 -1.1568 -1.2582  1.4361
 1012MOL0     H36589   7.958   3.281   8.768  0.8335  0.3946  0.7418
 1012MOL0     H36590   8.094   3.491   8.571  0.9451  1.2306  2.5209
 1012MOL0     H36591   7.945   3.512   8.669 -2.7514 -1.8500  0.3669
 1012MOL0     H36592   7.837   3.492   8.503  1.6949  1.3531 -0.2285
 1012MOL0     H36593   7.842   3.319   8.548  2.2262 -0.0873  3.0251
 1012MOL0     H36594   8.025   3.471   8.349  0.6734 -1.1746 -1.7847
 1012MOL0     H36595   8.036   3.293   8.380  1.4917  0.7171 -1.8524
 1012MOL0     H36596   7.820   3.465   8.257  1.3657  0.3373 -1.7150
 1012MOL0     H36597   7.804   3.283   8.291  0.6165  0.1451  0.2950
 1012MOL0     H36598   8.010   3.276   8.141 -0.2533 -0.5613 -1.3632
 1012MOL0     H36599   7.860   3.321   8.067 -0.9933  1.3762  0.7098
 1012MOL0     H36600   8.455   3.482   8.936  0.8991 -1.0275 -0.1037
 1012MOL0     H36601   8.516   3.636   9.091  0.2690 -0.1668 -0.8686
 1012MOL0     H36602   8.429   3.783   9.563 -0.5665 -0.1309 -0.6691
 1012MOL0     H36603   8.500   3.943   9.710 -0.8994  3.4156  2.5762
 1012MOL0     H36604   8.303   4.928   8.577 -1.9904  1.3918 -3.0790
 1012MOL0     H36605   8.303   4.934   8.328 -0.5070 -1.1457  1.0184
 1012MOL0     H36606   8.688   5.127   7.965 -0.8849 -0.7574  2.8573
 1012MOL0     H36607   8.717   5.154   7.743 -0.8221  2.3444 -0.0325
 1012MOL0     H36608   8.758   5.081   7.472  0.4772  0.3456  0.2842
 1012MOL0     H36609   8.672   5.216   7.541  0.6745  1.3411 -1.1445
 1012MOL0     H36610   8.514   5.214   7.351  1.1619  1.2651  1.0044
 1012MOL0     H36611   8.623   5.095   7.271 -0.1708 -1.3174  0.1675
 1012MOL0     H36612   8.802   5.230   7.255  1.4435 -0.0008  0.3293
 1012MOL0     H36613   8.754   5.334   7.392 -1.1426  1.6147 -0.2109
 1012MOL0     H36614   8.632   5.341   7.103 -0.8177 -1.1660  0.6255
 1012MOL0     H36615   8.568   5.425   7.237 -0.9231 -0.6191  0.7070
 1012MOL0     H36616   8.878   5.669   7.099 -1.0183 -0.0870 -1.9448
 1012MOL0     H36617   8.407   4.883   7.635 -0.8715  1.1679 -0.3908
 1012MOL0     H36618   8.360   4.715   7.894 -3.4757 -0.6248  1.9188
 1012MOL0     H36619   8.293   4.850   7.995  0.6028 -2.4429  2.0098
 1012MOL0     H36620   8.251   4.848   7.829  1.0278 -0.0271 -0.8579
 1013MOL0     O36621   3.738   5.370   4.700  0.5603 -0.0128 -0.1082
 1013MOL0     C36622   3.669   5.322   4.603 -0.6294  0.8680 -0.0126
 1013MOL0     O36623   3.706   5.343   4.472  0.8071 -0.1272 -0.3118
 1013MOL0     C36624   3.807   5.429   4.459 -0.7039 -0.1275  0.9245
 1013MOL0     C36625   3.770   5.556   4.415  0.4037  0.2542  1.0532
 1013MOL0     C36626   3.870   5.645   4.380  0.2151  0.3243  0.6484
 1013MOL0     C36627   4.004   5.617   4.388  1.2055  0.5963  0.9848
 1013MOL0     O36628   4.098   5.714   4.366  0.1273  0.5401  0.3112
 1013MOL0     C36629   4.059   5.827   4.283 -0.3530 -0.8650  0.4108
 1013MOL0     C36630   4.173   5.926   4.258  0.3850  0.7012  0.9538
 1013MOL0     C36631   4.245   5.993   4.373 -0.4416 -0.2337  0.2675
 1013MOL0     C36632   4.311   6.124   4.337  0.5613  0.1618 -0.6912
 1013MOL0     C36633   4.438   6.145   4.412 -0.7521 -0.3565 -0.7698
 1013MOL0     C36634   4.484   6.292   4.395 -0.0433  0.0141 -0.1633
 1013MOL0     C36635   4.615   6.291   4.474 -0.8419  0.1980  1.3420
 1013MOL0     C36636   4.713   6.407   4.429 -0.4211 -0.1115 -0.0553
 1013MOL0     N36637   4.634   6.524   4.393 -0.9501  0.3989  0.0759
 1013MOL0     C36638   4.568   6.610   4.480 -0.2016 -0.3268 -0.4289
 1013MOL0     C36639   4.484   6.679   4.399 -0.0497  0.2394  0.1094
 1013MOL0     C36640   4.381   6.782   4.445 -0.9107  0.2425  0.3493
 1013MOL0     C36641   4.254   6.714   4.504 -0.0094 -0.5387 -0.8415
 1013MOL0     C36642   4.169   6.641   4.402 -0.2302 -0.4846  1.0988
 1013MOL0     C36643   4.043   6.580   4.455  0.5807  0.0516 -0.1241
 1013MOL0     O36644   3.974   6.687   4.513 -0.1892  0.3867  0.5456
 1013MOL0     C36645   3.836   6.679   4.502 -0.4846  0.7361 -0.1587
 1013MOL0     C36646   3.766   6.564   4.531  0.6080  0.4855  0.9297
 1013MOL0     C36647   3.627   6.561   4.508 -0.0348 -0.1699 -0.7993
 1013MOL0     C36648   3.556   6.669   4.459 -0.2885  0.0288  0.9285
 1013MOL0     C36649   3.409   6.669   4.449 -0.3568 -0.3075 -0.2781
 1013MOL0     O36650   3.352   6.767   4.526  0.6832  0.1813  0.8148
 1013MOL0     C36651   3.212   6.756   4.545  0.2873  0.7585 -0.4536
 1013MOL0     C36652   3.151   6.637   4.598  0.2548 -0.3969 -0.9858
 1013MOL0     C36653   3.018   6.639   4.630 -0.5048  0.1340 -1.2251
 1013MOL0     C36654   2.935   6.749   4.612  0.0191  0.4372  0.3654
 1013MOL0     O36655   2.799   6.758   4.636 -0.3444  1.5098 -0.3267
 1013MOL0     C36656   2.759   6.675   4.745  0.3462 -0.5740 -0.3187
 1013MOL0     C36657   2.615   6.689   4.765 -0.2882 -0.6479  0.7830
 1013MOL0     C36658   2.555   6.827   4.753  0.0940 -0.4939 -0.3797
 1013MOL0     C36659   2.594   6.903   4.882 -0.7073  0.5664 -0.5585
 1013MOL0     C36660   2.519   7.033   4.900 -0.0938  0.8909  0.6538
 1013MOL0     C36661   2.385   7.033   4.985 -0.5354  0.4361 -0.1042
 1013MOL0     C36662   2.295   7.157   4.946  0.7725 -0.3554 -0.0546
 1013MOL0     C36663   2.353   7.292   4.971 -0.2674 -0.4187  0.4993
 1013MOL0    Cl36664   2.396   7.313   5.142 -0.1295  0.4915 -0.2912
 1013MOL0     C36665   2.996   6.868   4.562  0.2681  0.8671 -0.0674
 1013MOL0     C36666   3.133   6.870   4.528 -0.2416  0.4633  0.6199
 1013MOL0     O36667   3.355   6.584   4.381  0.1925 -0.3996  0.2111
 1013MOL0     C36668   3.636   6.779   4.430  0.1515 -0.3193  0.0704
 1013MOL0     C36669   3.768   6.787   4.448  0.1207  0.7282  0.4085
 1013MOL0     N36670   4.505   6.635   4.267  0.0035  0.0050  0.4064
 1013MOL0     N36671   4.589   6.537   4.269  0.9765 -1.1741 -0.2028
 1013MOL0     C36672   4.038   5.489   4.445 -0.4597 -0.0809  0.0812
 1013MOL0     C36673   3.946   5.397   4.474  0.0157  0.0805 -0.3216
 1013MOL0     C36674   3.538   5.261   4.637  0.9517  1.4625  0.6202
 1013MOL0     C36675   3.424   5.273   4.559 -0.2256  0.4095 -0.4812
 1013MOL0     C36676   3.300   5.225   4.600 -0.4405  0.5886  0.0150
 1013MOL0     C36677   3.291   5.141   4.712  1.1147  0.7551 -0.5682
 1013MOL0     O36678   3.161   5.089   4.731 -0.0777  0.0706  0.2957
 1013MOL0     C36679   3.149   4.974   4.808 -0.2284  0.0333  0.6691
 1013MOL0     C36680   3.022   4.891   4.785  0.1285  0.0087  0.8507
 1013MOL0     C36681   2.964   4.873   4.927 -0.8495  0.4074 -0.0324
 1013MOL0     C36682   3.059   4.775   5.012 -0.1565  0.0530 -0.4989
 1013MOL0     C36683   3.019   4.799   5.158 -0.3031  0.6424  0.8063
 1013MOL0     C36684   2.967   4.823   5.264 -0.6253  0.2789 -0.3948
 1013MOL0     C36685   3.405   5.122   4.785  0.1077  0.4659 -0.2957
 1013MOL0     C36686   3.525   5.181   4.757 -0.3763 -0.1116 -0.8902
 1013MOL0     C36687   3.658   5.133   4.835  0.9432 -0.0916 -0.0204
 1013MOL0     H36688   3.664   5.580   4.414 -0.4625 -3.0609  0.4765
 1013MOL0     H36689   3.839   5.745   4.352 -0.2764 -0.5299 -2.1692
 1013MOL0     H36690   4.006   5.792   4.193 -0.2055  1.9580 -0.8662
 1013MOL0     H36691   3.981   5.892   4.321 -1.6171 -1.6213 -0.7792
 1013MOL0     H36692   4.128   6.006   4.198 -2.7727  0.5541  2.9202
 1013MOL0     H36693   4.244   5.882   4.187 -1.6172  0.7263 -1.2029
 1013MOL0     H36694   4.322   5.931   4.421 -0.8781 -0.7173  0.3464
 1013MOL0     H36695   4.188   6.002   4.466 -2.6526 -2.1085 -0.8203
 1013MOL0     H36696   4.330   6.132   4.229 -3.6123 -0.2722 -1.6555
 1013MOL0     H36697   4.239   6.203   4.362  1.3425  0.2563  1.4569
 1013MOL0     H36698   4.415   6.128   4.517 -1.4127 -2.1851 -1.1681
 1013MOL0     H36699   4.511   6.073   4.375  2.3811  0.2919  3.4307
 1013MOL0     H36700   4.504   6.309   4.289 -0.6467  3.8360  0.1938
 1013MOL0     H36701   4.398   6.354   4.423 -1.6251 -1.6447 -1.1468
 1013MOL0     H36702   4.668   6.195   4.467 -1.8651 -0.3138 -0.0999
 1013MOL0     H36703   4.584   6.304   4.578  0.7253  0.5957  1.7860
 1013MOL0     H36704   4.788   6.428   4.506 -1.5232  0.0271  1.0153
 1013MOL0     H36705   4.760   6.376   4.336  2.6474  1.6908  0.7294
 1013MOL0     H36706   4.585   6.606   4.588 -1.7922  2.7741  0.0486
 1013MOL0     H36707   4.419   6.846   4.526 -0.9073 -1.2529  1.5635
 1013MOL0     H36708   4.348   6.838   4.356 -0.9951  1.1262  0.9207
 1013MOL0     H36709   4.275   6.632   4.573 -1.1204 -1.0759 -1.1101
 1013MOL0     H36710   4.203   6.795   4.558  0.0473 -0.7213 -0.5117
 1013MOL0     H36711   4.235   6.573   4.346 -0.8534  0.5842 -1.0552
 1013MOL0     H36712   4.139   6.708   4.321  3.3363 -1.9070 -1.6906
 1013MOL0     H36713   4.075   6.495   4.516  0.6391 -0.6546 -1.1086
 1013MOL0     H36714   3.982   6.538   4.374 -0.4256 -1.0372  1.1429
 1013MOL0     H36715   3.813   6.470   4.558 -3.5485 -1.1791  3.2852
 1013MOL0     H36716   3.581   6.473   4.551  0.0331  0.3287  0.3491
 1013MOL0     H36717   3.220   6.555   4.615  0.8268 -0.2048 -2.2433
 1013MOL0     H36718   2.982   6.538   4.647  0.1393  0.1280  0.2453
 1013MOL0     H36719   2.776   6.568   4.730 -0.3450 -0.9055  1.0834
 1013MOL0     H36720   2.816   6.709   4.833  2.3596 -4.1271 -0.0923
 1013MOL0     H36721   2.572   6.635   4.681  1.8978  0.7311 -1.3735
 1013MOL0     H36722   2.589   6.637   4.857  3.5533  0.3011  2.5981
 1013MOL0     H36723   2.591   6.884   4.666 -0.2727  0.5902  0.1535
 1013MOL0     H36724   2.448   6.818   4.732  0.0031  1.2831 -0.8604
 1013MOL0     H36725   2.703   6.912   4.888 -0.8355  1.5464  2.0301
 1013MOL0     H36726   2.579   6.843   4.972 -0.6312 -0.5752 -1.2966
 1013MOL0     H36727   2.504   7.080   4.802  0.2021 -1.1483 -0.4476
 1013MOL0     H36728   2.595   7.086   4.958  1.5120 -3.1367  2.5914
 1013MOL0     H36729   2.340   6.938   4.953  0.0024 -0.3882  1.4485
 1013MOL0     H36730   2.410   7.039   5.091 -1.5458 -2.3612  0.3981
 1013MOL0     H36731   2.195   7.152   4.990 -0.2284  3.2775 -1.5198
 1013MOL0     H36732   2.275   7.144   4.839  1.0906 -5.3355  0.2768
 1013MOL0     H36733   2.439   7.317   4.909 -1.1186 -1.4789 -1.1868
 1013MOL0     H36734   2.281   7.368   4.938  1.0707 -0.0854 -1.9019
 1013MOL0     H36735   2.939   6.960   4.565  1.2171  1.4490  2.9269
 1013MOL0     H36736   3.190   6.958   4.499 -0.4453  1.1589  2.2122
 1013MOL0     H36737   3.606   6.874   4.388 -0.5633 -0.8555 -0.6564
 1013MOL0     H36738   3.823   6.874   4.413 -0.6735  0.0520 -2.8400
 1013MOL0     H36739   4.145   5.472   4.441 -0.4606 -0.3332  0.9406
 1013MOL0     H36740   3.971   5.296   4.506  0.4683  1.0221  2.5940
 1013MOL0     H36741   3.437   5.313   4.459  0.5770 -3.4500 -2.0983
 1013MOL0     H36742   3.217   5.243   4.533 -1.6074  3.6366  2.0338
 1013MOL0     H36743   3.153   5.002   4.914  0.6802 -0.5700  0.8034
 1013MOL0     H36744   3.237   4.912   4.789  0.6487  0.7494  2.1972
 1013MOL0     H36745   3.041   4.791   4.745 -0.7301  0.9090 -2.0630
 1013MOL0     H36746   2.940   4.935   4.728 -2.3020 -3.9137  0.9808
 1013MOL0     H36747   2.872   4.817   4.903 -1.1372  1.1249 -0.6410
 1013MOL0     H36748   2.952   4.977   4.959  3.7992  2.4908 -3.7395
 1013MOL0     H36749   3.058   4.670   4.980  1.4671  0.5100 -2.2531
 1013MOL0     H36750   3.164   4.804   5.001 -0.6036  1.4263 -1.4827
 1013MOL0     H36751   2.907   4.848   5.349 -3.6554  1.8458 -2.7544
 1013MOL0     H36752   3.399   5.037   4.853 -1.7813 -0.2489 -1.2615
 1013MOL0     H36753   3.735   5.115   4.760 -2.1980  0.0167 -3.5578
 1013MOL0     H36754   3.675   5.204   4.917 -3.0007  0.0937  0.8204
 1013MOL0     H36755   3.639   5.041   4.891  0.4352 -0.0182 -0.0671
 1014MOL0     O36756   7.485   9.286   6.560 -0.0026  0.0214 -0.5308
 1014MOL0     C36757   7.373   9.263   6.600 -0.1001  0.1423  0.2965
 1014MOL0     O36758   7.260   9.285   6.535 -0.4794  0.1390  0.6267
 1014MOL0     C36759   7.266   9.368   6.421 -0.1146 -0.1687  0.2666
 1014MOL0     C36760   7.298   9.503   6.437 -0.5298  0.3226 -0.3433
 1014MOL0     C36761   7.322   9.575   6.321 -1.3329  0.4335  1.1071
 1014MOL0     C36762   7.302   9.525   6.192 -0.2758 -0.6064 -0.6340
 1014MOL0     O36763   7.309   9.596   6.084  0.4098 -0.3371 -0.0830
 1014MOL0     C36764   7.307   9.737   6.080 -0.4375  0.4886  0.0412
 1014MOL0     C36765   7.164   9.787   6.059 -0.5757 -0.4702  0.2788
 1014MOL0     C36766   7.059   9.751   6.169  0.7205 -0.6505  0.7111
 1014MOL0     C36767   6.947   9.857   6.151  0.4136  0.3714 -0.0724
 1014MOL0     C36768   6.822   9.831   6.240 -0.4097  0.4159 -0.3687
 1014MOL0     C36769   6.740   9.970   6.249 -0.5052  0.4403 -0.5358
 1014MOL0     C36770   6.634   9.971   6.357  0.5362  0.0756 -0.2562
 1014MOL0     C36771   6.561  10.107   6.382 -1.7919  0.5272 -0.0780
 1014MOL0     N36772   6.487  10.146   6.268 -0.1817 -0.7304  0.5104
 1014MOL0     C36773   6.351  10.131   6.266  0.5390 -1.3407  0.0163
 1014MOL0     C36774   6.312  10.186   6.148 -0.0881 -0.6306 -0.1393
 1014MOL0     C36775   6.174  10.191   6.094  0.6339 -0.3540 -0.6519
 1014MOL0     C36776   6.151  10.053   6.027 -0.7642 -0.8152 -0.2322
 1014MOL0     C36777   6.201  10.046   5.889  0.2820  0.1154  1.5370
 1014MOL0     C36778   6.166   9.916   5.816  0.3064 -0.0778 -0.3333
 1014MOL0     O36779   6.257   9.820   5.866 -0.1494 -0.1869 -0.4075
 1014MOL0     C36780   6.237   9.699   5.815  0.0392  0.8893  0.3447
 1014MOL0     C36781   6.353   9.628   5.782 -0.3840  0.1004  0.2385
 1014MOL0     C36782   6.346   9.497   5.743  0.2234 -0.0578  0.2876
 1014MOL0     C36783   6.222   9.431   5.730  0.5113 -0.0168 -1.1017
 1014MOL0     C36784   6.209   9.293   5.680  0.3033 -0.2124  0.9781
 1014MOL0     O36785   6.312   9.223   5.684 -0.4467 -0.2378 -0.8785
 1014MOL0     C36786   6.314   9.087   5.656  0.5030  1.0289 -0.4242
 1014MOL0     C36787   6.271   8.993   5.755 -0.6144 -0.2013 -0.7569
 1014MOL0     C36788   6.255   8.859   5.722 -0.2741 -0.1305 -0.0258
 1014MOL0     C36789   6.270   8.816   5.594  0.1333 -0.5420 -0.0672
 1014MOL0     O36790   6.250   8.687   5.574  0.3437  0.6773 -0.0301
 1014MOL0     C36791   6.186   8.660   5.447 -0.2080 -0.1477  0.1558
 1014MOL0     C36792   6.079   8.562   5.467 -0.6541 -0.3576 -0.4092
 1014MOL0     C36793   5.994   8.539   5.343  0.1739  0.1710  0.5003
 1014MOL0     C36794   6.064   8.445   5.240 -0.8298  0.6484 -0.1822
 1014MOL0     C36795   5.972   8.409   5.117 -0.3146 -0.0344  0.1769
 1014MOL0     C36796   6.047   8.312   5.019 -0.3483 -0.4558  0.9037
 1014MOL0     C36797   6.088   8.179   5.081 -0.1406 -0.6042  0.1623
 1014MOL0     C36798   6.128   8.066   4.989 -0.9560 -0.4456 -0.6941
 1014MOL0    Cl36799   6.295   8.094   4.936  0.1005  0.0559 -0.0689
 1014MOL0     C36800   6.318   8.905   5.503  0.9350 -1.5185  0.6660
 1014MOL0     C36801   6.348   9.039   5.534  0.0266  1.6198  0.0577
 1014MOL0     O36802   6.094   9.248   5.670 -0.6382  1.4059  0.1025
 1014MOL0     C36803   6.108   9.498   5.783 -0.2676 -0.2627  0.2916
 1014MOL0     C36804   6.116   9.628   5.827 -0.4701  0.1389 -0.1891
 1014MOL0     N36805   6.429  10.234   6.084  0.2183  0.2230  0.0904
 1014MOL0     N36806   6.533  10.198   6.150  0.2258  0.0859  0.2832
 1014MOL0     C36807   7.243   9.397   6.179 -1.2614 -0.0038 -0.0736
 1014MOL0     C36808   7.248   9.315   6.293  0.0529 -0.6084 -1.0764
 1014MOL0     C36809   7.371   9.185   6.718  0.4200 -0.4224 -0.9500
 1014MOL0     C36810   7.264   9.085   6.730  0.0965 -1.0356 -0.1730
 1014MOL0     C36811   7.245   9.002   6.835 -0.1384 -0.2069  0.3758
 1014MOL0     C36812   7.341   9.003   6.931  0.0627 -0.1072  0.4888
 1014MOL0     O36813   7.344   8.900   7.024  0.1067 -0.1448  0.4166
 1014MOL0     C36814   7.445   8.801   7.006  0.1355  0.2631  0.2765
 1014MOL0     C36815   7.428   8.699   6.894  0.5109  0.3936  0.3951
 1014MOL0     C36816   7.315   8.596   6.897 -0.2651 -0.5573 -0.3339
 1014MOL0     C36817   7.172   8.652   6.905  0.3202  0.3458 -0.4745
 1014MOL0     C36818   7.089   8.673   6.797  0.4300  0.2901  1.1445
 1014MOL0     C36819   7.020   8.709   6.701 -0.5475  0.3596  0.2469
 1014MOL0     C36820   7.448   9.098   6.928  0.6524 -0.1605  0.3226
 1014MOL0     C36821   7.466   9.189   6.826 -0.1068 -0.2736  0.2908
 1014MOL0     C36822   7.590   9.275   6.844 -0.1100 -0.3669  0.2130
 1014MOL0     H36823   7.336   9.533   6.534 -0.3733 -0.0889 -0.2721
 1014MOL0     H36824   7.357   9.678   6.334  0.0740 -0.1819  2.5427
 1014MOL0     H36825   7.340   9.777   6.176 -0.5942 -0.2938  0.4280
 1014MOL0     H36826   7.378   9.769   6.003  1.7487 -0.6080  1.5125
 1014MOL0     H36827   7.121   9.759   5.963  0.0833 -0.1923 -0.0990
 1014MOL0     H36828   7.175   9.895   6.054 -1.0871 -0.2520  2.5551
 1014MOL0     H36829   7.103   9.744   6.269  0.8798  0.8458  0.7628
 1014MOL0     H36830   7.015   9.653   6.151 -1.4397  0.1835  1.1479
 1014MOL0     H36831   6.985   9.953   6.186 -3.0689  0.5535  4.0548
 1014MOL0     H36832   6.911   9.858   6.048 -2.4641  3.3170  0.8026
 1014MOL0     H36833   6.750   9.760   6.196 -2.4689  1.9933  0.3140
 1014MOL0     H36834   6.854   9.791   6.336 -0.7739 -0.5109 -0.6156
 1014MOL0     H36835   6.813  10.050   6.267 -0.4213 -0.0667  1.5696
 1014MOL0     H36836   6.686   9.996   6.157 -2.5663 -0.2027  0.4420
 1014MOL0     H36837   6.670   9.933   6.453  0.7362  1.7431  0.3695
 1014MOL0     H36838   6.560   9.894   6.332 -0.0437  0.3452  0.5899
 1014MOL0     H36839   6.497  10.098   6.471 -1.8250  1.4816  0.0126
 1014MOL0     H36840   6.636  10.182   6.410  0.8965 -1.6936 -0.9086
 1014MOL0     H36841   6.290  10.110   6.354  0.9869  0.5190  0.8242
 1014MOL0     H36842   6.104  10.196   6.178  2.1558  1.1208  0.6037
 1014MOL0     H36843   6.169  10.276   6.026  1.2886  1.7619  1.7641
 1014MOL0     H36844   6.193   9.975   6.091  0.8428 -0.2292 -0.5468
 1014MOL0     H36845   6.043  10.034   6.020 -1.0901  1.1980 -1.4389
 1014MOL0     H36846   6.310  10.060   5.895 -0.0581  3.0600  2.1250
 1014MOL0     H36847   6.167  10.130   5.828  1.2317 -1.2157 -1.0280
 1014MOL0     H36848   6.184   9.939   5.711  1.2755 -2.8645 -0.8847
 1014MOL0     H36849   6.064   9.879   5.826 -0.1478  1.3337  0.4433
 1014MOL0     H36850   6.451   9.675   5.794  1.0496 -2.6161  0.0631
 1014MOL0     H36851   6.435   9.436   5.731 -0.1044 -0.3110 -0.9788
 1014MOL0     H36852   6.247   9.038   5.852  0.1936  2.4848 -1.7142
 1014MOL0     H36853   6.218   8.787   5.794  1.6530 -0.5855  0.5623
 1014MOL0     H36854   6.152   8.755   5.404  2.0915  0.4494 -0.4806
 1014MOL0     H36855   6.266   8.626   5.381 -1.6502  1.5611 -2.6293
 1014MOL0     H36856   6.127   8.466   5.491 -2.1322 -1.7297 -2.5905
 1014MOL0     H36857   6.017   8.588   5.553 -0.6031 -0.7603 -0.2489
 1014MOL0     H36858   5.901   8.486   5.365 -0.5494 -0.1413 -2.7317
 1014MOL0     H36859   5.981   8.636   5.294  3.2596 -0.2337 -1.3859
 1014MOL0     H36860   6.093   8.352   5.290  5.0534  3.0777  1.7389
 1014MOL0     H36861   6.156   8.495   5.209  1.2913 -1.2300  2.6178
 1014MOL0     H36862   5.959   8.503   5.063  3.0890 -0.6684 -2.0498
 1014MOL0     H36863   5.883   8.355   5.152  1.1610 -2.5782  0.2576
 1014MOL0     H36864   5.982   8.303   4.931 -1.5856 -1.9668  1.9247
 1014MOL0     H36865   6.139   8.356   4.979 -0.6119 -1.1204 -0.5296
 1014MOL0     H36866   6.007   8.146   5.147  0.8081 -0.1911  1.5801
 1014MOL0     H36867   6.177   8.193   5.143  1.4060 -0.4342 -1.9614
 1014MOL0     H36868   6.131   7.976   5.051  2.9415 -0.7134 -1.0551
 1014MOL0     H36869   6.068   8.056   4.898  0.6773 -2.3017 -1.6324
 1014MOL0     H36870   6.338   8.863   5.405  0.1754  3.2882 -1.8485
 1014MOL0     H36871   6.391   9.099   5.454  0.4029 -0.6908 -1.5568
 1014MOL0     H36872   6.013   9.447   5.786  1.0799 -2.8614  2.3397
 1014MOL0     H36873   6.035   9.684   5.874 -0.7204 -0.3895  0.0174
 1014MOL0     H36874   7.208   9.364   6.081 -1.4917 -1.6189  0.5184
 1014MOL0     H36875   7.220   9.212   6.275 -1.2985 -1.1302  2.8723
 1014MOL0     H36876   7.201   9.088   6.642 -0.1258  0.1556  0.0096
 1014MOL0     H36877   7.162   8.932   6.842  0.0393 -0.2321  3.1309
 1014MOL0     H36878   7.454   8.743   7.098 -0.5139  0.4496  0.4686
 1014MOL0     H36879   7.541   8.851   6.992 -0.2242  1.7981  2.7040
 1014MOL0     H36880   7.521   8.643   6.888 -1.1139 -2.3834 -1.6304
 1014MOL0     H36881   7.417   8.759   6.803  0.9786  0.0618  0.1151
 1014MOL0     H36882   7.335   8.524   6.977 -2.7090 -0.1392  0.7429
 1014MOL0     H36883   7.325   8.533   6.809  1.3820 -1.1782  0.2625
 1014MOL0     H36884   7.125   8.570   6.960 -1.3012  0.7662 -1.1757
 1014MOL0     H36885   7.158   8.739   6.969  0.7557  0.7993 -0.9856
 1014MOL0     H36886   6.958   8.742   6.619 -2.1091 -1.7377  0.5213
 1014MOL0     H36887   7.527   9.087   7.002  1.2534  1.4598 -0.0151
 1014MOL0     H36888   7.612   9.275   6.951  2.4449  0.0542 -0.2456
 1014MOL0     H36889   7.668   9.218   6.793 -0.5109 -0.4240 -0.3371
 1014MOL0     H36890   7.581   9.378   6.808  1.2908  0.4663  2.0412
 1015MOL0     O36891   7.301   7.512   5.349 -0.2704 -0.5043  0.0127
 1015MOL0     C36892   7.406   7.460   5.390 -1.1322  0.4487  0.0226
 1015MOL0     O36893   7.416   7.350   5.476  0.0977  0.2839 -0.1534
 1015MOL0     C36894   7.295   7.290   5.502 -0.1604 -0.6173 -0.7071
 1015MOL0     C36895   7.237   7.207   5.403  0.6772  0.3516 -0.4496
 1015MOL0     C36896   7.113   7.158   5.425  0.0370  0.5622 -0.1731
 1015MOL0     C36897   7.035   7.179   5.542  0.2185  0.0163 -0.0246
 1015MOL0     O36898   6.920   7.111   5.574  0.9405 -0.1469 -0.4282
 1015MOL0     C36899   6.833   7.078   5.470  0.5572  0.0679 -0.8256
 1015MOL0     C36900   6.695   7.059   5.520 -0.4844  0.7015  0.4504
 1015MOL0     C36901   6.632   6.918   5.480 -0.0137 -0.0775 -0.3451
 1015MOL0     C36902   6.479   6.912   5.511  1.0009 -1.0169  0.0769
 1015MOL0     C36903   6.439   6.914   5.667  0.6301  0.2698  0.6403
 1015MOL0     C36904   6.292   6.938   5.705  0.3874  0.5927  0.0343
 1015MOL0     C36905   6.217   7.064   5.645 -0.5762 -0.3046  0.1680
 1015MOL0     C36906   6.088   7.088   5.715 -0.0267  0.1413  0.0054
 1015MOL0     N36907   6.032   7.213   5.667  0.4378  0.0722 -0.4860
 1015MOL0     C36908   6.007   7.254   5.538  0.7103  0.6431  0.7545
 1015MOL0     C36909   5.926   7.363   5.551  0.2677  0.8125 -0.2830
 1015MOL0     C36910   5.861   7.452   5.445 -0.4640  0.6595  0.1912
 1015MOL0     C36911   5.734   7.393   5.377 -1.2203 -0.1828 -0.5518
 1015MOL0     C36912   5.635   7.363   5.492 -1.3034  0.6211 -0.8330
 1015MOL0     C36913   5.577   7.481   5.566  0.8224  0.2765  0.5249
 1015MOL0     O36914   5.448   7.438   5.623 -0.3858  0.0407  0.2269
 1015MOL0     C36915   5.447   7.399   5.756  0.6876 -0.4319  0.4806
 1015MOL0     C36916   5.563   7.362   5.826 -0.1950 -0.7913 -0.2373
 1015MOL0     C36917   5.553   7.342   5.960  0.0845  0.4859  0.2735
 1015MOL0     C36918   5.433   7.344   6.028 -0.0914  0.0882 -0.7362
 1015MOL0     C36919   5.433   7.317   6.176 -0.5092 -0.4010 -0.6645
 1015MOL0     O36920   5.530   7.230   6.226 -0.3834  0.2128 -0.0173
 1015MOL0     C36921   5.543   7.195   6.359 -0.4747  0.1701  0.0396
 1015MOL0     C36922   5.504   7.266   6.472 -0.4220 -0.0899 -0.4046
 1015MOL0     C36923   5.525   7.210   6.603  0.5138  0.0839 -0.6246
 1015MOL0     C36924   5.585   7.083   6.618 -0.6888  0.6674 -0.0574
 1015MOL0     O36925   5.605   7.025   6.741 -0.3493  0.3863  0.3508
 1015MOL0     C36926   5.516   7.057   6.847 -0.2993 -1.0361  1.4008
 1015MOL0     C36927   5.564   6.977   6.961 -0.4529 -0.0812 -1.0332
 1015MOL0     C36928   5.487   7.008   7.093 -1.1184 -0.2965 -0.2235
 1015MOL0     C36929   5.572   6.969   7.212 -0.1675  0.1813  0.5018
 1015MOL0     C36930   5.473   6.960   7.333  0.0095  0.0236  0.6598
 1015MOL0     C36931   5.538   6.892   7.455 -0.0139 -0.6515 -0.0930
 1015MOL0     C36932   5.621   6.768   7.437  0.0032  0.1662  0.2191
 1015MOL0     C36933   5.527   6.647   7.398 -0.6231 -0.2501  0.0660
 1015MOL0    Cl36934   5.388   6.614   7.504 -0.0070  0.1435 -0.4717
 1015MOL0     C36935   5.632   7.021   6.509 -0.5995 -0.0145  0.4038
 1015MOL0     C36936   5.610   7.070   6.380  0.6602  0.3218  0.7127
 1015MOL0     O36937   5.347   7.368   6.243  0.6982  0.1299  0.4106
 1015MOL0     C36938   5.316   7.381   5.962 -0.0456  0.6768  0.5896
 1015MOL0     C36939   5.328   7.402   5.825  0.2129  1.0020 -0.7196
 1015MOL0     N36940   5.915   7.392   5.687  0.0142 -0.0537  0.1500
 1015MOL0     N36941   5.970   7.295   5.753 -0.0282 -1.3420  0.3586
 1015MOL0     C36942   7.088   7.261   5.636  0.8311  0.0015  0.1893
 1015MOL0     C36943   7.227   7.321   5.619 -0.2342 -0.3703  0.7869
 1015MOL0     C36944   7.538   7.521   5.356 -0.3546  0.1920  0.9384
 1015MOL0     C36945   7.624   7.541   5.465  0.7942 -0.4839 -0.5702
 1015MOL0     C36946   7.745   7.602   5.447  0.2423  0.2420  0.8276
 1015MOL0     C36947   7.780   7.647   5.328  0.3781 -0.5096  0.7856
 1015MOL0     O36948   7.895   7.716   5.304 -0.1473  0.5417 -0.1758
 1015MOL0     C36949   8.007   7.627   5.271 -1.3674 -0.6908  0.1517
 1015MOL0     C36950   8.138   7.659   5.342 -0.9728 -0.2280 -0.0351
 1015MOL0     C36951   8.225   7.763   5.256  0.3026 -0.4228 -0.8312
 1015MOL0     C36952   8.364   7.803   5.318  0.8970  0.5272  0.0358
 1015MOL0     C36953   8.441   7.881   5.224 -0.7563 -1.0607 -0.2537
 1015MOL0     C36954   8.534   7.929   5.160 -0.6241  0.4851  0.9442
 1015MOL0     C36955   7.707   7.618   5.219 -0.5245  0.1653 -0.2123
 1015MOL0     C36956   7.583   7.562   5.224  0.3421 -0.4016  0.1166
 1015MOL0     C36957   7.487   7.547   5.098 -0.2987 -0.2133  0.6195
 1015MOL0     H36958   7.292   7.200   5.310 -0.4496 -0.9655 -1.0544
 1015MOL0     H36959   7.078   7.085   5.354  2.0709  1.5601 -2.3488
 1015MOL0     H36960   6.844   7.156   5.394  1.9189 -0.4320 -1.1693
 1015MOL0     H36961   6.869   6.987   5.420 -2.9979 -0.4190 -2.8486
 1015MOL0     H36962   6.632   7.145   5.495 -1.1954 -0.3279 -1.4922
 1015MOL0     H36963   6.701   7.049   5.629  1.3165 -2.8337  0.1574
 1015MOL0     H36964   6.675   6.850   5.554 -2.3724  0.1808  1.3660
 1015MOL0     H36965   6.649   6.882   5.378 -2.7075 -0.8302 -0.5817
 1015MOL0     H36966   6.426   6.999   5.472 -3.4496 -2.8835  1.2752
 1015MOL0     H36967   6.436   6.823   5.463 -0.4164 -0.2441 -0.1613
 1015MOL0     H36968   6.469   6.813   5.696  2.5060  0.0015 -1.9092
 1015MOL0     H36969   6.512   6.977   5.719  1.6155 -0.6784  0.4477
 1015MOL0     H36970   6.237   6.848   5.676  4.2598 -2.0805  0.2375
 1015MOL0     H36971   6.283   6.941   5.814 -1.4961  1.3328 -0.1081
 1015MOL0     H36972   6.196   7.053   5.538 -0.1877  1.6339 -0.1404
 1015MOL0     H36973   6.270   7.155   5.674  0.6437 -0.0850 -2.4487
 1015MOL0     H36974   6.014   7.010   5.695  2.5173 -2.4941  0.1416
 1015MOL0     H36975   6.106   7.105   5.822 -3.6136  0.5876  0.6549
 1015MOL0     H36976   6.048   7.202   5.452  1.0929  1.1908  0.5979
 1015MOL0     H36977   5.833   7.550   5.486 -2.0922 -0.1128  1.0041
 1015MOL0     H36978   5.931   7.460   5.362 -1.4920  1.6136 -0.6127
 1015MOL0     H36979   5.689   7.457   5.301 -0.4242 -1.9811 -2.6381
 1015MOL0     H36980   5.757   7.300   5.324 -1.2618 -0.3036 -0.3594
 1015MOL0     H36981   5.666   7.295   5.572 -2.0176  1.2526  0.0029
 1015MOL0     H36982   5.552   7.308   5.446 -1.0918 -1.2218  0.8779
 1015MOL0     H36983   5.550   7.552   5.487  1.7244 -0.2670 -0.2955
 1015MOL0     H36984   5.643   7.535   5.635  0.9481 -1.0492  1.4690
 1015MOL0     H36985   5.658   7.348   5.776  1.2637  0.1012  2.0825
 1015MOL0     H36986   5.647   7.322   6.012  0.3070 -2.5584 -1.0927
 1015MOL0     H36987   5.446   7.355   6.448 -1.6195 -1.5000 -3.2908
 1015MOL0     H36988   5.498   7.270   6.689 -4.1629 -1.4570 -0.7495
 1015MOL0     H36989   5.515   7.163   6.874  4.3715  1.6655 -5.9546
 1015MOL0     H36990   5.415   7.026   6.818 -0.1566  0.3921 -0.8535
 1015MOL0     H36991   5.550   6.871   6.941 -0.0050 -0.0969 -1.2736
 1015MOL0     H36992   5.669   6.995   6.984 -0.6370 -0.9037  0.5412
 1015MOL0     H36993   5.443   7.107   7.111  1.2435  0.6578  0.8210
 1015MOL0     H36994   5.403   6.939   7.087  0.8048 -2.9584  1.3674
 1015MOL0     H36995   5.655   7.034   7.241 -0.1347  0.0482  0.7012
 1015MOL0     H36996   5.612   6.869   7.195 -0.6438  0.2082 -0.9931
 1015MOL0     H36997   5.381   6.904   7.312 -0.5903  1.4676 -0.7762
 1015MOL0     H36998   5.436   7.061   7.355 -1.9595 -1.2090  3.7406
 1015MOL0     H36999   5.602   6.971   7.496  0.9650 -1.4821  0.0421
 1015MOL0     H37000   5.459   6.876   7.529  0.6247 -1.1209  0.5013
 1015MOL0     H37001   5.664   6.757   7.537  3.2100 -0.4916 -1.1254
 1015MOL0     H37002   5.709   6.783   7.373  2.0523 -0.4465  2.7217
 1015MOL0     H37003   5.505   6.668   7.293  1.7801  1.6800 -0.1385
 1015MOL0     H37004   5.594   6.561   7.392  3.9151  2.6564  2.9577
 1015MOL0     H37005   5.675   6.922   6.521 -4.5939 -2.2342 -1.5301
 1015MOL0     H37006   5.632   7.015   6.289  1.1182 -0.7453  1.4447
 1015MOL0     H37007   5.218   7.402   6.005 -0.8439 -2.1468  0.3539
 1015MOL0     H37008   5.227   7.418   5.788 -1.7811 -1.4929  2.9642
 1015MOL0     H37009   7.021   7.280   5.719 -1.9408  2.6601 -2.4208
 1015MOL0     H37010   7.268   7.385   5.696 -0.0845 -2.3565  2.4266
 1015MOL0     H37011   7.586   7.516   5.563  0.9121  1.1924 -0.0746
 1015MOL0     H37012   7.804   7.628   5.534  0.7428  3.8765 -0.4420
 1015MOL0     H37013   8.026   7.634   5.163  0.0100 -0.5705  0.3838
 1015MOL0     H37014   7.985   7.525   5.305 -1.1253 -1.2153 -1.1922
 1015MOL0     H37015   8.192   7.564   5.354 -0.3026  0.1232 -0.2056
 1015MOL0     H37016   8.121   7.687   5.446  0.8460  3.3030 -0.5475
 1015MOL0     H37017   8.173   7.859   5.262  1.6388  0.3385 -1.0057
 1015MOL0     H37018   8.227   7.724   5.154  0.6154 -1.4160 -0.4517
 1015MOL0     H37019   8.342   7.847   5.416 -1.3130  0.5212 -0.4153
 1015MOL0     H37020   8.432   7.717   5.324  0.8772  0.3799 -1.4956
 1015MOL0     H37021   8.620   7.974   5.115 -0.1394 -2.2173 -1.1428
 1015MOL0     H37022   7.732   7.666   5.125 -1.1262  2.5668  0.7635
 1015MOL0     H37023   7.443   7.447   5.104  2.2493 -1.3456  2.3026
 1015MOL0     H37024   7.401   7.614   5.110  1.0452  2.0440 -1.3374
 1015MOL0     H37025   7.543   7.580   5.009  3.5474 -0.2315  2.7946
 1016MOL0     O37026   3.408   2.694   6.342 -0.3581 -0.1137  0.4903
 1016MOL0     C37027   3.287   2.688   6.349 -0.0852  0.7251 -0.4225
 1016MOL0     O37028   3.203   2.764   6.425  0.7794 -0.0027 -0.1887
 1016MOL0     C37029   3.252   2.874   6.491 -1.0151 -0.3818  0.3972
 1016MOL0     C37030   3.252   3.001   6.430  0.0859  0.4863 -1.1263
 1016MOL0     C37031   3.279   3.119   6.510 -0.0450  0.3290 -0.1125
 1016MOL0     C37032   3.297   3.114   6.649  0.4542  0.4260  0.4799
 1016MOL0     O37033   3.339   3.220   6.733 -0.2209  0.2891 -1.0836
 1016MOL0     C37034   3.403   3.332   6.662  0.2124 -0.0385 -0.0224
 1016MOL0     C37035   3.427   3.442   6.763  0.2328 -0.6559  0.0078
 1016MOL0     C37036   3.295   3.477   6.838 -1.1044  0.2831 -0.2123
 1016MOL0     C37037   3.318   3.607   6.913  0.3393  0.0348  0.9051
 1016MOL0     C37038   3.187   3.657   6.982  0.5697 -0.0726 -0.2517
 1016MOL0     C37039   3.225   3.784   7.066  0.2248  0.6273  0.7646
 1016MOL0     C37040   3.100   3.849   7.139 -0.1517  0.5029 -0.2606
 1016MOL0     C37041   3.120   3.997   7.166 -0.6696 -0.0817  0.9492
 1016MOL0     N37042   3.261   4.022   7.208  0.3256 -0.5942 -1.3770
 1016MOL0     C37043   3.299   4.037   7.345 -0.3454  0.0188  0.4738
 1016MOL0     C37044   3.420   4.094   7.337  0.5064  0.4829 -0.0636
 1016MOL0     C37045   3.514   4.118   7.451  0.5296 -0.2238 -0.2948
 1016MOL0     C37046   3.651   4.068   7.421 -0.7944  0.4321  0.7100
 1016MOL0     C37047   3.748   4.101   7.540 -0.6389 -0.1278 -0.5112
 1016MOL0     C37048   3.885   4.048   7.501  0.0635  0.4856 -1.0087
 1016MOL0     O37049   3.972   4.085   7.608 -0.2932 -0.6067  0.2743
 1016MOL0     C37050   3.947   4.007   7.719  0.6981  0.0602  0.2950
 1016MOL0     C37051   3.969   3.872   7.739 -0.2463  0.5447 -0.1598
 1016MOL0     C37052   3.935   3.820   7.866 -0.1953 -0.9384 -0.0212
 1016MOL0     C37053   3.902   3.903   7.973  0.2443  0.6777  1.0431
 1016MOL0     C37054   3.851   3.841   8.090 -0.3244 -0.0774  0.0483
 1016MOL0     O37055   3.761   3.900   8.165  0.4674  0.8185 -0.5401
 1016MOL0     C37056   3.704   3.826   8.269  0.6758 -0.4980 -0.7024
 1016MOL0     C37057   3.612   3.723   8.236 -0.6924  0.1858 -0.7407
 1016MOL0     C37058   3.553   3.650   8.341 -0.1876 -0.4206 -0.9124
 1016MOL0     C37059   3.578   3.683   8.478 -0.5547  0.5107  0.1104
 1016MOL0     O37060   3.495   3.621   8.570 -0.9015 -0.3452  0.3977
 1016MOL0     C37061   3.476   3.677   8.701  0.6035 -0.4276 -0.3761
 1016MOL0     C37062   3.393   3.583   8.779 -0.7590 -0.2765  1.4516
 1016MOL0     C37063   3.355   3.642   8.920 -0.4631 -0.7130  0.3941
 1016MOL0     C37064   3.427   3.576   9.036 -0.1010 -0.5313 -0.6281
 1016MOL0     C37065   3.348   3.464   9.097 -0.1637  0.4104  0.2701
 1016MOL0     C37066   3.421   3.391   9.214  0.4046 -0.0074  0.3740
 1016MOL0     C37067   3.399   3.245   9.198  0.3152 -0.9708  0.2543
 1016MOL0     C37068   3.263   3.190   9.241  0.1217  1.1914 -0.1209
 1016MOL0    Cl37069   3.239   3.023   9.190 -0.0223 -0.8016  0.2570
 1016MOL0     C37070   3.687   3.768   8.503 -0.2014 -0.6342 -0.0161
 1016MOL0     C37071   3.741   3.845   8.401  0.2086  0.2182  0.9888
 1016MOL0     O37072   3.896   3.730   8.116  0.7202  0.0395  0.1308
 1016MOL0     C37073   3.891   4.038   7.960 -0.6268 -1.0635 -0.4847
 1016MOL0     C37074   3.911   4.092   7.830  0.1389  0.5497 -0.8208
 1016MOL0     N37075   3.428   4.136   7.206 -0.4379  0.5443  0.1836
 1016MOL0     N37076   3.341   4.090   7.121 -0.2884 -0.1982 -0.7487
 1016MOL0     C37077   3.292   2.984   6.706 -0.5080  0.5569 -0.1734
 1016MOL0     C37078   3.268   2.864   6.627 -0.6824  0.3368  0.1500
 1016MOL0     C37079   3.220   2.576   6.270  1.1192  0.1616  0.1237
 1016MOL0     C37080   3.090   2.526   6.294 -0.3301  0.3412 -0.0945
 1016MOL0     C37081   3.014   2.429   6.216  0.2960 -0.2321  0.1671
 1016MOL0     C37082   3.079   2.382   6.103  0.4201  0.0113  0.7575
 1016MOL0     O37083   3.017   2.300   6.016 -0.0403  0.2129 -0.6564
 1016MOL0     C37084   3.069   2.275   5.885  0.5938  0.2835  0.2813
 1016MOL0     C37085   2.961   2.237   5.780  0.8293  0.6254  0.3401
 1016MOL0     C37086   2.902   2.091   5.790  0.5174 -0.1921 -0.5007
 1016MOL0     C37087   2.990   1.982   5.840 -0.0347  0.7272 -0.7146
 1016MOL0     C37088   2.932   1.849   5.841 -0.1949  0.3886 -0.4359
 1016MOL0     C37089   2.873   1.743   5.824 -0.7433 -0.1235 -0.5342
 1016MOL0     C37090   3.205   2.426   6.078  0.0723 -0.5176 -0.5317
 1016MOL0     C37091   3.283   2.506   6.165  0.5486  0.5304 -0.7894
 1016MOL0     C37092   3.433   2.494   6.137  0.5236 -0.2134  0.5027
 1016MOL0     H37093   3.218   3.021   6.328  1.5018 -0.3868 -1.8034
 1016MOL0     H37094   3.273   3.215   6.460 -1.7867 -0.2359 -1.0963
 1016MOL0     H37095   3.488   3.291   6.607 -0.6467 -5.1524  1.9388
 1016MOL0     H37096   3.321   3.365   6.597 -1.3041 -1.7180  0.9684
 1016MOL0     H37097   3.469   3.532   6.719 -0.7855  0.8747  1.9988
 1016MOL0     H37098   3.506   3.411   6.833  2.0150  2.5687 -0.4228
 1016MOL0     H37099   3.288   3.408   6.922 -2.0062  1.9672  1.1545
 1016MOL0     H37100   3.212   3.467   6.766 -2.2194 -0.6088  1.1233
 1016MOL0     H37101   3.390   3.583   6.992 -0.5830 -0.7552  1.5205
 1016MOL0     H37102   3.352   3.685   6.844 -1.2565 -2.3267 -2.8549
 1016MOL0     H37103   3.118   3.676   6.899  1.2961  0.1032 -0.8381
 1016MOL0     H37104   3.140   3.583   7.046 -0.0448  0.0892 -0.5144
 1016MOL0     H37105   3.284   3.745   7.150 -0.5829 -2.2597  0.1146
 1016MOL0     H37106   3.277   3.853   6.999 -3.5834  1.5173 -1.5947
 1016MOL0     H37107   3.092   3.797   7.235  2.1328  0.1758 -0.2076
 1016MOL0     H37108   3.018   3.833   7.068  0.9344  2.5624 -2.1219
 1016MOL0     H37109   3.114   4.051   7.071 -2.2230 -0.8525  0.5788
 1016MOL0     H37110   3.049   4.045   7.234  1.4462  2.3124  1.6119
 1016MOL0     H37111   3.245   4.016   7.437 -1.3324  2.0436  0.4148
 1016MOL0     H37112   3.513   4.227   7.455  0.4947 -0.2245 -0.2927
 1016MOL0     H37113   3.468   4.087   7.545 -0.7123  2.6815  0.1543
 1016MOL0     H37114   3.643   3.959   7.416  2.8325  0.0816 -0.3025
 1016MOL0     H37115   3.689   4.113   7.329  0.2729  2.3503  2.0239
 1016MOL0     H37116   3.716   4.050   7.631  0.2473 -1.5860 -0.9774
 1016MOL0     H37117   3.760   4.209   7.554 -0.3606 -0.1391 -0.6440
 1016MOL0     H37118   3.914   4.102   7.410 -2.1715  3.0242 -0.3356
 1016MOL0     H37119   3.888   3.940   7.489  0.6909  0.3173  0.4547
 1016MOL0     H37120   3.997   3.823   7.647 -3.0916  1.5002 -1.6327
 1016MOL0     H37121   3.935   3.716   7.897 -1.9467 -0.7345  0.7985
 1016MOL0     H37122   3.575   3.714   8.135 -0.7680 -2.9543 -0.5284
 1016MOL0     H37123   3.475   3.578   8.321 -0.9444 -0.0189  0.4295
 1016MOL0     H37124   3.576   3.693   8.744  1.7073 -2.5942 -1.9607
 1016MOL0     H37125   3.427   3.773   8.685 -0.0030 -0.0245  3.1496
 1016MOL0     H37126   3.303   3.554   8.722 -0.5640  2.5959 -0.5465
 1016MOL0     H37127   3.444   3.489   8.798  0.0405 -0.2060 -0.1716
 1016MOL0     H37128   3.387   3.747   8.916 -0.1880 -0.7863  0.6858
 1016MOL0     H37129   3.246   3.645   8.934 -0.7706  1.9017 -1.6193
 1016MOL0     H37130   3.445   3.642   9.121  1.5486 -1.7901  0.0646
 1016MOL0     H37131   3.523   3.537   9.002 -2.0797 -4.3620 -2.4778
 1016MOL0     H37132   3.325   3.391   9.018 -0.9028 -1.2518  1.9457
 1016MOL0     H37133   3.252   3.503   9.133  0.8580  2.4641  0.8955
 1016MOL0     H37134   3.530   3.405   9.215  0.5122 -0.1317 -2.2363
 1016MOL0     H37135   3.373   3.424   9.306 -2.6639 -0.9144 -0.7772
 1016MOL0     H37136   3.473   3.199   9.264  1.8770  0.5968 -0.3278
 1016MOL0     H37137   3.422   3.228   9.092 -3.5630  0.4381 -0.9833
 1016MOL0     H37138   3.264   3.188   9.350  0.4513 -2.3190 -0.0549
 1016MOL0     H37139   3.177   3.249   9.208 -0.3022  0.5963 -0.1187
 1016MOL0     H37140   3.715   3.802   8.603 -0.2103  0.5232 -0.3951
 1016MOL0     H37141   3.810   3.922   8.432  0.6675  0.6854 -1.0147
 1016MOL0     H37142   3.878   4.109   8.041 -1.2925 -1.6099 -0.1004
 1016MOL0     H37143   3.907   4.195   7.796  2.7228  1.3733  1.0387
 1016MOL0     H37144   3.320   2.979   6.811 -1.8651 -2.1455  0.1585
 1016MOL0     H37145   3.243   2.765   6.664 -1.6516 -1.0818 -3.7729
 1016MOL0     H37146   3.046   2.586   6.373  3.4416  2.3591  0.6813
 1016MOL0     H37147   2.921   2.388   6.253 -0.5828  0.5661 -1.0755
 1016MOL0     H37148   3.155   2.207   5.878  1.1884  1.1739 -3.5851
 1016MOL0     H37149   3.108   2.375   5.866  1.6048 -0.3749 -1.3995
 1016MOL0     H37150   3.016   2.251   5.687 -1.1213 -0.9729 -1.1309
 1016MOL0     H37151   2.879   2.308   5.790  0.5183  0.2942  0.1542
 1016MOL0     H37152   2.865   2.061   5.691 -0.2560 -0.4881 -0.1384
 1016MOL0     H37153   2.805   2.094   5.841 -1.3804  0.6610 -3.8437
 1016MOL0     H37154   3.080   1.979   5.778 -0.0970  0.6327 -0.8003
 1016MOL0     H37155   3.016   2.002   5.945  0.8604 -0.5738 -0.6703
 1016MOL0     H37156   2.824   1.648   5.818  0.0448 -0.5524 -0.3739
 1016MOL0     H37157   3.268   2.375   6.006 -0.7175 -1.8109 -0.3319
 1016MOL0     H37158   3.455   2.560   6.053  2.2020  0.0561  1.1119
 1016MOL0     H37159   3.496   2.511   6.224  2.8809 -1.4884 -0.8562
 1016MOL0     H37160   3.469   2.397   6.101  1.6701  1.0190 -1.9262
 1017MOL0     O37161   9.996   0.486   6.854  0.5244 -0.8883 -0.0708
 1017MOL0     C37162   9.904   0.507   6.771  0.4006  0.3780  0.3483
 1017MOL0     O37163   9.791   0.586   6.791  0.6168  0.1014 -0.0694
 1017MOL0     C37164   9.720   0.608   6.909 -0.0240  0.3867 -0.4613
 1017MOL0     C37165   9.597   0.675   6.902  0.2815  0.2770  0.0339
 1017MOL0     C37166   9.517   0.694   7.020  0.8116  0.3030 -0.5564
 1017MOL0     C37167   9.558   0.649   7.144  0.2916 -0.2009 -0.0250
 1017MOL0     O37168   9.472   0.679   7.251 -0.6385 -0.0650  0.0667
 1017MOL0     C37169   9.459   0.573   7.340 -0.7826  0.3780  0.4746
 1017MOL0     C37170   9.329   0.599   7.406  1.1100 -0.1921 -0.1065
 1017MOL0     C37171   9.292   0.501   7.518  0.4827 -1.4705  0.6114
 1017MOL0     C37172   9.280   0.356   7.474  0.4344  0.4339 -0.0502
 1017MOL0     C37173   9.242   0.273   7.592  0.3926  0.7590  0.3372
 1017MOL0     C37174   9.235   0.119   7.570  0.4245 -0.3613  0.0997
 1017MOL0     C37175   9.344   0.056   7.477  0.3443  0.4428 -0.2920
 1017MOL0     C37176   9.479   0.048   7.542 -0.4559 -0.1148 -0.0964
 1017MOL0     N37177   9.573  -0.046   7.478  0.0375  0.5450 -0.7132
 1017MOL0     C37178   9.679  -0.001   7.404  0.0642 -0.0762 -0.4785
 1017MOL0     C37179   9.750  -0.113   7.387 -0.8363 -0.0958 -0.1940
 1017MOL0     C37180   9.870  -0.144   7.300  0.3007  0.2227 -0.0182
 1017MOL0     C37181   9.855  -0.072   7.171 -0.3154 -0.4879  0.0664
 1017MOL0     C37182   9.928  -0.162   7.062 -0.0208 -0.3264 -0.4290
 1017MOL0     C37183   9.897  -0.110   6.924  1.2077 -0.9717 -0.6795
 1017MOL0     O37184   9.961  -0.195   6.832  0.3496  0.3733 -0.1864
 1017MOL0     C37185   9.887  -0.240   6.720 -0.5033  1.3447  0.4803
 1017MOL0     C37186   9.947  -0.355   6.656  0.7223  0.0646 -1.5684
 1017MOL0     C37187   9.882  -0.423   6.556  0.8248 -0.1214 -1.0748
 1017MOL0     C37188   9.767  -0.362   6.497 -1.4285  0.5531 -0.0113
 1017MOL0     C37189   9.694  -0.426   6.386  0.2663 -0.1606 -0.7068
 1017MOL0     O37190   9.781  -0.490   6.303  0.4478  0.1361 -0.1141
 1017MOL0     C37191   9.728  -0.549   6.192 -1.3262 -0.7945 -0.5075
 1017MOL0     C37192   9.733  -0.496   6.058 -0.0452 -0.3798  0.4205
 1017MOL0     C37193   9.685  -0.570   5.951 -0.4650 -0.4420  0.2059
 1017MOL0     C37194   9.643  -0.701   5.973  1.5817 -0.2318 -0.0111
 1017MOL0     O37195   9.577  -0.787   5.883  1.1775 -0.2097 -0.6157
 1017MOL0     C37196   9.566  -0.751   5.748 -1.1940 -0.3254 -0.2301
 1017MOL0     C37197   9.426  -0.712   5.724  0.1767  0.5108  0.3222
 1017MOL0     C37198   9.398  -0.692   5.573 -0.4243 -0.2083 -0.4395
 1017MOL0     C37199   9.251  -0.675   5.553  0.5575 -1.1327 -0.4858
 1017MOL0     C37200   9.223  -0.616   5.412  0.3004  0.6425 -0.3723
 1017MOL0     C37201   9.076  -0.612   5.375  0.4557 -0.4606  0.7550
 1017MOL0     C37202   9.009  -0.490   5.438  0.1578 -0.0244  0.5022
 1017MOL0     C37203   8.868  -0.483   5.397  0.2253 -0.4984 -0.1286
 1017MOL0    Cl37204   8.829  -0.502   5.216 -0.6239  0.1024  0.3438
 1017MOL0     C37205   9.643  -0.757   6.106  0.2337 -0.3103  0.3325
 1017MOL0     C37206   9.683  -0.684   6.207 -0.6949 -0.3818 -0.2684
 1017MOL0     O37207   9.576  -0.399   6.359  0.2492 -0.4153  0.1416
 1017MOL0     C37208   9.712  -0.250   6.558 -1.3424 -0.2630 -0.7326
 1017MOL0     C37209   9.769  -0.183   6.669 -0.2290  0.4185 -0.4107
 1017MOL0     N37210   9.680  -0.220   7.442 -0.5031 -0.2058 -0.2057
 1017MOL0     N37211   9.575  -0.178   7.502  0.0396  0.0098  0.5913
 1017MOL0     C37212   9.694   0.597   7.155 -0.0095 -0.2235 -1.1587
 1017MOL0     C37213   9.776   0.587   7.038  0.2097 -0.3569  0.5889
 1017MOL0     C37214   9.911   0.457   6.628 -0.4784  0.5489  0.2534
 1017MOL0     C37215   9.797   0.463   6.541  0.6934 -0.5264 -0.6669
 1017MOL0     C37216   9.794   0.421   6.414  0.7189 -0.0937  0.3310
 1017MOL0     C37217   9.913   0.380   6.361  0.6670  0.8501  0.7116
 1017MOL0     O37218   9.938   0.352   6.227  0.3185 -0.2981  0.2809
 1017MOL0     C37219   9.832   0.376   6.142  0.3334 -0.5150  0.4250
 1017MOL0     C37220   9.868   0.346   5.995  0.3311 -1.4152 -0.6299
 1017MOL0     C37221   9.985   0.426   5.950  0.1408  0.4019  0.1707
 1017MOL0     C37222   9.980   0.449   5.799  1.0140  0.3045  0.3866
 1017MOL0     C37223  10.111   0.473   5.746 -0.0079 -0.4934 -0.0842
 1017MOL0     C37224  10.229   0.484   5.705  0.2620 -0.3634 -0.3306
 1017MOL0     C37225  10.029   0.356   6.441 -0.7327 -0.4263 -0.0963
 1017MOL0     C37226  10.031   0.397   6.571  0.3286 -0.9970  0.7870
 1017MOL0     C37227  10.161   0.368   6.650  0.0557 -0.2450 -0.0645
 1017MOL0     H37228   9.580   0.716   6.803  2.4081 -0.0299 -0.5141
 1017MOL0     H37229   9.419   0.739   7.031 -0.5190 -2.8584  1.8377
 1017MOL0     H37230   9.444   0.478   7.289  1.7700  1.5225 -2.7193
 1017MOL0     H37231   9.547   0.568   7.405 -1.3980 -1.6487  1.2391
 1017MOL0     H37232   9.243   0.598   7.339  0.4086 -0.8306  0.7883
 1017MOL0     H37233   9.345   0.699   7.448  3.7020  0.0401 -1.3745
 1017MOL0     H37234   9.198   0.537   7.562 -1.4348 -3.3992 -1.6188
 1017MOL0     H37235   9.369   0.513   7.594 -0.1971 -0.5424  1.1779
 1017MOL0     H37236   9.199   0.344   7.402 -0.4092 -2.1628  1.2220
 1017MOL0     H37237   9.371   0.316   7.429  0.4944  0.0425  0.4167
 1017MOL0     H37238   9.308   0.284   7.679  0.8099  2.7600 -0.1819
 1017MOL0     H37239   9.147   0.318   7.622  0.2989  2.5426 -2.2735
 1017MOL0     H37240   9.242   0.085   7.674 -0.6870 -0.1610  0.2542
 1017MOL0     H37241   9.135   0.091   7.535  0.1166  2.7117 -1.8146
 1017MOL0     H37242   9.352   0.108   7.381  1.3357  1.5238  0.3424
 1017MOL0     H37243   9.310  -0.044   7.451  4.0291 -1.4765  1.5743
 1017MOL0     H37244   9.517   0.150   7.553 -0.2994  0.1058 -2.2929
 1017MOL0     H37245   9.465   0.006   7.642 -2.2960 -1.2589 -0.7780
 1017MOL0     H37246   9.709   0.099   7.377 -2.2693  0.6329 -0.6518
 1017MOL0     H37247   9.949  -0.113   7.370  1.0538  1.9532 -1.5608
 1017MOL0     H37248   9.879  -0.253   7.294 -1.6272 -0.0925  1.6653
 1017MOL0     H37249   9.749  -0.061   7.146  0.3719 -0.1388 -3.0477
 1017MOL0     H37250   9.910   0.022   7.180 -2.4324  0.6512  2.2435
 1017MOL0     H37251   9.902  -0.268   7.071 -0.8385  0.0112  1.7471
 1017MOL0     H37252  10.035  -0.151   7.082 -0.4910 -0.7700  2.8018
 1017MOL0     H37253   9.943  -0.012   6.906  0.1876 -0.3904 -0.1947
 1017MOL0     H37254   9.789  -0.106   6.911  0.9013 -0.5431  1.6486
 1017MOL0     H37255  10.041  -0.388   6.699  1.1520  1.8455 -1.0252
 1017MOL0     H37256   9.935  -0.513   6.526  1.2278 -0.5156  0.7118
 1017MOL0     H37257   9.781  -0.403   6.030 -2.4734  0.3576 -1.6955
 1017MOL0     H37258   9.673  -0.521   5.855  0.9237  0.7752  0.6098
 1017MOL0     H37259   9.638  -0.681   5.705  1.0179 -3.9896 -3.0742
 1017MOL0     H37260   9.589  -0.840   5.689  0.3826  0.7078 -1.2639
 1017MOL0     H37261   9.350  -0.780   5.765 -0.2273  0.7607 -0.0071
 1017MOL0     H37262   9.424  -0.616   5.776  2.2222  1.8223 -1.8300
 1017MOL0     H37263   9.449  -0.602   5.538 -2.0064 -0.4869 -3.8645
 1017MOL0     H37264   9.444  -0.766   5.506 -2.6964 -1.9203 -0.2365
 1017MOL0     H37265   9.207  -0.625   5.641  2.3434 -0.4581  0.0754
 1017MOL0     H37266   9.190  -0.766   5.560 -0.4442 -0.3532  3.3591
 1017MOL0     H37267   9.275  -0.686   5.345  0.8848  0.7313 -0.0226
 1017MOL0     H37268   9.258  -0.514   5.395  1.5090  0.1252 -1.1806
 1017MOL0     H37269   9.065  -0.612   5.266  1.1352 -0.9101  0.6837
 1017MOL0     H37270   9.023  -0.697   5.418 -2.6220 -0.9409 -3.4024
 1017MOL0     H37271   9.055  -0.401   5.394 -0.6520 -0.6607 -1.7745
 1017MOL0     H37272   9.031  -0.479   5.545  2.6615 -3.2692  0.4758
 1017MOL0     H37273   8.804  -0.557   5.445 -1.5960  1.0914  0.0300
 1017MOL0     H37274   8.832  -0.386   5.434 -1.2833 -1.5488  1.3271
 1017MOL0     H37275   9.593  -0.849   6.132  2.4483 -0.7617  3.5710
 1017MOL0     H37276   9.693  -0.715   6.310  1.3336 -0.0654 -0.3260
 1017MOL0     H37277   9.617  -0.209   6.525 -1.5374  0.9369  1.1570
 1017MOL0     H37278   9.707  -0.101   6.704 -2.3058 -1.8522  1.6493
 1017MOL0     H37279   9.741   0.570   7.249  3.0581  1.3631 -2.0919
 1017MOL0     H37280   9.878   0.552   7.053  1.2411  2.5824  1.0626
 1017MOL0     H37281   9.707   0.502   6.587  0.5011 -1.0309 -0.6090
 1017MOL0     H37282   9.699   0.425   6.362  1.0130 -1.4759 -0.3428
 1017MOL0     H37283   9.808   0.482   6.154 -1.2188 -0.9431  1.3631
 1017MOL0     H37284   9.743   0.317   6.165  1.1218 -0.9843  2.4917
 1017MOL0     H37285   9.780   0.382   5.940  0.2788 -2.0062 -0.9467
 1017MOL0     H37286   9.888   0.241   5.971 -1.8974 -1.8374 -0.8918
 1017MOL0     H37287  10.082   0.391   5.988 -0.5914 -0.3589  1.4146
 1017MOL0     H37288   9.970   0.520   6.004 -2.4053 -0.4123  0.9927
 1017MOL0     H37289   9.928   0.361   5.758  0.7441  0.7349 -0.2054
 1017MOL0     H37290   9.920   0.540   5.791 -4.1656 -2.7528 -0.0433
 1017MOL0     H37291  10.331   0.503   5.676  0.4296  3.1921  1.9636
 1017MOL0     H37292  10.119   0.305   6.408  0.5146  1.5070  0.1564
 1017MOL0     H37293  10.236   0.310   6.595  1.7211  1.2928  0.4499
 1017MOL0     H37294  10.214   0.457   6.685  1.3264 -1.0336  0.1150
 1017MOL0     H37295  10.134   0.309   6.738 -4.4676 -2.4241 -2.5768
 1018MOL0     O37296   5.632   7.207   2.949  0.1154 -0.7496 -0.9704
 1018MOL0     C37297   5.643   7.303   2.877 -0.9520  0.3650 -0.5234
 1018MOL0     O37298   5.589   7.315   2.744  0.1275 -0.0183 -0.1922
 1018MOL0     C37299   5.498   7.228   2.699 -0.0846 -0.1432  0.8499
 1018MOL0     C37300   5.432   7.126   2.762 -0.3372 -0.4024 -1.7915
 1018MOL0     C37301   5.318   7.069   2.707 -1.1819 -0.3687 -0.2541
 1018MOL0     C37302   5.275   7.104   2.577 -0.5100 -0.5717  0.2685
 1018MOL0     O37303   5.163   7.057   2.514  0.4110  0.5293  0.3951
 1018MOL0     C37304   5.165   7.036   2.368 -0.8983 -0.1285  0.5488
 1018MOL0     C37305   5.097   6.909   2.326 -0.0768 -0.2732 -0.3596
 1018MOL0     C37306   4.971   6.873   2.406  1.1535 -0.7374  0.1254
 1018MOL0     C37307   4.929   6.726   2.387  0.0113 -0.1013  0.3297
 1018MOL0     C37308   4.823   6.701   2.488  0.1645 -0.7048  0.1130
 1018MOL0     C37309   4.735   6.579   2.453 -0.7961 -0.5078 -0.6253
 1018MOL0     C37310   4.651   6.547   2.577  0.6151  0.6862  0.5482
 1018MOL0     C37311   4.527   6.470   2.533  0.0139  0.3481  0.0115
 1018MOL0     N37312   4.544   6.326   2.512  0.4524  0.1184 -0.8854
 1018MOL0     C37313   4.523   6.236   2.616 -0.1006  0.2592 -0.2863
 1018MOL0     C37314   4.558   6.114   2.564 -0.1942  0.0095 -0.3300
 1018MOL0     C37315   4.562   5.984   2.629  0.4825 -0.2387  0.0721
 1018MOL0     C37316   4.690   5.984   2.717  0.9986  0.5452 -0.5623
 1018MOL0     C37317   4.808   5.946   2.623 -0.2224  0.3882  0.4432
 1018MOL0     C37318   4.942   5.986   2.682 -0.0667 -0.3108  0.1022
 1018MOL0     O37319   4.954   6.130   2.650 -0.6978 -0.0586  0.3885
 1018MOL0     C37320   5.073   6.192   2.648  0.5973  0.1982 -0.2424
 1018MOL0     C37321   5.171   6.151   2.739 -0.2458  0.3717 -0.1495
 1018MOL0     C37322   5.298   6.208   2.724 -0.1700  0.1336 -0.5808
 1018MOL0     C37323   5.323   6.314   2.635 -1.1605 -0.5480  0.6864
 1018MOL0     C37324   5.445   6.406   2.654  1.0807  0.0072  0.3365
 1018MOL0     O37325   5.449   6.508   2.563  0.0417  0.0286 -0.1527
 1018MOL0     C37326   5.555   6.583   2.560 -0.1604 -0.0896  0.3540
 1018MOL0     C37327   5.547   6.721   2.581 -0.6256 -1.1619  0.7057
 1018MOL0     C37328   5.656   6.809   2.576 -0.8072 -0.6697 -0.8868
 1018MOL0     C37329   5.779   6.754   2.546 -0.8302 -0.8462  0.1015
 1018MOL0     O37330   5.901   6.823   2.559  0.3037 -0.2946 -0.0906
 1018MOL0     C37331   5.906   6.961   2.600  1.2125 -0.5709  0.3924
 1018MOL0     C37332   5.875   7.051   2.479  0.4547  0.3200 -0.1350
 1018MOL0     C37333   5.865   7.191   2.540 -0.3226  0.0487  0.1995
 1018MOL0     C37334   6.004   7.245   2.570  0.0282 -0.7317 -0.0700
 1018MOL0     C37335   6.019   7.369   2.653  1.3187  0.2928  0.2379
 1018MOL0     C37336   6.152   7.438   2.619  0.5207  0.7916  0.6419
 1018MOL0     C37337   6.160   7.561   2.712  0.8107  0.2255 -0.1988
 1018MOL0     C37338   6.305   7.625   2.697  0.4109  1.3526 -0.4319
 1018MOL0    Cl37339   6.379   7.647   2.536  0.0801 -0.2637 -0.5137
 1018MOL0     C37340   5.784   6.613   2.523 -0.3407 -0.0991  0.5686
 1018MOL0     C37341   5.675   6.532   2.519  1.3251 -0.6240  0.0176
 1018MOL0     O37342   5.521   6.382   2.749 -0.9270  0.0284  0.1105
 1018MOL0     C37343   5.218   6.358   2.553  0.2990  0.2293  0.1166
 1018MOL0     C37344   5.098   6.296   2.557  0.5615  0.5097 -0.3272
 1018MOL0     N37345   4.609   6.137   2.437 -0.2335 -0.2464 -0.5961
 1018MOL0     N37346   4.604   6.257   2.406 -0.0960 -0.0072 -1.0427
 1018MOL0     C37347   5.355   7.203   2.507 -0.0103  0.3360 -0.1187
 1018MOL0     C37348   5.455   7.271   2.572  0.3952  0.3252 -0.2255
 1018MOL0     C37349   5.734   7.418   2.905  0.6300 -0.1024 -0.7465
 1018MOL0     C37350   5.781   7.510   2.809 -0.1717 -0.1559  0.1983
 1018MOL0     C37351   5.854   7.621   2.838 -1.2598  0.8604  0.0238
 1018MOL0     C37352   5.904   7.638   2.966 -0.4632  0.6750  0.1263
 1018MOL0     O37353   6.011   7.728   2.974 -0.1443 -0.3824 -0.1356
 1018MOL0     C37354   6.068   7.766   3.104  0.2168  0.6871 -0.2051
 1018MOL0     C37355   6.159   7.883   3.091 -0.4812  0.7001  0.4728
 1018MOL0     C37356   6.077   7.996   3.033 -0.4902  0.7387  0.3120
 1018MOL0     C37357   6.155   8.126   3.016 -0.4712 -0.1454 -0.3518
 1018MOL0     C37358   6.212   8.174   3.147  0.8101 -0.3069  0.9539
 1018MOL0     C37359   6.275   8.205   3.242 -0.0157 -1.1596 -0.3875
 1018MOL0     C37360   5.854   7.558   3.070  0.1727  0.3765 -0.6769
 1018MOL0     C37361   5.777   7.447   3.046  0.0085 -0.1589  0.3623
 1018MOL0     C37362   5.747   7.362   3.163 -0.1604  0.2410  0.4275
 1018MOL0     H37363   5.451   7.094   2.864  1.9839  1.9761 -1.3717
 1018MOL0     H37364   5.264   7.000   2.772 -1.0088  0.5671  0.9278
 1018MOL0     H37365   5.114   7.120   2.321  1.9645 -0.0041 -2.7226
 1018MOL0     H37366   5.269   7.024   2.337 -1.2803 -0.3337 -0.6790
 1018MOL0     H37367   5.174   6.841   2.364  0.4126  0.6508  0.3551
 1018MOL0     H37368   5.088   6.896   2.218 -0.9379  0.6747 -0.4238
 1018MOL0     H37369   4.904   6.954   2.376  1.0682  0.9107  4.1878
 1018MOL0     H37370   5.002   6.895   2.508  4.7033  0.9208 -1.1150
 1018MOL0     H37371   4.876   6.713   2.292 -1.1648 -0.1519  0.9708
 1018MOL0     H37372   5.008   6.650   2.391  0.8342  0.6111 -1.4188
 1018MOL0     H37373   4.867   6.681   2.586  2.1610 -1.0804 -0.7957
 1018MOL0     H37374   4.769   6.795   2.500  1.7779  0.3504 -0.5188
 1018MOL0     H37375   4.677   6.599   2.362  1.4842 -0.9759 -2.2709
 1018MOL0     H37376   4.800   6.495   2.430  0.8994  0.7041 -0.4827
 1018MOL0     H37377   4.625   6.633   2.638  0.1285 -0.1089  1.4920
 1018MOL0     H37378   4.714   6.479   2.636 -0.4552 -0.8397  0.0012
 1018MOL0     H37379   4.453   6.492   2.610  1.0422 -0.5973  1.3143
 1018MOL0     H37380   4.486   6.518   2.443 -0.4159 -1.9979 -1.1316
 1018MOL0     H37381   4.489   6.265   2.715 -1.9196 -3.1030  0.2221
 1018MOL0     H37382   4.467   5.986   2.684 -1.0732  1.0574 -2.4348
 1018MOL0     H37383   4.559   5.900   2.558  0.8951 -0.9184  0.8418
 1018MOL0     H37384   4.713   6.073   2.777  0.9856 -0.7649  1.4761
 1018MOL0     H37385   4.671   5.901   2.786 -0.1733  0.7217 -0.6614
 1018MOL0     H37386   4.804   6.005   2.531 -2.6527 -0.0405  0.1914
 1018MOL0     H37387   4.800   5.843   2.588  0.0564  0.4156  0.2974
 1018MOL0     H37388   5.021   5.934   2.628  1.0773 -0.5805  1.9371
 1018MOL0     H37389   4.964   5.953   2.784  0.3872 -2.8074 -0.7480
 1018MOL0     H37390   5.139   6.085   2.818  0.0452  0.5201  0.0962
 1018MOL0     H37391   5.369   6.178   2.800 -0.8413 -3.8662 -1.2599
 1018MOL0     H37392   5.453   6.768   2.608 -0.4374  1.2734 -2.3428
 1018MOL0     H37393   5.618   6.907   2.600 -3.0328 -0.9173 -3.0299
 1018MOL0     H37394   5.847   6.994   2.686 -0.2145  2.0994 -1.4531
 1018MOL0     H37395   6.008   6.958   2.640 -0.8206 -2.0889  6.4258
 1018MOL0     H37396   5.952   7.044   2.402  0.9662  0.2055  0.3847
 1018MOL0     H37397   5.778   7.028   2.434  0.6675  1.2603 -1.1333
 1018MOL0     H37398   5.814   7.255   2.468  1.0760  1.4335  0.3817
 1018MOL0     H37399   5.802   7.191   2.629 -1.1526 -1.2714 -0.3601
 1018MOL0     H37400   6.067   7.252   2.482 -1.7187 -1.9475 -1.4979
 1018MOL0     H37401   6.066   7.173   2.624  0.5202  0.4045  0.9147
 1018MOL0     H37402   6.002   7.360   2.760  1.8976  1.7828  0.4752
 1018MOL0     H37403   5.928   7.423   2.623  1.4810  1.6394  2.0059
 1018MOL0     H37404   6.231   7.367   2.644  0.9847  1.4738  1.1567
 1018MOL0     H37405   6.153   7.462   2.512 -0.0405 -1.1396  0.1553
 1018MOL0     H37406   6.146   7.529   2.816 -1.8998 -0.0011 -0.5635
 1018MOL0     H37407   6.083   7.633   2.684  0.7067  1.5808  3.0661
 1018MOL0     H37408   6.302   7.714   2.760  0.6939  0.1299  1.4015
 1018MOL0     H37409   6.368   7.553   2.751  0.5432  3.2918  2.1566
 1018MOL0     H37410   5.881   6.565   2.530  0.4986  1.7116  2.3622
 1018MOL0     H37411   5.698   6.430   2.491  0.7155 -0.5152 -0.9114
 1018MOL0     H37412   5.235   6.449   2.496  0.1519  1.5141  2.0290
 1018MOL0     H37413   5.021   6.350   2.503 -0.9064  0.0673  1.2189
 1018MOL0     H37414   5.317   7.239   2.413  0.0541  2.2713  0.5603
 1018MOL0     H37415   5.515   7.342   2.516 -0.7275  0.0317 -1.8623
 1018MOL0     H37416   5.743   7.496   2.708 -3.6072  1.7062  1.0639
 1018MOL0     H37417   5.883   7.675   2.748  0.8414 -1.3480 -0.7201
 1018MOL0     H37418   6.122   7.685   3.154 -1.1257  1.4951  2.7823
 1018MOL0     H37419   5.989   7.789   3.176  0.8536 -1.4081  1.2486
 1018MOL0     H37420   6.252   7.858   3.038 -0.8206 -3.2887  1.4563
 1018MOL0     H37421   6.176   7.901   3.198 -0.8254 -2.9592  1.2827
 1018MOL0     H37422   5.987   7.997   3.095 -1.6642  0.5489 -1.3538
 1018MOL0     H37423   6.041   7.966   2.935  3.0198  0.0425 -0.8960
 1018MOL0     H37424   6.232   8.119   2.939  1.1594  2.0520  0.9507
 1018MOL0     H37425   6.084   8.202   2.983 -0.3642  0.4118  0.6668
 1018MOL0     H37426   6.317   8.224   3.339 -1.5726 -0.8827  0.2529
 1018MOL0     H37427   5.885   7.586   3.171 -1.8115 -0.6360  0.2701
 1018MOL0     H37428   5.782   7.406   3.257  0.2500 -0.2636  0.5155
 1018MOL0     H37429   5.641   7.336   3.162 -0.4438  1.3393 -0.7805
 1018MOL0     H37430   5.807   7.271   3.154  2.2185  1.8240 -1.0296
 1019MOL0     O37431  11.203   8.318   4.867 -0.2005  0.4718 -0.2517
 1019MOL0     C37432  11.114   8.236   4.887  1.0007 -0.4830  0.2126
 1019MOL0     O37433  11.061   8.203   5.014 -0.5048  0.4373  0.4053
 1019MOL0     C37434  11.101   8.265   5.128 -0.3633  0.8570  0.7629
 1019MOL0     C37435  11.113   8.176   5.238  0.5542  0.3478 -0.0360
 1019MOL0     C37436  11.156   8.213   5.359 -0.3537 -0.1942 -0.0116
 1019MOL0     C37437  11.201   8.344   5.375 -0.3625  0.0530  1.1111
 1019MOL0     O37438  11.274   8.387   5.481  0.2093  0.2536  0.1845
 1019MOL0     C37439  11.268   8.322   5.613  0.1730  0.7090 -0.1760
 1019MOL0     C37440  11.388   8.229   5.635  1.1447 -1.3930 -0.7205
 1019MOL0     C37441  11.511   8.324   5.624  0.3598  0.6622 -0.1310
 1019MOL0     C37442  11.646   8.254   5.622 -0.8341 -0.4182 -1.7097
 1019MOL0     C37443  11.756   8.367   5.623 -0.3851 -0.7809 -0.4397
 1019MOL0     C37444  11.894   8.310   5.601 -0.7335  0.4760 -0.1446
 1019MOL0     C37445  11.933   8.257   5.735  0.5569 -0.0184  0.1545
 1019MOL0     C37446  12.081   8.246   5.766 -1.2275 -0.4756  0.4374
 1019MOL0     N37447  12.120   8.153   5.862 -0.6783  0.5439 -0.6890
 1019MOL0     C37448  12.105   8.017   5.832 -0.3783  0.0769  0.1591
 1019MOL0     C37449  12.168   7.961   5.939 -0.2318  0.8150 -0.0382
 1019MOL0     C37450  12.208   7.815   5.936 -0.2730 -0.1135  0.4067
 1019MOL0     C37451  12.089   7.724   5.889 -0.1618  0.0946  0.3030
 1019MOL0     C37452  11.977   7.721   5.997 -0.0977 -0.6498 -0.3892
 1019MOL0     C37453  11.998   7.654   6.123 -0.0339 -0.6004  0.3389
 1019MOL0     O37454  12.015   7.522   6.094 -0.0590  0.0234  0.2134
 1019MOL0     C37455  12.075   7.435   6.179 -0.2034 -0.2790 -1.3628
 1019MOL0     C37456  12.169   7.467   6.286  0.8658  0.1310  0.0901
 1019MOL0     C37457  12.232   7.373   6.367  0.5669 -0.6074  0.1699
 1019MOL0     C37458  12.213   7.242   6.335 -0.1237  0.8100 -0.3456
 1019MOL0     C37459  12.279   7.137   6.406 -0.1592 -0.1303  1.0203
 1019MOL0     O37460  12.338   7.178   6.521  0.5772 -0.6792 -0.4489
 1019MOL0     C37461  12.444   7.105   6.577 -0.3199 -0.0381  0.6947
 1019MOL0     C37462  12.535   7.022   6.514 -1.0405  1.0076 -0.3980
 1019MOL0     C37463  12.639   6.956   6.583  0.2579  0.1034 -0.4581
 1019MOL0     C37464  12.658   6.981   6.716 -0.7753 -0.0851  0.4639
 1019MOL0     O37465  12.755   6.907   6.777  0.5354 -0.0204 -0.6211
 1019MOL0     C37466  12.779   6.938   6.908 -0.5307  0.5352  0.2839
 1019MOL0     C37467  12.906   6.859   6.953 -0.6106 -1.5338 -0.1735
 1019MOL0     C37468  12.964   6.903   7.096 -0.6444 -0.5384  0.1279
 1019MOL0     C37469  13.000   7.047   7.092 -1.2362  0.7320 -0.4135
 1019MOL0     C37470  13.105   7.086   7.196 -0.0076 -0.4828 -0.0110
 1019MOL0     C37471  13.056   7.087   7.336  0.5310  0.6568 -0.2881
 1019MOL0     C37472  13.168   7.124   7.426  0.7929 -0.2897 -0.5480
 1019MOL0     C37473  13.103   7.168   7.556 -0.0336 -0.8886 -0.2106
 1019MOL0    Cl37474  12.997   7.043   7.630 -0.0267  0.0209  0.1934
 1019MOL0     C37475  12.563   7.066   6.777 -0.1963  0.1497 -0.0087
 1019MOL0     C37476  12.460   7.132   6.709  0.0268  0.4389  0.5947
 1019MOL0     O37477  12.282   7.021   6.363  0.1888  0.4990  0.1344
 1019MOL0     C37478  12.116   7.208   6.238  1.4921  0.0924  0.8273
 1019MOL0     C37479  12.055   7.304   6.156  0.2642  0.6222  0.8787
 1019MOL0     N37480  12.204   8.050   6.037 -0.2201 -1.1223  0.0292
 1019MOL0     N37481  12.180   8.169   5.986 -0.7557  0.0366 -0.3130
 1019MOL0     C37482  11.184   8.440   5.271  0.6890  0.5202  0.5960
 1019MOL0     C37483  11.132   8.399   5.140  1.0619 -0.4847 -0.8915
 1019MOL0     C37484  11.047   8.186   4.766 -0.3688  0.5370  0.2815
 1019MOL0     C37485  11.116   8.168   4.649 -0.5771 -0.0535  0.9501
 1019MOL0     C37486  11.062   8.105   4.532 -0.1268  0.3877 -0.2274
 1019MOL0     C37487  10.939   8.050   4.536 -0.9992 -0.1763 -0.1521
 1019MOL0     O37488  10.896   7.981   4.428 -0.6198 -0.0056  0.3508
 1019MOL0     C37489  10.785   7.895   4.448  0.1810  0.5630  0.5726
 1019MOL0     C37490  10.760   7.817   4.314 -0.2220  0.6671 -0.4569
 1019MOL0     C37491  10.887   7.745   4.271 -0.4182 -0.3949 -0.1802
 1019MOL0     C37492  10.897   7.699   4.124 -0.0993 -0.2421  0.4118
 1019MOL0     C37493  10.870   7.815   4.039 -0.8676  0.1451  0.4826
 1019MOL0     C37494  10.839   7.913   3.971 -0.4726 -0.5398  0.1322
 1019MOL0     C37495  10.867   8.060   4.652 -0.3249  0.5688 -0.3131
 1019MOL0     C37496  10.919   8.121   4.767 -0.4793  0.8069 -0.9194
 1019MOL0     C37497  10.823   8.121   4.888 -0.7346  0.4838  0.7601
 1019MOL0     H37498  11.083   8.073   5.227 -0.9203  0.7281  0.2536
 1019MOL0     H37499  11.163   8.138   5.437 -0.5974  1.2335  1.4447
 1019MOL0     H37500  11.280   8.400   5.688  1.4208  1.7156 -1.3716
 1019MOL0     H37501  11.172   8.273   5.635 -0.8478  3.9142  3.6268
 1019MOL0     H37502  11.379   8.149   5.561  2.2376 -2.7753  0.5706
 1019MOL0     H37503  11.386   8.172   5.729  2.7872 -0.7345 -0.2473
 1019MOL0     H37504  11.503   8.392   5.710 -2.0660 -2.2955  2.2294
 1019MOL0     H37505  11.508   8.379   5.530 -2.8893 -0.0157 -0.5393
 1019MOL0     H37506  11.651   8.188   5.710 -0.9461  2.2604  0.4346
 1019MOL0     H37507  11.649   8.200   5.527 -0.3283 -1.4296 -1.1378
 1019MOL0     H37508  11.737   8.428   5.534 -2.6888 -0.3355  0.2931
 1019MOL0     H37509  11.755   8.437   5.706  0.0835 -0.1759 -0.9411
 1019MOL0     H37510  11.899   8.227   5.531  2.9666 -0.6850  1.2742
 1019MOL0     H37511  11.966   8.382   5.562 -0.4504  2.2985  3.2667
 1019MOL0     H37512  11.877   8.163   5.726 -0.5667  0.8667 -4.0746
 1019MOL0     H37513  11.898   8.321   5.817  0.8913  1.9313 -1.1453
 1019MOL0     H37514  12.123   8.232   5.665 -1.6854  2.8105 -0.3405
 1019MOL0     H37515  12.114   8.345   5.797  1.4363 -1.0631 -0.2433
 1019MOL0     H37516  12.073   7.974   5.737 -1.2783  0.4246  0.2908
 1019MOL0     H37517  12.300   7.795   5.880  1.1829  1.1843  2.1936
 1019MOL0     H37518  12.240   7.788   6.037  2.9519 -3.0266 -1.1784
 1019MOL0     H37519  12.051   7.759   5.792  1.0387  1.7963  0.4028
 1019MOL0     H37520  12.122   7.619   5.884 -1.3040 -0.3321  1.4455
 1019MOL0     H37521  11.896   7.659   5.959  2.5653 -3.0112 -2.7533
 1019MOL0     H37522  11.934   7.820   6.015  0.5545 -0.0489 -1.9117
 1019MOL0     H37523  11.927   7.670   6.205  1.2804  1.4763  1.1776
 1019MOL0     H37524  12.098   7.693   6.147 -0.4375 -0.4713  1.9208
 1019MOL0     H37525  12.159   7.571   6.317 -0.4917  0.2489 -0.6670
 1019MOL0     H37526  12.307   7.404   6.439  1.3239  0.9113 -1.2080
 1019MOL0     H37527  12.521   7.001   6.408 -0.9909  0.5265 -0.3146
 1019MOL0     H37528  12.706   6.892   6.526  0.3942 -0.7488  0.6072
 1019MOL0     H37529  12.798   7.045   6.905 -0.0134  0.4311 -2.8366
 1019MOL0     H37530  12.695   6.912   6.975 -0.3120 -1.7952 -0.2461
 1019MOL0     H37531  12.891   6.751   6.946 -2.5746 -1.2432 -1.0095
 1019MOL0     H37532  12.994   6.878   6.891 -0.5372 -1.2374  0.0223
 1019MOL0     H37533  12.878   6.897   7.163 -0.7394  2.0702  0.3567
 1019MOL0     H37534  13.037   6.828   7.127 -0.0685  0.5856  1.6400
 1019MOL0     H37535  12.906   7.100   7.105 -0.6820  1.9348 -1.1708
 1019MOL0     H37536  13.045   7.081   6.998 -0.4302 -0.2546 -0.4041
 1019MOL0     H37537  13.135   7.188   7.173  0.7568 -0.2620  1.7921
 1019MOL0     H37538  13.191   7.018   7.183 -2.7723 -4.2729 -0.3143
 1019MOL0     H37539  12.972   7.156   7.345  0.0249  0.2559 -1.6726
 1019MOL0     H37540  13.016   6.992   7.373 -0.6602  1.0574 -0.5015
 1019MOL0     H37541  13.215   7.218   7.399  0.6220  0.0139  0.1955
 1019MOL0     H37542  13.244   7.045   7.426 -0.2277 -1.3312  1.0843
 1019MOL0     H37543  13.184   7.186   7.628  2.7606 -2.4209 -2.7546
 1019MOL0     H37544  13.046   7.261   7.547 -1.4316 -1.4062  2.2048
 1019MOL0     H37545  12.572   7.091   6.882  1.7875  2.6857 -0.6884
 1019MOL0     H37546  12.399   7.203   6.764 -1.6047  0.4842 -1.1702
 1019MOL0     H37547  12.088   7.104   6.225 -2.1817  1.0583 -0.2087
 1019MOL0     H37548  11.997   7.269   6.072  1.6136 -1.1699  0.6317
 1019MOL0     H37549  11.229   8.539   5.275  3.0670 -0.5030  0.6969
 1019MOL0     H37550  11.117   8.454   5.047  0.7765 -3.2494 -2.6085
 1019MOL0     H37551  11.216   8.208   4.633  0.5210 -3.5114 -2.1258
 1019MOL0     H37552  11.118   8.094   4.439 -0.0338 -1.2817 -0.0105
 1019MOL0     H37553  10.690   7.948   4.465  0.4179  1.2516 -0.1594
 1019MOL0     H37554  10.803   7.828   4.532 -0.1782  2.1948  1.9954
 1019MOL0     H37555  10.735   7.883   4.231 -1.9280 -1.1469 -1.4770
 1019MOL0     H37556  10.683   7.741   4.333 -0.9154  1.1898 -1.1308
 1019MOL0     H37557  10.902   7.658   4.336  1.4779 -1.5315 -1.9784
 1019MOL0     H37558  10.974   7.808   4.290 -0.8394  0.8189 -2.0698
 1019MOL0     H37559  10.998   7.661   4.104  0.2348  1.4245 -1.3599
 1019MOL0     H37560  10.818   7.624   4.116  0.8181 -1.0474 -2.4355
 1019MOL0     H37561  10.805   8.007   3.932 -2.0612 -1.0501  0.2294
 1019MOL0     H37562  10.772   8.008   4.653 -1.3994  2.3607 -2.1035
 1019MOL0     H37563  10.831   8.207   4.954 -0.9814  0.4019  0.8970
 1019MOL0     H37564  10.720   8.110   4.853 -0.1801 -1.1092 -0.5290
 1019MOL0     H37565  10.854   8.034   4.947 -2.5496  1.1292  2.7787
 1020MOL0     O37566   1.638   1.589   7.125  0.6563 -0.3021 -0.4470
 1020MOL0     C37567   1.674   1.709   7.129  0.4377  0.6953  0.1213
 1020MOL0     O37568   1.805   1.756   7.141  0.9205  0.7205 -0.1832
 1020MOL0     C37569   1.909   1.674   7.105  0.4815  0.1957 -0.0017
 1020MOL0     C37570   1.966   1.666   6.970  0.4693 -0.1566 -0.2485
 1020MOL0     C37571   2.070   1.573   6.948  0.5295 -0.2880 -0.6166
 1020MOL0     C37572   2.117   1.488   7.049  0.1071  0.7580  0.4679
 1020MOL0     O37573   2.225   1.401   7.027  0.0175  0.6447 -0.0209
 1020MOL0     C37574   2.241   1.334   6.899 -0.1416  0.7208 -0.2180
 1020MOL0     C37575   2.287   1.186   6.901 -0.7815 -0.0407  0.3493
 1020MOL0     C37576   2.302   1.157   6.742 -0.1794 -0.8893 -0.7331
 1020MOL0     C37577   2.271   1.017   6.705  0.1324  0.4197 -0.0844
 1020MOL0     C37578   2.336   0.960   6.576  0.3946 -0.3726 -0.3149
 1020MOL0     C37579   2.320   1.052   6.451 -0.4169 -0.2044  0.3265
 1020MOL0     C37580   2.181   1.100   6.404 -0.1026 -0.3897 -0.4107
 1020MOL0     C37581   2.184   1.234   6.339  0.9485 -0.5079  0.3999
 1020MOL0     N37582   2.219   1.355   6.416  0.2079  1.0183  0.0714
 1020MOL0     C37583   2.353   1.379   6.449  0.4535 -0.1346 -0.0683
 1020MOL0     C37584   2.342   1.477   6.542 -0.5095  0.0722  0.1241
 1020MOL0     C37585   2.456   1.541   6.616  0.8016  0.4736  0.2809
 1020MOL0     C37586   2.588   1.542   6.532  0.5226 -0.0936  0.0155
 1020MOL0     C37587   2.687   1.641   6.579  1.0789  0.1341  0.1388
 1020MOL0     C37588   2.821   1.659   6.499 -0.0391  0.8814  0.2913
 1020MOL0     O37589   2.918   1.712   6.590 -0.6462  0.5479 -0.3726
 1020MOL0     C37590   3.048   1.721   6.542  0.6756 -0.6508  0.1324
 1020MOL0     C37591   3.151   1.770   6.626 -0.7043  0.2687  0.9758
 1020MOL0     C37592   3.280   1.788   6.568  0.4667 -0.0679 -0.4979
 1020MOL0     C37593   3.310   1.725   6.445 -0.4506  0.6485 -0.4056
 1020MOL0     C37594   3.456   1.711   6.391 -0.0680 -0.4565 -0.0777
 1020MOL0     O37595   3.489   1.651   6.269  0.6389 -0.3910  0.3817
 1020MOL0     C37596   3.623   1.639   6.223 -0.1976 -0.1269  0.3730
 1020MOL0     C37597   3.729   1.594   6.316 -0.5983  0.3169  0.8801
 1020MOL0     C37598   3.853   1.578   6.259  0.6356 -0.8023  0.5402
 1020MOL0     C37599   3.875   1.586   6.115  0.1289 -0.4026 -0.2336
 1020MOL0     O37600   3.999   1.578   6.067 -0.3318 -0.3991  0.2101
 1020MOL0     C37601   4.069   1.454   6.093  0.1038 -0.0323  0.5508
 1020MOL0     C37602   4.209   1.445   6.038 -0.2373  0.0433 -0.0221
 1020MOL0     C37603   4.228   1.523   5.899 -0.2181 -0.9175  0.5172
 1020MOL0     C37604   4.154   1.449   5.780  0.8816 -0.0274  0.9068
 1020MOL0     C37605   4.214   1.470   5.638 -0.1891  0.9127 -0.1413
 1020MOL0     C37606   4.192   1.603   5.575 -0.0458 -0.3474  0.5245
 1020MOL0     C37607   4.223   1.599   5.430  0.4811 -0.5353  0.4655
 1020MOL0     C37608   4.104   1.576   5.336  0.3091  0.1595  0.3695
 1020MOL0    Cl37609   4.173   1.603   5.165 -0.1693  0.1800 -0.3330
 1020MOL0     C37610   3.770   1.623   6.025  0.3098 -0.4207 -0.4276
 1020MOL0     C37611   3.644   1.649   6.082  0.0545  0.0335 -0.4821
 1020MOL0     O37612   3.538   1.760   6.463 -0.9061 -0.5090 -0.9143
 1020MOL0     C37613   3.201   1.695   6.351 -0.9213 -0.5894 -0.2776
 1020MOL0     C37614   3.078   1.695   6.406 -0.1557  0.7012 -0.1940
 1020MOL0     N37615   2.204   1.487   6.573 -1.3369 -0.7109 -0.4279
 1020MOL0     N37616   2.126   1.410   6.504  0.7269 -0.3120  1.1675
 1020MOL0     C37617   2.060   1.497   7.178  0.4457 -0.2193  1.1560
 1020MOL0     C37618   1.960   1.586   7.202  0.0810 -0.1675 -0.4528
 1020MOL0     C37619   1.561   1.811   7.118 -0.6457  0.2272  0.5961
 1020MOL0     C37620   1.504   1.843   6.993 -0.0154  0.2773  0.1392
 1020MOL0     C37621   1.402   1.938   6.980 -0.6656  0.3204  0.3056
 1020MOL0     C37622   1.359   2.006   7.094  0.0560 -0.4835  0.0702
 1020MOL0     O37623   1.253   2.104   7.088 -0.1822 -0.1533 -1.0524
 1020MOL0     C37624   1.152   2.091   7.190 -0.1016 -1.1333  0.0861
 1020MOL0     C37625   1.159   2.195   7.306  0.2316 -0.7613  0.1955
 1020MOL0     C37626   1.046   2.172   7.395  0.1770 -0.1563  0.2689
 1020MOL0     C37627   1.041   2.275   7.500  0.0264 -0.2413 -1.6922
 1020MOL0     C37628   1.125   2.244   7.619  0.8969  0.0747  0.4126
 1020MOL0     C37629   1.185   2.198   7.710 -0.7568  0.3737 -0.2343
 1020MOL0     C37630   1.420   1.981   7.220 -0.1187 -0.2247 -0.4028
 1020MOL0     C37631   1.516   1.876   7.234  0.0276 -0.4349  0.7574
 1020MOL0     C37632   1.578   1.842   7.362  0.6178 -0.8023  0.8727
 1020MOL0     H37633   1.935   1.740   6.896 -0.0302  1.6145  1.6469
 1020MOL0     H37634   2.113   1.562   6.849  0.7665  2.8445 -0.9331
 1020MOL0     H37635   2.150   1.345   6.839  0.0053 -1.4506 -0.9039
 1020MOL0     H37636   2.314   1.383   6.834  1.0346 -0.1663  0.4003
 1020MOL0     H37637   2.215   1.118   6.946 -0.7321 -0.7183 -0.5770
 1020MOL0     H37638   2.378   1.175   6.962 -1.2053  0.2564  1.0410
 1020MOL0     H37639   2.405   1.174   6.709 -1.5383 -0.0755 -5.1099
 1020MOL0     H37640   2.238   1.228   6.688  1.5777  1.2937 -0.1066
 1020MOL0     H37641   2.297   0.951   6.787 -0.1437 -1.6939 -1.6190
 1020MOL0     H37642   2.165   1.010   6.680  0.1556  2.7285 -1.1570
 1020MOL0     H37643   2.444   0.947   6.587  0.6121 -0.5379 -2.2823
 1020MOL0     H37644   2.294   0.863   6.549 -1.9479  0.4057  0.3167
 1020MOL0     H37645   2.389   1.134   6.473 -0.8791 -0.3772  2.6193
 1020MOL0     H37646   2.357   0.995   6.365  1.7211 -0.1764  1.1781
 1020MOL0     H37647   2.123   1.098   6.497  1.6686  0.4135  0.7683
 1020MOL0     H37648   2.138   1.025   6.336 -1.9517 -2.0494  2.3691
 1020MOL0     H37649   2.249   1.226   6.251  0.1551  0.4380 -0.3014
 1020MOL0     H37650   2.089   1.252   6.289  1.5897 -1.9158 -1.4308
 1020MOL0     H37651   2.442   1.333   6.406  0.5074  0.7105 -0.8796
 1020MOL0     H37652   2.421   1.642   6.636 -0.0988  1.0743 -3.5255
 1020MOL0     H37653   2.472   1.485   6.709 -2.1922 -1.3488 -0.1747
 1020MOL0     H37654   2.632   1.442   6.529 -0.2391 -0.4161 -0.7626
 1020MOL0     H37655   2.577   1.562   6.425  4.4202  1.1438 -0.3322
 1020MOL0     H37656   2.719   1.622   6.682 -1.5496  1.3683  1.2609
 1020MOL0     H37657   2.634   1.736   6.586  1.1795  0.5437 -3.2757
 1020MOL0     H37658   2.812   1.721   6.409  0.2798 -0.3258 -0.5943
 1020MOL0     H37659   2.859   1.561   6.472  0.1992  1.2474 -0.7527
 1020MOL0     H37660   3.108   1.803   6.720 -0.4174  0.3628  1.0751
 1020MOL0     H37661   3.363   1.830   6.623 -2.1572  0.7289  3.2569
 1020MOL0     H37662   3.718   1.591   6.424  1.0400 -0.7929  1.0518
 1020MOL0     H37663   3.938   1.561   6.325  4.4225  4.3928 -2.2539
 1020MOL0     H37664   4.075   1.430   6.199  0.7856 -0.9853  0.3093
 1020MOL0     H37665   4.005   1.386   6.038 -0.1085  1.0108 -0.5423
 1020MOL0     H37666   4.284   1.488   6.104  1.9520  0.0686 -2.3468
 1020MOL0     H37667   4.245   1.342   6.031 -1.9646 -0.6844  0.9928
 1020MOL0     H37668   4.190   1.625   5.907 -1.2220 -1.1148 -1.1865
 1020MOL0     H37669   4.332   1.521   5.864 -0.2232  3.3829 -0.2576
 1020MOL0     H37670   4.050   1.484   5.774  0.5705 -0.9956  0.3915
 1020MOL0     H37671   4.154   1.341   5.800  1.1007  0.0821  1.5144
 1020MOL0     H37672   4.176   1.388   5.577  0.6027 -1.5707  2.4770
 1020MOL0     H37673   4.322   1.451   5.640 -0.5103 -1.2960 -1.2708
 1020MOL0     H37674   4.095   1.647   5.600  1.2900  2.1902  1.5182
 1020MOL0     H37675   4.254   1.675   5.629 -1.4960  0.2500  1.4630
 1020MOL0     H37676   4.297   1.523   5.404 -1.2336 -2.5007  1.0682
 1020MOL0     H37677   4.255   1.701   5.405 -1.0499 -0.1427 -0.0414
 1020MOL0     H37678   4.057   1.478   5.347  1.2060 -0.3173  0.0580
 1020MOL0     H37679   4.035   1.659   5.355  1.7034  1.1039  1.4875
 1020MOL0     H37680   3.770   1.643   5.919 -1.9585 -0.5653 -0.5080
 1020MOL0     H37681   3.566   1.689   6.017  0.7181  1.5395 -0.3848
 1020MOL0     H37682   3.228   1.666   6.249  2.3258  0.6907  0.1195
 1020MOL0     H37683   3.003   1.676   6.330  1.0498 -0.0439 -1.2177
 1020MOL0     H37684   2.084   1.431   7.261  2.8916  1.8882  2.3122
 1020MOL0     H37685   1.922   1.602   7.303 -1.5692 -0.4736 -1.0026
 1020MOL0     H37686   1.543   1.794   6.904  0.8919 -0.1607  0.7593
 1020MOL0     H37687   1.363   1.976   6.887 -1.5484  4.4657  2.1609
 1020MOL0     H37688   1.135   1.991   7.231 -3.3664 -0.4851  0.5909
 1020MOL0     H37689   1.053   2.112   7.149 -0.4987 -1.2966  0.9414
 1020MOL0     H37690   1.155   2.301   7.277 -3.8474  0.0422  2.8780
 1020MOL0     H37691   1.258   2.189   7.354  0.8727 -1.6568 -1.1737
 1020MOL0     H37692   1.030   2.068   7.423  0.0056 -0.6947 -1.7229
 1020MOL0     H37693   0.957   2.194   7.335 -0.4389 -1.2648  0.7442
 1020MOL0     H37694   1.068   2.377   7.471 -1.1705  0.8223  0.6641
 1020MOL0     H37695   0.946   2.282   7.553  2.1076  0.7671  2.2714
 1020MOL0     H37696   1.237   2.163   7.797  0.5273  4.5474  0.9333
 1020MOL0     H37697   1.392   2.047   7.301 -0.5741 -0.6420 -0.2150
 1020MOL0     H37698   1.545   1.739   7.381 -3.4742  0.3630  0.9922
 1020MOL0     H37699   1.687   1.836   7.356  0.8899  2.8419  0.0743
 1020MOL0     H37700   1.558   1.917   7.438  0.5791  0.0815  0.0081
 1021MOL0     O37701   5.753  10.873   2.191  0.0955 -0.2883 -0.8666
 1021MOL0     C37702   5.675  10.921   2.110  0.6416 -0.0990 -0.2729
 1021MOL0     O37703   5.710  10.998   2.006  0.2091  0.0659  0.9513
 1021MOL0     C37704   5.832  11.054   2.000 -0.4141 -0.7111  0.7093
 1021MOL0     C37705   5.910  11.046   1.880  0.3151 -0.2710 -1.0672
 1021MOL0     C37706   6.034  11.106   1.867 -0.2654  0.7503  1.0515
 1021MOL0     C37707   6.091  11.166   1.974  0.0676  0.7792  0.3125
 1021MOL0     O37708   6.210  11.226   1.945  0.2566 -0.2989  0.1816
 1021MOL0     C37709   6.319  11.202   2.038 -0.7936 -0.1496  0.0001
 1021MOL0     C37710   6.396  11.332   2.075  0.2524 -0.3606  0.4402
 1021MOL0     C37711   6.322  11.421   2.181  0.1622 -0.5125 -0.0071
 1021MOL0     C37712   6.421  11.541   2.204  0.5501  0.0538 -0.6115
 1021MOL0     C37713   6.362  11.630   2.314 -0.0623 -0.0418  0.1190
 1021MOL0     C37714   6.435  11.765   2.331  0.2794  0.2817 -0.7063
 1021MOL0     C37715   6.395  11.829   2.468 -0.1923 -0.5161 -0.4826
 1021MOL0     C37716   6.460  11.967   2.464 -0.2805  0.7765 -0.8326
 1021MOL0     N37717   6.464  12.040   2.596  0.4461  0.0868  0.0147
 1021MOL0     C37718   6.532  12.002   2.705 -0.8869 -0.3099 -0.3738
 1021MOL0     C37719   6.511  12.091   2.801 -0.3842  1.3066 -0.0080
 1021MOL0     C37720   6.595  12.097   2.927  0.6619  0.3340 -0.1119
 1021MOL0     C37721   6.741  12.152   2.892  0.5024 -0.8966  0.2024
 1021MOL0     C37722   6.738  12.277   2.794  0.7796 -0.5894  1.5109
 1021MOL0     C37723   6.872  12.358   2.808  0.1657  0.2196 -0.0620
 1021MOL0     O37724   6.867  12.429   2.930  0.3638 -0.9913 -0.0365
 1021MOL0     C37725   6.983  12.492   2.953  0.5326  0.4696  0.9457
 1021MOL0     C37726   6.996  12.632   2.950 -0.1200  0.0358  0.2246
 1021MOL0     C37727   7.125  12.688   2.977  1.0148 -0.1255  0.4650
 1021MOL0     C37728   7.225  12.608   3.034 -0.0551  0.1361  0.9982
 1021MOL0     C37729   7.348  12.664   3.082 -0.6533  1.0043  0.4805
 1021MOL0     O37730   7.348  12.797   3.087  0.5963 -0.4071  0.0224
 1021MOL0     C37731   7.436  12.860   3.173  0.5953 -0.6704 -0.6976
 1021MOL0     C37732   7.521  12.808   3.273  0.0726  0.0735 -0.5177
 1021MOL0     C37733   7.603  12.891   3.348  0.6215  0.3011 -0.2118
 1021MOL0     C37734   7.602  13.030   3.324 -0.7022  0.6092  0.4376
 1021MOL0     O37735   7.663  13.126   3.396 -0.0866  0.3597 -0.3070
 1021MOL0     C37736   7.711  13.093   3.533  1.2397 -0.4789 -0.1381
 1021MOL0     C37737   7.766  13.229   3.599 -0.2619  0.5724 -0.2161
 1021MOL0     C37738   7.661  13.343   3.604  0.8859  0.8836  0.4545
 1021MOL0     C37739   7.722  13.474   3.648 -0.5134  0.4752 -0.0421
 1021MOL0     C37740   7.733  13.481   3.797  0.0822 -0.0492 -0.1053
 1021MOL0     C37741   7.793  13.618   3.846 -0.4479 -0.6038 -0.1273
 1021MOL0     C37742   7.688  13.731   3.859 -0.1686 -0.4006  0.1700
 1021MOL0     C37743   7.760  13.841   3.935  0.3789 -0.8735  0.1131
 1021MOL0    Cl37744   7.690  13.863   4.102  0.1348  0.1846  0.4031
 1021MOL0     C37745   7.535  13.077   3.217 -0.2198 -0.8122  0.0936
 1021MOL0     C37746   7.447  12.999   3.150 -0.3102  0.9685  0.1110
 1021MOL0     O37747   7.441  12.587   3.105  0.0861  0.1949  0.1646
 1021MOL0     C37748   7.200  12.470   3.047 -0.4501  0.3757  0.3755
 1021MOL0     C37749   7.086  12.411   3.003  0.5257  0.2808 -0.5593
 1021MOL0     N37750   6.420  12.176   2.754 -0.1083 -0.2617  0.4207
 1021MOL0     N37751   6.383  12.148   2.628 -0.0818 -0.0027 -0.5775
 1021MOL0     C37752   6.011  11.198   2.086 -1.0595 -1.0872 -0.3328
 1021MOL0     C37753   5.887  11.127   2.107  0.2975 -1.0805  0.9556
 1021MOL0     C37754   5.531  10.879   2.115 -0.3833 -1.0260 -0.0558
 1021MOL0     C37755   5.480  10.861   2.242  0.3301  0.4458 -0.0161
 1021MOL0     C37756   5.345  10.811   2.249  0.3190 -0.4948 -0.5161
 1021MOL0     C37757   5.273  10.781   2.138  0.9284 -0.1505  0.2198
 1021MOL0     O37758   5.146  10.728   2.135  0.4393 -0.2900  0.1441
 1021MOL0     C37759   5.065  10.760   2.246  0.6063 -0.4451  0.1112
 1021MOL0     C37760   4.925  10.704   2.223  0.3121  0.0120  0.1154
 1021MOL0     C37761   4.843  10.709   2.353 -0.4504 -0.7791 -0.6864
 1021MOL0     C37762   4.769  10.838   2.388  0.2346  0.2373  0.2781
 1021MOL0     C37763   4.818  10.897   2.510  0.5043  1.1680  0.6572
 1021MOL0     C37764   4.868  10.950   2.604  0.7166 -1.1777 -0.7771
 1021MOL0     C37765   5.330  10.783   2.014 -0.2167  0.1701 -0.3362
 1021MOL0     C37766   5.461  10.846   2.002  0.8369 -0.1267 -0.0254
 1021MOL0     C37767   5.513  10.849   1.859 -1.0130 -1.0285  0.6883
 1021MOL0     H37768   5.876  10.975   1.806  2.3543 -2.4314 -0.0472
 1021MOL0     H37769   6.089  11.097   1.774 -0.7841  3.4463  0.3866
 1021MOL0     H37770   6.273  11.168   2.131 -0.5835 -0.5692 -0.0501
 1021MOL0     H37771   6.388  11.124   2.006 -0.2391  0.5021 -0.4244
 1021MOL0     H37772   6.403  11.376   1.975 -0.1402 -0.3590  0.4138
 1021MOL0     H37773   6.493  11.305   2.119 -0.6504 -1.2049  2.0395
 1021MOL0     H37774   6.309  11.368   2.276 -1.3318  2.8520  1.8498
 1021MOL0     H37775   6.223  11.462   2.157  1.3812  3.0459  0.3806
 1021MOL0     H37776   6.519  11.505   2.238  0.1984 -0.6697 -0.3391
 1021MOL0     H37777   6.433  11.595   2.110  0.8289  0.0396 -0.5869
 1021MOL0     H37778   6.255  11.640   2.294 -0.4940 -2.2325  1.0149
 1021MOL0     H37779   6.363  11.578   2.410 -0.3509  2.4749  1.5767
 1021MOL0     H37780   6.542  11.746   2.328  0.6195  1.5987  1.2667
 1021MOL0     H37781   6.410  11.825   2.243  1.5105  3.3145  0.8881
 1021MOL0     H37782   6.422  11.765   2.553 -1.2843 -1.9977 -1.1948
 1021MOL0     H37783   6.288  11.850   2.466 -0.4330 -1.4510 -3.9728
 1021MOL0     H37784   6.563  11.956   2.428 -0.4613  0.7413 -1.3438
 1021MOL0     H37785   6.408  12.036   2.396  0.3110 -1.3892 -3.6646
 1021MOL0     H37786   6.594  11.913   2.702  0.6407  0.7500 -2.8441
 1021MOL0     H37787   6.548  12.161   3.002 -2.9173 -2.5515  0.3727
 1021MOL0     H37788   6.598  12.000   2.975 -0.8328  0.3606  0.0636
 1021MOL0     H37789   6.798  12.186   2.979  2.0760 -1.9001 -0.4035
 1021MOL0     H37790   6.803  12.076   2.845  1.2192 -0.2667  0.1177
 1021MOL0     H37791   6.645  12.331   2.810 -0.3048 -2.3169  1.2803
 1021MOL0     H37792   6.729  12.236   2.693 -0.9932  1.6658  0.6692
 1021MOL0     H37793   6.885  12.418   2.718  0.8689  1.9545  1.1581
 1021MOL0     H37794   6.955  12.286   2.808  1.5092  1.7131 -1.0435
 1021MOL0     H37795   6.917  12.700   2.923  0.1294 -0.6731 -2.6651
 1021MOL0     H37796   7.130  12.796   2.964 -2.9446  0.3678  1.6089
 1021MOL0     H37797   7.536  12.702   3.294 -0.4426  0.4629  2.1634
 1021MOL0     H37798   7.654  12.849   3.434  1.0666 -2.5995 -1.7651
 1021MOL0     H37799   7.631  13.045   3.589 -0.9496  2.7933 -0.1892
 1021MOL0     H37800   7.789  13.016   3.529  0.1632 -1.5574 -2.9387
 1021MOL0     H37801   7.792  13.212   3.704  1.9809  2.2093 -0.4199
 1021MOL0     H37802   7.859  13.251   3.546  1.3522  0.5019  2.4200
 1021MOL0     H37803   7.609  13.348   3.508 -0.0061 -2.7173  0.6199
 1021MOL0     H37804   7.584  13.311   3.676  1.6293 -1.6377  0.2170
 1021MOL0     H37805   7.660  13.557   3.612 -2.3340 -1.3173 -1.3048
 1021MOL0     H37806   7.821  13.483   3.601 -1.7606  2.6979 -2.4946
 1021MOL0     H37807   7.786  13.391   3.829 -1.5186 -1.6630 -1.7699
 1021MOL0     H37808   7.634  13.475   3.844 -0.2042  0.9467 -0.5500
 1021MOL0     H37809   7.834  13.599   3.946 -1.8215 -1.3596  0.3230
 1021MOL0     H37810   7.877  13.654   3.785 -0.5982  2.2174  1.1940
 1021MOL0     H37811   7.607  13.699   3.924  0.2816 -3.3881 -0.5947
 1021MOL0     H37812   7.656  13.753   3.757  0.4419 -3.3519 -0.7613
 1021MOL0     H37813   7.869  13.839   3.924  0.2186 -1.7787 -1.6227
 1021MOL0     H37814   7.734  13.935   3.885  1.9000  0.6025  1.9064
 1021MOL0     H37815   7.532  13.185   3.208  0.1565 -0.8058  0.0368
 1021MOL0     H37816   7.387  13.045   3.072  0.2096 -0.8608 -1.4692
 1021MOL0     H37817   7.277  12.408   3.094 -1.4604  0.4707  2.2514
 1021MOL0     H37818   7.079  12.304   3.020  0.7481 -0.0371 -2.3057
 1021MOL0     H37819   6.032  11.252   2.178 -2.9316  1.0657 -1.0836
 1021MOL0     H37820   5.835  11.134   2.202 -1.2031  2.4259  0.0604
 1021MOL0     H37821   5.545  10.891   2.323  0.1931  0.5579  0.0523
 1021MOL0     H37822   5.306  10.795   2.349  3.8279  0.5719  1.2016
 1021MOL0     H37823   5.069  10.868   2.264 -2.8714  0.4262 -3.0218
 1021MOL0     H37824   5.112  10.707   2.329  1.6769  1.0545  0.5019
 1021MOL0     H37825   4.926  10.602   2.182 -2.7459 -1.6400  3.5110
 1021MOL0     H37826   4.879  10.767   2.147  1.1200 -1.0645 -1.3259
 1021MOL0     H37827   4.902  10.681   2.441  0.1902  1.2006 -0.4524
 1021MOL0     H37828   4.761  10.641   2.326 -0.7401  0.6016 -3.7213
 1021MOL0     H37829   4.778  10.912   2.308  0.4770 -0.0430  0.0466
 1021MOL0     H37830   4.663  10.819   2.403  0.0986 -0.4012 -1.3662
 1021MOL0     H37831   4.899  11.011   2.686 -1.9807 -0.4311 -0.2456
 1021MOL0     H37832   5.275  10.737   1.932  2.8040 -5.9579  0.5005
 1021MOL0     H37833   5.463  10.777   1.794  3.5962 -1.0959 -3.3347
 1021MOL0     H37834   5.520  10.951   1.819 -1.7451 -2.2574 -2.9551
 1021MOL0     H37835   5.616  10.813   1.857  0.3506  2.3875  1.9377
 1022MOL0     O37836   6.765   6.105   9.060  0.3917 -0.1250  0.9828
 1022MOL0     C37837   6.692   6.140   8.965  0.6402  0.9188  0.3168
 1022MOL0     O37838   6.556   6.150   8.974  1.0909 -0.9485  0.4453
 1022MOL0     C37839   6.478   6.128   9.090 -1.1419 -0.1421 -0.3128
 1022MOL0     C37840   6.336   6.146   9.066 -1.0590 -1.1083  0.5447
 1022MOL0     C37841   6.251   6.105   9.164  0.4615 -0.0460 -0.9455
 1022MOL0     C37842   6.291   6.059   9.291  0.3905 -0.0931  0.6578
 1022MOL0     O37843   6.199   6.023   9.385 -0.1231  0.0223 -0.8211
 1022MOL0     C37844   6.217   6.062   9.514 -0.2181  0.1980 -0.5488
 1022MOL0     C37845   6.098   5.987   9.579  0.3454  0.4218 -0.5468
 1022MOL0     C37846   6.136   5.842   9.604 -0.0485  0.0912  0.1620
 1022MOL0     C37847   6.029   5.771   9.677  0.6386  0.5322 -0.3709
 1022MOL0     C37848   6.083   5.738   9.821  0.7698  0.4265  0.5231
 1022MOL0     C37849   5.965   5.725   9.913 -0.6320  1.0348 -0.3716
 1022MOL0     C37850   6.013   5.663  10.041  0.0720  0.3126 -0.0719
 1022MOL0     C37851   5.905   5.681  10.155 -0.5645  0.0881 -0.1669
 1022MOL0     N37852   5.943   5.598  10.271 -0.1261 -0.1702  0.0488
 1022MOL0     C37853   5.970   5.466  10.276  0.1082  0.7804  0.4110
 1022MOL0     C37854   5.986   5.422  10.402  0.2328 -0.0156 -0.2593
 1022MOL0     C37855   6.073   5.300  10.448 -0.5908 -0.8252  0.6389
 1022MOL0     C37856   6.010   5.206  10.547  0.2722  0.6406 -0.6468
 1022MOL0     C37857   5.903   5.114  10.494 -0.3772  0.4629  0.2164
 1022MOL0     C37858   5.773   5.187  10.461  0.4206 -0.2221  0.0912
 1022MOL0     O37859   5.671   5.084  10.440  0.1160  0.0348 -0.0767
 1022MOL0     C37860   5.672   5.029  10.321  0.3084  0.1871  0.2774
 1022MOL0     C37861   5.772   5.041  10.218 -1.2084  0.5468 -0.0077
 1022MOL0     C37862   5.756   4.966  10.095 -0.3256 -0.3251 -0.7413
 1022MOL0     C37863   5.639   4.898  10.064 -0.2414  1.1924 -0.3347
 1022MOL0     C37864   5.617   4.829   9.931  0.3728  0.3218 -0.5621
 1022MOL0     O37865   5.495   4.764   9.916 -0.6423 -0.4379  0.3032
 1022MOL0     C37866   5.471   4.674   9.811  0.0973  0.4085  0.1028
 1022MOL0     C37867   5.336   4.674   9.750  0.0676  0.3944 -0.0655
 1022MOL0     C37868   5.305   4.584   9.647  0.2397  0.4259  0.0862
 1022MOL0     C37869   5.409   4.522   9.582  0.4171 -1.0489  0.7628
 1022MOL0     O37870   5.406   4.469   9.452 -0.1976  0.9873 -0.0396
 1022MOL0     C37871   5.288   4.450   9.379  0.6581 -0.0901  0.4501
 1022MOL0     C37872   5.308   4.344   9.277 -0.1112  0.3632 -0.1492
 1022MOL0     C37873   5.431   4.372   9.174  0.9052  0.2197 -0.2305
 1022MOL0     C37874   5.400   4.351   9.020 -0.4007 -0.3902  0.6591
 1022MOL0     C37875   5.499   4.236   8.973 -0.2235  0.2432 -1.1524
 1022MOL0     C37876   5.545   4.253   8.832  0.5210  0.6530  0.4967
 1022MOL0     C37877   5.610   4.119   8.781  0.6079  0.0293  0.1199
 1022MOL0     C37878   5.674   4.142   8.645 -0.3240  0.4970  0.4593
 1022MOL0    Cl37879   5.560   4.088   8.521 -0.0697 -0.5764  0.4524
 1022MOL0     C37880   5.538   4.510   9.641  0.1753  0.8388  0.6252
 1022MOL0     C37881   5.575   4.589   9.750  0.0407  0.0076 -0.2001
 1022MOL0     O37882   5.705   4.853   9.838 -0.1482 -0.2957  0.2208
 1022MOL0     C37883   5.541   4.885  10.174 -0.0532 -0.2252  0.0402
 1022MOL0     C37884   5.561   4.942  10.294  0.1473  0.3331 -0.7475
 1022MOL0     N37885   5.954   5.532  10.482  0.0415  0.1360 -0.3024
 1022MOL0     N37886   5.926   5.633  10.403 -0.9710  0.3724 -0.5785
 1022MOL0     C37887   6.424   6.058   9.316  0.3750 -0.8045 -0.6508
 1022MOL0     C37888   6.522   6.087   9.219 -0.9000 -0.0331  0.2340
 1022MOL0     C37889   6.743   6.169   8.823 -0.1220  0.5286  0.1056
 1022MOL0     C37890   6.643   6.180   8.716  0.0301 -0.0563 -0.4754
 1022MOL0     C37891   6.685   6.196   8.588  0.6420 -0.3416 -0.7574
 1022MOL0     C37892   6.823   6.203   8.551 -0.3339 -0.9912  0.3016
 1022MOL0     O37893   6.846   6.224   8.416 -0.3836  0.2300  0.0782
 1022MOL0     C37894   6.984   6.228   8.366 -0.0325 -0.6971 -0.3643
 1022MOL0     C37895   6.986   6.206   8.209 -0.0644  0.7586 -0.0042
 1022MOL0     C37896   6.940   6.063   8.150 -0.9649 -0.8768  0.0221
 1022MOL0     C37897   6.957   5.935   8.231 -0.5636  0.1859 -0.5636
 1022MOL0     C37898   6.978   5.813   8.156 -1.3633  0.1525  0.2202
 1022MOL0     C37899   6.987   5.701   8.100 -0.3227  0.3227  0.0883
 1022MOL0     C37900   6.918   6.195   8.646 -0.5275  0.3127 -0.5430
 1022MOL0     C37901   6.880   6.178   8.780 -1.3314  0.2110  0.3743
 1022MOL0     C37902   6.997   6.191   8.884  0.3015  0.8517  1.0905
 1022MOL0     H37903   6.291   6.182   8.974 -3.0350  0.4341  2.0214
 1022MOL0     H37904   6.144   6.102   9.145  0.4243  0.0984 -0.7711
 1022MOL0     H37905   6.312   6.027   9.554 -1.0028  0.4631  1.6987
 1022MOL0     H37906   6.213   6.171   9.527  0.1855  0.1648 -0.1237
 1022MOL0     H37907   6.011   5.993   9.512  1.8392 -0.5352 -2.6641
 1022MOL0     H37908   6.079   6.025   9.680 -0.8806 -0.8057 -0.2918
 1022MOL0     H37909   6.231   5.837   9.657  0.4641  0.8910 -0.6593
 1022MOL0     H37910   6.137   5.800   9.504 -1.7040  0.5505 -0.0924
 1022MOL0     H37911   5.944   5.836   9.701 -0.3800 -0.9784  0.2442
 1022MOL0     H37912   6.004   5.684   9.615  0.4052  1.4879 -1.6674
 1022MOL0     H37913   6.138   5.644   9.809  0.3893  0.4834 -2.7062
 1022MOL0     H37914   6.150   5.816   9.856 -0.0919  0.6505  1.7246
 1022MOL0     H37915   5.913   5.820   9.930 -1.9391  1.2342 -4.3555
 1022MOL0     H37916   5.901   5.645   9.874 -1.4142  1.5810 -0.2302
 1022MOL0     H37917   6.106   5.710  10.075 -0.6616  1.3154  0.5904
 1022MOL0     H37918   6.037   5.558  10.021 -1.3584 -0.4967  2.2007
 1022MOL0     H37919   5.893   5.786  10.182 -3.1127  0.0969 -1.1193
 1022MOL0     H37920   5.816   5.634  10.113  1.7731 -0.2346 -5.4761
 1022MOL0     H37921   5.985   5.416  10.181  0.2125 -0.4976  1.0862
 1022MOL0     H37922   6.106   5.246  10.359 -1.8226 -0.8088  0.1530
 1022MOL0     H37923   6.168   5.330  10.493 -1.3873  1.1237  1.1263
 1022MOL0     H37924   6.094   5.146  10.584  0.9865  2.7090  1.2703
 1022MOL0     H37925   5.986   5.264  10.636  0.9068 -0.4206  0.2408
 1022MOL0     H37926   5.882   5.059  10.586 -0.2075 -0.7691 -0.4643
 1022MOL0     H37927   5.943   5.040  10.424  1.2641  1.3471  0.1624
 1022MOL0     H37928   5.768   5.255  10.376 -0.8462 -0.7412 -0.2708
 1022MOL0     H37929   5.739   5.253  10.542 -0.1723  2.4654 -2.2013
 1022MOL0     H37930   5.859   5.107  10.221  1.2130 -2.3670 -1.1738
 1022MOL0     H37931   5.833   4.988  10.021  3.2048  3.2817  3.4204
 1022MOL0     H37932   5.262   4.740   9.795  0.9979  0.5641  1.2796
 1022MOL0     H37933   5.204   4.580   9.608 -0.4625  4.3436  1.0906
 1022MOL0     H37934   5.214   4.407   9.447  0.3802 -0.1673  0.1006
 1022MOL0     H37935   5.270   4.555   9.353  3.1595  0.9106  2.3427
 1022MOL0     H37936   5.318   4.242   9.316  0.7208  0.1474 -0.8795
 1022MOL0     H37937   5.218   4.350   9.215 -0.9233  0.9878  1.0589
 1022MOL0     H37938   5.455   4.478   9.183 -1.0135  0.5957  1.2266
 1022MOL0     H37939   5.518   4.316   9.209 -1.2593 -3.2087  0.0791
 1022MOL0     H37940   5.435   4.446   8.978  1.9297 -1.0106  1.0377
 1022MOL0     H37941   5.299   4.349   8.978  0.2358 -1.1396 -0.9429
 1022MOL0     H37942   5.445   4.142   8.986  0.0794  0.0950 -0.9312
 1022MOL0     H37943   5.584   4.227   9.042 -2.1470 -0.1947  1.3090
 1022MOL0     H37944   5.454   4.272   8.774  1.2431  2.2372 -0.1543
 1022MOL0     H37945   5.619   4.333   8.829 -0.0935  1.5683  4.1810
 1022MOL0     H37946   5.530   4.045   8.792 -0.5439  1.3669  1.1340
 1022MOL0     H37947   5.680   4.073   8.852  0.2743  0.1971  0.5694
 1022MOL0     H37948   5.709   4.245   8.630  1.0631 -0.2347 -1.9313
 1022MOL0     H37949   5.763   4.077   8.642 -1.0496 -0.4928 -0.3576
 1022MOL0     H37950   5.618   4.467   9.581  0.0757  4.8302 -2.7869
 1022MOL0     H37951   5.678   4.599   9.780 -0.3877 -1.0620  1.8096
 1022MOL0     H37952   5.444   4.841  10.153  0.3701 -1.0318 -0.2950
 1022MOL0     H37953   5.487   4.944  10.374  4.9945  0.3558  4.2961
 1022MOL0     H37954   6.472   6.038   9.411 -1.1578 -0.1380  0.3102
 1022MOL0     H37955   6.627   6.085   9.246 -0.7579  0.7927 -0.2146
 1022MOL0     H37956   6.537   6.157   8.722  0.5826 -3.0243 -0.1014
 1022MOL0     H37957   6.618   6.202   8.502  0.1837 -4.8119 -0.9220
 1022MOL0     H37958   7.048   6.151   8.410  2.1498  0.2028 -1.8080
 1022MOL0     H37959   7.024   6.328   8.383  2.1732 -0.9009 -3.5816
 1022MOL0     H37960   7.091   6.225   8.183  0.9043  0.6440  3.3346
 1022MOL0     H37961   6.929   6.281   8.153  0.8958  1.5499  0.0310
 1022MOL0     H37962   6.993   6.047   8.056  1.1763 -0.3684  1.0676
 1022MOL0     H37963   6.833   6.069   8.129 -0.2920  1.2511 -3.6420
 1022MOL0     H37964   7.042   5.955   8.296  0.6277  1.5994 -2.4450
 1022MOL0     H37965   6.868   5.930   8.295 -1.0843  0.9393 -1.1954
 1022MOL0     H37966   6.985   5.619   8.031 -1.0186  2.7214 -3.0001
 1022MOL0     H37967   7.023   6.211   8.626  0.1374 -2.3637  0.4241
 1022MOL0     H37968   7.083   6.230   8.829 -1.3611  1.1187 -1.5012
 1022MOL0     H37969   6.965   6.266   8.957  1.1998  3.1500 -0.7520
 1022MOL0     H37970   7.027   6.100   8.937  0.4751 -0.3488 -0.9332
 1023MOL0     O37971   5.900   8.017   0.917  0.1195 -0.0982  0.3361
 1023MOL0     C37972   5.834   8.001   1.020  0.2149  0.2633 -0.0428
 1023MOL0     O37973   5.884   7.950   1.133  0.1679 -0.0542 -0.2084
 1023MOL0     C37974   6.022   7.925   1.123  0.3789  0.3201 -0.3383
 1023MOL0     C37975   6.062   7.790   1.117 -0.0440  0.1001 -0.4518
 1023MOL0     C37976   6.198   7.750   1.119 -0.4760 -0.4572 -0.0681
 1023MOL0     C37977   6.291   7.853   1.110 -0.7790  0.6953 -0.9235
 1023MOL0     O37978   6.425   7.816   1.129  0.2757  0.2797  0.2088
 1023MOL0     C37979   6.505   7.879   1.027 -0.2559  0.1923 -0.7772
 1023MOL0     C37980   6.645   7.820   1.040 -0.2925 -0.1365 -0.4496
 1023MOL0     C37981   6.712   7.884   1.156  0.3825 -0.4041 -0.2725
 1023MOL0     C37982   6.857   7.833   1.178 -0.0950  0.7267  0.4658
 1023MOL0     C37983   6.923   7.890   1.302  0.9179 -0.2739 -1.0357
 1023MOL0     C37984   7.067   7.859   1.308  0.1870 -0.9188 -0.7486
 1023MOL0     C37985   7.129   7.903   1.451  0.8189 -0.0983  0.6932
 1023MOL0     C37986   7.116   8.056   1.461  0.3739  0.3950 -0.1132
 1023MOL0     N37987   7.178   8.081   1.582 -0.3650  0.2971 -0.5058
 1023MOL0     C37988   7.298   8.139   1.604 -0.2548 -0.7686 -0.0553
 1023MOL0     C37989   7.300   8.177   1.733 -0.3722 -0.6090 -0.0286
 1023MOL0     C37990   7.408   8.253   1.815  0.5098 -0.2881  0.6316
 1023MOL0     C37991   7.354   8.382   1.882  0.5125 -0.2295  0.2056
 1023MOL0     C37992   7.450   8.453   1.996 -0.0624  0.9090 -0.2142
 1023MOL0     C37993   7.382   8.560   2.093 -0.3155 -0.3003  0.9037
 1023MOL0     O37994   7.286   8.513   2.177 -0.0656 -0.2359 -0.7053
 1023MOL0     C37995   7.315   8.413   2.273 -0.0417  0.8388  0.0504
 1023MOL0     C37996   7.231   8.301   2.274  0.7436 -0.3515  0.3187
 1023MOL0     C37997   7.256   8.200   2.367  0.2687 -0.2759  0.9005
 1023MOL0     C37998   7.356   8.207   2.464 -0.1226  0.0477 -0.2070
 1023MOL0     C37999   7.390   8.097   2.562 -0.5775  0.4690  0.1025
 1023MOL0     O38000   7.287   8.033   2.625  0.7503  0.1100 -0.5509
 1023MOL0     C38001   7.320   7.929   2.715 -0.2252 -0.8015  0.3786
 1023MOL0     C38002   7.407   7.817   2.674  0.2865  0.5193 -0.2808
 1023MOL0     C38003   7.437   7.724   2.779 -0.8113 -0.1265  0.6516
 1023MOL0     C38004   7.373   7.720   2.898 -0.1896  0.0297 -0.4170
 1023MOL0     O38005   7.401   7.626   2.995  0.7030 -0.4827  0.3916
 1023MOL0     C38006   7.408   7.493   2.959 -0.3017  0.7870  0.0895
 1023MOL0     C38007   7.369   7.428   3.086 -0.5993 -0.2158 -0.2010
 1023MOL0     C38008   7.217   7.422   3.102  1.0663 -0.3367  0.5691
 1023MOL0     C38009   7.175   7.305   3.189  1.0646  0.2006 -0.3618
 1023MOL0     C38010   7.027   7.309   3.216  0.1007  0.6395  0.4740
 1023MOL0     C38011   6.991   7.194   3.303  0.2835 -0.2058 -0.5757
 1023MOL0     C38012   6.840   7.160   3.325  1.0274  0.6902 -0.0060
 1023MOL0     C38013   6.848   7.028   3.417 -0.0301  0.8796 -0.6357
 1023MOL0    Cl38014   6.905   6.885   3.319  0.1727  0.2560  0.4896
 1023MOL0     C38015   7.279   7.815   2.928 -1.1231  0.1157  0.8582
 1023MOL0     C38016   7.252   7.915   2.839  0.2773 -0.1440  0.1390
 1023MOL0     O38017   7.512   8.070   2.575 -0.3304  0.1615  0.0677
 1023MOL0     C38018   7.435   8.324   2.459 -0.8180 -0.4369  0.3918
 1023MOL0     C38019   7.414   8.431   2.373 -0.3681 -0.5406  0.1038
 1023MOL0     N38020   7.179   8.143   1.796 -0.1806 -0.9675  0.3801
 1023MOL0     N38021   7.108   8.093   1.705  0.2869 -0.2794 -0.2390
 1023MOL0     C38022   6.255   7.984   1.116  0.0374 -0.6646 -0.2808
 1023MOL0     C38023   6.120   8.025   1.129 -0.5350 -0.2125 -1.5023
 1023MOL0     C38024   5.690   8.049   1.011 -0.4902 -0.4950 -0.3325
 1023MOL0     C38025   5.650   8.128   0.903  0.4010 -0.6205 -0.1631
 1023MOL0     C38026   5.524   8.190   0.904 -0.2662  0.3268 -0.0520
 1023MOL0     C38027   5.436   8.160   0.993  0.3041 -0.7320 -0.1044
 1023MOL0     O38028   5.312   8.225   0.976 -0.3940 -0.3361 -1.0481
 1023MOL0     C38029   5.199   8.191   1.058 -0.4501 -0.5406 -0.4819
 1023MOL0     C38030   5.126   8.076   0.999  0.4234 -0.2501 -0.1044
 1023MOL0     C38031   4.991   8.057   1.069  0.5388 -0.2546 -0.2699
 1023MOL0     C38032   4.997   7.986   1.209 -0.6597  0.1010 -0.0661
 1023MOL0     C38033   5.056   8.068   1.320  0.4202 -0.0886  1.0133
 1023MOL0     C38034   5.076   8.144   1.406  0.1515  0.2084  0.2782
 1023MOL0     C38035   5.469   8.076   1.100 -0.3760  0.4098  0.4109
 1023MOL0     C38036   5.599   8.019   1.113 -0.0154  1.2903 -0.2189
 1023MOL0     C38037   5.618   7.939   1.246  0.8890  0.3820 -0.5175
 1023MOL0     H38038   5.992   7.709   1.129 -2.2763  1.3570 -3.5431
 1023MOL0     H38039   6.226   7.645   1.117 -2.5183 -1.0422 -0.0134
 1023MOL0     H38040   6.474   7.855   0.925  1.6998  0.8705 -1.5871
 1023MOL0     H38041   6.512   7.988   1.039 -1.7516  0.4357 -1.8608
 1023MOL0     H38042   6.694   7.857   0.949 -5.0829  0.4673 -3.1389
 1023MOL0     H38043   6.643   7.711   1.045 -0.9266 -0.1323 -0.5322
 1023MOL0     H38044   6.670   7.851   1.251  0.6692  1.8566  0.7098
 1023MOL0     H38045   6.719   7.993   1.151 -0.5785 -0.2245  1.4819
 1023MOL0     H38046   6.855   7.723   1.181 -1.3916  0.6215 -1.7388
 1023MOL0     H38047   6.910   7.857   1.085 -0.1679 -1.0148 -0.0784
 1023MOL0     H38048   6.909   7.998   1.296  0.6384 -0.2877 -0.6959
 1023MOL0     H38049   6.859   7.866   1.388 -1.6411  3.4622 -1.6674
 1023MOL0     H38050   7.099   7.754   1.299  3.2245 -0.3896  1.9128
 1023MOL0     H38051   7.122   7.915   1.232  3.6912 -0.1365  2.0635
 1023MOL0     H38052   7.231   7.868   1.468  0.7761  0.6473  2.7723
 1023MOL0     H38053   7.075   7.844   1.526  3.0580 -2.4838  0.5669
 1023MOL0     H38054   7.172   8.109   1.382  2.7594 -2.3785 -0.4389
 1023MOL0     H38055   7.013   8.092   1.459 -0.3435 -1.5110 -2.3377
 1023MOL0     H38056   7.367   8.166   1.525  0.5298 -3.7007 -0.4845
 1023MOL0     H38057   7.436   8.206   1.910 -1.5939  1.1382  2.0561
 1023MOL0     H38058   7.492   8.291   1.757 -0.5129 -0.7458 -1.2315
 1023MOL0     H38059   7.353   8.454   1.801 -3.1516 -0.4235 -0.0802
 1023MOL0     H38060   7.251   8.359   1.913  0.4286 -0.7566 -0.4388
 1023MOL0     H38061   7.534   8.503   1.946  0.6943  0.6540  0.7726
 1023MOL0     H38062   7.489   8.378   2.065 -0.1316 -0.0428 -1.1926
 1023MOL0     H38063   7.338   8.629   2.021  1.4313 -2.1182 -2.1145
 1023MOL0     H38064   7.454   8.617   2.152  0.6935 -2.1999  1.6025
 1023MOL0     H38065   7.153   8.286   2.201  1.0591  1.5271 -0.4662
 1023MOL0     H38066   7.192   8.112   2.378 -2.0500  1.0249 -1.2109
 1023MOL0     H38067   7.463   7.816   2.581  1.0736  0.0624  0.1844
 1023MOL0     H38068   7.513   7.647   2.768  1.4360  2.2518 -2.0544
 1023MOL0     H38069   7.349   7.456   2.875  0.4763 -1.6032  0.5151
 1023MOL0     H38070   7.513   7.468   2.938 -0.2827  0.4207  0.6031
 1023MOL0     H38071   7.412   7.327   3.079  0.2695 -0.1413  2.6654
 1023MOL0     H38072   7.419   7.479   3.169  0.7665  1.6557 -2.0607
 1023MOL0     H38073   7.190   7.514   3.155  3.0055 -0.3687  1.6974
 1023MOL0     H38074   7.165   7.410   3.006 -2.4259  1.3914  2.0389
 1023MOL0     H38075   7.230   7.302   3.284 -0.8389 -0.4213  0.7855
 1023MOL0     H38076   7.188   7.206   3.143  0.0230 -2.1341  3.8348
 1023MOL0     H38077   6.981   7.309   3.116  2.1902  1.0210 -0.5601
 1023MOL0     H38078   7.007   7.407   3.262  0.2750  0.6379  0.5531
 1023MOL0     H38079   7.034   7.100   3.267 -2.0903 -1.2089 -0.9822
 1023MOL0     H38080   7.031   7.218   3.402 -1.7327  0.1932  0.1736
 1023MOL0     H38081   6.790   7.146   3.228  2.1700 -2.1239 -0.2989
 1023MOL0     H38082   6.786   7.242   3.373  2.0586 -0.1993  2.8754
 1023MOL0     H38083   6.911   7.047   3.504  0.1232  0.7489 -0.7192
 1023MOL0     H38084   6.749   7.013   3.463 -0.6506 -1.5044 -2.5736
 1023MOL0     H38085   7.228   7.813   3.024 -3.2292  0.0467 -0.1946
 1023MOL0     H38086   7.182   7.993   2.868  1.2533 -0.0856  2.6532
 1023MOL0     H38087   7.516   8.337   2.531 -0.2161  0.4163 -0.4202
 1023MOL0     H38088   7.477   8.519   2.377 -0.7715 -0.2706  0.7743
 1023MOL0     H38089   6.329   8.064   1.124 -0.4052 -0.0989 -1.5012
 1023MOL0     H38090   6.083   8.127   1.125  1.4945  0.5487 -2.5566
 1023MOL0     H38091   5.718   8.148   0.820  2.0047 -2.7317  0.5209
 1023MOL0     H38092   5.496   8.259   0.825  1.1311  1.7707  0.6406
 1023MOL0     H38093   5.136   8.280   1.063 -1.7210 -1.0896 -3.9253
 1023MOL0     H38094   5.227   8.172   1.162  0.3485 -0.9332 -0.7599
 1023MOL0     H38095   5.190   7.991   1.025 -0.0393 -0.4654  0.3584
 1023MOL0     H38096   5.129   8.079   0.890 -1.6670 -1.5563 -0.2509
 1023MOL0     H38097   4.921   7.993   1.014  0.0838  1.2245 -1.5032
 1023MOL0     H38098   4.939   8.151   1.090  2.2678  0.8516 -0.7266
 1023MOL0     H38099   4.897   7.957   1.242 -0.9449 -0.6449 -1.4880
 1023MOL0     H38100   5.061   7.900   1.188 -1.5000 -0.4753 -0.3529
 1023MOL0     H38101   5.090   8.207   1.491  1.6769  2.6618 -1.6712
 1023MOL0     H38102   5.402   8.059   1.183  1.5397 -2.1775  1.5977
 1023MOL0     H38103   5.649   7.836   1.226 -2.2118 -0.7487 -0.1418
 1023MOL0     H38104   5.686   7.991   1.313  3.0714  0.7550 -2.8758
 1023MOL0     H38105   5.521   7.915   1.290  2.4236 -3.1479  1.3831
 1024MOL0     O38106   5.203   7.794   9.956 -0.8592  0.2139  0.4745
 1024MOL0     C38107   5.125   7.835   9.872  0.0943  0.1806  0.0326
 1024MOL0     O38108   5.011   7.769   9.825 -0.5632  0.1091  0.5706
 1024MOL0     C38109   4.981   7.652   9.880  0.4112 -0.0934 -0.2415
 1024MOL0     C38110   5.035   7.536   9.836  0.3089  1.0286  0.0883
 1024MOL0     C38111   5.018   7.414   9.909 -1.0671 -0.6835 -1.2450
 1024MOL0     C38112   4.942   7.414  10.023 -0.0379 -0.3443 -0.3318
 1024MOL0     O38113   4.947   7.314  10.118  0.4743  0.2060 -0.0953
 1024MOL0     C38114   4.965   7.180  10.082 -0.3408  0.3914  0.0715
 1024MOL0     C38115   4.869   7.111  10.192 -0.1909  0.3198  0.3278
 1024MOL0     C38116   4.943   7.075  10.317  0.4485  0.4480 -0.3744
 1024MOL0     C38117   4.875   6.956  10.390 -0.6863 -0.6358  0.8319
 1024MOL0     C38118   4.937   6.821  10.364  0.5183  0.9464  0.2150
 1024MOL0     C38119   4.900   6.716  10.461 -0.3855  0.5682 -0.2509
 1024MOL0     C38120   4.976   6.590  10.439  0.1234  0.3137 -0.7133
 1024MOL0     C38121   4.945   6.476  10.543 -0.4139  0.0547  0.2552
 1024MOL0     N38122   5.035   6.355  10.528 -0.2006 -0.4923  0.0834
 1024MOL0     C38123   5.045   6.291  10.413  0.3757  0.6706  0.1648
 1024MOL0     C38124   5.095   6.165  10.442  0.0087 -0.6050  0.6356
 1024MOL0     C38125   5.141   6.056  10.352 -0.5685 -0.4435  0.4552
 1024MOL0     C38126   5.030   5.962  10.367  0.3136  0.5272 -0.3429
 1024MOL0     C38127   5.021   5.848  10.256 -0.4170 -0.7819 -0.0074
 1024MOL0     C38128   4.996   5.903  10.109 -0.0182  0.5021 -0.2335
 1024MOL0     O38129   4.971   6.049  10.098 -0.5786 -0.0579 -0.4355
 1024MOL0     C38130   4.945   6.096   9.972  0.4037  0.0152 -0.0943
 1024MOL0     C38131   4.933   6.024   9.855  0.4349  0.4023 -1.0327
 1024MOL0     C38132   4.886   6.083   9.745 -0.0002 -0.4078 -0.3508
 1024MOL0     C38133   4.857   6.221   9.739  0.9657 -0.3961 -0.4370
 1024MOL0     C38134   4.793   6.290   9.628  0.2505  0.0058 -0.3272
 1024MOL0     O38135   4.790   6.206   9.513  0.0979  0.5717 -0.3910
 1024MOL0     C38136   4.748   6.257   9.393  0.1299 -0.3501  0.2901
 1024MOL0     C38137   4.832   6.266   9.285 -0.1164 -0.0923 -0.1752
 1024MOL0     C38138   4.785   6.300   9.158 -0.6181 -0.1225 -0.2094
 1024MOL0     C38139   4.651   6.348   9.140  0.3158 -0.4786 -0.2274
 1024MOL0     O38140   4.590   6.389   9.019 -0.3387 -0.3595 -0.4983
 1024MOL0     C38141   4.661   6.494   8.950 -0.8650 -0.1727  0.6574
 1024MOL0     C38142   4.570   6.572   8.850 -0.1694  0.0100  0.7736
 1024MOL0     C38143   4.638   6.705   8.818 -0.0628  0.4115 -0.1086
 1024MOL0     C38144   4.776   6.681   8.744  0.6279 -0.2941  0.0313
 1024MOL0     C38145   4.856   6.811   8.758  0.0124  0.5887  0.1488
 1024MOL0     C38146   4.990   6.807   8.682  0.0309  0.3962 -0.3979
 1024MOL0     C38147   5.054   6.948   8.697 -0.6777  0.0734  0.1137
 1024MOL0     C38148   5.185   6.948   8.617  0.9565  0.0856 -0.4547
 1024MOL0    Cl38149   5.240   7.130   8.625 -0.4599  0.9009  0.0839
 1024MOL0     C38150   4.568   6.352   9.260  0.1606  0.7955  1.1366
 1024MOL0     C38151   4.610   6.289   9.383 -0.7728  0.1876 -0.7682
 1024MOL0     O38152   4.751   6.401   9.633  0.1784  0.2238 -0.0025
 1024MOL0     C38153   4.881   6.297   9.855 -0.3881 -0.0656 -0.0763
 1024MOL0     C38154   4.924   6.236   9.971  0.5833  0.6822  0.0677
 1024MOL0     N38155   5.104   6.154  10.578  0.0438  0.2826  0.3556
 1024MOL0     N38156   5.074   6.273  10.625 -0.2452 -0.6615  0.0427
 1024MOL0     C38157   4.898   7.535  10.071  0.3149 -1.1856 -1.0034
 1024MOL0     C38158   4.914   7.656  10.004 -0.6313  0.6301  0.1522
 1024MOL0     C38159   5.131   7.968   9.829  0.7027 -0.7670  0.4178
 1024MOL0     C38160   5.154   7.983   9.695 -0.3593 -0.5079  0.1382
 1024MOL0     C38161   5.214   8.099   9.646  1.1631  0.0610 -0.4614
 1024MOL0     C38162   5.232   8.211   9.731 -0.6611  0.0553  0.4908
 1024MOL0     O38163   5.263   8.339   9.688  0.1225 -0.0598 -0.2477
 1024MOL0     C38164   5.276   8.346   9.547 -0.7523 -0.1494  0.3712
 1024MOL0     C38165   5.260   8.496   9.517 -0.0290  0.6095 -0.3292
 1024MOL0     C38166   5.114   8.532   9.549  0.7642 -0.1310  0.4363
 1024MOL0     C38167   5.093   8.674   9.563  0.1333  0.1080 -0.0103
 1024MOL0     C38168   5.139   8.723   9.692 -0.7306 -0.0191 -0.4869
 1024MOL0     C38169   5.193   8.737   9.797 -0.7152 -0.6019  0.0730
 1024MOL0     C38170   5.211   8.188   9.871 -0.7908  0.4746 -0.1186
 1024MOL0     C38171   5.158   8.070   9.920  1.0185 -0.1018  1.1235
 1024MOL0     C38172   5.138   8.055  10.060  0.1389 -0.0176  0.5823
 1024MOL0     H38173   5.094   7.544   9.745 -0.6969  2.1606 -0.5040
 1024MOL0     H38174   5.070   7.322   9.884 -1.4536 -0.5627 -2.5660
 1024MOL0     H38175   4.932   7.160   9.980  1.4219  1.6696 -0.7856
 1024MOL0     H38176   5.065   7.140  10.099 -0.6469  0.3924  2.1784
 1024MOL0     H38177   4.846   7.014  10.147  1.5675 -0.5355  1.1673
 1024MOL0     H38178   4.774   7.158  10.219 -0.4994 -0.1796  0.1217
 1024MOL0     H38179   4.951   7.161  10.383  1.3419  0.5279 -0.5759
 1024MOL0     H38180   5.048   7.052  10.295  1.2074  2.5394  0.7800
 1024MOL0     H38181   4.892   6.974  10.496 -1.6521 -3.9965  1.6626
 1024MOL0     H38182   4.766   6.960  10.380 -0.6759  1.5387  1.0223
 1024MOL0     H38183   4.918   6.790  10.261 -1.5341 -1.3603  1.1728
 1024MOL0     H38184   5.043   6.827  10.390  0.8712  1.1716 -1.1916
 1024MOL0     H38185   4.926   6.746  10.563  3.8640 -2.2555 -0.2333
 1024MOL0     H38186   4.797   6.681  10.462  0.3034 -1.8742  2.6836
 1024MOL0     H38187   5.082   6.618  10.447  0.9155 -1.7424 -2.9624
 1024MOL0     H38188   4.956   6.557  10.337 -1.5479  0.5805 -0.4939
 1024MOL0     H38189   4.933   6.510  10.646 -1.9854 -0.3122  0.2175
 1024MOL0     H38190   4.847   6.432  10.526  0.3523 -1.0621 -1.6604
 1024MOL0     H38191   5.028   6.330  10.314  2.7367  3.7299  0.8329
 1024MOL0     H38192   5.152   6.094  10.250  0.6461 -0.6996  0.4750
 1024MOL0     H38193   5.236   6.008  10.376  1.7906  1.8910 -3.2261
 1024MOL0     H38194   5.041   5.916  10.465  2.4861  3.4195  0.8944
 1024MOL0     H38195   4.933   6.011  10.375 -0.5924 -1.3039  0.6202
 1024MOL0     H38196   4.951   5.767  10.277 -0.7866 -1.5134 -3.5279
 1024MOL0     H38197   5.117   5.796  10.264 -1.4380 -2.4991  3.0017
 1024MOL0     H38198   4.902   5.864  10.067 -0.4458  2.8887 -1.6877
 1024MOL0     H38199   5.076   5.876  10.039 -1.1341  1.4795 -1.9884
 1024MOL0     H38200   4.968   5.921   9.854  0.4149  0.3206  1.1338
 1024MOL0     H38201   4.857   6.020   9.662  0.4598 -2.1767  0.7880
 1024MOL0     H38202   4.936   6.237   9.299  1.3336  2.9540 -3.1685
 1024MOL0     H38203   4.847   6.293   9.069 -1.3865  2.2353 -0.9918
 1024MOL0     H38204   4.706   6.566   9.018  0.6224 -0.8884  0.4612
 1024MOL0     H38205   4.742   6.445   8.896 -2.8445 -1.8074 -1.0160
 1024MOL0     H38206   4.553   6.523   8.754 -2.2705  3.3408 -0.7846
 1024MOL0     H38207   4.472   6.594   8.894 -0.6951 -2.8705  1.2296
 1024MOL0     H38208   4.574   6.759   8.747 -0.5082  0.4152  0.2980
 1024MOL0     H38209   4.650   6.765   8.908 -4.2203  2.5288 -0.7035
 1024MOL0     H38210   4.766   6.661   8.637  3.5593 -1.3857 -0.1090
 1024MOL0     H38211   4.838   6.602   8.785  1.4530 -0.4625 -1.4675
 1024MOL0     H38212   4.886   6.841   8.859 -1.7108 -2.2103  1.6233
 1024MOL0     H38213   4.790   6.890   8.721 -0.2682  1.8097  2.9752
 1024MOL0     H38214   5.058   6.731   8.722  2.0387  1.2406 -2.0118
 1024MOL0     H38215   4.975   6.770   8.581  1.4610 -1.8875  0.1622
 1024MOL0     H38216   5.067   6.992   8.797 -0.9635 -0.6557  0.4754
 1024MOL0     H38217   4.986   7.017   8.646 -0.9946 -1.8361 -2.2204
 1024MOL0     H38218   5.252   6.876   8.666  0.5699  0.5510  0.7951
 1024MOL0     H38219   5.159   6.905   8.520 -0.8309 -0.2179  0.1341
 1024MOL0     H38220   4.473   6.402   9.241  0.7751  1.1484 -1.2507
 1024MOL0     H38221   4.549   6.292   9.473  1.2559  1.2093  0.6449
 1024MOL0     H38222   4.839   6.397   9.857 -1.2149 -0.3627 -1.2066
 1024MOL0     H38223   4.920   6.293  10.064 -0.1009  0.9980 -0.1475
 1024MOL0     H38224   4.855   7.530  10.171  1.6886 -1.5677 -0.4037
 1024MOL0     H38225   4.881   7.747  10.052 -1.1614  0.1048  0.8155
 1024MOL0     H38226   5.141   7.901   9.625  0.7016 -0.0826 -0.5798
 1024MOL0     H38227   5.237   8.104   9.540  2.0414 -0.7452 -0.3236
 1024MOL0     H38228   5.197   8.297   9.491  1.0274 -1.0823 -1.4493
 1024MOL0     H38229   5.363   8.294   9.506 -2.3585 -1.6154 -1.3432
 1024MOL0     H38230   5.289   8.510   9.412  0.3015 -3.2527 -0.8788
 1024MOL0     H38231   5.329   8.559   9.575  1.4896 -0.2375 -1.1614
 1024MOL0     H38232   5.080   8.482   9.639  0.5381  2.2544  1.7630
 1024MOL0     H38233   5.059   8.500   9.460  1.5079  0.7228 -0.3559
 1024MOL0     H38234   5.153   8.735   9.495 -2.0368  1.7629 -0.5433
 1024MOL0     H38235   4.990   8.705   9.542  1.3105  2.8605 -2.5252
 1024MOL0     H38236   5.254   8.723   9.884 -0.2209 -2.3129 -0.5239
 1024MOL0     H38237   5.219   8.270   9.942 -0.9829 -1.7899  2.7149
 1024MOL0     H38238   5.234   8.027  10.103  0.4575  1.6467  1.0172
 1024MOL0     H38239   5.112   8.155  10.095  3.0785  0.4529  1.7594
 1024MOL0     H38240   5.059   7.983  10.082 -1.4125  2.1414  2.4812
  11.47565  11.47565  11.47565
